Protein in INSANE! Membrane UpperLeaflet>POPC=1.0 LowerLeaflet>POPC=1.0
239134
   85AUC    AUC    1   9.342  31.495   7.503
   86AUC    AUC    2   9.587  31.495   7.351
   87AUC    AUC    3   9.587  31.495   7.654
   88AUC    AUC    4   9.097  31.495   7.351
   89AUC    AUC    5   9.097  31.495   7.654
   90AUC    AUC    6   9.190  31.741   7.503
   91AUC    AUC    7   9.494  31.741   7.503
   92AUC    AUC    8   9.190  31.250   7.503
   93AUC    AUC    9   9.494  31.250   7.503
   94AUC    AUC   10   9.342  31.344   7.748
   95AUC    AUC   11   9.342  31.647   7.748
   96AUC    AUC   12   9.342  31.344   7.257
   97AUC    AUC   13   9.342  31.647   7.257
   98AUC    AUC   14   9.833  31.495   7.199
   99AUC    AUC   15   9.833  31.495   7.503
  100AUC    AUC   16   9.833  31.495   7.806
  101AUC    AUC   17   8.851  31.495   7.199
  102AUC    AUC   18   8.851  31.495   7.503
  103AUC    AUC   19   8.851  31.495   7.806
  104AUC    AUC   20   9.039  31.986   7.503
  105AUC    AUC   21   9.342  31.986   7.503
  106AUC    AUC   22   9.645  31.986   7.503
  107AUC    AUC   23   9.039  31.005   7.503
  108AUC    AUC   24   9.342  31.005   7.503
  109AUC    AUC   25   9.645  31.005   7.503
  110AUC    AUC   26   9.342  31.192   7.993
  111AUC    AUC   27   9.342  31.495   7.993
  112AUC    AUC   28   9.342  31.799   7.993
  113AUC    AUC   29   9.342  31.192   7.012
  114AUC    AUC   30   9.342  31.495   7.012
  115AUC    AUC   31   9.342  31.799   7.012
  116AUC    AUC   32   9.587  31.344   7.900
  117AUC    AUC   33   9.587  31.647   7.900
  118AUC    AUC   34   9.587  31.344   7.106
  119AUC    AUC   35   9.587  31.647   7.106
  120AUC    AUC   36   9.097  31.344   7.900
  121AUC    AUC   37   9.097  31.647   7.900
  122AUC    AUC   38   9.097  31.344   7.106
  123AUC    AUC   39   9.097  31.647   7.106
  124AUC    AUC   40   9.739  31.741   7.351
  125AUC    AUC   41   9.739  31.741   7.654
  126AUC    AUC   42   8.945  31.741   7.351
  127AUC    AUC   43   8.945  31.741   7.654
  128AUC    AUC   44   9.739  31.250   7.351
  129AUC    AUC   45   9.739  31.250   7.654
  130AUC    AUC   46   8.945  31.250   7.351
  131AUC    AUC   47   8.945  31.250   7.654
  132AUC    AUC   48   9.190  31.893   7.748
  133AUC    AUC   49   9.494  31.893   7.748
  134AUC    AUC   50   9.190  31.098   7.748
  135AUC    AUC   51   9.494  31.098   7.748
  136AUC    AUC   52   9.190  31.893   7.257
  137AUC    AUC   53   9.494  31.893   7.257
  138AUC    AUC   54   9.190  31.098   7.257
  139AUC    AUC   55   9.494  31.098   7.257
  140AUSL   AUS   56   9.751  31.495   8.083
  141AUSL   AUS   57   9.607  31.079   8.013
  142AUL    AUL   58   9.833  31.192   8.297
  143THSLK    S   59   9.717  30.892   8.153
  144ETHY    C1   60   9.753  30.493   8.368
  145ETHY    C1   61   9.863  30.063   8.665
  146ETHY    C1   62  10.041  29.699   9.000
  147ETHY    C1   63  10.275  29.403   9.364
  148ETHY    C1   64  10.561  29.186   9.752
  149ETHY    C1   65  10.892  29.053  10.156
  150THSLK    S   66   9.844  31.443   8.324
  151ETHY    C1   67  10.048  31.223   8.665
  152ETHY    C1   68  10.312  31.046   9.094
  153ETHY    C1   69  10.588  30.970   9.535
  154ETHY    C1   70  10.865  30.987   9.980
  155ETHY    C1   71  11.135  31.100  10.419
  156ETHY    C1   72  11.394  31.309  10.845
  157AUSL   AUS   73   9.506  31.344   8.176
  158AUSL   AUS   74   9.178  31.647   8.176
  159AUL    AUL   75   9.342  31.495   8.484
  160THSLK    S   76   9.581  31.289   8.413
  161ETHY    C1   77   9.645  31.009   8.765
  162ETHY    C1   78   9.748  30.754   9.223
  163ETHY    C1   79   9.875  30.595   9.708
  164ETHY    C1   80  10.017  30.526  10.208
  165ETHY    C1   81  10.171  30.554  10.713
  166ETHY    C1   82  10.331  30.678  11.212
  167THSLK    S   83   9.093  31.601   8.428
  168ETHY    C1   84   9.019  31.451   8.850
  169ETHY    C1   85   8.914  31.363   9.367
  170ETHY    C1   86   8.792  31.375   9.878
  171ETHY    C1   87   8.654  31.476  10.373
  172ETHY    C1   88   8.499  31.669  10.840
  173ETHY    C1   89   8.330  31.950  11.268
  174AUSL   AUS   90   9.506  31.647   8.176
  175AUSL   AUS   91   9.852  31.760   7.919
  176AUL    AUL   92   9.833  31.799   8.297
  177THSLK    S   93   9.591  31.703   8.410
  178ETHY    C1   94   9.665  31.984   8.759
  179ETHY    C1   95   9.770  32.239   9.217
  180ETHY    C1   96   9.892  32.398   9.703
  181ETHY    C1   97  10.031  32.467  10.204
  182ETHY    C1   98  10.185  32.440  10.708
  183ETHY    C1   99  10.354  32.316  11.206
  184THSLK    S  100  10.024  31.858   8.080
  185ETHY    C1  101  10.387  31.829   8.350
  186ETHY    C1  102  10.809  31.885   8.673
  187ETHY    C1  103  11.201  32.039   8.989
  188ETHY    C1  104  11.555  32.277   9.293
  189ETHY    C1  105  11.862  32.598   9.580
  190ETHY    C1  106  12.113  32.995   9.844
  191AUSL   AUS  107   9.751  31.495   6.923
  192AUSL   AUS  108   9.607  31.912   6.992
  193AUL    AUL  109   9.833  31.799   6.708
  194THSLK    S  110   9.853  31.443   6.687
  195ETHY    C1  111  10.066  31.223   6.351
  196ETHY    C1  112  10.331  31.046   5.923
  197ETHY    C1  113  10.603  30.970   5.479
  198ETHY    C1  114  10.877  30.987   5.033
  199ETHY    C1  115  11.148  31.100   4.594
  200ETHY    C1  116  11.413  31.309   4.173
  201THSLK    S  117   9.785  32.023   6.829
  202ETHY    C1  118  10.087  32.091   6.497
  203ETHY    C1  119  10.406  32.254   6.100
  204ETHY    C1  120  10.671  32.501   5.719
  205ETHY    C1  121  10.883  32.821   5.362
  206ETHY    C1  122  11.036  33.211   5.039
  207ETHY    C1  123  11.127  33.663   4.759
  208AUSL   AUS  124   9.506  31.344   6.829
  209AUSL   AUS  125   9.852  31.231   7.086
  210AUL    AUL  126   9.833  31.192   6.708
  211THSLK    S  127   9.985  31.039   6.949
  212ETHY    C1  128  10.168  30.672   6.752
  213ETHY    C1  129  10.440  30.300   6.483
  214ETHY    C1  130  10.765  30.011   6.186
  215ETHY    C1  131  11.131  29.804   5.874
  216ETHY    C1  132  11.535  29.685   5.555
  217ETHY    C1  133  11.968  29.660   5.235
  218THSLK    S  134   9.591  31.288   6.596
  219ETHY    C1  135   9.665  31.007   6.246
  220ETHY    C1  136   9.770  30.751   5.788
  221ETHY    C1  137   9.892  30.593   5.302
  222ETHY    C1  138  10.031  30.524   4.801
  223ETHY    C1  139  10.185  30.551   4.297
  224ETHY    C1  140  10.354  30.675   3.799
  225AUSL   AUS  141   9.506  31.647   6.829
  226AUSL   AUS  142   9.178  31.344   6.829
  227AUL    AUL  143   9.342  31.495   6.521
  228THSLK    S  144   9.086  31.288   6.597
  229ETHY    C1  145   8.951  31.010   6.264
  230ETHY    C1  146   8.790  30.757   5.822
  231ETHY    C1  147   8.638  30.600   5.343
  232ETHY    C1  148   8.502  30.531   4.842
  233ETHY    C1  149   8.385  30.557   4.328
  234ETHY    C1  150   8.292  30.676   3.810
  235THSLK    S  151   9.608  31.601   6.583
  236ETHY    C1  152   9.754  31.451   6.179
  237ETHY    C1  153   9.916  31.360   5.678
  238ETHY    C1  154  10.063  31.370   5.173
  239ETHY    C1  155  10.196  31.471   4.677
  240ETHY    C1  156  10.313  31.666   4.200
  241ETHY    C1  157  10.414  31.952   3.754
  242AUSL   AUS  158   8.933  31.495   8.083
  243AUSL   AUS  159   9.077  31.912   8.013
  244AUL    AUL  160   8.851  31.799   8.297
  245THSLK    S  161   8.831  31.443   8.319
  246ETHY    C1  162   8.619  31.223   8.654
  247ETHY    C1  163   8.353  31.046   9.082
  248ETHY    C1  164   8.081  30.970   9.526
  249ETHY    C1  165   7.807  30.987   9.973
  250ETHY    C1  166   7.536  31.100  10.411
  251ETHY    C1  167   7.271  31.309  10.832
  252THSLK    S  168   8.960  32.036   8.202
  253ETHY    C1  169   8.917  32.179   8.632
  254ETHY    C1  170   8.806  32.404   9.104
  255ETHY    C1  171   8.630  32.681   9.515
  256ETHY    C1  172   8.399  32.997   9.863
  257ETHY    C1  173   8.113  33.345  10.138
  258ETHY    C1  174   7.776  33.718  10.334
  259AUSL   AUS  175   9.178  31.344   8.176
  260AUSL   AUS  176   8.832  31.231   7.919
  261AUL    AUL  177   8.851  31.192   8.297
  262THSLK    S  178   8.655  31.068   8.026
  263ETHY    C1  179   8.284  30.811   8.082
  264ETHY    C1  180   7.862  30.523   8.237
  265ETHY    C1  181   7.472  30.268   8.482
  266ETHY    C1  182   7.120  30.051   8.803
  267ETHY    C1  183   6.814  29.880   9.198
  268ETHY    C1  184   6.557  29.759   9.657
  269THSLK    S  185   9.076  31.290   8.406
  270ETHY    C1  186   8.930  31.014   8.736
  271ETHY    C1  187   8.768  30.762   9.178
  272ETHY    C1  188   8.621  30.604   9.658
  273ETHY    C1  189   8.488  30.534  10.160
  274ETHY    C1  190   8.371  30.560  10.674
  275ETHY    C1  191   8.270  30.681  11.190
  276AUSL   AUS  192   8.933  31.495   6.923
  277AUSL   AUS  193   9.077  31.079   6.992
  278AUL    AUL  194   8.851  31.192   6.708
  279THSLK    S  195   8.840  31.443   6.681
  280ETHY    C1  196   8.636  31.223   6.341
  281ETHY    C1  197   8.372  31.046   5.911
  282ETHY    C1  198   8.096  30.970   5.470
  283ETHY    C1  199   7.819  30.987   5.025
  284ETHY    C1  200   7.549  31.100   4.586
  285ETHY    C1  201   7.290  31.309   4.161
  286THSLK    S  202   8.906  30.906   6.878
  287ETHY    C1  203   8.611  30.580   6.760
  288ETHY    C1  204   8.293  30.213   6.538
  289ETHY    C1  205   8.025  29.878   6.233
  290ETHY    C1  206   7.811  29.578   5.861
  291ETHY    C1  207   7.659  29.320   5.426
  292ETHY    C1  208   7.573  29.108   4.937
  293AUSL   AUS  209   9.178  31.647   6.829
  294AUSL   AUS  210   8.832  31.760   7.086
  295AUL    AUL  211   8.851  31.799   6.708
  296THSLK    S  212   8.705  31.887   6.895
  297ETHY    C1  213   8.528  31.968   6.484
  298ETHY    C1  214   8.257  32.108   6.046
  299ETHY    C1  215   7.930  32.296   5.679
  300ETHY    C1  216   7.561  32.525   5.385
  301ETHY    C1  217   7.159  32.792   5.173
  302ETHY    C1  218   6.730  33.094   5.047
  303THSLK    S  219   9.103  31.603   6.576
  304ETHY    C1  220   9.039  31.456   6.150
  305ETHY    C1  221   8.936  31.367   5.634
  306ETHY    C1  222   8.809  31.378   5.123
  307ETHY    C1  223   8.667  31.479   4.629
  308ETHY    C1  224   8.514  31.672   4.162
  309ETHY    C1  225   8.353  31.955   3.732
  310AUSL   AUS  226   9.922  31.904   7.503
  311AUSL   AUS  227   9.852  31.760   7.086
  312AUL    AUL  228  10.136  31.986   7.199
  313THSLK    S  229  10.030  31.859   6.934
  314ETHY    C1  230  10.400  31.832   6.671
  315ETHY    C1  231  10.822  31.888   6.349
  316ETHY    C1  232  11.212  32.042   6.030
  317ETHY    C1  233  11.564  32.279   5.724
  318ETHY    C1  234  11.871  32.600   5.438
  319ETHY    C1  235  12.127  32.999   5.179
  320THSLK    S  236  10.188  31.957   7.508
  321ETHY    C1  237  10.642  31.979   7.513
  322ETHY    C1  238  11.164  32.093   7.514
  323ETHY    C1  239  11.647  32.302   7.511
  324ETHY    C1  240  12.083  32.592   7.510
  325ETHY    C1  241  12.462  32.959   7.510
  326ETHY    C1  242  12.776  33.399   7.514
  327AUSL   AUS  243  10.016  31.659   7.351
  328AUSL   AUS  244  10.016  31.332   7.654
  329AUL    AUL  245  10.324  31.495   7.503
  330THSLK    S  246  10.272  31.698   7.350
  331ETHY    C1  247  10.708  31.590   7.286
  332ETHY    C1  248  11.234  31.552   7.201
  333ETHY    C1  249  11.749  31.616   7.113
  334ETHY    C1  250  12.243  31.770   7.026
  335ETHY    C1  251  12.703  32.015   6.945
  336ETHY    C1  252  13.122  32.347   6.873
  337THSLK    S  253  10.243  31.192   7.663
  338ETHY    C1  254  10.562  30.876   7.728
  339ETHY    C1  255  10.995  30.572   7.807
  340ETHY    C1  256  11.470  30.362   7.887
  341ETHY    C1  257  11.973  30.241   7.971
  342ETHY    C1  258  12.493  30.215   8.058
  343ETHY    C1  259  13.021  30.285   8.147
  344AUSL   AUS  260  10.016  31.659   7.654
  345AUSL   AUS  261   9.758  32.006   7.767
  346AUL    AUL  262  10.136  31.986   7.806
  347THSLK    S  263   9.941  32.120   7.926
  348ETHY    C1  264  10.324  32.238   8.140
  349ETHY    C1  265  10.742  32.461   8.388
  350ETHY    C1  266  11.101  32.766   8.622
  351ETHY    C1  267  11.398  33.139   8.840
  352ETHY    C1  268  11.623  33.573   9.038
  353ETHY    C1  269  11.770  34.061   9.215
  354THSLK    S  270  10.270  31.698   7.665
  355ETHY    C1  271  10.705  31.590   7.740
  356ETHY    C1  272  11.231  31.552   7.826
  357ETHY    C1  273  11.746  31.615   7.910
  358ETHY    C1  274  12.240  31.769   7.993
  359ETHY    C1  275  12.701  32.014   8.075
  360ETHY    C1  276  13.118  32.346   8.155
  361AUSL   AUS  277   8.762  31.904   7.503
  362AUSL   AUS  278   8.832  31.760   7.919
  363AUL    AUL  279   8.548  31.986   7.806
  364THSLK    S  280   8.699  31.879   8.109
  365ETHY    C1  281   8.516  31.951   8.519
  366ETHY    C1  282   8.244  32.091   8.957
  367ETHY    C1  283   7.919  32.282   9.324
  368ETHY    C1  284   7.553  32.513   9.619
  369ETHY    C1  285   7.150  32.780   9.831
  370ETHY    C1  286   6.716  33.076   9.956
  371THSLK    S  287   8.551  32.045   7.508
  372ETHY    C1  288   8.329  32.442   7.513
  373ETHY    C1  289   7.993  32.857   7.514
  374ETHY    C1  290   7.590  33.196   7.511
  375ETHY    C1  291   7.136  33.457   7.510
  376ETHY    C1  292   6.637  33.631   7.510
  377ETHY    C1  293   6.104  33.715   7.514
  378AUSL   AUS  294   8.668  31.659   7.351
  379AUSL   AUS  295   8.926  32.006   7.238
  380AUL    AUL  296   8.548  31.986   7.199
  381THSLK    S  297   8.441  31.774   7.303
  382ETHY    C1  298   8.122  31.974   7.049
  383ETHY    C1  299   7.689  32.180   6.813
  384ETHY    C1  300   7.214  32.346   6.661
  385ETHY    C1  301   6.711  32.475   6.590
  386ETHY    C1  302   6.191  32.565   6.605
  387ETHY    C1  303   5.663  32.613   6.708
  388THSLK    S  304   8.814  32.169   7.060
  389ETHY    C1  305   8.735  32.479   6.737
  390ETHY    C1  306   8.560  32.853   6.397
  391ETHY    C1  307   8.306  33.221   6.120
  392ETHY    C1  308   7.986  33.578   5.909
  393ETHY    C1  309   7.605  33.916   5.770
  394ETHY    C1  310   7.170  34.230   5.709
  395AUSL   AUS  311   8.668  31.659   7.654
  396AUSL   AUS  312   8.668  31.332   7.351
  397AUL    AUL  313   8.360  31.495   7.503
  398THSLK    S  314   8.414  31.259   7.394
  399ETHY    C1  315   7.979  31.241   7.524
  400ETHY    C1  316   7.453  31.181   7.597
  401ETHY    C1  317   6.938  31.077   7.578
  402ETHY    C1  318   6.444  30.934   7.477
  403ETHY    C1  319   5.984  30.751   7.294
  404ETHY    C1  320   5.566  30.531   7.034
  405THSLK    S  321   8.440  31.765   7.707
  406ETHY    C1  322   8.119  31.956   7.966
  407ETHY    C1  323   7.686  32.160   8.202
  408ETHY    C1  324   7.211  32.331   8.352
  409ETHY    C1  325   6.709  32.463   8.422
  410ETHY    C1  326   6.189  32.551   8.407
  411ETHY    C1  327   5.660  32.592   8.308
  412AUSL   AUS  328   9.922  31.086   7.503
  413AUSL   AUS  329   9.852  31.231   7.919
  414AUL    AUL  330  10.136  31.005   7.806
  415THSLK    S  331  10.133  30.945   7.508
  416ETHY    C1  332  10.355  30.549   7.513
  417ETHY    C1  333  10.691  30.134   7.514
  418ETHY    C1  334  11.094  29.795   7.511
  419ETHY    C1  335  11.548  29.534   7.510
  420ETHY    C1  336  12.047  29.360   7.510
  421ETHY    C1  337  12.580  29.276   7.514
  422THSLK    S  338   9.979  31.040   8.064
  423ETHY    C1  339  10.156  30.675   8.270
  424ETHY    C1  340  10.427  30.303   8.540
  425ETHY    C1  341  10.754  30.014   8.834
  426ETHY    C1  342  11.123  29.806   9.142
  427ETHY    C1  343  11.525  29.688   9.462
  428ETHY    C1  344  11.954  29.663   9.789
  429AUSL   AUS  345  10.016  31.332   7.351
  430AUSL   AUS  346   9.758  30.985   7.238
  431AUL    AUL  347  10.136  31.005   7.199
  432THSLK    S  348  10.244  31.192   7.353
  433ETHY    C1  349  10.565  30.875   7.298
  434ETHY    C1  350  10.998  30.572   7.221
  435ETHY    C1  351  11.473  30.362   7.136
  436ETHY    C1  352  11.975  30.241   7.048
  437ETHY    C1  353  12.495  30.214   6.963
  438ETHY    C1  354  13.024  30.285   6.881
  439THSLK    S  355   9.874  30.796   7.108
  440ETHY    C1  356   9.958  30.367   6.984
  441ETHY    C1  357  10.133  29.895   6.803
  442ETHY    C1  358  10.386  29.484   6.593
  443ETHY    C1  359  10.704  29.136   6.366
  444ETHY    C1  360  11.086  28.861   6.126
  445ETHY    C1  361  11.524  28.664   5.880
  446AUSL   AUS  362   8.762  31.086   7.503
  447AUSL   AUS  363   8.832  31.231   7.086
  448AUL    AUL  364   8.548  31.005   7.199
  449THSLK    S  365   8.661  31.060   6.978
  450ETHY    C1  366   8.297  30.795   6.921
  451ETHY    C1  367   7.875  30.505   6.766
  452ETHY    C1  368   7.483  30.253   6.521
  453ETHY    C1  369   7.129  30.040   6.200
  454ETHY    C1  370   6.822  29.867   5.806
  455ETHY    C1  371   6.571  29.740   5.346
  456THSLK    S  372   8.496  31.034   7.508
  457ETHY    C1  373   8.042  31.012   7.513
  458ETHY    C1  374   7.520  30.898   7.514
  459ETHY    C1  375   7.038  30.689   7.511
  460ETHY    C1  376   6.601  30.399   7.510
  461ETHY    C1  377   6.222  30.032   7.510
  462ETHY    C1  378   5.909  29.592   7.514
  463AUSL   AUS  379   8.668  31.332   7.654
  464AUSL   AUS  380   8.926  30.985   7.767
  465AUL    AUL  381   8.548  31.005   7.806
  466THSLK    S  382   8.738  30.845   7.878
  467ETHY    C1  383   8.351  30.608   7.893
  468ETHY    C1  384   7.933  30.288   7.982
  469ETHY    C1  385   7.575  29.939   8.149
  470ETHY    C1  386   7.280  29.575   8.382
  471ETHY    C1  387   7.055  29.204   8.683
  472ETHY    C1  388   6.904  28.833   9.045
  473THSLK    S  389   8.412  31.269   7.616
  474ETHY    C1  390   7.976  31.259   7.491
  475ETHY    C1  391   7.450  31.200   7.419
  476ETHY    C1  392   6.935  31.093   7.436
  477ETHY    C1  393   6.441  30.947   7.535
  478ETHY    C1  394   5.981  30.765   7.718
  479ETHY    C1  395   5.562  30.552   7.983
  480AUSL   AUS  396   9.342  32.075   7.912
  481AUSL   AUS  397   8.926  32.006   7.767
  482AUL    AUL  398   9.039  32.290   7.993
  483THSLK    S  399   8.810  32.162   7.952
  484ETHY    C1  400   8.726  32.464   8.280
  485ETHY    C1  401   8.551  32.837   8.621
  486ETHY    C1  402   8.298  33.208   8.895
  487ETHY    C1  403   7.980  33.567   9.105
  488ETHY    C1  404   7.598  33.905   9.244
  489ETHY    C1  405   7.160  34.213   9.309
  490THSLK    S  406   9.384  32.297   8.035
  491ETHY    C1  407   9.568  32.572   8.347
  492ETHY    C1  408   9.718  32.952   8.691
  493ETHY    C1  409   9.784  33.375   8.998
  494ETHY    C1  410   9.771  33.826   9.264
  495ETHY    C1  411   9.674  34.295   9.485
  496ETHY    C1  412   9.494  34.774   9.656
  497AUSL   AUS  413   9.190  32.169   7.666
  498AUSL   AUS  414   9.494  32.169   7.339
  499AUL    AUL  415   9.342  32.477   7.503
  500THSLK    S  416   9.233  32.413   7.776
  501ETHY    C1  417   9.377  32.807   7.951
  502ETHY    C1  418   9.464  33.301   8.137
  503ETHY    C1  419   9.452  33.802   8.294
  504ETHY    C1  420   9.351  34.300   8.425
  505ETHY    C1  421   9.159  34.781   8.527
  506ETHY    C1  422   8.879  35.236   8.600
  507THSLK    S  423   9.549  32.400   7.243
  508ETHY    C1  424   9.825  32.730   7.096
  509ETHY    C1  425  10.075  33.171   6.927
  510ETHY    C1  426  10.231  33.648   6.771
  511ETHY    C1  427  10.300  34.150   6.635
  512ETHY    C1  428  10.276  34.666   6.525
  513ETHY    C1  429  10.159  35.186   6.443
  514AUSL   AUS  430   9.494  32.169   7.666
  515AUSL   AUS  431   9.607  31.912   8.013
  516AUL    AUL  432   9.645  32.290   7.993
  517THSLK    S  433   9.778  32.020   8.183
  518ETHY    C1  434  10.073  32.085   8.523
  519ETHY    C1  435  10.391  32.247   8.920
  520ETHY    C1  436  10.659  32.496   9.298
  521ETHY    C1  437  10.873  32.818   9.653
  522ETHY    C1  438  11.025  33.206   9.976
  523ETHY    C1  439  11.111  33.656  10.262
  524THSLK    S  440   9.547  32.398   7.772
  525ETHY    C1  441   9.819  32.726   7.929
  526ETHY    C1  442  10.069  33.166   8.100
  527ETHY    C1  443  10.227  33.645   8.251
  528ETHY    C1  444  10.296  34.147   8.383
  529ETHY    C1  445  10.272  34.662   8.494
  530ETHY    C1  446  10.153  35.181   8.585
  531AUSL   AUS  447   9.342  30.915   7.912
  532AUSL   AUS  448   9.758  30.985   7.767
  533AUL    AUL  449   9.645  30.701   7.993
  534THSLK    S  450   9.295  30.665   7.989
  535ETHY    C1  451   9.105  30.269   8.103
  536ETHY    C1  452   8.954  29.791   8.289
  537ETHY    C1  453   8.891  29.326   8.528
  538ETHY    C1  454   8.906  28.884   8.809
  539ETHY    C1  455   9.002  28.477   9.132
  540ETHY    C1  456   9.177  28.114   9.489
  541THSLK    S  457   9.870  30.798   7.907
  542ETHY    C1  458   9.949  30.370   8.040
  543ETHY    C1  459  10.124  29.900   8.222
  544ETHY    C1  460  10.378  29.488   8.428
  545ETHY    C1  461  10.698  29.139   8.652
  546ETHY    C1  462  11.079  28.864   8.893
  547ETHY    C1  463  11.514  28.668   9.147
  548AUSL   AUS  464   9.190  30.822   7.666
  549AUSL   AUS  465   9.077  31.079   8.013
  550AUL    AUL  466   9.039  30.701   7.993
  551THSLK    S  467   9.135  30.586   7.745
  552ETHY    C1  468   8.860  30.227   7.788
  553ETHY    C1  469   8.609  29.762   7.869
  554ETHY    C1  470   8.453  29.272   7.981
  555ETHY    C1  471   8.384  28.773   8.122
  556ETHY    C1  472   8.408  28.273   8.292
  557ETHY    C1  473   8.525  27.785   8.489
  558THSLK    S  474   8.899  30.913   8.129
  559ETHY    C1  475   8.597  30.595   8.248
  560ETHY    C1  476   8.278  30.228   8.471
  561ETHY    C1  477   8.013  29.891   8.776
  562ETHY    C1  478   7.801  29.589   9.147
  563ETHY    C1  479   7.648  29.331   9.582
  564ETHY    C1  480   7.557  29.124  10.072
  565AUSL   AUS  481   9.494  30.822   7.666
  566AUSL   AUS  482   9.190  30.822   7.339
  567AUL    AUL  483   9.342  30.514   7.503
  568THSLK    S  484   9.137  30.583   7.270
  569ETHY    C1  485   8.865  30.221   7.236
  570ETHY    C1  486   8.615  29.756   7.157
  571ETHY    C1  487   8.458  29.267   7.041
  572ETHY    C1  488   8.388  28.768   6.896
  573ETHY    C1  489   8.412  28.269   6.727
  574ETHY    C1  490   8.531  27.778   6.538
  575THSLK    S  491   9.448  30.570   7.749
  576ETHY    C1  492   9.301  30.144   7.811
  577ETHY    C1  493   9.215  29.626   7.906
  578ETHY    C1  494   9.227  29.113   8.025
  579ETHY    C1  495   9.329  28.618   8.165
  580ETHY    C1  496   9.521  28.153   8.325
  581ETHY    C1  497   9.799  27.727   8.504
  582AUSL   AUS  498   9.342  32.075   7.094
  583AUSL   AUS  499   9.758  32.006   7.238
  584AUL    AUL  500   9.645  32.290   7.012
  585THSLK    S  501   9.389  32.302   6.977
  586ETHY    C1  502   9.579  32.581   6.674
  587ETHY    C1  503   9.730  32.962   6.330
  588ETHY    C1  504   9.794  33.382   6.021
  589ETHY    C1  505   9.778  33.832   5.752
  590ETHY    C1  506   9.682  34.302   5.532
  591ETHY    C1  507   9.507  34.785   5.366
  592THSLK    S  508   9.946  32.122   7.089
  593ETHY    C1  509  10.333  32.242   6.883
  594ETHY    C1  510  10.751  32.465   6.637
  595ETHY    C1  511  11.109  32.769   6.400
  596ETHY    C1  512  11.404  33.141   6.178
  597ETHY    C1  513  11.629  33.576   5.981
  598ETHY    C1  514  11.780  34.065   5.811
  599AUSL   AUS  515   9.190  32.169   7.339
  600AUSL   AUS  516   9.077  31.912   6.992
  601AUL    AUL  517   9.039  32.290   7.012
  602THSLK    S  518   9.236  32.416   7.239
  603ETHY    C1  519   9.383  32.813   7.074
  604ETHY    C1  520   9.469  33.307   6.889
  605ETHY    C1  521   9.457  33.808   6.727
  606ETHY    C1  522   9.355  34.304   6.593
  607ETHY    C1  523   9.163  34.785   6.492
  608ETHY    C1  524   8.885  35.243   6.427
  609THSLK    S  525   8.967  32.044   6.805
  610ETHY    C1  526   8.931  32.193   6.377
  611ETHY    C1  527   8.821  32.419   5.906
  612ETHY    C1  528   8.643  32.694   5.494
  613ETHY    C1  529   8.409  33.007   5.145
  614ETHY    C1  530   8.123  33.356   4.870
  615ETHY    C1  531   7.792  33.734   4.675
  616AUSL   AUS  532   9.342  30.915   7.094
  617AUSL   AUS  533   8.926  30.985   7.238
  618AUL    AUL  534   9.039  30.701   7.012
  619THSLK    S  535   8.743  30.837   7.134
  620ETHY    C1  536   8.360  30.593   7.124
  621ETHY    C1  537   7.942  30.272   7.035
  622ETHY    C1  538   7.583  29.926   6.866
  623ETHY    C1  539   7.286  29.565   6.631
  624ETHY    C1  540   7.061  29.193   6.331
  625ETHY    C1  541   6.914  28.816   5.974
  626THSLK    S  542   9.300  30.660   7.024
  627ETHY    C1  543   9.116  30.259   6.917
  628ETHY    C1  544   8.966  29.781   6.732
  629ETHY    C1  545   8.900  29.318   6.491
  630ETHY    C1  546   8.913  28.878   6.206
  631ETHY    C1  547   9.010  28.471   5.885
  632ETHY    C1  548   9.190  28.103   5.533
  633AUSL   AUS  549   9.494  30.822   7.339
  634AUSL   AUS  550   9.607  31.079   6.992
  635AUL    AUL  551   9.645  30.701   7.012
  636THSLK    S  552   9.451  30.568   7.266
  637ETHY    C1  553   9.307  30.140   7.213
  638ETHY    C1  554   9.220  29.621   7.120
  639ETHY    C1  555   9.232  29.109   6.997
  640ETHY    C1  556   9.333  28.615   6.854
  641ETHY    C1  557   9.525  28.150   6.695
  642ETHY    C1  558   9.805  27.722   6.523
  643THSLK    S  559   9.724  30.889   6.859
  644ETHY    C1  560   9.768  30.487   6.651
  645ETHY    C1  561   9.878  30.056   6.355
  646ETHY    C1  562  10.054  29.693   6.017
  647ETHY    C1  563  10.285  29.399   5.651
  648ETHY    C1  564  10.571  29.182   5.264
  649ETHY    C1  565  10.908  29.046   4.865
  650AUC    AUC  566  37.947  35.160   7.503
  651AUC    AUC  567  38.192  35.160   7.351
  652AUC    AUC  568  38.192  35.160   7.654
  653AUC    AUC  569  37.702  35.160   7.351
  654AUC    AUC  570  37.702  35.160   7.654
  655AUC    AUC  571  37.795  35.406   7.503
  656AUC    AUC  572  38.099  35.406   7.503
  657AUC    AUC  573  37.795  34.915   7.503
  658AUC    AUC  574  38.099  34.915   7.503
  659AUC    AUC  575  37.947  35.009   7.748
  660AUC    AUC  576  37.947  35.312   7.748
  661AUC    AUC  577  37.947  35.009   7.257
  662AUC    AUC  578  37.947  35.312   7.257
  663AUC    AUC  579  38.438  35.160   7.199
  664AUC    AUC  580  38.438  35.160   7.503
  665AUC    AUC  581  38.438  35.160   7.806
  666AUC    AUC  582  37.456  35.160   7.199
  667AUC    AUC  583  37.456  35.160   7.503
  668AUC    AUC  584  37.456  35.160   7.806
  669AUC    AUC  585  37.644  35.651   7.503
  670AUC    AUC  586  37.947  35.651   7.503
  671AUC    AUC  587  38.250  35.651   7.503
  672AUC    AUC  588  37.644  34.670   7.503
  673AUC    AUC  589  37.947  34.670   7.503
  674AUC    AUC  590  38.250  34.670   7.503
  675AUC    AUC  591  37.947  34.857   7.993
  676AUC    AUC  592  37.947  35.160   7.993
  677AUC    AUC  593  37.947  35.464   7.993
  678AUC    AUC  594  37.947  34.857   7.012
  679AUC    AUC  595  37.947  35.160   7.012
  680AUC    AUC  596  37.947  35.464   7.012
  681AUC    AUC  597  38.192  35.009   7.900
  682AUC    AUC  598  38.192  35.312   7.900
  683AUC    AUC  599  38.192  35.009   7.106
  684AUC    AUC  600  38.192  35.312   7.106
  685AUC    AUC  601  37.702  35.009   7.900
  686AUC    AUC  602  37.702  35.312   7.900
  687AUC    AUC  603  37.702  35.009   7.106
  688AUC    AUC  604  37.702  35.312   7.106
  689AUC    AUC  605  38.344  35.406   7.351
  690AUC    AUC  606  38.344  35.406   7.654
  691AUC    AUC  607  37.550  35.406   7.351
  692AUC    AUC  608  37.550  35.406   7.654
  693AUC    AUC  609  38.344  34.915   7.351
  694AUC    AUC  610  38.344  34.915   7.654
  695AUC    AUC  611  37.550  34.915   7.351
  696AUC    AUC  612  37.550  34.915   7.654
  697AUC    AUC  613  37.795  35.558   7.748
  698AUC    AUC  614  38.099  35.558   7.748
  699AUC    AUC  615  37.795  34.763   7.748
  700AUC    AUC  616  38.099  34.763   7.748
  701AUC    AUC  617  37.795  35.558   7.257
  702AUC    AUC  618  38.099  35.558   7.257
  703AUC    AUC  619  37.795  34.763   7.257
  704AUC    AUC  620  38.099  34.763   7.257
  705AUSL   AUS  621  38.356  35.160   8.083
  706AUSL   AUS  622  38.212  34.744   8.013
  707AUL    AUL  623  38.438  34.857   8.297
  708THSLK    S  624  38.322  34.557   8.153
  709ETHY    C1  625  38.358  34.158   8.368
  710ETHY    C1  626  38.468  33.728   8.665
  711ETHY    C1  627  38.646  33.364   9.000
  712ETHY    C1  628  38.880  33.068   9.364
  713ETHY    C1  629  39.166  32.851   9.752
  714ETHY    C1  630  39.497  32.718  10.156
  715THSLK    S  631  38.449  35.108   8.324
  716ETHY    C1  632  38.653  34.888   8.665
  717ETHY    C1  633  38.917  34.711   9.094
  718ETHY    C1  634  39.193  34.635   9.535
  719ETHY    C1  635  39.470  34.652   9.980
  720ETHY    C1  636  39.740  34.765  10.419
  721ETHY    C1  637  39.999  34.974  10.845
  722AUSL   AUS  638  38.111  35.009   8.176
  723AUSL   AUS  639  37.783  35.312   8.176
  724AUL    AUL  640  37.947  35.160   8.484
  725THSLK    S  641  38.186  34.954   8.413
  726ETHY    C1  642  38.250  34.674   8.765
  727ETHY    C1  643  38.353  34.419   9.223
  728ETHY    C1  644  38.480  34.260   9.708
  729ETHY    C1  645  38.622  34.191  10.208
  730ETHY    C1  646  38.776  34.219  10.713
  731ETHY    C1  647  38.936  34.343  11.212
  732THSLK    S  648  37.698  35.266   8.428
  733ETHY    C1  649  37.624  35.116   8.850
  734ETHY    C1  650  37.519  35.028   9.367
  735ETHY    C1  651  37.397  35.040   9.878
  736ETHY    C1  652  37.259  35.141  10.373
  737ETHY    C1  653  37.104  35.334  10.840
  738ETHY    C1  654  36.935  35.615  11.268
  739AUSL   AUS  655  38.111  35.312   8.176
  740AUSL   AUS  656  38.457  35.425   7.919
  741AUL    AUL  657  38.438  35.464   8.297
  742THSLK    S  658  38.196  35.368   8.410
  743ETHY    C1  659  38.270  35.649   8.759
  744ETHY    C1  660  38.375  35.904   9.217
  745ETHY    C1  661  38.497  36.063   9.703
  746ETHY    C1  662  38.636  36.132  10.204
  747ETHY    C1  663  38.790  36.105  10.708
  748ETHY    C1  664  38.959  35.981  11.206
  749THSLK    S  665  38.629  35.523   8.080
  750ETHY    C1  666  38.992  35.494   8.350
  751ETHY    C1  667  39.414  35.550   8.673
  752ETHY    C1  668  39.806  35.704   8.989
  753ETHY    C1  669  40.160  35.942   9.293
  754ETHY    C1  670  40.467  36.263   9.580
  755ETHY    C1  671  40.718  36.660   9.844
  756AUSL   AUS  672  38.356  35.160   6.923
  757AUSL   AUS  673  38.212  35.577   6.992
  758AUL    AUL  674  38.438  35.464   6.708
  759THSLK    S  675  38.458  35.108   6.687
  760ETHY    C1  676  38.671  34.888   6.351
  761ETHY    C1  677  38.936  34.711   5.923
  762ETHY    C1  678  39.208  34.635   5.479
  763ETHY    C1  679  39.482  34.652   5.033
  764ETHY    C1  680  39.753  34.765   4.594
  765ETHY    C1  681  40.018  34.974   4.173
  766THSLK    S  682  38.390  35.688   6.829
  767ETHY    C1  683  38.692  35.756   6.497
  768ETHY    C1  684  39.011  35.919   6.100
  769ETHY    C1  685  39.276  36.166   5.719
  770ETHY    C1  686  39.488  36.486   5.362
  771ETHY    C1  687  39.641  36.876   5.039
  772ETHY    C1  688  39.732  37.328   4.759
  773AUSL   AUS  689  38.111  35.009   6.829
  774AUSL   AUS  690  38.457  34.896   7.086
  775AUL    AUL  691  38.438  34.857   6.708
  776THSLK    S  692  38.590  34.704   6.949
  777ETHY    C1  693  38.773  34.337   6.752
  778ETHY    C1  694  39.045  33.965   6.483
  779ETHY    C1  695  39.370  33.676   6.186
  780ETHY    C1  696  39.736  33.469   5.874
  781ETHY    C1  697  40.140  33.350   5.555
  782ETHY    C1  698  40.573  33.325   5.235
  783THSLK    S  699  38.196  34.953   6.596
  784ETHY    C1  700  38.270  34.672   6.246
  785ETHY    C1  701  38.375  34.416   5.788
  786ETHY    C1  702  38.497  34.258   5.302
  787ETHY    C1  703  38.636  34.189   4.801
  788ETHY    C1  704  38.790  34.216   4.297
  789ETHY    C1  705  38.959  34.340   3.799
  790AUSL   AUS  706  38.111  35.312   6.829
  791AUSL   AUS  707  37.783  35.009   6.829
  792AUL    AUL  708  37.947  35.160   6.521
  793THSLK    S  709  37.691  34.953   6.597
  794ETHY    C1  710  37.556  34.675   6.264
  795ETHY    C1  711  37.395  34.422   5.822
  796ETHY    C1  712  37.243  34.265   5.343
  797ETHY    C1  713  37.107  34.196   4.842
  798ETHY    C1  714  36.990  34.222   4.328
  799ETHY    C1  715  36.897  34.341   3.810
  800THSLK    S  716  38.213  35.266   6.583
  801ETHY    C1  717  38.359  35.116   6.179
  802ETHY    C1  718  38.521  35.025   5.678
  803ETHY    C1  719  38.668  35.035   5.173
  804ETHY    C1  720  38.801  35.136   4.677
  805ETHY    C1  721  38.918  35.331   4.200
  806ETHY    C1  722  39.019  35.617   3.754
  807AUSL   AUS  723  37.538  35.160   8.083
  808AUSL   AUS  724  37.682  35.577   8.013
  809AUL    AUL  725  37.456  35.464   8.297
  810THSLK    S  726  37.436  35.108   8.319
  811ETHY    C1  727  37.224  34.888   8.654
  812ETHY    C1  728  36.958  34.711   9.082
  813ETHY    C1  729  36.686  34.635   9.526
  814ETHY    C1  730  36.412  34.652   9.973
  815ETHY    C1  731  36.141  34.765  10.411
  816ETHY    C1  732  35.876  34.974  10.832
  817THSLK    S  733  37.565  35.701   8.202
  818ETHY    C1  734  37.522  35.844   8.632
  819ETHY    C1  735  37.411  36.069   9.104
  820ETHY    C1  736  37.235  36.346   9.515
  821ETHY    C1  737  37.004  36.662   9.863
  822ETHY    C1  738  36.718  37.010  10.138
  823ETHY    C1  739  36.381  37.383  10.334
  824AUSL   AUS  740  37.783  35.009   8.176
  825AUSL   AUS  741  37.437  34.896   7.919
  826AUL    AUL  742  37.456  34.857   8.297
  827THSLK    S  743  37.260  34.733   8.026
  828ETHY    C1  744  36.889  34.476   8.082
  829ETHY    C1  745  36.467  34.188   8.237
  830ETHY    C1  746  36.077  33.933   8.482
  831ETHY    C1  747  35.725  33.716   8.803
  832ETHY    C1  748  35.419  33.545   9.198
  833ETHY    C1  749  35.162  33.424   9.657
  834THSLK    S  750  37.681  34.955   8.406
  835ETHY    C1  751  37.535  34.679   8.736
  836ETHY    C1  752  37.373  34.427   9.178
  837ETHY    C1  753  37.226  34.269   9.658
  838ETHY    C1  754  37.093  34.199  10.160
  839ETHY    C1  755  36.976  34.225  10.674
  840ETHY    C1  756  36.875  34.346  11.190
  841AUSL   AUS  757  37.538  35.160   6.923
  842AUSL   AUS  758  37.682  34.744   6.992
  843AUL    AUL  759  37.456  34.857   6.708
  844THSLK    S  760  37.445  35.108   6.681
  845ETHY    C1  761  37.241  34.888   6.341
  846ETHY    C1  762  36.977  34.711   5.911
  847ETHY    C1  763  36.701  34.635   5.470
  848ETHY    C1  764  36.424  34.652   5.025
  849ETHY    C1  765  36.154  34.765   4.586
  850ETHY    C1  766  35.895  34.974   4.161
  851THSLK    S  767  37.511  34.571   6.878
  852ETHY    C1  768  37.216  34.245   6.760
  853ETHY    C1  769  36.898  33.878   6.538
  854ETHY    C1  770  36.630  33.543   6.233
  855ETHY    C1  771  36.416  33.243   5.861
  856ETHY    C1  772  36.264  32.985   5.426
  857ETHY    C1  773  36.178  32.773   4.937
  858AUSL   AUS  774  37.783  35.312   6.829
  859AUSL   AUS  775  37.437  35.425   7.086
  860AUL    AUL  776  37.456  35.464   6.708
  861THSLK    S  777  37.310  35.552   6.895
  862ETHY    C1  778  37.133  35.633   6.484
  863ETHY    C1  779  36.862  35.773   6.046
  864ETHY    C1  780  36.535  35.961   5.679
  865ETHY    C1  781  36.166  36.190   5.385
  866ETHY    C1  782  35.764  36.457   5.173
  867ETHY    C1  783  35.335  36.759   5.047
  868THSLK    S  784  37.708  35.268   6.576
  869ETHY    C1  785  37.644  35.121   6.150
  870ETHY    C1  786  37.541  35.032   5.634
  871ETHY    C1  787  37.414  35.043   5.123
  872ETHY    C1  788  37.272  35.144   4.629
  873ETHY    C1  789  37.119  35.337   4.162
  874ETHY    C1  790  36.958  35.620   3.732
  875AUSL   AUS  791  38.527  35.569   7.503
  876AUSL   AUS  792  38.457  35.425   7.086
  877AUL    AUL  793  38.741  35.651   7.199
  878THSLK    S  794  38.635  35.524   6.934
  879ETHY    C1  795  39.005  35.497   6.671
  880ETHY    C1  796  39.427  35.553   6.349
  881ETHY    C1  797  39.817  35.707   6.030
  882ETHY    C1  798  40.169  35.944   5.724
  883ETHY    C1  799  40.476  36.265   5.438
  884ETHY    C1  800  40.732  36.664   5.179
  885THSLK    S  801  38.793  35.622   7.508
  886ETHY    C1  802  39.247  35.644   7.513
  887ETHY    C1  803  39.769  35.758   7.514
  888ETHY    C1  804  40.252  35.967   7.511
  889ETHY    C1  805  40.688  36.257   7.510
  890ETHY    C1  806  41.067  36.624   7.510
  891ETHY    C1  807  41.381  37.064   7.514
  892AUSL   AUS  808  38.621  35.324   7.351
  893AUSL   AUS  809  38.621  34.997   7.654
  894AUL    AUL  810  38.929  35.160   7.503
  895THSLK    S  811  38.877  35.363   7.350
  896ETHY    C1  812  39.313  35.255   7.286
  897ETHY    C1  813  39.839  35.217   7.201
  898ETHY    C1  814  40.354  35.281   7.113
  899ETHY    C1  815  40.848  35.435   7.026
  900ETHY    C1  816  41.308  35.680   6.945
  901ETHY    C1  817  41.727  36.012   6.873
  902THSLK    S  818  38.848  34.857   7.663
  903ETHY    C1  819  39.167  34.541   7.728
  904ETHY    C1  820  39.600  34.237   7.807
  905ETHY    C1  821  40.075  34.027   7.887
  906ETHY    C1  822  40.578  33.906   7.971
  907ETHY    C1  823  41.098  33.880   8.058
  908ETHY    C1  824  41.626  33.950   8.147
  909AUSL   AUS  825  38.621  35.324   7.654
  910AUSL   AUS  826  38.363  35.671   7.767
  911AUL    AUL  827  38.741  35.651   7.806
  912THSLK    S  828  38.546  35.785   7.926
  913ETHY    C1  829  38.929  35.903   8.140
  914ETHY    C1  830  39.347  36.126   8.388
  915ETHY    C1  831  39.706  36.431   8.622
  916ETHY    C1  832  40.003  36.804   8.840
  917ETHY    C1  833  40.228  37.238   9.038
  918ETHY    C1  834  40.375  37.726   9.215
  919THSLK    S  835  38.875  35.363   7.665
  920ETHY    C1  836  39.310  35.255   7.740
  921ETHY    C1  837  39.836  35.217   7.826
  922ETHY    C1  838  40.351  35.280   7.910
  923ETHY    C1  839  40.845  35.434   7.993
  924ETHY    C1  840  41.306  35.679   8.075
  925ETHY    C1  841  41.723  36.011   8.155
  926AUSL   AUS  842  37.367  35.569   7.503
  927AUSL   AUS  843  37.437  35.425   7.919
  928AUL    AUL  844  37.153  35.651   7.806
  929THSLK    S  845  37.304  35.544   8.109
  930ETHY    C1  846  37.121  35.616   8.519
  931ETHY    C1  847  36.849  35.756   8.957
  932ETHY    C1  848  36.524  35.947   9.324
  933ETHY    C1  849  36.158  36.178   9.619
  934ETHY    C1  850  35.755  36.445   9.831
  935ETHY    C1  851  35.321  36.741   9.956
  936THSLK    S  852  37.156  35.710   7.508
  937ETHY    C1  853  36.934  36.107   7.513
  938ETHY    C1  854  36.598  36.522   7.514
  939ETHY    C1  855  36.195  36.861   7.511
  940ETHY    C1  856  35.741  37.122   7.510
  941ETHY    C1  857  35.242  37.296   7.510
  942ETHY    C1  858  34.709  37.380   7.514
  943AUSL   AUS  859  37.273  35.324   7.351
  944AUSL   AUS  860  37.531  35.671   7.238
  945AUL    AUL  861  37.153  35.651   7.199
  946THSLK    S  862  37.046  35.439   7.303
  947ETHY    C1  863  36.727  35.639   7.049
  948ETHY    C1  864  36.294  35.845   6.813
  949ETHY    C1  865  35.819  36.011   6.661
  950ETHY    C1  866  35.316  36.140   6.590
  951ETHY    C1  867  34.796  36.230   6.605
  952ETHY    C1  868  34.268  36.278   6.708
  953THSLK    S  869  37.419  35.834   7.060
  954ETHY    C1  870  37.340  36.144   6.737
  955ETHY    C1  871  37.165  36.518   6.397
  956ETHY    C1  872  36.911  36.886   6.120
  957ETHY    C1  873  36.591  37.243   5.909
  958ETHY    C1  874  36.210  37.581   5.770
  959ETHY    C1  875  35.775  37.895   5.709
  960AUSL   AUS  876  37.273  35.324   7.654
  961AUSL   AUS  877  37.273  34.997   7.351
  962AUL    AUL  878  36.965  35.160   7.503
  963THSLK    S  879  37.019  34.924   7.394
  964ETHY    C1  880  36.584  34.906   7.524
  965ETHY    C1  881  36.058  34.846   7.597
  966ETHY    C1  882  35.543  34.742   7.578
  967ETHY    C1  883  35.049  34.599   7.477
  968ETHY    C1  884  34.589  34.416   7.294
  969ETHY    C1  885  34.171  34.196   7.034
  970THSLK    S  886  37.045  35.430   7.707
  971ETHY    C1  887  36.724  35.621   7.966
  972ETHY    C1  888  36.291  35.825   8.202
  973ETHY    C1  889  35.816  35.996   8.352
  974ETHY    C1  890  35.314  36.128   8.422
  975ETHY    C1  891  34.794  36.216   8.407
  976ETHY    C1  892  34.265  36.257   8.308
  977AUSL   AUS  893  38.527  34.751   7.503
  978AUSL   AUS  894  38.457  34.896   7.919
  979AUL    AUL  895  38.741  34.670   7.806
  980THSLK    S  896  38.738  34.610   7.508
  981ETHY    C1  897  38.960  34.214   7.513
  982ETHY    C1  898  39.296  33.799   7.514
  983ETHY    C1  899  39.699  33.460   7.511
  984ETHY    C1  900  40.153  33.199   7.510
  985ETHY    C1  901  40.652  33.025   7.510
  986ETHY    C1  902  41.185  32.941   7.514
  987THSLK    S  903  38.584  34.705   8.064
  988ETHY    C1  904  38.761  34.340   8.270
  989ETHY    C1  905  39.032  33.968   8.540
  990ETHY    C1  906  39.359  33.679   8.834
  991ETHY    C1  907  39.728  33.471   9.142
  992ETHY    C1  908  40.130  33.353   9.462
  993ETHY    C1  909  40.559  33.328   9.789
  994AUSL   AUS  910  38.621  34.997   7.351
  995AUSL   AUS  911  38.363  34.650   7.238
  996AUL    AUL  912  38.741  34.670   7.199
  997THSLK    S  913  38.849  34.857   7.353
  998ETHY    C1  914  39.170  34.540   7.298
  999ETHY    C1  915  39.603  34.237   7.221
 1000ETHY    C1  916  40.078  34.027   7.136
 1001ETHY    C1  917  40.580  33.906   7.048
 1002ETHY    C1  918  41.100  33.879   6.963
 1003ETHY    C1  919  41.629  33.950   6.881
 1004THSLK    S  920  38.479  34.461   7.108
 1005ETHY    C1  921  38.563  34.032   6.984
 1006ETHY    C1  922  38.738  33.560   6.803
 1007ETHY    C1  923  38.991  33.149   6.593
 1008ETHY    C1  924  39.309  32.801   6.366
 1009ETHY    C1  925  39.691  32.526   6.126
 1010ETHY    C1  926  40.129  32.329   5.880
 1011AUSL   AUS  927  37.367  34.751   7.503
 1012AUSL   AUS  928  37.437  34.896   7.086
 1013AUL    AUL  929  37.153  34.670   7.199
 1014THSLK    S  930  37.266  34.725   6.978
 1015ETHY    C1  931  36.902  34.460   6.921
 1016ETHY    C1  932  36.480  34.170   6.766
 1017ETHY    C1  933  36.088  33.918   6.521
 1018ETHY    C1  934  35.734  33.705   6.200
 1019ETHY    C1  935  35.427  33.532   5.806
 1020ETHY    C1  936  35.176  33.405   5.346
 1021THSLK    S  937  37.101  34.699   7.508
 1022ETHY    C1  938  36.647  34.677   7.513
 1023ETHY    C1  939  36.125  34.563   7.514
 1024ETHY    C1  940  35.643  34.354   7.511
 1025ETHY    C1  941  35.206  34.064   7.510
 1026ETHY    C1  942  34.827  33.697   7.510
 1027ETHY    C1  943  34.514  33.257   7.514
 1028AUSL   AUS  944  37.273  34.997   7.654
 1029AUSL   AUS  945  37.531  34.650   7.767
 1030AUL    AUL  946  37.153  34.670   7.806
 1031THSLK    S  947  37.343  34.510   7.878
 1032ETHY    C1  948  36.956  34.273   7.893
 1033ETHY    C1  949  36.538  33.953   7.982
 1034ETHY    C1  950  36.180  33.604   8.149
 1035ETHY    C1  951  35.885  33.240   8.382
 1036ETHY    C1  952  35.660  32.869   8.683
 1037ETHY    C1  953  35.509  32.498   9.045
 1038THSLK    S  954  37.017  34.934   7.616
 1039ETHY    C1  955  36.581  34.924   7.491
 1040ETHY    C1  956  36.055  34.865   7.419
 1041ETHY    C1  957  35.540  34.758   7.436
 1042ETHY    C1  958  35.046  34.612   7.535
 1043ETHY    C1  959  34.586  34.430   7.718
 1044ETHY    C1  960  34.167  34.217   7.983
 1045AUSL   AUS  961  37.947  35.740   7.912
 1046AUSL   AUS  962  37.531  35.671   7.767
 1047AUL    AUL  963  37.644  35.955   7.993
 1048THSLK    S  964  37.415  35.827   7.952
 1049ETHY    C1  965  37.331  36.129   8.280
 1050ETHY    C1  966  37.156  36.502   8.621
 1051ETHY    C1  967  36.903  36.873   8.895
 1052ETHY    C1  968  36.585  37.232   9.105
 1053ETHY    C1  969  36.203  37.570   9.244
 1054ETHY    C1  970  35.765  37.878   9.309
 1055THSLK    S  971  37.989  35.962   8.035
 1056ETHY    C1  972  38.173  36.237   8.347
 1057ETHY    C1  973  38.323  36.617   8.691
 1058ETHY    C1  974  38.389  37.040   8.998
 1059ETHY    C1  975  38.376  37.491   9.264
 1060ETHY    C1  976  38.279  37.960   9.485
 1061ETHY    C1  977  38.099  38.439   9.656
 1062AUSL   AUS  978  37.795  35.834   7.666
 1063AUSL   AUS  979  38.099  35.834   7.339
 1064AUL    AUL  980  37.947  36.142   7.503
 1065THSLK    S  981  37.838  36.078   7.776
 1066ETHY    C1  982  37.982  36.472   7.951
 1067ETHY    C1  983  38.069  36.966   8.137
 1068ETHY    C1  984  38.057  37.467   8.294
 1069ETHY    C1  985  37.956  37.965   8.425
 1070ETHY    C1  986  37.764  38.446   8.527
 1071ETHY    C1  987  37.484  38.901   8.600
 1072THSLK    S  988  38.154  36.065   7.243
 1073ETHY    C1  989  38.430  36.395   7.096
 1074ETHY    C1  990  38.680  36.836   6.927
 1075ETHY    C1  991  38.836  37.313   6.771
 1076ETHY    C1  992  38.905  37.815   6.635
 1077ETHY    C1  993  38.881  38.331   6.525
 1078ETHY    C1  994  38.764  38.851   6.443
 1079AUSL   AUS  995  38.099  35.834   7.666
 1080AUSL   AUS  996  38.212  35.577   8.013
 1081AUL    AUL  997  38.250  35.955   7.993
 1082THSLK    S  998  38.383  35.685   8.183
 1083ETHY    C1  999  38.678  35.750   8.523
 1084ETHY    C1 1000  38.996  35.912   8.920
 1085ETHY    C1 1001  39.264  36.161   9.298
 1086ETHY    C1 1002  39.478  36.483   9.653
 1087ETHY    C1 1003  39.630  36.871   9.976
 1088ETHY    C1 1004  39.716  37.321  10.262
 1089THSLK    S 1005  38.152  36.063   7.772
 1090ETHY    C1 1006  38.424  36.391   7.929
 1091ETHY    C1 1007  38.674  36.831   8.100
 1092ETHY    C1 1008  38.832  37.310   8.251
 1093ETHY    C1 1009  38.901  37.812   8.383
 1094ETHY    C1 1010  38.877  38.327   8.494
 1095ETHY    C1 1011  38.758  38.846   8.585
 1096AUSL   AUS 1012  37.947  34.580   7.912
 1097AUSL   AUS 1013  38.363  34.650   7.767
 1098AUL    AUL 1014  38.250  34.366   7.993
 1099THSLK    S 1015  37.900  34.330   7.989
 1100ETHY    C1 1016  37.710  33.934   8.103
 1101ETHY    C1 1017  37.559  33.456   8.289
 1102ETHY    C1 1018  37.496  32.991   8.528
 1103ETHY    C1 1019  37.511  32.549   8.809
 1104ETHY    C1 1020  37.607  32.142   9.132
 1105ETHY    C1 1021  37.782  31.779   9.489
 1106THSLK    S 1022  38.475  34.463   7.907
 1107ETHY    C1 1023  38.554  34.035   8.040
 1108ETHY    C1 1024  38.729  33.565   8.222
 1109ETHY    C1 1025  38.983  33.153   8.428
 1110ETHY    C1 1026  39.303  32.804   8.652
 1111ETHY    C1 1027  39.684  32.529   8.893
 1112ETHY    C1 1028  40.119  32.333   9.147
 1113AUSL   AUS 1029  37.795  34.487   7.666
 1114AUSL   AUS 1030  37.682  34.744   8.013
 1115AUL    AUL 1031  37.644  34.366   7.993
 1116THSLK    S 1032  37.740  34.251   7.745
 1117ETHY    C1 1033  37.465  33.892   7.788
 1118ETHY    C1 1034  37.214  33.427   7.869
 1119ETHY    C1 1035  37.058  32.937   7.981
 1120ETHY    C1 1036  36.989  32.438   8.122
 1121ETHY    C1 1037  37.013  31.938   8.292
 1122ETHY    C1 1038  37.130  31.450   8.489
 1123THSLK    S 1039  37.504  34.578   8.129
 1124ETHY    C1 1040  37.202  34.260   8.248
 1125ETHY    C1 1041  36.883  33.893   8.471
 1126ETHY    C1 1042  36.618  33.556   8.776
 1127ETHY    C1 1043  36.406  33.254   9.147
 1128ETHY    C1 1044  36.253  32.996   9.582
 1129ETHY    C1 1045  36.162  32.789  10.072
 1130AUSL   AUS 1046  38.099  34.487   7.666
 1131AUSL   AUS 1047  37.795  34.487   7.339
 1132AUL    AUL 1048  37.947  34.179   7.503
 1133THSLK    S 1049  37.742  34.248   7.270
 1134ETHY    C1 1050  37.470  33.886   7.236
 1135ETHY    C1 1051  37.220  33.421   7.157
 1136ETHY    C1 1052  37.063  32.932   7.041
 1137ETHY    C1 1053  36.993  32.433   6.896
 1138ETHY    C1 1054  37.017  31.934   6.727
 1139ETHY    C1 1055  37.136  31.443   6.538
 1140THSLK    S 1056  38.053  34.235   7.749
 1141ETHY    C1 1057  37.906  33.809   7.811
 1142ETHY    C1 1058  37.820  33.291   7.906
 1143ETHY    C1 1059  37.832  32.778   8.025
 1144ETHY    C1 1060  37.934  32.283   8.165
 1145ETHY    C1 1061  38.126  31.818   8.325
 1146ETHY    C1 1062  38.404  31.392   8.504
 1147AUSL   AUS 1063  37.947  35.740   7.094
 1148AUSL   AUS 1064  38.363  35.671   7.238
 1149AUL    AUL 1065  38.250  35.955   7.012
 1150THSLK    S 1066  37.994  35.967   6.977
 1151ETHY    C1 1067  38.184  36.246   6.674
 1152ETHY    C1 1068  38.335  36.627   6.330
 1153ETHY    C1 1069  38.399  37.047   6.021
 1154ETHY    C1 1070  38.383  37.497   5.752
 1155ETHY    C1 1071  38.287  37.967   5.532
 1156ETHY    C1 1072  38.112  38.450   5.366
 1157THSLK    S 1073  38.551  35.787   7.089
 1158ETHY    C1 1074  38.938  35.907   6.883
 1159ETHY    C1 1075  39.356  36.130   6.637
 1160ETHY    C1 1076  39.714  36.434   6.400
 1161ETHY    C1 1077  40.009  36.806   6.178
 1162ETHY    C1 1078  40.234  37.241   5.981
 1163ETHY    C1 1079  40.385  37.730   5.811
 1164AUSL   AUS 1080  37.795  35.834   7.339
 1165AUSL   AUS 1081  37.682  35.577   6.992
 1166AUL    AUL 1082  37.644  35.955   7.012
 1167THSLK    S 1083  37.841  36.081   7.239
 1168ETHY    C1 1084  37.988  36.478   7.074
 1169ETHY    C1 1085  38.074  36.972   6.889
 1170ETHY    C1 1086  38.062  37.473   6.727
 1171ETHY    C1 1087  37.960  37.969   6.593
 1172ETHY    C1 1088  37.768  38.450   6.492
 1173ETHY    C1 1089  37.490  38.908   6.427
 1174THSLK    S 1090  37.572  35.709   6.805
 1175ETHY    C1 1091  37.536  35.858   6.377
 1176ETHY    C1 1092  37.426  36.084   5.906
 1177ETHY    C1 1093  37.248  36.359   5.494
 1178ETHY    C1 1094  37.014  36.672   5.145
 1179ETHY    C1 1095  36.728  37.021   4.870
 1180ETHY    C1 1096  36.397  37.399   4.675
 1181AUSL   AUS 1097  37.947  34.580   7.094
 1182AUSL   AUS 1098  37.531  34.650   7.238
 1183AUL    AUL 1099  37.644  34.366   7.012
 1184THSLK    S 1100  37.348  34.502   7.134
 1185ETHY    C1 1101  36.965  34.258   7.124
 1186ETHY    C1 1102  36.547  33.937   7.035
 1187ETHY    C1 1103  36.188  33.591   6.866
 1188ETHY    C1 1104  35.891  33.230   6.631
 1189ETHY    C1 1105  35.666  32.858   6.331
 1190ETHY    C1 1106  35.519  32.481   5.974
 1191THSLK    S 1107  37.905  34.325   7.024
 1192ETHY    C1 1108  37.721  33.924   6.917
 1193ETHY    C1 1109  37.571  33.446   6.732
 1194ETHY    C1 1110  37.505  32.983   6.491
 1195ETHY    C1 1111  37.518  32.543   6.206
 1196ETHY    C1 1112  37.615  32.136   5.885
 1197ETHY    C1 1113  37.795  31.768   5.533
 1198AUSL   AUS 1114  38.099  34.487   7.339
 1199AUSL   AUS 1115  38.212  34.744   6.992
 1200AUL    AUL 1116  38.250  34.366   7.012
 1201THSLK    S 1117  38.056  34.233   7.266
 1202ETHY    C1 1118  37.912  33.805   7.213
 1203ETHY    C1 1119  37.825  33.286   7.120
 1204ETHY    C1 1120  37.837  32.774   6.997
 1205ETHY    C1 1121  37.938  32.280   6.854
 1206ETHY    C1 1122  38.130  31.815   6.695
 1207ETHY    C1 1123  38.410  31.387   6.523
 1208THSLK    S 1124  38.329  34.554   6.859
 1209ETHY    C1 1125  38.373  34.152   6.651
 1210ETHY    C1 1126  38.483  33.721   6.355
 1211ETHY    C1 1127  38.659  33.358   6.017
 1212ETHY    C1 1128  38.890  33.064   5.651
 1213ETHY    C1 1129  39.176  32.847   5.264
 1214ETHY    C1 1130  39.513  32.711   4.865
 1215AUC    AUC 1131  15.679  12.578   7.503
 1216AUC    AUC 1132  15.924  12.578   7.351
 1217AUC    AUC 1133  15.924  12.578   7.654
 1218AUC    AUC 1134  15.434  12.578   7.351
 1219AUC    AUC 1135  15.434  12.578   7.654
 1220AUC    AUC 1136  15.527  12.824   7.503
 1221AUC    AUC 1137  15.831  12.824   7.503
 1222AUC    AUC 1138  15.527  12.333   7.503
 1223AUC    AUC 1139  15.831  12.333   7.503
 1224AUC    AUC 1140  15.679  12.427   7.748
 1225AUC    AUC 1141  15.679  12.730   7.748
 1226AUC    AUC 1142  15.679  12.427   7.257
 1227AUC    AUC 1143  15.679  12.730   7.257
 1228AUC    AUC 1144  16.170  12.578   7.199
 1229AUC    AUC 1145  16.170  12.578   7.503
 1230AUC    AUC 1146  16.170  12.578   7.806
 1231AUC    AUC 1147  15.188  12.578   7.199
 1232AUC    AUC 1148  15.188  12.578   7.503
 1233AUC    AUC 1149  15.188  12.578   7.806
 1234AUC    AUC 1150  15.376  13.069   7.503
 1235AUC    AUC 1151  15.679  13.069   7.503
 1236AUC    AUC 1152  15.982  13.069   7.503
 1237AUC    AUC 1153  15.376  12.088   7.503
 1238AUC    AUC 1154  15.679  12.088   7.503
 1239AUC    AUC 1155  15.982  12.088   7.503
 1240AUC    AUC 1156  15.679  12.275   7.993
 1241AUC    AUC 1157  15.679  12.578   7.993
 1242AUC    AUC 1158  15.679  12.882   7.993
 1243AUC    AUC 1159  15.679  12.275   7.012
 1244AUC    AUC 1160  15.679  12.578   7.012
 1245AUC    AUC 1161  15.679  12.882   7.012
 1246AUC    AUC 1162  15.924  12.427   7.900
 1247AUC    AUC 1163  15.924  12.730   7.900
 1248AUC    AUC 1164  15.924  12.427   7.106
 1249AUC    AUC 1165  15.924  12.730   7.106
 1250AUC    AUC 1166  15.434  12.427   7.900
 1251AUC    AUC 1167  15.434  12.730   7.900
 1252AUC    AUC 1168  15.434  12.427   7.106
 1253AUC    AUC 1169  15.434  12.730   7.106
 1254AUC    AUC 1170  16.076  12.824   7.351
 1255AUC    AUC 1171  16.076  12.824   7.654
 1256AUC    AUC 1172  15.282  12.824   7.351
 1257AUC    AUC 1173  15.282  12.824   7.654
 1258AUC    AUC 1174  16.076  12.333   7.351
 1259AUC    AUC 1175  16.076  12.333   7.654
 1260AUC    AUC 1176  15.282  12.333   7.351
 1261AUC    AUC 1177  15.282  12.333   7.654
 1262AUC    AUC 1178  15.527  12.976   7.748
 1263AUC    AUC 1179  15.831  12.976   7.748
 1264AUC    AUC 1180  15.527  12.181   7.748
 1265AUC    AUC 1181  15.831  12.181   7.748
 1266AUC    AUC 1182  15.527  12.976   7.257
 1267AUC    AUC 1183  15.831  12.976   7.257
 1268AUC    AUC 1184  15.527  12.181   7.257
 1269AUC    AUC 1185  15.831  12.181   7.257
 1270AUSL   AUS 1186  16.088  12.578   8.083
 1271AUSL   AUS 1187  15.944  12.162   8.013
 1272AUL    AUL 1188  16.170  12.275   8.297
 1273THSLK    S 1189  16.054  11.975   8.153
 1274ETHY    C1 1190  16.090  11.576   8.368
 1275ETHY    C1 1191  16.200  11.146   8.665
 1276ETHY    C1 1192  16.378  10.782   9.000
 1277ETHY    C1 1193  16.612  10.486   9.364
 1278ETHY    C1 1194  16.898  10.269   9.752
 1279ETHY    C1 1195  17.229  10.136  10.156
 1280THSLK    S 1196  16.181  12.526   8.324
 1281ETHY    C1 1197  16.385  12.306   8.665
 1282ETHY    C1 1198  16.649  12.129   9.094
 1283ETHY    C1 1199  16.925  12.053   9.535
 1284ETHY    C1 1200  17.202  12.070   9.980
 1285ETHY    C1 1201  17.472  12.183  10.419
 1286ETHY    C1 1202  17.731  12.392  10.845
 1287AUSL   AUS 1203  15.843  12.427   8.176
 1288AUSL   AUS 1204  15.515  12.730   8.176
 1289AUL    AUL 1205  15.679  12.578   8.484
 1290THSLK    S 1206  15.918  12.372   8.413
 1291ETHY    C1 1207  15.982  12.092   8.765
 1292ETHY    C1 1208  16.085  11.837   9.223
 1293ETHY    C1 1209  16.212  11.678   9.708
 1294ETHY    C1 1210  16.354  11.609  10.208
 1295ETHY    C1 1211  16.508  11.637  10.713
 1296ETHY    C1 1212  16.668  11.761  11.212
 1297THSLK    S 1213  15.430  12.684   8.428
 1298ETHY    C1 1214  15.356  12.534   8.850
 1299ETHY    C1 1215  15.251  12.446   9.367
 1300ETHY    C1 1216  15.129  12.458   9.878
 1301ETHY    C1 1217  14.991  12.559  10.373
 1302ETHY    C1 1218  14.836  12.752  10.840
 1303ETHY    C1 1219  14.667  13.033  11.268
 1304AUSL   AUS 1220  15.843  12.730   8.176
 1305AUSL   AUS 1221  16.189  12.843   7.919
 1306AUL    AUL 1222  16.170  12.882   8.297
 1307THSLK    S 1223  15.928  12.786   8.410
 1308ETHY    C1 1224  16.002  13.067   8.759
 1309ETHY    C1 1225  16.107  13.322   9.217
 1310ETHY    C1 1226  16.229  13.481   9.703
 1311ETHY    C1 1227  16.368  13.550  10.204
 1312ETHY    C1 1228  16.522  13.523  10.708
 1313ETHY    C1 1229  16.691  13.399  11.206
 1314THSLK    S 1230  16.361  12.941   8.080
 1315ETHY    C1 1231  16.724  12.912   8.350
 1316ETHY    C1 1232  17.146  12.968   8.673
 1317ETHY    C1 1233  17.538  13.122   8.989
 1318ETHY    C1 1234  17.892  13.360   9.293
 1319ETHY    C1 1235  18.199  13.681   9.580
 1320ETHY    C1 1236  18.450  14.078   9.844
 1321AUSL   AUS 1237  16.088  12.578   6.923
 1322AUSL   AUS 1238  15.944  12.995   6.992
 1323AUL    AUL 1239  16.170  12.882   6.708
 1324THSLK    S 1240  16.190  12.526   6.687
 1325ETHY    C1 1241  16.403  12.306   6.351
 1326ETHY    C1 1242  16.668  12.129   5.923
 1327ETHY    C1 1243  16.940  12.053   5.479
 1328ETHY    C1 1244  17.214  12.070   5.033
 1329ETHY    C1 1245  17.485  12.183   4.594
 1330ETHY    C1 1246  17.750  12.392   4.173
 1331THSLK    S 1247  16.122  13.106   6.829
 1332ETHY    C1 1248  16.424  13.174   6.497
 1333ETHY    C1 1249  16.743  13.337   6.100
 1334ETHY    C1 1250  17.008  13.584   5.719
 1335ETHY    C1 1251  17.220  13.904   5.362
 1336ETHY    C1 1252  17.373  14.294   5.039
 1337ETHY    C1 1253  17.464  14.746   4.759
 1338AUSL   AUS 1254  15.843  12.427   6.829
 1339AUSL   AUS 1255  16.189  12.314   7.086
 1340AUL    AUL 1256  16.170  12.275   6.708
 1341THSLK    S 1257  16.322  12.122   6.949
 1342ETHY    C1 1258  16.505  11.755   6.752
 1343ETHY    C1 1259  16.777  11.383   6.483
 1344ETHY    C1 1260  17.102  11.094   6.186
 1345ETHY    C1 1261  17.468  10.887   5.874
 1346ETHY    C1 1262  17.872  10.768   5.555
 1347ETHY    C1 1263  18.305  10.743   5.235
 1348THSLK    S 1264  15.928  12.371   6.596
 1349ETHY    C1 1265  16.002  12.090   6.246
 1350ETHY    C1 1266  16.107  11.834   5.788
 1351ETHY    C1 1267  16.229  11.676   5.302
 1352ETHY    C1 1268  16.368  11.607   4.801
 1353ETHY    C1 1269  16.522  11.634   4.297
 1354ETHY    C1 1270  16.691  11.758   3.799
 1355AUSL   AUS 1271  15.843  12.730   6.829
 1356AUSL   AUS 1272  15.515  12.427   6.829
 1357AUL    AUL 1273  15.679  12.578   6.521
 1358THSLK    S 1274  15.423  12.371   6.597
 1359ETHY    C1 1275  15.288  12.093   6.264
 1360ETHY    C1 1276  15.127  11.840   5.822
 1361ETHY    C1 1277  14.975  11.683   5.343
 1362ETHY    C1 1278  14.839  11.614   4.842
 1363ETHY    C1 1279  14.722  11.640   4.328
 1364ETHY    C1 1280  14.629  11.759   3.810
 1365THSLK    S 1281  15.945  12.684   6.583
 1366ETHY    C1 1282  16.091  12.534   6.179
 1367ETHY    C1 1283  16.253  12.443   5.678
 1368ETHY    C1 1284  16.400  12.453   5.173
 1369ETHY    C1 1285  16.533  12.554   4.677
 1370ETHY    C1 1286  16.650  12.749   4.200
 1371ETHY    C1 1287  16.751  13.035   3.754
 1372AUSL   AUS 1288  15.270  12.578   8.083
 1373AUSL   AUS 1289  15.414  12.995   8.013
 1374AUL    AUL 1290  15.188  12.882   8.297
 1375THSLK    S 1291  15.168  12.526   8.319
 1376ETHY    C1 1292  14.956  12.306   8.654
 1377ETHY    C1 1293  14.690  12.129   9.082
 1378ETHY    C1 1294  14.418  12.053   9.526
 1379ETHY    C1 1295  14.144  12.070   9.973
 1380ETHY    C1 1296  13.873  12.183  10.411
 1381ETHY    C1 1297  13.608  12.392  10.832
 1382THSLK    S 1298  15.297  13.119   8.202
 1383ETHY    C1 1299  15.254  13.262   8.632
 1384ETHY    C1 1300  15.143  13.487   9.104
 1385ETHY    C1 1301  14.967  13.764   9.515
 1386ETHY    C1 1302  14.736  14.080   9.863
 1387ETHY    C1 1303  14.450  14.428  10.138
 1388ETHY    C1 1304  14.113  14.801  10.334
 1389AUSL   AUS 1305  15.515  12.427   8.176
 1390AUSL   AUS 1306  15.169  12.314   7.919
 1391AUL    AUL 1307  15.188  12.275   8.297
 1392THSLK    S 1308  14.992  12.151   8.026
 1393ETHY    C1 1309  14.621  11.894   8.082
 1394ETHY    C1 1310  14.199  11.606   8.237
 1395ETHY    C1 1311  13.809  11.351   8.482
 1396ETHY    C1 1312  13.457  11.134   8.803
 1397ETHY    C1 1313  13.151  10.963   9.198
 1398ETHY    C1 1314  12.894  10.842   9.657
 1399THSLK    S 1315  15.413  12.373   8.406
 1400ETHY    C1 1316  15.267  12.097   8.736
 1401ETHY    C1 1317  15.105  11.845   9.178
 1402ETHY    C1 1318  14.958  11.687   9.658
 1403ETHY    C1 1319  14.825  11.617  10.160
 1404ETHY    C1 1320  14.708  11.643  10.674
 1405ETHY    C1 1321  14.607  11.764  11.190
 1406AUSL   AUS 1322  15.270  12.578   6.923
 1407AUSL   AUS 1323  15.414  12.162   6.992
 1408AUL    AUL 1324  15.188  12.275   6.708
 1409THSLK    S 1325  15.177  12.526   6.681
 1410ETHY    C1 1326  14.973  12.306   6.341
 1411ETHY    C1 1327  14.709  12.129   5.911
 1412ETHY    C1 1328  14.433  12.053   5.470
 1413ETHY    C1 1329  14.156  12.070   5.025
 1414ETHY    C1 1330  13.886  12.183   4.586
 1415ETHY    C1 1331  13.627  12.392   4.161
 1416THSLK    S 1332  15.243  11.989   6.878
 1417ETHY    C1 1333  14.948  11.663   6.760
 1418ETHY    C1 1334  14.630  11.296   6.538
 1419ETHY    C1 1335  14.362  10.961   6.233
 1420ETHY    C1 1336  14.148  10.661   5.861
 1421ETHY    C1 1337  13.996  10.403   5.426
 1422ETHY    C1 1338  13.910  10.191   4.937
 1423AUSL   AUS 1339  15.515  12.730   6.829
 1424AUSL   AUS 1340  15.169  12.843   7.086
 1425AUL    AUL 1341  15.188  12.882   6.708
 1426THSLK    S 1342  15.042  12.970   6.895
 1427ETHY    C1 1343  14.865  13.051   6.484
 1428ETHY    C1 1344  14.594  13.191   6.046
 1429ETHY    C1 1345  14.267  13.379   5.679
 1430ETHY    C1 1346  13.898  13.608   5.385
 1431ETHY    C1 1347  13.496  13.875   5.173
 1432ETHY    C1 1348  13.067  14.177   5.047
 1433THSLK    S 1349  15.440  12.686   6.576
 1434ETHY    C1 1350  15.376  12.539   6.150
 1435ETHY    C1 1351  15.273  12.450   5.634
 1436ETHY    C1 1352  15.146  12.461   5.123
 1437ETHY    C1 1353  15.004  12.562   4.629
 1438ETHY    C1 1354  14.851  12.755   4.162
 1439ETHY    C1 1355  14.690  13.038   3.732
 1440AUSL   AUS 1356  16.259  12.987   7.503
 1441AUSL   AUS 1357  16.189  12.843   7.086
 1442AUL    AUL 1358  16.473  13.069   7.199
 1443THSLK    S 1359  16.367  12.942   6.934
 1444ETHY    C1 1360  16.737  12.915   6.671
 1445ETHY    C1 1361  17.159  12.971   6.349
 1446ETHY    C1 1362  17.549  13.125   6.030
 1447ETHY    C1 1363  17.901  13.362   5.724
 1448ETHY    C1 1364  18.208  13.683   5.438
 1449ETHY    C1 1365  18.464  14.082   5.179
 1450THSLK    S 1366  16.525  13.040   7.508
 1451ETHY    C1 1367  16.979  13.062   7.513
 1452ETHY    C1 1368  17.501  13.176   7.514
 1453ETHY    C1 1369  17.984  13.385   7.511
 1454ETHY    C1 1370  18.420  13.675   7.510
 1455ETHY    C1 1371  18.799  14.042   7.510
 1456ETHY    C1 1372  19.113  14.482   7.514
 1457AUSL   AUS 1373  16.353  12.742   7.351
 1458AUSL   AUS 1374  16.353  12.415   7.654
 1459AUL    AUL 1375  16.661  12.578   7.503
 1460THSLK    S 1376  16.609  12.781   7.350
 1461ETHY    C1 1377  17.045  12.673   7.286
 1462ETHY    C1 1378  17.571  12.635   7.201
 1463ETHY    C1 1379  18.086  12.699   7.113
 1464ETHY    C1 1380  18.580  12.853   7.026
 1465ETHY    C1 1381  19.040  13.098   6.945
 1466ETHY    C1 1382  19.459  13.430   6.873
 1467THSLK    S 1383  16.580  12.275   7.663
 1468ETHY    C1 1384  16.899  11.959   7.728
 1469ETHY    C1 1385  17.332  11.655   7.807
 1470ETHY    C1 1386  17.807  11.445   7.887
 1471ETHY    C1 1387  18.310  11.324   7.971
 1472ETHY    C1 1388  18.830  11.298   8.058
 1473ETHY    C1 1389  19.358  11.368   8.147
 1474AUSL   AUS 1390  16.353  12.742   7.654
 1475AUSL   AUS 1391  16.095  13.089   7.767
 1476AUL    AUL 1392  16.473  13.069   7.806
 1477THSLK    S 1393  16.278  13.203   7.926
 1478ETHY    C1 1394  16.661  13.321   8.140
 1479ETHY    C1 1395  17.079  13.544   8.388
 1480ETHY    C1 1396  17.438  13.849   8.622
 1481ETHY    C1 1397  17.735  14.222   8.840
 1482ETHY    C1 1398  17.960  14.656   9.038
 1483ETHY    C1 1399  18.107  15.144   9.215
 1484THSLK    S 1400  16.607  12.781   7.665
 1485ETHY    C1 1401  17.042  12.673   7.740
 1486ETHY    C1 1402  17.568  12.635   7.826
 1487ETHY    C1 1403  18.083  12.698   7.910
 1488ETHY    C1 1404  18.577  12.852   7.993
 1489ETHY    C1 1405  19.038  13.097   8.075
 1490ETHY    C1 1406  19.455  13.429   8.155
 1491AUSL   AUS 1407  15.099  12.987   7.503
 1492AUSL   AUS 1408  15.169  12.843   7.919
 1493AUL    AUL 1409  14.885  13.069   7.806
 1494THSLK    S 1410  15.036  12.962   8.109
 1495ETHY    C1 1411  14.853  13.034   8.519
 1496ETHY    C1 1412  14.581  13.174   8.957
 1497ETHY    C1 1413  14.256  13.365   9.324
 1498ETHY    C1 1414  13.890  13.596   9.619
 1499ETHY    C1 1415  13.487  13.863   9.831
 1500ETHY    C1 1416  13.053  14.159   9.956
 1501THSLK    S 1417  14.888  13.128   7.508
 1502ETHY    C1 1418  14.666  13.525   7.513
 1503ETHY    C1 1419  14.330  13.940   7.514
 1504ETHY    C1 1420  13.927  14.279   7.511
 1505ETHY    C1 1421  13.473  14.540   7.510
 1506ETHY    C1 1422  12.974  14.714   7.510
 1507ETHY    C1 1423  12.441  14.798   7.514
 1508AUSL   AUS 1424  15.005  12.742   7.351
 1509AUSL   AUS 1425  15.263  13.089   7.238
 1510AUL    AUL 1426  14.885  13.069   7.199
 1511THSLK    S 1427  14.778  12.857   7.303
 1512ETHY    C1 1428  14.459  13.057   7.049
 1513ETHY    C1 1429  14.026  13.263   6.813
 1514ETHY    C1 1430  13.551  13.429   6.661
 1515ETHY    C1 1431  13.048  13.558   6.590
 1516ETHY    C1 1432  12.528  13.648   6.605
 1517ETHY    C1 1433  12.000  13.696   6.708
 1518THSLK    S 1434  15.151  13.252   7.060
 1519ETHY    C1 1435  15.072  13.562   6.737
 1520ETHY    C1 1436  14.897  13.936   6.397
 1521ETHY    C1 1437  14.643  14.304   6.120
 1522ETHY    C1 1438  14.323  14.661   5.909
 1523ETHY    C1 1439  13.942  14.999   5.770
 1524ETHY    C1 1440  13.507  15.313   5.709
 1525AUSL   AUS 1441  15.005  12.742   7.654
 1526AUSL   AUS 1442  15.005  12.415   7.351
 1527AUL    AUL 1443  14.697  12.578   7.503
 1528THSLK    S 1444  14.751  12.342   7.394
 1529ETHY    C1 1445  14.316  12.324   7.524
 1530ETHY    C1 1446  13.790  12.264   7.597
 1531ETHY    C1 1447  13.275  12.160   7.578
 1532ETHY    C1 1448  12.781  12.017   7.477
 1533ETHY    C1 1449  12.321  11.834   7.294
 1534ETHY    C1 1450  11.903  11.614   7.034
 1535THSLK    S 1451  14.777  12.848   7.707
 1536ETHY    C1 1452  14.456  13.039   7.966
 1537ETHY    C1 1453  14.023  13.243   8.202
 1538ETHY    C1 1454  13.548  13.414   8.352
 1539ETHY    C1 1455  13.046  13.546   8.422
 1540ETHY    C1 1456  12.526  13.634   8.407
 1541ETHY    C1 1457  11.997  13.675   8.308
 1542AUSL   AUS 1458  16.259  12.169   7.503
 1543AUSL   AUS 1459  16.189  12.314   7.919
 1544AUL    AUL 1460  16.473  12.088   7.806
 1545THSLK    S 1461  16.470  12.028   7.508
 1546ETHY    C1 1462  16.692  11.632   7.513
 1547ETHY    C1 1463  17.028  11.217   7.514
 1548ETHY    C1 1464  17.431  10.878   7.511
 1549ETHY    C1 1465  17.885  10.617   7.510
 1550ETHY    C1 1466  18.384  10.443   7.510
 1551ETHY    C1 1467  18.917  10.359   7.514
 1552THSLK    S 1468  16.316  12.123   8.064
 1553ETHY    C1 1469  16.493  11.758   8.270
 1554ETHY    C1 1470  16.764  11.386   8.540
 1555ETHY    C1 1471  17.091  11.097   8.834
 1556ETHY    C1 1472  17.460  10.889   9.142
 1557ETHY    C1 1473  17.862  10.771   9.462
 1558ETHY    C1 1474  18.291  10.746   9.789
 1559AUSL   AUS 1475  16.353  12.415   7.351
 1560AUSL   AUS 1476  16.095  12.068   7.238
 1561AUL    AUL 1477  16.473  12.088   7.199
 1562THSLK    S 1478  16.581  12.275   7.353
 1563ETHY    C1 1479  16.902  11.958   7.298
 1564ETHY    C1 1480  17.335  11.655   7.221
 1565ETHY    C1 1481  17.810  11.445   7.136
 1566ETHY    C1 1482  18.312  11.324   7.048
 1567ETHY    C1 1483  18.832  11.297   6.963
 1568ETHY    C1 1484  19.361  11.368   6.881
 1569THSLK    S 1485  16.211  11.879   7.108
 1570ETHY    C1 1486  16.295  11.450   6.984
 1571ETHY    C1 1487  16.470  10.978   6.803
 1572ETHY    C1 1488  16.723  10.567   6.593
 1573ETHY    C1 1489  17.041  10.219   6.366
 1574ETHY    C1 1490  17.423   9.944   6.126
 1575ETHY    C1 1491  17.861   9.747   5.880
 1576AUSL   AUS 1492  15.099  12.169   7.503
 1577AUSL   AUS 1493  15.169  12.314   7.086
 1578AUL    AUL 1494  14.885  12.088   7.199
 1579THSLK    S 1495  14.998  12.143   6.978
 1580ETHY    C1 1496  14.634  11.878   6.921
 1581ETHY    C1 1497  14.212  11.588   6.766
 1582ETHY    C1 1498  13.820  11.336   6.521
 1583ETHY    C1 1499  13.466  11.123   6.200
 1584ETHY    C1 1500  13.159  10.950   5.806
 1585ETHY    C1 1501  12.908  10.823   5.346
 1586THSLK    S 1502  14.833  12.117   7.508
 1587ETHY    C1 1503  14.379  12.095   7.513
 1588ETHY    C1 1504  13.857  11.981   7.514
 1589ETHY    C1 1505  13.375  11.772   7.511
 1590ETHY    C1 1506  12.938  11.482   7.510
 1591ETHY    C1 1507  12.559  11.115   7.510
 1592ETHY    C1 1508  12.246  10.675   7.514
 1593AUSL   AUS 1509  15.005  12.415   7.654
 1594AUSL   AUS 1510  15.263  12.068   7.767
 1595AUL    AUL 1511  14.885  12.088   7.806
 1596THSLK    S 1512  15.075  11.928   7.878
 1597ETHY    C1 1513  14.688  11.691   7.893
 1598ETHY    C1 1514  14.270  11.371   7.982
 1599ETHY    C1 1515  13.912  11.022   8.149
 1600ETHY    C1 1516  13.617  10.658   8.382
 1601ETHY    C1 1517  13.392  10.287   8.683
 1602ETHY    C1 1518  13.241   9.916   9.045
 1603THSLK    S 1519  14.749  12.352   7.616
 1604ETHY    C1 1520  14.313  12.342   7.491
 1605ETHY    C1 1521  13.787  12.283   7.419
 1606ETHY    C1 1522  13.272  12.176   7.436
 1607ETHY    C1 1523  12.778  12.030   7.535
 1608ETHY    C1 1524  12.318  11.848   7.718
 1609ETHY    C1 1525  11.899  11.635   7.983
 1610AUSL   AUS 1526  15.679  13.158   7.912
 1611AUSL   AUS 1527  15.263  13.089   7.767
 1612AUL    AUL 1528  15.376  13.373   7.993
 1613THSLK    S 1529  15.147  13.245   7.952
 1614ETHY    C1 1530  15.063  13.547   8.280
 1615ETHY    C1 1531  14.888  13.920   8.621
 1616ETHY    C1 1532  14.635  14.291   8.895
 1617ETHY    C1 1533  14.317  14.650   9.105
 1618ETHY    C1 1534  13.935  14.988   9.244
 1619ETHY    C1 1535  13.497  15.296   9.309
 1620THSLK    S 1536  15.721  13.380   8.035
 1621ETHY    C1 1537  15.905  13.655   8.347
 1622ETHY    C1 1538  16.055  14.035   8.691
 1623ETHY    C1 1539  16.121  14.458   8.998
 1624ETHY    C1 1540  16.108  14.909   9.264
 1625ETHY    C1 1541  16.011  15.378   9.485
 1626ETHY    C1 1542  15.831  15.857   9.656
 1627AUSL   AUS 1543  15.527  13.252   7.666
 1628AUSL   AUS 1544  15.831  13.252   7.339
 1629AUL    AUL 1545  15.679  13.560   7.503
 1630THSLK    S 1546  15.570  13.496   7.776
 1631ETHY    C1 1547  15.714  13.890   7.951
 1632ETHY    C1 1548  15.801  14.384   8.137
 1633ETHY    C1 1549  15.789  14.885   8.294
 1634ETHY    C1 1550  15.688  15.383   8.425
 1635ETHY    C1 1551  15.496  15.864   8.527
 1636ETHY    C1 1552  15.216  16.319   8.600
 1637THSLK    S 1553  15.886  13.483   7.243
 1638ETHY    C1 1554  16.162  13.813   7.096
 1639ETHY    C1 1555  16.412  14.254   6.927
 1640ETHY    C1 1556  16.568  14.731   6.771
 1641ETHY    C1 1557  16.637  15.233   6.635
 1642ETHY    C1 1558  16.613  15.749   6.525
 1643ETHY    C1 1559  16.496  16.269   6.443
 1644AUSL   AUS 1560  15.831  13.252   7.666
 1645AUSL   AUS 1561  15.944  12.995   8.013
 1646AUL    AUL 1562  15.982  13.373   7.993
 1647THSLK    S 1563  16.115  13.103   8.183
 1648ETHY    C1 1564  16.410  13.168   8.523
 1649ETHY    C1 1565  16.728  13.330   8.920
 1650ETHY    C1 1566  16.996  13.579   9.298
 1651ETHY    C1 1567  17.210  13.901   9.653
 1652ETHY    C1 1568  17.362  14.289   9.976
 1653ETHY    C1 1569  17.448  14.739  10.262
 1654THSLK    S 1570  15.884  13.481   7.772
 1655ETHY    C1 1571  16.156  13.809   7.929
 1656ETHY    C1 1572  16.406  14.249   8.100
 1657ETHY    C1 1573  16.564  14.728   8.251
 1658ETHY    C1 1574  16.633  15.230   8.383
 1659ETHY    C1 1575  16.609  15.745   8.494
 1660ETHY    C1 1576  16.490  16.264   8.585
 1661AUSL   AUS 1577  15.679  11.998   7.912
 1662AUSL   AUS 1578  16.095  12.068   7.767
 1663AUL    AUL 1579  15.982  11.784   7.993
 1664THSLK    S 1580  15.632  11.748   7.989
 1665ETHY    C1 1581  15.442  11.352   8.103
 1666ETHY    C1 1582  15.291  10.874   8.289
 1667ETHY    C1 1583  15.228  10.409   8.528
 1668ETHY    C1 1584  15.243   9.967   8.809
 1669ETHY    C1 1585  15.339   9.560   9.132
 1670ETHY    C1 1586  15.514   9.197   9.489
 1671THSLK    S 1587  16.207  11.881   7.907
 1672ETHY    C1 1588  16.286  11.453   8.040
 1673ETHY    C1 1589  16.461  10.983   8.222
 1674ETHY    C1 1590  16.715  10.571   8.428
 1675ETHY    C1 1591  17.035  10.222   8.652
 1676ETHY    C1 1592  17.416   9.947   8.893
 1677ETHY    C1 1593  17.851   9.751   9.147
 1678AUSL   AUS 1594  15.527  11.905   7.666
 1679AUSL   AUS 1595  15.414  12.162   8.013
 1680AUL    AUL 1596  15.376  11.784   7.993
 1681THSLK    S 1597  15.472  11.669   7.745
 1682ETHY    C1 1598  15.197  11.310   7.788
 1683ETHY    C1 1599  14.946  10.845   7.869
 1684ETHY    C1 1600  14.790  10.355   7.981
 1685ETHY    C1 1601  14.721   9.856   8.122
 1686ETHY    C1 1602  14.745   9.356   8.292
 1687ETHY    C1 1603  14.862   8.868   8.489
 1688THSLK    S 1604  15.236  11.996   8.129
 1689ETHY    C1 1605  14.934  11.678   8.248
 1690ETHY    C1 1606  14.615  11.311   8.471
 1691ETHY    C1 1607  14.350  10.974   8.776
 1692ETHY    C1 1608  14.138  10.672   9.147
 1693ETHY    C1 1609  13.985  10.414   9.582
 1694ETHY    C1 1610  13.894  10.207  10.072
 1695AUSL   AUS 1611  15.831  11.905   7.666
 1696AUSL   AUS 1612  15.527  11.905   7.339
 1697AUL    AUL 1613  15.679  11.597   7.503
 1698THSLK    S 1614  15.474  11.666   7.270
 1699ETHY    C1 1615  15.202  11.304   7.236
 1700ETHY    C1 1616  14.952  10.839   7.157
 1701ETHY    C1 1617  14.795  10.350   7.041
 1702ETHY    C1 1618  14.725   9.851   6.896
 1703ETHY    C1 1619  14.749   9.352   6.727
 1704ETHY    C1 1620  14.868   8.861   6.538
 1705THSLK    S 1621  15.785  11.653   7.749
 1706ETHY    C1 1622  15.638  11.227   7.811
 1707ETHY    C1 1623  15.552  10.709   7.906
 1708ETHY    C1 1624  15.564  10.196   8.025
 1709ETHY    C1 1625  15.666   9.701   8.165
 1710ETHY    C1 1626  15.858   9.236   8.325
 1711ETHY    C1 1627  16.136   8.810   8.504
 1712AUSL   AUS 1628  15.679  13.158   7.094
 1713AUSL   AUS 1629  16.095  13.089   7.238
 1714AUL    AUL 1630  15.982  13.373   7.012
 1715THSLK    S 1631  15.726  13.385   6.977
 1716ETHY    C1 1632  15.916  13.664   6.674
 1717ETHY    C1 1633  16.067  14.045   6.330
 1718ETHY    C1 1634  16.131  14.465   6.021
 1719ETHY    C1 1635  16.115  14.915   5.752
 1720ETHY    C1 1636  16.019  15.385   5.532
 1721ETHY    C1 1637  15.844  15.868   5.366
 1722THSLK    S 1638  16.283  13.205   7.089
 1723ETHY    C1 1639  16.670  13.325   6.883
 1724ETHY    C1 1640  17.088  13.548   6.637
 1725ETHY    C1 1641  17.446  13.852   6.400
 1726ETHY    C1 1642  17.741  14.224   6.178
 1727ETHY    C1 1643  17.966  14.659   5.981
 1728ETHY    C1 1644  18.117  15.148   5.811
 1729AUSL   AUS 1645  15.527  13.252   7.339
 1730AUSL   AUS 1646  15.414  12.995   6.992
 1731AUL    AUL 1647  15.376  13.373   7.012
 1732THSLK    S 1648  15.573  13.499   7.239
 1733ETHY    C1 1649  15.720  13.896   7.074
 1734ETHY    C1 1650  15.806  14.390   6.889
 1735ETHY    C1 1651  15.794  14.891   6.727
 1736ETHY    C1 1652  15.692  15.387   6.593
 1737ETHY    C1 1653  15.500  15.868   6.492
 1738ETHY    C1 1654  15.222  16.326   6.427
 1739THSLK    S 1655  15.304  13.127   6.805
 1740ETHY    C1 1656  15.268  13.276   6.377
 1741ETHY    C1 1657  15.158  13.502   5.906
 1742ETHY    C1 1658  14.980  13.777   5.494
 1743ETHY    C1 1659  14.746  14.090   5.145
 1744ETHY    C1 1660  14.460  14.439   4.870
 1745ETHY    C1 1661  14.129  14.817   4.675
 1746AUSL   AUS 1662  15.679  11.998   7.094
 1747AUSL   AUS 1663  15.263  12.068   7.238
 1748AUL    AUL 1664  15.376  11.784   7.012
 1749THSLK    S 1665  15.080  11.920   7.134
 1750ETHY    C1 1666  14.697  11.676   7.124
 1751ETHY    C1 1667  14.279  11.355   7.035
 1752ETHY    C1 1668  13.920  11.009   6.866
 1753ETHY    C1 1669  13.623  10.648   6.631
 1754ETHY    C1 1670  13.398  10.276   6.331
 1755ETHY    C1 1671  13.251   9.899   5.974
 1756THSLK    S 1672  15.637  11.743   7.024
 1757ETHY    C1 1673  15.453  11.342   6.917
 1758ETHY    C1 1674  15.303  10.864   6.732
 1759ETHY    C1 1675  15.237  10.401   6.491
 1760ETHY    C1 1676  15.250   9.961   6.206
 1761ETHY    C1 1677  15.347   9.554   5.885
 1762ETHY    C1 1678  15.527   9.186   5.533
 1763AUSL   AUS 1679  15.831  11.905   7.339
 1764AUSL   AUS 1680  15.944  12.162   6.992
 1765AUL    AUL 1681  15.982  11.784   7.012
 1766THSLK    S 1682  15.788  11.651   7.266
 1767ETHY    C1 1683  15.644  11.223   7.213
 1768ETHY    C1 1684  15.557  10.704   7.120
 1769ETHY    C1 1685  15.569  10.192   6.997
 1770ETHY    C1 1686  15.670   9.698   6.854
 1771ETHY    C1 1687  15.862   9.233   6.695
 1772ETHY    C1 1688  16.142   8.805   6.523
 1773THSLK    S 1689  16.061  11.972   6.859
 1774ETHY    C1 1690  16.105  11.570   6.651
 1775ETHY    C1 1691  16.215  11.139   6.355
 1776ETHY    C1 1692  16.391  10.776   6.017
 1777ETHY    C1 1693  16.622  10.482   5.651
 1778ETHY    C1 1694  16.908  10.265   5.264
 1779ETHY    C1 1695  17.245  10.129   4.865
 1780AUC    AUC 1696  23.931   9.152   7.503
 1781AUC    AUC 1697  24.176   9.152   7.351
 1782AUC    AUC 1698  24.176   9.152   7.654
 1783AUC    AUC 1699  23.686   9.152   7.351
 1784AUC    AUC 1700  23.686   9.152   7.654
 1785AUC    AUC 1701  23.779   9.398   7.503
 1786AUC    AUC 1702  24.083   9.398   7.503
 1787AUC    AUC 1703  23.779   8.907   7.503
 1788AUC    AUC 1704  24.083   8.907   7.503
 1789AUC    AUC 1705  23.931   9.001   7.748
 1790AUC    AUC 1706  23.931   9.304   7.748
 1791AUC    AUC 1707  23.931   9.001   7.257
 1792AUC    AUC 1708  23.931   9.304   7.257
 1793AUC    AUC 1709  24.422   9.152   7.199
 1794AUC    AUC 1710  24.422   9.152   7.503
 1795AUC    AUC 1711  24.422   9.152   7.806
 1796AUC    AUC 1712  23.440   9.152   7.199
 1797AUC    AUC 1713  23.440   9.152   7.503
 1798AUC    AUC 1714  23.440   9.152   7.806
 1799AUC    AUC 1715  23.628   9.643   7.503
 1800AUC    AUC 1716  23.931   9.643   7.503
 1801AUC    AUC 1717  24.234   9.643   7.503
 1802AUC    AUC 1718  23.628   8.662   7.503
 1803AUC    AUC 1719  23.931   8.662   7.503
 1804AUC    AUC 1720  24.234   8.662   7.503
 1805AUC    AUC 1721  23.931   8.849   7.993
 1806AUC    AUC 1722  23.931   9.152   7.993
 1807AUC    AUC 1723  23.931   9.456   7.993
 1808AUC    AUC 1724  23.931   8.849   7.012
 1809AUC    AUC 1725  23.931   9.152   7.012
 1810AUC    AUC 1726  23.931   9.456   7.012
 1811AUC    AUC 1727  24.176   9.001   7.900
 1812AUC    AUC 1728  24.176   9.304   7.900
 1813AUC    AUC 1729  24.176   9.001   7.106
 1814AUC    AUC 1730  24.176   9.304   7.106
 1815AUC    AUC 1731  23.686   9.001   7.900
 1816AUC    AUC 1732  23.686   9.304   7.900
 1817AUC    AUC 1733  23.686   9.001   7.106
 1818AUC    AUC 1734  23.686   9.304   7.106
 1819AUC    AUC 1735  24.328   9.398   7.351
 1820AUC    AUC 1736  24.328   9.398   7.654
 1821AUC    AUC 1737  23.534   9.398   7.351
 1822AUC    AUC 1738  23.534   9.398   7.654
 1823AUC    AUC 1739  24.328   8.907   7.351
 1824AUC    AUC 1740  24.328   8.907   7.654
 1825AUC    AUC 1741  23.534   8.907   7.351
 1826AUC    AUC 1742  23.534   8.907   7.654
 1827AUC    AUC 1743  23.779   9.550   7.748
 1828AUC    AUC 1744  24.083   9.550   7.748
 1829AUC    AUC 1745  23.779   8.755   7.748
 1830AUC    AUC 1746  24.083   8.755   7.748
 1831AUC    AUC 1747  23.779   9.550   7.257
 1832AUC    AUC 1748  24.083   9.550   7.257
 1833AUC    AUC 1749  23.779   8.755   7.257
 1834AUC    AUC 1750  24.083   8.755   7.257
 1835AUSL   AUS 1751  24.340   9.152   8.083
 1836AUSL   AUS 1752  24.196   8.736   8.013
 1837AUL    AUL 1753  24.422   8.849   8.297
 1838THSLK    S 1754  24.306   8.549   8.153
 1839ETHY    C1 1755  24.342   8.150   8.368
 1840ETHY    C1 1756  24.452   7.720   8.665
 1841ETHY    C1 1757  24.630   7.356   9.000
 1842ETHY    C1 1758  24.864   7.060   9.364
 1843ETHY    C1 1759  25.150   6.843   9.752
 1844ETHY    C1 1760  25.481   6.710  10.156
 1845THSLK    S 1761  24.433   9.100   8.324
 1846ETHY    C1 1762  24.637   8.880   8.665
 1847ETHY    C1 1763  24.901   8.703   9.094
 1848ETHY    C1 1764  25.177   8.627   9.535
 1849ETHY    C1 1765  25.454   8.644   9.980
 1850ETHY    C1 1766  25.724   8.757  10.419
 1851ETHY    C1 1767  25.983   8.966  10.845
 1852AUSL   AUS 1768  24.095   9.001   8.176
 1853AUSL   AUS 1769  23.767   9.304   8.176
 1854AUL    AUL 1770  23.931   9.152   8.484
 1855THSLK    S 1771  24.170   8.946   8.413
 1856ETHY    C1 1772  24.234   8.666   8.765
 1857ETHY    C1 1773  24.337   8.411   9.223
 1858ETHY    C1 1774  24.464   8.252   9.708
 1859ETHY    C1 1775  24.606   8.183  10.208
 1860ETHY    C1 1776  24.760   8.211  10.713
 1861ETHY    C1 1777  24.920   8.335  11.212
 1862THSLK    S 1778  23.682   9.258   8.428
 1863ETHY    C1 1779  23.608   9.108   8.850
 1864ETHY    C1 1780  23.503   9.020   9.367
 1865ETHY    C1 1781  23.381   9.032   9.878
 1866ETHY    C1 1782  23.243   9.133  10.373
 1867ETHY    C1 1783  23.088   9.326  10.840
 1868ETHY    C1 1784  22.919   9.607  11.268
 1869AUSL   AUS 1785  24.095   9.304   8.176
 1870AUSL   AUS 1786  24.441   9.417   7.919
 1871AUL    AUL 1787  24.422   9.456   8.297
 1872THSLK    S 1788  24.180   9.360   8.410
 1873ETHY    C1 1789  24.254   9.641   8.759
 1874ETHY    C1 1790  24.359   9.896   9.217
 1875ETHY    C1 1791  24.481  10.055   9.703
 1876ETHY    C1 1792  24.620  10.124  10.204
 1877ETHY    C1 1793  24.774  10.097  10.708
 1878ETHY    C1 1794  24.943   9.973  11.206
 1879THSLK    S 1795  24.613   9.515   8.080
 1880ETHY    C1 1796  24.976   9.486   8.350
 1881ETHY    C1 1797  25.398   9.542   8.673
 1882ETHY    C1 1798  25.790   9.696   8.989
 1883ETHY    C1 1799  26.144   9.934   9.293
 1884ETHY    C1 1800  26.451  10.255   9.580
 1885ETHY    C1 1801  26.702  10.652   9.844
 1886AUSL   AUS 1802  24.340   9.152   6.923
 1887AUSL   AUS 1803  24.196   9.569   6.992
 1888AUL    AUL 1804  24.422   9.456   6.708
 1889THSLK    S 1805  24.442   9.100   6.687
 1890ETHY    C1 1806  24.655   8.880   6.351
 1891ETHY    C1 1807  24.920   8.703   5.923
 1892ETHY    C1 1808  25.192   8.627   5.479
 1893ETHY    C1 1809  25.466   8.644   5.033
 1894ETHY    C1 1810  25.737   8.757   4.594
 1895ETHY    C1 1811  26.002   8.966   4.173
 1896THSLK    S 1812  24.374   9.680   6.829
 1897ETHY    C1 1813  24.676   9.748   6.497
 1898ETHY    C1 1814  24.995   9.911   6.100
 1899ETHY    C1 1815  25.260  10.158   5.719
 1900ETHY    C1 1816  25.472  10.478   5.362
 1901ETHY    C1 1817  25.625  10.868   5.039
 1902ETHY    C1 1818  25.716  11.320   4.759
 1903AUSL   AUS 1819  24.095   9.001   6.829
 1904AUSL   AUS 1820  24.441   8.888   7.086
 1905AUL    AUL 1821  24.422   8.849   6.708
 1906THSLK    S 1822  24.574   8.696   6.949
 1907ETHY    C1 1823  24.757   8.329   6.752
 1908ETHY    C1 1824  25.029   7.957   6.483
 1909ETHY    C1 1825  25.354   7.668   6.186
 1910ETHY    C1 1826  25.720   7.461   5.874
 1911ETHY    C1 1827  26.124   7.342   5.555
 1912ETHY    C1 1828  26.557   7.317   5.235
 1913THSLK    S 1829  24.180   8.945   6.596
 1914ETHY    C1 1830  24.254   8.664   6.246
 1915ETHY    C1 1831  24.359   8.408   5.788
 1916ETHY    C1 1832  24.481   8.250   5.302
 1917ETHY    C1 1833  24.620   8.181   4.801
 1918ETHY    C1 1834  24.774   8.208   4.297
 1919ETHY    C1 1835  24.943   8.332   3.799
 1920AUSL   AUS 1836  24.095   9.304   6.829
 1921AUSL   AUS 1837  23.767   9.001   6.829
 1922AUL    AUL 1838  23.931   9.152   6.521
 1923THSLK    S 1839  23.675   8.945   6.597
 1924ETHY    C1 1840  23.540   8.667   6.264
 1925ETHY    C1 1841  23.379   8.414   5.822
 1926ETHY    C1 1842  23.227   8.257   5.343
 1927ETHY    C1 1843  23.091   8.188   4.842
 1928ETHY    C1 1844  22.974   8.214   4.328
 1929ETHY    C1 1845  22.881   8.333   3.810
 1930THSLK    S 1846  24.197   9.258   6.583
 1931ETHY    C1 1847  24.343   9.108   6.179
 1932ETHY    C1 1848  24.505   9.017   5.678
 1933ETHY    C1 1849  24.652   9.027   5.173
 1934ETHY    C1 1850  24.785   9.128   4.677
 1935ETHY    C1 1851  24.902   9.323   4.200
 1936ETHY    C1 1852  25.003   9.609   3.754
 1937AUSL   AUS 1853  23.522   9.152   8.083
 1938AUSL   AUS 1854  23.666   9.569   8.013
 1939AUL    AUL 1855  23.440   9.456   8.297
 1940THSLK    S 1856  23.420   9.100   8.319
 1941ETHY    C1 1857  23.208   8.880   8.654
 1942ETHY    C1 1858  22.942   8.703   9.082
 1943ETHY    C1 1859  22.670   8.627   9.526
 1944ETHY    C1 1860  22.396   8.644   9.973
 1945ETHY    C1 1861  22.125   8.757  10.411
 1946ETHY    C1 1862  21.860   8.966  10.832
 1947THSLK    S 1863  23.549   9.693   8.202
 1948ETHY    C1 1864  23.506   9.836   8.632
 1949ETHY    C1 1865  23.395  10.061   9.104
 1950ETHY    C1 1866  23.219  10.338   9.515
 1951ETHY    C1 1867  22.988  10.654   9.863
 1952ETHY    C1 1868  22.702  11.002  10.138
 1953ETHY    C1 1869  22.365  11.375  10.334
 1954AUSL   AUS 1870  23.767   9.001   8.176
 1955AUSL   AUS 1871  23.421   8.888   7.919
 1956AUL    AUL 1872  23.440   8.849   8.297
 1957THSLK    S 1873  23.244   8.725   8.026
 1958ETHY    C1 1874  22.873   8.468   8.082
 1959ETHY    C1 1875  22.451   8.180   8.237
 1960ETHY    C1 1876  22.061   7.925   8.482
 1961ETHY    C1 1877  21.709   7.708   8.803
 1962ETHY    C1 1878  21.403   7.537   9.198
 1963ETHY    C1 1879  21.146   7.416   9.657
 1964THSLK    S 1880  23.665   8.947   8.406
 1965ETHY    C1 1881  23.519   8.671   8.736
 1966ETHY    C1 1882  23.357   8.419   9.178
 1967ETHY    C1 1883  23.210   8.261   9.658
 1968ETHY    C1 1884  23.077   8.191  10.160
 1969ETHY    C1 1885  22.960   8.217  10.674
 1970ETHY    C1 1886  22.859   8.338  11.190
 1971AUSL   AUS 1887  23.522   9.152   6.923
 1972AUSL   AUS 1888  23.666   8.736   6.992
 1973AUL    AUL 1889  23.440   8.849   6.708
 1974THSLK    S 1890  23.429   9.100   6.681
 1975ETHY    C1 1891  23.225   8.880   6.341
 1976ETHY    C1 1892  22.961   8.703   5.911
 1977ETHY    C1 1893  22.685   8.627   5.470
 1978ETHY    C1 1894  22.408   8.644   5.025
 1979ETHY    C1 1895  22.138   8.757   4.586
 1980ETHY    C1 1896  21.879   8.966   4.161
 1981THSLK    S 1897  23.495   8.563   6.878
 1982ETHY    C1 1898  23.200   8.237   6.760
 1983ETHY    C1 1899  22.882   7.870   6.538
 1984ETHY    C1 1900  22.614   7.535   6.233
 1985ETHY    C1 1901  22.400   7.235   5.861
 1986ETHY    C1 1902  22.248   6.977   5.426
 1987ETHY    C1 1903  22.162   6.765   4.937
 1988AUSL   AUS 1904  23.767   9.304   6.829
 1989AUSL   AUS 1905  23.421   9.417   7.086
 1990AUL    AUL 1906  23.440   9.456   6.708
 1991THSLK    S 1907  23.294   9.544   6.895
 1992ETHY    C1 1908  23.117   9.625   6.484
 1993ETHY    C1 1909  22.846   9.765   6.046
 1994ETHY    C1 1910  22.519   9.953   5.679
 1995ETHY    C1 1911  22.150  10.182   5.385
 1996ETHY    C1 1912  21.748  10.449   5.173
 1997ETHY    C1 1913  21.319  10.751   5.047
 1998THSLK    S 1914  23.692   9.260   6.576
 1999ETHY    C1 1915  23.628   9.113   6.150
 2000ETHY    C1 1916  23.525   9.024   5.634
 2001ETHY    C1 1917  23.398   9.035   5.123
 2002ETHY    C1 1918  23.256   9.136   4.629
 2003ETHY    C1 1919  23.103   9.329   4.162
 2004ETHY    C1 1920  22.942   9.612   3.732
 2005AUSL   AUS 1921  24.511   9.561   7.503
 2006AUSL   AUS 1922  24.441   9.417   7.086
 2007AUL    AUL 1923  24.725   9.643   7.199
 2008THSLK    S 1924  24.619   9.516   6.934
 2009ETHY    C1 1925  24.989   9.489   6.671
 2010ETHY    C1 1926  25.411   9.545   6.349
 2011ETHY    C1 1927  25.801   9.699   6.030
 2012ETHY    C1 1928  26.153   9.936   5.724
 2013ETHY    C1 1929  26.460  10.257   5.438
 2014ETHY    C1 1930  26.716  10.656   5.179
 2015THSLK    S 1931  24.777   9.614   7.508
 2016ETHY    C1 1932  25.231   9.636   7.513
 2017ETHY    C1 1933  25.753   9.750   7.514
 2018ETHY    C1 1934  26.236   9.959   7.511
 2019ETHY    C1 1935  26.672  10.249   7.510
 2020ETHY    C1 1936  27.051  10.616   7.510
 2021ETHY    C1 1937  27.365  11.056   7.514
 2022AUSL   AUS 1938  24.605   9.316   7.351
 2023AUSL   AUS 1939  24.605   8.989   7.654
 2024AUL    AUL 1940  24.913   9.152   7.503
 2025THSLK    S 1941  24.861   9.355   7.350
 2026ETHY    C1 1942  25.297   9.247   7.286
 2027ETHY    C1 1943  25.823   9.209   7.201
 2028ETHY    C1 1944  26.338   9.273   7.113
 2029ETHY    C1 1945  26.832   9.427   7.026
 2030ETHY    C1 1946  27.292   9.672   6.945
 2031ETHY    C1 1947  27.711  10.004   6.873
 2032THSLK    S 1948  24.832   8.849   7.663
 2033ETHY    C1 1949  25.151   8.533   7.728
 2034ETHY    C1 1950  25.584   8.229   7.807
 2035ETHY    C1 1951  26.059   8.019   7.887
 2036ETHY    C1 1952  26.562   7.898   7.971
 2037ETHY    C1 1953  27.082   7.872   8.058
 2038ETHY    C1 1954  27.610   7.942   8.147
 2039AUSL   AUS 1955  24.605   9.316   7.654
 2040AUSL   AUS 1956  24.347   9.663   7.767
 2041AUL    AUL 1957  24.725   9.643   7.806
 2042THSLK    S 1958  24.530   9.777   7.926
 2043ETHY    C1 1959  24.913   9.895   8.140
 2044ETHY    C1 1960  25.331  10.118   8.388
 2045ETHY    C1 1961  25.690  10.423   8.622
 2046ETHY    C1 1962  25.987  10.796   8.840
 2047ETHY    C1 1963  26.212  11.230   9.038
 2048ETHY    C1 1964  26.359  11.718   9.215
 2049THSLK    S 1965  24.859   9.355   7.665
 2050ETHY    C1 1966  25.294   9.247   7.740
 2051ETHY    C1 1967  25.820   9.209   7.826
 2052ETHY    C1 1968  26.335   9.272   7.910
 2053ETHY    C1 1969  26.829   9.426   7.993
 2054ETHY    C1 1970  27.290   9.671   8.075
 2055ETHY    C1 1971  27.707  10.003   8.155
 2056AUSL   AUS 1972  23.351   9.561   7.503
 2057AUSL   AUS 1973  23.421   9.417   7.919
 2058AUL    AUL 1974  23.137   9.643   7.806
 2059THSLK    S 1975  23.288   9.536   8.109
 2060ETHY    C1 1976  23.105   9.608   8.519
 2061ETHY    C1 1977  22.833   9.748   8.957
 2062ETHY    C1 1978  22.508   9.939   9.324
 2063ETHY    C1 1979  22.142  10.170   9.619
 2064ETHY    C1 1980  21.739  10.437   9.831
 2065ETHY    C1 1981  21.305  10.733   9.956
 2066THSLK    S 1982  23.140   9.702   7.508
 2067ETHY    C1 1983  22.918  10.099   7.513
 2068ETHY    C1 1984  22.582  10.514   7.514
 2069ETHY    C1 1985  22.179  10.853   7.511
 2070ETHY    C1 1986  21.725  11.114   7.510
 2071ETHY    C1 1987  21.226  11.288   7.510
 2072ETHY    C1 1988  20.693  11.372   7.514
 2073AUSL   AUS 1989  23.257   9.316   7.351
 2074AUSL   AUS 1990  23.515   9.663   7.238
 2075AUL    AUL 1991  23.137   9.643   7.199
 2076THSLK    S 1992  23.030   9.431   7.303
 2077ETHY    C1 1993  22.711   9.631   7.049
 2078ETHY    C1 1994  22.278   9.837   6.813
 2079ETHY    C1 1995  21.803  10.003   6.661
 2080ETHY    C1 1996  21.300  10.132   6.590
 2081ETHY    C1 1997  20.780  10.222   6.605
 2082ETHY    C1 1998  20.252  10.270   6.708
 2083THSLK    S 1999  23.403   9.826   7.060
 2084ETHY    C1 2000  23.324  10.136   6.737
 2085ETHY    C1 2001  23.149  10.510   6.397
 2086ETHY    C1 2002  22.895  10.878   6.120
 2087ETHY    C1 2003  22.575  11.235   5.909
 2088ETHY    C1 2004  22.194  11.573   5.770
 2089ETHY    C1 2005  21.759  11.887   5.709
 2090AUSL   AUS 2006  23.257   9.316   7.654
 2091AUSL   AUS 2007  23.257   8.989   7.351
 2092AUL    AUL 2008  22.949   9.152   7.503
 2093THSLK    S 2009  23.003   8.916   7.394
 2094ETHY    C1 2010  22.568   8.898   7.524
 2095ETHY    C1 2011  22.042   8.838   7.597
 2096ETHY    C1 2012  21.527   8.734   7.578
 2097ETHY    C1 2013  21.033   8.591   7.477
 2098ETHY    C1 2014  20.573   8.408   7.294
 2099ETHY    C1 2015  20.155   8.188   7.034
 2100THSLK    S 2016  23.029   9.422   7.707
 2101ETHY    C1 2017  22.708   9.613   7.966
 2102ETHY    C1 2018  22.275   9.817   8.202
 2103ETHY    C1 2019  21.800   9.988   8.352
 2104ETHY    C1 2020  21.298  10.120   8.422
 2105ETHY    C1 2021  20.778  10.208   8.407
 2106ETHY    C1 2022  20.249  10.249   8.308
 2107AUSL   AUS 2023  24.511   8.743   7.503
 2108AUSL   AUS 2024  24.441   8.888   7.919
 2109AUL    AUL 2025  24.725   8.662   7.806
 2110THSLK    S 2026  24.722   8.602   7.508
 2111ETHY    C1 2027  24.944   8.206   7.513
 2112ETHY    C1 2028  25.280   7.791   7.514
 2113ETHY    C1 2029  25.683   7.452   7.511
 2114ETHY    C1 2030  26.137   7.191   7.510
 2115ETHY    C1 2031  26.636   7.017   7.510
 2116ETHY    C1 2032  27.169   6.933   7.514
 2117THSLK    S 2033  24.568   8.697   8.064
 2118ETHY    C1 2034  24.745   8.332   8.270
 2119ETHY    C1 2035  25.016   7.960   8.540
 2120ETHY    C1 2036  25.343   7.671   8.834
 2121ETHY    C1 2037  25.712   7.463   9.142
 2122ETHY    C1 2038  26.114   7.345   9.462
 2123ETHY    C1 2039  26.543   7.320   9.789
 2124AUSL   AUS 2040  24.605   8.989   7.351
 2125AUSL   AUS 2041  24.347   8.642   7.238
 2126AUL    AUL 2042  24.725   8.662   7.199
 2127THSLK    S 2043  24.833   8.849   7.353
 2128ETHY    C1 2044  25.154   8.532   7.298
 2129ETHY    C1 2045  25.587   8.229   7.221
 2130ETHY    C1 2046  26.062   8.019   7.136
 2131ETHY    C1 2047  26.564   7.898   7.048
 2132ETHY    C1 2048  27.084   7.871   6.963
 2133ETHY    C1 2049  27.613   7.942   6.881
 2134THSLK    S 2050  24.463   8.453   7.108
 2135ETHY    C1 2051  24.547   8.024   6.984
 2136ETHY    C1 2052  24.722   7.552   6.803
 2137ETHY    C1 2053  24.975   7.141   6.593
 2138ETHY    C1 2054  25.293   6.793   6.366
 2139ETHY    C1 2055  25.675   6.518   6.126
 2140ETHY    C1 2056  26.113   6.321   5.880
 2141AUSL   AUS 2057  23.351   8.743   7.503
 2142AUSL   AUS 2058  23.421   8.888   7.086
 2143AUL    AUL 2059  23.137   8.662   7.199
 2144THSLK    S 2060  23.250   8.717   6.978
 2145ETHY    C1 2061  22.886   8.452   6.921
 2146ETHY    C1 2062  22.464   8.162   6.766
 2147ETHY    C1 2063  22.072   7.910   6.521
 2148ETHY    C1 2064  21.718   7.697   6.200
 2149ETHY    C1 2065  21.411   7.524   5.806
 2150ETHY    C1 2066  21.160   7.397   5.346
 2151THSLK    S 2067  23.085   8.691   7.508
 2152ETHY    C1 2068  22.631   8.669   7.513
 2153ETHY    C1 2069  22.109   8.555   7.514
 2154ETHY    C1 2070  21.627   8.346   7.511
 2155ETHY    C1 2071  21.190   8.056   7.510
 2156ETHY    C1 2072  20.811   7.689   7.510
 2157ETHY    C1 2073  20.498   7.249   7.514
 2158AUSL   AUS 2074  23.257   8.989   7.654
 2159AUSL   AUS 2075  23.515   8.642   7.767
 2160AUL    AUL 2076  23.137   8.662   7.806
 2161THSLK    S 2077  23.327   8.502   7.878
 2162ETHY    C1 2078  22.940   8.265   7.893
 2163ETHY    C1 2079  22.522   7.945   7.982
 2164ETHY    C1 2080  22.164   7.596   8.149
 2165ETHY    C1 2081  21.869   7.232   8.382
 2166ETHY    C1 2082  21.644   6.861   8.683
 2167ETHY    C1 2083  21.493   6.490   9.045
 2168THSLK    S 2084  23.001   8.926   7.616
 2169ETHY    C1 2085  22.565   8.916   7.491
 2170ETHY    C1 2086  22.039   8.857   7.419
 2171ETHY    C1 2087  21.524   8.750   7.436
 2172ETHY    C1 2088  21.030   8.604   7.535
 2173ETHY    C1 2089  20.570   8.422   7.718
 2174ETHY    C1 2090  20.151   8.209   7.983
 2175AUSL   AUS 2091  23.931   9.732   7.912
 2176AUSL   AUS 2092  23.515   9.663   7.767
 2177AUL    AUL 2093  23.628   9.947   7.993
 2178THSLK    S 2094  23.399   9.819   7.952
 2179ETHY    C1 2095  23.315  10.121   8.280
 2180ETHY    C1 2096  23.140  10.494   8.621
 2181ETHY    C1 2097  22.887  10.865   8.895
 2182ETHY    C1 2098  22.569  11.224   9.105
 2183ETHY    C1 2099  22.187  11.562   9.244
 2184ETHY    C1 2100  21.749  11.870   9.309
 2185THSLK    S 2101  23.973   9.954   8.035
 2186ETHY    C1 2102  24.157  10.229   8.347
 2187ETHY    C1 2103  24.307  10.609   8.691
 2188ETHY    C1 2104  24.373  11.032   8.998
 2189ETHY    C1 2105  24.360  11.483   9.264
 2190ETHY    C1 2106  24.263  11.952   9.485
 2191ETHY    C1 2107  24.083  12.431   9.656
 2192AUSL   AUS 2108  23.779   9.826   7.666
 2193AUSL   AUS 2109  24.083   9.826   7.339
 2194AUL    AUL 2110  23.931  10.134   7.503
 2195THSLK    S 2111  23.822  10.070   7.776
 2196ETHY    C1 2112  23.966  10.464   7.951
 2197ETHY    C1 2113  24.053  10.958   8.137
 2198ETHY    C1 2114  24.041  11.459   8.294
 2199ETHY    C1 2115  23.940  11.957   8.425
 2200ETHY    C1 2116  23.748  12.438   8.527
 2201ETHY    C1 2117  23.468  12.893   8.600
 2202THSLK    S 2118  24.138  10.057   7.243
 2203ETHY    C1 2119  24.414  10.387   7.096
 2204ETHY    C1 2120  24.664  10.828   6.927
 2205ETHY    C1 2121  24.820  11.305   6.771
 2206ETHY    C1 2122  24.889  11.807   6.635
 2207ETHY    C1 2123  24.865  12.323   6.525
 2208ETHY    C1 2124  24.748  12.843   6.443
 2209AUSL   AUS 2125  24.083   9.826   7.666
 2210AUSL   AUS 2126  24.196   9.569   8.013
 2211AUL    AUL 2127  24.234   9.947   7.993
 2212THSLK    S 2128  24.367   9.677   8.183
 2213ETHY    C1 2129  24.662   9.742   8.523
 2214ETHY    C1 2130  24.980   9.904   8.920
 2215ETHY    C1 2131  25.248  10.153   9.298
 2216ETHY    C1 2132  25.462  10.475   9.653
 2217ETHY    C1 2133  25.614  10.863   9.976
 2218ETHY    C1 2134  25.700  11.313  10.262
 2219THSLK    S 2135  24.136  10.055   7.772
 2220ETHY    C1 2136  24.408  10.383   7.929
 2221ETHY    C1 2137  24.658  10.823   8.100
 2222ETHY    C1 2138  24.816  11.302   8.251
 2223ETHY    C1 2139  24.885  11.804   8.383
 2224ETHY    C1 2140  24.861  12.319   8.494
 2225ETHY    C1 2141  24.742  12.838   8.585
 2226AUSL   AUS 2142  23.931   8.572   7.912
 2227AUSL   AUS 2143  24.347   8.642   7.767
 2228AUL    AUL 2144  24.234   8.358   7.993
 2229THSLK    S 2145  23.884   8.322   7.989
 2230ETHY    C1 2146  23.694   7.926   8.103
 2231ETHY    C1 2147  23.543   7.448   8.289
 2232ETHY    C1 2148  23.480   6.983   8.528
 2233ETHY    C1 2149  23.495   6.541   8.809
 2234ETHY    C1 2150  23.591   6.134   9.132
 2235ETHY    C1 2151  23.766   5.771   9.489
 2236THSLK    S 2152  24.459   8.455   7.907
 2237ETHY    C1 2153  24.538   8.027   8.040
 2238ETHY    C1 2154  24.713   7.557   8.222
 2239ETHY    C1 2155  24.967   7.145   8.428
 2240ETHY    C1 2156  25.287   6.796   8.652
 2241ETHY    C1 2157  25.668   6.521   8.893
 2242ETHY    C1 2158  26.103   6.325   9.147
 2243AUSL   AUS 2159  23.779   8.479   7.666
 2244AUSL   AUS 2160  23.666   8.736   8.013
 2245AUL    AUL 2161  23.628   8.358   7.993
 2246THSLK    S 2162  23.724   8.243   7.745
 2247ETHY    C1 2163  23.449   7.884   7.788
 2248ETHY    C1 2164  23.198   7.419   7.869
 2249ETHY    C1 2165  23.042   6.929   7.981
 2250ETHY    C1 2166  22.973   6.430   8.122
 2251ETHY    C1 2167  22.997   5.930   8.292
 2252ETHY    C1 2168  23.114   5.442   8.489
 2253THSLK    S 2169  23.488   8.570   8.129
 2254ETHY    C1 2170  23.186   8.252   8.248
 2255ETHY    C1 2171  22.867   7.885   8.471
 2256ETHY    C1 2172  22.602   7.548   8.776
 2257ETHY    C1 2173  22.390   7.246   9.147
 2258ETHY    C1 2174  22.237   6.988   9.582
 2259ETHY    C1 2175  22.146   6.781  10.072
 2260AUSL   AUS 2176  24.083   8.479   7.666
 2261AUSL   AUS 2177  23.779   8.479   7.339
 2262AUL    AUL 2178  23.931   8.171   7.503
 2263THSLK    S 2179  23.726   8.240   7.270
 2264ETHY    C1 2180  23.454   7.878   7.236
 2265ETHY    C1 2181  23.204   7.413   7.157
 2266ETHY    C1 2182  23.047   6.924   7.041
 2267ETHY    C1 2183  22.977   6.425   6.896
 2268ETHY    C1 2184  23.001   5.926   6.727
 2269ETHY    C1 2185  23.120   5.435   6.538
 2270THSLK    S 2186  24.037   8.227   7.749
 2271ETHY    C1 2187  23.890   7.801   7.811
 2272ETHY    C1 2188  23.804   7.283   7.906
 2273ETHY    C1 2189  23.816   6.770   8.025
 2274ETHY    C1 2190  23.918   6.275   8.165
 2275ETHY    C1 2191  24.110   5.810   8.325
 2276ETHY    C1 2192  24.388   5.384   8.504
 2277AUSL   AUS 2193  23.931   9.732   7.094
 2278AUSL   AUS 2194  24.347   9.663   7.238
 2279AUL    AUL 2195  24.234   9.947   7.012
 2280THSLK    S 2196  23.978   9.959   6.977
 2281ETHY    C1 2197  24.168  10.238   6.674
 2282ETHY    C1 2198  24.319  10.619   6.330
 2283ETHY    C1 2199  24.383  11.039   6.021
 2284ETHY    C1 2200  24.367  11.489   5.752
 2285ETHY    C1 2201  24.271  11.959   5.532
 2286ETHY    C1 2202  24.096  12.442   5.366
 2287THSLK    S 2203  24.535   9.779   7.089
 2288ETHY    C1 2204  24.922   9.899   6.883
 2289ETHY    C1 2205  25.340  10.122   6.637
 2290ETHY    C1 2206  25.698  10.426   6.400
 2291ETHY    C1 2207  25.993  10.798   6.178
 2292ETHY    C1 2208  26.218  11.233   5.981
 2293ETHY    C1 2209  26.369  11.722   5.811
 2294AUSL   AUS 2210  23.779   9.826   7.339
 2295AUSL   AUS 2211  23.666   9.569   6.992
 2296AUL    AUL 2212  23.628   9.947   7.012
 2297THSLK    S 2213  23.825  10.073   7.239
 2298ETHY    C1 2214  23.972  10.470   7.074
 2299ETHY    C1 2215  24.058  10.964   6.889
 2300ETHY    C1 2216  24.046  11.465   6.727
 2301ETHY    C1 2217  23.944  11.961   6.593
 2302ETHY    C1 2218  23.752  12.442   6.492
 2303ETHY    C1 2219  23.474  12.900   6.427
 2304THSLK    S 2220  23.556   9.701   6.805
 2305ETHY    C1 2221  23.520   9.850   6.377
 2306ETHY    C1 2222  23.410  10.076   5.906
 2307ETHY    C1 2223  23.232  10.351   5.494
 2308ETHY    C1 2224  22.998  10.664   5.145
 2309ETHY    C1 2225  22.712  11.013   4.870
 2310ETHY    C1 2226  22.381  11.391   4.675
 2311AUSL   AUS 2227  23.931   8.572   7.094
 2312AUSL   AUS 2228  23.515   8.642   7.238
 2313AUL    AUL 2229  23.628   8.358   7.012
 2314THSLK    S 2230  23.332   8.494   7.134
 2315ETHY    C1 2231  22.949   8.250   7.124
 2316ETHY    C1 2232  22.531   7.929   7.035
 2317ETHY    C1 2233  22.172   7.583   6.866
 2318ETHY    C1 2234  21.875   7.222   6.631
 2319ETHY    C1 2235  21.650   6.850   6.331
 2320ETHY    C1 2236  21.503   6.473   5.974
 2321THSLK    S 2237  23.889   8.317   7.024
 2322ETHY    C1 2238  23.705   7.916   6.917
 2323ETHY    C1 2239  23.555   7.438   6.732
 2324ETHY    C1 2240  23.489   6.975   6.491
 2325ETHY    C1 2241  23.502   6.535   6.206
 2326ETHY    C1 2242  23.599   6.128   5.885
 2327ETHY    C1 2243  23.779   5.760   5.533
 2328AUSL   AUS 2244  24.083   8.479   7.339
 2329AUSL   AUS 2245  24.196   8.736   6.992
 2330AUL    AUL 2246  24.234   8.358   7.012
 2331THSLK    S 2247  24.040   8.225   7.266
 2332ETHY    C1 2248  23.896   7.797   7.213
 2333ETHY    C1 2249  23.809   7.278   7.120
 2334ETHY    C1 2250  23.821   6.766   6.997
 2335ETHY    C1 2251  23.922   6.272   6.854
 2336ETHY    C1 2252  24.114   5.807   6.695
 2337ETHY    C1 2253  24.394   5.379   6.523
 2338THSLK    S 2254  24.313   8.546   6.859
 2339ETHY    C1 2255  24.357   8.144   6.651
 2340ETHY    C1 2256  24.467   7.713   6.355
 2341ETHY    C1 2257  24.643   7.350   6.017
 2342ETHY    C1 2258  24.874   7.056   5.651
 2343ETHY    C1 2259  25.160   6.839   5.264
 2344ETHY    C1 2260  25.497   6.703   4.865
 2345AUC    AUC 2261  16.790  20.718   7.503
 2346AUC    AUC 2262  17.035  20.718   7.351
 2347AUC    AUC 2263  17.035  20.718   7.654
 2348AUC    AUC 2264  16.545  20.718   7.351
 2349AUC    AUC 2265  16.545  20.718   7.654
 2350AUC    AUC 2266  16.638  20.964   7.503
 2351AUC    AUC 2267  16.942  20.964   7.503
 2352AUC    AUC 2268  16.638  20.473   7.503
 2353AUC    AUC 2269  16.942  20.473   7.503
 2354AUC    AUC 2270  16.790  20.567   7.748
 2355AUC    AUC 2271  16.790  20.870   7.748
 2356AUC    AUC 2272  16.790  20.567   7.257
 2357AUC    AUC 2273  16.790  20.870   7.257
 2358AUC    AUC 2274  17.281  20.718   7.199
 2359AUC    AUC 2275  17.281  20.718   7.503
 2360AUC    AUC 2276  17.281  20.718   7.806
 2361AUC    AUC 2277  16.299  20.718   7.199
 2362AUC    AUC 2278  16.299  20.718   7.503
 2363AUC    AUC 2279  16.299  20.718   7.806
 2364AUC    AUC 2280  16.487  21.209   7.503
 2365AUC    AUC 2281  16.790  21.209   7.503
 2366AUC    AUC 2282  17.093  21.209   7.503
 2367AUC    AUC 2283  16.487  20.228   7.503
 2368AUC    AUC 2284  16.790  20.228   7.503
 2369AUC    AUC 2285  17.093  20.228   7.503
 2370AUC    AUC 2286  16.790  20.415   7.993
 2371AUC    AUC 2287  16.790  20.718   7.993
 2372AUC    AUC 2288  16.790  21.022   7.993
 2373AUC    AUC 2289  16.790  20.415   7.012
 2374AUC    AUC 2290  16.790  20.718   7.012
 2375AUC    AUC 2291  16.790  21.022   7.012
 2376AUC    AUC 2292  17.035  20.567   7.900
 2377AUC    AUC 2293  17.035  20.870   7.900
 2378AUC    AUC 2294  17.035  20.567   7.106
 2379AUC    AUC 2295  17.035  20.870   7.106
 2380AUC    AUC 2296  16.545  20.567   7.900
 2381AUC    AUC 2297  16.545  20.870   7.900
 2382AUC    AUC 2298  16.545  20.567   7.106
 2383AUC    AUC 2299  16.545  20.870   7.106
 2384AUC    AUC 2300  17.187  20.964   7.351
 2385AUC    AUC 2301  17.187  20.964   7.654
 2386AUC    AUC 2302  16.393  20.964   7.351
 2387AUC    AUC 2303  16.393  20.964   7.654
 2388AUC    AUC 2304  17.187  20.473   7.351
 2389AUC    AUC 2305  17.187  20.473   7.654
 2390AUC    AUC 2306  16.393  20.473   7.351
 2391AUC    AUC 2307  16.393  20.473   7.654
 2392AUC    AUC 2308  16.638  21.116   7.748
 2393AUC    AUC 2309  16.942  21.116   7.748
 2394AUC    AUC 2310  16.638  20.321   7.748
 2395AUC    AUC 2311  16.942  20.321   7.748
 2396AUC    AUC 2312  16.638  21.116   7.257
 2397AUC    AUC 2313  16.942  21.116   7.257
 2398AUC    AUC 2314  16.638  20.321   7.257
 2399AUC    AUC 2315  16.942  20.321   7.257
 2400AUSL   AUS 2316  17.199  20.718   8.083
 2401AUSL   AUS 2317  17.055  20.302   8.013
 2402AUL    AUL 2318  17.281  20.415   8.297
 2403THSLK    S 2319  17.165  20.115   8.153
 2404ETHY    C1 2320  17.201  19.716   8.368
 2405ETHY    C1 2321  17.311  19.286   8.665
 2406ETHY    C1 2322  17.489  18.922   9.000
 2407ETHY    C1 2323  17.723  18.626   9.364
 2408ETHY    C1 2324  18.009  18.409   9.752
 2409ETHY    C1 2325  18.340  18.276  10.156
 2410THSLK    S 2326  17.292  20.666   8.324
 2411ETHY    C1 2327  17.496  20.446   8.665
 2412ETHY    C1 2328  17.760  20.269   9.094
 2413ETHY    C1 2329  18.036  20.193   9.535
 2414ETHY    C1 2330  18.313  20.210   9.980
 2415ETHY    C1 2331  18.583  20.323  10.419
 2416ETHY    C1 2332  18.842  20.532  10.845
 2417AUSL   AUS 2333  16.954  20.567   8.176
 2418AUSL   AUS 2334  16.626  20.870   8.176
 2419AUL    AUL 2335  16.790  20.718   8.484
 2420THSLK    S 2336  17.029  20.512   8.413
 2421ETHY    C1 2337  17.093  20.232   8.765
 2422ETHY    C1 2338  17.196  19.977   9.223
 2423ETHY    C1 2339  17.323  19.818   9.708
 2424ETHY    C1 2340  17.465  19.749  10.208
 2425ETHY    C1 2341  17.619  19.777  10.713
 2426ETHY    C1 2342  17.779  19.901  11.212
 2427THSLK    S 2343  16.541  20.824   8.428
 2428ETHY    C1 2344  16.467  20.674   8.850
 2429ETHY    C1 2345  16.362  20.586   9.367
 2430ETHY    C1 2346  16.240  20.598   9.878
 2431ETHY    C1 2347  16.102  20.699  10.373
 2432ETHY    C1 2348  15.947  20.892  10.840
 2433ETHY    C1 2349  15.778  21.173  11.268
 2434AUSL   AUS 2350  16.954  20.870   8.176
 2435AUSL   AUS 2351  17.300  20.983   7.919
 2436AUL    AUL 2352  17.281  21.022   8.297
 2437THSLK    S 2353  17.039  20.926   8.410
 2438ETHY    C1 2354  17.113  21.207   8.759
 2439ETHY    C1 2355  17.218  21.462   9.217
 2440ETHY    C1 2356  17.340  21.621   9.703
 2441ETHY    C1 2357  17.479  21.690  10.204
 2442ETHY    C1 2358  17.633  21.663  10.708
 2443ETHY    C1 2359  17.802  21.539  11.206
 2444THSLK    S 2360  17.472  21.081   8.080
 2445ETHY    C1 2361  17.835  21.052   8.350
 2446ETHY    C1 2362  18.257  21.108   8.673
 2447ETHY    C1 2363  18.649  21.262   8.989
 2448ETHY    C1 2364  19.003  21.500   9.293
 2449ETHY    C1 2365  19.310  21.821   9.580
 2450ETHY    C1 2366  19.561  22.218   9.844
 2451AUSL   AUS 2367  17.199  20.718   6.923
 2452AUSL   AUS 2368  17.055  21.135   6.992
 2453AUL    AUL 2369  17.281  21.022   6.708
 2454THSLK    S 2370  17.301  20.666   6.687
 2455ETHY    C1 2371  17.514  20.446   6.351
 2456ETHY    C1 2372  17.779  20.269   5.923
 2457ETHY    C1 2373  18.051  20.193   5.479
 2458ETHY    C1 2374  18.325  20.210   5.033
 2459ETHY    C1 2375  18.596  20.323   4.594
 2460ETHY    C1 2376  18.861  20.532   4.173
 2461THSLK    S 2377  17.233  21.246   6.829
 2462ETHY    C1 2378  17.535  21.314   6.497
 2463ETHY    C1 2379  17.854  21.477   6.100
 2464ETHY    C1 2380  18.119  21.724   5.719
 2465ETHY    C1 2381  18.331  22.044   5.362
 2466ETHY    C1 2382  18.484  22.434   5.039
 2467ETHY    C1 2383  18.575  22.886   4.759
 2468AUSL   AUS 2384  16.954  20.567   6.829
 2469AUSL   AUS 2385  17.300  20.454   7.086
 2470AUL    AUL 2386  17.281  20.415   6.708
 2471THSLK    S 2387  17.433  20.262   6.949
 2472ETHY    C1 2388  17.616  19.895   6.752
 2473ETHY    C1 2389  17.888  19.523   6.483
 2474ETHY    C1 2390  18.213  19.234   6.186
 2475ETHY    C1 2391  18.579  19.027   5.874
 2476ETHY    C1 2392  18.983  18.908   5.555
 2477ETHY    C1 2393  19.416  18.883   5.235
 2478THSLK    S 2394  17.039  20.511   6.596
 2479ETHY    C1 2395  17.113  20.230   6.246
 2480ETHY    C1 2396  17.218  19.974   5.788
 2481ETHY    C1 2397  17.340  19.816   5.302
 2482ETHY    C1 2398  17.479  19.747   4.801
 2483ETHY    C1 2399  17.633  19.774   4.297
 2484ETHY    C1 2400  17.802  19.898   3.799
 2485AUSL   AUS 2401  16.954  20.870   6.829
 2486AUSL   AUS 2402  16.626  20.567   6.829
 2487AUL    AUL 2403  16.790  20.718   6.521
 2488THSLK    S 2404  16.534  20.511   6.597
 2489ETHY    C1 2405  16.399  20.233   6.264
 2490ETHY    C1 2406  16.238  19.980   5.822
 2491ETHY    C1 2407  16.086  19.823   5.343
 2492ETHY    C1 2408  15.950  19.754   4.842
 2493ETHY    C1 2409  15.833  19.780   4.328
 2494ETHY    C1 2410  15.740  19.899   3.810
 2495THSLK    S 2411  17.056  20.824   6.583
 2496ETHY    C1 2412  17.202  20.674   6.179
 2497ETHY    C1 2413  17.364  20.583   5.678
 2498ETHY    C1 2414  17.511  20.593   5.173
 2499ETHY    C1 2415  17.644  20.694   4.677
 2500ETHY    C1 2416  17.761  20.889   4.200
 2501ETHY    C1 2417  17.862  21.175   3.754
 2502AUSL   AUS 2418  16.381  20.718   8.083
 2503AUSL   AUS 2419  16.525  21.135   8.013
 2504AUL    AUL 2420  16.299  21.022   8.297
 2505THSLK    S 2421  16.279  20.666   8.319
 2506ETHY    C1 2422  16.067  20.446   8.654
 2507ETHY    C1 2423  15.801  20.269   9.082
 2508ETHY    C1 2424  15.529  20.193   9.526
 2509ETHY    C1 2425  15.255  20.210   9.973
 2510ETHY    C1 2426  14.984  20.323  10.411
 2511ETHY    C1 2427  14.719  20.532  10.832
 2512THSLK    S 2428  16.408  21.259   8.202
 2513ETHY    C1 2429  16.365  21.402   8.632
 2514ETHY    C1 2430  16.254  21.627   9.104
 2515ETHY    C1 2431  16.078  21.904   9.515
 2516ETHY    C1 2432  15.847  22.220   9.863
 2517ETHY    C1 2433  15.561  22.568  10.138
 2518ETHY    C1 2434  15.224  22.941  10.334
 2519AUSL   AUS 2435  16.626  20.567   8.176
 2520AUSL   AUS 2436  16.280  20.454   7.919
 2521AUL    AUL 2437  16.299  20.415   8.297
 2522THSLK    S 2438  16.103  20.291   8.026
 2523ETHY    C1 2439  15.732  20.034   8.082
 2524ETHY    C1 2440  15.310  19.746   8.237
 2525ETHY    C1 2441  14.920  19.491   8.482
 2526ETHY    C1 2442  14.568  19.274   8.803
 2527ETHY    C1 2443  14.262  19.103   9.198
 2528ETHY    C1 2444  14.005  18.982   9.657
 2529THSLK    S 2445  16.524  20.513   8.406
 2530ETHY    C1 2446  16.378  20.237   8.736
 2531ETHY    C1 2447  16.216  19.985   9.178
 2532ETHY    C1 2448  16.069  19.827   9.658
 2533ETHY    C1 2449  15.936  19.757  10.160
 2534ETHY    C1 2450  15.819  19.783  10.674
 2535ETHY    C1 2451  15.718  19.904  11.190
 2536AUSL   AUS 2452  16.381  20.718   6.923
 2537AUSL   AUS 2453  16.525  20.302   6.992
 2538AUL    AUL 2454  16.299  20.415   6.708
 2539THSLK    S 2455  16.288  20.666   6.681
 2540ETHY    C1 2456  16.084  20.446   6.341
 2541ETHY    C1 2457  15.820  20.269   5.911
 2542ETHY    C1 2458  15.544  20.193   5.470
 2543ETHY    C1 2459  15.267  20.210   5.025
 2544ETHY    C1 2460  14.997  20.323   4.586
 2545ETHY    C1 2461  14.738  20.532   4.161
 2546THSLK    S 2462  16.354  20.129   6.878
 2547ETHY    C1 2463  16.059  19.803   6.760
 2548ETHY    C1 2464  15.741  19.436   6.538
 2549ETHY    C1 2465  15.473  19.101   6.233
 2550ETHY    C1 2466  15.259  18.801   5.861
 2551ETHY    C1 2467  15.107  18.543   5.426
 2552ETHY    C1 2468  15.021  18.331   4.937
 2553AUSL   AUS 2469  16.626  20.870   6.829
 2554AUSL   AUS 2470  16.280  20.983   7.086
 2555AUL    AUL 2471  16.299  21.022   6.708
 2556THSLK    S 2472  16.153  21.110   6.895
 2557ETHY    C1 2473  15.976  21.191   6.484
 2558ETHY    C1 2474  15.705  21.331   6.046
 2559ETHY    C1 2475  15.378  21.519   5.679
 2560ETHY    C1 2476  15.009  21.748   5.385
 2561ETHY    C1 2477  14.607  22.015   5.173
 2562ETHY    C1 2478  14.178  22.317   5.047
 2563THSLK    S 2479  16.551  20.826   6.576
 2564ETHY    C1 2480  16.487  20.679   6.150
 2565ETHY    C1 2481  16.384  20.590   5.634
 2566ETHY    C1 2482  16.257  20.601   5.123
 2567ETHY    C1 2483  16.115  20.702   4.629
 2568ETHY    C1 2484  15.962  20.895   4.162
 2569ETHY    C1 2485  15.801  21.178   3.732
 2570AUSL   AUS 2486  17.370  21.127   7.503
 2571AUSL   AUS 2487  17.300  20.983   7.086
 2572AUL    AUL 2488  17.584  21.209   7.199
 2573THSLK    S 2489  17.478  21.082   6.934
 2574ETHY    C1 2490  17.848  21.055   6.671
 2575ETHY    C1 2491  18.270  21.111   6.349
 2576ETHY    C1 2492  18.660  21.265   6.030
 2577ETHY    C1 2493  19.012  21.502   5.724
 2578ETHY    C1 2494  19.319  21.823   5.438
 2579ETHY    C1 2495  19.575  22.222   5.179
 2580THSLK    S 2496  17.636  21.180   7.508
 2581ETHY    C1 2497  18.090  21.202   7.513
 2582ETHY    C1 2498  18.612  21.316   7.514
 2583ETHY    C1 2499  19.095  21.525   7.511
 2584ETHY    C1 2500  19.531  21.815   7.510
 2585ETHY    C1 2501  19.910  22.182   7.510
 2586ETHY    C1 2502  20.224  22.622   7.514
 2587AUSL   AUS 2503  17.464  20.882   7.351
 2588AUSL   AUS 2504  17.464  20.555   7.654
 2589AUL    AUL 2505  17.772  20.718   7.503
 2590THSLK    S 2506  17.720  20.921   7.350
 2591ETHY    C1 2507  18.156  20.813   7.286
 2592ETHY    C1 2508  18.682  20.775   7.201
 2593ETHY    C1 2509  19.197  20.839   7.113
 2594ETHY    C1 2510  19.691  20.993   7.026
 2595ETHY    C1 2511  20.151  21.238   6.945
 2596ETHY    C1 2512  20.570  21.570   6.873
 2597THSLK    S 2513  17.691  20.415   7.663
 2598ETHY    C1 2514  18.010  20.099   7.728
 2599ETHY    C1 2515  18.443  19.795   7.807
 2600ETHY    C1 2516  18.918  19.585   7.887
 2601ETHY    C1 2517  19.421  19.464   7.971
 2602ETHY    C1 2518  19.941  19.438   8.058
 2603ETHY    C1 2519  20.469  19.508   8.147
 2604AUSL   AUS 2520  17.464  20.882   7.654
 2605AUSL   AUS 2521  17.206  21.229   7.767
 2606AUL    AUL 2522  17.584  21.209   7.806
 2607THSLK    S 2523  17.389  21.343   7.926
 2608ETHY    C1 2524  17.772  21.461   8.140
 2609ETHY    C1 2525  18.190  21.684   8.388
 2610ETHY    C1 2526  18.549  21.989   8.622
 2611ETHY    C1 2527  18.846  22.362   8.840
 2612ETHY    C1 2528  19.071  22.796   9.038
 2613ETHY    C1 2529  19.218  23.284   9.215
 2614THSLK    S 2530  17.718  20.921   7.665
 2615ETHY    C1 2531  18.153  20.813   7.740
 2616ETHY    C1 2532  18.679  20.775   7.826
 2617ETHY    C1 2533  19.194  20.838   7.910
 2618ETHY    C1 2534  19.688  20.992   7.993
 2619ETHY    C1 2535  20.149  21.237   8.075
 2620ETHY    C1 2536  20.566  21.569   8.155
 2621AUSL   AUS 2537  16.210  21.127   7.503
 2622AUSL   AUS 2538  16.280  20.983   7.919
 2623AUL    AUL 2539  15.996  21.209   7.806
 2624THSLK    S 2540  16.147  21.102   8.109
 2625ETHY    C1 2541  15.964  21.174   8.519
 2626ETHY    C1 2542  15.692  21.314   8.957
 2627ETHY    C1 2543  15.367  21.505   9.324
 2628ETHY    C1 2544  15.001  21.736   9.619
 2629ETHY    C1 2545  14.598  22.003   9.831
 2630ETHY    C1 2546  14.164  22.299   9.956
 2631THSLK    S 2547  15.999  21.268   7.508
 2632ETHY    C1 2548  15.777  21.665   7.513
 2633ETHY    C1 2549  15.441  22.080   7.514
 2634ETHY    C1 2550  15.038  22.419   7.511
 2635ETHY    C1 2551  14.584  22.680   7.510
 2636ETHY    C1 2552  14.085  22.854   7.510
 2637ETHY    C1 2553  13.552  22.938   7.514
 2638AUSL   AUS 2554  16.116  20.882   7.351
 2639AUSL   AUS 2555  16.374  21.229   7.238
 2640AUL    AUL 2556  15.996  21.209   7.199
 2641THSLK    S 2557  15.889  20.997   7.303
 2642ETHY    C1 2558  15.570  21.197   7.049
 2643ETHY    C1 2559  15.137  21.403   6.813
 2644ETHY    C1 2560  14.662  21.569   6.661
 2645ETHY    C1 2561  14.159  21.698   6.590
 2646ETHY    C1 2562  13.639  21.788   6.605
 2647ETHY    C1 2563  13.111  21.836   6.708
 2648THSLK    S 2564  16.262  21.392   7.060
 2649ETHY    C1 2565  16.183  21.702   6.737
 2650ETHY    C1 2566  16.008  22.076   6.397
 2651ETHY    C1 2567  15.754  22.444   6.120
 2652ETHY    C1 2568  15.434  22.801   5.909
 2653ETHY    C1 2569  15.053  23.139   5.770
 2654ETHY    C1 2570  14.618  23.453   5.709
 2655AUSL   AUS 2571  16.116  20.882   7.654
 2656AUSL   AUS 2572  16.116  20.555   7.351
 2657AUL    AUL 2573  15.808  20.718   7.503
 2658THSLK    S 2574  15.862  20.482   7.394
 2659ETHY    C1 2575  15.427  20.464   7.524
 2660ETHY    C1 2576  14.901  20.404   7.597
 2661ETHY    C1 2577  14.386  20.300   7.578
 2662ETHY    C1 2578  13.892  20.157   7.477
 2663ETHY    C1 2579  13.432  19.974   7.294
 2664ETHY    C1 2580  13.014  19.754   7.034
 2665THSLK    S 2581  15.888  20.988   7.707
 2666ETHY    C1 2582  15.567  21.179   7.966
 2667ETHY    C1 2583  15.134  21.383   8.202
 2668ETHY    C1 2584  14.659  21.554   8.352
 2669ETHY    C1 2585  14.157  21.686   8.422
 2670ETHY    C1 2586  13.637  21.774   8.407
 2671ETHY    C1 2587  13.108  21.815   8.308
 2672AUSL   AUS 2588  17.370  20.309   7.503
 2673AUSL   AUS 2589  17.300  20.454   7.919
 2674AUL    AUL 2590  17.584  20.228   7.806
 2675THSLK    S 2591  17.581  20.168   7.508
 2676ETHY    C1 2592  17.803  19.772   7.513
 2677ETHY    C1 2593  18.139  19.357   7.514
 2678ETHY    C1 2594  18.542  19.018   7.511
 2679ETHY    C1 2595  18.996  18.757   7.510
 2680ETHY    C1 2596  19.495  18.583   7.510
 2681ETHY    C1 2597  20.028  18.499   7.514
 2682THSLK    S 2598  17.427  20.263   8.064
 2683ETHY    C1 2599  17.604  19.898   8.270
 2684ETHY    C1 2600  17.875  19.526   8.540
 2685ETHY    C1 2601  18.202  19.237   8.834
 2686ETHY    C1 2602  18.571  19.029   9.142
 2687ETHY    C1 2603  18.973  18.911   9.462
 2688ETHY    C1 2604  19.402  18.886   9.789
 2689AUSL   AUS 2605  17.464  20.555   7.351
 2690AUSL   AUS 2606  17.206  20.208   7.238
 2691AUL    AUL 2607  17.584  20.228   7.199
 2692THSLK    S 2608  17.692  20.415   7.353
 2693ETHY    C1 2609  18.013  20.098   7.298
 2694ETHY    C1 2610  18.446  19.795   7.221
 2695ETHY    C1 2611  18.921  19.585   7.136
 2696ETHY    C1 2612  19.423  19.464   7.048
 2697ETHY    C1 2613  19.943  19.437   6.963
 2698ETHY    C1 2614  20.472  19.508   6.881
 2699THSLK    S 2615  17.322  20.019   7.108
 2700ETHY    C1 2616  17.406  19.590   6.984
 2701ETHY    C1 2617  17.581  19.118   6.803
 2702ETHY    C1 2618  17.834  18.707   6.593
 2703ETHY    C1 2619  18.152  18.359   6.366
 2704ETHY    C1 2620  18.534  18.084   6.126
 2705ETHY    C1 2621  18.972  17.887   5.880
 2706AUSL   AUS 2622  16.210  20.309   7.503
 2707AUSL   AUS 2623  16.280  20.454   7.086
 2708AUL    AUL 2624  15.996  20.228   7.199
 2709THSLK    S 2625  16.109  20.283   6.978
 2710ETHY    C1 2626  15.745  20.018   6.921
 2711ETHY    C1 2627  15.323  19.728   6.766
 2712ETHY    C1 2628  14.931  19.476   6.521
 2713ETHY    C1 2629  14.577  19.263   6.200
 2714ETHY    C1 2630  14.270  19.090   5.806
 2715ETHY    C1 2631  14.019  18.963   5.346
 2716THSLK    S 2632  15.944  20.257   7.508
 2717ETHY    C1 2633  15.490  20.235   7.513
 2718ETHY    C1 2634  14.968  20.121   7.514
 2719ETHY    C1 2635  14.486  19.912   7.511
 2720ETHY    C1 2636  14.049  19.622   7.510
 2721ETHY    C1 2637  13.670  19.255   7.510
 2722ETHY    C1 2638  13.357  18.815   7.514
 2723AUSL   AUS 2639  16.116  20.555   7.654
 2724AUSL   AUS 2640  16.374  20.208   7.767
 2725AUL    AUL 2641  15.996  20.228   7.806
 2726THSLK    S 2642  16.186  20.068   7.878
 2727ETHY    C1 2643  15.799  19.831   7.893
 2728ETHY    C1 2644  15.381  19.511   7.982
 2729ETHY    C1 2645  15.023  19.162   8.149
 2730ETHY    C1 2646  14.728  18.798   8.382
 2731ETHY    C1 2647  14.503  18.427   8.683
 2732ETHY    C1 2648  14.352  18.056   9.045
 2733THSLK    S 2649  15.860  20.492   7.616
 2734ETHY    C1 2650  15.424  20.482   7.491
 2735ETHY    C1 2651  14.898  20.423   7.419
 2736ETHY    C1 2652  14.383  20.316   7.436
 2737ETHY    C1 2653  13.889  20.170   7.535
 2738ETHY    C1 2654  13.429  19.988   7.718
 2739ETHY    C1 2655  13.010  19.775   7.983
 2740AUSL   AUS 2656  16.790  21.298   7.912
 2741AUSL   AUS 2657  16.374  21.229   7.767
 2742AUL    AUL 2658  16.487  21.513   7.993
 2743THSLK    S 2659  16.258  21.385   7.952
 2744ETHY    C1 2660  16.174  21.687   8.280
 2745ETHY    C1 2661  15.999  22.060   8.621
 2746ETHY    C1 2662  15.746  22.431   8.895
 2747ETHY    C1 2663  15.428  22.790   9.105
 2748ETHY    C1 2664  15.046  23.128   9.244
 2749ETHY    C1 2665  14.608  23.436   9.309
 2750THSLK    S 2666  16.832  21.520   8.035
 2751ETHY    C1 2667  17.016  21.795   8.347
 2752ETHY    C1 2668  17.166  22.175   8.691
 2753ETHY    C1 2669  17.232  22.598   8.998
 2754ETHY    C1 2670  17.219  23.049   9.264
 2755ETHY    C1 2671  17.122  23.518   9.485
 2756ETHY    C1 2672  16.942  23.997   9.656
 2757AUSL   AUS 2673  16.638  21.392   7.666
 2758AUSL   AUS 2674  16.942  21.392   7.339
 2759AUL    AUL 2675  16.790  21.700   7.503
 2760THSLK    S 2676  16.681  21.636   7.776
 2761ETHY    C1 2677  16.825  22.030   7.951
 2762ETHY    C1 2678  16.912  22.524   8.137
 2763ETHY    C1 2679  16.900  23.025   8.294
 2764ETHY    C1 2680  16.799  23.523   8.425
 2765ETHY    C1 2681  16.607  24.004   8.527
 2766ETHY    C1 2682  16.327  24.459   8.600
 2767THSLK    S 2683  16.997  21.623   7.243
 2768ETHY    C1 2684  17.273  21.953   7.096
 2769ETHY    C1 2685  17.523  22.394   6.927
 2770ETHY    C1 2686  17.679  22.871   6.771
 2771ETHY    C1 2687  17.748  23.373   6.635
 2772ETHY    C1 2688  17.724  23.889   6.525
 2773ETHY    C1 2689  17.607  24.409   6.443
 2774AUSL   AUS 2690  16.942  21.392   7.666
 2775AUSL   AUS 2691  17.055  21.135   8.013
 2776AUL    AUL 2692  17.093  21.513   7.993
 2777THSLK    S 2693  17.226  21.243   8.183
 2778ETHY    C1 2694  17.521  21.308   8.523
 2779ETHY    C1 2695  17.839  21.470   8.920
 2780ETHY    C1 2696  18.107  21.719   9.298
 2781ETHY    C1 2697  18.321  22.041   9.653
 2782ETHY    C1 2698  18.473  22.429   9.976
 2783ETHY    C1 2699  18.559  22.879  10.262
 2784THSLK    S 2700  16.995  21.621   7.772
 2785ETHY    C1 2701  17.267  21.949   7.929
 2786ETHY    C1 2702  17.517  22.389   8.100
 2787ETHY    C1 2703  17.675  22.868   8.251
 2788ETHY    C1 2704  17.744  23.370   8.383
 2789ETHY    C1 2705  17.720  23.885   8.494
 2790ETHY    C1 2706  17.601  24.404   8.585
 2791AUSL   AUS 2707  16.790  20.138   7.912
 2792AUSL   AUS 2708  17.206  20.208   7.767
 2793AUL    AUL 2709  17.093  19.924   7.993
 2794THSLK    S 2710  16.743  19.888   7.989
 2795ETHY    C1 2711  16.553  19.492   8.103
 2796ETHY    C1 2712  16.402  19.014   8.289
 2797ETHY    C1 2713  16.339  18.549   8.528
 2798ETHY    C1 2714  16.354  18.107   8.809
 2799ETHY    C1 2715  16.450  17.700   9.132
 2800ETHY    C1 2716  16.625  17.337   9.489
 2801THSLK    S 2717  17.318  20.021   7.907
 2802ETHY    C1 2718  17.397  19.593   8.040
 2803ETHY    C1 2719  17.572  19.123   8.222
 2804ETHY    C1 2720  17.826  18.711   8.428
 2805ETHY    C1 2721  18.146  18.362   8.652
 2806ETHY    C1 2722  18.527  18.087   8.893
 2807ETHY    C1 2723  18.962  17.891   9.147
 2808AUSL   AUS 2724  16.638  20.045   7.666
 2809AUSL   AUS 2725  16.525  20.302   8.013
 2810AUL    AUL 2726  16.487  19.924   7.993
 2811THSLK    S 2727  16.583  19.809   7.745
 2812ETHY    C1 2728  16.308  19.450   7.788
 2813ETHY    C1 2729  16.057  18.985   7.869
 2814ETHY    C1 2730  15.901  18.495   7.981
 2815ETHY    C1 2731  15.832  17.996   8.122
 2816ETHY    C1 2732  15.856  17.496   8.292
 2817ETHY    C1 2733  15.973  17.008   8.489
 2818THSLK    S 2734  16.347  20.136   8.129
 2819ETHY    C1 2735  16.045  19.818   8.248
 2820ETHY    C1 2736  15.726  19.451   8.471
 2821ETHY    C1 2737  15.461  19.114   8.776
 2822ETHY    C1 2738  15.249  18.812   9.147
 2823ETHY    C1 2739  15.096  18.554   9.582
 2824ETHY    C1 2740  15.005  18.347  10.072
 2825AUSL   AUS 2741  16.942  20.045   7.666
 2826AUSL   AUS 2742  16.638  20.045   7.339
 2827AUL    AUL 2743  16.790  19.737   7.503
 2828THSLK    S 2744  16.585  19.806   7.270
 2829ETHY    C1 2745  16.313  19.444   7.236
 2830ETHY    C1 2746  16.063  18.979   7.157
 2831ETHY    C1 2747  15.906  18.490   7.041
 2832ETHY    C1 2748  15.836  17.991   6.896
 2833ETHY    C1 2749  15.860  17.492   6.727
 2834ETHY    C1 2750  15.979  17.001   6.538
 2835THSLK    S 2751  16.896  19.793   7.749
 2836ETHY    C1 2752  16.749  19.367   7.811
 2837ETHY    C1 2753  16.663  18.849   7.906
 2838ETHY    C1 2754  16.675  18.336   8.025
 2839ETHY    C1 2755  16.777  17.841   8.165
 2840ETHY    C1 2756  16.969  17.376   8.325
 2841ETHY    C1 2757  17.247  16.950   8.504
 2842AUSL   AUS 2758  16.790  21.298   7.094
 2843AUSL   AUS 2759  17.206  21.229   7.238
 2844AUL    AUL 2760  17.093  21.513   7.012
 2845THSLK    S 2761  16.837  21.525   6.977
 2846ETHY    C1 2762  17.027  21.804   6.674
 2847ETHY    C1 2763  17.178  22.185   6.330
 2848ETHY    C1 2764  17.242  22.605   6.021
 2849ETHY    C1 2765  17.226  23.055   5.752
 2850ETHY    C1 2766  17.130  23.525   5.532
 2851ETHY    C1 2767  16.955  24.008   5.366
 2852THSLK    S 2768  17.394  21.345   7.089
 2853ETHY    C1 2769  17.781  21.465   6.883
 2854ETHY    C1 2770  18.199  21.688   6.637
 2855ETHY    C1 2771  18.557  21.992   6.400
 2856ETHY    C1 2772  18.852  22.364   6.178
 2857ETHY    C1 2773  19.077  22.799   5.981
 2858ETHY    C1 2774  19.228  23.288   5.811
 2859AUSL   AUS 2775  16.638  21.392   7.339
 2860AUSL   AUS 2776  16.525  21.135   6.992
 2861AUL    AUL 2777  16.487  21.513   7.012
 2862THSLK    S 2778  16.684  21.639   7.239
 2863ETHY    C1 2779  16.831  22.036   7.074
 2864ETHY    C1 2780  16.917  22.530   6.889
 2865ETHY    C1 2781  16.905  23.031   6.727
 2866ETHY    C1 2782  16.803  23.527   6.593
 2867ETHY    C1 2783  16.611  24.008   6.492
 2868ETHY    C1 2784  16.333  24.466   6.427
 2869THSLK    S 2785  16.415  21.267   6.805
 2870ETHY    C1 2786  16.379  21.416   6.377
 2871ETHY    C1 2787  16.269  21.642   5.906
 2872ETHY    C1 2788  16.091  21.917   5.494
 2873ETHY    C1 2789  15.857  22.230   5.145
 2874ETHY    C1 2790  15.571  22.579   4.870
 2875ETHY    C1 2791  15.240  22.957   4.675
 2876AUSL   AUS 2792  16.790  20.138   7.094
 2877AUSL   AUS 2793  16.374  20.208   7.238
 2878AUL    AUL 2794  16.487  19.924   7.012
 2879THSLK    S 2795  16.191  20.060   7.134
 2880ETHY    C1 2796  15.808  19.816   7.124
 2881ETHY    C1 2797  15.390  19.495   7.035
 2882ETHY    C1 2798  15.031  19.149   6.866
 2883ETHY    C1 2799  14.734  18.788   6.631
 2884ETHY    C1 2800  14.509  18.416   6.331
 2885ETHY    C1 2801  14.362  18.039   5.974
 2886THSLK    S 2802  16.748  19.883   7.024
 2887ETHY    C1 2803  16.564  19.482   6.917
 2888ETHY    C1 2804  16.414  19.004   6.732
 2889ETHY    C1 2805  16.348  18.541   6.491
 2890ETHY    C1 2806  16.361  18.101   6.206
 2891ETHY    C1 2807  16.458  17.694   5.885
 2892ETHY    C1 2808  16.638  17.326   5.533
 2893AUSL   AUS 2809  16.942  20.045   7.339
 2894AUSL   AUS 2810  17.055  20.302   6.992
 2895AUL    AUL 2811  17.093  19.924   7.012
 2896THSLK    S 2812  16.899  19.791   7.266
 2897ETHY    C1 2813  16.755  19.363   7.213
 2898ETHY    C1 2814  16.668  18.844   7.120
 2899ETHY    C1 2815  16.680  18.332   6.997
 2900ETHY    C1 2816  16.781  17.838   6.854
 2901ETHY    C1 2817  16.973  17.373   6.695
 2902ETHY    C1 2818  17.253  16.945   6.523
 2903THSLK    S 2819  17.172  20.112   6.859
 2904ETHY    C1 2820  17.216  19.710   6.651
 2905ETHY    C1 2821  17.326  19.279   6.355
 2906ETHY    C1 2822  17.502  18.916   6.017
 2907ETHY    C1 2823  17.733  18.622   5.651
 2908ETHY    C1 2824  18.019  18.405   5.264
 2909ETHY    C1 2825  18.356  18.269   4.865
 2910AUC    AUC 2826  28.637  39.682   7.503
 2911AUC    AUC 2827  28.882  39.682   7.351
 2912AUC    AUC 2828  28.882  39.682   7.654
 2913AUC    AUC 2829  28.392  39.682   7.351
 2914AUC    AUC 2830  28.392  39.682   7.654
 2915AUC    AUC 2831  28.485  39.928   7.503
 2916AUC    AUC 2832  28.789  39.928   7.503
 2917AUC    AUC 2833  28.485  39.437   7.503
 2918AUC    AUC 2834  28.789  39.437   7.503
 2919AUC    AUC 2835  28.637  39.531   7.748
 2920AUC    AUC 2836  28.637  39.834   7.748
 2921AUC    AUC 2837  28.637  39.531   7.257
 2922AUC    AUC 2838  28.637  39.834   7.257
 2923AUC    AUC 2839  29.128  39.682   7.199
 2924AUC    AUC 2840  29.128  39.682   7.503
 2925AUC    AUC 2841  29.128  39.682   7.806
 2926AUC    AUC 2842  28.146  39.682   7.199
 2927AUC    AUC 2843  28.146  39.682   7.503
 2928AUC    AUC 2844  28.146  39.682   7.806
 2929AUC    AUC 2845  28.334  40.173   7.503
 2930AUC    AUC 2846  28.637  40.173   7.503
 2931AUC    AUC 2847  28.940  40.173   7.503
 2932AUC    AUC 2848  28.334  39.192   7.503
 2933AUC    AUC 2849  28.637  39.192   7.503
 2934AUC    AUC 2850  28.940  39.192   7.503
 2935AUC    AUC 2851  28.637  39.379   7.993
 2936AUC    AUC 2852  28.637  39.682   7.993
 2937AUC    AUC 2853  28.637  39.986   7.993
 2938AUC    AUC 2854  28.637  39.379   7.012
 2939AUC    AUC 2855  28.637  39.682   7.012
 2940AUC    AUC 2856  28.637  39.986   7.012
 2941AUC    AUC 2857  28.882  39.531   7.900
 2942AUC    AUC 2858  28.882  39.834   7.900
 2943AUC    AUC 2859  28.882  39.531   7.106
 2944AUC    AUC 2860  28.882  39.834   7.106
 2945AUC    AUC 2861  28.392  39.531   7.900
 2946AUC    AUC 2862  28.392  39.834   7.900
 2947AUC    AUC 2863  28.392  39.531   7.106
 2948AUC    AUC 2864  28.392  39.834   7.106
 2949AUC    AUC 2865  29.034  39.928   7.351
 2950AUC    AUC 2866  29.034  39.928   7.654
 2951AUC    AUC 2867  28.240  39.928   7.351
 2952AUC    AUC 2868  28.240  39.928   7.654
 2953AUC    AUC 2869  29.034  39.437   7.351
 2954AUC    AUC 2870  29.034  39.437   7.654
 2955AUC    AUC 2871  28.240  39.437   7.351
 2956AUC    AUC 2872  28.240  39.437   7.654
 2957AUC    AUC 2873  28.485  40.080   7.748
 2958AUC    AUC 2874  28.789  40.080   7.748
 2959AUC    AUC 2875  28.485  39.285   7.748
 2960AUC    AUC 2876  28.789  39.285   7.748
 2961AUC    AUC 2877  28.485  40.080   7.257
 2962AUC    AUC 2878  28.789  40.080   7.257
 2963AUC    AUC 2879  28.485  39.285   7.257
 2964AUC    AUC 2880  28.789  39.285   7.257
 2965AUSL   AUS 2881  29.046  39.682   8.083
 2966AUSL   AUS 2882  28.902  39.266   8.013
 2967AUL    AUL 2883  29.128  39.379   8.297
 2968THSLK    S 2884  29.012  39.079   8.153
 2969ETHY    C1 2885  29.048  38.680   8.368
 2970ETHY    C1 2886  29.158  38.250   8.665
 2971ETHY    C1 2887  29.336  37.886   9.000
 2972ETHY    C1 2888  29.570  37.590   9.364
 2973ETHY    C1 2889  29.856  37.373   9.752
 2974ETHY    C1 2890  30.187  37.240  10.156
 2975THSLK    S 2891  29.139  39.630   8.324
 2976ETHY    C1 2892  29.343  39.410   8.665
 2977ETHY    C1 2893  29.607  39.233   9.094
 2978ETHY    C1 2894  29.883  39.157   9.535
 2979ETHY    C1 2895  30.160  39.174   9.980
 2980ETHY    C1 2896  30.430  39.287  10.419
 2981ETHY    C1 2897  30.689  39.496  10.845
 2982AUSL   AUS 2898  28.801  39.531   8.176
 2983AUSL   AUS 2899  28.473  39.834   8.176
 2984AUL    AUL 2900  28.637  39.682   8.484
 2985THSLK    S 2901  28.876  39.476   8.413
 2986ETHY    C1 2902  28.940  39.196   8.765
 2987ETHY    C1 2903  29.043  38.941   9.223
 2988ETHY    C1 2904  29.170  38.782   9.708
 2989ETHY    C1 2905  29.312  38.713  10.208
 2990ETHY    C1 2906  29.466  38.741  10.713
 2991ETHY    C1 2907  29.626  38.865  11.212
 2992THSLK    S 2908  28.388  39.788   8.428
 2993ETHY    C1 2909  28.314  39.638   8.850
 2994ETHY    C1 2910  28.209  39.550   9.367
 2995ETHY    C1 2911  28.087  39.562   9.878
 2996ETHY    C1 2912  27.949  39.663  10.373
 2997ETHY    C1 2913  27.794  39.856  10.840
 2998ETHY    C1 2914  27.625  40.137  11.268
 2999AUSL   AUS 2915  28.801  39.834   8.176
 3000AUSL   AUS 2916  29.147  39.947   7.919
 3001AUL    AUL 2917  29.128  39.986   8.297
 3002THSLK    S 2918  28.886  39.890   8.410
 3003ETHY    C1 2919  28.960  40.171   8.759
 3004ETHY    C1 2920  29.065  40.426   9.217
 3005ETHY    C1 2921  29.187  40.585   9.703
 3006ETHY    C1 2922  29.326  40.654  10.204
 3007ETHY    C1 2923  29.480  40.627  10.708
 3008ETHY    C1 2924  29.649  40.503  11.206
 3009THSLK    S 2925  29.319  40.045   8.080
 3010ETHY    C1 2926  29.682  40.016   8.350
 3011ETHY    C1 2927  30.104  40.072   8.673
 3012ETHY    C1 2928  30.496  40.226   8.989
 3013ETHY    C1 2929  30.850  40.464   9.293
 3014ETHY    C1 2930  31.157  40.785   9.580
 3015ETHY    C1 2931  31.408  41.182   9.844
 3016AUSL   AUS 2932  29.046  39.682   6.923
 3017AUSL   AUS 2933  28.902  40.099   6.992
 3018AUL    AUL 2934  29.128  39.986   6.708
 3019THSLK    S 2935  29.148  39.630   6.687
 3020ETHY    C1 2936  29.361  39.410   6.351
 3021ETHY    C1 2937  29.626  39.233   5.923
 3022ETHY    C1 2938  29.898  39.157   5.479
 3023ETHY    C1 2939  30.172  39.174   5.033
 3024ETHY    C1 2940  30.443  39.287   4.594
 3025ETHY    C1 2941  30.708  39.496   4.173
 3026THSLK    S 2942  29.080  40.210   6.829
 3027ETHY    C1 2943  29.382  40.278   6.497
 3028ETHY    C1 2944  29.701  40.441   6.100
 3029ETHY    C1 2945  29.966  40.688   5.719
 3030ETHY    C1 2946  30.178  41.008   5.362
 3031ETHY    C1 2947  30.331  41.398   5.039
 3032ETHY    C1 2948  30.422  41.850   4.759
 3033AUSL   AUS 2949  28.801  39.531   6.829
 3034AUSL   AUS 2950  29.147  39.418   7.086
 3035AUL    AUL 2951  29.128  39.379   6.708
 3036THSLK    S 2952  29.280  39.226   6.949
 3037ETHY    C1 2953  29.463  38.859   6.752
 3038ETHY    C1 2954  29.735  38.487   6.483
 3039ETHY    C1 2955  30.060  38.198   6.186
 3040ETHY    C1 2956  30.426  37.991   5.874
 3041ETHY    C1 2957  30.830  37.872   5.555
 3042ETHY    C1 2958  31.263  37.847   5.235
 3043THSLK    S 2959  28.886  39.475   6.596
 3044ETHY    C1 2960  28.960  39.194   6.246
 3045ETHY    C1 2961  29.065  38.938   5.788
 3046ETHY    C1 2962  29.187  38.780   5.302
 3047ETHY    C1 2963  29.326  38.711   4.801
 3048ETHY    C1 2964  29.480  38.738   4.297
 3049ETHY    C1 2965  29.649  38.862   3.799
 3050AUSL   AUS 2966  28.801  39.834   6.829
 3051AUSL   AUS 2967  28.473  39.531   6.829
 3052AUL    AUL 2968  28.637  39.682   6.521
 3053THSLK    S 2969  28.381  39.475   6.597
 3054ETHY    C1 2970  28.246  39.197   6.264
 3055ETHY    C1 2971  28.085  38.944   5.822
 3056ETHY    C1 2972  27.933  38.787   5.343
 3057ETHY    C1 2973  27.797  38.718   4.842
 3058ETHY    C1 2974  27.680  38.744   4.328
 3059ETHY    C1 2975  27.587  38.863   3.810
 3060THSLK    S 2976  28.903  39.788   6.583
 3061ETHY    C1 2977  29.049  39.638   6.179
 3062ETHY    C1 2978  29.211  39.547   5.678
 3063ETHY    C1 2979  29.358  39.557   5.173
 3064ETHY    C1 2980  29.491  39.658   4.677
 3065ETHY    C1 2981  29.608  39.853   4.200
 3066ETHY    C1 2982  29.709  40.139   3.754
 3067AUSL   AUS 2983  28.228  39.682   8.083
 3068AUSL   AUS 2984  28.372  40.099   8.013
 3069AUL    AUL 2985  28.146  39.986   8.297
 3070THSLK    S 2986  28.126  39.630   8.319
 3071ETHY    C1 2987  27.914  39.410   8.654
 3072ETHY    C1 2988  27.648  39.233   9.082
 3073ETHY    C1 2989  27.376  39.157   9.526
 3074ETHY    C1 2990  27.102  39.174   9.973
 3075ETHY    C1 2991  26.831  39.287  10.411
 3076ETHY    C1 2992  26.566  39.496  10.832
 3077THSLK    S 2993  28.255  40.223   8.202
 3078ETHY    C1 2994  28.212  40.366   8.632
 3079ETHY    C1 2995  28.101  40.591   9.104
 3080ETHY    C1 2996  27.925  40.868   9.515
 3081ETHY    C1 2997  27.694  41.184   9.863
 3082ETHY    C1 2998  27.408  41.532  10.138
 3083ETHY    C1 2999  27.071  41.905  10.334
 3084AUSL   AUS 3000  28.473  39.531   8.176
 3085AUSL   AUS 3001  28.127  39.418   7.919
 3086AUL    AUL 3002  28.146  39.379   8.297
 3087THSLK    S 3003  27.950  39.255   8.026
 3088ETHY    C1 3004  27.579  38.998   8.082
 3089ETHY    C1 3005  27.157  38.710   8.237
 3090ETHY    C1 3006  26.767  38.455   8.482
 3091ETHY    C1 3007  26.415  38.238   8.803
 3092ETHY    C1 3008  26.109  38.067   9.198
 3093ETHY    C1 3009  25.852  37.946   9.657
 3094THSLK    S 3010  28.371  39.477   8.406
 3095ETHY    C1 3011  28.225  39.201   8.736
 3096ETHY    C1 3012  28.063  38.949   9.178
 3097ETHY    C1 3013  27.916  38.791   9.658
 3098ETHY    C1 3014  27.783  38.721  10.160
 3099ETHY    C1 3015  27.666  38.747  10.674
 3100ETHY    C1 3016  27.565  38.868  11.190
 3101AUSL   AUS 3017  28.228  39.682   6.923
 3102AUSL   AUS 3018  28.372  39.266   6.992
 3103AUL    AUL 3019  28.146  39.379   6.708
 3104THSLK    S 3020  28.135  39.630   6.681
 3105ETHY    C1 3021  27.931  39.410   6.341
 3106ETHY    C1 3022  27.667  39.233   5.911
 3107ETHY    C1 3023  27.391  39.157   5.470
 3108ETHY    C1 3024  27.114  39.174   5.025
 3109ETHY    C1 3025  26.844  39.287   4.586
 3110ETHY    C1 3026  26.585  39.496   4.161
 3111THSLK    S 3027  28.201  39.093   6.878
 3112ETHY    C1 3028  27.906  38.767   6.760
 3113ETHY    C1 3029  27.588  38.400   6.538
 3114ETHY    C1 3030  27.320  38.065   6.233
 3115ETHY    C1 3031  27.106  37.765   5.861
 3116ETHY    C1 3032  26.954  37.507   5.426
 3117ETHY    C1 3033  26.868  37.295   4.937
 3118AUSL   AUS 3034  28.473  39.834   6.829
 3119AUSL   AUS 3035  28.127  39.947   7.086
 3120AUL    AUL 3036  28.146  39.986   6.708
 3121THSLK    S 3037  28.000  40.074   6.895
 3122ETHY    C1 3038  27.823  40.155   6.484
 3123ETHY    C1 3039  27.552  40.295   6.046
 3124ETHY    C1 3040  27.225  40.483   5.679
 3125ETHY    C1 3041  26.856  40.712   5.385
 3126ETHY    C1 3042  26.454  40.979   5.173
 3127ETHY    C1 3043  26.025  41.281   5.047
 3128THSLK    S 3044  28.398  39.790   6.576
 3129ETHY    C1 3045  28.334  39.643   6.150
 3130ETHY    C1 3046  28.231  39.554   5.634
 3131ETHY    C1 3047  28.104  39.565   5.123
 3132ETHY    C1 3048  27.962  39.666   4.629
 3133ETHY    C1 3049  27.809  39.859   4.162
 3134ETHY    C1 3050  27.648  40.142   3.732
 3135AUSL   AUS 3051  29.217  40.091   7.503
 3136AUSL   AUS 3052  29.147  39.947   7.086
 3137AUL    AUL 3053  29.431  40.173   7.199
 3138THSLK    S 3054  29.325  40.046   6.934
 3139ETHY    C1 3055  29.695  40.019   6.671
 3140ETHY    C1 3056  30.117  40.075   6.349
 3141ETHY    C1 3057  30.507  40.229   6.030
 3142ETHY    C1 3058  30.859  40.466   5.724
 3143ETHY    C1 3059  31.166  40.787   5.438
 3144ETHY    C1 3060  31.422  41.186   5.179
 3145THSLK    S 3061  29.483  40.144   7.508
 3146ETHY    C1 3062  29.937  40.166   7.513
 3147ETHY    C1 3063  30.459  40.280   7.514
 3148ETHY    C1 3064  30.942  40.489   7.511
 3149ETHY    C1 3065  31.378  40.779   7.510
 3150ETHY    C1 3066  31.757  41.146   7.510
 3151ETHY    C1 3067  32.071  41.586   7.514
 3152AUSL   AUS 3068  29.311  39.846   7.351
 3153AUSL   AUS 3069  29.311  39.519   7.654
 3154AUL    AUL 3070  29.619  39.682   7.503
 3155THSLK    S 3071  29.567  39.885   7.350
 3156ETHY    C1 3072  30.003  39.777   7.286
 3157ETHY    C1 3073  30.529  39.739   7.201
 3158ETHY    C1 3074  31.044  39.803   7.113
 3159ETHY    C1 3075  31.538  39.957   7.026
 3160ETHY    C1 3076  31.998  40.202   6.945
 3161ETHY    C1 3077  32.417  40.534   6.873
 3162THSLK    S 3078  29.538  39.379   7.663
 3163ETHY    C1 3079  29.857  39.063   7.728
 3164ETHY    C1 3080  30.290  38.759   7.807
 3165ETHY    C1 3081  30.765  38.549   7.887
 3166ETHY    C1 3082  31.268  38.428   7.971
 3167ETHY    C1 3083  31.788  38.402   8.058
 3168ETHY    C1 3084  32.316  38.472   8.147
 3169AUSL   AUS 3085  29.311  39.846   7.654
 3170AUSL   AUS 3086  29.053  40.193   7.767
 3171AUL    AUL 3087  29.431  40.173   7.806
 3172THSLK    S 3088  29.236  40.307   7.926
 3173ETHY    C1 3089  29.619  40.425   8.140
 3174ETHY    C1 3090  30.037  40.648   8.388
 3175ETHY    C1 3091  30.396  40.953   8.622
 3176ETHY    C1 3092  30.693  41.326   8.840
 3177ETHY    C1 3093  30.918  41.760   9.038
 3178ETHY    C1 3094  31.065  42.248   9.215
 3179THSLK    S 3095  29.565  39.885   7.665
 3180ETHY    C1 3096  30.000  39.777   7.740
 3181ETHY    C1 3097  30.526  39.739   7.826
 3182ETHY    C1 3098  31.041  39.802   7.910
 3183ETHY    C1 3099  31.535  39.956   7.993
 3184ETHY    C1 3100  31.996  40.201   8.075
 3185ETHY    C1 3101  32.413  40.533   8.155
 3186AUSL   AUS 3102  28.057  40.091   7.503
 3187AUSL   AUS 3103  28.127  39.947   7.919
 3188AUL    AUL 3104  27.843  40.173   7.806
 3189THSLK    S 3105  27.994  40.066   8.109
 3190ETHY    C1 3106  27.811  40.138   8.519
 3191ETHY    C1 3107  27.539  40.278   8.957
 3192ETHY    C1 3108  27.214  40.469   9.324
 3193ETHY    C1 3109  26.848  40.700   9.619
 3194ETHY    C1 3110  26.445  40.967   9.831
 3195ETHY    C1 3111  26.011  41.263   9.956
 3196THSLK    S 3112  27.846  40.232   7.508
 3197ETHY    C1 3113  27.624  40.629   7.513
 3198ETHY    C1 3114  27.288  41.044   7.514
 3199ETHY    C1 3115  26.885  41.383   7.511
 3200ETHY    C1 3116  26.431  41.644   7.510
 3201ETHY    C1 3117  25.932  41.818   7.510
 3202ETHY    C1 3118  25.399  41.902   7.514
 3203AUSL   AUS 3119  27.963  39.846   7.351
 3204AUSL   AUS 3120  28.221  40.193   7.238
 3205AUL    AUL 3121  27.843  40.173   7.199
 3206THSLK    S 3122  27.736  39.961   7.303
 3207ETHY    C1 3123  27.417  40.161   7.049
 3208ETHY    C1 3124  26.984  40.367   6.813
 3209ETHY    C1 3125  26.509  40.533   6.661
 3210ETHY    C1 3126  26.006  40.662   6.590
 3211ETHY    C1 3127  25.486  40.752   6.605
 3212ETHY    C1 3128  24.958  40.800   6.708
 3213THSLK    S 3129  28.109  40.356   7.060
 3214ETHY    C1 3130  28.030  40.666   6.737
 3215ETHY    C1 3131  27.855  41.040   6.397
 3216ETHY    C1 3132  27.601  41.408   6.120
 3217ETHY    C1 3133  27.281  41.765   5.909
 3218ETHY    C1 3134  26.900  42.103   5.770
 3219ETHY    C1 3135  26.465  42.417   5.709
 3220AUSL   AUS 3136  27.963  39.846   7.654
 3221AUSL   AUS 3137  27.963  39.519   7.351
 3222AUL    AUL 3138  27.655  39.682   7.503
 3223THSLK    S 3139  27.709  39.446   7.394
 3224ETHY    C1 3140  27.274  39.428   7.524
 3225ETHY    C1 3141  26.748  39.368   7.597
 3226ETHY    C1 3142  26.233  39.264   7.578
 3227ETHY    C1 3143  25.739  39.121   7.477
 3228ETHY    C1 3144  25.279  38.938   7.294
 3229ETHY    C1 3145  24.861  38.718   7.034
 3230THSLK    S 3146  27.735  39.952   7.707
 3231ETHY    C1 3147  27.414  40.143   7.966
 3232ETHY    C1 3148  26.981  40.347   8.202
 3233ETHY    C1 3149  26.506  40.518   8.352
 3234ETHY    C1 3150  26.004  40.650   8.422
 3235ETHY    C1 3151  25.484  40.738   8.407
 3236ETHY    C1 3152  24.955  40.779   8.308
 3237AUSL   AUS 3153  29.217  39.273   7.503
 3238AUSL   AUS 3154  29.147  39.418   7.919
 3239AUL    AUL 3155  29.431  39.192   7.806
 3240THSLK    S 3156  29.428  39.132   7.508
 3241ETHY    C1 3157  29.650  38.736   7.513
 3242ETHY    C1 3158  29.986  38.321   7.514
 3243ETHY    C1 3159  30.389  37.982   7.511
 3244ETHY    C1 3160  30.843  37.721   7.510
 3245ETHY    C1 3161  31.342  37.547   7.510
 3246ETHY    C1 3162  31.875  37.463   7.514
 3247THSLK    S 3163  29.274  39.227   8.064
 3248ETHY    C1 3164  29.451  38.862   8.270
 3249ETHY    C1 3165  29.722  38.490   8.540
 3250ETHY    C1 3166  30.049  38.201   8.834
 3251ETHY    C1 3167  30.418  37.993   9.142
 3252ETHY    C1 3168  30.820  37.875   9.462
 3253ETHY    C1 3169  31.249  37.850   9.789
 3254AUSL   AUS 3170  29.311  39.519   7.351
 3255AUSL   AUS 3171  29.053  39.172   7.238
 3256AUL    AUL 3172  29.431  39.192   7.199
 3257THSLK    S 3173  29.539  39.379   7.353
 3258ETHY    C1 3174  29.860  39.062   7.298
 3259ETHY    C1 3175  30.293  38.759   7.221
 3260ETHY    C1 3176  30.768  38.549   7.136
 3261ETHY    C1 3177  31.270  38.428   7.048
 3262ETHY    C1 3178  31.790  38.401   6.963
 3263ETHY    C1 3179  32.319  38.472   6.881
 3264THSLK    S 3180  29.169  38.983   7.108
 3265ETHY    C1 3181  29.253  38.554   6.984
 3266ETHY    C1 3182  29.428  38.082   6.803
 3267ETHY    C1 3183  29.681  37.671   6.593
 3268ETHY    C1 3184  29.999  37.323   6.366
 3269ETHY    C1 3185  30.381  37.048   6.126
 3270ETHY    C1 3186  30.819  36.851   5.880
 3271AUSL   AUS 3187  28.057  39.273   7.503
 3272AUSL   AUS 3188  28.127  39.418   7.086
 3273AUL    AUL 3189  27.843  39.192   7.199
 3274THSLK    S 3190  27.956  39.247   6.978
 3275ETHY    C1 3191  27.592  38.982   6.921
 3276ETHY    C1 3192  27.170  38.692   6.766
 3277ETHY    C1 3193  26.778  38.440   6.521
 3278ETHY    C1 3194  26.424  38.227   6.200
 3279ETHY    C1 3195  26.117  38.054   5.806
 3280ETHY    C1 3196  25.866  37.927   5.346
 3281THSLK    S 3197  27.791  39.221   7.508
 3282ETHY    C1 3198  27.337  39.199   7.513
 3283ETHY    C1 3199  26.815  39.085   7.514
 3284ETHY    C1 3200  26.333  38.876   7.511
 3285ETHY    C1 3201  25.896  38.586   7.510
 3286ETHY    C1 3202  25.517  38.219   7.510
 3287ETHY    C1 3203  25.204  37.779   7.514
 3288AUSL   AUS 3204  27.963  39.519   7.654
 3289AUSL   AUS 3205  28.221  39.172   7.767
 3290AUL    AUL 3206  27.843  39.192   7.806
 3291THSLK    S 3207  28.033  39.032   7.878
 3292ETHY    C1 3208  27.646  38.795   7.893
 3293ETHY    C1 3209  27.228  38.475   7.982
 3294ETHY    C1 3210  26.870  38.126   8.149
 3295ETHY    C1 3211  26.575  37.762   8.382
 3296ETHY    C1 3212  26.350  37.391   8.683
 3297ETHY    C1 3213  26.199  37.020   9.045
 3298THSLK    S 3214  27.707  39.456   7.616
 3299ETHY    C1 3215  27.271  39.446   7.491
 3300ETHY    C1 3216  26.745  39.387   7.419
 3301ETHY    C1 3217  26.230  39.280   7.436
 3302ETHY    C1 3218  25.736  39.134   7.535
 3303ETHY    C1 3219  25.276  38.952   7.718
 3304ETHY    C1 3220  24.857  38.739   7.983
 3305AUSL   AUS 3221  28.637  40.262   7.912
 3306AUSL   AUS 3222  28.221  40.193   7.767
 3307AUL    AUL 3223  28.334  40.477   7.993
 3308THSLK    S 3224  28.105  40.349   7.952
 3309ETHY    C1 3225  28.021  40.651   8.280
 3310ETHY    C1 3226  27.846  41.024   8.621
 3311ETHY    C1 3227  27.593  41.395   8.895
 3312ETHY    C1 3228  27.275  41.754   9.105
 3313ETHY    C1 3229  26.893  42.092   9.244
 3314ETHY    C1 3230  26.455  42.400   9.309
 3315THSLK    S 3231  28.679  40.484   8.035
 3316ETHY    C1 3232  28.863  40.759   8.347
 3317ETHY    C1 3233  29.013  41.139   8.691
 3318ETHY    C1 3234  29.079  41.562   8.998
 3319ETHY    C1 3235  29.066  42.013   9.264
 3320ETHY    C1 3236  28.969  42.482   9.485
 3321ETHY    C1 3237  28.789  42.961   9.656
 3322AUSL   AUS 3238  28.485  40.356   7.666
 3323AUSL   AUS 3239  28.789  40.356   7.339
 3324AUL    AUL 3240  28.637  40.664   7.503
 3325THSLK    S 3241  28.528  40.600   7.776
 3326ETHY    C1 3242  28.672  40.994   7.951
 3327ETHY    C1 3243  28.759  41.488   8.137
 3328ETHY    C1 3244  28.747  41.989   8.294
 3329ETHY    C1 3245  28.646  42.487   8.425
 3330ETHY    C1 3246  28.454  42.968   8.527
 3331ETHY    C1 3247  28.174  43.423   8.600
 3332THSLK    S 3248  28.844  40.587   7.243
 3333ETHY    C1 3249  29.120  40.917   7.096
 3334ETHY    C1 3250  29.370  41.358   6.927
 3335ETHY    C1 3251  29.526  41.835   6.771
 3336ETHY    C1 3252  29.595  42.337   6.635
 3337ETHY    C1 3253  29.571  42.853   6.525
 3338ETHY    C1 3254  29.454  43.373   6.443
 3339AUSL   AUS 3255  28.789  40.356   7.666
 3340AUSL   AUS 3256  28.902  40.099   8.013
 3341AUL    AUL 3257  28.940  40.477   7.993
 3342THSLK    S 3258  29.073  40.207   8.183
 3343ETHY    C1 3259  29.368  40.272   8.523
 3344ETHY    C1 3260  29.686  40.434   8.920
 3345ETHY    C1 3261  29.954  40.683   9.298
 3346ETHY    C1 3262  30.168  41.005   9.653
 3347ETHY    C1 3263  30.320  41.393   9.976
 3348ETHY    C1 3264  30.406  41.843  10.262
 3349THSLK    S 3265  28.842  40.585   7.772
 3350ETHY    C1 3266  29.114  40.913   7.929
 3351ETHY    C1 3267  29.364  41.353   8.100
 3352ETHY    C1 3268  29.522  41.832   8.251
 3353ETHY    C1 3269  29.591  42.334   8.383
 3354ETHY    C1 3270  29.567  42.849   8.494
 3355ETHY    C1 3271  29.448  43.368   8.585
 3356AUSL   AUS 3272  28.637  39.102   7.912
 3357AUSL   AUS 3273  29.053  39.172   7.767
 3358AUL    AUL 3274  28.940  38.888   7.993
 3359THSLK    S 3275  28.590  38.852   7.989
 3360ETHY    C1 3276  28.400  38.456   8.103
 3361ETHY    C1 3277  28.249  37.978   8.289
 3362ETHY    C1 3278  28.186  37.513   8.528
 3363ETHY    C1 3279  28.201  37.071   8.809
 3364ETHY    C1 3280  28.297  36.664   9.132
 3365ETHY    C1 3281  28.472  36.301   9.489
 3366THSLK    S 3282  29.165  38.985   7.907
 3367ETHY    C1 3283  29.244  38.557   8.040
 3368ETHY    C1 3284  29.419  38.087   8.222
 3369ETHY    C1 3285  29.673  37.675   8.428
 3370ETHY    C1 3286  29.993  37.326   8.652
 3371ETHY    C1 3287  30.374  37.051   8.893
 3372ETHY    C1 3288  30.809  36.855   9.147
 3373AUSL   AUS 3289  28.485  39.009   7.666
 3374AUSL   AUS 3290  28.372  39.266   8.013
 3375AUL    AUL 3291  28.334  38.888   7.993
 3376THSLK    S 3292  28.430  38.773   7.745
 3377ETHY    C1 3293  28.155  38.414   7.788
 3378ETHY    C1 3294  27.904  37.949   7.869
 3379ETHY    C1 3295  27.748  37.459   7.981
 3380ETHY    C1 3296  27.679  36.960   8.122
 3381ETHY    C1 3297  27.703  36.460   8.292
 3382ETHY    C1 3298  27.820  35.972   8.489
 3383THSLK    S 3299  28.194  39.100   8.129
 3384ETHY    C1 3300  27.892  38.782   8.248
 3385ETHY    C1 3301  27.573  38.415   8.471
 3386ETHY    C1 3302  27.308  38.078   8.776
 3387ETHY    C1 3303  27.096  37.776   9.147
 3388ETHY    C1 3304  26.943  37.518   9.582
 3389ETHY    C1 3305  26.852  37.311  10.072
 3390AUSL   AUS 3306  28.789  39.009   7.666
 3391AUSL   AUS 3307  28.485  39.009   7.339
 3392AUL    AUL 3308  28.637  38.701   7.503
 3393THSLK    S 3309  28.432  38.770   7.270
 3394ETHY    C1 3310  28.160  38.408   7.236
 3395ETHY    C1 3311  27.910  37.943   7.157
 3396ETHY    C1 3312  27.753  37.454   7.041
 3397ETHY    C1 3313  27.683  36.955   6.896
 3398ETHY    C1 3314  27.707  36.456   6.727
 3399ETHY    C1 3315  27.826  35.965   6.538
 3400THSLK    S 3316  28.743  38.757   7.749
 3401ETHY    C1 3317  28.596  38.331   7.811
 3402ETHY    C1 3318  28.510  37.813   7.906
 3403ETHY    C1 3319  28.522  37.300   8.025
 3404ETHY    C1 3320  28.624  36.805   8.165
 3405ETHY    C1 3321  28.816  36.340   8.325
 3406ETHY    C1 3322  29.094  35.914   8.504
 3407AUSL   AUS 3323  28.637  40.262   7.094
 3408AUSL   AUS 3324  29.053  40.193   7.238
 3409AUL    AUL 3325  28.940  40.477   7.012
 3410THSLK    S 3326  28.684  40.489   6.977
 3411ETHY    C1 3327  28.874  40.768   6.674
 3412ETHY    C1 3328  29.025  41.149   6.330
 3413ETHY    C1 3329  29.089  41.569   6.021
 3414ETHY    C1 3330  29.073  42.019   5.752
 3415ETHY    C1 3331  28.977  42.489   5.532
 3416ETHY    C1 3332  28.802  42.972   5.366
 3417THSLK    S 3333  29.241  40.309   7.089
 3418ETHY    C1 3334  29.628  40.429   6.883
 3419ETHY    C1 3335  30.046  40.652   6.637
 3420ETHY    C1 3336  30.404  40.956   6.400
 3421ETHY    C1 3337  30.699  41.328   6.178
 3422ETHY    C1 3338  30.924  41.763   5.981
 3423ETHY    C1 3339  31.075  42.252   5.811
 3424AUSL   AUS 3340  28.485  40.356   7.339
 3425AUSL   AUS 3341  28.372  40.099   6.992
 3426AUL    AUL 3342  28.334  40.477   7.012
 3427THSLK    S 3343  28.531  40.603   7.239
 3428ETHY    C1 3344  28.678  41.000   7.074
 3429ETHY    C1 3345  28.764  41.494   6.889
 3430ETHY    C1 3346  28.752  41.995   6.727
 3431ETHY    C1 3347  28.650  42.491   6.593
 3432ETHY    C1 3348  28.458  42.972   6.492
 3433ETHY    C1 3349  28.180  43.430   6.427
 3434THSLK    S 3350  28.262  40.231   6.805
 3435ETHY    C1 3351  28.226  40.380   6.377
 3436ETHY    C1 3352  28.116  40.606   5.906
 3437ETHY    C1 3353  27.938  40.881   5.494
 3438ETHY    C1 3354  27.704  41.194   5.145
 3439ETHY    C1 3355  27.418  41.543   4.870
 3440ETHY    C1 3356  27.087  41.921   4.675
 3441AUSL   AUS 3357  28.637  39.102   7.094
 3442AUSL   AUS 3358  28.221  39.172   7.238
 3443AUL    AUL 3359  28.334  38.888   7.012
 3444THSLK    S 3360  28.038  39.024   7.134
 3445ETHY    C1 3361  27.655  38.780   7.124
 3446ETHY    C1 3362  27.237  38.459   7.035
 3447ETHY    C1 3363  26.878  38.113   6.866
 3448ETHY    C1 3364  26.581  37.752   6.631
 3449ETHY    C1 3365  26.356  37.380   6.331
 3450ETHY    C1 3366  26.209  37.003   5.974
 3451THSLK    S 3367  28.595  38.847   7.024
 3452ETHY    C1 3368  28.411  38.446   6.917
 3453ETHY    C1 3369  28.261  37.968   6.732
 3454ETHY    C1 3370  28.195  37.505   6.491
 3455ETHY    C1 3371  28.208  37.065   6.206
 3456ETHY    C1 3372  28.305  36.658   5.885
 3457ETHY    C1 3373  28.485  36.290   5.533
 3458AUSL   AUS 3374  28.789  39.009   7.339
 3459AUSL   AUS 3375  28.902  39.266   6.992
 3460AUL    AUL 3376  28.940  38.888   7.012
 3461THSLK    S 3377  28.746  38.755   7.266
 3462ETHY    C1 3378  28.602  38.327   7.213
 3463ETHY    C1 3379  28.515  37.808   7.120
 3464ETHY    C1 3380  28.527  37.296   6.997
 3465ETHY    C1 3381  28.628  36.802   6.854
 3466ETHY    C1 3382  28.820  36.337   6.695
 3467ETHY    C1 3383  29.100  35.909   6.523
 3468THSLK    S 3384  29.019  39.076   6.859
 3469ETHY    C1 3385  29.063  38.674   6.651
 3470ETHY    C1 3386  29.173  38.243   6.355
 3471ETHY    C1 3387  29.349  37.880   6.017
 3472ETHY    C1 3388  29.580  37.586   5.651
 3473ETHY    C1 3389  29.866  37.369   5.264
 3474ETHY    C1 3390  30.203  37.233   4.865
 3475AUC    AUC 3391   7.387   1.074   7.503
 3476AUC    AUC 3392   7.632   1.074   7.351
 3477AUC    AUC 3393   7.632   1.074   7.654
 3478AUC    AUC 3394   7.142   1.074   7.351
 3479AUC    AUC 3395   7.142   1.074   7.654
 3480AUC    AUC 3396   7.235   1.320   7.503
 3481AUC    AUC 3397   7.539   1.320   7.503
 3482AUC    AUC 3398   7.235   0.829   7.503
 3483AUC    AUC 3399   7.539   0.829   7.503
 3484AUC    AUC 3400   7.387   0.923   7.748
 3485AUC    AUC 3401   7.387   1.226   7.748
 3486AUC    AUC 3402   7.387   0.923   7.257
 3487AUC    AUC 3403   7.387   1.226   7.257
 3488AUC    AUC 3404   7.878   1.074   7.199
 3489AUC    AUC 3405   7.878   1.074   7.503
 3490AUC    AUC 3406   7.878   1.074   7.806
 3491AUC    AUC 3407   6.896   1.074   7.199
 3492AUC    AUC 3408   6.896   1.074   7.503
 3493AUC    AUC 3409   6.896   1.074   7.806
 3494AUC    AUC 3410   7.084   1.565   7.503
 3495AUC    AUC 3411   7.387   1.565   7.503
 3496AUC    AUC 3412   7.690   1.565   7.503
 3497AUC    AUC 3413   7.084   0.584   7.503
 3498AUC    AUC 3414   7.387   0.584   7.503
 3499AUC    AUC 3415   7.690   0.584   7.503
 3500AUC    AUC 3416   7.387   0.771   7.993
 3501AUC    AUC 3417   7.387   1.074   7.993
 3502AUC    AUC 3418   7.387   1.378   7.993
 3503AUC    AUC 3419   7.387   0.771   7.012
 3504AUC    AUC 3420   7.387   1.074   7.012
 3505AUC    AUC 3421   7.387   1.378   7.012
 3506AUC    AUC 3422   7.632   0.923   7.900
 3507AUC    AUC 3423   7.632   1.226   7.900
 3508AUC    AUC 3424   7.632   0.923   7.106
 3509AUC    AUC 3425   7.632   1.226   7.106
 3510AUC    AUC 3426   7.142   0.923   7.900
 3511AUC    AUC 3427   7.142   1.226   7.900
 3512AUC    AUC 3428   7.142   0.923   7.106
 3513AUC    AUC 3429   7.142   1.226   7.106
 3514AUC    AUC 3430   7.784   1.320   7.351
 3515AUC    AUC 3431   7.784   1.320   7.654
 3516AUC    AUC 3432   6.990   1.320   7.351
 3517AUC    AUC 3433   6.990   1.320   7.654
 3518AUC    AUC 3434   7.784   0.829   7.351
 3519AUC    AUC 3435   7.784   0.829   7.654
 3520AUC    AUC 3436   6.990   0.829   7.351
 3521AUC    AUC 3437   6.990   0.829   7.654
 3522AUC    AUC 3438   7.235   1.472   7.748
 3523AUC    AUC 3439   7.539   1.472   7.748
 3524AUC    AUC 3440   7.235   0.677   7.748
 3525AUC    AUC 3441   7.539   0.677   7.748
 3526AUC    AUC 3442   7.235   1.472   7.257
 3527AUC    AUC 3443   7.539   1.472   7.257
 3528AUC    AUC 3444   7.235   0.677   7.257
 3529AUC    AUC 3445   7.539   0.677   7.257
 3530AUSL   AUS 3446   7.796   1.074   8.083
 3531AUSL   AUS 3447   7.652   0.658   8.013
 3532AUL    AUL 3448   7.878   0.771   8.297
 3533THSLK    S 3449   7.762   0.471   8.153
 3534ETHY    C1 3450   7.798   0.072   8.368
 3535ETHY    C1 3451   7.908  -0.358   8.665
 3536ETHY    C1 3452   8.086  -0.722   9.000
 3537ETHY    C1 3453   8.320  -1.018   9.364
 3538ETHY    C1 3454   8.606  -1.235   9.752
 3539ETHY    C1 3455   8.937  -1.368  10.156
 3540THSLK    S 3456   7.889   1.022   8.324
 3541ETHY    C1 3457   8.093   0.802   8.665
 3542ETHY    C1 3458   8.357   0.625   9.094
 3543ETHY    C1 3459   8.633   0.549   9.535
 3544ETHY    C1 3460   8.910   0.566   9.980
 3545ETHY    C1 3461   9.180   0.679  10.419
 3546ETHY    C1 3462   9.439   0.888  10.845
 3547AUSL   AUS 3463   7.551   0.923   8.176
 3548AUSL   AUS 3464   7.223   1.226   8.176
 3549AUL    AUL 3465   7.387   1.074   8.484
 3550THSLK    S 3466   7.626   0.868   8.413
 3551ETHY    C1 3467   7.690   0.588   8.765
 3552ETHY    C1 3468   7.793   0.333   9.223
 3553ETHY    C1 3469   7.920   0.174   9.708
 3554ETHY    C1 3470   8.062   0.105  10.208
 3555ETHY    C1 3471   8.216   0.133  10.713
 3556ETHY    C1 3472   8.376   0.257  11.212
 3557THSLK    S 3473   7.138   1.180   8.428
 3558ETHY    C1 3474   7.064   1.030   8.850
 3559ETHY    C1 3475   6.959   0.942   9.367
 3560ETHY    C1 3476   6.837   0.954   9.878
 3561ETHY    C1 3477   6.699   1.055  10.373
 3562ETHY    C1 3478   6.544   1.248  10.840
 3563ETHY    C1 3479   6.375   1.529  11.268
 3564AUSL   AUS 3480   7.551   1.226   8.176
 3565AUSL   AUS 3481   7.897   1.339   7.919
 3566AUL    AUL 3482   7.878   1.378   8.297
 3567THSLK    S 3483   7.636   1.282   8.410
 3568ETHY    C1 3484   7.710   1.563   8.759
 3569ETHY    C1 3485   7.815   1.818   9.217
 3570ETHY    C1 3486   7.937   1.977   9.703
 3571ETHY    C1 3487   8.076   2.046  10.204
 3572ETHY    C1 3488   8.230   2.019  10.708
 3573ETHY    C1 3489   8.399   1.895  11.206
 3574THSLK    S 3490   8.069   1.437   8.080
 3575ETHY    C1 3491   8.432   1.408   8.350
 3576ETHY    C1 3492   8.854   1.464   8.673
 3577ETHY    C1 3493   9.246   1.618   8.989
 3578ETHY    C1 3494   9.600   1.856   9.293
 3579ETHY    C1 3495   9.907   2.177   9.580
 3580ETHY    C1 3496  10.158   2.574   9.844
 3581AUSL   AUS 3497   7.796   1.074   6.923
 3582AUSL   AUS 3498   7.652   1.491   6.992
 3583AUL    AUL 3499   7.878   1.378   6.708
 3584THSLK    S 3500   7.898   1.022   6.687
 3585ETHY    C1 3501   8.111   0.802   6.351
 3586ETHY    C1 3502   8.376   0.625   5.923
 3587ETHY    C1 3503   8.648   0.549   5.479
 3588ETHY    C1 3504   8.922   0.566   5.033
 3589ETHY    C1 3505   9.193   0.679   4.594
 3590ETHY    C1 3506   9.458   0.888   4.173
 3591THSLK    S 3507   7.830   1.602   6.829
 3592ETHY    C1 3508   8.132   1.670   6.497
 3593ETHY    C1 3509   8.451   1.833   6.100
 3594ETHY    C1 3510   8.716   2.080   5.719
 3595ETHY    C1 3511   8.928   2.400   5.362
 3596ETHY    C1 3512   9.081   2.790   5.039
 3597ETHY    C1 3513   9.172   3.242   4.759
 3598AUSL   AUS 3514   7.551   0.923   6.829
 3599AUSL   AUS 3515   7.897   0.810   7.086
 3600AUL    AUL 3516   7.878   0.771   6.708
 3601THSLK    S 3517   8.030   0.618   6.949
 3602ETHY    C1 3518   8.213   0.251   6.752
 3603ETHY    C1 3519   8.485  -0.121   6.483
 3604ETHY    C1 3520   8.810  -0.410   6.186
 3605ETHY    C1 3521   9.176  -0.617   5.874
 3606ETHY    C1 3522   9.580  -0.736   5.555
 3607ETHY    C1 3523  10.013  -0.761   5.235
 3608THSLK    S 3524   7.636   0.867   6.596
 3609ETHY    C1 3525   7.710   0.586   6.246
 3610ETHY    C1 3526   7.815   0.330   5.788
 3611ETHY    C1 3527   7.937   0.172   5.302
 3612ETHY    C1 3528   8.076   0.103   4.801
 3613ETHY    C1 3529   8.230   0.130   4.297
 3614ETHY    C1 3530   8.399   0.254   3.799
 3615AUSL   AUS 3531   7.551   1.226   6.829
 3616AUSL   AUS 3532   7.223   0.923   6.829
 3617AUL    AUL 3533   7.387   1.074   6.521
 3618THSLK    S 3534   7.131   0.867   6.597
 3619ETHY    C1 3535   6.996   0.589   6.264
 3620ETHY    C1 3536   6.835   0.336   5.822
 3621ETHY    C1 3537   6.683   0.179   5.343
 3622ETHY    C1 3538   6.547   0.110   4.842
 3623ETHY    C1 3539   6.430   0.136   4.328
 3624ETHY    C1 3540   6.337   0.255   3.810
 3625THSLK    S 3541   7.653   1.180   6.583
 3626ETHY    C1 3542   7.799   1.030   6.179
 3627ETHY    C1 3543   7.961   0.939   5.678
 3628ETHY    C1 3544   8.108   0.949   5.173
 3629ETHY    C1 3545   8.241   1.050   4.677
 3630ETHY    C1 3546   8.358   1.245   4.200
 3631ETHY    C1 3547   8.459   1.531   3.754
 3632AUSL   AUS 3548   6.978   1.074   8.083
 3633AUSL   AUS 3549   7.122   1.491   8.013
 3634AUL    AUL 3550   6.896   1.378   8.297
 3635THSLK    S 3551   6.876   1.022   8.319
 3636ETHY    C1 3552   6.664   0.802   8.654
 3637ETHY    C1 3553   6.398   0.625   9.082
 3638ETHY    C1 3554   6.126   0.549   9.526
 3639ETHY    C1 3555   5.852   0.566   9.973
 3640ETHY    C1 3556   5.581   0.679  10.411
 3641ETHY    C1 3557   5.316   0.888  10.832
 3642THSLK    S 3558   7.005   1.615   8.202
 3643ETHY    C1 3559   6.962   1.758   8.632
 3644ETHY    C1 3560   6.851   1.983   9.104
 3645ETHY    C1 3561   6.675   2.260   9.515
 3646ETHY    C1 3562   6.444   2.576   9.863
 3647ETHY    C1 3563   6.158   2.924  10.138
 3648ETHY    C1 3564   5.821   3.297  10.334
 3649AUSL   AUS 3565   7.223   0.923   8.176
 3650AUSL   AUS 3566   6.877   0.810   7.919
 3651AUL    AUL 3567   6.896   0.771   8.297
 3652THSLK    S 3568   6.700   0.647   8.026
 3653ETHY    C1 3569   6.329   0.390   8.082
 3654ETHY    C1 3570   5.907   0.102   8.237
 3655ETHY    C1 3571   5.517  -0.153   8.482
 3656ETHY    C1 3572   5.165  -0.370   8.803
 3657ETHY    C1 3573   4.859  -0.541   9.198
 3658ETHY    C1 3574   4.602  -0.662   9.657
 3659THSLK    S 3575   7.121   0.869   8.406
 3660ETHY    C1 3576   6.975   0.593   8.736
 3661ETHY    C1 3577   6.813   0.341   9.178
 3662ETHY    C1 3578   6.666   0.183   9.658
 3663ETHY    C1 3579   6.533   0.113  10.160
 3664ETHY    C1 3580   6.416   0.139  10.674
 3665ETHY    C1 3581   6.315   0.260  11.190
 3666AUSL   AUS 3582   6.978   1.074   6.923
 3667AUSL   AUS 3583   7.122   0.658   6.992
 3668AUL    AUL 3584   6.896   0.771   6.708
 3669THSLK    S 3585   6.885   1.022   6.681
 3670ETHY    C1 3586   6.681   0.802   6.341
 3671ETHY    C1 3587   6.417   0.625   5.911
 3672ETHY    C1 3588   6.141   0.549   5.470
 3673ETHY    C1 3589   5.864   0.566   5.025
 3674ETHY    C1 3590   5.594   0.679   4.586
 3675ETHY    C1 3591   5.335   0.888   4.161
 3676THSLK    S 3592   6.951   0.485   6.878
 3677ETHY    C1 3593   6.656   0.159   6.760
 3678ETHY    C1 3594   6.338  -0.208   6.538
 3679ETHY    C1 3595   6.070  -0.543   6.233
 3680ETHY    C1 3596   5.856  -0.843   5.861
 3681ETHY    C1 3597   5.704  -1.101   5.426
 3682ETHY    C1 3598   5.618  -1.313   4.937
 3683AUSL   AUS 3599   7.223   1.226   6.829
 3684AUSL   AUS 3600   6.877   1.339   7.086
 3685AUL    AUL 3601   6.896   1.378   6.708
 3686THSLK    S 3602   6.750   1.466   6.895
 3687ETHY    C1 3603   6.573   1.547   6.484
 3688ETHY    C1 3604   6.302   1.687   6.046
 3689ETHY    C1 3605   5.975   1.875   5.679
 3690ETHY    C1 3606   5.606   2.104   5.385
 3691ETHY    C1 3607   5.204   2.371   5.173
 3692ETHY    C1 3608   4.775   2.673   5.047
 3693THSLK    S 3609   7.148   1.182   6.576
 3694ETHY    C1 3610   7.084   1.035   6.150
 3695ETHY    C1 3611   6.981   0.946   5.634
 3696ETHY    C1 3612   6.854   0.957   5.123
 3697ETHY    C1 3613   6.712   1.058   4.629
 3698ETHY    C1 3614   6.559   1.251   4.162
 3699ETHY    C1 3615   6.398   1.534   3.732
 3700AUSL   AUS 3616   7.967   1.483   7.503
 3701AUSL   AUS 3617   7.897   1.339   7.086
 3702AUL    AUL 3618   8.181   1.565   7.199
 3703THSLK    S 3619   8.075   1.438   6.934
 3704ETHY    C1 3620   8.445   1.411   6.671
 3705ETHY    C1 3621   8.867   1.467   6.349
 3706ETHY    C1 3622   9.257   1.621   6.030
 3707ETHY    C1 3623   9.609   1.858   5.724
 3708ETHY    C1 3624   9.916   2.179   5.438
 3709ETHY    C1 3625  10.172   2.578   5.179
 3710THSLK    S 3626   8.233   1.536   7.508
 3711ETHY    C1 3627   8.687   1.558   7.513
 3712ETHY    C1 3628   9.209   1.672   7.514
 3713ETHY    C1 3629   9.692   1.881   7.511
 3714ETHY    C1 3630  10.128   2.171   7.510
 3715ETHY    C1 3631  10.507   2.538   7.510
 3716ETHY    C1 3632  10.821   2.978   7.514
 3717AUSL   AUS 3633   8.061   1.238   7.351
 3718AUSL   AUS 3634   8.061   0.911   7.654
 3719AUL    AUL 3635   8.369   1.074   7.503
 3720THSLK    S 3636   8.317   1.277   7.350
 3721ETHY    C1 3637   8.753   1.169   7.286
 3722ETHY    C1 3638   9.279   1.131   7.201
 3723ETHY    C1 3639   9.794   1.195   7.113
 3724ETHY    C1 3640  10.288   1.349   7.026
 3725ETHY    C1 3641  10.748   1.594   6.945
 3726ETHY    C1 3642  11.167   1.926   6.873
 3727THSLK    S 3643   8.288   0.771   7.663
 3728ETHY    C1 3644   8.607   0.455   7.728
 3729ETHY    C1 3645   9.040   0.151   7.807
 3730ETHY    C1 3646   9.515  -0.059   7.887
 3731ETHY    C1 3647  10.018  -0.180   7.971
 3732ETHY    C1 3648  10.538  -0.206   8.058
 3733ETHY    C1 3649  11.066  -0.136   8.147
 3734AUSL   AUS 3650   8.061   1.238   7.654
 3735AUSL   AUS 3651   7.803   1.585   7.767
 3736AUL    AUL 3652   8.181   1.565   7.806
 3737THSLK    S 3653   7.986   1.699   7.926
 3738ETHY    C1 3654   8.369   1.817   8.140
 3739ETHY    C1 3655   8.787   2.040   8.388
 3740ETHY    C1 3656   9.146   2.345   8.622
 3741ETHY    C1 3657   9.443   2.718   8.840
 3742ETHY    C1 3658   9.668   3.152   9.038
 3743ETHY    C1 3659   9.815   3.640   9.215
 3744THSLK    S 3660   8.315   1.277   7.665
 3745ETHY    C1 3661   8.750   1.169   7.740
 3746ETHY    C1 3662   9.276   1.131   7.826
 3747ETHY    C1 3663   9.791   1.194   7.910
 3748ETHY    C1 3664  10.285   1.348   7.993
 3749ETHY    C1 3665  10.746   1.593   8.075
 3750ETHY    C1 3666  11.163   1.925   8.155
 3751AUSL   AUS 3667   6.807   1.483   7.503
 3752AUSL   AUS 3668   6.877   1.339   7.919
 3753AUL    AUL 3669   6.593   1.565   7.806
 3754THSLK    S 3670   6.744   1.458   8.109
 3755ETHY    C1 3671   6.561   1.530   8.519
 3756ETHY    C1 3672   6.289   1.670   8.957
 3757ETHY    C1 3673   5.964   1.861   9.324
 3758ETHY    C1 3674   5.598   2.092   9.619
 3759ETHY    C1 3675   5.195   2.359   9.831
 3760ETHY    C1 3676   4.761   2.655   9.956
 3761THSLK    S 3677   6.596   1.624   7.508
 3762ETHY    C1 3678   6.374   2.021   7.513
 3763ETHY    C1 3679   6.038   2.436   7.514
 3764ETHY    C1 3680   5.635   2.775   7.511
 3765ETHY    C1 3681   5.181   3.036   7.510
 3766ETHY    C1 3682   4.682   3.210   7.510
 3767ETHY    C1 3683   4.149   3.294   7.514
 3768AUSL   AUS 3684   6.713   1.238   7.351
 3769AUSL   AUS 3685   6.971   1.585   7.238
 3770AUL    AUL 3686   6.593   1.565   7.199
 3771THSLK    S 3687   6.486   1.353   7.303
 3772ETHY    C1 3688   6.167   1.553   7.049
 3773ETHY    C1 3689   5.734   1.759   6.813
 3774ETHY    C1 3690   5.259   1.925   6.661
 3775ETHY    C1 3691   4.756   2.054   6.590
 3776ETHY    C1 3692   4.236   2.144   6.605
 3777ETHY    C1 3693   3.708   2.192   6.708
 3778THSLK    S 3694   6.859   1.748   7.060
 3779ETHY    C1 3695   6.780   2.058   6.737
 3780ETHY    C1 3696   6.605   2.432   6.397
 3781ETHY    C1 3697   6.351   2.800   6.120
 3782ETHY    C1 3698   6.031   3.157   5.909
 3783ETHY    C1 3699   5.650   3.495   5.770
 3784ETHY    C1 3700   5.215   3.809   5.709
 3785AUSL   AUS 3701   6.713   1.238   7.654
 3786AUSL   AUS 3702   6.713   0.911   7.351
 3787AUL    AUL 3703   6.405   1.074   7.503
 3788THSLK    S 3704   6.459   0.838   7.394
 3789ETHY    C1 3705   6.024   0.820   7.524
 3790ETHY    C1 3706   5.498   0.760   7.597
 3791ETHY    C1 3707   4.983   0.656   7.578
 3792ETHY    C1 3708   4.489   0.513   7.477
 3793ETHY    C1 3709   4.029   0.330   7.294
 3794ETHY    C1 3710   3.611   0.110   7.034
 3795THSLK    S 3711   6.485   1.344   7.707
 3796ETHY    C1 3712   6.164   1.535   7.966
 3797ETHY    C1 3713   5.731   1.739   8.202
 3798ETHY    C1 3714   5.256   1.910   8.352
 3799ETHY    C1 3715   4.754   2.042   8.422
 3800ETHY    C1 3716   4.234   2.130   8.407
 3801ETHY    C1 3717   3.705   2.171   8.308
 3802AUSL   AUS 3718   7.967   0.665   7.503
 3803AUSL   AUS 3719   7.897   0.810   7.919
 3804AUL    AUL 3720   8.181   0.584   7.806
 3805THSLK    S 3721   8.178   0.524   7.508
 3806ETHY    C1 3722   8.400   0.128   7.513
 3807ETHY    C1 3723   8.736  -0.287   7.514
 3808ETHY    C1 3724   9.139  -0.626   7.511
 3809ETHY    C1 3725   9.593  -0.887   7.510
 3810ETHY    C1 3726  10.092  -1.061   7.510
 3811ETHY    C1 3727  10.625  -1.145   7.514
 3812THSLK    S 3728   8.024   0.619   8.064
 3813ETHY    C1 3729   8.201   0.254   8.270
 3814ETHY    C1 3730   8.472  -0.118   8.540
 3815ETHY    C1 3731   8.799  -0.407   8.834
 3816ETHY    C1 3732   9.168  -0.615   9.142
 3817ETHY    C1 3733   9.570  -0.733   9.462
 3818ETHY    C1 3734   9.999  -0.758   9.789
 3819AUSL   AUS 3735   8.061   0.911   7.351
 3820AUSL   AUS 3736   7.803   0.564   7.238
 3821AUL    AUL 3737   8.181   0.584   7.199
 3822THSLK    S 3738   8.289   0.771   7.353
 3823ETHY    C1 3739   8.610   0.454   7.298
 3824ETHY    C1 3740   9.043   0.151   7.221
 3825ETHY    C1 3741   9.518  -0.059   7.136
 3826ETHY    C1 3742  10.020  -0.180   7.048
 3827ETHY    C1 3743  10.540  -0.207   6.963
 3828ETHY    C1 3744  11.069  -0.136   6.881
 3829THSLK    S 3745   7.919   0.375   7.108
 3830ETHY    C1 3746   8.003  -0.054   6.984
 3831ETHY    C1 3747   8.178  -0.526   6.803
 3832ETHY    C1 3748   8.431  -0.937   6.593
 3833ETHY    C1 3749   8.749  -1.285   6.366
 3834ETHY    C1 3750   9.131  -1.560   6.126
 3835ETHY    C1 3751   9.569  -1.757   5.880
 3836AUSL   AUS 3752   6.807   0.665   7.503
 3837AUSL   AUS 3753   6.877   0.810   7.086
 3838AUL    AUL 3754   6.593   0.584   7.199
 3839THSLK    S 3755   6.706   0.639   6.978
 3840ETHY    C1 3756   6.342   0.374   6.921
 3841ETHY    C1 3757   5.920   0.084   6.766
 3842ETHY    C1 3758   5.528  -0.168   6.521
 3843ETHY    C1 3759   5.174  -0.381   6.200
 3844ETHY    C1 3760   4.867  -0.554   5.806
 3845ETHY    C1 3761   4.616  -0.681   5.346
 3846THSLK    S 3762   6.541   0.613   7.508
 3847ETHY    C1 3763   6.087   0.591   7.513
 3848ETHY    C1 3764   5.565   0.477   7.514
 3849ETHY    C1 3765   5.083   0.268   7.511
 3850ETHY    C1 3766   4.646  -0.022   7.510
 3851ETHY    C1 3767   4.267  -0.389   7.510
 3852ETHY    C1 3768   3.954  -0.829   7.514
 3853AUSL   AUS 3769   6.713   0.911   7.654
 3854AUSL   AUS 3770   6.971   0.564   7.767
 3855AUL    AUL 3771   6.593   0.584   7.806
 3856THSLK    S 3772   6.783   0.424   7.878
 3857ETHY    C1 3773   6.396   0.187   7.893
 3858ETHY    C1 3774   5.978  -0.133   7.982
 3859ETHY    C1 3775   5.620  -0.482   8.149
 3860ETHY    C1 3776   5.325  -0.846   8.382
 3861ETHY    C1 3777   5.100  -1.217   8.683
 3862ETHY    C1 3778   4.949  -1.588   9.045
 3863THSLK    S 3779   6.457   0.848   7.616
 3864ETHY    C1 3780   6.021   0.838   7.491
 3865ETHY    C1 3781   5.495   0.779   7.419
 3866ETHY    C1 3782   4.980   0.672   7.436
 3867ETHY    C1 3783   4.486   0.526   7.535
 3868ETHY    C1 3784   4.026   0.344   7.718
 3869ETHY    C1 3785   3.607   0.131   7.983
 3870AUSL   AUS 3786   7.387   1.654   7.912
 3871AUSL   AUS 3787   6.971   1.585   7.767
 3872AUL    AUL 3788   7.084   1.869   7.993
 3873THSLK    S 3789   6.855   1.741   7.952
 3874ETHY    C1 3790   6.771   2.043   8.280
 3875ETHY    C1 3791   6.596   2.416   8.621
 3876ETHY    C1 3792   6.343   2.787   8.895
 3877ETHY    C1 3793   6.025   3.146   9.105
 3878ETHY    C1 3794   5.643   3.484   9.244
 3879ETHY    C1 3795   5.205   3.792   9.309
 3880THSLK    S 3796   7.429   1.876   8.035
 3881ETHY    C1 3797   7.613   2.151   8.347
 3882ETHY    C1 3798   7.763   2.531   8.691
 3883ETHY    C1 3799   7.829   2.954   8.998
 3884ETHY    C1 3800   7.816   3.405   9.264
 3885ETHY    C1 3801   7.719   3.874   9.485
 3886ETHY    C1 3802   7.539   4.353   9.656
 3887AUSL   AUS 3803   7.235   1.748   7.666
 3888AUSL   AUS 3804   7.539   1.748   7.339
 3889AUL    AUL 3805   7.387   2.056   7.503
 3890THSLK    S 3806   7.278   1.992   7.776
 3891ETHY    C1 3807   7.422   2.386   7.951
 3892ETHY    C1 3808   7.509   2.880   8.137
 3893ETHY    C1 3809   7.497   3.381   8.294
 3894ETHY    C1 3810   7.396   3.879   8.425
 3895ETHY    C1 3811   7.204   4.360   8.527
 3896ETHY    C1 3812   6.924   4.815   8.600
 3897THSLK    S 3813   7.594   1.979   7.243
 3898ETHY    C1 3814   7.870   2.309   7.096
 3899ETHY    C1 3815   8.120   2.750   6.927
 3900ETHY    C1 3816   8.276   3.227   6.771
 3901ETHY    C1 3817   8.345   3.729   6.635
 3902ETHY    C1 3818   8.321   4.245   6.525
 3903ETHY    C1 3819   8.204   4.765   6.443
 3904AUSL   AUS 3820   7.539   1.748   7.666
 3905AUSL   AUS 3821   7.652   1.491   8.013
 3906AUL    AUL 3822   7.690   1.869   7.993
 3907THSLK    S 3823   7.823   1.599   8.183
 3908ETHY    C1 3824   8.118   1.664   8.523
 3909ETHY    C1 3825   8.436   1.826   8.920
 3910ETHY    C1 3826   8.704   2.075   9.298
 3911ETHY    C1 3827   8.918   2.397   9.653
 3912ETHY    C1 3828   9.070   2.785   9.976
 3913ETHY    C1 3829   9.156   3.235  10.262
 3914THSLK    S 3830   7.592   1.977   7.772
 3915ETHY    C1 3831   7.864   2.305   7.929
 3916ETHY    C1 3832   8.114   2.745   8.100
 3917ETHY    C1 3833   8.272   3.224   8.251
 3918ETHY    C1 3834   8.341   3.726   8.383
 3919ETHY    C1 3835   8.317   4.241   8.494
 3920ETHY    C1 3836   8.198   4.760   8.585
 3921AUSL   AUS 3837   7.387   0.494   7.912
 3922AUSL   AUS 3838   7.803   0.564   7.767
 3923AUL    AUL 3839   7.690   0.280   7.993
 3924THSLK    S 3840   7.340   0.244   7.989
 3925ETHY    C1 3841   7.150  -0.152   8.103
 3926ETHY    C1 3842   6.999  -0.630   8.289
 3927ETHY    C1 3843   6.936  -1.095   8.528
 3928ETHY    C1 3844   6.951  -1.537   8.809
 3929ETHY    C1 3845   7.047  -1.944   9.132
 3930ETHY    C1 3846   7.222  -2.307   9.489
 3931THSLK    S 3847   7.915   0.377   7.907
 3932ETHY    C1 3848   7.994  -0.051   8.040
 3933ETHY    C1 3849   8.169  -0.521   8.222
 3934ETHY    C1 3850   8.423  -0.933   8.428
 3935ETHY    C1 3851   8.743  -1.282   8.652
 3936ETHY    C1 3852   9.124  -1.557   8.893
 3937ETHY    C1 3853   9.559  -1.753   9.147
 3938AUSL   AUS 3854   7.235   0.401   7.666
 3939AUSL   AUS 3855   7.122   0.658   8.013
 3940AUL    AUL 3856   7.084   0.280   7.993
 3941THSLK    S 3857   7.180   0.165   7.745
 3942ETHY    C1 3858   6.905  -0.194   7.788
 3943ETHY    C1 3859   6.654  -0.659   7.869
 3944ETHY    C1 3860   6.498  -1.149   7.981
 3945ETHY    C1 3861   6.429  -1.648   8.122
 3946ETHY    C1 3862   6.453  -2.148   8.292
 3947ETHY    C1 3863   6.570  -2.636   8.489
 3948THSLK    S 3864   6.944   0.492   8.129
 3949ETHY    C1 3865   6.642   0.174   8.248
 3950ETHY    C1 3866   6.323  -0.193   8.471
 3951ETHY    C1 3867   6.058  -0.530   8.776
 3952ETHY    C1 3868   5.846  -0.832   9.147
 3953ETHY    C1 3869   5.693  -1.090   9.582
 3954ETHY    C1 3870   5.602  -1.297  10.072
 3955AUSL   AUS 3871   7.539   0.401   7.666
 3956AUSL   AUS 3872   7.235   0.401   7.339
 3957AUL    AUL 3873   7.387   0.093   7.503
 3958THSLK    S 3874   7.182   0.162   7.270
 3959ETHY    C1 3875   6.910  -0.200   7.236
 3960ETHY    C1 3876   6.660  -0.665   7.157
 3961ETHY    C1 3877   6.503  -1.154   7.041
 3962ETHY    C1 3878   6.433  -1.653   6.896
 3963ETHY    C1 3879   6.457  -2.152   6.727
 3964ETHY    C1 3880   6.576  -2.643   6.538
 3965THSLK    S 3881   7.493   0.149   7.749
 3966ETHY    C1 3882   7.346  -0.277   7.811
 3967ETHY    C1 3883   7.260  -0.795   7.906
 3968ETHY    C1 3884   7.272  -1.308   8.025
 3969ETHY    C1 3885   7.374  -1.803   8.165
 3970ETHY    C1 3886   7.566  -2.268   8.325
 3971ETHY    C1 3887   7.844  -2.694   8.504
 3972AUSL   AUS 3888   7.387   1.654   7.094
 3973AUSL   AUS 3889   7.803   1.585   7.238
 3974AUL    AUL 3890   7.690   1.869   7.012
 3975THSLK    S 3891   7.434   1.881   6.977
 3976ETHY    C1 3892   7.624   2.160   6.674
 3977ETHY    C1 3893   7.775   2.541   6.330
 3978ETHY    C1 3894   7.839   2.961   6.021
 3979ETHY    C1 3895   7.823   3.411   5.752
 3980ETHY    C1 3896   7.727   3.881   5.532
 3981ETHY    C1 3897   7.552   4.364   5.366
 3982THSLK    S 3898   7.991   1.701   7.089
 3983ETHY    C1 3899   8.378   1.821   6.883
 3984ETHY    C1 3900   8.796   2.044   6.637
 3985ETHY    C1 3901   9.154   2.348   6.400
 3986ETHY    C1 3902   9.449   2.720   6.178
 3987ETHY    C1 3903   9.674   3.155   5.981
 3988ETHY    C1 3904   9.825   3.644   5.811
 3989AUSL   AUS 3905   7.235   1.748   7.339
 3990AUSL   AUS 3906   7.122   1.491   6.992
 3991AUL    AUL 3907   7.084   1.869   7.012
 3992THSLK    S 3908   7.281   1.995   7.239
 3993ETHY    C1 3909   7.428   2.392   7.074
 3994ETHY    C1 3910   7.514   2.886   6.889
 3995ETHY    C1 3911   7.502   3.387   6.727
 3996ETHY    C1 3912   7.400   3.883   6.593
 3997ETHY    C1 3913   7.208   4.364   6.492
 3998ETHY    C1 3914   6.930   4.822   6.427
 3999THSLK    S 3915   7.012   1.623   6.805
 4000ETHY    C1 3916   6.976   1.772   6.377
 4001ETHY    C1 3917   6.866   1.998   5.906
 4002ETHY    C1 3918   6.688   2.273   5.494
 4003ETHY    C1 3919   6.454   2.586   5.145
 4004ETHY    C1 3920   6.168   2.935   4.870
 4005ETHY    C1 3921   5.837   3.313   4.675
 4006AUSL   AUS 3922   7.387   0.494   7.094
 4007AUSL   AUS 3923   6.971   0.564   7.238
 4008AUL    AUL 3924   7.084   0.280   7.012
 4009THSLK    S 3925   6.788   0.416   7.134
 4010ETHY    C1 3926   6.405   0.172   7.124
 4011ETHY    C1 3927   5.987  -0.149   7.035
 4012ETHY    C1 3928   5.628  -0.495   6.866
 4013ETHY    C1 3929   5.331  -0.856   6.631
 4014ETHY    C1 3930   5.106  -1.228   6.331
 4015ETHY    C1 3931   4.959  -1.605   5.974
 4016THSLK    S 3932   7.345   0.239   7.024
 4017ETHY    C1 3933   7.161  -0.162   6.917
 4018ETHY    C1 3934   7.011  -0.640   6.732
 4019ETHY    C1 3935   6.945  -1.103   6.491
 4020ETHY    C1 3936   6.958  -1.543   6.206
 4021ETHY    C1 3937   7.055  -1.950   5.885
 4022ETHY    C1 3938   7.235  -2.318   5.533
 4023AUSL   AUS 3939   7.539   0.401   7.339
 4024AUSL   AUS 3940   7.652   0.658   6.992
 4025AUL    AUL 3941   7.690   0.280   7.012
 4026THSLK    S 3942   7.496   0.147   7.266
 4027ETHY    C1 3943   7.352  -0.281   7.213
 4028ETHY    C1 3944   7.265  -0.800   7.120
 4029ETHY    C1 3945   7.277  -1.312   6.997
 4030ETHY    C1 3946   7.378  -1.806   6.854
 4031ETHY    C1 3947   7.570  -2.271   6.695
 4032ETHY    C1 3948   7.850  -2.699   6.523
 4033THSLK    S 3949   7.769   0.468   6.859
 4034ETHY    C1 3950   7.813   0.066   6.651
 4035ETHY    C1 3951   7.923  -0.365   6.355
 4036ETHY    C1 3952   8.099  -0.728   6.017
 4037ETHY    C1 3953   8.330  -1.022   5.651
 4038ETHY    C1 3954   8.616  -1.239   5.264
 4039ETHY    C1 3955   8.953  -1.375   4.865
 4040AUC    AUC 3956  35.438   8.691   7.503
 4041AUC    AUC 3957  35.683   8.691   7.351
 4042AUC    AUC 3958  35.683   8.691   7.654
 4043AUC    AUC 3959  35.193   8.691   7.351
 4044AUC    AUC 3960  35.193   8.691   7.654
 4045AUC    AUC 3961  35.286   8.937   7.503
 4046AUC    AUC 3962  35.590   8.937   7.503
 4047AUC    AUC 3963  35.286   8.446   7.503
 4048AUC    AUC 3964  35.590   8.446   7.503
 4049AUC    AUC 3965  35.438   8.540   7.748
 4050AUC    AUC 3966  35.438   8.843   7.748
 4051AUC    AUC 3967  35.438   8.540   7.257
 4052AUC    AUC 3968  35.438   8.843   7.257
 4053AUC    AUC 3969  35.929   8.691   7.199
 4054AUC    AUC 3970  35.929   8.691   7.503
 4055AUC    AUC 3971  35.929   8.691   7.806
 4056AUC    AUC 3972  34.947   8.691   7.199
 4057AUC    AUC 3973  34.947   8.691   7.503
 4058AUC    AUC 3974  34.947   8.691   7.806
 4059AUC    AUC 3975  35.135   9.182   7.503
 4060AUC    AUC 3976  35.438   9.182   7.503
 4061AUC    AUC 3977  35.741   9.182   7.503
 4062AUC    AUC 3978  35.135   8.201   7.503
 4063AUC    AUC 3979  35.438   8.201   7.503
 4064AUC    AUC 3980  35.741   8.201   7.503
 4065AUC    AUC 3981  35.438   8.388   7.993
 4066AUC    AUC 3982  35.438   8.691   7.993
 4067AUC    AUC 3983  35.438   8.995   7.993
 4068AUC    AUC 3984  35.438   8.388   7.012
 4069AUC    AUC 3985  35.438   8.691   7.012
 4070AUC    AUC 3986  35.438   8.995   7.012
 4071AUC    AUC 3987  35.683   8.540   7.900
 4072AUC    AUC 3988  35.683   8.843   7.900
 4073AUC    AUC 3989  35.683   8.540   7.106
 4074AUC    AUC 3990  35.683   8.843   7.106
 4075AUC    AUC 3991  35.193   8.540   7.900
 4076AUC    AUC 3992  35.193   8.843   7.900
 4077AUC    AUC 3993  35.193   8.540   7.106
 4078AUC    AUC 3994  35.193   8.843   7.106
 4079AUC    AUC 3995  35.835   8.937   7.351
 4080AUC    AUC 3996  35.835   8.937   7.654
 4081AUC    AUC 3997  35.041   8.937   7.351
 4082AUC    AUC 3998  35.041   8.937   7.654
 4083AUC    AUC 3999  35.835   8.446   7.351
 4084AUC    AUC 4000  35.835   8.446   7.654
 4085AUC    AUC 4001  35.041   8.446   7.351
 4086AUC    AUC 4002  35.041   8.446   7.654
 4087AUC    AUC 4003  35.286   9.089   7.748
 4088AUC    AUC 4004  35.590   9.089   7.748
 4089AUC    AUC 4005  35.286   8.294   7.748
 4090AUC    AUC 4006  35.590   8.294   7.748
 4091AUC    AUC 4007  35.286   9.089   7.257
 4092AUC    AUC 4008  35.590   9.089   7.257
 4093AUC    AUC 4009  35.286   8.294   7.257
 4094AUC    AUC 4010  35.590   8.294   7.257
 4095AUSL   AUS 4011  35.847   8.691   8.083
 4096AUSL   AUS 4012  35.703   8.275   8.013
 4097AUL    AUL 4013  35.929   8.388   8.297
 4098THSLK    S 4014  35.813   8.088   8.153
 4099ETHY    C1 4015  35.849   7.689   8.368
 4100ETHY    C1 4016  35.959   7.259   8.665
 4101ETHY    C1 4017  36.137   6.895   9.000
 4102ETHY    C1 4018  36.371   6.599   9.364
 4103ETHY    C1 4019  36.657   6.382   9.752
 4104ETHY    C1 4020  36.988   6.249  10.156
 4105THSLK    S 4021  35.940   8.639   8.324
 4106ETHY    C1 4022  36.144   8.419   8.665
 4107ETHY    C1 4023  36.408   8.242   9.094
 4108ETHY    C1 4024  36.684   8.166   9.535
 4109ETHY    C1 4025  36.961   8.183   9.980
 4110ETHY    C1 4026  37.231   8.296  10.419
 4111ETHY    C1 4027  37.490   8.505  10.845
 4112AUSL   AUS 4028  35.602   8.540   8.176
 4113AUSL   AUS 4029  35.274   8.843   8.176
 4114AUL    AUL 4030  35.438   8.691   8.484
 4115THSLK    S 4031  35.677   8.485   8.413
 4116ETHY    C1 4032  35.741   8.205   8.765
 4117ETHY    C1 4033  35.844   7.950   9.223
 4118ETHY    C1 4034  35.971   7.791   9.708
 4119ETHY    C1 4035  36.113   7.722  10.208
 4120ETHY    C1 4036  36.267   7.750  10.713
 4121ETHY    C1 4037  36.427   7.874  11.212
 4122THSLK    S 4038  35.189   8.797   8.428
 4123ETHY    C1 4039  35.115   8.647   8.850
 4124ETHY    C1 4040  35.010   8.559   9.367
 4125ETHY    C1 4041  34.888   8.571   9.878
 4126ETHY    C1 4042  34.750   8.672  10.373
 4127ETHY    C1 4043  34.595   8.865  10.840
 4128ETHY    C1 4044  34.426   9.146  11.268
 4129AUSL   AUS 4045  35.602   8.843   8.176
 4130AUSL   AUS 4046  35.948   8.956   7.919
 4131AUL    AUL 4047  35.929   8.995   8.297
 4132THSLK    S 4048  35.687   8.899   8.410
 4133ETHY    C1 4049  35.761   9.180   8.759
 4134ETHY    C1 4050  35.866   9.435   9.217
 4135ETHY    C1 4051  35.988   9.594   9.703
 4136ETHY    C1 4052  36.127   9.663  10.204
 4137ETHY    C1 4053  36.281   9.636  10.708
 4138ETHY    C1 4054  36.450   9.512  11.206
 4139THSLK    S 4055  36.120   9.054   8.080
 4140ETHY    C1 4056  36.483   9.025   8.350
 4141ETHY    C1 4057  36.905   9.081   8.673
 4142ETHY    C1 4058  37.297   9.235   8.989
 4143ETHY    C1 4059  37.651   9.473   9.293
 4144ETHY    C1 4060  37.958   9.794   9.580
 4145ETHY    C1 4061  38.209  10.191   9.844
 4146AUSL   AUS 4062  35.847   8.691   6.923
 4147AUSL   AUS 4063  35.703   9.108   6.992
 4148AUL    AUL 4064  35.929   8.995   6.708
 4149THSLK    S 4065  35.949   8.639   6.687
 4150ETHY    C1 4066  36.162   8.419   6.351
 4151ETHY    C1 4067  36.427   8.242   5.923
 4152ETHY    C1 4068  36.699   8.166   5.479
 4153ETHY    C1 4069  36.973   8.183   5.033
 4154ETHY    C1 4070  37.244   8.296   4.594
 4155ETHY    C1 4071  37.509   8.505   4.173
 4156THSLK    S 4072  35.881   9.219   6.829
 4157ETHY    C1 4073  36.183   9.287   6.497
 4158ETHY    C1 4074  36.502   9.450   6.100
 4159ETHY    C1 4075  36.767   9.697   5.719
 4160ETHY    C1 4076  36.979  10.017   5.362
 4161ETHY    C1 4077  37.132  10.407   5.039
 4162ETHY    C1 4078  37.223  10.859   4.759
 4163AUSL   AUS 4079  35.602   8.540   6.829
 4164AUSL   AUS 4080  35.948   8.427   7.086
 4165AUL    AUL 4081  35.929   8.388   6.708
 4166THSLK    S 4082  36.081   8.235   6.949
 4167ETHY    C1 4083  36.264   7.868   6.752
 4168ETHY    C1 4084  36.536   7.496   6.483
 4169ETHY    C1 4085  36.861   7.207   6.186
 4170ETHY    C1 4086  37.227   7.000   5.874
 4171ETHY    C1 4087  37.631   6.881   5.555
 4172ETHY    C1 4088  38.064   6.856   5.235
 4173THSLK    S 4089  35.687   8.484   6.596
 4174ETHY    C1 4090  35.761   8.203   6.246
 4175ETHY    C1 4091  35.866   7.947   5.788
 4176ETHY    C1 4092  35.988   7.789   5.302
 4177ETHY    C1 4093  36.127   7.720   4.801
 4178ETHY    C1 4094  36.281   7.747   4.297
 4179ETHY    C1 4095  36.450   7.871   3.799
 4180AUSL   AUS 4096  35.602   8.843   6.829
 4181AUSL   AUS 4097  35.274   8.540   6.829
 4182AUL    AUL 4098  35.438   8.691   6.521
 4183THSLK    S 4099  35.182   8.484   6.597
 4184ETHY    C1 4100  35.047   8.206   6.264
 4185ETHY    C1 4101  34.886   7.953   5.822
 4186ETHY    C1 4102  34.734   7.796   5.343
 4187ETHY    C1 4103  34.598   7.727   4.842
 4188ETHY    C1 4104  34.481   7.753   4.328
 4189ETHY    C1 4105  34.388   7.872   3.810
 4190THSLK    S 4106  35.704   8.797   6.583
 4191ETHY    C1 4107  35.850   8.647   6.179
 4192ETHY    C1 4108  36.012   8.556   5.678
 4193ETHY    C1 4109  36.159   8.566   5.173
 4194ETHY    C1 4110  36.292   8.667   4.677
 4195ETHY    C1 4111  36.409   8.862   4.200
 4196ETHY    C1 4112  36.510   9.148   3.754
 4197AUSL   AUS 4113  35.029   8.691   8.083
 4198AUSL   AUS 4114  35.173   9.108   8.013
 4199AUL    AUL 4115  34.947   8.995   8.297
 4200THSLK    S 4116  34.927   8.639   8.319
 4201ETHY    C1 4117  34.715   8.419   8.654
 4202ETHY    C1 4118  34.449   8.242   9.082
 4203ETHY    C1 4119  34.177   8.166   9.526
 4204ETHY    C1 4120  33.903   8.183   9.973
 4205ETHY    C1 4121  33.632   8.296  10.411
 4206ETHY    C1 4122  33.367   8.505  10.832
 4207THSLK    S 4123  35.056   9.232   8.202
 4208ETHY    C1 4124  35.013   9.375   8.632
 4209ETHY    C1 4125  34.902   9.600   9.104
 4210ETHY    C1 4126  34.726   9.877   9.515
 4211ETHY    C1 4127  34.495  10.193   9.863
 4212ETHY    C1 4128  34.209  10.541  10.138
 4213ETHY    C1 4129  33.872  10.914  10.334
 4214AUSL   AUS 4130  35.274   8.540   8.176
 4215AUSL   AUS 4131  34.928   8.427   7.919
 4216AUL    AUL 4132  34.947   8.388   8.297
 4217THSLK    S 4133  34.751   8.264   8.026
 4218ETHY    C1 4134  34.380   8.007   8.082
 4219ETHY    C1 4135  33.958   7.719   8.237
 4220ETHY    C1 4136  33.568   7.464   8.482
 4221ETHY    C1 4137  33.216   7.247   8.803
 4222ETHY    C1 4138  32.910   7.076   9.198
 4223ETHY    C1 4139  32.653   6.955   9.657
 4224THSLK    S 4140  35.172   8.486   8.406
 4225ETHY    C1 4141  35.026   8.210   8.736
 4226ETHY    C1 4142  34.864   7.958   9.178
 4227ETHY    C1 4143  34.717   7.800   9.658
 4228ETHY    C1 4144  34.584   7.730  10.160
 4229ETHY    C1 4145  34.467   7.756  10.674
 4230ETHY    C1 4146  34.366   7.877  11.190
 4231AUSL   AUS 4147  35.029   8.691   6.923
 4232AUSL   AUS 4148  35.173   8.275   6.992
 4233AUL    AUL 4149  34.947   8.388   6.708
 4234THSLK    S 4150  34.936   8.639   6.681
 4235ETHY    C1 4151  34.732   8.419   6.341
 4236ETHY    C1 4152  34.468   8.242   5.911
 4237ETHY    C1 4153  34.192   8.166   5.470
 4238ETHY    C1 4154  33.915   8.183   5.025
 4239ETHY    C1 4155  33.645   8.296   4.586
 4240ETHY    C1 4156  33.386   8.505   4.161
 4241THSLK    S 4157  35.002   8.102   6.878
 4242ETHY    C1 4158  34.707   7.776   6.760
 4243ETHY    C1 4159  34.389   7.409   6.538
 4244ETHY    C1 4160  34.121   7.074   6.233
 4245ETHY    C1 4161  33.907   6.774   5.861
 4246ETHY    C1 4162  33.755   6.516   5.426
 4247ETHY    C1 4163  33.669   6.304   4.937
 4248AUSL   AUS 4164  35.274   8.843   6.829
 4249AUSL   AUS 4165  34.928   8.956   7.086
 4250AUL    AUL 4166  34.947   8.995   6.708
 4251THSLK    S 4167  34.801   9.083   6.895
 4252ETHY    C1 4168  34.624   9.164   6.484
 4253ETHY    C1 4169  34.353   9.304   6.046
 4254ETHY    C1 4170  34.026   9.492   5.679
 4255ETHY    C1 4171  33.657   9.721   5.385
 4256ETHY    C1 4172  33.255   9.988   5.173
 4257ETHY    C1 4173  32.826  10.290   5.047
 4258THSLK    S 4174  35.199   8.799   6.576
 4259ETHY    C1 4175  35.135   8.652   6.150
 4260ETHY    C1 4176  35.032   8.563   5.634
 4261ETHY    C1 4177  34.905   8.574   5.123
 4262ETHY    C1 4178  34.763   8.675   4.629
 4263ETHY    C1 4179  34.610   8.868   4.162
 4264ETHY    C1 4180  34.449   9.151   3.732
 4265AUSL   AUS 4181  36.018   9.100   7.503
 4266AUSL   AUS 4182  35.948   8.956   7.086
 4267AUL    AUL 4183  36.232   9.182   7.199
 4268THSLK    S 4184  36.126   9.055   6.934
 4269ETHY    C1 4185  36.496   9.028   6.671
 4270ETHY    C1 4186  36.918   9.084   6.349
 4271ETHY    C1 4187  37.308   9.238   6.030
 4272ETHY    C1 4188  37.660   9.475   5.724
 4273ETHY    C1 4189  37.967   9.796   5.438
 4274ETHY    C1 4190  38.223  10.195   5.179
 4275THSLK    S 4191  36.284   9.153   7.508
 4276ETHY    C1 4192  36.738   9.175   7.513
 4277ETHY    C1 4193  37.260   9.289   7.514
 4278ETHY    C1 4194  37.743   9.498   7.511
 4279ETHY    C1 4195  38.179   9.788   7.510
 4280ETHY    C1 4196  38.558  10.155   7.510
 4281ETHY    C1 4197  38.872  10.595   7.514
 4282AUSL   AUS 4198  36.112   8.855   7.351
 4283AUSL   AUS 4199  36.112   8.528   7.654
 4284AUL    AUL 4200  36.420   8.691   7.503
 4285THSLK    S 4201  36.368   8.894   7.350
 4286ETHY    C1 4202  36.804   8.786   7.286
 4287ETHY    C1 4203  37.330   8.748   7.201
 4288ETHY    C1 4204  37.845   8.812   7.113
 4289ETHY    C1 4205  38.339   8.966   7.026
 4290ETHY    C1 4206  38.799   9.211   6.945
 4291ETHY    C1 4207  39.218   9.543   6.873
 4292THSLK    S 4208  36.339   8.388   7.663
 4293ETHY    C1 4209  36.658   8.072   7.728
 4294ETHY    C1 4210  37.091   7.768   7.807
 4295ETHY    C1 4211  37.566   7.558   7.887
 4296ETHY    C1 4212  38.069   7.437   7.971
 4297ETHY    C1 4213  38.589   7.411   8.058
 4298ETHY    C1 4214  39.117   7.481   8.147
 4299AUSL   AUS 4215  36.112   8.855   7.654
 4300AUSL   AUS 4216  35.854   9.202   7.767
 4301AUL    AUL 4217  36.232   9.182   7.806
 4302THSLK    S 4218  36.037   9.316   7.926
 4303ETHY    C1 4219  36.420   9.434   8.140
 4304ETHY    C1 4220  36.838   9.657   8.388
 4305ETHY    C1 4221  37.197   9.962   8.622
 4306ETHY    C1 4222  37.494  10.335   8.840
 4307ETHY    C1 4223  37.719  10.769   9.038
 4308ETHY    C1 4224  37.866  11.257   9.215
 4309THSLK    S 4225  36.366   8.894   7.665
 4310ETHY    C1 4226  36.801   8.786   7.740
 4311ETHY    C1 4227  37.327   8.748   7.826
 4312ETHY    C1 4228  37.842   8.811   7.910
 4313ETHY    C1 4229  38.336   8.965   7.993
 4314ETHY    C1 4230  38.797   9.210   8.075
 4315ETHY    C1 4231  39.214   9.542   8.155
 4316AUSL   AUS 4232  34.858   9.100   7.503
 4317AUSL   AUS 4233  34.928   8.956   7.919
 4318AUL    AUL 4234  34.644   9.182   7.806
 4319THSLK    S 4235  34.795   9.075   8.109
 4320ETHY    C1 4236  34.612   9.147   8.519
 4321ETHY    C1 4237  34.340   9.287   8.957
 4322ETHY    C1 4238  34.015   9.478   9.324
 4323ETHY    C1 4239  33.649   9.709   9.619
 4324ETHY    C1 4240  33.246   9.976   9.831
 4325ETHY    C1 4241  32.812  10.272   9.956
 4326THSLK    S 4242  34.647   9.241   7.508
 4327ETHY    C1 4243  34.425   9.638   7.513
 4328ETHY    C1 4244  34.089  10.053   7.514
 4329ETHY    C1 4245  33.686  10.392   7.511
 4330ETHY    C1 4246  33.232  10.653   7.510
 4331ETHY    C1 4247  32.733  10.827   7.510
 4332ETHY    C1 4248  32.200  10.911   7.514
 4333AUSL   AUS 4249  34.764   8.855   7.351
 4334AUSL   AUS 4250  35.022   9.202   7.238
 4335AUL    AUL 4251  34.644   9.182   7.199
 4336THSLK    S 4252  34.537   8.970   7.303
 4337ETHY    C1 4253  34.218   9.170   7.049
 4338ETHY    C1 4254  33.785   9.376   6.813
 4339ETHY    C1 4255  33.310   9.542   6.661
 4340ETHY    C1 4256  32.807   9.671   6.590
 4341ETHY    C1 4257  32.287   9.761   6.605
 4342ETHY    C1 4258  31.759   9.809   6.708
 4343THSLK    S 4259  34.910   9.365   7.060
 4344ETHY    C1 4260  34.831   9.675   6.737
 4345ETHY    C1 4261  34.656  10.049   6.397
 4346ETHY    C1 4262  34.402  10.417   6.120
 4347ETHY    C1 4263  34.082  10.774   5.909
 4348ETHY    C1 4264  33.701  11.112   5.770
 4349ETHY    C1 4265  33.266  11.426   5.709
 4350AUSL   AUS 4266  34.764   8.855   7.654
 4351AUSL   AUS 4267  34.764   8.528   7.351
 4352AUL    AUL 4268  34.456   8.691   7.503
 4353THSLK    S 4269  34.510   8.455   7.394
 4354ETHY    C1 4270  34.075   8.437   7.524
 4355ETHY    C1 4271  33.549   8.377   7.597
 4356ETHY    C1 4272  33.034   8.273   7.578
 4357ETHY    C1 4273  32.540   8.130   7.477
 4358ETHY    C1 4274  32.080   7.947   7.294
 4359ETHY    C1 4275  31.662   7.727   7.034
 4360THSLK    S 4276  34.536   8.961   7.707
 4361ETHY    C1 4277  34.215   9.152   7.966
 4362ETHY    C1 4278  33.782   9.356   8.202
 4363ETHY    C1 4279  33.307   9.527   8.352
 4364ETHY    C1 4280  32.805   9.659   8.422
 4365ETHY    C1 4281  32.285   9.747   8.407
 4366ETHY    C1 4282  31.756   9.788   8.308
 4367AUSL   AUS 4283  36.018   8.282   7.503
 4368AUSL   AUS 4284  35.948   8.427   7.919
 4369AUL    AUL 4285  36.232   8.201   7.806
 4370THSLK    S 4286  36.229   8.141   7.508
 4371ETHY    C1 4287  36.451   7.745   7.513
 4372ETHY    C1 4288  36.787   7.330   7.514
 4373ETHY    C1 4289  37.190   6.991   7.511
 4374ETHY    C1 4290  37.644   6.730   7.510
 4375ETHY    C1 4291  38.143   6.556   7.510
 4376ETHY    C1 4292  38.676   6.472   7.514
 4377THSLK    S 4293  36.075   8.236   8.064
 4378ETHY    C1 4294  36.252   7.871   8.270
 4379ETHY    C1 4295  36.523   7.499   8.540
 4380ETHY    C1 4296  36.850   7.210   8.834
 4381ETHY    C1 4297  37.219   7.002   9.142
 4382ETHY    C1 4298  37.621   6.884   9.462
 4383ETHY    C1 4299  38.050   6.859   9.789
 4384AUSL   AUS 4300  36.112   8.528   7.351
 4385AUSL   AUS 4301  35.854   8.181   7.238
 4386AUL    AUL 4302  36.232   8.201   7.199
 4387THSLK    S 4303  36.340   8.388   7.353
 4388ETHY    C1 4304  36.661   8.071   7.298
 4389ETHY    C1 4305  37.094   7.768   7.221
 4390ETHY    C1 4306  37.569   7.558   7.136
 4391ETHY    C1 4307  38.071   7.437   7.048
 4392ETHY    C1 4308  38.591   7.410   6.963
 4393ETHY    C1 4309  39.120   7.481   6.881
 4394THSLK    S 4310  35.970   7.992   7.108
 4395ETHY    C1 4311  36.054   7.563   6.984
 4396ETHY    C1 4312  36.229   7.091   6.803
 4397ETHY    C1 4313  36.482   6.680   6.593
 4398ETHY    C1 4314  36.800   6.332   6.366
 4399ETHY    C1 4315  37.182   6.057   6.126
 4400ETHY    C1 4316  37.620   5.860   5.880
 4401AUSL   AUS 4317  34.858   8.282   7.503
 4402AUSL   AUS 4318  34.928   8.427   7.086
 4403AUL    AUL 4319  34.644   8.201   7.199
 4404THSLK    S 4320  34.757   8.256   6.978
 4405ETHY    C1 4321  34.393   7.991   6.921
 4406ETHY    C1 4322  33.971   7.701   6.766
 4407ETHY    C1 4323  33.579   7.449   6.521
 4408ETHY    C1 4324  33.225   7.236   6.200
 4409ETHY    C1 4325  32.918   7.063   5.806
 4410ETHY    C1 4326  32.667   6.936   5.346
 4411THSLK    S 4327  34.592   8.230   7.508
 4412ETHY    C1 4328  34.138   8.208   7.513
 4413ETHY    C1 4329  33.616   8.094   7.514
 4414ETHY    C1 4330  33.134   7.885   7.511
 4415ETHY    C1 4331  32.697   7.595   7.510
 4416ETHY    C1 4332  32.318   7.228   7.510
 4417ETHY    C1 4333  32.005   6.788   7.514
 4418AUSL   AUS 4334  34.764   8.528   7.654
 4419AUSL   AUS 4335  35.022   8.181   7.767
 4420AUL    AUL 4336  34.644   8.201   7.806
 4421THSLK    S 4337  34.834   8.041   7.878
 4422ETHY    C1 4338  34.447   7.804   7.893
 4423ETHY    C1 4339  34.029   7.484   7.982
 4424ETHY    C1 4340  33.671   7.135   8.149
 4425ETHY    C1 4341  33.376   6.771   8.382
 4426ETHY    C1 4342  33.151   6.400   8.683
 4427ETHY    C1 4343  33.000   6.029   9.045
 4428THSLK    S 4344  34.508   8.465   7.616
 4429ETHY    C1 4345  34.072   8.455   7.491
 4430ETHY    C1 4346  33.546   8.396   7.419
 4431ETHY    C1 4347  33.031   8.289   7.436
 4432ETHY    C1 4348  32.537   8.143   7.535
 4433ETHY    C1 4349  32.077   7.961   7.718
 4434ETHY    C1 4350  31.658   7.748   7.983
 4435AUSL   AUS 4351  35.438   9.271   7.912
 4436AUSL   AUS 4352  35.022   9.202   7.767
 4437AUL    AUL 4353  35.135   9.486   7.993
 4438THSLK    S 4354  34.906   9.358   7.952
 4439ETHY    C1 4355  34.822   9.660   8.280
 4440ETHY    C1 4356  34.647  10.033   8.621
 4441ETHY    C1 4357  34.394  10.404   8.895
 4442ETHY    C1 4358  34.076  10.763   9.105
 4443ETHY    C1 4359  33.694  11.101   9.244
 4444ETHY    C1 4360  33.256  11.409   9.309
 4445THSLK    S 4361  35.480   9.493   8.035
 4446ETHY    C1 4362  35.664   9.768   8.347
 4447ETHY    C1 4363  35.814  10.148   8.691
 4448ETHY    C1 4364  35.880  10.571   8.998
 4449ETHY    C1 4365  35.867  11.022   9.264
 4450ETHY    C1 4366  35.770  11.491   9.485
 4451ETHY    C1 4367  35.590  11.970   9.656
 4452AUSL   AUS 4368  35.286   9.365   7.666
 4453AUSL   AUS 4369  35.590   9.365   7.339
 4454AUL    AUL 4370  35.438   9.673   7.503
 4455THSLK    S 4371  35.329   9.609   7.776
 4456ETHY    C1 4372  35.473  10.003   7.951
 4457ETHY    C1 4373  35.560  10.497   8.137
 4458ETHY    C1 4374  35.548  10.998   8.294
 4459ETHY    C1 4375  35.447  11.496   8.425
 4460ETHY    C1 4376  35.255  11.977   8.527
 4461ETHY    C1 4377  34.975  12.432   8.600
 4462THSLK    S 4378  35.645   9.596   7.243
 4463ETHY    C1 4379  35.921   9.926   7.096
 4464ETHY    C1 4380  36.171  10.367   6.927
 4465ETHY    C1 4381  36.327  10.844   6.771
 4466ETHY    C1 4382  36.396  11.346   6.635
 4467ETHY    C1 4383  36.372  11.862   6.525
 4468ETHY    C1 4384  36.255  12.382   6.443
 4469AUSL   AUS 4385  35.590   9.365   7.666
 4470AUSL   AUS 4386  35.703   9.108   8.013
 4471AUL    AUL 4387  35.741   9.486   7.993
 4472THSLK    S 4388  35.874   9.216   8.183
 4473ETHY    C1 4389  36.169   9.281   8.523
 4474ETHY    C1 4390  36.487   9.443   8.920
 4475ETHY    C1 4391  36.755   9.692   9.298
 4476ETHY    C1 4392  36.969  10.014   9.653
 4477ETHY    C1 4393  37.121  10.402   9.976
 4478ETHY    C1 4394  37.207  10.852  10.262
 4479THSLK    S 4395  35.643   9.594   7.772
 4480ETHY    C1 4396  35.915   9.922   7.929
 4481ETHY    C1 4397  36.165  10.362   8.100
 4482ETHY    C1 4398  36.323  10.841   8.251
 4483ETHY    C1 4399  36.392  11.343   8.383
 4484ETHY    C1 4400  36.368  11.858   8.494
 4485ETHY    C1 4401  36.249  12.377   8.585
 4486AUSL   AUS 4402  35.438   8.111   7.912
 4487AUSL   AUS 4403  35.854   8.181   7.767
 4488AUL    AUL 4404  35.741   7.897   7.993
 4489THSLK    S 4405  35.391   7.861   7.989
 4490ETHY    C1 4406  35.201   7.465   8.103
 4491ETHY    C1 4407  35.050   6.987   8.289
 4492ETHY    C1 4408  34.987   6.522   8.528
 4493ETHY    C1 4409  35.002   6.080   8.809
 4494ETHY    C1 4410  35.098   5.673   9.132
 4495ETHY    C1 4411  35.273   5.310   9.489
 4496THSLK    S 4412  35.966   7.994   7.907
 4497ETHY    C1 4413  36.045   7.566   8.040
 4498ETHY    C1 4414  36.220   7.096   8.222
 4499ETHY    C1 4415  36.474   6.684   8.428
 4500ETHY    C1 4416  36.794   6.335   8.652
 4501ETHY    C1 4417  37.175   6.060   8.893
 4502ETHY    C1 4418  37.610   5.864   9.147
 4503AUSL   AUS 4419  35.286   8.018   7.666
 4504AUSL   AUS 4420  35.173   8.275   8.013
 4505AUL    AUL 4421  35.135   7.897   7.993
 4506THSLK    S 4422  35.231   7.782   7.745
 4507ETHY    C1 4423  34.956   7.423   7.788
 4508ETHY    C1 4424  34.705   6.958   7.869
 4509ETHY    C1 4425  34.549   6.468   7.981
 4510ETHY    C1 4426  34.480   5.969   8.122
 4511ETHY    C1 4427  34.504   5.469   8.292
 4512ETHY    C1 4428  34.621   4.981   8.489
 4513THSLK    S 4429  34.995   8.109   8.129
 4514ETHY    C1 4430  34.693   7.791   8.248
 4515ETHY    C1 4431  34.374   7.424   8.471
 4516ETHY    C1 4432  34.109   7.087   8.776
 4517ETHY    C1 4433  33.897   6.785   9.147
 4518ETHY    C1 4434  33.744   6.527   9.582
 4519ETHY    C1 4435  33.653   6.320  10.072
 4520AUSL   AUS 4436  35.590   8.018   7.666
 4521AUSL   AUS 4437  35.286   8.018   7.339
 4522AUL    AUL 4438  35.438   7.710   7.503
 4523THSLK    S 4439  35.233   7.779   7.270
 4524ETHY    C1 4440  34.961   7.417   7.236
 4525ETHY    C1 4441  34.711   6.952   7.157
 4526ETHY    C1 4442  34.554   6.463   7.041
 4527ETHY    C1 4443  34.484   5.964   6.896
 4528ETHY    C1 4444  34.508   5.465   6.727
 4529ETHY    C1 4445  34.627   4.974   6.538
 4530THSLK    S 4446  35.544   7.766   7.749
 4531ETHY    C1 4447  35.397   7.340   7.811
 4532ETHY    C1 4448  35.311   6.822   7.906
 4533ETHY    C1 4449  35.323   6.309   8.025
 4534ETHY    C1 4450  35.425   5.814   8.165
 4535ETHY    C1 4451  35.617   5.349   8.325
 4536ETHY    C1 4452  35.895   4.923   8.504
 4537AUSL   AUS 4453  35.438   9.271   7.094
 4538AUSL   AUS 4454  35.854   9.202   7.238
 4539AUL    AUL 4455  35.741   9.486   7.012
 4540THSLK    S 4456  35.485   9.498   6.977
 4541ETHY    C1 4457  35.675   9.777   6.674
 4542ETHY    C1 4458  35.826  10.158   6.330
 4543ETHY    C1 4459  35.890  10.578   6.021
 4544ETHY    C1 4460  35.874  11.028   5.752
 4545ETHY    C1 4461  35.778  11.498   5.532
 4546ETHY    C1 4462  35.603  11.981   5.366
 4547THSLK    S 4463  36.042   9.318   7.089
 4548ETHY    C1 4464  36.429   9.438   6.883
 4549ETHY    C1 4465  36.847   9.661   6.637
 4550ETHY    C1 4466  37.205   9.965   6.400
 4551ETHY    C1 4467  37.500  10.337   6.178
 4552ETHY    C1 4468  37.725  10.772   5.981
 4553ETHY    C1 4469  37.876  11.261   5.811
 4554AUSL   AUS 4470  35.286   9.365   7.339
 4555AUSL   AUS 4471  35.173   9.108   6.992
 4556AUL    AUL 4472  35.135   9.486   7.012
 4557THSLK    S 4473  35.332   9.612   7.239
 4558ETHY    C1 4474  35.479  10.009   7.074
 4559ETHY    C1 4475  35.565  10.503   6.889
 4560ETHY    C1 4476  35.553  11.004   6.727
 4561ETHY    C1 4477  35.451  11.500   6.593
 4562ETHY    C1 4478  35.259  11.981   6.492
 4563ETHY    C1 4479  34.981  12.439   6.427
 4564THSLK    S 4480  35.063   9.240   6.805
 4565ETHY    C1 4481  35.027   9.389   6.377
 4566ETHY    C1 4482  34.917   9.615   5.906
 4567ETHY    C1 4483  34.739   9.890   5.494
 4568ETHY    C1 4484  34.505  10.203   5.145
 4569ETHY    C1 4485  34.219  10.552   4.870
 4570ETHY    C1 4486  33.888  10.930   4.675
 4571AUSL   AUS 4487  35.438   8.111   7.094
 4572AUSL   AUS 4488  35.022   8.181   7.238
 4573AUL    AUL 4489  35.135   7.897   7.012
 4574THSLK    S 4490  34.839   8.033   7.134
 4575ETHY    C1 4491  34.456   7.789   7.124
 4576ETHY    C1 4492  34.038   7.468   7.035
 4577ETHY    C1 4493  33.679   7.122   6.866
 4578ETHY    C1 4494  33.382   6.761   6.631
 4579ETHY    C1 4495  33.157   6.389   6.331
 4580ETHY    C1 4496  33.010   6.012   5.974
 4581THSLK    S 4497  35.396   7.856   7.024
 4582ETHY    C1 4498  35.212   7.455   6.917
 4583ETHY    C1 4499  35.062   6.977   6.732
 4584ETHY    C1 4500  34.996   6.514   6.491
 4585ETHY    C1 4501  35.009   6.074   6.206
 4586ETHY    C1 4502  35.106   5.667   5.885
 4587ETHY    C1 4503  35.286   5.299   5.533
 4588AUSL   AUS 4504  35.590   8.018   7.339
 4589AUSL   AUS 4505  35.703   8.275   6.992
 4590AUL    AUL 4506  35.741   7.897   7.012
 4591THSLK    S 4507  35.547   7.764   7.266
 4592ETHY    C1 4508  35.403   7.336   7.213
 4593ETHY    C1 4509  35.316   6.817   7.120
 4594ETHY    C1 4510  35.328   6.305   6.997
 4595ETHY    C1 4511  35.429   5.811   6.854
 4596ETHY    C1 4512  35.621   5.346   6.695
 4597ETHY    C1 4513  35.901   4.918   6.523
 4598THSLK    S 4514  35.820   8.085   6.859
 4599ETHY    C1 4515  35.864   7.683   6.651
 4600ETHY    C1 4516  35.974   7.252   6.355
 4601ETHY    C1 4517  36.150   6.889   6.017
 4602ETHY    C1 4518  36.381   6.595   5.651
 4603ETHY    C1 4519  36.667   6.378   5.264
 4604ETHY    C1 4520  37.004   6.242   4.865
 4605AUC    AUC 4521  43.618  46.387   7.503
 4606AUC    AUC 4522  43.863  46.387   7.351
 4607AUC    AUC 4523  43.863  46.387   7.654
 4608AUC    AUC 4524  43.373  46.387   7.351
 4609AUC    AUC 4525  43.373  46.387   7.654
 4610AUC    AUC 4526  43.466  46.633   7.503
 4611AUC    AUC 4527  43.770  46.633   7.503
 4612AUC    AUC 4528  43.466  46.142   7.503
 4613AUC    AUC 4529  43.770  46.142   7.503
 4614AUC    AUC 4530  43.618  46.236   7.748
 4615AUC    AUC 4531  43.618  46.539   7.748
 4616AUC    AUC 4532  43.618  46.236   7.257
 4617AUC    AUC 4533  43.618  46.539   7.257
 4618AUC    AUC 4534  44.109  46.387   7.199
 4619AUC    AUC 4535  44.109  46.387   7.503
 4620AUC    AUC 4536  44.109  46.387   7.806
 4621AUC    AUC 4537  43.127  46.387   7.199
 4622AUC    AUC 4538  43.127  46.387   7.503
 4623AUC    AUC 4539  43.127  46.387   7.806
 4624AUC    AUC 4540  43.315  46.878   7.503
 4625AUC    AUC 4541  43.618  46.878   7.503
 4626AUC    AUC 4542  43.921  46.878   7.503
 4627AUC    AUC 4543  43.315  45.897   7.503
 4628AUC    AUC 4544  43.618  45.897   7.503
 4629AUC    AUC 4545  43.921  45.897   7.503
 4630AUC    AUC 4546  43.618  46.084   7.993
 4631AUC    AUC 4547  43.618  46.387   7.993
 4632AUC    AUC 4548  43.618  46.691   7.993
 4633AUC    AUC 4549  43.618  46.084   7.012
 4634AUC    AUC 4550  43.618  46.387   7.012
 4635AUC    AUC 4551  43.618  46.691   7.012
 4636AUC    AUC 4552  43.863  46.236   7.900
 4637AUC    AUC 4553  43.863  46.539   7.900
 4638AUC    AUC 4554  43.863  46.236   7.106
 4639AUC    AUC 4555  43.863  46.539   7.106
 4640AUC    AUC 4556  43.373  46.236   7.900
 4641AUC    AUC 4557  43.373  46.539   7.900
 4642AUC    AUC 4558  43.373  46.236   7.106
 4643AUC    AUC 4559  43.373  46.539   7.106
 4644AUC    AUC 4560  44.015  46.633   7.351
 4645AUC    AUC 4561  44.015  46.633   7.654
 4646AUC    AUC 4562  43.221  46.633   7.351
 4647AUC    AUC 4563  43.221  46.633   7.654
 4648AUC    AUC 4564  44.015  46.142   7.351
 4649AUC    AUC 4565  44.015  46.142   7.654
 4650AUC    AUC 4566  43.221  46.142   7.351
 4651AUC    AUC 4567  43.221  46.142   7.654
 4652AUC    AUC 4568  43.466  46.785   7.748
 4653AUC    AUC 4569  43.770  46.785   7.748
 4654AUC    AUC 4570  43.466  45.990   7.748
 4655AUC    AUC 4571  43.770  45.990   7.748
 4656AUC    AUC 4572  43.466  46.785   7.257
 4657AUC    AUC 4573  43.770  46.785   7.257
 4658AUC    AUC 4574  43.466  45.990   7.257
 4659AUC    AUC 4575  43.770  45.990   7.257
 4660AUSL   AUS 4576  44.027  46.387   8.083
 4661AUSL   AUS 4577  43.883  45.971   8.013
 4662AUL    AUL 4578  44.109  46.084   8.297
 4663THSLK    S 4579  43.993  45.784   8.153
 4664ETHY    C1 4580  44.029  45.385   8.368
 4665ETHY    C1 4581  44.139  44.955   8.665
 4666ETHY    C1 4582  44.317  44.591   9.000
 4667ETHY    C1 4583  44.551  44.295   9.364
 4668ETHY    C1 4584  44.837  44.078   9.752
 4669ETHY    C1 4585  45.168  43.945  10.156
 4670THSLK    S 4586  44.120  46.335   8.324
 4671ETHY    C1 4587  44.324  46.115   8.665
 4672ETHY    C1 4588  44.588  45.938   9.094
 4673ETHY    C1 4589  44.864  45.862   9.535
 4674ETHY    C1 4590  45.141  45.879   9.980
 4675ETHY    C1 4591  45.411  45.992  10.419
 4676ETHY    C1 4592  45.670  46.201  10.845
 4677AUSL   AUS 4593  43.782  46.236   8.176
 4678AUSL   AUS 4594  43.454  46.539   8.176
 4679AUL    AUL 4595  43.618  46.387   8.484
 4680THSLK    S 4596  43.857  46.181   8.413
 4681ETHY    C1 4597  43.921  45.901   8.765
 4682ETHY    C1 4598  44.024  45.646   9.223
 4683ETHY    C1 4599  44.151  45.487   9.708
 4684ETHY    C1 4600  44.293  45.418  10.208
 4685ETHY    C1 4601  44.447  45.446  10.713
 4686ETHY    C1 4602  44.607  45.570  11.212
 4687THSLK    S 4603  43.369  46.493   8.428
 4688ETHY    C1 4604  43.295  46.343   8.850
 4689ETHY    C1 4605  43.190  46.255   9.367
 4690ETHY    C1 4606  43.068  46.267   9.878
 4691ETHY    C1 4607  42.930  46.368  10.373
 4692ETHY    C1 4608  42.775  46.561  10.840
 4693ETHY    C1 4609  42.606  46.842  11.268
 4694AUSL   AUS 4610  43.782  46.539   8.176
 4695AUSL   AUS 4611  44.128  46.652   7.919
 4696AUL    AUL 4612  44.109  46.691   8.297
 4697THSLK    S 4613  43.867  46.595   8.410
 4698ETHY    C1 4614  43.941  46.876   8.759
 4699ETHY    C1 4615  44.046  47.131   9.217
 4700ETHY    C1 4616  44.168  47.290   9.703
 4701ETHY    C1 4617  44.307  47.359  10.204
 4702ETHY    C1 4618  44.461  47.332  10.708
 4703ETHY    C1 4619  44.630  47.208  11.206
 4704THSLK    S 4620  44.300  46.750   8.080
 4705ETHY    C1 4621  44.663  46.721   8.350
 4706ETHY    C1 4622  45.085  46.777   8.673
 4707ETHY    C1 4623  45.477  46.931   8.989
 4708ETHY    C1 4624  45.831  47.169   9.293
 4709ETHY    C1 4625  46.138  47.490   9.580
 4710ETHY    C1 4626  46.389  47.887   9.844
 4711AUSL   AUS 4627  44.027  46.387   6.923
 4712AUSL   AUS 4628  43.883  46.804   6.992
 4713AUL    AUL 4629  44.109  46.691   6.708
 4714THSLK    S 4630  44.129  46.335   6.687
 4715ETHY    C1 4631  44.342  46.115   6.351
 4716ETHY    C1 4632  44.607  45.938   5.923
 4717ETHY    C1 4633  44.879  45.862   5.479
 4718ETHY    C1 4634  45.153  45.879   5.033
 4719ETHY    C1 4635  45.424  45.992   4.594
 4720ETHY    C1 4636  45.689  46.201   4.173
 4721THSLK    S 4637  44.061  46.915   6.829
 4722ETHY    C1 4638  44.363  46.983   6.497
 4723ETHY    C1 4639  44.682  47.146   6.100
 4724ETHY    C1 4640  44.947  47.393   5.719
 4725ETHY    C1 4641  45.159  47.713   5.362
 4726ETHY    C1 4642  45.312  48.103   5.039
 4727ETHY    C1 4643  45.403  48.555   4.759
 4728AUSL   AUS 4644  43.782  46.236   6.829
 4729AUSL   AUS 4645  44.128  46.123   7.086
 4730AUL    AUL 4646  44.109  46.084   6.708
 4731THSLK    S 4647  44.261  45.931   6.949
 4732ETHY    C1 4648  44.444  45.564   6.752
 4733ETHY    C1 4649  44.716  45.192   6.483
 4734ETHY    C1 4650  45.041  44.903   6.186
 4735ETHY    C1 4651  45.407  44.696   5.874
 4736ETHY    C1 4652  45.811  44.577   5.555
 4737ETHY    C1 4653  46.244  44.552   5.235
 4738THSLK    S 4654  43.867  46.180   6.596
 4739ETHY    C1 4655  43.941  45.899   6.246
 4740ETHY    C1 4656  44.046  45.643   5.788
 4741ETHY    C1 4657  44.168  45.485   5.302
 4742ETHY    C1 4658  44.307  45.416   4.801
 4743ETHY    C1 4659  44.461  45.443   4.297
 4744ETHY    C1 4660  44.630  45.567   3.799
 4745AUSL   AUS 4661  43.782  46.539   6.829
 4746AUSL   AUS 4662  43.454  46.236   6.829
 4747AUL    AUL 4663  43.618  46.387   6.521
 4748THSLK    S 4664  43.362  46.180   6.597
 4749ETHY    C1 4665  43.227  45.902   6.264
 4750ETHY    C1 4666  43.066  45.649   5.822
 4751ETHY    C1 4667  42.914  45.492   5.343
 4752ETHY    C1 4668  42.778  45.423   4.842
 4753ETHY    C1 4669  42.661  45.449   4.328
 4754ETHY    C1 4670  42.568  45.568   3.810
 4755THSLK    S 4671  43.884  46.493   6.583
 4756ETHY    C1 4672  44.030  46.343   6.179
 4757ETHY    C1 4673  44.192  46.252   5.678
 4758ETHY    C1 4674  44.339  46.262   5.173
 4759ETHY    C1 4675  44.472  46.363   4.677
 4760ETHY    C1 4676  44.589  46.558   4.200
 4761ETHY    C1 4677  44.690  46.844   3.754
 4762AUSL   AUS 4678  43.209  46.387   8.083
 4763AUSL   AUS 4679  43.353  46.804   8.013
 4764AUL    AUL 4680  43.127  46.691   8.297
 4765THSLK    S 4681  43.107  46.335   8.319
 4766ETHY    C1 4682  42.895  46.115   8.654
 4767ETHY    C1 4683  42.629  45.938   9.082
 4768ETHY    C1 4684  42.357  45.862   9.526
 4769ETHY    C1 4685  42.083  45.879   9.973
 4770ETHY    C1 4686  41.812  45.992  10.411
 4771ETHY    C1 4687  41.547  46.201  10.832
 4772THSLK    S 4688  43.236  46.928   8.202
 4773ETHY    C1 4689  43.193  47.071   8.632
 4774ETHY    C1 4690  43.082  47.296   9.104
 4775ETHY    C1 4691  42.906  47.573   9.515
 4776ETHY    C1 4692  42.675  47.889   9.863
 4777ETHY    C1 4693  42.389  48.237  10.138
 4778ETHY    C1 4694  42.052  48.610  10.334
 4779AUSL   AUS 4695  43.454  46.236   8.176
 4780AUSL   AUS 4696  43.108  46.123   7.919
 4781AUL    AUL 4697  43.127  46.084   8.297
 4782THSLK    S 4698  42.931  45.960   8.026
 4783ETHY    C1 4699  42.560  45.703   8.082
 4784ETHY    C1 4700  42.138  45.415   8.237
 4785ETHY    C1 4701  41.748  45.160   8.482
 4786ETHY    C1 4702  41.396  44.943   8.803
 4787ETHY    C1 4703  41.090  44.772   9.198
 4788ETHY    C1 4704  40.833  44.651   9.657
 4789THSLK    S 4705  43.352  46.182   8.406
 4790ETHY    C1 4706  43.206  45.906   8.736
 4791ETHY    C1 4707  43.044  45.654   9.178
 4792ETHY    C1 4708  42.897  45.496   9.658
 4793ETHY    C1 4709  42.764  45.426  10.160
 4794ETHY    C1 4710  42.647  45.452  10.674
 4795ETHY    C1 4711  42.546  45.573  11.190
 4796AUSL   AUS 4712  43.209  46.387   6.923
 4797AUSL   AUS 4713  43.353  45.971   6.992
 4798AUL    AUL 4714  43.127  46.084   6.708
 4799THSLK    S 4715  43.116  46.335   6.681
 4800ETHY    C1 4716  42.912  46.115   6.341
 4801ETHY    C1 4717  42.648  45.938   5.911
 4802ETHY    C1 4718  42.372  45.862   5.470
 4803ETHY    C1 4719  42.095  45.879   5.025
 4804ETHY    C1 4720  41.825  45.992   4.586
 4805ETHY    C1 4721  41.566  46.201   4.161
 4806THSLK    S 4722  43.182  45.798   6.878
 4807ETHY    C1 4723  42.887  45.472   6.760
 4808ETHY    C1 4724  42.569  45.105   6.538
 4809ETHY    C1 4725  42.301  44.770   6.233
 4810ETHY    C1 4726  42.087  44.470   5.861
 4811ETHY    C1 4727  41.935  44.212   5.426
 4812ETHY    C1 4728  41.849  44.000   4.937
 4813AUSL   AUS 4729  43.454  46.539   6.829
 4814AUSL   AUS 4730  43.108  46.652   7.086
 4815AUL    AUL 4731  43.127  46.691   6.708
 4816THSLK    S 4732  42.981  46.779   6.895
 4817ETHY    C1 4733  42.804  46.860   6.484
 4818ETHY    C1 4734  42.533  47.000   6.046
 4819ETHY    C1 4735  42.206  47.188   5.679
 4820ETHY    C1 4736  41.837  47.417   5.385
 4821ETHY    C1 4737  41.435  47.684   5.173
 4822ETHY    C1 4738  41.006  47.986   5.047
 4823THSLK    S 4739  43.379  46.495   6.576
 4824ETHY    C1 4740  43.315  46.348   6.150
 4825ETHY    C1 4741  43.212  46.259   5.634
 4826ETHY    C1 4742  43.085  46.270   5.123
 4827ETHY    C1 4743  42.943  46.371   4.629
 4828ETHY    C1 4744  42.790  46.564   4.162
 4829ETHY    C1 4745  42.629  46.847   3.732
 4830AUSL   AUS 4746  44.198  46.796   7.503
 4831AUSL   AUS 4747  44.128  46.652   7.086
 4832AUL    AUL 4748  44.412  46.878   7.199
 4833THSLK    S 4749  44.306  46.751   6.934
 4834ETHY    C1 4750  44.676  46.724   6.671
 4835ETHY    C1 4751  45.098  46.780   6.349
 4836ETHY    C1 4752  45.488  46.934   6.030
 4837ETHY    C1 4753  45.840  47.171   5.724
 4838ETHY    C1 4754  46.147  47.492   5.438
 4839ETHY    C1 4755  46.403  47.891   5.179
 4840THSLK    S 4756  44.464  46.849   7.508
 4841ETHY    C1 4757  44.918  46.871   7.513
 4842ETHY    C1 4758  45.440  46.985   7.514
 4843ETHY    C1 4759  45.923  47.194   7.511
 4844ETHY    C1 4760  46.359  47.484   7.510
 4845ETHY    C1 4761  46.738  47.851   7.510
 4846ETHY    C1 4762  47.052  48.291   7.514
 4847AUSL   AUS 4763  44.292  46.551   7.351
 4848AUSL   AUS 4764  44.292  46.224   7.654
 4849AUL    AUL 4765  44.600  46.387   7.503
 4850THSLK    S 4766  44.548  46.590   7.350
 4851ETHY    C1 4767  44.984  46.482   7.286
 4852ETHY    C1 4768  45.510  46.444   7.201
 4853ETHY    C1 4769  46.025  46.508   7.113
 4854ETHY    C1 4770  46.519  46.662   7.026
 4855ETHY    C1 4771  46.979  46.907   6.945
 4856ETHY    C1 4772  47.398  47.239   6.873
 4857THSLK    S 4773  44.519  46.084   7.663
 4858ETHY    C1 4774  44.838  45.768   7.728
 4859ETHY    C1 4775  45.271  45.464   7.807
 4860ETHY    C1 4776  45.746  45.254   7.887
 4861ETHY    C1 4777  46.249  45.133   7.971
 4862ETHY    C1 4778  46.769  45.107   8.058
 4863ETHY    C1 4779  47.297  45.177   8.147
 4864AUSL   AUS 4780  44.292  46.551   7.654
 4865AUSL   AUS 4781  44.034  46.898   7.767
 4866AUL    AUL 4782  44.412  46.878   7.806
 4867THSLK    S 4783  44.217  47.012   7.926
 4868ETHY    C1 4784  44.600  47.130   8.140
 4869ETHY    C1 4785  45.018  47.353   8.388
 4870ETHY    C1 4786  45.377  47.658   8.622
 4871ETHY    C1 4787  45.674  48.031   8.840
 4872ETHY    C1 4788  45.899  48.465   9.038
 4873ETHY    C1 4789  46.046  48.953   9.215
 4874THSLK    S 4790  44.546  46.590   7.665
 4875ETHY    C1 4791  44.981  46.482   7.740
 4876ETHY    C1 4792  45.507  46.444   7.826
 4877ETHY    C1 4793  46.022  46.507   7.910
 4878ETHY    C1 4794  46.516  46.661   7.993
 4879ETHY    C1 4795  46.977  46.906   8.075
 4880ETHY    C1 4796  47.394  47.238   8.155
 4881AUSL   AUS 4797  43.038  46.796   7.503
 4882AUSL   AUS 4798  43.108  46.652   7.919
 4883AUL    AUL 4799  42.824  46.878   7.806
 4884THSLK    S 4800  42.975  46.771   8.109
 4885ETHY    C1 4801  42.792  46.843   8.519
 4886ETHY    C1 4802  42.520  46.983   8.957
 4887ETHY    C1 4803  42.195  47.174   9.324
 4888ETHY    C1 4804  41.829  47.405   9.619
 4889ETHY    C1 4805  41.426  47.672   9.831
 4890ETHY    C1 4806  40.992  47.968   9.956
 4891THSLK    S 4807  42.827  46.937   7.508
 4892ETHY    C1 4808  42.605  47.334   7.513
 4893ETHY    C1 4809  42.269  47.749   7.514
 4894ETHY    C1 4810  41.866  48.088   7.511
 4895ETHY    C1 4811  41.412  48.349   7.510
 4896ETHY    C1 4812  40.913  48.523   7.510
 4897ETHY    C1 4813  40.380  48.607   7.514
 4898AUSL   AUS 4814  42.944  46.551   7.351
 4899AUSL   AUS 4815  43.202  46.898   7.238
 4900AUL    AUL 4816  42.824  46.878   7.199
 4901THSLK    S 4817  42.717  46.666   7.303
 4902ETHY    C1 4818  42.398  46.866   7.049
 4903ETHY    C1 4819  41.965  47.072   6.813
 4904ETHY    C1 4820  41.490  47.238   6.661
 4905ETHY    C1 4821  40.987  47.367   6.590
 4906ETHY    C1 4822  40.467  47.457   6.605
 4907ETHY    C1 4823  39.939  47.505   6.708
 4908THSLK    S 4824  43.090  47.061   7.060
 4909ETHY    C1 4825  43.011  47.371   6.737
 4910ETHY    C1 4826  42.836  47.745   6.397
 4911ETHY    C1 4827  42.582  48.113   6.120
 4912ETHY    C1 4828  42.262  48.470   5.909
 4913ETHY    C1 4829  41.881  48.808   5.770
 4914ETHY    C1 4830  41.446  49.122   5.709
 4915AUSL   AUS 4831  42.944  46.551   7.654
 4916AUSL   AUS 4832  42.944  46.224   7.351
 4917AUL    AUL 4833  42.636  46.387   7.503
 4918THSLK    S 4834  42.690  46.151   7.394
 4919ETHY    C1 4835  42.255  46.133   7.524
 4920ETHY    C1 4836  41.729  46.073   7.597
 4921ETHY    C1 4837  41.214  45.969   7.578
 4922ETHY    C1 4838  40.720  45.826   7.477
 4923ETHY    C1 4839  40.260  45.643   7.294
 4924ETHY    C1 4840  39.842  45.423   7.034
 4925THSLK    S 4841  42.716  46.657   7.707
 4926ETHY    C1 4842  42.395  46.848   7.966
 4927ETHY    C1 4843  41.962  47.052   8.202
 4928ETHY    C1 4844  41.487  47.223   8.352
 4929ETHY    C1 4845  40.985  47.355   8.422
 4930ETHY    C1 4846  40.465  47.443   8.407
 4931ETHY    C1 4847  39.936  47.484   8.308
 4932AUSL   AUS 4848  44.198  45.978   7.503
 4933AUSL   AUS 4849  44.128  46.123   7.919
 4934AUL    AUL 4850  44.412  45.897   7.806
 4935THSLK    S 4851  44.409  45.837   7.508
 4936ETHY    C1 4852  44.631  45.441   7.513
 4937ETHY    C1 4853  44.967  45.026   7.514
 4938ETHY    C1 4854  45.370  44.687   7.511
 4939ETHY    C1 4855  45.824  44.426   7.510
 4940ETHY    C1 4856  46.323  44.252   7.510
 4941ETHY    C1 4857  46.856  44.168   7.514
 4942THSLK    S 4858  44.255  45.932   8.064
 4943ETHY    C1 4859  44.432  45.567   8.270
 4944ETHY    C1 4860  44.703  45.195   8.540
 4945ETHY    C1 4861  45.030  44.906   8.834
 4946ETHY    C1 4862  45.399  44.698   9.142
 4947ETHY    C1 4863  45.801  44.580   9.462
 4948ETHY    C1 4864  46.230  44.555   9.789
 4949AUSL   AUS 4865  44.292  46.224   7.351
 4950AUSL   AUS 4866  44.034  45.877   7.238
 4951AUL    AUL 4867  44.412  45.897   7.199
 4952THSLK    S 4868  44.520  46.084   7.353
 4953ETHY    C1 4869  44.841  45.767   7.298
 4954ETHY    C1 4870  45.274  45.464   7.221
 4955ETHY    C1 4871  45.749  45.254   7.136
 4956ETHY    C1 4872  46.251  45.133   7.048
 4957ETHY    C1 4873  46.771  45.106   6.963
 4958ETHY    C1 4874  47.300  45.177   6.881
 4959THSLK    S 4875  44.150  45.688   7.108
 4960ETHY    C1 4876  44.234  45.259   6.984
 4961ETHY    C1 4877  44.409  44.787   6.803
 4962ETHY    C1 4878  44.662  44.376   6.593
 4963ETHY    C1 4879  44.980  44.028   6.366
 4964ETHY    C1 4880  45.362  43.753   6.126
 4965ETHY    C1 4881  45.800  43.556   5.880
 4966AUSL   AUS 4882  43.038  45.978   7.503
 4967AUSL   AUS 4883  43.108  46.123   7.086
 4968AUL    AUL 4884  42.824  45.897   7.199
 4969THSLK    S 4885  42.937  45.952   6.978
 4970ETHY    C1 4886  42.573  45.687   6.921
 4971ETHY    C1 4887  42.151  45.397   6.766
 4972ETHY    C1 4888  41.759  45.145   6.521
 4973ETHY    C1 4889  41.405  44.932   6.200
 4974ETHY    C1 4890  41.098  44.759   5.806
 4975ETHY    C1 4891  40.847  44.632   5.346
 4976THSLK    S 4892  42.772  45.926   7.508
 4977ETHY    C1 4893  42.318  45.904   7.513
 4978ETHY    C1 4894  41.796  45.790   7.514
 4979ETHY    C1 4895  41.314  45.581   7.511
 4980ETHY    C1 4896  40.877  45.291   7.510
 4981ETHY    C1 4897  40.498  44.924   7.510
 4982ETHY    C1 4898  40.185  44.484   7.514
 4983AUSL   AUS 4899  42.944  46.224   7.654
 4984AUSL   AUS 4900  43.202  45.877   7.767
 4985AUL    AUL 4901  42.824  45.897   7.806
 4986THSLK    S 4902  43.014  45.737   7.878
 4987ETHY    C1 4903  42.627  45.500   7.893
 4988ETHY    C1 4904  42.209  45.180   7.982
 4989ETHY    C1 4905  41.851  44.831   8.149
 4990ETHY    C1 4906  41.556  44.467   8.382
 4991ETHY    C1 4907  41.331  44.096   8.683
 4992ETHY    C1 4908  41.180  43.725   9.045
 4993THSLK    S 4909  42.688  46.161   7.616
 4994ETHY    C1 4910  42.252  46.151   7.491
 4995ETHY    C1 4911  41.726  46.092   7.419
 4996ETHY    C1 4912  41.211  45.985   7.436
 4997ETHY    C1 4913  40.717  45.839   7.535
 4998ETHY    C1 4914  40.257  45.657   7.718
 4999ETHY    C1 4915  39.838  45.444   7.983
 5000AUSL   AUS 4916  43.618  46.967   7.912
 5001AUSL   AUS 4917  43.202  46.898   7.767
 5002AUL    AUL 4918  43.315  47.182   7.993
 5003THSLK    S 4919  43.086  47.054   7.952
 5004ETHY    C1 4920  43.002  47.356   8.280
 5005ETHY    C1 4921  42.827  47.729   8.621
 5006ETHY    C1 4922  42.574  48.100   8.895
 5007ETHY    C1 4923  42.256  48.459   9.105
 5008ETHY    C1 4924  41.874  48.797   9.244
 5009ETHY    C1 4925  41.436  49.105   9.309
 5010THSLK    S 4926  43.660  47.189   8.035
 5011ETHY    C1 4927  43.844  47.464   8.347
 5012ETHY    C1 4928  43.994  47.844   8.691
 5013ETHY    C1 4929  44.060  48.267   8.998
 5014ETHY    C1 4930  44.047  48.718   9.264
 5015ETHY    C1 4931  43.950  49.187   9.485
 5016ETHY    C1 4932  43.770  49.666   9.656
 5017AUSL   AUS 4933  43.466  47.061   7.666
 5018AUSL   AUS 4934  43.770  47.061   7.339
 5019AUL    AUL 4935  43.618  47.369   7.503
 5020THSLK    S 4936  43.509  47.305   7.776
 5021ETHY    C1 4937  43.653  47.699   7.951
 5022ETHY    C1 4938  43.740  48.193   8.137
 5023ETHY    C1 4939  43.728  48.694   8.294
 5024ETHY    C1 4940  43.627  49.192   8.425
 5025ETHY    C1 4941  43.435  49.673   8.527
 5026ETHY    C1 4942  43.155  50.128   8.600
 5027THSLK    S 4943  43.825  47.292   7.243
 5028ETHY    C1 4944  44.101  47.622   7.096
 5029ETHY    C1 4945  44.351  48.063   6.927
 5030ETHY    C1 4946  44.507  48.540   6.771
 5031ETHY    C1 4947  44.576  49.042   6.635
 5032ETHY    C1 4948  44.552  49.558   6.525
 5033ETHY    C1 4949  44.435  50.078   6.443
 5034AUSL   AUS 4950  43.770  47.061   7.666
 5035AUSL   AUS 4951  43.883  46.804   8.013
 5036AUL    AUL 4952  43.921  47.182   7.993
 5037THSLK    S 4953  44.054  46.912   8.183
 5038ETHY    C1 4954  44.349  46.977   8.523
 5039ETHY    C1 4955  44.667  47.139   8.920
 5040ETHY    C1 4956  44.935  47.388   9.298
 5041ETHY    C1 4957  45.149  47.710   9.653
 5042ETHY    C1 4958  45.301  48.098   9.976
 5043ETHY    C1 4959  45.387  48.548  10.262
 5044THSLK    S 4960  43.823  47.290   7.772
 5045ETHY    C1 4961  44.095  47.618   7.929
 5046ETHY    C1 4962  44.345  48.058   8.100
 5047ETHY    C1 4963  44.503  48.537   8.251
 5048ETHY    C1 4964  44.572  49.039   8.383
 5049ETHY    C1 4965  44.548  49.554   8.494
 5050ETHY    C1 4966  44.429  50.073   8.585
 5051AUSL   AUS 4967  43.618  45.807   7.912
 5052AUSL   AUS 4968  44.034  45.877   7.767
 5053AUL    AUL 4969  43.921  45.593   7.993
 5054THSLK    S 4970  43.571  45.557   7.989
 5055ETHY    C1 4971  43.381  45.161   8.103
 5056ETHY    C1 4972  43.230  44.683   8.289
 5057ETHY    C1 4973  43.167  44.218   8.528
 5058ETHY    C1 4974  43.182  43.776   8.809
 5059ETHY    C1 4975  43.278  43.369   9.132
 5060ETHY    C1 4976  43.453  43.006   9.489
 5061THSLK    S 4977  44.146  45.690   7.907
 5062ETHY    C1 4978  44.225  45.262   8.040
 5063ETHY    C1 4979  44.400  44.792   8.222
 5064ETHY    C1 4980  44.654  44.380   8.428
 5065ETHY    C1 4981  44.974  44.031   8.652
 5066ETHY    C1 4982  45.355  43.756   8.893
 5067ETHY    C1 4983  45.790  43.560   9.147
 5068AUSL   AUS 4984  43.466  45.714   7.666
 5069AUSL   AUS 4985  43.353  45.971   8.013
 5070AUL    AUL 4986  43.315  45.593   7.993
 5071THSLK    S 4987  43.411  45.478   7.745
 5072ETHY    C1 4988  43.136  45.119   7.788
 5073ETHY    C1 4989  42.885  44.654   7.869
 5074ETHY    C1 4990  42.729  44.164   7.981
 5075ETHY    C1 4991  42.660  43.665   8.122
 5076ETHY    C1 4992  42.684  43.165   8.292
 5077ETHY    C1 4993  42.801  42.677   8.489
 5078THSLK    S 4994  43.175  45.805   8.129
 5079ETHY    C1 4995  42.873  45.487   8.248
 5080ETHY    C1 4996  42.554  45.120   8.471
 5081ETHY    C1 4997  42.289  44.783   8.776
 5082ETHY    C1 4998  42.077  44.481   9.147
 5083ETHY    C1 4999  41.924  44.223   9.582
 5084ETHY    C1 5000  41.833  44.016  10.072
 5085AUSL   AUS 5001  43.770  45.714   7.666
 5086AUSL   AUS 5002  43.466  45.714   7.339
 5087AUL    AUL 5003  43.618  45.406   7.503
 5088THSLK    S 5004  43.413  45.475   7.270
 5089ETHY    C1 5005  43.141  45.113   7.236
 5090ETHY    C1 5006  42.891  44.648   7.157
 5091ETHY    C1 5007  42.734  44.159   7.041
 5092ETHY    C1 5008  42.664  43.660   6.896
 5093ETHY    C1 5009  42.688  43.161   6.727
 5094ETHY    C1 5010  42.807  42.670   6.538
 5095THSLK    S 5011  43.724  45.462   7.749
 5096ETHY    C1 5012  43.577  45.036   7.811
 5097ETHY    C1 5013  43.491  44.518   7.906
 5098ETHY    C1 5014  43.503  44.005   8.025
 5099ETHY    C1 5015  43.605  43.510   8.165
 5100ETHY    C1 5016  43.797  43.045   8.325
 5101ETHY    C1 5017  44.075  42.619   8.504
 5102AUSL   AUS 5018  43.618  46.967   7.094
 5103AUSL   AUS 5019  44.034  46.898   7.238
 5104AUL    AUL 5020  43.921  47.182   7.012
 5105THSLK    S 5021  43.665  47.194   6.977
 5106ETHY    C1 5022  43.855  47.473   6.674
 5107ETHY    C1 5023  44.006  47.854   6.330
 5108ETHY    C1 5024  44.070  48.274   6.021
 5109ETHY    C1 5025  44.054  48.724   5.752
 5110ETHY    C1 5026  43.958  49.194   5.532
 5111ETHY    C1 5027  43.783  49.677   5.366
 5112THSLK    S 5028  44.222  47.014   7.089
 5113ETHY    C1 5029  44.609  47.134   6.883
 5114ETHY    C1 5030  45.027  47.357   6.637
 5115ETHY    C1 5031  45.385  47.661   6.400
 5116ETHY    C1 5032  45.680  48.033   6.178
 5117ETHY    C1 5033  45.905  48.468   5.981
 5118ETHY    C1 5034  46.056  48.957   5.811
 5119AUSL   AUS 5035  43.466  47.061   7.339
 5120AUSL   AUS 5036  43.353  46.804   6.992
 5121AUL    AUL 5037  43.315  47.182   7.012
 5122THSLK    S 5038  43.512  47.308   7.239
 5123ETHY    C1 5039  43.659  47.705   7.074
 5124ETHY    C1 5040  43.745  48.199   6.889
 5125ETHY    C1 5041  43.733  48.700   6.727
 5126ETHY    C1 5042  43.631  49.196   6.593
 5127ETHY    C1 5043  43.439  49.677   6.492
 5128ETHY    C1 5044  43.161  50.135   6.427
 5129THSLK    S 5045  43.243  46.936   6.805
 5130ETHY    C1 5046  43.207  47.085   6.377
 5131ETHY    C1 5047  43.097  47.311   5.906
 5132ETHY    C1 5048  42.919  47.586   5.494
 5133ETHY    C1 5049  42.685  47.899   5.145
 5134ETHY    C1 5050  42.399  48.248   4.870
 5135ETHY    C1 5051  42.068  48.626   4.675
 5136AUSL   AUS 5052  43.618  45.807   7.094
 5137AUSL   AUS 5053  43.202  45.877   7.238
 5138AUL    AUL 5054  43.315  45.593   7.012
 5139THSLK    S 5055  43.019  45.729   7.134
 5140ETHY    C1 5056  42.636  45.485   7.124
 5141ETHY    C1 5057  42.218  45.164   7.035
 5142ETHY    C1 5058  41.859  44.818   6.866
 5143ETHY    C1 5059  41.562  44.457   6.631
 5144ETHY    C1 5060  41.337  44.085   6.331
 5145ETHY    C1 5061  41.190  43.708   5.974
 5146THSLK    S 5062  43.576  45.552   7.024
 5147ETHY    C1 5063  43.392  45.151   6.917
 5148ETHY    C1 5064  43.242  44.673   6.732
 5149ETHY    C1 5065  43.176  44.210   6.491
 5150ETHY    C1 5066  43.189  43.770   6.206
 5151ETHY    C1 5067  43.286  43.363   5.885
 5152ETHY    C1 5068  43.466  42.995   5.533
 5153AUSL   AUS 5069  43.770  45.714   7.339
 5154AUSL   AUS 5070  43.883  45.971   6.992
 5155AUL    AUL 5071  43.921  45.593   7.012
 5156THSLK    S 5072  43.727  45.460   7.266
 5157ETHY    C1 5073  43.583  45.032   7.213
 5158ETHY    C1 5074  43.496  44.513   7.120
 5159ETHY    C1 5075  43.508  44.001   6.997
 5160ETHY    C1 5076  43.609  43.507   6.854
 5161ETHY    C1 5077  43.801  43.042   6.695
 5162ETHY    C1 5078  44.081  42.614   6.523
 5163THSLK    S 5079  44.000  45.781   6.859
 5164ETHY    C1 5080  44.044  45.379   6.651
 5165ETHY    C1 5081  44.154  44.948   6.355
 5166ETHY    C1 5082  44.330  44.585   6.017
 5167ETHY    C1 5083  44.561  44.291   5.651
 5168ETHY    C1 5084  44.847  44.074   5.264
 5169ETHY    C1 5085  45.184  43.938   4.865
 5170AUC    AUC 5086   6.246  21.145   7.503
 5171AUC    AUC 5087   6.491  21.145   7.351
 5172AUC    AUC 5088   6.491  21.145   7.654
 5173AUC    AUC 5089   6.001  21.145   7.351
 5174AUC    AUC 5090   6.001  21.145   7.654
 5175AUC    AUC 5091   6.094  21.391   7.503
 5176AUC    AUC 5092   6.398  21.391   7.503
 5177AUC    AUC 5093   6.094  20.900   7.503
 5178AUC    AUC 5094   6.398  20.900   7.503
 5179AUC    AUC 5095   6.246  20.994   7.748
 5180AUC    AUC 5096   6.246  21.297   7.748
 5181AUC    AUC 5097   6.246  20.994   7.257
 5182AUC    AUC 5098   6.246  21.297   7.257
 5183AUC    AUC 5099   6.737  21.145   7.199
 5184AUC    AUC 5100   6.737  21.145   7.503
 5185AUC    AUC 5101   6.737  21.145   7.806
 5186AUC    AUC 5102   5.755  21.145   7.199
 5187AUC    AUC 5103   5.755  21.145   7.503
 5188AUC    AUC 5104   5.755  21.145   7.806
 5189AUC    AUC 5105   5.943  21.636   7.503
 5190AUC    AUC 5106   6.246  21.636   7.503
 5191AUC    AUC 5107   6.549  21.636   7.503
 5192AUC    AUC 5108   5.943  20.655   7.503
 5193AUC    AUC 5109   6.246  20.655   7.503
 5194AUC    AUC 5110   6.549  20.655   7.503
 5195AUC    AUC 5111   6.246  20.842   7.993
 5196AUC    AUC 5112   6.246  21.145   7.993
 5197AUC    AUC 5113   6.246  21.449   7.993
 5198AUC    AUC 5114   6.246  20.842   7.012
 5199AUC    AUC 5115   6.246  21.145   7.012
 5200AUC    AUC 5116   6.246  21.449   7.012
 5201AUC    AUC 5117   6.491  20.994   7.900
 5202AUC    AUC 5118   6.491  21.297   7.900
 5203AUC    AUC 5119   6.491  20.994   7.106
 5204AUC    AUC 5120   6.491  21.297   7.106
 5205AUC    AUC 5121   6.001  20.994   7.900
 5206AUC    AUC 5122   6.001  21.297   7.900
 5207AUC    AUC 5123   6.001  20.994   7.106
 5208AUC    AUC 5124   6.001  21.297   7.106
 5209AUC    AUC 5125   6.643  21.391   7.351
 5210AUC    AUC 5126   6.643  21.391   7.654
 5211AUC    AUC 5127   5.849  21.391   7.351
 5212AUC    AUC 5128   5.849  21.391   7.654
 5213AUC    AUC 5129   6.643  20.900   7.351
 5214AUC    AUC 5130   6.643  20.900   7.654
 5215AUC    AUC 5131   5.849  20.900   7.351
 5216AUC    AUC 5132   5.849  20.900   7.654
 5217AUC    AUC 5133   6.094  21.543   7.748
 5218AUC    AUC 5134   6.398  21.543   7.748
 5219AUC    AUC 5135   6.094  20.748   7.748
 5220AUC    AUC 5136   6.398  20.748   7.748
 5221AUC    AUC 5137   6.094  21.543   7.257
 5222AUC    AUC 5138   6.398  21.543   7.257
 5223AUC    AUC 5139   6.094  20.748   7.257
 5224AUC    AUC 5140   6.398  20.748   7.257
 5225AUSL   AUS 5141   6.655  21.145   8.083
 5226AUSL   AUS 5142   6.511  20.729   8.013
 5227AUL    AUL 5143   6.737  20.842   8.297
 5228THSLK    S 5144   6.621  20.542   8.153
 5229ETHY    C1 5145   6.657  20.143   8.368
 5230ETHY    C1 5146   6.767  19.713   8.665
 5231ETHY    C1 5147   6.945  19.349   9.000
 5232ETHY    C1 5148   7.179  19.053   9.364
 5233ETHY    C1 5149   7.465  18.836   9.752
 5234ETHY    C1 5150   7.796  18.703  10.156
 5235THSLK    S 5151   6.748  21.093   8.324
 5236ETHY    C1 5152   6.952  20.873   8.665
 5237ETHY    C1 5153   7.216  20.696   9.094
 5238ETHY    C1 5154   7.492  20.620   9.535
 5239ETHY    C1 5155   7.769  20.637   9.980
 5240ETHY    C1 5156   8.039  20.750  10.419
 5241ETHY    C1 5157   8.298  20.959  10.845
 5242AUSL   AUS 5158   6.410  20.994   8.176
 5243AUSL   AUS 5159   6.082  21.297   8.176
 5244AUL    AUL 5160   6.246  21.145   8.484
 5245THSLK    S 5161   6.485  20.939   8.413
 5246ETHY    C1 5162   6.549  20.659   8.765
 5247ETHY    C1 5163   6.652  20.404   9.223
 5248ETHY    C1 5164   6.779  20.245   9.708
 5249ETHY    C1 5165   6.921  20.176  10.208
 5250ETHY    C1 5166   7.075  20.204  10.713
 5251ETHY    C1 5167   7.235  20.328  11.212
 5252THSLK    S 5168   5.997  21.251   8.428
 5253ETHY    C1 5169   5.923  21.101   8.850
 5254ETHY    C1 5170   5.818  21.013   9.367
 5255ETHY    C1 5171   5.696  21.025   9.878
 5256ETHY    C1 5172   5.558  21.126  10.373
 5257ETHY    C1 5173   5.403  21.319  10.840
 5258ETHY    C1 5174   5.234  21.600  11.268
 5259AUSL   AUS 5175   6.410  21.297   8.176
 5260AUSL   AUS 5176   6.756  21.410   7.919
 5261AUL    AUL 5177   6.737  21.449   8.297
 5262THSLK    S 5178   6.495  21.353   8.410
 5263ETHY    C1 5179   6.569  21.634   8.759
 5264ETHY    C1 5180   6.674  21.889   9.217
 5265ETHY    C1 5181   6.796  22.048   9.703
 5266ETHY    C1 5182   6.935  22.117  10.204
 5267ETHY    C1 5183   7.089  22.090  10.708
 5268ETHY    C1 5184   7.258  21.966  11.206
 5269THSLK    S 5185   6.928  21.508   8.080
 5270ETHY    C1 5186   7.291  21.479   8.350
 5271ETHY    C1 5187   7.713  21.535   8.673
 5272ETHY    C1 5188   8.105  21.689   8.989
 5273ETHY    C1 5189   8.459  21.927   9.293
 5274ETHY    C1 5190   8.766  22.248   9.580
 5275ETHY    C1 5191   9.017  22.645   9.844
 5276AUSL   AUS 5192   6.655  21.145   6.923
 5277AUSL   AUS 5193   6.511  21.562   6.992
 5278AUL    AUL 5194   6.737  21.449   6.708
 5279THSLK    S 5195   6.757  21.093   6.687
 5280ETHY    C1 5196   6.970  20.873   6.351
 5281ETHY    C1 5197   7.235  20.696   5.923
 5282ETHY    C1 5198   7.507  20.620   5.479
 5283ETHY    C1 5199   7.781  20.637   5.033
 5284ETHY    C1 5200   8.052  20.750   4.594
 5285ETHY    C1 5201   8.317  20.959   4.173
 5286THSLK    S 5202   6.689  21.673   6.829
 5287ETHY    C1 5203   6.991  21.741   6.497
 5288ETHY    C1 5204   7.310  21.904   6.100
 5289ETHY    C1 5205   7.575  22.151   5.719
 5290ETHY    C1 5206   7.787  22.471   5.362
 5291ETHY    C1 5207   7.940  22.861   5.039
 5292ETHY    C1 5208   8.031  23.313   4.759
 5293AUSL   AUS 5209   6.410  20.994   6.829
 5294AUSL   AUS 5210   6.756  20.881   7.086
 5295AUL    AUL 5211   6.737  20.842   6.708
 5296THSLK    S 5212   6.889  20.689   6.949
 5297ETHY    C1 5213   7.072  20.322   6.752
 5298ETHY    C1 5214   7.344  19.950   6.483
 5299ETHY    C1 5215   7.669  19.661   6.186
 5300ETHY    C1 5216   8.035  19.454   5.874
 5301ETHY    C1 5217   8.439  19.335   5.555
 5302ETHY    C1 5218   8.872  19.310   5.235
 5303THSLK    S 5219   6.495  20.938   6.596
 5304ETHY    C1 5220   6.569  20.657   6.246
 5305ETHY    C1 5221   6.674  20.401   5.788
 5306ETHY    C1 5222   6.796  20.243   5.302
 5307ETHY    C1 5223   6.935  20.174   4.801
 5308ETHY    C1 5224   7.089  20.201   4.297
 5309ETHY    C1 5225   7.258  20.325   3.799
 5310AUSL   AUS 5226   6.410  21.297   6.829
 5311AUSL   AUS 5227   6.082  20.994   6.829
 5312AUL    AUL 5228   6.246  21.145   6.521
 5313THSLK    S 5229   5.990  20.938   6.597
 5314ETHY    C1 5230   5.855  20.660   6.264
 5315ETHY    C1 5231   5.694  20.407   5.822
 5316ETHY    C1 5232   5.542  20.250   5.343
 5317ETHY    C1 5233   5.406  20.181   4.842
 5318ETHY    C1 5234   5.289  20.207   4.328
 5319ETHY    C1 5235   5.196  20.326   3.810
 5320THSLK    S 5236   6.512  21.251   6.583
 5321ETHY    C1 5237   6.658  21.101   6.179
 5322ETHY    C1 5238   6.820  21.010   5.678
 5323ETHY    C1 5239   6.967  21.020   5.173
 5324ETHY    C1 5240   7.100  21.121   4.677
 5325ETHY    C1 5241   7.217  21.316   4.200
 5326ETHY    C1 5242   7.318  21.602   3.754
 5327AUSL   AUS 5243   5.837  21.145   8.083
 5328AUSL   AUS 5244   5.981  21.562   8.013
 5329AUL    AUL 5245   5.755  21.449   8.297
 5330THSLK    S 5246   5.735  21.093   8.319
 5331ETHY    C1 5247   5.523  20.873   8.654
 5332ETHY    C1 5248   5.257  20.696   9.082
 5333ETHY    C1 5249   4.985  20.620   9.526
 5334ETHY    C1 5250   4.711  20.637   9.973
 5335ETHY    C1 5251   4.440  20.750  10.411
 5336ETHY    C1 5252   4.175  20.959  10.832
 5337THSLK    S 5253   5.864  21.686   8.202
 5338ETHY    C1 5254   5.821  21.829   8.632
 5339ETHY    C1 5255   5.710  22.054   9.104
 5340ETHY    C1 5256   5.534  22.331   9.515
 5341ETHY    C1 5257   5.303  22.647   9.863
 5342ETHY    C1 5258   5.017  22.995  10.138
 5343ETHY    C1 5259   4.680  23.368  10.334
 5344AUSL   AUS 5260   6.082  20.994   8.176
 5345AUSL   AUS 5261   5.736  20.881   7.919
 5346AUL    AUL 5262   5.755  20.842   8.297
 5347THSLK    S 5263   5.559  20.718   8.026
 5348ETHY    C1 5264   5.188  20.461   8.082
 5349ETHY    C1 5265   4.766  20.173   8.237
 5350ETHY    C1 5266   4.376  19.918   8.482
 5351ETHY    C1 5267   4.024  19.701   8.803
 5352ETHY    C1 5268   3.718  19.530   9.198
 5353ETHY    C1 5269   3.461  19.409   9.657
 5354THSLK    S 5270   5.980  20.940   8.406
 5355ETHY    C1 5271   5.834  20.664   8.736
 5356ETHY    C1 5272   5.672  20.412   9.178
 5357ETHY    C1 5273   5.525  20.254   9.658
 5358ETHY    C1 5274   5.392  20.184  10.160
 5359ETHY    C1 5275   5.275  20.210  10.674
 5360ETHY    C1 5276   5.174  20.331  11.190
 5361AUSL   AUS 5277   5.837  21.145   6.923
 5362AUSL   AUS 5278   5.981  20.729   6.992
 5363AUL    AUL 5279   5.755  20.842   6.708
 5364THSLK    S 5280   5.744  21.093   6.681
 5365ETHY    C1 5281   5.540  20.873   6.341
 5366ETHY    C1 5282   5.276  20.696   5.911
 5367ETHY    C1 5283   5.000  20.620   5.470
 5368ETHY    C1 5284   4.723  20.637   5.025
 5369ETHY    C1 5285   4.453  20.750   4.586
 5370ETHY    C1 5286   4.194  20.959   4.161
 5371THSLK    S 5287   5.810  20.556   6.878
 5372ETHY    C1 5288   5.515  20.230   6.760
 5373ETHY    C1 5289   5.197  19.863   6.538
 5374ETHY    C1 5290   4.929  19.528   6.233
 5375ETHY    C1 5291   4.715  19.228   5.861
 5376ETHY    C1 5292   4.563  18.970   5.426
 5377ETHY    C1 5293   4.477  18.758   4.937
 5378AUSL   AUS 5294   6.082  21.297   6.829
 5379AUSL   AUS 5295   5.736  21.410   7.086
 5380AUL    AUL 5296   5.755  21.449   6.708
 5381THSLK    S 5297   5.609  21.537   6.895
 5382ETHY    C1 5298   5.432  21.618   6.484
 5383ETHY    C1 5299   5.161  21.758   6.046
 5384ETHY    C1 5300   4.834  21.946   5.679
 5385ETHY    C1 5301   4.465  22.175   5.385
 5386ETHY    C1 5302   4.063  22.442   5.173
 5387ETHY    C1 5303   3.634  22.744   5.047
 5388THSLK    S 5304   6.007  21.253   6.576
 5389ETHY    C1 5305   5.943  21.106   6.150
 5390ETHY    C1 5306   5.840  21.017   5.634
 5391ETHY    C1 5307   5.713  21.028   5.123
 5392ETHY    C1 5308   5.571  21.129   4.629
 5393ETHY    C1 5309   5.418  21.322   4.162
 5394ETHY    C1 5310   5.257  21.605   3.732
 5395AUSL   AUS 5311   6.826  21.554   7.503
 5396AUSL   AUS 5312   6.756  21.410   7.086
 5397AUL    AUL 5313   7.040  21.636   7.199
 5398THSLK    S 5314   6.934  21.509   6.934
 5399ETHY    C1 5315   7.304  21.482   6.671
 5400ETHY    C1 5316   7.726  21.538   6.349
 5401ETHY    C1 5317   8.116  21.692   6.030
 5402ETHY    C1 5318   8.468  21.929   5.724
 5403ETHY    C1 5319   8.775  22.250   5.438
 5404ETHY    C1 5320   9.031  22.649   5.179
 5405THSLK    S 5321   7.092  21.607   7.508
 5406ETHY    C1 5322   7.546  21.629   7.513
 5407ETHY    C1 5323   8.068  21.743   7.514
 5408ETHY    C1 5324   8.551  21.952   7.511
 5409ETHY    C1 5325   8.987  22.242   7.510
 5410ETHY    C1 5326   9.366  22.609   7.510
 5411ETHY    C1 5327   9.680  23.049   7.514
 5412AUSL   AUS 5328   6.920  21.309   7.351
 5413AUSL   AUS 5329   6.920  20.982   7.654
 5414AUL    AUL 5330   7.228  21.145   7.503
 5415THSLK    S 5331   7.176  21.348   7.350
 5416ETHY    C1 5332   7.612  21.240   7.286
 5417ETHY    C1 5333   8.138  21.202   7.201
 5418ETHY    C1 5334   8.653  21.266   7.113
 5419ETHY    C1 5335   9.147  21.420   7.026
 5420ETHY    C1 5336   9.607  21.665   6.945
 5421ETHY    C1 5337  10.026  21.997   6.873
 5422THSLK    S 5338   7.147  20.842   7.663
 5423ETHY    C1 5339   7.466  20.526   7.728
 5424ETHY    C1 5340   7.899  20.222   7.807
 5425ETHY    C1 5341   8.374  20.012   7.887
 5426ETHY    C1 5342   8.877  19.891   7.971
 5427ETHY    C1 5343   9.397  19.865   8.058
 5428ETHY    C1 5344   9.925  19.935   8.147
 5429AUSL   AUS 5345   6.920  21.309   7.654
 5430AUSL   AUS 5346   6.662  21.656   7.767
 5431AUL    AUL 5347   7.040  21.636   7.806
 5432THSLK    S 5348   6.845  21.770   7.926
 5433ETHY    C1 5349   7.228  21.888   8.140
 5434ETHY    C1 5350   7.646  22.111   8.388
 5435ETHY    C1 5351   8.005  22.416   8.622
 5436ETHY    C1 5352   8.302  22.789   8.840
 5437ETHY    C1 5353   8.527  23.223   9.038
 5438ETHY    C1 5354   8.674  23.711   9.215
 5439THSLK    S 5355   7.174  21.348   7.665
 5440ETHY    C1 5356   7.609  21.240   7.740
 5441ETHY    C1 5357   8.135  21.202   7.826
 5442ETHY    C1 5358   8.650  21.265   7.910
 5443ETHY    C1 5359   9.144  21.419   7.993
 5444ETHY    C1 5360   9.605  21.664   8.075
 5445ETHY    C1 5361  10.022  21.996   8.155
 5446AUSL   AUS 5362   5.666  21.554   7.503
 5447AUSL   AUS 5363   5.736  21.410   7.919
 5448AUL    AUL 5364   5.452  21.636   7.806
 5449THSLK    S 5365   5.603  21.529   8.109
 5450ETHY    C1 5366   5.420  21.601   8.519
 5451ETHY    C1 5367   5.148  21.741   8.957
 5452ETHY    C1 5368   4.823  21.932   9.324
 5453ETHY    C1 5369   4.457  22.163   9.619
 5454ETHY    C1 5370   4.054  22.430   9.831
 5455ETHY    C1 5371   3.620  22.726   9.956
 5456THSLK    S 5372   5.455  21.695   7.508
 5457ETHY    C1 5373   5.233  22.092   7.513
 5458ETHY    C1 5374   4.897  22.507   7.514
 5459ETHY    C1 5375   4.494  22.846   7.511
 5460ETHY    C1 5376   4.040  23.107   7.510
 5461ETHY    C1 5377   3.541  23.281   7.510
 5462ETHY    C1 5378   3.008  23.365   7.514
 5463AUSL   AUS 5379   5.572  21.309   7.351
 5464AUSL   AUS 5380   5.830  21.656   7.238
 5465AUL    AUL 5381   5.452  21.636   7.199
 5466THSLK    S 5382   5.345  21.424   7.303
 5467ETHY    C1 5383   5.026  21.624   7.049
 5468ETHY    C1 5384   4.593  21.830   6.813
 5469ETHY    C1 5385   4.118  21.996   6.661
 5470ETHY    C1 5386   3.615  22.125   6.590
 5471ETHY    C1 5387   3.095  22.215   6.605
 5472ETHY    C1 5388   2.567  22.263   6.708
 5473THSLK    S 5389   5.718  21.819   7.060
 5474ETHY    C1 5390   5.639  22.129   6.737
 5475ETHY    C1 5391   5.464  22.503   6.397
 5476ETHY    C1 5392   5.210  22.871   6.120
 5477ETHY    C1 5393   4.890  23.228   5.909
 5478ETHY    C1 5394   4.509  23.566   5.770
 5479ETHY    C1 5395   4.074  23.880   5.709
 5480AUSL   AUS 5396   5.572  21.309   7.654
 5481AUSL   AUS 5397   5.572  20.982   7.351
 5482AUL    AUL 5398   5.264  21.145   7.503
 5483THSLK    S 5399   5.318  20.909   7.394
 5484ETHY    C1 5400   4.883  20.891   7.524
 5485ETHY    C1 5401   4.357  20.831   7.597
 5486ETHY    C1 5402   3.842  20.727   7.578
 5487ETHY    C1 5403   3.348  20.584   7.477
 5488ETHY    C1 5404   2.888  20.401   7.294
 5489ETHY    C1 5405   2.470  20.181   7.034
 5490THSLK    S 5406   5.344  21.415   7.707
 5491ETHY    C1 5407   5.023  21.606   7.966
 5492ETHY    C1 5408   4.590  21.810   8.202
 5493ETHY    C1 5409   4.115  21.981   8.352
 5494ETHY    C1 5410   3.613  22.113   8.422
 5495ETHY    C1 5411   3.093  22.201   8.407
 5496ETHY    C1 5412   2.564  22.242   8.308
 5497AUSL   AUS 5413   6.826  20.736   7.503
 5498AUSL   AUS 5414   6.756  20.881   7.919
 5499AUL    AUL 5415   7.040  20.655   7.806
 5500THSLK    S 5416   7.037  20.595   7.508
 5501ETHY    C1 5417   7.259  20.199   7.513
 5502ETHY    C1 5418   7.595  19.784   7.514
 5503ETHY    C1 5419   7.998  19.445   7.511
 5504ETHY    C1 5420   8.452  19.184   7.510
 5505ETHY    C1 5421   8.951  19.010   7.510
 5506ETHY    C1 5422   9.484  18.926   7.514
 5507THSLK    S 5423   6.883  20.690   8.064
 5508ETHY    C1 5424   7.060  20.325   8.270
 5509ETHY    C1 5425   7.331  19.953   8.540
 5510ETHY    C1 5426   7.658  19.664   8.834
 5511ETHY    C1 5427   8.027  19.456   9.142
 5512ETHY    C1 5428   8.429  19.338   9.462
 5513ETHY    C1 5429   8.858  19.313   9.789
 5514AUSL   AUS 5430   6.920  20.982   7.351
 5515AUSL   AUS 5431   6.662  20.635   7.238
 5516AUL    AUL 5432   7.040  20.655   7.199
 5517THSLK    S 5433   7.148  20.842   7.353
 5518ETHY    C1 5434   7.469  20.525   7.298
 5519ETHY    C1 5435   7.902  20.222   7.221
 5520ETHY    C1 5436   8.377  20.012   7.136
 5521ETHY    C1 5437   8.879  19.891   7.048
 5522ETHY    C1 5438   9.399  19.864   6.963
 5523ETHY    C1 5439   9.928  19.935   6.881
 5524THSLK    S 5440   6.778  20.446   7.108
 5525ETHY    C1 5441   6.862  20.017   6.984
 5526ETHY    C1 5442   7.037  19.545   6.803
 5527ETHY    C1 5443   7.290  19.134   6.593
 5528ETHY    C1 5444   7.608  18.786   6.366
 5529ETHY    C1 5445   7.990  18.511   6.126
 5530ETHY    C1 5446   8.428  18.314   5.880
 5531AUSL   AUS 5447   5.666  20.736   7.503
 5532AUSL   AUS 5448   5.736  20.881   7.086
 5533AUL    AUL 5449   5.452  20.655   7.199
 5534THSLK    S 5450   5.565  20.710   6.978
 5535ETHY    C1 5451   5.201  20.445   6.921
 5536ETHY    C1 5452   4.779  20.155   6.766
 5537ETHY    C1 5453   4.387  19.903   6.521
 5538ETHY    C1 5454   4.033  19.690   6.200
 5539ETHY    C1 5455   3.726  19.517   5.806
 5540ETHY    C1 5456   3.475  19.390   5.346
 5541THSLK    S 5457   5.400  20.684   7.508
 5542ETHY    C1 5458   4.946  20.662   7.513
 5543ETHY    C1 5459   4.424  20.548   7.514
 5544ETHY    C1 5460   3.942  20.339   7.511
 5545ETHY    C1 5461   3.505  20.049   7.510
 5546ETHY    C1 5462   3.126  19.682   7.510
 5547ETHY    C1 5463   2.813  19.242   7.514
 5548AUSL   AUS 5464   5.572  20.982   7.654
 5549AUSL   AUS 5465   5.830  20.635   7.767
 5550AUL    AUL 5466   5.452  20.655   7.806
 5551THSLK    S 5467   5.642  20.495   7.878
 5552ETHY    C1 5468   5.255  20.258   7.893
 5553ETHY    C1 5469   4.837  19.938   7.982
 5554ETHY    C1 5470   4.479  19.589   8.149
 5555ETHY    C1 5471   4.184  19.225   8.382
 5556ETHY    C1 5472   3.959  18.854   8.683
 5557ETHY    C1 5473   3.808  18.483   9.045
 5558THSLK    S 5474   5.316  20.919   7.616
 5559ETHY    C1 5475   4.880  20.909   7.491
 5560ETHY    C1 5476   4.354  20.850   7.419
 5561ETHY    C1 5477   3.839  20.743   7.436
 5562ETHY    C1 5478   3.345  20.597   7.535
 5563ETHY    C1 5479   2.885  20.415   7.718
 5564ETHY    C1 5480   2.466  20.202   7.983
 5565AUSL   AUS 5481   6.246  21.725   7.912
 5566AUSL   AUS 5482   5.830  21.656   7.767
 5567AUL    AUL 5483   5.943  21.940   7.993
 5568THSLK    S 5484   5.714  21.812   7.952
 5569ETHY    C1 5485   5.630  22.114   8.280
 5570ETHY    C1 5486   5.455  22.487   8.621
 5571ETHY    C1 5487   5.202  22.858   8.895
 5572ETHY    C1 5488   4.884  23.217   9.105
 5573ETHY    C1 5489   4.502  23.555   9.244
 5574ETHY    C1 5490   4.064  23.863   9.309
 5575THSLK    S 5491   6.288  21.947   8.035
 5576ETHY    C1 5492   6.472  22.222   8.347
 5577ETHY    C1 5493   6.622  22.602   8.691
 5578ETHY    C1 5494   6.688  23.025   8.998
 5579ETHY    C1 5495   6.675  23.476   9.264
 5580ETHY    C1 5496   6.578  23.945   9.485
 5581ETHY    C1 5497   6.398  24.424   9.656
 5582AUSL   AUS 5498   6.094  21.819   7.666
 5583AUSL   AUS 5499   6.398  21.819   7.339
 5584AUL    AUL 5500   6.246  22.127   7.503
 5585THSLK    S 5501   6.137  22.063   7.776
 5586ETHY    C1 5502   6.281  22.457   7.951
 5587ETHY    C1 5503   6.368  22.951   8.137
 5588ETHY    C1 5504   6.356  23.452   8.294
 5589ETHY    C1 5505   6.255  23.950   8.425
 5590ETHY    C1 5506   6.063  24.431   8.527
 5591ETHY    C1 5507   5.783  24.886   8.600
 5592THSLK    S 5508   6.453  22.050   7.243
 5593ETHY    C1 5509   6.729  22.380   7.096
 5594ETHY    C1 5510   6.979  22.821   6.927
 5595ETHY    C1 5511   7.135  23.298   6.771
 5596ETHY    C1 5512   7.204  23.800   6.635
 5597ETHY    C1 5513   7.180  24.316   6.525
 5598ETHY    C1 5514   7.063  24.836   6.443
 5599AUSL   AUS 5515   6.398  21.819   7.666
 5600AUSL   AUS 5516   6.511  21.562   8.013
 5601AUL    AUL 5517   6.549  21.940   7.993
 5602THSLK    S 5518   6.682  21.670   8.183
 5603ETHY    C1 5519   6.977  21.735   8.523
 5604ETHY    C1 5520   7.295  21.897   8.920
 5605ETHY    C1 5521   7.563  22.146   9.298
 5606ETHY    C1 5522   7.777  22.468   9.653
 5607ETHY    C1 5523   7.929  22.856   9.976
 5608ETHY    C1 5524   8.015  23.306  10.262
 5609THSLK    S 5525   6.451  22.048   7.772
 5610ETHY    C1 5526   6.723  22.376   7.929
 5611ETHY    C1 5527   6.973  22.816   8.100
 5612ETHY    C1 5528   7.131  23.295   8.251
 5613ETHY    C1 5529   7.200  23.797   8.383
 5614ETHY    C1 5530   7.176  24.312   8.494
 5615ETHY    C1 5531   7.057  24.831   8.585
 5616AUSL   AUS 5532   6.246  20.565   7.912
 5617AUSL   AUS 5533   6.662  20.635   7.767
 5618AUL    AUL 5534   6.549  20.351   7.993
 5619THSLK    S 5535   6.199  20.315   7.989
 5620ETHY    C1 5536   6.009  19.919   8.103
 5621ETHY    C1 5537   5.858  19.441   8.289
 5622ETHY    C1 5538   5.795  18.976   8.528
 5623ETHY    C1 5539   5.810  18.534   8.809
 5624ETHY    C1 5540   5.906  18.127   9.132
 5625ETHY    C1 5541   6.081  17.764   9.489
 5626THSLK    S 5542   6.774  20.448   7.907
 5627ETHY    C1 5543   6.853  20.020   8.040
 5628ETHY    C1 5544   7.028  19.550   8.222
 5629ETHY    C1 5545   7.282  19.138   8.428
 5630ETHY    C1 5546   7.602  18.789   8.652
 5631ETHY    C1 5547   7.983  18.514   8.893
 5632ETHY    C1 5548   8.418  18.318   9.147
 5633AUSL   AUS 5549   6.094  20.472   7.666
 5634AUSL   AUS 5550   5.981  20.729   8.013
 5635AUL    AUL 5551   5.943  20.351   7.993
 5636THSLK    S 5552   6.039  20.236   7.745
 5637ETHY    C1 5553   5.764  19.877   7.788
 5638ETHY    C1 5554   5.513  19.412   7.869
 5639ETHY    C1 5555   5.357  18.922   7.981
 5640ETHY    C1 5556   5.288  18.423   8.122
 5641ETHY    C1 5557   5.312  17.923   8.292
 5642ETHY    C1 5558   5.429  17.435   8.489
 5643THSLK    S 5559   5.803  20.563   8.129
 5644ETHY    C1 5560   5.501  20.245   8.248
 5645ETHY    C1 5561   5.182  19.878   8.471
 5646ETHY    C1 5562   4.917  19.541   8.776
 5647ETHY    C1 5563   4.705  19.239   9.147
 5648ETHY    C1 5564   4.552  18.981   9.582
 5649ETHY    C1 5565   4.461  18.774  10.072
 5650AUSL   AUS 5566   6.398  20.472   7.666
 5651AUSL   AUS 5567   6.094  20.472   7.339
 5652AUL    AUL 5568   6.246  20.164   7.503
 5653THSLK    S 5569   6.041  20.233   7.270
 5654ETHY    C1 5570   5.769  19.871   7.236
 5655ETHY    C1 5571   5.519  19.406   7.157
 5656ETHY    C1 5572   5.362  18.917   7.041
 5657ETHY    C1 5573   5.292  18.418   6.896
 5658ETHY    C1 5574   5.316  17.919   6.727
 5659ETHY    C1 5575   5.435  17.428   6.538
 5660THSLK    S 5576   6.352  20.220   7.749
 5661ETHY    C1 5577   6.205  19.794   7.811
 5662ETHY    C1 5578   6.119  19.276   7.906
 5663ETHY    C1 5579   6.131  18.763   8.025
 5664ETHY    C1 5580   6.233  18.268   8.165
 5665ETHY    C1 5581   6.425  17.803   8.325
 5666ETHY    C1 5582   6.703  17.377   8.504
 5667AUSL   AUS 5583   6.246  21.725   7.094
 5668AUSL   AUS 5584   6.662  21.656   7.238
 5669AUL    AUL 5585   6.549  21.940   7.012
 5670THSLK    S 5586   6.293  21.952   6.977
 5671ETHY    C1 5587   6.483  22.231   6.674
 5672ETHY    C1 5588   6.634  22.612   6.330
 5673ETHY    C1 5589   6.698  23.032   6.021
 5674ETHY    C1 5590   6.682  23.482   5.752
 5675ETHY    C1 5591   6.586  23.952   5.532
 5676ETHY    C1 5592   6.411  24.435   5.366
 5677THSLK    S 5593   6.850  21.772   7.089
 5678ETHY    C1 5594   7.237  21.892   6.883
 5679ETHY    C1 5595   7.655  22.115   6.637
 5680ETHY    C1 5596   8.013  22.419   6.400
 5681ETHY    C1 5597   8.308  22.791   6.178
 5682ETHY    C1 5598   8.533  23.226   5.981
 5683ETHY    C1 5599   8.684  23.715   5.811
 5684AUSL   AUS 5600   6.094  21.819   7.339
 5685AUSL   AUS 5601   5.981  21.562   6.992
 5686AUL    AUL 5602   5.943  21.940   7.012
 5687THSLK    S 5603   6.140  22.066   7.239
 5688ETHY    C1 5604   6.287  22.463   7.074
 5689ETHY    C1 5605   6.373  22.957   6.889
 5690ETHY    C1 5606   6.361  23.458   6.727
 5691ETHY    C1 5607   6.259  23.954   6.593
 5692ETHY    C1 5608   6.067  24.435   6.492
 5693ETHY    C1 5609   5.789  24.893   6.427
 5694THSLK    S 5610   5.871  21.694   6.805
 5695ETHY    C1 5611   5.835  21.843   6.377
 5696ETHY    C1 5612   5.725  22.069   5.906
 5697ETHY    C1 5613   5.547  22.344   5.494
 5698ETHY    C1 5614   5.313  22.657   5.145
 5699ETHY    C1 5615   5.027  23.006   4.870
 5700ETHY    C1 5616   4.696  23.384   4.675
 5701AUSL   AUS 5617   6.246  20.565   7.094
 5702AUSL   AUS 5618   5.830  20.635   7.238
 5703AUL    AUL 5619   5.943  20.351   7.012
 5704THSLK    S 5620   5.647  20.487   7.134
 5705ETHY    C1 5621   5.264  20.243   7.124
 5706ETHY    C1 5622   4.846  19.922   7.035
 5707ETHY    C1 5623   4.487  19.576   6.866
 5708ETHY    C1 5624   4.190  19.215   6.631
 5709ETHY    C1 5625   3.965  18.843   6.331
 5710ETHY    C1 5626   3.818  18.466   5.974
 5711THSLK    S 5627   6.204  20.310   7.024
 5712ETHY    C1 5628   6.020  19.909   6.917
 5713ETHY    C1 5629   5.870  19.431   6.732
 5714ETHY    C1 5630   5.804  18.968   6.491
 5715ETHY    C1 5631   5.817  18.528   6.206
 5716ETHY    C1 5632   5.914  18.121   5.885
 5717ETHY    C1 5633   6.094  17.753   5.533
 5718AUSL   AUS 5634   6.398  20.472   7.339
 5719AUSL   AUS 5635   6.511  20.729   6.992
 5720AUL    AUL 5636   6.549  20.351   7.012
 5721THSLK    S 5637   6.355  20.218   7.266
 5722ETHY    C1 5638   6.211  19.790   7.213
 5723ETHY    C1 5639   6.124  19.271   7.120
 5724ETHY    C1 5640   6.136  18.759   6.997
 5725ETHY    C1 5641   6.237  18.265   6.854
 5726ETHY    C1 5642   6.429  17.800   6.695
 5727ETHY    C1 5643   6.709  17.372   6.523
 5728THSLK    S 5644   6.628  20.539   6.859
 5729ETHY    C1 5645   6.672  20.137   6.651
 5730ETHY    C1 5646   6.782  19.706   6.355
 5731ETHY    C1 5647   6.958  19.343   6.017
 5732ETHY    C1 5648   7.189  19.049   5.651
 5733ETHY    C1 5649   7.475  18.832   5.264
 5734ETHY    C1 5650   7.812  18.696   4.865
 5735POPC   NC3 5651  12.083   5.088   9.455
 5735POPC   PO4 5652  12.031   5.133   9.155
 5735POPC   GL1 5653  12.103   5.108   8.855
 5735POPC   GL2 5654  12.218   5.038   8.855
 5735POPC   C1A 5655  12.106   5.044   8.555
 5735POPC   D2A 5656  12.044   5.048   8.255
 5735POPC   C3A 5657  12.027   5.101   7.955
 5735POPC   C4A 5658  12.049   5.066   7.655
 5735POPC   C1B 5659  12.270   4.981   8.555
 5735POPC   C2B 5660  12.268   5.006   8.255
 5735POPC   C3B 5661  12.327   4.959   7.955
 5735POPC   C4B 5662  12.322   5.023   7.655
 5736POPC   NC3 5663  31.442  14.445   9.455
 5736POPC   PO4 5664  31.427  14.403   9.155
 5736POPC   GL1 5665  31.505  14.372   8.855
 5736POPC   GL2 5666  31.580  14.432   8.855
 5736POPC   C1A 5667  31.515  14.416   8.555
 5736POPC   D2A 5668  31.510  14.365   8.255
 5736POPC   C3A 5669  31.483  14.443   7.955
 5736POPC   C4A 5670  31.431  14.441   7.655
 5736POPC   C1B 5671  31.765  14.398   8.555
 5736POPC   C2B 5672  31.702  14.347   8.255
 5736POPC   C3B 5673  31.708  14.362   7.955
 5736POPC   C4B 5674  31.685  14.405   7.655
 5737POPC   NC3 5675  41.568  27.619   9.455
 5737POPC   PO4 5676  41.520  27.615   9.155
 5737POPC   GL1 5677  41.541  27.603   8.855
 5737POPC   GL2 5678  41.635  27.690   8.855
 5737POPC   C1A 5679  41.565  27.552   8.555
 5737POPC   D2A 5680  41.525  27.600   8.255
 5737POPC   C3A 5681  41.560  27.609   7.955
 5737POPC   C4A 5682  41.596  27.606   7.655
 5737POPC   C1B 5683  41.773  27.824   8.555
 5737POPC   C2B 5684  41.765  27.758   8.255
 5737POPC   C3B 5685  41.769  27.730   7.955
 5737POPC   C4B 5686  41.687  27.755   7.655
 5738POPC   NC3 5687  44.698  18.240   9.455
 5738POPC   PO4 5688  44.694  18.278   9.155
 5738POPC   GL1 5689  44.632  18.249   8.855
 5738POPC   GL2 5690  44.734  18.181   8.855
 5738POPC   C1A 5691  44.708  18.248   8.555
 5738POPC   D2A 5692  44.663  18.238   8.255
 5738POPC   C3A 5693  44.655  18.284   7.955
 5738POPC   C4A 5694  44.684  18.294   7.655
 5738POPC   C1B 5695  44.849  18.164   8.555
 5738POPC   C2B 5696  44.846  18.108   8.255
 5738POPC   C3B 5697  44.868  18.174   7.955
 5738POPC   C4B 5698  44.910  18.147   7.655
 5739POPC   NC3 5699  43.100  24.511   9.455
 5739POPC   PO4 5700  43.141  24.473   9.155
 5739POPC   GL1 5701  43.121  24.521   8.855
 5739POPC   GL2 5702  43.044  24.393   8.855
 5739POPC   C1A 5703  43.150  24.535   8.555
 5739POPC   D2A 5704  43.069  24.490   8.255
 5739POPC   C3A 5705  43.121  24.472   7.955
 5739POPC   C4A 5706  43.079  24.517   7.655
 5739POPC   C1B 5707  42.989  24.300   8.555
 5739POPC   C2B 5708  42.930  24.257   8.255
 5739POPC   C3B 5709  42.932  24.323   7.955
 5739POPC   C4B 5710  43.024  24.258   7.655
 5740POPC   NC3 5711  39.204  27.616   9.455
 5740POPC   PO4 5712  39.236  27.594   9.155
 5740POPC   GL1 5713  39.228  27.592   8.855
 5740POPC   GL2 5714  39.277  27.720   8.855
 5740POPC   C1A 5715  39.224  27.580   8.555
 5740POPC   D2A 5716  39.202  27.552   8.255
 5740POPC   C3A 5717  39.259  27.633   7.955
 5740POPC   C4A 5718  39.237  27.567   7.655
 5740POPC   C1B 5719  39.405  27.813   8.555
 5740POPC   C2B 5720  39.351  27.815   8.255
 5740POPC   C3B 5721  39.354  27.760   7.955
 5740POPC   C4B 5722  39.352  27.793   7.655
 5741POPC   NC3 5723  23.688  42.335   9.455
 5741POPC   PO4 5724  23.697  42.327   9.155
 5741POPC   GL1 5725  23.718  42.324   8.855
 5741POPC   GL2 5726  23.656  42.418   8.855
 5741POPC   C1A 5727  23.690  42.309   8.555
 5741POPC   D2A 5728  23.722  42.381   8.255
 5741POPC   C3A 5729  23.666  42.327   7.955
 5741POPC   C4A 5730  23.759  42.353   7.655
 5741POPC   C1B 5731  23.699  42.604   8.555
 5741POPC   C2B 5732  23.664  42.543   8.255
 5741POPC   C3B 5733  23.682  42.559   7.955
 5741POPC   C4B 5734  23.634  42.608   7.655
 5742POPC   NC3 5735   5.126  10.497   9.455
 5742POPC   PO4 5736   5.102  10.553   9.155
 5742POPC   GL1 5737   5.098  10.555   8.855
 5742POPC   GL2 5738   5.010  10.452   8.855
 5742POPC   C1A 5739   5.142  10.482   8.555
 5742POPC   D2A 5740   5.098  10.518   8.255
 5742POPC   C3A 5741   5.095  10.522   7.955
 5742POPC   C4A 5742   5.136  10.524   7.655
 5742POPC   C1B 5743   4.901  10.348   8.555
 5742POPC   C2B 5744   4.902  10.365   8.255
 5742POPC   C3B 5745   4.894  10.315   7.955
 5742POPC   C4B 5746   4.960  10.368   7.655
 5743POPC   NC3 5747  22.903  18.273   9.455
 5743POPC   PO4 5748  22.905  18.253   9.155
 5743POPC   GL1 5749  22.971  18.330   8.855
 5743POPC   GL2 5750  22.840  18.264   8.855
 5743POPC   C1A 5751  22.955  18.304   8.555
 5743POPC   D2A 5752  22.906  18.261   8.255
 5743POPC   C3A 5753  22.931  18.292   7.955
 5743POPC   C4A 5754  22.927  18.295   7.655
 5743POPC   C1B 5755  22.755  18.147   8.555
 5743POPC   C2B 5756  22.707  18.177   8.255
 5743POPC   C3B 5757  22.759  18.148   7.955
 5743POPC   C4B 5758  22.676  18.226   7.655
 5744POPC   NC3 5759  43.850  40.805   9.455
 5744POPC   PO4 5760  43.914  40.787   9.155
 5744POPC   GL1 5761  43.913  40.829   8.855
 5744POPC   GL2 5762  43.967  40.864   8.855
 5744POPC   C1A 5763  43.880  40.824   8.555
 5744POPC   D2A 5764  43.894  40.807   8.255
 5744POPC   C3A 5765  43.886  40.818   7.955
 5744POPC   C4A 5766  43.855  40.746   7.655
 5744POPC   C1B 5767  44.062  40.940   8.555
 5744POPC   C2B 5768  44.086  40.943   8.255
 5744POPC   C3B 5769  44.070  40.886   7.955
 5744POPC   C4B 5770  44.045  40.918   7.655
 5745POPC   NC3 5771  25.314   1.233   9.455
 5745POPC   PO4 5772  25.281   1.210   9.155
 5745POPC   GL1 5773  25.282   1.249   8.855
 5745POPC   GL2 5774  25.294   1.108   8.855
 5745POPC   C1A 5775  25.278   1.259   8.555
 5745POPC   D2A 5776  25.292   1.210   8.255
 5745POPC   C3A 5777  25.261   1.243   7.955
 5745POPC   C4A 5778  25.279   1.202   7.655
 5745POPC   C1B 5779  25.254   0.928   8.555
 5745POPC   C2B 5780  25.302   1.002   8.255
 5745POPC   C3B 5781  25.276   0.941   7.955
 5745POPC   C4B 5782  25.274   0.946   7.655
 5746POPC   NC3 5783   0.402  15.906   9.455
 5746POPC   PO4 5784   0.398  15.936   9.155
 5746POPC   GL1 5785   0.430  15.984   8.855
 5746POPC   GL2 5786   0.520  15.885   8.855
 5746POPC   C1A 5787   0.429  15.995   8.555
 5746POPC   D2A 5788   0.393  15.964   8.255
 5746POPC   C3A 5789   0.476  15.933   7.955
 5746POPC   C4A 5790   0.470  15.951   7.655
 5746POPC   C1B 5791   0.670  15.893   8.555
 5746POPC   C2B 5792   0.720  15.844   8.255
 5746POPC   C3B 5793   0.706  15.856   7.955
 5746POPC   C4B 5794   0.699  15.922   7.655
 5747POPC   NC3 5795  24.460  43.100   9.455
 5747POPC   PO4 5796  24.443  43.144   9.155
 5747POPC   GL1 5797  24.457  43.134   8.855
 5747POPC   GL2 5798  24.585  43.144   8.855
 5747POPC   C1A 5799  24.487  43.088   8.555
 5747POPC   D2A 5800  24.499  43.065   8.255
 5747POPC   C3A 5801  24.449  43.127   7.955
 5747POPC   C4A 5802  24.467  43.097   7.655
 5747POPC   C1B 5803  24.677  43.220   8.555
 5747POPC   C2B 5804  24.710  43.252   8.255
 5747POPC   C3B 5805  24.717  43.229   7.955
 5747POPC   C4B 5806  24.695  43.228   7.655
 5748POPC   NC3 5807   2.721   8.167   9.455
 5748POPC   PO4 5808   2.762   8.241   9.155
 5748POPC   GL1 5809   2.763   8.227   8.855
 5748POPC   GL2 5810   2.695   8.272   8.855
 5748POPC   C1A 5811   2.745   8.173   8.555
 5748POPC   D2A 5812   2.739   8.212   8.255
 5748POPC   C3A 5813   2.788   8.214   7.955
 5748POPC   C4A 5814   2.751   8.147   7.655
 5748POPC   C1B 5815   2.719   8.449   8.555
 5748POPC   C2B 5816   2.713   8.427   8.255
 5748POPC   C3B 5817   2.682   8.441   7.955
 5748POPC   C4B 5818   2.655   8.398   7.655
 5749POPC   NC3 5819  16.687  39.211   9.455
 5749POPC   PO4 5820  16.776  39.231   9.155
 5749POPC   GL1 5821  16.713  39.203   8.855
 5749POPC   GL2 5822  16.740  39.152   8.855
 5749POPC   C1A 5823  16.703  39.196   8.555
 5749POPC   D2A 5824  16.779  39.193   8.255
 5749POPC   C3A 5825  16.738  39.213   7.955
 5749POPC   C4A 5826  16.712  39.234   7.655
 5749POPC   C1B 5827  16.822  38.968   8.555
 5749POPC   C2B 5828  16.814  38.969   8.255
 5749POPC   C3B 5829  16.816  38.956   7.955
 5749POPC   C4B 5830  16.809  38.940   7.655
 5750POPC   NC3 5831  44.702  16.701   9.455
 5750POPC   PO4 5832  44.649  16.718   9.155
 5750POPC   GL1 5833  44.617  16.751   8.855
 5750POPC   GL2 5834  44.525  16.705   8.855
 5750POPC   C1A 5835  44.638  16.693   8.555
 5750POPC   D2A 5836  44.639  16.753   8.255
 5750POPC   C3A 5837  44.624  16.746   7.955
 5750POPC   C4A 5838  44.709  16.775   7.655
 5750POPC   C1B 5839  44.432  16.592   8.555
 5750POPC   C2B 5840  44.437  16.598   8.255
 5750POPC   C3B 5841  44.491  16.621   7.955
 5750POPC   C4B 5842  44.495  16.590   7.655
 5751POPC   NC3 5843  33.799  35.308   9.455
 5751POPC   PO4 5844  33.787  35.315   9.155
 5751POPC   GL1 5845  33.846  35.400   8.855
 5751POPC   GL2 5846  33.962  35.317   8.855
 5751POPC   C1A 5847  33.822  35.340   8.555
 5751POPC   D2A 5848  33.831  35.334   8.255
 5751POPC   C3A 5849  33.758  35.329   7.955
 5751POPC   C4A 5850  33.846  35.351   7.655
 5751POPC   C1B 5851  34.009  35.276   8.555
 5751POPC   C2B 5852  34.066  35.277   8.255
 5751POPC   C3B 5853  34.084  35.245   7.955
 5751POPC   C4B 5854  34.010  35.302   7.655
 5752POPC   NC3 5855  20.590  26.042   9.455
 5752POPC   PO4 5856  20.598  26.020   9.155
 5752POPC   GL1 5857  20.618  26.020   8.855
 5752POPC   GL2 5858  20.531  25.999   8.855
 5752POPC   C1A 5859  20.647  26.022   8.555
 5752POPC   D2A 5860  20.587  26.068   8.255
 5752POPC   C3A 5861  20.584  26.088   7.955
 5752POPC   C4A 5862  20.562  26.045   7.655
 5752POPC   C1B 5863  20.405  25.838   8.555
 5752POPC   C2B 5864  20.462  25.840   8.255
 5752POPC   C3B 5865  20.446  25.902   7.955
 5752POPC   C4B 5866  20.434  25.828   7.655
 5753POPC   NC3 5867  19.025  34.531   9.455
 5753POPC   PO4 5868  19.065  34.571   9.155
 5753POPC   GL1 5869  19.099  34.535   8.855
 5753POPC   GL2 5870  18.960  34.591   8.855
 5753POPC   C1A 5871  19.099  34.536   8.555
 5753POPC   D2A 5872  19.065  34.598   8.255
 5753POPC   C3A 5873  19.040  34.571   7.955
 5753POPC   C4A 5874  19.056  34.555   7.655
 5753POPC   C1B 5875  18.811  34.665   8.555
 5753POPC   C2B 5876  18.858  34.615   8.255
 5753POPC   C3B 5877  18.863  34.657   7.955
 5753POPC   C4B 5878  18.774  34.690   7.655
 5754POPC   NC3 5879  35.328  30.674   9.455
 5754POPC   PO4 5880  35.365  30.674   9.155
 5754POPC   GL1 5881  35.310  30.734   8.855
 5754POPC   GL2 5882  35.493  30.623   8.855
 5754POPC   C1A 5883  35.325  30.684   8.555
 5754POPC   D2A 5884  35.302  30.711   8.255
 5754POPC   C3A 5885  35.325  30.670   7.955
 5754POPC   C4A 5886  35.308  30.654   7.655
 5754POPC   C1B 5887  35.548  30.561   8.555
 5754POPC   C2B 5888  35.551  30.528   8.255
 5754POPC   C3B 5889  35.541  30.557   7.955
 5754POPC   C4B 5890  35.531  30.509   7.655
 5755POPC   NC3 5891  12.113  15.942   9.455
 5755POPC   PO4 5892  12.031  15.966   9.155
 5755POPC   GL1 5893  12.071  15.942   8.855
 5755POPC   GL2 5894  11.955  15.961   8.855
 5755POPC   C1A 5895  12.090  15.924   8.555
 5755POPC   D2A 5896  12.030  15.982   8.255
 5755POPC   C3A 5897  12.116  15.921   7.955
 5755POPC   C4A 5898  12.046  15.953   7.655
 5755POPC   C1B 5899  11.861  16.049   8.555
 5755POPC   C2B 5900  11.855  15.985   8.255
 5755POPC   C3B 5901  11.867  16.042   7.955
 5755POPC   C4B 5902  11.873  15.997   7.655
 5756POPC   NC3 5903  13.628  28.333   9.455
 5756POPC   PO4 5904  13.585  28.368   9.155
 5756POPC   GL1 5905  13.673  28.375   8.855
 5756POPC   GL2 5906  13.491  28.375   8.855
 5756POPC   C1A 5907  13.579  28.394   8.555
 5756POPC   D2A 5908  13.605  28.379   8.255
 5756POPC   C3A 5909  13.628  28.417   7.955
 5756POPC   C4A 5910  13.648  28.338   7.655
 5756POPC   C1B 5911  13.355  28.352   8.555
 5756POPC   C2B 5912  13.396  28.411   8.255
 5756POPC   C3B 5913  13.378  28.375   7.955
 5756POPC   C4B 5914  13.335  28.427   7.655
 5757POPC   NC3 5915  42.376  42.318   9.455
 5757POPC   PO4 5916  42.377  42.321   9.155
 5757POPC   GL1 5917  42.301  42.290   8.855
 5757POPC   GL2 5918  42.486  42.324   8.855
 5757POPC   C1A 5919  42.293  42.358   8.555
 5757POPC   D2A 5920  42.363  42.329   8.255
 5757POPC   C3A 5921  42.319  42.309   7.955
 5757POPC   C4A 5922  42.376  42.311   7.655
 5757POPC   C1B 5923  42.606  42.265   8.555
 5757POPC   C2B 5924  42.562  42.262   8.255
 5757POPC   C3B 5925  42.597  42.248   7.955
 5757POPC   C4B 5926  42.552  42.285   7.655
 5758POPC   NC3 5927  19.870  39.201   9.455
 5758POPC   PO4 5928  19.852  39.192   9.155
 5758POPC   GL1 5929  19.824  39.211   8.855
 5758POPC   GL2 5930  19.788  39.153   8.855
 5758POPC   C1A 5931  19.883  39.238   8.555
 5758POPC   D2A 5932  19.820  39.195   8.255
 5758POPC   C3A 5933  19.874  39.256   7.955
 5758POPC   C4A 5934  19.796  39.249   7.655
 5758POPC   C1B 5935  19.792  38.972   8.555
 5758POPC   C2B 5936  19.781  39.010   8.255
 5758POPC   C3B 5937  19.789  39.002   7.955
 5758POPC   C4B 5938  19.711  39.036   7.655
 5759POPC   NC3 5939  19.834  41.547   9.455
 5759POPC   PO4 5940  19.850  41.564   9.155
 5759POPC   GL1 5941  19.806  41.518   8.855
 5759POPC   GL2 5942  19.719  41.593   8.855
 5759POPC   C1A 5943  19.868  41.572   8.555
 5759POPC   D2A 5944  19.833  41.605   8.255
 5759POPC   C3A 5945  19.820  41.595   7.955
 5759POPC   C4A 5946  19.843  41.531   7.655
 5759POPC   C1B 5947  19.600  41.738   8.555
 5759POPC   C2B 5948  19.682  41.659   8.255
 5759POPC   C3B 5949  19.639  41.720   7.955
 5759POPC   C4B 5950  19.606  41.692   7.655
 5760POPC   NC3 5951   7.429   8.196   9.455
 5760POPC   PO4 5952   7.386   8.198   9.155
 5760POPC   GL1 5953   7.442   8.203   8.855
 5760POPC   GL2 5954   7.266   8.152   8.855
 5760POPC   C1A 5955   7.388   8.230   8.555
 5760POPC   D2A 5956   7.418   8.221   8.255
 5760POPC   C3A 5957   7.425   8.228   7.955
 5760POPC   C4A 5958   7.410   8.223   7.655
 5760POPC   C1B 5959   7.244   8.072   8.555
 5760POPC   C2B 5960   7.193   8.122   8.255
 5760POPC   C3B 5961   7.174   8.058   7.955
 5760POPC   C4B 5962   7.188   8.062   7.655
 5761POPC   NC3 5963  11.315  37.678   9.455
 5761POPC   PO4 5964  11.336  37.701   9.155
 5761POPC   GL1 5965  11.283  37.677   8.855
 5761POPC   GL2 5966  11.392  37.771   8.855
 5761POPC   C1A 5967  11.322  37.718   8.555
 5761POPC   D2A 5968  11.270  37.642   8.255
 5761POPC   C3A 5969  11.264  37.677   7.955
 5761POPC   C4A 5970  11.267  37.689   7.655
 5761POPC   C1B 5971  11.383  37.939   8.555
 5761POPC   C2B 5972  11.419  37.952   8.255
 5761POPC   C3B 5973  11.367  37.865   7.955
 5761POPC   C4B 5974  11.367  37.898   7.655
 5762POPC   NC3 5975  22.893  40.048   9.455
 5762POPC   PO4 5976  22.895  39.984   9.155
 5762POPC   GL1 5977  22.896  39.959   8.855
 5762POPC   GL2 5978  22.849  40.090   8.855
 5762POPC   C1A 5979  22.904  39.960   8.555
 5762POPC   D2A 5980  22.951  40.026   8.255
 5762POPC   C3A 5981  22.933  39.998   7.955
 5762POPC   C4A 5982  22.987  39.965   7.655
 5762POPC   C1B 5983  22.773  40.237   8.555
 5762POPC   C2B 5984  22.839  40.272   8.255
 5762POPC   C3B 5985  22.816  40.201   7.955
 5762POPC   C4B 5986  22.814  40.265   7.655
 5763POPC   NC3 5987  37.638  40.789   9.455
 5763POPC   PO4 5988  37.679  40.786   9.155
 5763POPC   GL1 5989  37.710  40.798   8.855
 5763POPC   GL2 5990  37.605  40.844   8.855
 5763POPC   C1A 5991  37.703  40.760   8.555
 5763POPC   D2A 5992  37.680  40.751   8.255
 5763POPC   C3A 5993  37.671  40.763   7.955
 5763POPC   C4A 5994  37.673  40.810   7.655
 5763POPC   C1B 5995  37.584  41.053   8.555
 5763POPC   C2B 5996  37.558  40.974   8.255
 5763POPC   C3B 5997  37.597  41.031   7.955
 5763POPC   C4B 5998  37.586  40.963   7.655
 5764POPC   NC3 5999  35.334   3.499   9.455
 5764POPC   PO4 6000  35.386   3.498   9.155
 5764POPC   GL1 6001  35.316   3.516   8.855
 5764POPC   GL2 6002  35.433   3.582   8.855
 5764POPC   C1A 6003  35.347   3.575   8.555
 5764POPC   D2A 6004  35.398   3.524   8.255
 5764POPC   C3A 6005  35.397   3.534   7.955
 5764POPC   C4A 6006  35.307   3.522   7.655
 5764POPC   C1B 6007  35.579   3.702   8.555
 5764POPC   C2B 6008  35.535   3.726   8.255
 5764POPC   C3B 6009  35.525   3.677   7.955
 5764POPC   C4B 6010  35.491   3.672   7.655
 5765POPC   NC3 6011  20.660  36.916   9.455
 5765POPC   PO4 6012  20.591  36.895   9.155
 5765POPC   GL1 6013  20.636  36.867   8.855
 5765POPC   GL2 6014  20.730  36.883   8.855
 5765POPC   C1A 6015  20.564  36.887   8.555
 5765POPC   D2A 6016  20.617  36.915   8.255
 5765POPC   C3A 6017  20.615  36.860   7.955
 5765POPC   C4A 6018  20.590  36.861   7.655
 5765POPC   C1B 6019  20.868  36.865   8.555
 5765POPC   C2B 6020  20.819  36.796   8.255
 5765POPC   C3B 6021  20.883  36.856   7.955
 5765POPC   C4B 6022  20.888  36.811   7.655
 5766POPC   NC3 6023  43.923  32.216   9.455
 5766POPC   PO4 6024  43.853  32.250   9.155
 5766POPC   GL1 6025  43.850  32.276   8.855
 5766POPC   GL2 6026  43.827  32.326   8.855
 5766POPC   C1A 6027  43.919  32.296   8.555
 5766POPC   D2A 6028  43.927  32.288   8.255
 5766POPC   C3A 6029  43.863  32.222   7.955
 5766POPC   C4A 6030  43.905  32.242   7.655
 5766POPC   C1B 6031  43.676  32.349   8.555
 5766POPC   C2B 6032  43.663  32.412   8.255
 5766POPC   C3B 6033  43.687  32.390   7.955
 5766POPC   C4B 6034  43.669  32.434   7.655
 5767POPC   NC3 6035  17.463   5.067   9.455
 5767POPC   PO4 6036  17.555   5.087   9.155
 5767POPC   GL1 6037  17.509   5.077   8.855
 5767POPC   GL2 6038  17.438   4.977   8.855
 5767POPC   C1A 6039  17.530   5.044   8.555
 5767POPC   D2A 6040  17.509   5.134   8.255
 5767POPC   C3A 6041  17.549   5.134   7.955
 5767POPC   C4A 6042  17.458   5.045   7.655
 5767POPC   C1B 6043  17.376   4.908   8.555
 5767POPC   C2B 6044  17.448   4.880   8.255
 5767POPC   C3B 6045  17.374   4.860   7.955
 5767POPC   C4B 6046  17.366   4.834   7.655
 5768POPC   NC3 6047  40.001  12.093   9.455
 5768POPC   PO4 6048  39.964  12.113   9.155
 5768POPC   GL1 6049  40.031  12.034   8.855
 5768POPC   GL2 6050  39.996  11.987   8.855
 5768POPC   C1A 6051  40.012  12.035   8.555
 5768POPC   D2A 6052  39.987  12.104   8.255
 5768POPC   C3A 6053  40.052  12.113   7.955
 5768POPC   C4A 6054  39.971  12.046   7.655
 5768POPC   C1B 6055  40.058  11.866   8.555
 5768POPC   C2B 6056  40.100  11.821   8.255
 5768POPC   C3B 6057  40.094  11.798   7.955
 5768POPC   C4B 6058  40.125  11.868   7.655
 5769POPC   NC3 6059  27.637  21.371   9.455
 5769POPC   PO4 6060  27.614  21.384   9.155
 5769POPC   GL1 6061  27.576  21.339   8.855
 5769POPC   GL2 6062  27.661  21.484   8.855
 5769POPC   C1A 6063  27.593  21.352   8.555
 5769POPC   D2A 6064  27.544  21.407   8.255
 5769POPC   C3A 6065  27.593  21.400   7.955
 5769POPC   C4A 6066  27.619  21.374   7.655
 5769POPC   C1B 6067  27.623  21.644   8.555
 5769POPC   C2B 6068  27.620  21.677   8.255
 5769POPC   C3B 6069  27.675  21.664   7.955
 5769POPC   C4B 6070  27.652  21.623   7.655
 5770POPC   NC3 6071  22.908  28.410   9.455
 5770POPC   PO4 6072  22.944  28.364   9.155
 5770POPC   GL1 6073  22.971  28.334   8.855
 5770POPC   GL2 6074  22.995  28.465   8.855
 5770POPC   C1A 6075  22.977  28.412   8.555
 5770POPC   D2A 6076  22.939  28.362   8.255
 5770POPC   C3A 6077  22.928  28.343   7.955
 5770POPC   C4A 6078  22.910  28.368   7.655
 5770POPC   C1B 6079  23.040  28.570   8.555
 5770POPC   C2B 6080  23.084  28.564   8.255
 5770POPC   C3B 6081  23.119  28.554   7.955
 5770POPC   C4B 6082  23.105  28.562   7.655
 5771POPC   NC3 6083  16.758  28.408   9.455
 5771POPC   PO4 6084  16.774  28.337   9.155
 5771POPC   GL1 6085  16.745  28.382   8.855
 5771POPC   GL2 6086  16.733  28.273   8.855
 5771POPC   C1A 6087  16.748  28.402   8.555
 5771POPC   D2A 6088  16.694  28.414   8.255
 5771POPC   C3A 6089  16.726  28.325   7.955
 5771POPC   C4A 6090  16.728  28.383   7.655
 5771POPC   C1B 6091  16.625  28.086   8.555
 5771POPC   C2B 6092  16.705  28.135   8.255
 5771POPC   C3B 6093  16.627  28.102   7.955
 5771POPC   C4B 6094  16.622  28.151   7.655
 5772POPC   NC3 6095  43.933  26.792   9.455
 5772POPC   PO4 6096  43.863  26.834   9.155
 5772POPC   GL1 6097  43.866  26.797   8.855
 5772POPC   GL2 6098  43.890  26.680   8.855
 5772POPC   C1A 6099  43.902  26.788   8.555
 5772POPC   D2A 6100  43.934  26.780   8.255
 5772POPC   C3A 6101  43.932  26.840   7.955
 5772POPC   C4A 6102  43.887  26.831   7.655
 5772POPC   C1B 6103  43.844  26.523   8.555
 5772POPC   C2B 6104  43.907  26.541   8.255
 5772POPC   C3B 6105  43.920  26.558   7.955
 5772POPC   C4B 6106  43.911  26.609   7.655
 5773POPC   NC3 6107  31.497  12.044   9.455
 5773POPC   PO4 6108  31.454  12.076   9.155
 5773POPC   GL1 6109  31.470  12.118   8.855
 5773POPC   GL2 6110  31.331  12.167   8.855
 5773POPC   C1A 6111  31.480  12.064   8.555
 5773POPC   D2A 6112  31.447  12.065   8.255
 5773POPC   C3A 6113  31.426  12.109   7.955
 5773POPC   C4A 6114  31.498  12.044   7.655
 5773POPC   C1B 6115  31.250  12.276   8.555
 5773POPC   C2B 6116  31.246  12.264   8.255
 5773POPC   C3B 6117  31.315  12.260   7.955
 5773POPC   C4B 6118  31.278  12.275   7.655
 5774POPC   NC3 6119  31.497  35.381   9.455
 5774POPC   PO4 6120  31.498  35.389   9.155
 5774POPC   GL1 6121  31.492  35.323   8.855
 5774POPC   GL2 6122  31.579  35.500   8.855
 5774POPC   C1A 6123  31.513  35.362   8.555
 5774POPC   D2A 6124  31.500  35.329   8.255
 5774POPC   C3A 6125  31.511  35.308   7.955
 5774POPC   C4A 6126  31.515  35.305   7.655
 5774POPC   C1B 6127  31.648  35.589   8.555
 5774POPC   C2B 6128  31.603  35.591   8.255
 5774POPC   C3B 6129  31.573  35.532   7.955
 5774POPC   C4B 6130  31.580  35.553   7.655
 5775POPC   NC3 6131  19.051  39.253   9.455
 5775POPC   PO4 6132  19.053  39.276   9.155
 5775POPC   GL1 6133  19.087  39.279   8.855
 5775POPC   GL2 6134  19.131  39.107   8.855
 5775POPC   C1A 6135  19.106  39.237   8.555
 5775POPC   D2A 6136  19.088  39.253   8.255
 5775POPC   C3A 6137  19.065  39.229   7.955
 5775POPC   C4A 6138  19.025  39.181   7.655
 5775POPC   C1B 6139  19.143  39.017   8.555
 5775POPC   C2B 6140  19.074  38.983   8.255
 5775POPC   C3B 6141  19.066  38.983   7.955
 5775POPC   C4B 6142  19.096  38.964   7.655
 5776POPC   NC3 6143  43.878  13.578   9.455
 5776POPC   PO4 6144  43.849  13.650   9.155
 5776POPC   GL1 6145  43.917  13.592   8.855
 5776POPC   GL2 6146  44.004  13.555   8.855
 5776POPC   C1A 6147  43.886  13.584   8.555
 5776POPC   D2A 6148  43.866  13.657   8.255
 5776POPC   C3A 6149  43.862  13.593   7.955
 5776POPC   C4A 6150  43.849  13.627   7.655
 5776POPC   C1B 6151  44.069  13.443   8.555
 5776POPC   C2B 6152  44.061  13.484   8.255
 5776POPC   C3B 6153  44.065  13.481   7.955
 5776POPC   C4B 6154  44.112  13.502   7.655
 5777POPC   NC3 6155  10.502  23.755   9.455
 5777POPC   PO4 6156  10.479  23.706   9.155
 5777POPC   GL1 6157  10.524  23.743   8.855
 5777POPC   GL2 6158  10.545  23.798   8.855
 5777POPC   C1A 6159  10.573  23.682   8.555
 5777POPC   D2A 6160  10.509  23.756   8.255
 5777POPC   C3A 6161  10.520  23.708   7.955
 5777POPC   C4A 6162  10.559  23.684   7.655
 5777POPC   C1B 6163  10.548  23.966   8.555
 5777POPC   C2B 6164  10.556  23.975   8.255
 5777POPC   C3B 6165  10.551  23.995   7.955
 5777POPC   C4B 6166  10.620  24.005   7.655
 5778POPC   NC3 6167  19.838  30.694   9.455
 5778POPC   PO4 6168  19.787  30.667   9.155
 5778POPC   GL1 6169  19.789  30.714   8.855
 5778POPC   GL2 6170  19.909  30.737   8.855
 5778POPC   C1A 6171  19.801  30.671   8.555
 5778POPC   D2A 6172  19.845  30.705   8.255
 5778POPC   C3A 6173  19.849  30.672   7.955
 5778POPC   C4A 6174  19.859  30.722   7.655
 5778POPC   C1B 6175  20.067  30.869   8.555
 5778POPC   C2B 6176  20.053  30.777   8.255
 5778POPC   C3B 6177  20.077  30.807   7.955
 5778POPC   C4B 6178  20.100  30.860   7.655
 5779POPC   NC3 6179  42.368  22.974   9.455
 5779POPC   PO4 6180  42.329  22.965   9.155
 5779POPC   GL1 6181  42.327  22.894   8.855
 5779POPC   GL2 6182  42.211  22.997   8.855
 5779POPC   C1A 6183  42.305  22.928   8.555
 5779POPC   D2A 6184  42.340  22.978   8.255
 5779POPC   C3A 6185  42.332  22.928   7.955
 5779POPC   C4A 6186  42.332  22.912   7.655
 5779POPC   C1B 6187  42.112  23.026   8.555
 5779POPC   C2B 6188  42.041  22.987   8.255
 5779POPC   C3B 6189  42.043  23.010   7.955
 5779POPC   C4B 6190  42.078  23.015   7.655
 5780POPC   NC3 6191  15.153  36.924   9.455
 5780POPC   PO4 6192  15.192  36.935   9.155
 5780POPC   GL1 6193  15.163  36.944   8.855
 5780POPC   GL2 6194  15.011  36.921   8.855
 5780POPC   C1A 6195  15.136  36.927   8.555
 5780POPC   D2A 6196  15.222  36.883   8.255
 5780POPC   C3A 6197  15.187  36.913   7.955
 5780POPC   C4A 6198  15.166  36.889   7.655
 5780POPC   C1B 6199  14.935  36.865   8.555
 5780POPC   C2B 6200  14.974  36.806   8.255
 5780POPC   C3B 6201  14.971  36.824   7.955
 5780POPC   C4B 6202  14.950  36.895   7.655
 5781POPC   NC3 6203  14.379  34.591   9.455
 5781POPC   PO4 6204  14.390  34.605   9.155
 5781POPC   GL1 6205  14.446  34.558   8.855
 5781POPC   GL2 6206  14.358  34.470   8.855
 5781POPC   C1A 6207  14.447  34.583   8.555
 5781POPC   D2A 6208  14.389  34.564   8.255
 5781POPC   C3A 6209  14.421  34.532   7.955
 5781POPC   C4A 6210  14.417  34.566   7.655
 5781POPC   C1B 6211  14.264  34.355   8.555
 5781POPC   C2B 6212  14.313  34.368   8.255
 5781POPC   C3B 6213  14.317  34.325   7.955
 5781POPC   C4B 6214  14.264  34.316   7.655
 5782POPC   NC3 6215   1.252  26.793   9.455
 5782POPC   PO4 6216   1.171  26.864   9.155
 5782POPC   GL1 6217   1.246  26.856   8.855
 5782POPC   GL2 6218   1.162  26.701   8.855
 5782POPC   C1A 6219   1.171  26.811   8.555
 5782POPC   D2A 6220   1.239  26.865   8.255
 5782POPC   C3A 6221   1.235  26.801   7.955
 5782POPC   C4A 6222   1.172  26.809   7.655
 5782POPC   C1B 6223   1.200  26.597   8.555
 5782POPC   C2B 6224   1.182  26.545   8.255
 5782POPC   C3B 6225   1.219  26.533   7.955
 5782POPC   C4B 6226   1.191  26.518   7.655
 5783POPC   NC3 6227  18.260  22.943   9.455
 5783POPC   PO4 6228  18.301  22.983   9.155
 5783POPC   GL1 6229  18.325  22.931   8.855
 5783POPC   GL2 6230  18.263  23.027   8.855
 5783POPC   C1A 6231  18.316  22.929   8.555
 5783POPC   D2A 6232  18.289  22.915   8.255
 5783POPC   C3A 6233  18.294  22.934   7.955
 5783POPC   C4A 6234  18.252  22.961   7.655
 5783POPC   C1B 6235  18.292  23.222   8.555
 5783POPC   C2B 6236  18.301  23.224   8.255
 5783POPC   C3B 6237  18.375  23.166   7.955
 5783POPC   C4B 6238  18.298  23.190   7.655
 5784POPC   NC3 6239  16.725  40.009   9.455
 5784POPC   PO4 6240  16.768  39.980   9.155
 5784POPC   GL1 6241  16.682  40.027   8.855
 5784POPC   GL2 6242  16.754  39.884   8.855
 5784POPC   C1A 6243  16.736  40.046   8.555
 5784POPC   D2A 6244  16.775  39.993   8.255
 5784POPC   C3A 6245  16.739  39.964   7.955
 5784POPC   C4A 6246  16.728  40.052   7.655
 5784POPC   C1B 6247  16.754  39.802   8.555
 5784POPC   C2B 6248  16.792  39.806   8.255
 5784POPC   C3B 6249  16.767  39.797   7.955
 5784POPC   C4B 6250  16.750  39.744   7.655
 5785POPC   NC3 6251  19.013  41.599   9.455
 5785POPC   PO4 6252  19.063  41.553   9.155
 5785POPC   GL1 6253  19.042  41.589   8.855
 5785POPC   GL2 6254  19.033  41.396   8.855
 5785POPC   C1A 6255  19.064  41.529   8.555
 5785POPC   D2A 6256  19.022  41.595   8.255
 5785POPC   C3A 6257  19.049  41.554   7.955
 5785POPC   C4A 6258  19.051  41.535   7.655
 5785POPC   C1B 6259  19.106  41.326   8.555
 5785POPC   C2B 6260  19.084  41.331   8.255
 5785POPC   C3B 6261  19.143  41.281   7.955
 5785POPC   C4B 6262  19.142  41.349   7.655
 5786POPC   NC3 6263   6.603  26.866   9.455
 5786POPC   PO4 6264   6.595  26.810   9.155
 5786POPC   GL1 6265   6.643  26.789   8.855
 5786POPC   GL2 6266   6.674  26.938   8.855
 5786POPC   C1A 6267   6.636  26.827   8.555
 5786POPC   D2A 6268   6.685  26.794   8.255
 5786POPC   C3A 6269   6.643  26.841   7.955
 5786POPC   C4A 6270   6.624  26.796   7.655
 5786POPC   C1B 6271   6.656  27.076   8.555
 5786POPC   C2B 6272   6.665  27.016   8.255
 5786POPC   C3B 6273   6.692  27.028   7.955
 5786POPC   C4B 6274   6.672  27.080   7.655
 5787POPC   NC3 6275  44.627   8.215   9.455
 5787POPC   PO4 6276  44.620   8.173   9.155
 5787POPC   GL1 6277  44.630   8.160   8.855
 5787POPC   GL2 6278  44.586   8.120   8.855
 5787POPC   C1A 6279  44.622   8.163   8.555
 5787POPC   D2A 6280  44.620   8.217   8.255
 5787POPC   C3A 6281  44.632   8.200   7.955
 5787POPC   C4A 6282  44.673   8.189   7.655
 5787POPC   C1B 6283  44.525   7.925   8.555
 5787POPC   C2B 6284  44.585   7.998   8.255
 5787POPC   C3B 6285  44.565   7.942   7.955
 5787POPC   C4B 6286  44.578   8.007   7.655
 5788POPC   NC3 6287   2.731  30.669   9.455
 5788POPC   PO4 6288   2.801  30.659   9.155
 5788POPC   GL1 6289   2.763  30.700   8.855
 5788POPC   GL2 6290   2.642  30.829   8.855
 5788POPC   C1A 6291   2.805  30.687   8.555
 5788POPC   D2A 6292   2.765  30.710   8.255
 5788POPC   C3A 6293   2.777  30.670   7.955
 5788POPC   C4A 6294   2.810  30.701   7.655
 5788POPC   C1B 6295   2.626  30.883   8.555
 5788POPC   C2B 6296   2.642  30.899   8.255
 5788POPC   C3B 6297   2.621  30.911   7.955
 5788POPC   C4B 6298   2.633  30.915   7.655
 5789POPC   NC3 6299  13.601  26.026   9.455
 5789POPC   PO4 6300  13.606  26.064   9.155
 5789POPC   GL1 6301  13.629  26.030   8.855
 5789POPC   GL2 6302  13.507  26.097   8.855
 5789POPC   C1A 6303  13.648  26.056   8.555
 5789POPC   D2A 6304  13.596  26.010   8.255
 5789POPC   C3A 6305  13.674  26.024   7.955
 5789POPC   C4A 6306  13.663  26.002   7.655
 5789POPC   C1B 6307  13.368  26.103   8.555
 5789POPC   C2B 6308  13.371  26.095   8.255
 5789POPC   C3B 6309  13.361  26.090   7.955
 5789POPC   C4B 6310  13.387  26.074   7.655
 5790POPC   NC3 6311  26.049  15.991   9.455
 5790POPC   PO4 6312  26.085  15.906   9.155
 5790POPC   GL1 6313  26.060  15.941   8.855
 5790POPC   GL2 6314  25.949  15.848   8.855
 5790POPC   C1A 6315  26.044  15.975   8.555
 5790POPC   D2A 6316  26.045  15.955   8.255
 5790POPC   C3A 6317  26.046  15.998   7.955
 5790POPC   C4A 6318  26.045  15.934   7.655
 5790POPC   C1B 6319  25.783  15.864   8.555
 5790POPC   C2B 6320  25.833  15.856   8.255
 5790POPC   C3B 6321  25.785  15.822   7.955
 5790POPC   C4B 6322  25.875  15.862   7.655
 5791POPC   NC3 6323  16.755   6.602   9.455
 5791POPC   PO4 6324  16.714   6.639   9.155
 5791POPC   GL1 6325  16.685   6.681   8.855
 5791POPC   GL2 6326  16.820   6.560   8.855
 5791POPC   C1A 6327  16.727   6.632   8.555
 5791POPC   D2A 6328  16.689   6.642   8.255
 5791POPC   C3A 6329  16.712   6.646   7.955
 5791POPC   C4A 6330  16.780   6.606   7.655
 5791POPC   C1B 6331  16.871   6.412   8.555
 5791POPC   C2B 6332  16.897   6.454   8.255
 5791POPC   C3B 6333  16.914   6.414   7.955
 5791POPC   C4B 6334  16.888   6.423   7.655
 5792POPC   NC3 6335  21.392  19.049   9.455
 5792POPC   PO4 6336  21.432  19.018   9.155
 5792POPC   GL1 6337  21.426  19.094   8.855
 5792POPC   GL2 6338  21.293  19.213   8.855
 5792POPC   C1A 6339  21.422  19.057   8.555
 5792POPC   D2A 6340  21.398  19.074   8.255
 5792POPC   C3A 6341  21.408  19.060   7.955
 5792POPC   C4A 6342  21.347  19.086   7.655
 5792POPC   C1B 6343  21.223  19.322   8.555
 5792POPC   C2B 6344  21.237  19.228   8.255
 5792POPC   C3B 6345  21.265  19.317   7.955
 5792POPC   C4B 6346  21.242  19.257   7.655
 5793POPC   NC3 6347   7.432  10.513   9.455
 5793POPC   PO4 6348   7.462  10.522   9.155
 5793POPC   GL1 6349   7.411  10.518   8.855
 5793POPC   GL2 6350   7.252  10.498   8.855
 5793POPC   C1A 6351   7.444  10.492   8.555
 5793POPC   D2A 6352   7.379  10.531   8.255
 5793POPC   C3A 6353   7.407  10.525   7.955
 5793POPC   C4A 6354   7.377  10.571   7.655
 5793POPC   C1B 6355   7.202  10.528   8.555
 5793POPC   C2B 6356   7.212  10.525   8.255
 5793POPC   C3B 6357   7.206  10.449   7.955
 5793POPC   C4B 6358   7.154  10.480   7.655
 5794POPC   NC3 6359  25.298   5.129   9.455
 5794POPC   PO4 6360  25.253   5.092   9.155
 5794POPC   GL1 6361  25.249   5.047   8.855
 5794POPC   GL2 6362  25.191   5.076   8.855
 5794POPC   C1A 6363  25.225   5.114   8.555
 5794POPC   D2A 6364  25.246   5.091   8.255
 5794POPC   C3A 6365  25.310   5.065   7.955
 5794POPC   C4A 6366  25.304   5.143   7.655
 5794POPC   C1B 6367  25.084   5.020   8.555
 5794POPC   C2B 6368  24.996   4.973   8.255
 5794POPC   C3B 6369  25.011   4.989   7.955
 5794POPC   C4B 6370  25.040   5.026   7.655
 5795POPC   NC3 6371   8.173   7.399   9.455
 5795POPC   PO4 6372   8.218   7.381   9.155
 5795POPC   GL1 6373   8.243   7.396   8.855
 5795POPC   GL2 6374   8.358   7.491   8.855
 5795POPC   C1A 6375   8.215   7.448   8.555
 5795POPC   D2A 6376   8.161   7.385   8.255
 5795POPC   C3A 6377   8.205   7.384   7.955
 5795POPC   C4A 6378   8.228   7.435   7.655
 5795POPC   C1B 6379   8.387   7.454   8.555
 5795POPC   C2B 6380   8.469   7.498   8.255
 5795POPC   C3B 6381   8.471   7.487   7.955
 5795POPC   C4B 6382   8.410   7.486   7.655
 5796POPC   NC3 6383  19.099  24.504   9.455
 5796POPC   PO4 6384  19.072  24.460   9.155
 5796POPC   GL1 6385  19.013  24.519   8.855
 5796POPC   GL2 6386  19.206  24.550   8.855
 5796POPC   C1A 6387  19.082  24.481   8.555
 5796POPC   D2A 6388  19.026  24.505   8.255
 5796POPC   C3A 6389  19.095  24.522   7.955
 5796POPC   C4A 6390  19.031  24.446   7.655
 5796POPC   C1B 6391  19.281  24.592   8.555
 5796POPC   C2B 6392  19.251  24.594   8.255
 5796POPC   C3B 6393  19.274  24.580   7.955
 5796POPC   C4B 6394  19.282  24.576   7.655
 5797POPC   NC3 6395   8.943  36.124   9.455
 5797POPC   PO4 6396   8.946  36.160   9.155
 5797POPC   GL1 6397   8.930  36.099   8.855
 5797POPC   GL2 6398   9.144  36.199   8.855
 5797POPC   C1A 6399   8.950  36.173   8.555
 5797POPC   D2A 6400   8.927  36.159   8.255
 5797POPC   C3A 6401   9.017  36.096   7.955
 5797POPC   C4A 6402   8.997  36.132   7.655
 5797POPC   C1B 6403   9.196  36.211   8.555
 5797POPC   C2B 6404   9.194  36.228   8.255
 5797POPC   C3B 6405   9.181  36.153   7.955
 5797POPC   C4B 6406   9.222  36.144   7.655
 5798POPC   NC3 6407  21.359  42.367   9.455
 5798POPC   PO4 6408  21.374  42.328   9.155
 5798POPC   GL1 6409  21.392  42.308   8.855
 5798POPC   GL2 6410  21.406  42.463   8.855
 5798POPC   C1A 6411  21.426  42.331   8.555
 5798POPC   D2A 6412  21.429  42.327   8.255
 5798POPC   C3A 6413  21.372  42.290   7.955
 5798POPC   C4A 6414  21.423  42.344   7.655
 5798POPC   C1B 6415  21.369  42.607   8.555
 5798POPC   C2B 6416  21.379  42.626   8.255
 5798POPC   C3B 6417  21.359  42.592   7.955
 5798POPC   C4B 6418  21.326  42.609   7.655
 5799POPC   NC3 6419   0.454   3.543   9.455
 5799POPC   PO4 6420   0.458   3.519   9.155
 5799POPC   GL1 6421   0.473   3.504   8.855
 5799POPC   GL2 6422   0.505   3.421   8.855
 5799POPC   C1A 6423   0.469   3.591   8.555
 5799POPC   D2A 6424   0.407   3.524   8.255
 5799POPC   C3A 6425   0.453   3.585   7.955
 5799POPC   C4A 6426   0.454   3.516   7.655
 5799POPC   C1B 6427   0.474   3.288   8.555
 5799POPC   C2B 6428   0.503   3.315   8.255
 5799POPC   C3B 6429   0.509   3.271   7.955
 5799POPC   C4B 6430   0.526   3.257   7.655
 5800POPC   NC3 6431  24.511  15.943   9.455
 5800POPC   PO4 6432  24.467  15.932   9.155
 5800POPC   GL1 6433  24.479  15.971   8.855
 5800POPC   GL2 6434  24.440  15.886   8.855
 5800POPC   C1A 6435  24.511  15.933   8.555
 5800POPC   D2A 6436  24.463  15.932   8.255
 5800POPC   C3A 6437  24.451  15.970   7.955
 5800POPC   C4A 6438  24.495  15.938   7.655
 5800POPC   C1B 6439  24.296  15.743   8.555
 5800POPC   C2B 6440  24.262  15.739   8.255
 5800POPC   C3B 6441  24.336  15.737   7.955
 5800POPC   C4B 6442  24.293  15.800   7.655
 5801POPC   NC3 6443  18.332  35.379   9.455
 5801POPC   PO4 6444  18.268  35.333   9.155
 5801POPC   GL1 6445  18.318  35.376   8.855
 5801POPC   GL2 6446  18.443  35.409   8.855
 5801POPC   C1A 6447  18.300  35.388   8.555
 5801POPC   D2A 6448  18.265  35.321   8.255
 5801POPC   C3A 6449  18.269  35.333   7.955
 5801POPC   C4A 6450  18.285  35.338   7.655
 5801POPC   C1B 6451  18.538  35.418   8.555
 5801POPC   C2B 6452  18.488  35.403   8.255
 5801POPC   C3B 6453  18.534  35.391   7.955
 5801POPC   C4B 6454  18.482  35.480   7.655
 5802POPC   NC3 6455  26.043  22.962   9.455
 5802POPC   PO4 6456  26.020  22.910   9.155
 5802POPC   GL1 6457  26.064  22.973   8.855
 5802POPC   GL2 6458  25.895  22.912   8.855
 5802POPC   C1A 6459  26.068  22.904   8.555
 5802POPC   D2A 6460  26.005  22.913   8.255
 5802POPC   C3A 6461  26.090  22.917   7.955
 5802POPC   C4A 6462  26.048  22.905   7.655
 5802POPC   C1B 6463  25.872  22.798   8.555
 5802POPC   C2B 6464  25.838  22.825   8.255
 5802POPC   C3B 6465  25.836  22.839   7.955
 5802POPC   C4B 6466  25.785  22.786   7.655
 5803POPC   NC3 6467  29.933  44.662   9.455
 5803POPC   PO4 6468  29.887  44.630   9.155
 5803POPC   GL1 6469  29.948  44.629   8.855
 5803POPC   GL2 6470  29.844  44.828   8.855
 5803POPC   C1A 6471  29.953  44.700   8.555
 5803POPC   D2A 6472  29.919  44.621   8.255
 5803POPC   C3A 6473  29.906  44.616   7.955
 5803POPC   C4A 6474  29.878  44.705   7.655
 5803POPC   C1B 6475  29.782  44.910   8.555
 5803POPC   C2B 6476  29.817  44.869   8.255
 5803POPC   C3B 6477  29.871  44.930   7.955
 5803POPC   C4B 6478  29.849  44.905   7.655
 5804POPC   NC3 6479  38.478  27.611   9.455
 5804POPC   PO4 6480  38.491  27.635   9.155
 5804POPC   GL1 6481  38.491  27.620   8.855
 5804POPC   GL2 6482  38.378  27.605   8.855
 5804POPC   C1A 6483  38.503  27.629   8.555
 5804POPC   D2A 6484  38.418  27.564   8.255
 5804POPC   C3A 6485  38.468  27.616   7.955
 5804POPC   C4A 6486  38.450  27.614   7.655
 5804POPC   C1B 6487  38.250  27.542   8.555
 5804POPC   C2B 6488  38.183  27.632   8.255
 5804POPC   C3B 6489  38.206  27.614   7.955
 5804POPC   C4B 6490  38.206  27.621   7.655
 5805POPC   NC3 6491  29.944  14.369   9.455
 5805POPC   PO4 6492  29.883  14.371   9.155
 5805POPC   GL1 6493  29.878  14.408   8.855
 5805POPC   GL2 6494  29.948  14.476   8.855
 5805POPC   C1A 6495  29.948  14.424   8.555
 5805POPC   D2A 6496  29.911  14.363   8.255
 5805POPC   C3A 6497  29.958  14.392   7.955
 5805POPC   C4A 6498  29.945  14.445   7.655
 5805POPC   C1B 6499  30.015  14.669   8.555
 5805POPC   C2B 6500  30.004  14.585   8.255
 5805POPC   C3B 6501  30.048  14.636   7.955
 5805POPC   C4B 6502  29.981  14.615   7.655
 5806POPC   NC3 6503  32.981  23.707   9.455
 5806POPC   PO4 6504  33.041  23.752   9.155
 5806POPC   GL1 6505  33.048  23.674   8.855
 5806POPC   GL2 6506  32.959  23.806   8.855
 5806POPC   C1A 6507  33.063  23.727   8.555
 5806POPC   D2A 6508  32.991  23.726   8.255
 5806POPC   C3A 6509  33.026  23.684   7.955
 5806POPC   C4A 6510  32.983  23.694   7.655
 5806POPC   C1B 6511  32.933  23.932   8.555
 5806POPC   C2B 6512  32.905  23.975   8.255
 5806POPC   C3B 6513  32.907  23.913   7.955
 5806POPC   C4B 6514  32.943  23.929   7.655
 5807POPC   NC3 6515  34.543  32.232   9.455
 5807POPC   PO4 6516  34.533  32.284   9.155
 5807POPC   GL1 6517  34.529  32.287   8.855
 5807POPC   GL2 6518  34.476  32.163   8.855
 5807POPC   C1A 6519  34.620  32.288   8.555
 5807POPC   D2A 6520  34.560  32.228   8.255
 5807POPC   C3A 6521  34.566  32.266   7.955
 5807POPC   C4A 6522  34.529  32.288   7.655
 5807POPC   C1B 6523  34.447  32.067   8.555
 5807POPC   C2B 6524  34.431  32.039   8.255
 5807POPC   C3B 6525  34.456  32.067   7.955
 5807POPC   C4B 6526  34.486  32.046   7.655
 5808POPC   NC3 6527  33.815  13.592   9.455
 5808POPC   PO4 6528  33.793  13.675   9.155
 5808POPC   GL1 6529  33.790  13.585   8.855
 5808POPC   GL2 6530  33.707  13.674   8.855
 5808POPC   C1A 6531  33.821  13.629   8.555
 5808POPC   D2A 6532  33.754  13.581   8.255
 5808POPC   C3A 6533  33.846  13.600   7.955
 5808POPC   C4A 6534  33.760  13.583   7.655
 5808POPC   C1B 6535  33.573  13.659   8.555
 5808POPC   C2B 6536  33.515  13.677   8.255
 5808POPC   C3B 6537  33.600  13.652   7.955
 5808POPC   C4B 6538  33.513  13.663   7.655
 5809POPC   NC3 6539  35.377  42.366   9.455
 5809POPC   PO4 6540  35.302  42.376   9.155
 5809POPC   GL1 6541  35.377  42.378   8.855
 5809POPC   GL2 6542  35.233  42.285   8.855
 5809POPC   C1A 6543  35.362  42.370   8.555
 5809POPC   D2A 6544  35.390  42.379   8.255
 5809POPC   C3A 6545  35.348  42.311   7.955
 5809POPC   C4A 6546  35.390  42.300   7.655
 5809POPC   C1B 6547  35.127  42.307   8.555
 5809POPC   C2B 6548  35.080  42.276   8.255
 5809POPC   C3B 6549  35.088  42.264   7.955
 5809POPC   C4B 6550  35.063  42.234   7.655
 5810POPC   NC3 6551  26.024  18.273   9.455
 5810POPC   PO4 6552  26.027  18.267   9.155
 5810POPC   GL1 6553  26.003  18.234   8.855
 5810POPC   GL2 6554  26.041  18.396   8.855
 5810POPC   C1A 6555  26.074  18.244   8.555
 5810POPC   D2A 6556  26.022  18.259   8.255
 5810POPC   C3A 6557  26.035  18.311   7.955
 5810POPC   C4A 6558  26.026  18.331   7.655
 5810POPC   C1B 6559  25.954  18.551   8.555
 5810POPC   C2B 6560  25.922  18.481   8.255
 5810POPC   C3B 6561  25.966  18.476   7.955
 5810POPC   C4B 6562  25.953  18.482   7.655
 5811POPC   NC3 6563  26.856  14.433   9.455
 5811POPC   PO4 6564  26.854  14.404   9.155
 5811POPC   GL1 6565  26.784  14.402   8.855
 5811POPC   GL2 6566  26.658  14.442   8.855
 5811POPC   C1A 6567  26.840  14.393   8.555
 5811POPC   D2A 6568  26.862  14.385   8.255
 5811POPC   C3A 6569  26.809  14.440   7.955
 5811POPC   C4A 6570  26.856  14.439   7.655
 5811POPC   C1B 6571  26.584  14.470   8.555
 5811POPC   C2B 6572  26.582  14.415   8.255
 5811POPC   C3B 6573  26.566  14.417   7.955
 5811POPC   C4B 6574  26.534  14.435   7.655
 5812POPC   NC3 6575  42.376  32.211   9.455
 5812POPC   PO4 6576  42.306  32.202   9.155
 5812POPC   GL1 6577  42.373  32.290   8.855
 5812POPC   GL2 6578  42.326  32.098   8.855
 5812POPC   C1A 6579  42.331  32.200   8.555
 5812POPC   D2A 6580  42.326  32.273   8.255
 5812POPC   C3A 6581  42.328  32.199   7.955
 5812POPC   C4A 6582  42.347  32.261   7.655
 5812POPC   C1B 6583  42.289  32.030   8.555
 5812POPC   C2B 6584  42.247  32.024   8.255
 5812POPC   C3B 6585  42.240  31.992   7.955
 5812POPC   C4B 6586  42.232  31.980   7.655
 5813POPC   NC3 6587   8.213  34.611   9.455
 5813POPC   PO4 6588   8.203  34.576   9.155
 5813POPC   GL1 6589   8.158  34.620   8.855
 5813POPC   GL2 6590   8.139  34.725   8.855
 5813POPC   C1A 6591   8.151  34.612   8.555
 5813POPC   D2A 6592   8.179  34.565   8.255
 5813POPC   C3A 6593   8.156  34.598   7.955
 5813POPC   C4A 6594   8.223  34.560   7.655
 5813POPC   C1B 6595   8.130  34.794   8.555
 5813POPC   C2B 6596   8.070  34.770   8.255
 5813POPC   C3B 6597   8.099  34.801   7.955
 5813POPC   C4B 6598   8.083  34.822   7.655
 5814POPC   NC3 6599   5.097  25.309   9.455
 5814POPC   PO4 6600   5.089  25.254   9.155
 5814POPC   GL1 6601   5.058  25.315   8.855
 5814POPC   GL2 6602   5.057  25.172   8.855
 5814POPC   C1A 6603   5.100  25.218   8.555
 5814POPC   D2A 6604   5.065  25.258   8.255
 5814POPC   C3A 6605   5.068  25.257   7.955
 5814POPC   C4A 6606   5.059  25.216   7.655
 5814POPC   C1B 6607   4.933  25.054   8.555
 5814POPC   C2B 6608   4.909  25.071   8.255
 5814POPC   C3B 6609   4.954  25.038   7.955
 5814POPC   C4B 6610   4.975  25.103   7.655
 5815POPC   NC3 6611  28.410   5.048   9.455
 5815POPC   PO4 6612  28.403   5.117   9.155
 5815POPC   GL1 6613  28.404   5.081   8.855
 5815POPC   GL2 6614  28.250   5.191   8.855
 5815POPC   C1A 6615  28.354   5.111   8.555
 5815POPC   D2A 6616  28.380   5.064   8.255
 5815POPC   C3A 6617  28.324   5.045   7.955
 5815POPC   C4A 6618  28.345   5.051   7.655
 5815POPC   C1B 6619  28.211   5.284   8.555
 5815POPC   C2B 6620  28.139   5.256   8.255
 5815POPC   C3B 6621  28.157   5.293   7.955
 5815POPC   C4B 6622  28.181   5.237   7.655
 5816POPC   NC3 6623  22.174   5.842   9.455
 5816POPC   PO4 6624  22.137   5.832   9.155
 5816POPC   GL1 6625  22.188   5.883   8.855
 5816POPC   GL2 6626  22.267   6.014   8.855
 5816POPC   C1A 6627  22.181   5.905   8.555
 5816POPC   D2A 6628  22.186   5.836   8.255
 5816POPC   C3A 6629  22.193   5.900   7.955
 5816POPC   C4A 6630  22.200   5.899   7.655
 5816POPC   C1B 6631  22.248   6.123   8.555
 5816POPC   C2B 6632  22.247   6.101   8.255
 5816POPC   C3B 6633  22.291   6.087   7.955
 5816POPC   C4B 6634  22.320   6.075   7.655
 5817POPC   NC3 6635  42.347  31.426   9.455
 5817POPC   PO4 6636  42.381  31.490   9.155
 5817POPC   GL1 6637  42.384  31.431   8.855
 5817POPC   GL2 6638  42.351  31.592   8.855
 5817POPC   C1A 6639  42.294  31.442   8.555
 5817POPC   D2A 6640  42.344  31.482   8.255
 5817POPC   C3A 6641  42.316  31.513   7.955
 5817POPC   C4A 6642  42.302  31.503   7.655
 5817POPC   C1B 6643  42.394  31.688   8.555
 5817POPC   C2B 6644  42.406  31.720   8.255
 5817POPC   C3B 6645  42.387  31.743   7.955
 5817POPC   C4B 6646  42.370  31.738   7.655
 5818POPC   NC3 6647  43.847  20.561   9.455
 5818POPC   PO4 6648  43.876  20.622   9.155
 5818POPC   GL1 6649  43.883  20.583   8.855
 5818POPC   GL2 6650  43.858  20.467   8.855
 5818POPC   C1A 6651  43.909  20.566   8.555
 5818POPC   D2A 6652  43.876  20.578   8.255
 5818POPC   C3A 6653  43.900  20.659   7.955
 5818POPC   C4A 6654  43.930  20.647   7.655
 5818POPC   C1B 6655  43.896  20.333   8.555
 5818POPC   C2B 6656  43.894  20.395   8.255
 5818POPC   C3B 6657  43.949  20.327   7.955
 5818POPC   C4B 6658  43.884  20.401   7.655
 5819POPC   NC3 6659   8.192  40.748   9.455
 5819POPC   PO4 6660   8.236  40.793   9.155
 5819POPC   GL1 6661   8.202  40.811   8.855
 5819POPC   GL2 6662   8.132  40.866   8.855
 5819POPC   C1A 6663   8.216  40.802   8.555
 5819POPC   D2A 6664   8.222  40.785   8.255
 5819POPC   C3A 6665   8.196  40.781   7.955
 5819POPC   C4A 6666   8.192  40.781   7.655
 5819POPC   C1B 6667   8.027  40.934   8.555
 5819POPC   C2B 6668   7.992  40.978   8.255
 5819POPC   C3B 6669   8.048  40.928   7.955
 5819POPC   C4B 6670   8.055  40.934   7.655
 5820POPC   NC3 6671  14.452  30.701   9.455
 5820POPC   PO4 6672  14.380  30.682   9.155
 5820POPC   GL1 6673  14.392  30.667   8.855
 5820POPC   GL2 6674  14.326  30.828   8.855
 5820POPC   C1A 6675  14.413  30.703   8.555
 5820POPC   D2A 6676  14.420  30.737   8.255
 5820POPC   C3A 6677  14.435  30.681   7.955
 5820POPC   C4A 6678  14.445  30.683   7.655
 5820POPC   C1B 6679  14.262  30.926   8.555
 5820POPC   C2B 6680  14.320  30.884   8.255
 5820POPC   C3B 6681  14.259  30.925   7.955
 5820POPC   C4B 6682  14.225  30.870   7.655
 5821POPC   NC3 6683   6.637  35.385   9.455
 5821POPC   PO4 6684   6.638  35.349   9.155
 5821POPC   GL1 6685   6.677  35.381   8.855
 5821POPC   GL2 6686   6.644  35.214   8.855
 5821POPC   C1A 6687   6.600  35.347   8.555
 5821POPC   D2A 6688   6.670  35.327   8.255
 5821POPC   C3A 6689   6.628  35.398   7.955
 5821POPC   C4A 6690   6.608  35.321   7.655
 5821POPC   C1B 6691   6.703  35.108   8.555
 5821POPC   C2B 6692   6.680  35.121   8.255
 5821POPC   C3B 6693   6.693  35.136   7.955
 5821POPC   C4B 6694   6.716  35.140   7.655
 5822POPC   NC3 6695  43.130  23.678   9.455
 5822POPC   PO4 6696  43.068  23.691   9.155
 5822POPC   GL1 6697  43.066  23.719   8.855
 5822POPC   GL2 6698  43.245  23.710   8.855
 5822POPC   C1A 6699  43.142  23.700   8.555
 5822POPC   D2A 6700  43.135  23.735   8.255
 5822POPC   C3A 6701  43.136  23.712   7.955
 5822POPC   C4A 6702  43.096  23.709   7.655
 5822POPC   C1B 6703  43.312  23.694   8.555
 5822POPC   C2B 6704  43.367  23.732   8.255
 5822POPC   C3B 6705  43.323  23.658   7.955
 5822POPC   C4B 6706  43.376  23.723   7.655
 5823POPC   NC3 6707  44.669  22.208   9.455
 5823POPC   PO4 6708  44.669  22.124   9.155
 5823POPC   GL1 6709  44.707  22.129   8.855
 5823POPC   GL2 6710  44.724  22.296   8.855
 5823POPC   C1A 6711  44.651  22.138   8.555
 5823POPC   D2A 6712  44.688  22.165   8.255
 5823POPC   C3A 6713  44.637  22.113   7.955
 5823POPC   C4A 6714  44.679  22.130   7.655
 5823POPC   C1B 6715  44.828  22.398   8.555
 5823POPC   C2B 6716  44.779  22.320   8.255
 5823POPC   C3B 6717  44.802  22.403   7.955
 5823POPC   C4B 6718  44.769  22.325   7.655
 5824POPC   NC3 6719   1.166  34.548   9.455
 5824POPC   PO4 6720   1.203  34.572   9.155
 5824POPC   GL1 6721   1.186  34.563   8.855
 5824POPC   GL2 6722   1.268  34.714   8.855
 5824POPC   C1A 6723   1.198  34.567   8.555
 5824POPC   D2A 6724   1.202  34.602   8.255
 5824POPC   C3A 6725   1.255  34.547   7.955
 5824POPC   C4A 6726   1.257  34.536   7.655
 5824POPC   C1B 6727   1.318  34.754   8.555
 5824POPC   C2B 6728   1.350  34.793   8.255
 5824POPC   C3B 6729   1.353  34.817   7.955
 5824POPC   C4B 6730   1.304  34.800   7.655
 5825POPC   NC3 6731  40.819   9.786   9.455
 5825POPC   PO4 6732  40.746   9.745   9.155
 5825POPC   GL1 6733  40.740   9.774   8.855
 5825POPC   GL2 6734  40.880   9.790   8.855
 5825POPC   C1A 6735  40.774   9.761   8.555
 5825POPC   D2A 6736  40.774   9.728   8.255
 5825POPC   C3A 6737  40.761   9.702   7.955
 5825POPC   C4A 6738  40.804   9.732   7.655
 5825POPC   C1B 6739  41.010   9.747   8.555
 5825POPC   C2B 6740  41.021   9.829   8.255
 5825POPC   C3B 6741  41.015   9.829   7.955
 5825POPC   C4B 6742  40.994   9.803   7.655
 5826POPC   NC3 6743  17.507  29.936   9.455
 5826POPC   PO4 6744  17.476  29.939   9.155
 5826POPC   GL1 6745  17.491  29.894   8.855
 5826POPC   GL2 6746  17.381  29.857   8.855
 5826POPC   C1A 6747  17.462  29.909   8.555
 5826POPC   D2A 6748  17.541  29.954   8.255
 5826POPC   C3A 6749  17.511  29.923   7.955
 5826POPC   C4A 6750  17.525  29.936   7.655
 5826POPC   C1B 6751  17.392  29.711   8.555
 5826POPC   C2B 6752  17.377  29.727   8.255
 5826POPC   C3B 6753  17.360  29.682   7.955
 5826POPC   C4B 6754  17.318  29.713   7.655
 5827POPC   NC3 6755  21.359  38.419   9.455
 5827POPC   PO4 6756  21.380  38.496   9.155
 5827POPC   GL1 6757  21.387  38.439   8.855
 5827POPC   GL2 6758  21.531  38.482   8.855
 5827POPC   C1A 6759  21.383  38.441   8.555
 5827POPC   D2A 6760  21.386  38.441   8.255
 5827POPC   C3A 6761  21.370  38.450   7.955
 5827POPC   C4A 6762  21.341  38.503   7.655
 5827POPC   C1B 6763  21.652  38.595   8.555
 5827POPC   C2B 6764  21.642  38.546   8.255
 5827POPC   C3B 6765  21.633  38.560   7.955
 5827POPC   C4B 6766  21.652  38.538   7.655
 5828POPC   NC3 6767   1.952  26.857   9.455
 5828POPC   PO4 6768   2.023  26.860   9.155
 5828POPC   GL1 6769   1.986  26.770   8.855
 5828POPC   GL2 6770   2.080  26.859   8.855
 5828POPC   C1A 6771   2.038  26.851   8.555
 5828POPC   D2A 6772   1.970  26.792   8.255
 5828POPC   C3A 6773   2.038  26.836   7.955
 5828POPC   C4A 6774   1.982  26.796   7.655
 5828POPC   C1B 6775   2.128  27.026   8.555
 5828POPC   C2B 6776   2.182  26.952   8.255
 5828POPC   C3B 6777   2.151  27.042   7.955
 5828POPC   C4B 6778   2.122  27.021   7.655
 5829POPC   NC3 6779  15.219  33.805   9.455
 5829POPC   PO4 6780  15.218  33.786   9.155
 5829POPC   GL1 6781  15.143  33.775   8.855
 5829POPC   GL2 6782  15.116  33.874   8.855
 5829POPC   C1A 6783  15.227  33.796   8.555
 5829POPC   D2A 6784  15.165  33.793   8.255
 5829POPC   C3A 6785  15.197  33.806   7.955
 5829POPC   C4A 6786  15.170  33.780   7.655
 5829POPC   C1B 6787  15.032  33.982   8.555
 5829POPC   C2B 6788  15.041  34.011   8.255
 5829POPC   C3B 6789  15.107  34.064   7.955
 5829POPC   C4B 6790  15.062  34.066   7.655
 5830POPC   NC3 6791  12.823   6.664   9.455
 5830POPC   PO4 6792  12.853   6.603   9.155
 5830POPC   GL1 6793  12.807   6.671   8.855
 5830POPC   GL2 6794  12.950   6.753   8.855
 5830POPC   C1A 6795  12.851   6.659   8.555
 5830POPC   D2A 6796  12.844   6.608   8.255
 5830POPC   C3A 6797  12.882   6.667   7.955
 5830POPC   C4A 6798  12.843   6.690   7.655
 5830POPC   C1B 6799  13.086   6.818   8.555
 5830POPC   C2B 6800  13.111   6.777   8.255
 5830POPC   C3B 6801  13.028   6.800   7.955
 5830POPC   C4B 6802  13.062   6.744   7.655
 5831POPC   NC3 6803  29.940   6.644   9.455
 5831POPC   PO4 6804  29.950   6.618   9.155
 5831POPC   GL1 6805  29.904   6.628   8.855
 5831POPC   GL2 6806  29.994   6.502   8.855
 5831POPC   C1A 6807  29.901   6.617   8.555
 5831POPC   D2A 6808  29.911   6.623   8.255
 5831POPC   C3A 6809  29.878   6.643   7.955
 5831POPC   C4A 6810  29.889   6.642   7.655
 5831POPC   C1B 6811  30.038   6.395   8.555
 5831POPC   C2B 6812  30.024   6.453   8.255
 5831POPC   C3B 6813  30.071   6.437   7.955
 5831POPC   C4B 6814  30.064   6.403   7.655
 5832POPC   NC3 6815   2.798  32.211   9.455
 5832POPC   PO4 6816   2.765  32.297   9.155
 5832POPC   GL1 6817   2.780  32.213   8.855
 5832POPC   GL2 6818   2.876  32.139   8.855
 5832POPC   C1A 6819   2.792  32.250   8.555
 5832POPC   D2A 6820   2.802  32.227   8.255
 5832POPC   C3A 6821   2.724  32.277   7.955
 5832POPC   C4A 6822   2.808  32.278   7.655
 5832POPC   C1B 6823   2.953  32.084   8.555
 5832POPC   C2B 6824   2.926  32.140   8.255
 5832POPC   C3B 6825   2.944  32.098   7.955
 5832POPC   C4B 6826   2.955  32.151   7.655
 5833POPC   NC3 6827  14.389  17.535   9.455
 5833POPC   PO4 6828  14.364  17.479   9.155
 5833POPC   GL1 6829  14.448  17.553   8.855
 5833POPC   GL2 6830  14.513  17.487   8.855
 5833POPC   C1A 6831  14.364  17.460   8.555
 5833POPC   D2A 6832  14.398  17.495   8.255
 5833POPC   C3A 6833  14.450  17.503   7.955
 5833POPC   C4A 6834  14.387  17.546   7.655
 5833POPC   C1B 6835  14.672  17.542   8.555
 5833POPC   C2B 6836  14.645  17.531   8.255
 5833POPC   C3B 6837  14.635  17.541   7.955
 5833POPC   C4B 6838  14.606  17.486   7.655
 5834POPC   NC3 6839   1.223  15.925   9.455
 5834POPC   PO4 6840   1.176  15.914   9.155
 5834POPC   GL1 6841   1.184  15.909   8.855
 5834POPC   GL2 6842   1.331  15.853   8.855
 5834POPC   C1A 6843   1.221  15.909   8.555
 5834POPC   D2A 6844   1.228  15.982   8.255
 5834POPC   C3A 6845   1.197  16.003   7.955
 5834POPC   C4A 6846   1.173  16.000   7.655
 5834POPC   C1B 6847   1.428  15.796   8.555
 5834POPC   C2B 6848   1.426  15.762   8.255
 5834POPC   C3B 6849   1.382  15.730   7.955
 5834POPC   C4B 6850   1.373  15.787   7.655
 5835POPC   NC3 6851  36.128  12.821   9.455
 5835POPC   PO4 6852  36.170  12.803   9.155
 5835POPC   GL1 6853  36.091  12.895   8.855
 5835POPC   GL2 6854  36.077  13.003   8.855
 5835POPC   C1A 6855  36.156  12.873   8.555
 5835POPC   D2A 6856  36.145  12.834   8.255
 5835POPC   C3A 6857  36.146  12.895   7.955
 5835POPC   C4A 6858  36.079  12.896   7.655
 5835POPC   C1B 6859  36.012  13.097   8.555
 5835POPC   C2B 6860  36.023  13.060   8.255
 5835POPC   C3B 6861  36.031  13.105   7.955
 5835POPC   C4B 6862  36.046  13.041   7.655
 5836POPC   NC3 6863   4.359  29.900   9.455
 5836POPC   PO4 6864   4.320  29.918   9.155
 5836POPC   GL1 6865   4.282  29.879   8.855
 5836POPC   GL2 6866   4.430  29.810   8.855
 5836POPC   C1A 6867   4.299  29.892   8.555
 5836POPC   D2A 6868   4.271  29.930   8.255
 5836POPC   C3A 6869   4.361  29.879   7.955
 5836POPC   C4A 6870   4.284  29.943   7.655
 5836POPC   C1B 6871   4.548  29.731   8.555
 5836POPC   C2B 6872   4.501  29.723   8.255
 5836POPC   C3B 6873   4.461  29.780   7.955
 5836POPC   C4B 6874   4.470  29.761   7.655
 5837POPC   NC3 6875   8.973  12.046   9.455
 5837POPC   PO4 6876   8.983  12.029   9.155
 5837POPC   GL1 6877   8.993  12.088   8.855
 5837POPC   GL2 6878   9.111  12.069   8.855
 5837POPC   C1A 6879   8.976  12.046   8.555
 5837POPC   D2A 6880   9.006  12.106   8.255
 5837POPC   C3A 6881   9.012  12.099   7.955
 5837POPC   C4A 6882   9.002  12.066   7.655
 5837POPC   C1B 6883   9.236  12.094   8.555
 5837POPC   C2B 6884   9.230  12.055   8.255
 5837POPC   C3B 6885   9.219  12.118   7.955
 5837POPC   C4B 6886   9.183  12.084   7.655
 5838POPC   NC3 6887  19.863  40.046   9.455
 5838POPC   PO4 6888  19.882  39.957   9.155
 5838POPC   GL1 6889  19.816  39.996   8.855
 5838POPC   GL2 6890  19.922  39.915   8.855
 5838POPC   C1A 6891  19.796  40.010   8.555
 5838POPC   D2A 6892  19.789  39.965   8.255
 5838POPC   C3A 6893  19.870  40.041   7.955
 5838POPC   C4A 6894  19.806  39.995   7.655
 5838POPC   C1B 6895  19.933  39.787   8.555
 5838POPC   C2B 6896  19.957  39.823   8.255
 5838POPC   C3B 6897  19.970  39.783   7.955
 5838POPC   C4B 6898  19.945  39.760   7.655
 5839POPC   NC3 6899   1.946  36.132   9.455
 5839POPC   PO4 6900   1.969  36.082   9.155
 5839POPC   GL1 6901   2.005  36.108   8.855
 5839POPC   GL2 6902   2.153  36.167   8.855
 5839POPC   C1A 6903   2.030  36.084   8.555
 5839POPC   D2A 6904   1.945  36.086   8.255
 5839POPC   C3A 6905   2.025  36.087   7.955
 5839POPC   C4A 6906   1.944  36.144   7.655
 5839POPC   C1B 6907   2.216  36.201   8.555
 5839POPC   C2B 6908   2.230  36.213   8.255
 5839POPC   C3B 6909   2.222  36.225   7.955
 5839POPC   C4B 6910   2.208  36.170   7.655
 5840POPC   NC3 6911  29.887  11.259   9.455
 5840POPC   PO4 6912  29.903  11.252   9.155
 5840POPC   GL1 6913  29.951  11.269   8.855
 5840POPC   GL2 6914  29.778  11.325   8.855
 5840POPC   C1A 6915  29.911  11.282   8.555
 5840POPC   D2A 6916  29.952  11.268   8.255
 5840POPC   C3A 6917  29.883  11.308   7.955
 5840POPC   C4A 6918  29.900  11.314   7.655
 5840POPC   C1B 6919  29.684  11.410   8.555
 5840POPC   C2B 6920  29.701  11.455   8.255
 5840POPC   C3B 6921  29.705  11.444   7.955
 5840POPC   C4B 6922  29.669  11.405   7.655
 5841POPC   NC3 6923  39.958  28.417   9.455
 5841POPC   PO4 6924  40.052  28.364   9.155
 5841POPC   GL1 6925  40.049  28.325   8.855
 5841POPC   GL2 6926  39.966  28.465   8.855
 5841POPC   C1A 6927  40.023  28.405   8.555
 5841POPC   D2A 6928  40.028  28.418   8.255
 5841POPC   C3A 6929  40.001  28.357   7.955
 5841POPC   C4A 6930  40.029  28.368   7.655
 5841POPC   C1B 6931  40.062  28.655   8.555
 5841POPC   C2B 6932  40.050  28.580   8.255
 5841POPC   C3B 6933  39.979  28.630   7.955
 5841POPC   C4B 6934  40.048  28.609   7.655
 5842POPC   NC3 6935   5.907  11.274   9.455
 5842POPC   PO4 6936   5.844  11.309   9.155
 5842POPC   GL1 6937   5.862  11.259   8.855
 5842POPC   GL2 6938   5.968  11.236   8.855
 5842POPC   C1A 6939   5.830  11.268   8.555
 5842POPC   D2A 6940   5.853  11.287   8.255
 5842POPC   C3A 6941   5.889  11.299   7.955
 5842POPC   C4A 6942   5.842  11.304   7.655
 5842POPC   C1B 6943   6.030  11.115   8.555
 5842POPC   C2B 6944   5.996  11.082   8.255
 5842POPC   C3B 6945   6.049  11.112   7.955
 5842POPC   C4B 6946   6.026  11.090   7.655
 5843POPC   NC3 6947   9.711  15.167   9.455
 5843POPC   PO4 6948   9.764  15.136   9.155
 5843POPC   GL1 6949   9.762  15.210   8.855
 5843POPC   GL2 6950   9.679  15.108   8.855
 5843POPC   C1A 6951   9.775  15.197   8.555
 5843POPC   D2A 6952   9.749  15.224   8.255
 5843POPC   C3A 6953   9.776  15.219   7.955
 5843POPC   C4A 6954   9.794  15.165   7.655
 5843POPC   C1B 6955   9.581  15.040   8.555
 5843POPC   C2B 6956   9.544  15.022   8.255
 5843POPC   C3B 6957   9.552  15.050   7.955
 5843POPC   C4B 6958   9.536  15.019   7.655
 5844POPC   NC3 6959  22.932  19.057   9.455
 5844POPC   PO4 6960  22.901  19.036   9.155
 5844POPC   GL1 6961  22.915  19.060   8.855
 5844POPC   GL2 6962  22.798  19.050   8.855
 5844POPC   C1A 6963  22.907  19.052   8.555
 5844POPC   D2A 6964  22.900  19.019   8.255
 5844POPC   C3A 6965  22.969  19.096   7.955
 5844POPC   C4A 6966  22.973  19.047   7.655
 5844POPC   C1B 6967  22.692  19.143   8.555
 5844POPC   C2B 6968  22.678  19.077   8.255
 5844POPC   C3B 6969  22.666  19.058   7.955
 5844POPC   C4B 6970  22.652  19.133   7.655
 5845POPC   NC3 6971  23.710  33.832   9.455
 5845POPC   PO4 6972  23.737  33.844   9.155
 5845POPC   GL1 6973  23.750  33.775   8.855
 5845POPC   GL2 6974  23.600  33.757   8.855
 5845POPC   C1A 6975  23.749  33.786   8.555
 5845POPC   D2A 6976  23.722  33.828   8.255
 5845POPC   C3A 6977  23.701  33.833   7.955
 5845POPC   C4A 6978  23.755  33.810   7.655
 5845POPC   C1B 6979  23.459  33.752   8.555
 5845POPC   C2B 6980  23.479  33.720   8.255
 5845POPC   C3B 6981  23.513  33.678   7.955
 5845POPC   C4B 6982  23.483  33.740   7.655
 5846POPC   NC3 6983   7.391  16.758   9.455
 5846POPC   PO4 6984   7.377  16.739   9.155
 5846POPC   GL1 6985   7.424  16.686   8.855
 5846POPC   GL2 6986   7.272  16.695   8.855
 5846POPC   C1A 6987   7.424  16.706   8.555
 5846POPC   D2A 6988   7.412  16.691   8.255
 5846POPC   C3A 6989   7.464  16.740   7.955
 5846POPC   C4A 6990   7.386  16.720   7.655
 5846POPC   C1B 6991   7.162  16.675   8.555
 5846POPC   C2B 6992   7.152  16.658   8.255
 5846POPC   C3B 6993   7.167  16.603   7.955
 5846POPC   C4B 6994   7.166  16.676   7.655
 5847POPC   NC3 6995   8.218   8.200   9.455
 5847POPC   PO4 6996   8.188   8.150   9.155
 5847POPC   GL1 6997   8.155   8.161   8.855
 5847POPC   GL2 6998   8.291   8.210   8.855
 5847POPC   C1A 6999   8.164   8.245   8.555
 5847POPC   D2A 7000   8.234   8.200   8.255
 5847POPC   C3A 7001   8.211   8.154   7.955
 5847POPC   C4A 7002   8.185   8.166   7.655
 5847POPC   C1B 7003   8.415   8.209   8.555
 5847POPC   C2B 7004   8.442   8.191   8.255
 5847POPC   C3B 7005   8.396   8.195   7.955
 5847POPC   C4B 7006   8.458   8.144   7.655
 5848POPC   NC3 7007  37.713  20.643   9.455
 5848POPC   PO4 7008  37.661  20.574   9.155
 5848POPC   GL1 7009  37.657  20.622   8.855
 5848POPC   GL2 7010  37.663  20.781   8.855
 5848POPC   C1A 7011  37.653  20.630   8.555
 5848POPC   D2A 7012  37.678  20.611   8.255
 5848POPC   C3A 7013  37.636  20.586   7.955
 5848POPC   C4A 7014  37.651  20.648   7.655
 5848POPC   C1B 7015  37.722  20.906   8.555
 5848POPC   C2B 7016  37.698  20.863   8.255
 5848POPC   C3B 7017  37.707  20.867   7.955
 5848POPC   C4B 7018  37.696  20.851   7.655
 5849POPC   NC3 7019  29.957   8.229   9.455
 5849POPC   PO4 7020  29.966   8.231   9.155
 5849POPC   GL1 7021  29.912   8.178   8.855
 5849POPC   GL2 7022  29.842   8.181   8.855
 5849POPC   C1A 7023  29.912   8.155   8.555
 5849POPC   D2A 7024  29.924   8.186   8.255
 5849POPC   C3A 7025  29.895   8.215   7.955
 5849POPC   C4A 7026  29.946   8.245   7.655
 5849POPC   C1B 7027  29.722   8.227   8.555
 5849POPC   C2B 7028  29.665   8.305   8.255
 5849POPC   C3B 7029  29.688   8.242   7.955
 5849POPC   C4B 7030  29.642   8.244   7.655
 5850POPC   NC3 7031  14.394  37.702   9.455
 5850POPC   PO4 7032  14.420  37.691   9.155
 5850POPC   GL1 7033  14.378  37.653   8.855
 5850POPC   GL2 7034  14.267  37.778   8.855
 5850POPC   C1A 7035  14.380  37.664   8.555
 5850POPC   D2A 7036  14.377  37.708   8.255
 5850POPC   C3A 7037  14.425  37.690   7.955
 5850POPC   C4A 7038  14.424  37.639   7.655
 5850POPC   C1B 7039  14.216  37.831   8.555
 5850POPC   C2B 7040  14.154  37.844   8.255
 5850POPC   C3B 7041  14.158  37.857   7.955
 5850POPC   C4B 7042  14.237  37.796   7.655
 5851POPC   NC3 7043  29.096  14.441   9.455
 5851POPC   PO4 7044  29.110  14.380   9.155
 5851POPC   GL1 7045  29.112  14.379   8.855
 5851POPC   GL2 7046  29.016  14.337   8.855
 5851POPC   C1A 7047  29.171  14.354   8.555
 5851POPC   D2A 7048  29.139  14.393   8.255
 5851POPC   C3A 7049  29.097  14.423   7.955
 5851POPC   C4A 7050  29.190  14.401   7.655
 5851POPC   C1B 7051  28.922  14.259   8.555
 5851POPC   C2B 7052  28.948  14.330   8.255
 5851POPC   C3B 7053  28.945  14.268   7.955
 5851POPC   C4B 7054  28.895  14.321   7.655
 5852POPC   NC3 7055  21.381  23.688   9.455
 5852POPC   PO4 7056  21.365  23.754   9.155
 5852POPC   GL1 7057  21.421  23.700   8.855
 5852POPC   GL2 7058  21.257  23.775   8.855
 5852POPC   C1A 7059  21.357  23.751   8.555
 5852POPC   D2A 7060  21.430  23.666   8.255
 5852POPC   C3A 7061  21.336  23.698   7.955
 5852POPC   C4A 7062  21.423  23.758   7.655
 5852POPC   C1B 7063  21.252  23.857   8.555
 5852POPC   C2B 7064  21.180  23.917   8.255
 5852POPC   C3B 7065  21.249  23.857   7.955
 5852POPC   C4B 7066  21.226  23.924   7.655
 5853POPC   NC3 7067  13.651  33.810   9.455
 5853POPC   PO4 7068  13.603  33.761   9.155
 5853POPC   GL1 7069  13.667  33.843   8.855
 5853POPC   GL2 7070  13.566  33.875   8.855
 5853POPC   C1A 7071  13.596  33.817   8.555
 5853POPC   D2A 7072  13.652  33.817   8.255
 5853POPC   C3A 7073  13.608  33.806   7.955
 5853POPC   C4A 7074  13.608  33.787   7.655
 5853POPC   C1B 7075  13.462  33.964   8.555
 5853POPC   C2B 7076  13.470  34.026   8.255
 5853POPC   C3B 7077  13.479  33.959   7.955
 5853POPC   C4B 7078  13.476  34.005   7.655
 5854POPC   NC3 7079   2.761  14.451   9.455
 5854POPC   PO4 7080   2.734  14.445   9.155
 5854POPC   GL1 7081   2.768  14.377   8.855
 5854POPC   GL2 7082   2.816  14.304   8.855
 5854POPC   C1A 7083   2.765  14.436   8.555
 5854POPC   D2A 7084   2.788  14.371   8.255
 5854POPC   C3A 7085   2.766  14.400   7.955
 5854POPC   C4A 7086   2.764  14.432   7.655
 5854POPC   C1B 7087   2.919  14.237   8.555
 5854POPC   C2B 7088   2.920  14.272   8.255
 5854POPC   C3B 7089   2.969  14.300   7.955
 5854POPC   C4B 7090   2.988  14.243   7.655
 5855POPC   NC3 7091  26.860  29.108   9.455
 5855POPC   PO4 7092  26.810  29.164   9.155
 5855POPC   GL1 7093  26.860  29.139   8.855
 5855POPC   GL2 7094  26.736  29.164   8.855
 5855POPC   C1A 7095  26.810  29.124   8.555
 5855POPC   D2A 7096  26.842  29.143   8.255
 5855POPC   C3A 7097  26.806  29.178   7.955
 5855POPC   C4A 7098  26.862  29.167   7.655
 5855POPC   C1B 7099  26.574  29.135   8.555
 5855POPC   C2B 7100  26.518  29.163   8.255
 5855POPC   C3B 7101  26.566  29.141   7.955
 5855POPC   C4B 7102  26.617  29.108   7.655
 5856POPC   NC3 7103  23.665  30.722   9.455
 5856POPC   PO4 7104  23.718  30.739   9.155
 5856POPC   GL1 7105  23.739  30.672   8.855
 5856POPC   GL2 7106  23.727  30.614   8.855
 5856POPC   C1A 7107  23.693  30.744   8.555
 5856POPC   D2A 7108  23.683  30.702   8.255
 5856POPC   C3A 7109  23.722  30.694   7.955
 5856POPC   C4A 7110  23.704  30.697   7.655
 5856POPC   C1B 7111  23.785  30.496   8.555
 5856POPC   C2B 7112  23.754  30.470   8.255
 5856POPC   C3B 7113  23.748  30.487   7.955
 5856POPC   C4B 7114  23.799  30.484   7.655
 5857POPC   NC3 7115  22.198  36.880   9.455
 5857POPC   PO4 7116  22.187  36.875   9.155
 5857POPC   GL1 7117  22.143  36.941   8.855
 5857POPC   GL2 7118  22.122  36.777   8.855
 5857POPC   C1A 7119  22.186  36.873   8.555
 5857POPC   D2A 7120  22.147  36.935   8.255
 5857POPC   C3A 7121  22.192  36.906   7.955
 5857POPC   C4A 7122  22.137  36.942   7.655
 5857POPC   C1B 7123  22.102  36.636   8.555
 5857POPC   C2B 7124  22.100  36.691   8.255
 5857POPC   C3B 7125  22.173  36.686   7.955
 5857POPC   C4B 7126  22.103  36.668   7.655
 5858POPC   NC3 7127  26.824  28.343   9.455
 5858POPC   PO4 7128  26.833  28.360   9.155
 5858POPC   GL1 7129  26.796  28.413   8.855
 5858POPC   GL2 7130  26.874  28.456   8.855
 5858POPC   C1A 7131  26.843  28.361   8.555
 5858POPC   D2A 7132  26.828  28.408   8.255
 5858POPC   C3A 7133  26.814  28.374   7.955
 5858POPC   C4A 7134  26.771  28.412   7.655
 5858POPC   C1B 7135  26.890  28.555   8.555
 5858POPC   C2B 7136  26.858  28.574   8.255
 5858POPC   C3B 7137  26.875  28.650   7.955
 5858POPC   C4B 7138  26.923  28.598   7.655
 5859POPC   NC3 7139  15.145   5.088   9.455
 5859POPC   PO4 7140  15.203   5.125   9.155
 5859POPC   GL1 7141  15.228   5.071   8.855
 5859POPC   GL2 7142  15.187   4.995   8.855
 5859POPC   C1A 7143  15.187   5.089   8.555
 5859POPC   D2A 7144  15.138   5.130   8.255
 5859POPC   C3A 7145  15.221   5.085   7.955
 5859POPC   C4A 7146  15.136   5.112   7.655
 5859POPC   C1B 7147  15.117   4.845   8.555
 5859POPC   C2B 7148  15.180   4.797   8.255
 5859POPC   C3B 7149  15.177   4.842   7.955
 5859POPC   C4B 7150  15.179   4.851   7.655
 5860POPC   NC3 7151  25.218  30.713   9.455
 5860POPC   PO4 7152  25.278  30.648   9.155
 5860POPC   GL1 7153  25.233  30.721   8.855
 5860POPC   GL2 7154  25.192  30.611   8.855
 5860POPC   C1A 7155  25.294  30.735   8.555
 5860POPC   D2A 7156  25.295  30.698   8.255
 5860POPC   C3A 7157  25.228  30.683   7.955
 5860POPC   C4A 7158  25.269  30.707   7.655
 5860POPC   C1B 7159  25.118  30.488   8.555
 5860POPC   C2B 7160  25.072  30.545   8.255
 5860POPC   C3B 7161  25.067  30.469   7.955
 5860POPC   C4B 7162  25.139  30.494   7.655
 5861POPC   NC3 7163  13.618  27.558   9.455
 5861POPC   PO4 7164  13.677  27.632   9.155
 5861POPC   GL1 7165  13.592  27.623   8.855
 5861POPC   GL2 7166  13.734  27.469   8.855
 5861POPC   C1A 7167  13.627  27.586   8.555
 5861POPC   D2A 7168  13.619  27.623   8.255
 5861POPC   C3A 7169  13.591  27.560   7.955
 5861POPC   C4A 7170  13.654  27.557   7.655
 5861POPC   C1B 7171  13.820  27.462   8.555
 5861POPC   C2B 7172  13.837  27.426   8.255
 5861POPC   C3B 7173  13.842  27.407   7.955
 5861POPC   C4B 7174  13.764  27.366   7.655
 5862POPC   NC3 7175  37.684   3.591   9.455
 5862POPC   PO4 7176  37.717   3.570   9.155
 5862POPC   GL1 7177  37.712   3.586   8.855
 5862POPC   GL2 7178  37.804   3.536   8.855
 5862POPC   C1A 7179  37.631   3.537   8.555
 5862POPC   D2A 7180  37.672   3.533   8.255
 5862POPC   C3A 7181  37.645   3.509   7.955
 5862POPC   C4A 7182  37.639   3.563   7.655
 5862POPC   C1B 7183  37.924   3.427   8.555
 5862POPC   C2B 7184  37.880   3.409   8.255
 5862POPC   C3B 7185  37.893   3.490   7.955
 5862POPC   C4B 7186  37.872   3.497   7.655
 5863POPC   NC3 7187  17.475  43.096   9.455
 5863POPC   PO4 7188  17.532  43.075   9.155
 5863POPC   GL1 7189  17.500  43.155   8.855
 5863POPC   GL2 7190  17.405  43.074   8.855
 5863POPC   C1A 7191  17.555  43.068   8.555
 5863POPC   D2A 7192  17.523  43.158   8.255
 5863POPC   C3A 7193  17.495  43.143   7.955
 5863POPC   C4A 7194  17.470  43.133   7.655
 5863POPC   C1B 7195  17.255  43.110   8.555
 5863POPC   C2B 7196  17.251  43.046   8.255
 5863POPC   C3B 7197  17.214  43.140   7.955
 5863POPC   C4B 7198  17.234  43.143   7.655
 5864POPC   NC3 7199  30.656  28.325   9.455
 5864POPC   PO4 7200  30.739  28.353   9.155
 5864POPC   GL1 7201  30.673  28.368   8.855
 5864POPC   GL2 7202  30.666  28.293   8.855
 5864POPC   C1A 7203  30.714  28.348   8.555
 5864POPC   D2A 7204  30.688  28.334   8.255
 5864POPC   C3A 7205  30.661  28.408   7.955
 5864POPC   C4A 7206  30.720  28.390   7.655
 5864POPC   C1B 7207  30.633  28.123   8.555
 5864POPC   C2B 7208  30.629  28.074   8.255
 5864POPC   C3B 7209  30.702  28.133   7.955
 5864POPC   C4B 7210  30.690  28.077   7.655
 5865POPC   NC3 7211   5.055  30.722   9.455
 5865POPC   PO4 7212   5.138  30.651   9.155
 5865POPC   GL1 7213   5.101  30.691   8.855
 5865POPC   GL2 7214   5.011  30.792   8.855
 5865POPC   C1A 7215   5.067  30.679   8.555
 5865POPC   D2A 7216   5.068  30.721   8.255
 5865POPC   C3A 7217   5.075  30.674   7.955
 5865POPC   C4A 7218   5.136  30.660   7.655
 5865POPC   C1B 7219   5.037  30.913   8.555
 5865POPC   C2B 7220   4.989  30.943   8.255
 5865POPC   C3B 7221   5.021  30.961   7.955
 5865POPC   C4B 7222   5.028  30.969   7.655
 5866POPC   NC3 7223  43.148  25.277   9.455
 5866POPC   PO4 7224  43.100  25.281   9.155
 5866POPC   GL1 7225  43.150  25.226   8.855
 5866POPC   GL2 7226  43.199  25.302   8.855
 5866POPC   C1A 7227  43.128  25.276   8.555
 5866POPC   D2A 7228  43.148  25.225   8.255
 5866POPC   C3A 7229  43.080  25.259   7.955
 5866POPC   C4A 7230  43.088  25.265   7.655
 5866POPC   C1B 7231  43.325  25.371   8.555
 5866POPC   C2B 7232  43.336  25.319   8.255
 5866POPC   C3B 7233  43.346  25.374   7.955
 5866POPC   C4B 7234  43.343  25.328   7.655
 5867POPC   NC3 7235  28.386  11.344   9.455
 5867POPC   PO4 7236  28.355  11.269   9.155
 5867POPC   GL1 7237  28.413  11.305   8.855
 5867POPC   GL2 7238  28.508  11.283   8.855
 5867POPC   C1A 7239  28.395  11.338   8.555
 5867POPC   D2A 7240  28.362  11.300   8.255
 5867POPC   C3A 7241  28.410  11.262   7.955
 5867POPC   C4A 7242  28.356  11.288   7.655
 5867POPC   C1B 7243  28.639  11.253   8.555
 5867POPC   C2B 7244  28.618  11.270   8.255
 5867POPC   C3B 7245  28.566  11.239   7.955
 5867POPC   C4B 7246  28.571  11.242   7.655
 5868POPC   NC3 7247  28.326  26.089   9.455
 5868POPC   PO4 7248  28.324  26.036   9.155
 5868POPC   GL1 7249  28.396  26.007   8.855
 5868POPC   GL2 7250  28.360  25.955   8.855
 5868POPC   C1A 7251  28.323  26.028   8.555
 5868POPC   D2A 7252  28.338  26.068   8.255
 5868POPC   C3A 7253  28.398  26.075   7.955
 5868POPC   C4A 7254  28.409  26.071   7.655
 5868POPC   C1B 7255  28.459  25.802   8.555
 5868POPC   C2B 7256  28.397  25.822   8.255
 5868POPC   C3B 7257  28.392  25.817   7.955
 5868POPC   C4B 7258  28.428  25.838   7.655
 5869POPC   NC3 7259  11.314  36.152   9.455
 5869POPC   PO4 7260  11.328  36.091   9.155
 5869POPC   GL1 7261  11.338  36.088   8.855
 5869POPC   GL2 7262  11.140  36.158   8.855
 5869POPC   C1A 7263  11.294  36.168   8.555
 5869POPC   D2A 7264  11.279  36.113   8.255
 5869POPC   C3A 7265  11.305  36.100   7.955
 5869POPC   C4A 7266  11.329  36.151   7.655
 5869POPC   C1B 7267  11.099  36.102   8.555
 5869POPC   C2B 7268  11.078  36.186   8.255
 5869POPC   C3B 7269  11.055  36.138   7.955
 5869POPC   C4B 7270  11.081  36.153   7.655
 5870POPC   NC3 7271  29.104  31.488   9.455
 5870POPC   PO4 7272  29.171  31.488   9.155
 5870POPC   GL1 7273  29.160  31.483   8.855
 5870POPC   GL2 7274  29.105  31.543   8.855
 5870POPC   C1A 7275  29.166  31.510   8.555
 5870POPC   D2A 7276  29.111  31.423   8.255
 5870POPC   C3A 7277  29.147  31.458   7.955
 5870POPC   C4A 7278  29.155  31.438   7.655
 5870POPC   C1B 7279  29.004  31.662   8.555
 5870POPC   C2B 7280  29.073  31.670   8.255
 5870POPC   C3B 7281  29.004  31.720   7.955
 5870POPC   C4B 7282  29.006  31.651   7.655
 5871POPC   NC3 7283  19.014  13.662   9.455
 5871POPC   PO4 7284  19.061  13.627   9.155
 5871POPC   GL1 7285  19.101  13.585   8.855
 5871POPC   GL2 7286  19.061  13.785   8.855
 5871POPC   C1A 7287  19.106  13.654   8.555
 5871POPC   D2A 7288  19.039  13.641   8.255
 5871POPC   C3A 7289  19.021  13.634   7.955
 5871POPC   C4A 7290  19.075  13.610   7.655
 5871POPC   C1B 7291  19.027  13.864   8.555
 5871POPC   C2B 7292  19.069  13.860   8.255
 5871POPC   C3B 7293  19.094  13.885   7.955
 5871POPC   C4B 7294  19.029  13.877   7.655
 5872POPC   NC3 7295  37.702  43.868   9.455
 5872POPC   PO4 7296  37.718  43.838   9.155
 5872POPC   GL1 7297  37.674  43.847   8.855
 5872POPC   GL2 7298  37.569  43.988   8.855
 5872POPC   C1A 7299  37.659  43.875   8.555
 5872POPC   D2A 7300  37.653  43.917   8.255
 5872POPC   C3A 7301  37.657  43.879   7.955
 5872POPC   C4A 7302  37.666  43.841   7.655
 5872POPC   C1B 7303  37.443  44.014   8.555
 5872POPC   C2B 7304  37.465  44.032   8.255
 5872POPC   C3B 7305  37.461  44.014   7.955
 5872POPC   C4B 7306  37.442  44.009   7.655
 5873POPC   NC3 7307  15.207  35.401   9.455
 5873POPC   PO4 7308  15.135  35.387   9.155
 5873POPC   GL1 7309  15.134  35.330   8.855
 5873POPC   GL2 7310  15.183  35.218   8.855
 5873POPC   C1A 7311  15.168  35.401   8.555
 5873POPC   D2A 7312  15.182  35.354   8.255
 5873POPC   C3A 7313  15.135  35.302   7.955
 5873POPC   C4A 7314  15.224  35.396   7.655
 5873POPC   C1B 7315  15.324  35.136   8.555
 5873POPC   C2B 7316  15.301  35.110   8.255
 5873POPC   C3B 7317  15.322  35.127   7.955
 5873POPC   C4B 7318  15.296  35.171   7.655
 5874POPC   NC3 7319  24.456  30.726   9.455
 5874POPC   PO4 7320  24.470  30.667   9.155
 5874POPC   GL1 7321  24.452  30.738   8.855
 5874POPC   GL2 7322  24.484  30.852   8.855
 5874POPC   C1A 7323  24.521  30.673   8.555
 5874POPC   D2A 7324  24.477  30.675   8.255
 5874POPC   C3A 7325  24.490  30.648   7.955
 5874POPC   C4A 7326  24.494  30.711   7.655
 5874POPC   C1B 7327  24.480  30.966   8.555
 5874POPC   C2B 7328  24.475  30.919   8.255
 5874POPC   C3B 7329  24.551  30.991   7.955
 5874POPC   C4B 7330  24.529  30.991   7.655
 5875POPC   NC3 7331  21.407  22.160   9.455
 5875POPC   PO4 7332  21.412  22.197   9.155
 5875POPC   GL1 7333  21.361  22.126   8.855
 5875POPC   GL2 7334  21.494  22.179   8.855
 5875POPC   C1A 7335  21.348  22.191   8.555
 5875POPC   D2A 7336  21.360  22.154   8.255
 5875POPC   C3A 7337  21.381  22.205   7.955
 5875POPC   C4A 7338  21.428  22.201   7.655
 5875POPC   C1B 7339  21.623  22.243   8.555
 5875POPC   C2B 7340  21.646  22.211   8.255
 5875POPC   C3B 7341  21.616  22.250   7.955
 5875POPC   C4B 7342  21.567  22.247   7.655
 5876POPC   NC3 7343  22.160  26.002   9.455
 5876POPC   PO4 7344  22.133  26.077   9.155
 5876POPC   GL1 7345  22.151  26.028   8.855
 5876POPC   GL2 7346  22.211  26.124   8.855
 5876POPC   C1A 7347  22.170  26.006   8.555
 5876POPC   D2A 7348  22.138  26.022   8.255
 5876POPC   C3A 7349  22.203  26.082   7.955
 5876POPC   C4A 7350  22.187  26.019   7.655
 5876POPC   C1B 7351  22.319  26.199   8.555
 5876POPC   C2B 7352  22.300  26.254   8.255
 5876POPC   C3B 7353  22.312  26.219   7.955
 5876POPC   C4B 7354  22.354  26.219   7.655
 5877POPC   NC3 7355  38.443   2.023   9.455
 5877POPC   PO4 7356  38.455   2.039   9.155
 5877POPC   GL1 7357  38.455   1.950   8.855
 5877POPC   GL2 7358  38.361   1.946   8.855
 5877POPC   C1A 7359  38.416   1.982   8.555
 5877POPC   D2A 7360  38.456   1.992   8.255
 5877POPC   C3A 7361  38.425   1.980   7.955
 5877POPC   C4A 7362  38.410   1.952   7.655
 5877POPC   C1B 7363  38.231   1.971   8.555
 5877POPC   C2B 7364  38.181   1.997   8.255
 5877POPC   C3B 7365  38.229   1.979   7.955
 5877POPC   C4B 7366  38.202   2.021   7.655
 5878POPC   NC3 7367  25.282  25.247   9.455
 5878POPC   PO4 7368  25.260  25.236   9.155
 5878POPC   GL1 7369  25.216  25.225   8.855
 5878POPC   GL2 7370  25.374  25.201   8.855
 5878POPC   C1A 7371  25.251  25.308   8.555
 5878POPC   D2A 7372  25.291  25.264   8.255
 5878POPC   C3A 7373  25.231  25.221   7.955
 5878POPC   C4A 7374  25.230  25.305   7.655
 5878POPC   C1B 7375  25.474  25.051   8.555
 5878POPC   C2B 7376  25.468  25.106   8.255
 5878POPC   C3B 7377  25.460  25.031   7.955
 5878POPC   C4B 7378  25.454  25.118   7.655
 5879POPC   NC3 7379  38.413   5.076   9.455
 5879POPC   PO4 7380  38.493   5.141   9.155
 5879POPC   GL1 7381  38.485   5.135   8.855
 5879POPC   GL2 7382  38.501   5.006   8.855
 5879POPC   C1A 7383  38.447   5.111   8.555
 5879POPC   D2A 7384  38.440   5.127   8.255
 5879POPC   C3A 7385  38.488   5.112   7.955
 5879POPC   C4A 7386  38.475   5.092   7.655
 5879POPC   C1B 7387  38.616   4.966   8.555
 5879POPC   C2B 7388  38.662   4.940   8.255
 5879POPC   C3B 7389  38.617   4.929   7.955
 5879POPC   C4B 7390  38.624   4.954   7.655
 5880POPC   NC3 7391  32.981  41.591   9.455
 5880POPC   PO4 7392  33.038  41.576   9.155
 5880POPC   GL1 7393  33.057  41.555   8.855
 5880POPC   GL2 7394  33.152  41.438   8.855
 5880POPC   C1A 7395  33.054  41.565   8.555
 5880POPC   D2A 7396  33.012  41.563   8.255
 5880POPC   C3A 7397  33.012  41.519   7.955
 5880POPC   C4A 7398  33.049  41.584   7.655
 5880POPC   C1B 7399  33.239  41.361   8.555
 5880POPC   C2B 7400  33.192  41.363   8.255
 5880POPC   C3B 7401  33.220  41.417   7.955
 5880POPC   C4B 7402  33.243  41.350   7.655
 5881POPC   NC3 7403   4.346  39.191   9.455
 5881POPC   PO4 7404   4.326  39.201   9.155
 5881POPC   GL1 7405   4.313  39.244   8.855
 5881POPC   GL2 7406   4.441  39.150   8.855
 5881POPC   C1A 7407   4.357  39.235   8.555
 5881POPC   D2A 7408   4.357  39.257   8.255
 5881POPC   C3A 7409   4.355  39.185   7.955
 5881POPC   C4A 7410   4.296  39.235   7.655
 5881POPC   C1B 7411   4.502  39.039   8.555
 5881POPC   C2B 7412   4.479  39.096   8.255
 5881POPC   C3B 7413   4.478  39.046   7.955
 5881POPC   C4B 7414   4.504  39.107   7.655
 5882POPC   NC3 7415  25.271  17.527   9.455
 5882POPC   PO4 7416  25.286  17.480   9.155
 5882POPC   GL1 7417  25.274  17.555   8.855
 5882POPC   GL2 7418  25.157  17.419   8.855
 5882POPC   C1A 7419  25.272  17.472   8.555
 5882POPC   D2A 7420  25.280  17.552   8.255
 5882POPC   C3A 7421  25.248  17.509   7.955
 5882POPC   C4A 7422  25.258  17.479   7.655
 5882POPC   C1B 7423  25.048  17.360   8.555
 5882POPC   C2B 7424  25.093  17.401   8.255
 5882POPC   C3B 7425  25.049  17.336   7.955
 5882POPC   C4B 7426  25.034  17.364   7.655
 5883POPC   NC3 7427  15.223  34.593   9.455
 5883POPC   PO4 7428  15.221  34.601   9.155
 5883POPC   GL1 7429  15.130  34.575   8.855
 5883POPC   GL2 7430  15.067  34.659   8.855
 5883POPC   C1A 7431  15.196  34.611   8.555
 5883POPC   D2A 7432  15.171  34.562   8.255
 5883POPC   C3A 7433  15.229  34.625   7.955
 5883POPC   C4A 7434  15.197  34.530   7.655
 5883POPC   C1B 7435  15.076  34.758   8.555
 5883POPC   C2B 7436  15.020  34.770   8.255
 5883POPC   C3B 7437  15.030  34.762   7.955
 5883POPC   C4B 7438  15.067  34.825   7.655
 5884POPC   NC3 7439  13.646   7.453   9.455
 5884POPC   PO4 7440  13.665   7.377   9.155
 5884POPC   GL1 7441  13.661   7.420   8.855
 5884POPC   GL2 7442  13.746   7.526   8.855
 5884POPC   C1A 7443  13.652   7.447   8.555
 5884POPC   D2A 7444  13.663   7.394   8.255
 5884POPC   C3A 7445  13.619   7.419   7.955
 5884POPC   C4A 7446  13.649   7.417   7.655
 5884POPC   C1B 7447  13.848   7.612   8.555
 5884POPC   C2B 7448  13.806   7.596   8.255
 5884POPC   C3B 7449  13.862   7.589   7.955
 5884POPC   C4B 7450  13.845   7.516   7.655
 5885POPC   NC3 7451  21.376   0.461   9.455
 5885POPC   PO4 7452  21.361   0.472   9.155
 5885POPC   GL1 7453  21.367   0.446   8.855
 5885POPC   GL2 7454  21.481   0.499   8.855
 5885POPC   C1A 7455  21.338   0.425   8.555
 5885POPC   D2A 7456  21.421   0.427   8.255
 5885POPC   C3A 7457  21.369   0.471   7.955
 5885POPC   C4A 7458  21.428   0.460   7.655
 5885POPC   C1B 7459  21.610   0.579   8.555
 5885POPC   C2B 7460  21.653   0.592   8.255
 5885POPC   C3B 7461  21.656   0.551   7.955
 5885POPC   C4B 7462  21.639   0.512   7.655
 5886POPC   NC3 7463  10.545  41.543   9.455
 5886POPC   PO4 7464  10.557  41.588   9.155
 5886POPC   GL1 7465  10.551  41.598   8.855
 5886POPC   GL2 7466  10.564  41.705   8.855
 5886POPC   C1A 7467  10.505  41.558   8.555
 5886POPC   D2A 7468  10.485  41.604   8.255
 5886POPC   C3A 7469  10.479  41.538   7.955
 5886POPC   C4A 7470  10.498  41.601   7.655
 5886POPC   C1B 7471  10.505  41.819   8.555
 5886POPC   C2B 7472  10.560  41.784   8.255
 5886POPC   C3B 7473  10.559  41.805   7.955
 5886POPC   C4B 7474  10.511  41.776   7.655
 5887POPC   NC3 7475   8.197  25.268   9.455
 5887POPC   PO4 7476   8.245  25.314   9.155
 5887POPC   GL1 7477   8.161  25.258   8.855
 5887POPC   GL2 7478   8.199  25.360   8.855
 5887POPC   C1A 7479   8.184  25.268   8.555
 5887POPC   D2A 7480   8.208  25.278   8.255
 5887POPC   C3A 7481   8.174  25.250   7.955
 5887POPC   C4A 7482   8.202  25.310   7.655
 5887POPC   C1B 7483   8.225  25.481   8.555
 5887POPC   C2B 7484   8.233  25.494   8.255
 5887POPC   C3B 7485   8.252  25.522   7.955
 5887POPC   C4B 7486   8.228  25.554   7.655
 5888POPC   NC3 7487   4.292  36.159   9.455
 5888POPC   PO4 7488   4.314  36.113   9.155
 5888POPC   GL1 7489   4.342  36.171   8.855
 5888POPC   GL2 7490   4.263  36.290   8.855
 5888POPC   C1A 7491   4.339  36.119   8.555
 5888POPC   D2A 7492   4.366  36.090   8.255
 5888POPC   C3A 7493   4.322  36.093   7.955
 5888POPC   C4A 7494   4.342  36.157   7.655
 5888POPC   C1B 7495   4.296  36.339   8.555
 5888POPC   C2B 7496   4.277  36.408   8.255
 5888POPC   C3B 7497   4.258  36.323   7.955
 5888POPC   C4B 7498   4.219  36.382   7.655
 5889POPC   NC3 7499  19.841  26.815   9.455
 5889POPC   PO4 7500  19.879  26.831   9.155
 5889POPC   GL1 7501  19.857  26.848   8.855
 5889POPC   GL2 7502  19.912  26.735   8.855
 5889POPC   C1A 7503  19.865  26.848   8.555
 5889POPC   D2A 7504  19.836  26.784   8.255
 5889POPC   C3A 7505  19.854  26.850   7.955
 5889POPC   C4A 7506  19.819  26.836   7.655
 5889POPC   C1B 7507  20.027  26.686   8.555
 5889POPC   C2B 7508  20.007  26.646   8.255
 5889POPC   C3B 7509  19.999  26.662   7.955
 5889POPC   C4B 7510  20.035  26.689   7.655
 5890POPC   NC3 7511  12.064  43.119   9.455
 5890POPC   PO4 7512  12.086  43.096   9.155
 5890POPC   GL1 7513  12.085  43.128   8.855
 5890POPC   GL2 7514  12.077  42.942   8.855
 5890POPC   C1A 7515  12.036  43.145   8.555
 5890POPC   D2A 7516  12.094  43.074   8.255
 5890POPC   C3A 7517  12.073  43.099   7.955
 5890POPC   C4A 7518  12.068  43.130   7.655
 5890POPC   C1B 7519  12.135  42.872   8.555
 5890POPC   C2B 7520  12.114  42.883   8.255
 5890POPC   C3B 7521  12.116  42.910   7.955
 5890POPC   C4B 7522  12.177  42.834   7.655
 5891POPC   NC3 7523  29.117   2.016   9.455
 5891POPC   PO4 7524  29.171   2.019   9.155
 5891POPC   GL1 7525  29.166   1.981   8.855
 5891POPC   GL2 7526  29.014   1.937   8.855
 5891POPC   C1A 7527  29.193   1.961   8.555
 5891POPC   D2A 7528  29.096   1.972   8.255
 5891POPC   C3A 7529  29.137   1.973   7.955
 5891POPC   C4A 7530  29.189   1.999   7.655
 5891POPC   C1B 7531  28.938   1.892   8.555
 5891POPC   C2B 7532  28.901   1.921   8.255
 5891POPC   C3B 7533  28.875   1.921   7.955
 5891POPC   C4B 7534  28.861   1.962   7.655
 5892POPC   NC3 7535   1.951  22.207   9.455
 5892POPC   PO4 7536   1.961  22.145   9.155
 5892POPC   GL1 7537   1.992  22.191   8.855
 5892POPC   GL2 7538   2.099  22.114   8.855
 5892POPC   C1A 7539   1.972  22.204   8.555
 5892POPC   D2A 7540   1.952  22.120   8.255
 5892POPC   C3A 7541   1.974  22.117   7.955
 5892POPC   C4A 7542   1.970  22.160   7.655
 5892POPC   C1B 7543   2.211  22.049   8.555
 5892POPC   C2B 7544   2.198  22.025   8.255
 5892POPC   C3B 7545   2.158  21.959   7.955
 5892POPC   C4B 7546   2.210  22.009   7.655
 5893POPC   NC3 7547  44.642  29.164   9.455
 5893POPC   PO4 7548  44.630  29.163   9.155
 5893POPC   GL1 7549  44.621  29.181   8.855
 5893POPC   GL2 7550  44.716  29.311   8.855
 5893POPC   C1A 7551  44.697  29.127   8.555
 5893POPC   D2A 7552  44.710  29.174   8.255
 5893POPC   C3A 7553  44.710  29.166   7.955
 5893POPC   C4A 7554  44.639  29.194   7.655
 5893POPC   C1B 7555  44.732  29.367   8.555
 5893POPC   C2B 7556  44.679  29.426   8.255
 5893POPC   C3B 7557  44.766  29.381   7.955
 5893POPC   C4B 7558  44.714  29.414   7.655
 5894POPC   NC3 7559  12.879  43.092   9.455
 5894POPC   PO4 7560  12.817  43.083   9.155
 5894POPC   GL1 7561  12.802  43.120   8.855
 5894POPC   GL2 7562  12.886  43.173   8.855
 5894POPC   C1A 7563  12.826  43.080   8.555
 5894POPC   D2A 7564  12.807  43.094   8.255
 5894POPC   C3A 7565  12.892  43.112   7.955
 5894POPC   C4A 7566  12.856  43.061   7.655
 5894POPC   C1B 7567  13.003  43.332   8.555
 5894POPC   C2B 7568  12.984  43.363   8.255
 5894POPC   C3B 7569  12.968  43.305   7.955
 5894POPC   C4B 7570  12.987  43.330   7.655
 5895POPC   NC3 7571  36.133   4.360   9.455
 5895POPC   PO4 7572  36.168   4.319   9.155
 5895POPC   GL1 7573  36.081   4.303   8.855
 5895POPC   GL2 7574  35.976   4.293   8.855
 5895POPC   C1A 7575  36.120   4.341   8.555
 5895POPC   D2A 7576  36.088   4.328   8.255
 5895POPC   C3A 7577  36.136   4.321   7.955
 5895POPC   C4A 7578  36.127   4.362   7.655
 5895POPC   C1B 7579  35.902   4.175   8.555
 5895POPC   C2B 7580  35.907   4.226   8.255
 5895POPC   C3B 7581  35.893   4.253   7.955
 5895POPC   C4B 7582  35.931   4.184   7.655
 5896POPC   NC3 7583   3.508  42.371   9.455
 5896POPC   PO4 7584   3.542  42.331   9.155
 5896POPC   GL1 7585   3.579  42.307   8.855
 5896POPC   GL2 7586   3.589  42.486   8.855
 5896POPC   C1A 7587   3.566  42.321   8.555
 5896POPC   D2A 7588   3.537  42.384   8.255
 5896POPC   C3A 7589   3.559  42.370   7.955
 5896POPC   C4A 7590   3.580  42.307   7.655
 5896POPC   C1B 7591   3.654  42.525   8.555
 5896POPC   C2B 7592   3.614  42.587   8.255
 5896POPC   C3B 7593   3.615  42.541   7.955
 5896POPC   C4B 7594   3.619  42.613   7.655
 5897POPC   NC3 7595  32.220  15.980   9.455
 5897POPC   PO4 7596  32.202  15.915   9.155
 5897POPC   GL1 7597  32.212  15.944   8.855
 5897POPC   GL2 7598  32.162  15.880   8.855
 5897POPC   C1A 7599  32.236  15.973   8.555
 5897POPC   D2A 7600  32.263  15.989   8.255
 5897POPC   C3A 7601  32.246  15.970   7.955
 5897POPC   C4A 7602  32.264  15.925   7.655
 5897POPC   C1B 7603  32.018  15.897   8.555
 5897POPC   C2B 7604  31.961  15.912   8.255
 5897POPC   C3B 7605  32.042  15.846   7.955
 5897POPC   C4B 7606  31.995  15.847   7.655
 5898POPC   NC3 7607   1.971  22.958   9.455
 5898POPC   PO4 7608   2.035  22.899   9.155
 5898POPC   GL1 7609   1.987  22.949   8.855
 5898POPC   GL2 7610   2.069  22.897   8.855
 5898POPC   C1A 7611   1.949  22.906   8.555
 5898POPC   D2A 7612   1.966  22.949   8.255
 5898POPC   C3A 7613   1.942  22.914   7.955
 5898POPC   C4A 7614   1.960  22.907   7.655
 5898POPC   C1B 7615   2.256  22.898   8.555
 5898POPC   C2B 7616   2.240  22.849   8.255
 5898POPC   C3B 7617   2.233  22.872   7.955
 5898POPC   C4B 7618   2.222  22.857   7.655
 5899POPC   NC3 7619  43.062  33.056   9.455
 5899POPC   PO4 7620  43.113  32.998   9.155
 5899POPC   GL1 7621  43.151  32.982   8.855
 5899POPC   GL2 7622  43.071  32.890   8.855
 5899POPC   C1A 7623  43.160  33.022   8.555
 5899POPC   D2A 7624  43.120  33.027   8.255
 5899POPC   C3A 7625  43.107  33.038   7.955
 5899POPC   C4A 7626  43.062  33.061   7.655
 5899POPC   C1B 7627  42.920  32.835   8.555
 5899POPC   C2B 7628  42.991  32.814   8.255
 5899POPC   C3B 7629  42.968  32.818   7.955
 5899POPC   C4B 7630  42.998  32.799   7.655
 5900POPC   NC3 7631  15.954   8.176   9.455
 5900POPC   PO4 7632  15.949   8.244   9.155
 5900POPC   GL1 7633  15.949   8.237   8.855
 5900POPC   GL2 7634  15.857   8.267   8.855
 5900POPC   C1A 7635  15.925   8.149   8.555
 5900POPC   D2A 7636  15.991   8.169   8.255
 5900POPC   C3A 7637  15.969   8.204   7.955
 5900POPC   C4A 7638  15.965   8.152   7.655
 5900POPC   C1B 7639  15.801   8.361   8.555
 5900POPC   C2B 7640  15.852   8.368   8.255
 5900POPC   C3B 7641  15.856   8.360   7.955
 5900POPC   C4B 7642  15.812   8.442   7.655
 5901POPC   NC3 7643   6.659  15.201   9.455
 5901POPC   PO4 7644   6.673  15.162   9.155
 5901POPC   GL1 7645   6.616  15.141   8.855
 5901POPC   GL2 7646   6.768  15.296   8.855
 5901POPC   C1A 7647   6.622  15.174   8.555
 5901POPC   D2A 7648   6.670  15.201   8.255
 5901POPC   C3A 7649   6.626  15.227   7.955
 5901POPC   C4A 7650   6.612  15.159   7.655
 5901POPC   C1B 7651   6.865  15.370   8.555
 5901POPC   C2B 7652   6.830  15.299   8.255
 5901POPC   C3B 7653   6.797  15.373   7.955
 5901POPC   C4B 7654   6.871  15.327   7.655
 5902POPC   NC3 7655   7.380  40.768   9.455
 5902POPC   PO4 7656   7.439  40.821   9.155
 5902POPC   GL1 7657   7.455  40.795   8.855
 5902POPC   GL2 7658   7.514  40.849   8.855
 5902POPC   C1A 7659   7.467  40.792   8.555
 5902POPC   D2A 7660   7.456  40.799   8.255
 5902POPC   C3A 7661   7.391  40.823   7.955
 5902POPC   C4A 7662   7.418  40.811   7.655
 5902POPC   C1B 7663   7.522  41.002   8.555
 5902POPC   C2B 7664   7.582  41.026   8.255
 5902POPC   C3B 7665   7.550  41.020   7.955
 5902POPC   C4B 7666   7.588  40.963   7.655
 5903POPC   NC3 7667  33.835  22.947   9.455
 5903POPC   PO4 7668  33.780  22.985   9.155
 5903POPC   GL1 7669  33.761  22.945   8.855
 5903POPC   GL2 7670  33.834  23.044   8.855
 5903POPC   C1A 7671  33.761  22.918   8.555
 5903POPC   D2A 7672  33.843  22.888   8.255
 5903POPC   C3A 7673  33.772  22.921   7.955
 5903POPC   C4A 7674  33.793  22.934   7.655
 5903POPC   C1B 7675  33.766  23.235   8.555
 5903POPC   C2B 7676  33.777  23.208   8.255
 5903POPC   C3B 7677  33.777  23.169   7.955
 5903POPC   C4B 7678  33.731  23.184   7.655
 5904POPC   NC3 7679  39.278  21.435   9.455
 5904POPC   PO4 7680  39.182  21.403   9.155
 5904POPC   GL1 7681  39.220  21.427   8.855
 5904POPC   GL2 7682  39.099  21.466   8.855
 5904POPC   C1A 7683  39.214  21.346   8.555
 5904POPC   D2A 7684  39.188  21.341   8.255
 5904POPC   C3A 7685  39.231  21.378   7.955
 5904POPC   C4A 7686  39.251  21.340   7.655
 5904POPC   C1B 7687  39.044  21.466   8.555
 5904POPC   C2B 7688  38.975  21.485   8.255
 5904POPC   C3B 7689  38.986  21.476   7.955
 5904POPC   C4B 7690  39.049  21.490   7.655
 5905POPC   NC3 7691   1.246   6.629   9.455
 5905POPC   PO4 7692   1.200   6.663   9.155
 5905POPC   GL1 7693   1.262   6.653   8.855
 5905POPC   GL2 7694   1.169   6.761   8.855
 5905POPC   C1A 7695   1.239   6.599   8.555
 5905POPC   D2A 7696   1.196   6.627   8.255
 5905POPC   C3A 7697   1.164   6.609   7.955
 5905POPC   C4A 7698   1.221   6.597   7.655
 5905POPC   C1B 7699   1.090   6.841   8.555
 5905POPC   C2B 7700   1.106   6.836   8.255
 5905POPC   C3B 7701   1.149   6.889   7.955
 5905POPC   C4B 7702   1.072   6.868   7.655
 5906POPC   NC3 7703  21.431  39.965   9.455
 5906POPC   PO4 7704  21.432  39.960   9.155
 5906POPC   GL1 7705  21.363  40.012   8.855
 5906POPC   GL2 7706  21.486  40.008   8.855
 5906POPC   C1A 7707  21.417  39.994   8.555
 5906POPC   D2A 7708  21.349  40.036   8.255
 5906POPC   C3A 7709  21.407  40.013   7.955
 5906POPC   C4A 7710  21.426  39.961   7.655
 5906POPC   C1B 7711  21.632  40.054   8.555
 5906POPC   C2B 7712  21.680  40.039   8.255
 5906POPC   C3B 7713  21.600  40.038   7.955
 5906POPC   C4B 7714  21.647  39.977   7.655
 5907POPC   NC3 7715   8.949  11.298   9.455
 5907POPC   PO4 7716   9.000  11.278   9.155
 5907POPC   GL1 7717   8.939  11.313   8.855
 5907POPC   GL2 7718   9.110  11.284   8.855
 5907POPC   C1A 7719   8.969  11.307   8.555
 5907POPC   D2A 7720   8.979  11.339   8.255
 5907POPC   C3A 7721   8.994  11.336   7.955
 5907POPC   C4A 7722   8.927  11.314   7.655
 5907POPC   C1B 7723   9.261  11.250   8.555
 5907POPC   C2B 7724   9.229  11.276   8.255
 5907POPC   C3B 7725   9.237  11.255   7.955
 5907POPC   C4B 7726   9.272  11.293   7.655
 5908POPC   NC3 7727  22.120  44.663   9.455
 5908POPC   PO4 7728  22.113  44.695   9.155
 5908POPC   GL1 7729  22.192  44.623   8.855
 5908POPC   GL2 7730  22.116  44.772   8.855
 5908POPC   C1A 7731  22.193  44.659   8.555
 5908POPC   D2A 7732  22.171  44.651   8.255
 5908POPC   C3A 7733  22.179  44.666   7.955
 5908POPC   C4A 7734  22.190  44.634   7.655
 5908POPC   C1B 7735  22.151  44.907   8.555
 5908POPC   C2B 7736  22.102  44.926   8.255
 5908POPC   C3B 7737  22.081  44.926   7.955
 5908POPC   C4B 7738  22.119  44.877   7.655
 5909POPC   NC3 7739  19.866  10.541   9.455
 5909POPC   PO4 7740  19.849  10.540   9.155
 5909POPC   GL1 7741  19.795  10.539   8.855
 5909POPC   GL2 7742  19.906  10.603   8.855
 5909POPC   C1A 7743  19.786  10.540   8.555
 5909POPC   D2A 7744  19.818  10.523   8.255
 5909POPC   C3A 7745  19.856  10.483   7.955
 5909POPC   C4A 7746  19.884  10.545   7.655
 5909POPC   C1B 7747  20.051  10.651   8.555
 5909POPC   C2B 7748  20.066  10.668   8.255
 5909POPC   C3B 7749  20.040  10.711   7.955
 5909POPC   C4B 7750  20.046  10.676   7.655
 5910POPC   NC3 7751  43.851  12.825   9.455
 5910POPC   PO4 7752  43.901  12.853   9.155
 5910POPC   GL1 7753  43.921  12.808   8.855
 5910POPC   GL2 7754  43.801  12.852   8.855
 5910POPC   C1A 7755  43.874  12.823   8.555
 5910POPC   D2A 7756  43.890  12.829   8.255
 5910POPC   C3A 7757  43.867  12.891   7.955
 5910POPC   C4A 7758  43.905  12.838   7.655
 5910POPC   C1B 7759  43.652  12.797   8.555
 5910POPC   C2B 7760  43.683  12.841   8.255
 5910POPC   C3B 7761  43.593  12.774   7.955
 5910POPC   C4B 7762  43.614  12.838   7.655
 5911POPC   NC3 7763  14.379  27.610   9.455
 5911POPC   PO4 7764  14.383  27.620   9.155
 5911POPC   GL1 7765  14.448  27.624   8.855
 5911POPC   GL2 7766  14.328  27.536   8.855
 5911POPC   C1A 7767  14.375  27.576   8.555
 5911POPC   D2A 7768  14.374  27.631   8.255
 5911POPC   C3A 7769  14.397  27.641   7.955
 5911POPC   C4A 7770  14.429  27.632   7.655
 5911POPC   C1B 7771  14.135  27.544   8.555
 5911POPC   C2B 7772  14.172  27.554   8.255
 5911POPC   C3B 7773  14.176  27.542   7.955
 5911POPC   C4B 7774  14.132  27.506   7.655
 5912POPC   NC3 7775   5.068   6.690   9.455
 5912POPC   PO4 7776   5.056   6.687   9.155
 5912POPC   GL1 7777   5.090   6.595   8.855
 5912POPC   GL2 7778   5.228   6.593   8.855
 5912POPC   C1A 7779   5.115   6.678   8.555
 5912POPC   D2A 7780   5.046   6.646   8.255
 5912POPC   C3A 7781   5.131   6.652   7.955
 5912POPC   C4A 7782   5.133   6.617   7.655
 5912POPC   C1B 7783   5.289   6.513   8.555
 5912POPC   C2B 7784   5.299   6.442   8.255
 5912POPC   C3B 7785   5.277   6.475   7.955
 5912POPC   C4B 7786   5.245   6.483   7.655
 5913POPC   NC3 7787  29.178  33.842   9.455
 5913POPC   PO4 7788  29.129  33.778   9.155
 5913POPC   GL1 7789  29.137  33.815   8.855
 5913POPC   GL2 7790  29.233  33.963   8.855
 5913POPC   C1A 7791  29.122  33.837   8.555
 5913POPC   D2A 7792  29.100  33.774   8.255
 5913POPC   C3A 7793  29.125  33.779   7.955
 5913POPC   C4A 7794  29.099  33.848   7.655
 5913POPC   C1B 7795  29.229  34.058   8.555
 5913POPC   C2B 7796  29.202  34.067   8.255
 5913POPC   C3B 7797  29.229  33.987   7.955
 5913POPC   C4B 7798  29.243  34.040   7.655
 5914POPC   NC3 7799  19.054  33.025   9.455
 5914POPC   PO4 7800  19.071  33.030   9.155
 5914POPC   GL1 7801  19.071  33.043   8.855
 5914POPC   GL2 7802  19.019  33.178   8.855
 5914POPC   C1A 7803  19.016  33.069   8.555
 5914POPC   D2A 7804  19.084  33.036   8.255
 5914POPC   C3A 7805  19.032  32.996   7.955
 5914POPC   C4A 7806  19.087  33.032   7.655
 5914POPC   C1B 7807  19.034  33.289   8.555
 5914POPC   C2B 7808  19.090  33.277   8.255
 5914POPC   C3B 7809  19.015  33.266   7.955
 5914POPC   C4B 7810  19.021  33.249   7.655
 5915POPC   NC3 7811   8.929  26.800   9.455
 5915POPC   PO4 7812   9.001  26.781   9.155
 5915POPC   GL1 7813   8.973  26.802   8.855
 5915POPC   GL2 7814   8.889  26.963   8.855
 5915POPC   C1A 7815   9.011  26.831   8.555
 5915POPC   D2A 7816   8.979  26.866   8.255
 5915POPC   C3A 7817   8.945  26.854   7.955
 5915POPC   C4A 7818   8.978  26.834   7.655
 5915POPC   C1B 7819   8.931  27.096   8.555
 5915POPC   C2B 7820   8.845  27.066   8.255
 5915POPC   C3B 7821   8.890  27.040   7.955
 5915POPC   C4B 7822   8.910  27.072   7.655
 5916POPC   NC3 7823   0.412  14.452   9.455
 5916POPC   PO4 7824   0.424  14.445   9.155
 5916POPC   GL1 7825   0.469  14.424   8.855
 5916POPC   GL2 7826   0.551  14.336   8.855
 5916POPC   C1A 7827   0.431  14.386   8.555
 5916POPC   D2A 7828   0.394  14.410   8.255
 5916POPC   C3A 7829   0.394  14.371   7.955
 5916POPC   C4A 7830   0.437  14.376   7.655
 5916POPC   C1B 7831   0.678  14.298   8.555
 5916POPC   C2B 7832   0.611  14.281   8.255
 5916POPC   C3B 7833   0.632  14.317   7.955
 5916POPC   C4B 7834   0.670  14.302   7.655
 5917POPC   NC3 7835  18.328   5.056   9.455
 5917POPC   PO4 7836  18.250   5.047   9.155
 5917POPC   GL1 7837  18.244   5.053   8.855
 5917POPC   GL2 7838  18.173   5.004   8.855
 5917POPC   C1A 7839  18.324   5.060   8.555
 5917POPC   D2A 7840  18.312   5.115   8.255
 5917POPC   C3A 7841  18.239   5.125   7.955
 5917POPC   C4A 7842  18.271   5.051   7.655
 5917POPC   C1B 7843  18.197   4.915   8.555
 5917POPC   C2B 7844  18.150   4.841   8.255
 5917POPC   C3B 7845  18.127   4.901   7.955
 5917POPC   C4B 7846  18.179   4.844   7.655
 5918POPC   NC3 7847  33.009   1.968   9.455
 5918POPC   PO4 7848  33.017   1.955   9.155
 5918POPC   GL1 7849  33.046   1.959   8.855
 5918POPC   GL2 7850  33.095   2.076   8.855
 5918POPC   C1A 7851  33.046   1.982   8.555
 5918POPC   D2A 7852  32.997   2.008   8.255
 5918POPC   C3A 7853  33.068   1.975   7.955
 5918POPC   C4A 7854  33.037   2.023   7.655
 5918POPC   C1B 7855  33.203   2.128   8.555
 5918POPC   C2B 7856  33.234   2.122   8.255
 5918POPC   C3B 7857  33.163   2.131   7.955
 5918POPC   C4B 7858  33.174   2.127   7.655
 5919POPC   NC3 7859  36.936  42.285   9.455
 5919POPC   PO4 7860  36.873  42.382   9.155
 5919POPC   GL1 7861  36.857  42.373   8.855
 5919POPC   GL2 7862  36.874  42.236   8.855
 5919POPC   C1A 7863  36.879  42.359   8.555
 5919POPC   D2A 7864  36.854  42.309   8.255
 5919POPC   C3A 7865  36.933  42.356   7.955
 5919POPC   C4A 7866  36.907  42.363   7.655
 5919POPC   C1B 7867  36.750  42.111   8.555
 5919POPC   C2B 7868  36.760  42.126   8.255
 5919POPC   C3B 7869  36.771  42.138   7.955
 5919POPC   C4B 7870  36.828  42.102   7.655
 5920POPC   NC3 7871  11.263  22.890   9.455
 5920POPC   PO4 7872  11.315  22.890   9.155
 5920POPC   GL1 7873  11.258  22.984   8.855
 5920POPC   GL2 7874  11.217  22.867   8.855
 5920POPC   C1A 7875  11.312  22.971   8.555
 5920POPC   D2A 7876  11.282  22.897   8.255
 5920POPC   C3A 7877  11.341  22.964   7.955
 5920POPC   C4A 7878  11.272  22.988   7.655
 5920POPC   C1B 7879  11.067  22.889   8.555
 5920POPC   C2B 7880  11.037  22.820   8.255
 5920POPC   C3B 7881  11.080  22.804   7.955
 5920POPC   C4B 7882  11.024  22.823   7.655
 5921POPC   NC3 7883  34.554  11.320   9.455
 5921POPC   PO4 7884  34.576  11.291   9.155
 5921POPC   GL1 7885  34.552  11.270   8.855
 5921POPC   GL2 7886  34.455  11.362   8.855
 5921POPC   C1A 7887  34.586  11.253   8.555
 5921POPC   D2A 7888  34.547  11.320   8.255
 5921POPC   C3A 7889  34.622  11.255   7.955
 5921POPC   C4A 7890  34.560  11.304   7.655
 5921POPC   C1B 7891  34.379  11.318   8.555
 5921POPC   C2B 7892  34.346  11.337   8.255
 5921POPC   C3B 7893  34.369  11.361   7.955
 5921POPC   C4B 7894  34.300  11.303   7.655
 5922POPC   NC3 7895  20.650   4.316   9.455
 5922POPC   PO4 7896  20.638   4.322   9.155
 5922POPC   GL1 7897  20.610   4.366   8.855
 5922POPC   GL2 7898  20.626   4.187   8.855
 5922POPC   C1A 7899  20.583   4.347   8.555
 5922POPC   D2A 7900  20.613   4.289   8.255
 5922POPC   C3A 7901  20.564   4.358   7.955
 5922POPC   C4A 7902  20.596   4.360   7.655
 5922POPC   C1B 7903  20.605   4.094   8.555
 5922POPC   C2B 7904  20.662   4.026   8.255
 5922POPC   C3B 7905  20.646   4.069   7.955
 5922POPC   C4B 7906  20.616   4.020   7.655
 5923POPC   NC3 7907   4.282  40.002   9.455
 5923POPC   PO4 7908   4.334  39.971   9.155
 5923POPC   GL1 7909   4.349  39.979   8.855
 5923POPC   GL2 7910   4.216  40.125   8.855
 5923POPC   C1A 7911   4.293  39.980   8.555
 5923POPC   D2A 7912   4.346  40.000   8.255
 5923POPC   C3A 7913   4.291  39.978   7.955
 5923POPC   C4A 7914   4.360  40.043   7.655
 5923POPC   C1B 7915   4.190  40.258   8.555
 5923POPC   C2B 7916   4.221  40.202   8.255
 5923POPC   C3B 7917   4.150  40.267   7.955
 5923POPC   C4B 7918   4.185  40.202   7.655
 5924POPC   NC3 7919   8.221  36.129   9.455
 5924POPC   PO4 7920   8.153  36.079   9.155
 5924POPC   GL1 7921   8.218  36.133   8.855
 5924POPC   GL2 7922   8.094  36.002   8.855
 5924POPC   C1A 7923   8.181  36.164   8.555
 5924POPC   D2A 7924   8.168  36.114   8.255
 5924POPC   C3A 7925   8.170  36.090   7.955
 5924POPC   C4A 7926   8.195  36.080   7.655
 5924POPC   C1B 7927   8.039  35.951   8.555
 5924POPC   C2B 7928   7.962  35.992   8.255
 5924POPC   C3B 7929   8.003  35.959   7.955
 5924POPC   C4B 7930   7.980  35.929   7.655
 5925POPC   NC3 7931  36.113  19.033   9.455
 5925POPC   PO4 7932  36.151  19.043   9.155
 5925POPC   GL1 7933  36.089  19.098   8.855
 5925POPC   GL2 7934  36.260  18.959   8.855
 5925POPC   C1A 7935  36.159  19.087   8.555
 5925POPC   D2A 7936  36.146  19.102   8.255
 5925POPC   C3A 7937  36.112  19.014   7.955
 5925POPC   C4A 7938  36.149  19.015   7.655
 5925POPC   C1B 7939  36.330  18.902   8.555
 5925POPC   C2B 7940  36.301  18.898   8.255
 5925POPC   C3B 7941  36.368  18.903   7.955
 5925POPC   C4B 7942  36.391  18.976   7.655
 5926POPC   NC3 7943  18.268   3.551   9.455
 5926POPC   PO4 7944  18.269   3.543   9.155
 5926POPC   GL1 7945  18.327   3.526   8.855
 5926POPC   GL2 7946  18.416   3.503   8.855
 5926POPC   C1A 7947  18.331   3.493   8.555
 5926POPC   D2A 7948  18.326   3.521   8.255
 5926POPC   C3A 7949  18.277   3.561   7.955
 5926POPC   C4A 7950  18.325   3.518   7.655
 5926POPC   C1B 7951  18.503   3.518   8.555
 5926POPC   C2B 7952  18.543   3.527   8.255
 5926POPC   C3B 7953  18.540   3.475   7.955
 5926POPC   C4B 7954  18.534   3.528   7.655
 5927POPC   NC3 7955  21.417  36.114   9.455
 5927POPC   PO4 7956  21.397  36.148   9.155
 5927POPC   GL1 7957  21.366  36.134   8.855
 5927POPC   GL2 7958  21.409  36.203   8.855
 5927POPC   C1A 7959  21.413  36.087   8.555
 5927POPC   D2A 7960  21.376  36.110   8.255
 5927POPC   C3A 7961  21.352  36.143   7.955
 5927POPC   C4A 7962  21.368  36.163   7.655
 5927POPC   C1B 7963  21.488  36.334   8.555
 5927POPC   C2B 7964  21.536  36.356   8.255
 5927POPC   C3B 7965  21.505  36.309   7.955
 5927POPC   C4B 7966  21.544  36.381   7.655
 5928POPC   NC3 7967   2.787   5.878   9.455
 5928POPC   PO4 7968   2.738   5.903   9.155
 5928POPC   GL1 7969   2.761   5.911   8.855
 5928POPC   GL2 7970   2.736   5.737   8.855
 5928POPC   C1A 7971   2.786   5.823   8.555
 5928POPC   D2A 7972   2.732   5.849   8.255
 5928POPC   C3A 7973   2.723   5.903   7.955
 5928POPC   C4A 7974   2.750   5.894   7.655
 5928POPC   C1B 7975   2.741   5.590   8.555
 5928POPC   C2B 7976   2.739   5.604   8.255
 5928POPC   C3B 7977   2.692   5.642   7.955
 5928POPC   C4B 7978   2.750   5.605   7.655
 5929POPC   NC3 7979  31.481   4.335   9.455
 5929POPC   PO4 7980  31.450   4.358   9.155
 5929POPC   GL1 7981  31.456   4.295   8.855
 5929POPC   GL2 7982  31.414   4.221   8.855
 5929POPC   C1A 7983  31.429   4.321   8.555
 5929POPC   D2A 7984  31.464   4.345   8.255
 5929POPC   C3A 7985  31.475   4.329   7.955
 5929POPC   C4A 7986  31.471   4.304   7.655
 5929POPC   C1B 7987  31.319   4.145   8.555
 5929POPC   C2B 7988  31.332   4.143   8.255
 5929POPC   C3B 7989  31.249   4.116   7.955
 5929POPC   C4B 7990  31.334   4.135   7.655
 5930POPC   NC3 7991   8.207  11.306   9.455
 5930POPC   PO4 7992   8.159  11.332   9.155
 5930POPC   GL1 7993   8.230  11.255   8.855
 5930POPC   GL2 7994   8.277  11.257   8.855
 5930POPC   C1A 7995   8.173  11.334   8.555
 5930POPC   D2A 7996   8.162  11.342   8.255
 5930POPC   C3A 7997   8.198  11.326   7.955
 5930POPC   C4A 7998   8.203  11.343   7.655
 5930POPC   C1B 7999   8.462  11.181   8.555
 5930POPC   C2B 8000   8.480  11.172   8.255
 5930POPC   C3B 8001   8.395  11.230   7.955
 5930POPC   C4B 8002   8.454  11.171   7.655
 5931POPC   NC3 8003  38.467  11.325   9.455
 5931POPC   PO4 8004  38.438  11.325   9.155
 5931POPC   GL1 8005  38.456  11.318   8.855
 5931POPC   GL2 8006  38.370  11.435   8.855
 5931POPC   C1A 8007  38.474  11.252   8.555
 5931POPC   D2A 8008  38.416  11.324   8.255
 5931POPC   C3A 8009  38.472  11.262   7.955
 5931POPC   C4A 8010  38.449  11.257   7.655
 5931POPC   C1B 8011  38.379  11.570   8.555
 5931POPC   C2B 8012  38.350  11.519   8.255
 5931POPC   C3B 8013  38.310  11.512   7.955
 5931POPC   C4B 8014  38.394  11.484   7.655
 5932POPC   NC3 8015  40.825  28.350   9.455
 5932POPC   PO4 8016  40.810  28.400   9.155
 5932POPC   GL1 8017  40.740  28.373   8.855
 5932POPC   GL2 8018  40.815  28.212   8.855
 5932POPC   C1A 8019  40.817  28.399   8.555
 5932POPC   D2A 8020  40.814  28.392   8.255
 5932POPC   C3A 8021  40.806  28.414   7.955
 5932POPC   C4A 8022  40.758  28.352   7.655
 5932POPC   C1B 8023  40.839  28.144   8.555
 5932POPC   C2B 8024  40.922  28.144   8.255
 5932POPC   C3B 8025  40.905  28.113   7.955
 5932POPC   C4B 8026  40.840  28.140   7.655
 5933POPC   NC3 8027  23.733  36.950   9.455
 5933POPC   PO4 8028  23.733  36.914   9.155
 5933POPC   GL1 8029  23.754  36.893   8.855
 5933POPC   GL2 8030  23.839  36.925   8.855
 5933POPC   C1A 8031  23.713  36.905   8.555
 5933POPC   D2A 8032  23.710  36.880   8.255
 5933POPC   C3A 8033  23.708  36.912   7.955
 5933POPC   C4A 8034  23.729  36.877   7.655
 5933POPC   C1B 8035  23.904  36.996   8.555
 5933POPC   C2B 8036  23.920  36.988   8.255
 5933POPC   C3B 8037  23.917  36.971   7.955
 5933POPC   C4B 8038  23.959  37.008   7.655
 5934POPC   NC3 8039  36.174  16.761   9.455
 5934POPC   PO4 8040  36.159  16.701   9.155
 5934POPC   GL1 8041  36.172  16.738   8.855
 5934POPC   GL2 8042  36.209  16.683   8.855
 5934POPC   C1A 8043  36.098  16.710   8.555
 5934POPC   D2A 8044  36.129  16.720   8.255
 5934POPC   C3A 8045  36.124  16.752   7.955
 5934POPC   C4A 8046  36.114  16.756   7.655
 5934POPC   C1B 8047  36.358  16.642   8.555
 5934POPC   C2B 8048  36.403  16.679   8.255
 5934POPC   C3B 8049  36.323  16.622   7.955
 5934POPC   C4B 8050  36.370  16.634   7.655
 5935POPC   NC3 8051  29.119   0.480   9.455
 5935POPC   PO4 8052  29.127   0.486   9.155
 5935POPC   GL1 8053  29.096   0.393   8.855
 5935POPC   GL2 8054  29.142   0.545   8.855
 5935POPC   C1A 8055  29.163   0.487   8.555
 5935POPC   D2A 8056  29.173   0.468   8.255
 5935POPC   C3A 8057  29.174   0.431   7.955
 5935POPC   C4A 8058  29.103   0.435   7.655
 5935POPC   C1B 8059  29.089   0.651   8.555
 5935POPC   C2B 8060  29.112   0.696   8.255
 5935POPC   C3B 8061  29.097   0.681   7.955
 5935POPC   C4B 8062  29.075   0.698   7.655
 5936POPC   NC3 8063   2.788  11.261   9.455
 5936POPC   PO4 8064   2.776  11.295   9.155
 5936POPC   GL1 8065   2.763  11.274   8.855
 5936POPC   GL2 8066   2.796  11.207   8.855
 5936POPC   C1A 8067   2.811  11.333   8.555
 5936POPC   D2A 8068   2.799  11.276   8.255
 5936POPC   C3A 8069   2.748  11.327   7.955
 5936POPC   C4A 8070   2.771  11.348   7.655
 5936POPC   C1B 8071   2.843  11.073   8.555
 5936POPC   C2B 8072   2.816  11.016   8.255
 5936POPC   C3B 8073   2.802  11.081   7.955
 5936POPC   C4B 8074   2.831  11.020   7.655
 5937POPC   NC3 8075  22.958  43.146   9.455
 5937POPC   PO4 8076  22.927  43.100   9.155
 5937POPC   GL1 8077  22.941  43.086   8.855
 5937POPC   GL2 8078  22.957  43.196   8.855
 5937POPC   C1A 8079  22.890  43.069   8.555
 5937POPC   D2A 8080  22.966  43.106   8.255
 5937POPC   C3A 8081  22.899  43.068   7.955
 5937POPC   C4A 8082  22.939  43.153   7.655
 5937POPC   C1B 8083  23.029  43.308   8.555
 5937POPC   C2B 8084  23.082  43.383   8.255
 5937POPC   C3B 8085  23.000  43.371   7.955
 5937POPC   C4B 8086  23.018  43.313   7.655
 5938POPC   NC3 8087   8.970  37.710   9.455
 5938POPC   PO4 8088   8.971  37.644   9.155
 5938POPC   GL1 8089   8.995  37.724   8.855
 5938POPC   GL2 8090   9.006  37.579   8.855
 5938POPC   C1A 8091   9.001  37.687   8.555
 5938POPC   D2A 8092   8.950  37.696   8.255
 5938POPC   C3A 8093   9.018  37.719   7.955
 5938POPC   C4A 8094   8.923  37.704   7.655
 5938POPC   C1B 8095   9.048  37.427   8.555
 5938POPC   C2B 8096   9.035  37.407   8.255
 5938POPC   C3B 8097   9.005  37.404   7.955
 5938POPC   C4B 8098   9.024  37.416   7.655
 5939POPC   NC3 8099   5.137  41.538   9.455
 5939POPC   PO4 8100   5.104  41.568   9.155
 5939POPC   GL1 8101   5.116  41.587   8.855
 5939POPC   GL2 8102   5.167  41.630   8.855
 5939POPC   C1A 8103   5.081  41.591   8.555
 5939POPC   D2A 8104   5.073  41.546   8.255
 5939POPC   C3A 8105   5.136  41.573   7.955
 5939POPC   C4A 8106   5.078  41.513   7.655
 5939POPC   C1B 8107   5.230  41.791   8.555
 5939POPC   C2B 8108   5.223  41.775   8.255
 5939POPC   C3B 8109   5.252  41.807   7.955
 5939POPC   C4B 8110   5.242  41.810   7.655
 5940POPC   NC3 8111  12.031  17.492   9.455
 5940POPC   PO4 8112  12.088  17.493   9.155
 5940POPC   GL1 8113  12.075  17.517   8.855
 5940POPC   GL2 8114  12.001  17.345   8.855
 5940POPC   C1A 8115  12.078  17.514   8.555
 5940POPC   D2A 8116  12.115  17.521   8.255
 5940POPC   C3A 8117  12.093  17.493   7.955
 5940POPC   C4A 8118  12.058  17.526   7.655
 5940POPC   C1B 8119  11.977  17.323   8.555
 5940POPC   C2B 8120  11.948  17.268   8.255
 5940POPC   C3B 8121  11.973  17.252   7.955
 5940POPC   C4B 8122  12.007  17.307   7.655
 5941POPC   NC3 8123  38.467  21.372   9.455
 5941POPC   PO4 8124  38.439  21.429   9.155
 5941POPC   GL1 8125  38.482  21.425   8.855
 5941POPC   GL2 8126  38.382  21.486   8.855
 5941POPC   C1A 8127  38.486  21.413   8.555
 5941POPC   D2A 8128  38.421  21.416   8.255
 5941POPC   C3A 8129  38.448  21.411   7.955
 5941POPC   C4A 8130  38.413  21.368   7.655
 5941POPC   C1B 8131  38.203  21.522   8.555
 5941POPC   C2B 8132  38.239  21.513   8.255
 5941POPC   C3B 8133  38.214  21.551   7.955
 5941POPC   C4B 8134  38.263  21.513   7.655
 5942POPC   NC3 8135   4.350  42.375   9.455
 5942POPC   PO4 8136   4.299  42.319   9.155
 5942POPC   GL1 8137   4.268  42.373   8.855
 5942POPC   GL2 8138   4.292  42.176   8.855
 5942POPC   C1A 8139   4.360  42.310   8.555
 5942POPC   D2A 8140   4.359  42.334   8.255
 5942POPC   C3A 8141   4.305  42.343   7.955
 5942POPC   C4A 8142   4.286  42.334   7.655
 5942POPC   C1B 8143   4.313  42.082   8.555
 5942POPC   C2B 8144   4.358  42.087   8.255
 5942POPC   C3B 8145   4.372  42.039   7.955
 5942POPC   C4B 8146   4.370  42.096   7.655
 5943POPC   NC3 8147  44.679  41.559   9.455
 5943POPC   PO4 8148  44.651  41.578   9.155
 5943POPC   GL1 8149  44.627  41.600   8.855
 5943POPC   GL2 8150  44.687  41.480   8.855
 5943POPC   C1A 8151  44.617  41.577   8.555
 5943POPC   D2A 8152  44.695  41.605   8.255
 5943POPC   C3A 8153  44.661  41.567   7.955
 5943POPC   C4A 8154  44.707  41.509   7.655
 5943POPC   C1B 8155  44.786  41.298   8.555
 5943POPC   C2B 8156  44.776  41.298   8.255
 5943POPC   C3B 8157  44.753  41.318   7.955
 5943POPC   C4B 8158  44.746  41.322   7.655
 5944POPC   NC3 8159   0.399  39.185   9.455
 5944POPC   PO4 8160   0.464  39.221   9.155
 5944POPC   GL1 8161   0.448  39.229   8.855
 5944POPC   GL2 8162   0.455  39.401   8.855
 5944POPC   C1A 8163   0.454  39.217   8.555
 5944POPC   D2A 8164   0.487  39.216   8.255
 5944POPC   C3A 8165   0.414  39.238   7.955
 5944POPC   C4A 8166   0.400  39.245   7.655
 5944POPC   C1B 8167   0.488  39.469   8.555
 5944POPC   C2B 8168   0.458  39.469   8.255
 5944POPC   C3B 8169   0.403  39.485   7.955
 5944POPC   C4B 8170   0.418  39.472   7.655
 5945POPC   NC3 8171  40.733  27.571   9.455
 5945POPC   PO4 8172  40.786  27.619   9.155
 5945POPC   GL1 8173  40.809  27.608   8.855
 5945POPC   GL2 8174  40.942  27.555   8.855
 5945POPC   C1A 8175  40.749  27.613   8.555
 5945POPC   D2A 8176  40.761  27.552   8.255
 5945POPC   C3A 8177  40.786  27.555   7.955
 5945POPC   C4A 8178  40.766  27.579   7.655
 5945POPC   C1B 8179  41.057  27.533   8.555
 5945POPC   C2B 8180  41.031  27.466   8.255
 5945POPC   C3B 8181  41.039  27.450   7.955
 5945POPC   C4B 8182  41.056  27.518   7.655
 5946POPC   NC3 8183  35.368  43.113   9.455
 5946POPC   PO4 8184  35.313  43.140   9.155
 5946POPC   GL1 8185  35.304  43.082   8.855
 5946POPC   GL2 8186  35.462  43.200   8.855
 5946POPC   C1A 8187  35.383  43.089   8.555
 5946POPC   D2A 8188  35.360  43.070   8.255
 5946POPC   C3A 8189  35.363  43.146   7.955
 5946POPC   C4A 8190  35.334  43.120   7.655
 5946POPC   C1B 8191  35.617  43.247   8.555
 5946POPC   C2B 8192  35.601  43.186   8.255
 5946POPC   C3B 8193  35.571  43.225   7.955
 5946POPC   C4B 8194  35.533  43.229   7.655
 5947POPC   NC3 8195   2.734  27.544   9.455
 5947POPC   PO4 8196   2.753  27.546   9.155
 5947POPC   GL1 8197   2.796  27.599   8.855
 5947POPC   GL2 8198   2.871  27.518   8.855
 5947POPC   C1A 8199   2.743  27.578   8.555
 5947POPC   D2A 8200   2.719  27.613   8.255
 5947POPC   C3A 8201   2.812  27.595   7.955
 5947POPC   C4A 8202   2.815  27.600   7.655
 5947POPC   C1B 8203   2.955  27.428   8.555
 5947POPC   C2B 8204   2.889  27.419   8.255
 5947POPC   C3B 8205   2.983  27.364   7.955
 5947POPC   C4B 8206   2.938  27.371   7.655
 5948POPC   NC3 8207  27.561   4.312   9.455
 5948POPC   PO4 8208  27.613   4.298   9.155
 5948POPC   GL1 8209  27.637   4.286   8.855
 5948POPC   GL2 8210  27.528   4.248   8.855
 5948POPC   C1A 8211  27.603   4.316   8.555
 5948POPC   D2A 8212  27.554   4.348   8.255
 5948POPC   C3A 8213  27.620   4.345   7.955
 5948POPC   C4A 8214  27.571   4.281   7.655
 5948POPC   C1B 8215  27.453   4.152   8.555
 5948POPC   C2B 8216  27.399   4.129   8.255
 5948POPC   C3B 8217  27.442   4.153   7.955
 5948POPC   C4B 8218  27.392   4.193   7.655
 5949POPC   NC3 8219  43.921  22.963   9.455
 5949POPC   PO4 8220  43.932  22.936   9.155
 5949POPC   GL1 8221  43.885  22.896   8.855
 5949POPC   GL2 8222  44.013  22.960   8.855
 5949POPC   C1A 8223  43.922  22.906   8.555
 5949POPC   D2A 8224  43.843  22.949   8.255
 5949POPC   C3A 8225  43.923  22.960   7.955
 5949POPC   C4A 8226  43.913  22.889   7.655
 5949POPC   C1B 8227  44.132  23.033   8.555
 5949POPC   C2B 8228  44.098  22.960   8.255
 5949POPC   C3B 8229  44.163  22.978   7.955
 5949POPC   C4B 8230  44.134  23.005   7.655
 5950POPC   NC3 8231  35.384   4.272   9.455
 5950POPC   PO4 8232  35.374   4.312   9.155
 5950POPC   GL1 8233  35.344   4.327   8.855
 5950POPC   GL2 8234  35.227   4.250   8.855
 5950POPC   C1A 8235  35.378   4.277   8.555
 5950POPC   D2A 8236  35.363   4.298   8.255
 5950POPC   C3A 8237  35.312   4.332   7.955
 5950POPC   C4A 8238  35.321   4.357   7.655
 5950POPC   C1B 8239  35.120   4.177   8.555
 5950POPC   C2B 8240  35.163   4.157   8.255
 5950POPC   C3B 8241  35.112   4.229   7.955
 5950POPC   C4B 8242  35.162   4.256   7.655
 5951POPC   NC3 8243  15.212  38.477   9.455
 5951POPC   PO4 8244  15.210  38.406   9.155
 5951POPC   GL1 8245  15.228  38.406   8.855
 5951POPC   GL2 8246  15.227  38.550   8.855
 5951POPC   C1A 8247  15.173  38.502   8.555
 5951POPC   D2A 8248  15.183  38.480   8.255
 5951POPC   C3A 8249  15.141  38.453   7.955
 5951POPC   C4A 8250  15.182  38.427   7.655
 5951POPC   C1B 8251  15.211  38.690   8.555
 5951POPC   C2B 8252  15.270  38.686   8.255
 5951POPC   C3B 8253  15.236  38.686   7.955
 5951POPC   C4B 8254  15.205  38.677   7.655
 5952POPC   NC3 8255  40.018   6.663   9.455
 5952POPC   PO4 8256  40.006   6.621   9.155
 5952POPC   GL1 8257  39.991   6.619   8.855
 5952POPC   GL2 8258  40.015   6.562   8.855
 5952POPC   C1A 8259  40.035   6.641   8.555
 5952POPC   D2A 8260  40.028   6.633   8.255
 5952POPC   C3A 8261  39.998   6.669   7.955
 5952POPC   C4A 8262  40.014   6.694   7.655
 5952POPC   C1B 8263  39.968   6.360   8.555
 5952POPC   C2B 8264  39.963   6.399   8.255
 5952POPC   C3B 8265  39.894   6.374   7.955
 5952POPC   C4B 8266  39.946   6.448   7.655
 5953POPC   NC3 8267  33.010  43.884   9.455
 5953POPC   PO4 8268  32.994  43.930   9.155
 5953POPC   GL1 8269  32.986  43.879   8.855
 5953POPC   GL2 8270  32.982  43.769   8.855
 5953POPC   C1A 8271  33.061  43.856   8.555
 5953POPC   D2A 8272  33.009  43.890   8.255
 5953POPC   C3A 8273  32.978  43.884   7.955
 5953POPC   C4A 8274  32.991  43.918   7.655
 5953POPC   C1B 8275  32.960  43.624   8.555
 5953POPC   C2B 8276  32.963  43.644   8.255
 5953POPC   C3B 8277  32.895  43.652   7.955
 5953POPC   C4B 8278  32.953  43.617   7.655
 5954POPC   NC3 8279   2.716  10.568   9.455
 5954POPC   PO4 8280   2.730  10.568   9.155
 5954POPC   GL1 8281   2.719  10.519   8.855
 5954POPC   GL2 8282   2.708  10.470   8.855
 5954POPC   C1A 8283   2.760  10.539   8.555
 5954POPC   D2A 8284   2.784  10.550   8.255
 5954POPC   C3A 8285   2.752  10.574   7.955
 5954POPC   C4A 8286   2.769  10.573   7.655
 5954POPC   C1B 8287   2.633  10.320   8.555
 5954POPC   C2B 8288   2.622  10.369   8.255
 5954POPC   C3B 8289   2.572  10.352   7.955
 5954POPC   C4B 8290   2.584  10.319   7.655
 5955POPC   NC3 8291  35.311  36.926   9.455
 5955POPC   PO4 8292  35.372  36.905   9.155
 5955POPC   GL1 8293  35.329  36.953   8.855
 5955POPC   GL2 8294  35.210  36.866   8.855
 5955POPC   C1A 8295  35.347  36.872   8.555
 5955POPC   D2A 8296  35.391  36.935   8.255
 5955POPC   C3A 8297  35.338  36.947   7.955
 5955POPC   C4A 8298  35.366  36.935   7.655
 5955POPC   C1B 8299  35.119  36.819   8.555
 5955POPC   C2B 8300  35.134  36.787   8.255
 5955POPC   C3B 8301  35.141  36.846   7.955
 5955POPC   C4B 8302  35.139  36.765   7.655
 5956POPC   NC3 8303   2.755   0.410   9.455
 5956POPC   PO4 8304   2.786   0.426   9.155
 5956POPC   GL1 8305   2.749   0.416   8.855
 5956POPC   GL2 8306   2.776   0.514   8.855
 5956POPC   C1A 8307   2.744   0.435   8.555
 5956POPC   D2A 8308   2.782   0.475   8.255
 5956POPC   C3A 8309   2.808   0.392   7.955
 5956POPC   C4A 8310   2.757   0.472   7.655
 5956POPC   C1B 8311   2.749   0.682   8.555
 5956POPC   C2B 8312   2.767   0.668   8.255
 5956POPC   C3B 8313   2.776   0.662   7.955
 5956POPC   C4B 8314   2.799   0.661   7.655
 5957POPC   NC3 8315  19.842  31.481   9.455
 5957POPC   PO4 8316  19.831  31.465   9.155
 5957POPC   GL1 8317  19.830  31.507   8.855
 5957POPC   GL2 8318  19.698  31.543   8.855
 5957POPC   C1A 8319  19.803  31.473   8.555
 5957POPC   D2A 8320  19.810  31.423   8.255
 5957POPC   C3A 8321  19.806  31.517   7.955
 5957POPC   C4A 8322  19.863  31.519   7.655
 5957POPC   C1B 8323  19.601  31.615   8.555
 5957POPC   C2B 8324  19.622  31.579   8.255
 5957POPC   C3B 8325  19.604  31.654   7.955
 5957POPC   C4B 8326  19.631  31.661   7.655
 5958POPC   NC3 8327  26.061   1.961   9.455
 5958POPC   PO4 8328  26.060   2.029   9.155
 5958POPC   GL1 8329  26.009   1.971   8.855
 5958POPC   GL2 8330  26.201   2.005   8.855
 5958POPC   C1A 8331  26.073   2.025   8.555
 5958POPC   D2A 8332  26.010   1.963   8.255
 5958POPC   C3A 8333  26.077   1.988   7.955
 5958POPC   C4A 8334  26.009   2.030   7.655
 5958POPC   C1B 8335  26.328   2.003   8.555
 5958POPC   C2B 8336  26.314   2.001   8.255
 5958POPC   C3B 8337  26.264   2.083   7.955
 5958POPC   C4B 8338  26.298   2.042   7.655
 5959POPC   NC3 8339   5.130  34.537   9.455
 5959POPC   PO4 8340   5.076  34.579   9.155
 5959POPC   GL1 8341   5.135  34.541   8.855
 5959POPC   GL2 8342   5.022  34.467   8.855
 5959POPC   C1A 8343   5.128  34.583   8.555
 5959POPC   D2A 8344   5.066  34.539   8.255
 5959POPC   C3A 8345   5.088  34.528   7.955
 5959POPC   C4A 8346   5.072  34.552   7.655
 5959POPC   C1B 8347   5.036  34.352   8.555
 5959POPC   C2B 8348   5.042  34.317   8.255
 5959POPC   C3B 8349   5.047  34.304   7.955
 5959POPC   C4B 8350   4.990  34.331   7.655
 5960POPC   NC3 8351  39.977  23.750   9.455
 5960POPC   PO4 8352  40.005  23.705   9.155
 5960POPC   GL1 8353  40.009  23.701   8.855
 5960POPC   GL2 8354  39.892  23.661   8.855
 5960POPC   C1A 8355  40.011  23.669   8.555
 5960POPC   D2A 8356  39.990  23.680   8.255
 5960POPC   C3A 8357  39.964  23.677   7.955
 5960POPC   C4A 8358  40.019  23.693   7.655
 5960POPC   C1B 8359  39.762  23.667   8.555
 5960POPC   C2B 8360  39.761  23.706   8.255
 5960POPC   C3B 8361  39.763  23.745   7.955
 5960POPC   C4B 8362  39.791  23.726   7.655
 5961POPC   NC3 8363  10.554  19.808   9.455
 5961POPC   PO4 8364  10.485  19.789   9.155
 5961POPC   GL1 8365  10.542  19.829   8.855
 5961POPC   GL2 8366  10.442  19.915   8.855
 5961POPC   C1A 8367  10.492  19.839   8.555
 5961POPC   D2A 8368  10.504  19.859   8.255
 5961POPC   C3A 8369  10.483  19.835   7.955
 5961POPC   C4A 8370  10.550  19.793   7.655
 5961POPC   C1B 8371  10.391  20.020   8.555
 5961POPC   C2B 8372  10.363  20.016   8.255
 5961POPC   C3B 8373  10.299  20.021   7.955
 5961POPC   C4B 8374  10.377  19.987   7.655
 5962POPC   NC3 8375   8.189  38.432   9.455
 5962POPC   PO4 8376   8.197  38.489   9.155
 5962POPC   GL1 8377   8.160  38.496   8.855
 5962POPC   GL2 8378   8.206  38.350   8.855
 5962POPC   C1A 8379   8.211  38.482   8.555
 5962POPC   D2A 8380   8.206  38.464   8.255
 5962POPC   C3A 8381   8.236  38.433   7.955
 5962POPC   C4A 8382   8.244  38.504   7.655
 5962POPC   C1B 8383   8.284  38.230   8.555
 5962POPC   C2B 8384   8.264  38.216   8.255
 5962POPC   C3B 8385   8.299  38.248   7.955
 5962POPC   C4B 8386   8.317  38.200   7.655
 5963POPC   NC3 8387  37.726   4.347   9.455
 5963POPC   PO4 8388  37.638   4.336   9.155
 5963POPC   GL1 8389  37.647   4.351   8.855
 5963POPC   GL2 8390  37.717   4.195   8.855
 5963POPC   C1A 8391  37.651   4.277   8.555
 5963POPC   D2A 8392  37.729   4.270   8.255
 5963POPC   C3A 8393  37.646   4.322   7.955
 5963POPC   C4A 8394  37.705   4.328   7.655
 5963POPC   C1B 8395  37.818   4.117   8.555
 5963POPC   C2B 8396  37.874   4.165   8.255
 5963POPC   C3B 8397  37.802   4.089   7.955
 5963POPC   C4B 8398  37.876   4.083   7.655
 5964POPC   NC3 8399  11.343  42.377   9.455
 5964POPC   PO4 8400  11.290  42.326   9.155
 5964POPC   GL1 8401  11.274  42.325   8.855
 5964POPC   GL2 8402  11.180  42.277   8.855
 5964POPC   C1A 8403  11.274  42.298   8.555
 5964POPC   D2A 8404  11.253  42.346   8.255
 5964POPC   C3A 8405  11.284  42.297   7.955
 5964POPC   C4A 8406  11.264  42.336   7.655
 5964POPC   C1B 8407  11.024  42.250   8.555
 5964POPC   C2B 8408  11.089  42.308   8.255
 5964POPC   C3B 8409  11.039  42.234   7.955
 5964POPC   C4B 8410  11.069  42.235   7.655
 5965POPC   NC3 8411  20.566  33.806   9.455
 5965POPC   PO4 8412  20.636  33.778   9.155
 5965POPC   GL1 8413  20.619  33.755   8.855
 5965POPC   GL2 8414  20.529  33.722   8.855
 5965POPC   C1A 8415  20.572  33.785   8.555
 5965POPC   D2A 8416  20.626  33.844   8.255
 5965POPC   C3A 8417  20.625  33.798   7.955
 5965POPC   C4A 8418  20.660  33.764   7.655
 5965POPC   C1B 8419  20.390  33.756   8.555
 5965POPC   C2B 8420  20.321  33.687   8.255
 5965POPC   C3B 8421  20.360  33.773   7.955
 5965POPC   C4B 8422  20.368  33.781   7.655
 5966POPC   NC3 8423  31.434  16.706   9.455
 5966POPC   PO4 8424  31.457  16.725   9.155
 5966POPC   GL1 8425  31.519  16.695   8.855
 5966POPC   GL2 8426  31.485  16.577   8.855
 5966POPC   C1A 8427  31.469  16.736   8.555
 5966POPC   D2A 8428  31.478  16.751   8.255
 5966POPC   C3A 8429  31.492  16.776   7.955
 5966POPC   C4A 8430  31.512  16.692   7.655
 5966POPC   C1B 8431  31.553  16.512   8.555
 5966POPC   C2B 8432  31.548  16.477   8.255
 5966POPC   C3B 8433  31.550  16.458   7.955
 5966POPC   C4B 8434  31.558  16.486   7.655
 5967POPC   NC3 8435  42.366  30.688   9.455
 5967POPC   PO4 8436  42.343  30.731   9.155
 5967POPC   GL1 8437  42.315  30.685   8.855
 5967POPC   GL2 8438  42.261  30.732   8.855
 5967POPC   C1A 8439  42.329  30.676   8.555
 5967POPC   D2A 8440  42.301  30.745   8.255
 5967POPC   C3A 8441  42.329  30.658   7.955
 5967POPC   C4A 8442  42.382  30.734   7.655
 5967POPC   C1B 8443  42.062  30.730   8.555
 5967POPC   C2B 8444  42.045  30.715   8.255
 5967POPC   C3B 8445  42.040  30.752   7.955
 5967POPC   C4B 8446  42.122  30.752   7.655
 5968POPC   NC3 8447  35.317  21.370   9.455
 5968POPC   PO4 8448  35.369  21.382   9.155
 5968POPC   GL1 8449  35.359  21.398   8.855
 5968POPC   GL2 8450  35.470  21.382   8.855
 5968POPC   C1A 8451  35.361  21.386   8.555
 5968POPC   D2A 8452  35.340  21.348   8.255
 5968POPC   C3A 8453  35.372  21.416   7.955
 5968POPC   C4A 8454  35.344  21.426   7.655
 5968POPC   C1B 8455  35.578  21.477   8.555
 5968POPC   C2B 8456  35.578  21.431   8.255
 5968POPC   C3B 8457  35.625  21.515   7.955
 5968POPC   C4B 8458  35.580  21.473   7.655
 5969POPC   NC3 8459  39.219  24.508   9.455
 5969POPC   PO4 8460  39.267  24.459   9.155
 5969POPC   GL1 8461  39.231  24.481   8.855
 5969POPC   GL2 8462  39.243  24.333   8.855
 5969POPC   C1A 8463  39.193  24.516   8.555
 5969POPC   D2A 8464  39.227  24.501   8.255
 5969POPC   C3A 8465  39.256  24.517   7.955
 5969POPC   C4A 8466  39.199  24.470   7.655
 5969POPC   C1B 8467  39.266  24.236   8.555
 5969POPC   C2B 8468  39.309  24.251   8.255
 5969POPC   C3B 8469  39.277  24.268   7.955
 5969POPC   C4B 8470  39.329  24.247   7.655
 5970POPC   NC3 8471  37.640  26.058   9.455
 5970POPC   PO4 8472  37.641  26.041   9.155
 5970POPC   GL1 8473  37.676  26.074   8.855
 5970POPC   GL2 8474  37.807  26.044   8.855
 5970POPC   C1A 8475  37.639  26.059   8.555
 5970POPC   D2A 8476  37.672  26.075   8.255
 5970POPC   C3A 8477  37.671  26.054   7.955
 5970POPC   C4A 8478  37.681  26.035   7.655
 5970POPC   C1B 8479  37.931  25.981   8.555
 5970POPC   C2B 8480  37.930  25.910   8.255
 5970POPC   C3B 8481  37.944  25.921   7.955
 5970POPC   C4B 8482  37.932  25.947   7.655
 5971POPC   NC3 8483  43.137  42.339   9.455
 5971POPC   PO4 8484  43.151  42.297   9.155
 5971POPC   GL1 8485  43.077  42.303   8.855
 5971POPC   GL2 8486  43.078  42.250   8.855
 5971POPC   C1A 8487  43.068  42.288   8.555
 5971POPC   D2A 8488  43.068  42.285   8.255
 5971POPC   C3A 8489  43.072  42.333   7.955
 5971POPC   C4A 8490  43.089  42.310   7.655
 5971POPC   C1B 8491  43.103  42.052   8.555
 5971POPC   C2B 8492  43.121  42.044   8.255
 5971POPC   C3B 8493  43.122  42.072   7.955
 5971POPC   C4B 8494  43.156  42.091   7.655
 5972POPC   NC3 8495   8.212  43.880   9.455
 5972POPC   PO4 8496   8.230  43.888   9.155
 5972POPC   GL1 8497   8.156  43.863   8.855
 5972POPC   GL2 8498   8.268  44.016   8.855
 5972POPC   C1A 8499   8.232  43.884   8.555
 5972POPC   D2A 8500   8.236  43.905   8.255
 5972POPC   C3A 8501   8.152  43.882   7.955
 5972POPC   C4A 8502   8.206  43.868   7.655
 5972POPC   C1B 8503   8.281  44.135   8.555
 5972POPC   C2B 8504   8.265  44.070   8.255
 5972POPC   C3B 8505   8.289  44.102   7.955
 5972POPC   C4B 8506   8.254  44.092   7.655
 5973POPC   NC3 8507  10.536  17.468   9.455
 5973POPC   PO4 8508  10.507  17.494   9.155
 5973POPC   GL1 8509  10.520  17.539   8.855
 5973POPC   GL2 8510  10.608  17.538   8.855
 5973POPC   C1A 8511  10.514  17.541   8.555
 5973POPC   D2A 8512  10.499  17.529   8.255
 5973POPC   C3A 8513  10.524  17.523   7.955
 5973POPC   C4A 8514  10.559  17.527   7.655
 5973POPC   C1B 8515  10.822  17.535   8.555
 5973POPC   C2B 8516  10.724  17.517   8.255
 5973POPC   C3B 8517  10.817  17.537   7.955
 5973POPC   C4B 8518  10.822  17.460   7.655
 5974POPC   NC3 8519  27.549  24.451   9.455
 5974POPC   PO4 8520  27.596  24.445   9.155
 5974POPC   GL1 8521  27.636  24.448   8.855
 5974POPC   GL2 8522  27.691  24.607   8.855
 5974POPC   C1A 8523  27.561  24.476   8.555
 5974POPC   D2A 8524  27.612  24.486   8.255
 5974POPC   C3A 8525  27.597  24.516   7.955
 5974POPC   C4A 8526  27.564  24.528   7.655
 5974POPC   C1B 8527  27.792  24.713   8.555
 5974POPC   C2B 8528  27.790  24.716   8.255
 5974POPC   C3B 8529  27.792  24.720   7.955
 5974POPC   C4B 8530  27.728  24.688   7.655
 5975POPC   NC3 8531  41.548   6.692   9.455
 5975POPC   PO4 8532  41.606   6.676   9.155
 5975POPC   GL1 8533  41.540   6.635   8.855
 5975POPC   GL2 8534  41.564   6.528   8.855
 5975POPC   C1A 8535  41.601   6.692   8.555
 5975POPC   D2A 8536  41.526   6.647   8.255
 5975POPC   C3A 8537  41.562   6.620   7.955
 5975POPC   C4A 8538  41.557   6.694   7.655
 5975POPC   C1B 8539  41.634   6.430   8.555
 5975POPC   C2B 8540  41.595   6.382   8.255
 5975POPC   C3B 8541  41.635   6.458   7.955
 5975POPC   C4B 8542  41.684   6.447   7.655
 5976POPC   NC3 8543  38.431  44.649   9.455
 5976POPC   PO4 8544  38.421  44.671   9.155
 5976POPC   GL1 8545  38.428  44.620   8.855
 5976POPC   GL2 8546  38.333  44.758   8.855
 5976POPC   C1A 8547  38.505  44.669   8.555
 5976POPC   D2A 8548  38.436  44.612   8.255
 5976POPC   C3A 8549  38.449  44.631   7.955
 5976POPC   C4A 8550  38.490  44.702   7.655
 5976POPC   C1B 8551  38.308  44.807   8.555
 5976POPC   C2B 8552  38.265  44.869   8.255
 5976POPC   C3B 8553  38.262  44.795   7.955
 5976POPC   C4B 8554  38.260  44.878   7.655
 5977POPC   NC3 8555  17.459  25.265   9.455
 5977POPC   PO4 8556  17.493  25.225   9.155
 5977POPC   GL1 8557  17.457  25.280   8.855
 5977POPC   GL2 8558  17.375  25.381   8.855
 5977POPC   C1A 8559  17.470  25.242   8.555
 5977POPC   D2A 8560  17.459  25.240   8.255
 5977POPC   C3A 8561  17.486  25.242   7.955
 5977POPC   C4A 8562  17.459  25.288   7.655
 5977POPC   C1B 8563  17.275  25.446   8.555
 5977POPC   C2B 8564  17.337  25.382   8.255
 5977POPC   C3B 8565  17.316  25.378   7.955
 5977POPC   C4B 8566  17.314  25.386   7.655
 5978POPC   NC3 8567  34.610  25.263   9.455
 5978POPC   PO4 8568  34.625  25.292   9.155
 5978POPC   GL1 8569  34.598  25.313   8.855
 5978POPC   GL2 8570  34.564  25.166   8.855
 5978POPC   C1A 8571  34.526  25.226   8.555
 5978POPC   D2A 8572  34.552  25.255   8.255
 5978POPC   C3A 8573  34.548  25.259   7.955
 5978POPC   C4A 8574  34.539  25.273   7.655
 5978POPC   C1B 8575  34.497  25.060   8.555
 5978POPC   C2B 8576  34.511  25.006   8.255
 5978POPC   C3B 8577  34.500  25.010   7.955
 5978POPC   C4B 8578  34.500  25.002   7.655
 5979POPC   NC3 8579  26.054  31.519   9.455
 5979POPC   PO4 8580  26.059  31.493   9.155
 5979POPC   GL1 8581  26.024  31.438   8.855
 5979POPC   GL2 8582  26.101  31.586   8.855
 5979POPC   C1A 8583  26.082  31.464   8.555
 5979POPC   D2A 8584  26.012  31.437   8.255
 5979POPC   C3A 8585  26.053  31.432   7.955
 5979POPC   C4A 8586  26.040  31.465   7.655
 5979POPC   C1B 8587  26.199  31.641   8.555
 5979POPC   C2B 8588  26.187  31.715   8.255
 5979POPC   C3B 8589  26.181  31.697   7.955
 5979POPC   C4B 8590  26.167  31.689   7.655
 5980POPC   NC3 8591   1.941   9.720   9.455
 5980POPC   PO4 8592   1.980   9.708   9.155
 5980POPC   GL1 8593   1.949   9.777   8.855
 5980POPC   GL2 8594   1.904   9.818   8.855
 5980POPC   C1A 8595   1.980   9.771   8.555
 5980POPC   D2A 8596   1.962   9.701   8.255
 5980POPC   C3A 8597   1.962   9.771   7.955
 5980POPC   C4A 8598   1.968   9.729   7.655
 5980POPC   C1B 8599   1.847   9.906   8.555
 5980POPC   C2B 8600   1.828   9.986   8.255
 5980POPC   C3B 8601   1.798   9.894   7.955
 5980POPC   C4B 8602   1.795   9.983   7.655
 5981POPC   NC3 8603  35.333  27.562   9.455
 5981POPC   PO4 8604  35.354  27.547   9.155
 5981POPC   GL1 8605  35.378  27.641   8.855
 5981POPC   GL2 8606  35.461  27.698   8.855
 5981POPC   C1A 8607  35.399  27.578   8.555
 5981POPC   D2A 8608  35.343  27.566   8.255
 5981POPC   C3A 8609  35.338  27.642   7.955
 5981POPC   C4A 8610  35.317  27.568   7.655
 5981POPC   C1B 8611  35.488  27.838   8.555
 5981POPC   C2B 8612  35.476  27.831   8.255
 5981POPC   C3B 8613  35.451  27.824   7.955
 5981POPC   C4B 8614  35.499  27.793   7.655
 5982POPC   NC3 8615  36.888  44.662   9.455
 5982POPC   PO4 8616  36.872  44.658   9.155
 5982POPC   GL1 8617  36.941  44.704   8.855
 5982POPC   GL2 8618  36.837  44.760   8.855
 5982POPC   C1A 8619  36.862  44.700   8.555
 5982POPC   D2A 8620  36.936  44.638   8.255
 5982POPC   C3A 8621  36.932  44.618   7.955
 5982POPC   C4A 8622  36.878  44.654   7.655
 5982POPC   C1B 8623  36.730  44.780   8.555
 5982POPC   C2B 8624  36.671  44.850   8.255
 5982POPC   C3B 8625  36.682  44.841   7.955
 5982POPC   C4B 8626  36.665  44.868   7.655
 5983POPC   NC3 8627   7.460  38.469   9.455
 5983POPC   PO4 8628   7.384  38.501   9.155
 5983POPC   GL1 8629   7.450  38.475   8.855
 5983POPC   GL2 8630   7.365  38.619   8.855
 5983POPC   C1A 8631   7.448  38.483   8.555
 5983POPC   D2A 8632   7.376  38.453   8.255
 5983POPC   C3A 8633   7.418  38.439   7.955
 5983POPC   C4A 8634   7.466  38.406   7.655
 5983POPC   C1B 8635   7.369  38.693   8.555
 5983POPC   C2B 8636   7.406  38.714   8.255
 5983POPC   C3B 8637   7.360  38.686   7.955
 5983POPC   C4B 8638   7.342  38.698   7.655
 5984POPC   NC3 8639   0.429  29.902   9.455
 5984POPC   PO4 8640   0.417  29.964   9.155
 5984POPC   GL1 8641   0.486  29.902   8.855
 5984POPC   GL2 8642   0.482  29.850   8.855
 5984POPC   C1A 8643   0.457  29.881   8.555
 5984POPC   D2A 8644   0.420  29.965   8.255
 5984POPC   C3A 8645   0.454  29.886   7.955
 5984POPC   C4A 8646   0.450  29.947   7.655
 5984POPC   C1B 8647   0.597  29.776   8.555
 5984POPC   C2B 8648   0.629  29.767   8.255
 5984POPC   C3B 8649   0.624  29.688   7.955
 5984POPC   C4B 8650   0.579  29.696   7.655
 5985POPC   NC3 8651  11.303  25.281   9.455
 5985POPC   PO4 8652  11.303  25.286   9.155
 5985POPC   GL1 8653  11.266  25.255   8.855
 5985POPC   GL2 8654  11.349  25.378   8.855
 5985POPC   C1A 8655  11.263  25.298   8.555
 5985POPC   D2A 8656  11.258  25.245   8.255
 5985POPC   C3A 8657  11.304  25.288   7.955
 5985POPC   C4A 8658  11.250  25.216   7.655
 5985POPC   C1B 8659  11.410  25.510   8.555
 5985POPC   C2B 8660  11.370  25.483   8.255
 5985POPC   C3B 8661  11.400  25.467   7.955
 5985POPC   C4B 8662  11.390  25.474   7.655
 5986POPC   NC3 8663   7.372  37.634   9.455
 5986POPC   PO4 8664   7.421  37.699   9.155
 5986POPC   GL1 8665   7.377  37.724   8.855
 5986POPC   GL2 8666   7.317  37.600   8.855
 5986POPC   C1A 8667   7.422  37.643   8.555
 5986POPC   D2A 8668   7.404  37.670   8.255
 5986POPC   C3A 8669   7.457  37.691   7.955
 5986POPC   C4A 8670   7.446  37.644   7.655
 5986POPC   C1B 8671   7.289  37.425   8.555
 5986POPC   C2B 8672   7.270  37.502   8.255
 5986POPC   C3B 8673   7.313  37.508   7.955
 5986POPC   C4B 8674   7.300  37.489   7.655
 5987POPC   NC3 8675  31.501  17.474   9.455
 5987POPC   PO4 8676  31.452  17.531   9.155
 5987POPC   GL1 8677  31.498  17.470   8.855
 5987POPC   GL2 8678  31.309  17.501   8.855
 5987POPC   C1A 8679  31.438  17.522   8.555
 5987POPC   D2A 8680  31.516  17.492   8.255
 5987POPC   C3A 8681  31.448  17.542   7.955
 5987POPC   C4A 8682  31.446  17.542   7.655
 5987POPC   C1B 8683  31.256  17.605   8.555
 5987POPC   C2B 8684  31.276  17.631   8.255
 5987POPC   C3B 8685  31.212  17.577   7.955
 5987POPC   C4B 8686  31.213  17.621   7.655
 5988POPC   NC3 8687  29.969   7.462   9.455
 5988POPC   PO4 8688  29.871   7.402   9.155
 5988POPC   GL1 8689  29.956   7.451   8.855
 5988POPC   GL2 8690  29.873   7.314   8.855
 5988POPC   C1A 8691  29.890   7.397   8.555
 5988POPC   D2A 8692  29.897   7.442   8.255
 5988POPC   C3A 8693  29.896   7.412   7.955
 5988POPC   C4A 8694  29.881   7.398   7.655
 5988POPC   C1B 8695  29.781   7.231   8.555
 5988POPC   C2B 8696  29.846   7.205   8.255
 5988POPC   C3B 8697  29.807   7.223   7.955
 5988POPC   C4B 8698  29.783   7.223   7.655
 5989POPC   NC3 8699   5.050  27.608   9.455
 5989POPC   PO4 8700   5.093  27.571   9.155
 5989POPC   GL1 8701   5.126  27.631   8.855
 5989POPC   GL2 8702   5.214  27.652   8.855
 5989POPC   C1A 8703   5.103  27.588   8.555
 5989POPC   D2A 8704   5.142  27.639   8.255
 5989POPC   C3A 8705   5.072  27.632   7.955
 5989POPC   C4A 8706   5.098  27.628   7.655
 5989POPC   C1B 8707   5.384  27.645   8.555
 5989POPC   C2B 8708   5.296  27.606   8.255
 5989POPC   C3B 8709   5.346  27.632   7.955
 5989POPC   C4B 8710   5.306  27.605   7.655
 5990POPC   NC3 8711  22.933   2.023   9.455
 5990POPC   PO4 8712  22.961   1.940   9.155
 5990POPC   GL1 8713  22.984   1.978   8.855
 5990POPC   GL2 8714  23.028   1.931   8.855
 5990POPC   C1A 8715  22.987   1.991   8.555
 5990POPC   D2A 8716  22.925   2.032   8.255
 5990POPC   C3A 8717  22.895   1.971   7.955
 5990POPC   C4A 8718  22.897   2.013   7.655
 5990POPC   C1B 8719  23.097   1.821   8.555
 5990POPC   C2B 8720  23.117   1.740   8.255
 5990POPC   C3B 8721  23.120   1.809   7.955
 5990POPC   C4B 8722  23.114   1.804   7.655
 5991POPC   NC3 8723  44.638  42.297   9.455
 5991POPC   PO4 8724  44.625  42.384   9.155
 5991POPC   GL1 8725  44.696  42.358   8.855
 5991POPC   GL2 8726  44.577  42.286   8.855
 5991POPC   C1A 8727  44.661  42.338   8.555
 5991POPC   D2A 8728  44.654  42.355   8.255
 5991POPC   C3A 8729  44.682  42.369   7.955
 5991POPC   C4A 8730  44.658  42.286   7.655
 5991POPC   C1B 8731  44.411  42.279   8.555
 5991POPC   C2B 8732  44.426  42.328   8.255
 5991POPC   C3B 8733  44.430  42.311   7.955
 5991POPC   C4B 8734  44.419  42.308   7.655
 5992POPC   NC3 8735  26.783  32.276   9.455
 5992POPC   PO4 8736  26.818  32.281   9.155
 5992POPC   GL1 8737  26.853  32.234   8.855
 5992POPC   GL2 8738  26.938  32.391   8.855
 5992POPC   C1A 8739  26.797  32.217   8.555
 5992POPC   D2A 8740  26.789  32.241   8.255
 5992POPC   C3A 8741  26.863  32.202   7.955
 5992POPC   C4A 8742  26.826  32.202   7.655
 5992POPC   C1B 8743  26.997  32.435   8.555
 5992POPC   C2B 8744  26.961  32.474   8.255
 5992POPC   C3B 8745  26.997  32.481   7.955
 5992POPC   C4B 8746  26.963  32.413   7.655
 5993POPC   NC3 8747  21.384  43.120   9.455
 5993POPC   PO4 8748  21.374  43.103   9.155
 5993POPC   GL1 8749  21.413  43.086   8.855
 5993POPC   GL2 8750  21.488  43.254   8.855
 5993POPC   C1A 8751  21.354  43.115   8.555
 5993POPC   D2A 8752  21.426  43.098   8.255
 5993POPC   C3A 8753  21.398  43.087   7.955
 5993POPC   C4A 8754  21.435  43.086   7.655
 5993POPC   C1B 8755  21.527  43.347   8.555
 5993POPC   C2B 8756  21.520  43.291   8.255
 5993POPC   C3B 8757  21.578  43.257   7.955
 5993POPC   C4B 8758  21.567  43.322   7.655
 5994POPC   NC3 8759  43.099  37.717   9.455
 5994POPC   PO4 8760  43.091  37.702   9.155
 5994POPC   GL1 8761  43.153  37.653   8.855
 5994POPC   GL2 8762  43.034  37.735   8.855
 5994POPC   C1A 8763  43.143  37.668   8.555
 5994POPC   D2A 8764  43.130  37.641   8.255
 5994POPC   C3A 8765  43.155  37.722   7.955
 5994POPC   C4A 8766  43.114  37.641   7.655
 5994POPC   C1B 8767  43.001  37.894   8.555
 5994POPC   C2B 8768  42.920  37.877   8.255
 5994POPC   C3B 8769  42.935  37.888   7.955
 5994POPC   C4B 8770  42.937  37.870   7.655
 5995POPC   NC3 8771   9.772  39.204   9.455
 5995POPC   PO4 8772   9.728  39.267   9.155
 5995POPC   GL1 8773   9.750  39.256   8.855
 5995POPC   GL2 8774   9.860  39.282   8.855
 5995POPC   C1A 8775   9.700  39.232   8.555
 5995POPC   D2A 8776   9.732  39.205   8.255
 5995POPC   C3A 8777   9.775  39.231   7.955
 5995POPC   C4A 8778   9.705  39.280   7.655
 5995POPC   C1B 8779   9.953  39.348   8.555
 5995POPC   C2B 8780   9.928  39.329   8.255
 5995POPC   C3B 8781   9.924  39.394   7.955
 5995POPC   C4B 8782   9.992  39.351   7.655
 5996POPC   NC3 8783  26.866  26.796   9.455
 5996POPC   PO4 8784  26.798  26.846   9.155
 5996POPC   GL1 8785  26.861  26.861   8.855
 5996POPC   GL2 8786  26.845  26.979   8.855
 5996POPC   C1A 8787  26.802  26.810   8.555
 5996POPC   D2A 8788  26.767  26.794   8.255
 5996POPC   C3A 8789  26.865  26.785   7.955
 5996POPC   C4A 8790  26.851  26.769   7.655
 5996POPC   C1B 8791  26.871  27.010   8.555
 5996POPC   C2B 8792  26.853  27.076   8.255
 5996POPC   C3B 8793  26.851  27.042   7.955
 5996POPC   C4B 8794  26.899  27.031   7.655
 5997POPC   NC3 8795  37.661  27.642   9.455
 5997POPC   PO4 8796  37.707  27.567   9.155
 5997POPC   GL1 8797  37.630  27.577   8.855
 5997POPC   GL2 8798  37.754  27.707   8.855
 5997POPC   C1A 8799  37.676  27.618   8.555
 5997POPC   D2A 8800  37.669  27.612   8.255
 5997POPC   C3A 8801  37.640  27.616   7.955
 5997POPC   C4A 8802  37.654  27.568   7.655
 5997POPC   C1B 8803  37.743  27.821   8.555
 5997POPC   C2B 8804  37.751  27.834   8.255
 5997POPC   C3B 8805  37.825  27.816   7.955
 5997POPC   C4B 8806  37.814  27.866   7.655
 5998POPC   NC3 8807  42.313  10.493   9.455
 5998POPC   PO4 8808  42.358  10.539   9.155
 5998POPC   GL1 8809  42.362  10.478   8.855
 5998POPC   GL2 8810  42.402  10.452   8.855
 5998POPC   C1A 8811  42.343  10.477   8.555
 5998POPC   D2A 8812  42.363  10.487   8.255
 5998POPC   C3A 8813  42.332  10.509   7.955
 5998POPC   C4A 8814  42.287  10.531   7.655
 5998POPC   C1B 8815  42.492  10.370   8.555
 5998POPC   C2B 8816  42.492  10.419   8.255
 5998POPC   C3B 8817  42.562  10.415   7.955
 5998POPC   C4B 8818  42.555  10.362   7.655
 5999POPC   NC3 8819  10.562  36.143   9.455
 5999POPC   PO4 8820  10.510  36.161   9.155
 5999POPC   GL1 8821  10.559  36.120   8.855
 5999POPC   GL2 8822  10.579  35.972   8.855
 5999POPC   C1A 8823  10.547  36.135   8.555
 5999POPC   D2A 8824  10.491  36.105   8.255
 5999POPC   C3A 8825  10.504  36.141   7.955
 5999POPC   C4A 8826  10.511  36.115   7.655
 5999POPC   C1B 8827  10.543  35.879   8.555
 5999POPC   C2B 8828  10.547  35.842   8.255
 5999POPC   C3B 8829  10.609  35.927   7.955
 5999POPC   C4B 8830  10.549  35.936   7.655
 6000POPC   NC3 8831  21.342   1.184   9.455
 6000POPC   PO4 8832  21.393   1.175   9.155
 6000POPC   GL1 8833  21.388   1.260   8.855
 6000POPC   GL2 8834  21.405   1.321   8.855
 6000POPC   C1A 8835  21.385   1.190   8.555
 6000POPC   D2A 8836  21.370   1.209   8.255
 6000POPC   C3A 8837  21.404   1.263   7.955
 6000POPC   C4A 8838  21.385   1.234   7.655
 6000POPC   C1B 8839  21.452   1.502   8.555
 6000POPC   C2B 8840  21.394   1.484   8.255
 6000POPC   C3B 8841  21.455   1.428   7.955
 6000POPC   C4B 8842  21.409   1.469   7.655
 6001POPC   NC3 8843  34.573   1.242   9.455
 6001POPC   PO4 8844  34.600   1.192   9.155
 6001POPC   GL1 8845  34.560   1.211   8.855
 6001POPC   GL2 8846  34.732   1.228   8.855
 6001POPC   C1A 8847  34.538   1.166   8.555
 6001POPC   D2A 8848  34.578   1.193   8.255
 6001POPC   C3A 8849  34.529   1.210   7.955
 6001POPC   C4A 8850  34.626   1.237   7.655
 6001POPC   C1B 8851  34.763   1.331   8.555
 6001POPC   C2B 8852  34.789   1.281   8.255
 6001POPC   C3B 8853  34.825   1.320   7.955
 6001POPC   C4B 8854  34.775   1.370   7.655
 6002POPC   NC3 8855  31.446  18.280   9.455
 6002POPC   PO4 8856  31.427  18.245   9.155
 6002POPC   GL1 8857  31.449  18.233   8.855
 6002POPC   GL2 8858  31.366  18.293   8.855
 6002POPC   C1A 8859  31.436  18.234   8.555
 6002POPC   D2A 8860  31.456  18.279   8.255
 6002POPC   C3A 8861  31.482  18.282   7.955
 6002POPC   C4A 8862  31.496  18.236   7.655
 6002POPC   C1B 8863  31.222  18.380   8.555
 6002POPC   C2B 8864  31.262  18.358   8.255
 6002POPC   C3B 8865  31.293  18.441   7.955
 6002POPC   C4B 8866  31.212  18.352   7.655
 6003POPC   NC3 8867   4.363   4.306   9.455
 6003POPC   PO4 8868   4.299   4.280   9.155
 6003POPC   GL1 8869   4.294   4.304   8.855
 6003POPC   GL2 8870   4.396   4.245   8.855
 6003POPC   C1A 8871   4.351   4.352   8.555
 6003POPC   D2A 8872   4.326   4.364   8.255
 6003POPC   C3A 8873   4.350   4.308   7.955
 6003POPC   C4A 8874   4.308   4.322   7.655
 6003POPC   C1B 8875   4.416   4.065   8.555
 6003POPC   C2B 8876   4.510   4.087   8.255
 6003POPC   C3B 8877   4.475   4.107   7.955
 6003POPC   C4B 8878   4.429   4.070   7.655
 6004POPC   NC3 8879   0.455   5.868   9.455
 6004POPC   PO4 8880   0.478   5.899   9.155
 6004POPC   GL1 8881   0.405   5.824   8.855
 6004POPC   GL2 8882   0.520   5.950   8.855
 6004POPC   C1A 8883   0.392   5.847   8.555
 6004POPC   D2A 8884   0.393   5.830   8.255
 6004POPC   C3A 8885   0.397   5.824   7.955
 6004POPC   C4A 8886   0.409   5.869   7.655
 6004POPC   C1B 8887   0.548   6.125   8.555
 6004POPC   C2B 8888   0.505   6.111   8.255
 6004POPC   C3B 8889   0.531   6.061   7.955
 6004POPC   C4B 8890   0.576   6.127   7.655
 6005POPC   NC3 8891  19.091   9.729   9.455
 6005POPC   PO4 8892  19.061   9.789   9.155
 6005POPC   GL1 8893  19.098   9.724   8.855
 6005POPC   GL2 8894  18.990   9.673   8.855
 6005POPC   C1A 8895  19.108   9.747   8.555
 6005POPC   D2A 8896  19.062   9.705   8.255
 6005POPC   C3A 8897  19.069   9.770   7.955
 6005POPC   C4A 8898  19.020   9.722   7.655
 6005POPC   C1B 8899  18.846   9.530   8.555
 6005POPC   C2B 8900  18.915   9.561   8.255
 6005POPC   C3B 8901  18.848   9.626   7.955
 6005POPC   C4B 8902  18.877   9.603   7.655
 6006POPC   NC3 8903  26.801   4.318   9.455
 6006POPC   PO4 8904  26.839   4.288   9.155
 6006POPC   GL1 8905  26.834   4.273   8.855
 6006POPC   GL2 8906  26.887   4.174   8.855
 6006POPC   C1A 8907  26.835   4.324   8.555
 6006POPC   D2A 8908  26.810   4.344   8.255
 6006POPC   C3A 8909  26.859   4.277   7.955
 6006POPC   C4A 8910  26.792   4.299   7.655
 6006POPC   C1B 8911  26.977   4.083   8.555
 6006POPC   C2B 8912  26.941   4.071   8.255
 6006POPC   C3B 8913  26.990   4.126   7.955
 6006POPC   C4B 8914  27.017   4.098   7.655
 6007POPC   NC3 8915  40.054  22.138   9.455
 6007POPC   PO4 8916  40.033  22.162   9.155
 6007POPC   GL1 8917  40.025  22.184   8.855
 6007POPC   GL2 8918  39.874  22.218   8.855
 6007POPC   C1A 8919  40.003  22.126   8.555
 6007POPC   D2A 8920  39.995  22.117   8.255
 6007POPC   C3A 8921  40.056  22.123   7.955
 6007POPC   C4A 8922  39.987  22.164   7.655
 6007POPC   C1B 8923  39.794  22.361   8.555
 6007POPC   C2B 8924  39.768  22.306   8.255
 6007POPC   C3B 8925  39.848  22.280   7.955
 6007POPC   C4B 8926  39.859  22.373   7.655
 6008POPC   NC3 8927  16.737  37.680   9.455
 6008POPC   PO4 8928  16.698  37.712   9.155
 6008POPC   GL1 8929  16.713  37.643   8.855
 6008POPC   GL2 8930  16.643  37.813   8.855
 6008POPC   C1A 8931  16.693  37.721   8.555
 6008POPC   D2A 8932  16.717  37.629   8.255
 6008POPC   C3A 8933  16.727  37.631   7.955
 6008POPC   C4A 8934  16.713  37.661   7.655
 6008POPC   C1B 8935  16.570  37.863   8.555
 6008POPC   C2B 8936  16.566  37.846   8.255
 6008POPC   C3B 8937  16.627  37.845   7.955
 6008POPC   C4B 8938  16.616  37.894   7.655
 6009POPC   NC3 8939  39.249   6.672   9.455
 6009POPC   PO4 8940  39.221   6.691   9.155
 6009POPC   GL1 8941  39.219   6.677   8.855
 6009POPC   GL2 8942  39.153   6.631   8.855
 6009POPC   C1A 8943  39.192   6.625   8.555
 6009POPC   D2A 8944  39.202   6.626   8.255
 6009POPC   C3A 8945  39.218   6.641   7.955
 6009POPC   C4A 8946  39.235   6.601   7.655
 6009POPC   C1B 8947  39.021   6.576   8.555
 6009POPC   C2B 8948  38.983   6.515   8.255
 6009POPC   C3B 8949  38.987   6.501   7.955
 6009POPC   C4B 8950  39.036   6.575   7.655
 6010POPC   NC3 8951  12.881   8.221   9.455
 6010POPC   PO4 8952  12.876   8.241   9.155
 6010POPC   GL1 8953  12.895   8.175   8.855
 6010POPC   GL2 8954  12.906   8.260   8.855
 6010POPC   C1A 8955  12.874   8.173   8.555
 6010POPC   D2A 8956  12.864   8.211   8.255
 6010POPC   C3A 8957  12.868   8.190   7.955
 6010POPC   C4A 8958  12.894   8.203   7.655
 6010POPC   C1B 8959  13.050   8.414   8.555
 6010POPC   C2B 8960  12.976   8.385   8.255
 6010POPC   C3B 8961  13.027   8.416   7.955
 6010POPC   C4B 8962  12.982   8.410   7.655
 6011POPC   NC3 8963  39.192  28.413   9.455
 6011POPC   PO4 8964  39.232  28.353   9.155
 6011POPC   GL1 8965  39.254  28.383   8.855
 6011POPC   GL2 8966  39.281  28.243   8.855
 6011POPC   C1A 8967  39.189  28.399   8.555
 6011POPC   D2A 8968  39.216  28.375   8.255
 6011POPC   C3A 8969  39.214  28.394   7.955
 6011POPC   C4A 8970  39.217  28.408   7.655
 6011POPC   C1B 8971  39.272  28.138   8.555
 6011POPC   C2B 8972  39.277  28.082   8.255
 6011POPC   C3B 8973  39.227  28.103   7.955
 6011POPC   C4B 8974  39.205  28.072   7.655
 6012POPC   NC3 8975  36.177  20.614   9.455
 6012POPC   PO4 8976  36.174  20.603   9.155
 6012POPC   GL1 8977  36.100  20.657   8.855
 6012POPC   GL2 8978  36.043  20.518   8.855
 6012POPC   C1A 8979  36.094  20.569   8.555
 6012POPC   D2A 8980  36.145  20.589   8.255
 6012POPC   C3A 8981  36.149  20.618   7.955
 6012POPC   C4A 8982  36.134  20.609   7.655
 6012POPC   C1B 8983  35.931  20.480   8.555
 6012POPC   C2B 8984  35.976  20.497   8.255
 6012POPC   C3B 8985  35.935  20.460   7.955
 6012POPC   C4B 8986  35.885  20.489   7.655
 6013POPC   NC3 8987   3.511   4.362   9.455
 6013POPC   PO4 8988   3.514   4.358   9.155
 6013POPC   GL1 8989   3.526   4.359   8.855
 6013POPC   GL2 8990   3.576   4.241   8.855
 6013POPC   C1A 8991   3.506   4.309   8.555
 6013POPC   D2A 8992   3.552   4.290   8.255
 6013POPC   C3A 8993   3.545   4.366   7.955
 6013POPC   C4A 8994   3.588   4.282   7.655
 6013POPC   C1B 8995   3.531   4.098   8.555
 6013POPC   C2B 8996   3.600   4.024   8.255
 6013POPC   C3B 8997   3.612   4.101   7.955
 6013POPC   C4B 8998   3.540   4.107   7.655
 6014POPC   NC3 8999  32.266   2.021   9.455
 6014POPC   PO4 9000  32.280   1.994   9.155
 6014POPC   GL1 9001  32.228   1.982   8.855
 6014POPC   GL2 9002  32.158   2.142   8.855
 6014POPC   C1A 9003  32.206   2.013   8.555
 6014POPC   D2A 9004  32.228   1.947   8.255
 6014POPC   C3A 9005  32.208   2.027   7.955
 6014POPC   C4A 9006  32.201   1.981   7.655
 6014POPC   C1B 9007  32.167   2.188   8.555
 6014POPC   C2B 9008  32.156   2.197   8.255
 6014POPC   C3B 9009  32.104   2.169   7.955
 6014POPC   C4B 9010  32.172   2.229   7.655
 6015POPC   NC3 9011  12.827  21.357   9.455
 6015POPC   PO4 9012  12.900  21.391   9.155
 6015POPC   GL1 9013  12.805  21.365   8.855
 6015POPC   GL2 9014  12.802  21.508   8.855
 6015POPC   C1A 9015  12.869  21.336   8.555
 6015POPC   D2A 9016  12.893  21.347   8.255
 6015POPC   C3A 9017  12.891  21.360   7.955
 6015POPC   C4A 9018  12.820  21.366   7.655
 6015POPC   C1B 9019  12.720  21.634   8.555
 6015POPC   C2B 9020  12.788  21.660   8.255
 6015POPC   C3B 9021  12.729  21.640   7.955
 6015POPC   C4B 9022  12.770  21.655   7.655
 6016POPC   NC3 9023   8.941  38.488   9.455
 6016POPC   PO4 9024   8.948  38.486   9.155
 6016POPC   GL1 9025   8.967  38.470   8.855
 6016POPC   GL2 9026   9.131  38.424   8.855
 6016POPC   C1A 9027   8.953  38.433   8.555
 6016POPC   D2A 9028   9.015  38.488   8.255
 6016POPC   C3A 9029   8.949  38.436   7.955
 6016POPC   C4A 9030   9.004  38.505   7.655
 6016POPC   C1B 9031   9.201  38.318   8.555
 6016POPC   C2B 9032   9.172  38.365   8.255
 6016POPC   C3B 9033   9.189  38.339   7.955
 6016POPC   C4B 9034   9.234  38.366   7.655
 6017POPC   NC3 9035  10.478  19.087   9.455
 6017POPC   PO4 9036  10.543  19.104   9.155
 6017POPC   GL1 9037  10.484  19.022   8.855
 6017POPC   GL2 9038  10.564  18.907   8.855
 6017POPC   C1A 9039  10.509  19.063   8.555
 6017POPC   D2A 9040  10.512  19.027   8.255
 6017POPC   C3A 9041  10.500  19.047   7.955
 6017POPC   C4A 9042  10.488  19.068   7.655
 6017POPC   C1B 9043  10.582  18.794   8.555
 6017POPC   C2B 9044  10.591  18.830   8.255
 6017POPC   C3B 9045  10.561  18.778   7.955
 6017POPC   C4B 9046  10.528  18.826   7.655
 6018POPC   NC3 9047   7.371   5.089   9.455
 6018POPC   PO4 9048   7.451   5.071   9.155
 6018POPC   GL1 9049   7.372   5.126   8.855
 6018POPC   GL2 9050   7.491   5.058   8.855
 6018POPC   C1A 9051   7.421   5.134   8.555
 6018POPC   D2A 9052   7.455   5.138   8.255
 6018POPC   C3A 9053   7.435   5.057   7.955
 6018POPC   C4A 9054   7.392   5.074   7.655
 6018POPC   C1B 9055   7.639   4.898   8.555
 6018POPC   C2B 9056   7.632   4.917   8.255
 6018POPC   C3B 9057   7.639   4.953   7.955
 6018POPC   C4B 9058   7.592   4.963   7.655
 6019POPC   NC3 9059  34.605  21.395   9.455
 6019POPC   PO4 9060  34.608  21.353   9.155
 6019POPC   GL1 9061  34.539  21.340   8.855
 6019POPC   GL2 9062  34.606  21.234   8.855
 6019POPC   C1A 9063  34.573  21.340   8.555
 6019POPC   D2A 9064  34.578  21.426   8.255
 6019POPC   C3A 9065  34.616  21.372   7.955
 6019POPC   C4A 9066  34.545  21.387   7.655
 6019POPC   C1B 9067  34.582  21.120   8.555
 6019POPC   C2B 9068  34.588  21.087   8.255
 6019POPC   C3B 9069  34.629  21.101   7.955
 6019POPC   C4B 9070  34.632  21.108   7.655
 6020POPC   NC3 9071  29.155  20.576   9.455
 6020POPC   PO4 9072  29.164  20.596   9.155
 6020POPC   GL1 9073  29.133  20.649   8.855
 6020POPC   GL2 9074  29.284  20.606   8.855
 6020POPC   C1A 9075  29.143  20.582   8.555
 6020POPC   D2A 9076  29.103  20.590   8.255
 6020POPC   C3A 9077  29.163  20.581   7.955
 6020POPC   C4A 9078  29.163  20.589   7.655
 6020POPC   C1B 9079  29.403  20.507   8.555
 6020POPC   C2B 9080  29.360  20.517   8.255
 6020POPC   C3B 9081  29.358  20.566   7.955
 6020POPC   C4B 9082  29.347  20.530   7.655
 6021POPC   NC3 9083  31.460  44.630   9.455
 6021POPC   PO4 9084  31.502  44.680   9.155
 6021POPC   GL1 9085  31.465  44.672   8.855
 6021POPC   GL2 9086  31.372  44.766   8.855
 6021POPC   C1A 9087  31.458  44.670   8.555
 6021POPC   D2A 9088  31.520  44.635   8.255
 6021POPC   C3A 9089  31.520  44.671   7.955
 6021POPC   C4A 9090  31.439  44.638   7.655
 6021POPC   C1B 9091  31.371  44.831   8.555
 6021POPC   C2B 9092  31.334  44.853   8.255
 6021POPC   C3B 9093  31.375  44.901   7.955
 6021POPC   C4B 9094  31.343  44.904   7.655
 6022POPC   NC3 9095   0.474   6.655   9.455
 6022POPC   PO4 9096   0.429   6.644   9.155
 6022POPC   GL1 9097   0.406   6.668   8.855
 6022POPC   GL2 9098   0.540   6.547   8.855
 6022POPC   C1A 9099   0.485   6.617   8.555
 6022POPC   D2A 9100   0.393   6.640   8.255
 6022POPC   C3A 9101   0.453   6.631   7.955
 6022POPC   C4A 9102   0.403   6.599   7.655
 6022POPC   C1B 9103   0.706   6.512   8.555
 6022POPC   C2B 9104   0.654   6.576   8.255
 6022POPC   C3B 9105   0.681   6.557   7.955
 6022POPC   C4B 9106   0.650   6.572   7.655
 6023POPC   NC3 9107  18.237   5.914   9.455
 6023POPC   PO4 9108  18.313   5.841   9.155
 6023POPC   GL1 9109  18.253   5.866   8.855
 6023POPC   GL2 9110  18.324   5.745   8.855
 6023POPC   C1A 9111  18.328   5.878   8.555
 6023POPC   D2A 9112  18.246   5.909   8.255
 6023POPC   C3A 9113  18.256   5.857   7.955
 6023POPC   C4A 9114  18.258   5.895   7.655
 6023POPC   C1B 9115  18.325   5.651   8.555
 6023POPC   C2B 9116  18.363   5.596   8.255
 6023POPC   C3B 9117  18.309   5.580   7.955
 6023POPC   C4B 9118  18.361   5.599   7.655
 6024POPC   NC3 9119   5.827  37.692   9.455
 6024POPC   PO4 9120   5.876  37.656   9.155
 6024POPC   GL1 9121   5.898  37.701   8.855
 6024POPC   GL2 9122   5.816  37.783   8.855
 6024POPC   C1A 9123   5.849  37.689   8.555
 6024POPC   D2A 9124   5.821  37.720   8.255
 6024POPC   C3A 9125   5.846  37.642   7.955
 6024POPC   C4A 9126   5.892  37.709   7.655
 6024POPC   C1B 9127   5.717  37.840   8.555
 6024POPC   C2B 9128   5.658  37.862   8.255
 6024POPC   C3B 9129   5.705  37.858   7.955
 6024POPC   C4B 9130   5.682  37.829   7.655
 6025POPC   NC3 9131   1.999  14.390   9.455
 6025POPC   PO4 9132   1.948  14.379   9.155
 6025POPC   GL1 9133   2.030  14.362   8.855
 6025POPC   GL2 9134   1.917  14.496   8.855
 6025POPC   C1A 9135   1.987  14.354   8.555
 6025POPC   D2A 9136   2.015  14.385   8.255
 6025POPC   C3A 9137   1.999  14.421   7.955
 6025POPC   C4A 9138   1.973  14.379   7.655
 6025POPC   C1B 9139   1.972  14.686   8.555
 6025POPC   C2B 9140   1.916  14.653   8.255
 6025POPC   C3B 9141   1.977  14.681   7.955
 6025POPC   C4B 9142   1.925  14.641   7.655
 6026POPC   NC3 9143  42.380   8.931   9.455
 6026POPC   PO4 9144  42.338   9.017   9.155
 6026POPC   GL1 9145  42.375   9.016   8.855
 6026POPC   GL2 9146  42.253   9.041   8.855
 6026POPC   C1A 9147  42.319   8.926   8.555
 6026POPC   D2A 9148  42.303   8.941   8.255
 6026POPC   C3A 9149  42.340   8.992   7.955
 6026POPC   C4A 9150  42.357   8.932   7.655
 6026POPC   C1B 9151  42.284   9.230   8.555
 6026POPC   C2B 9152  42.262   9.196   8.255
 6026POPC   C3B 9153  42.283   9.216   7.955
 6026POPC   C4B 9154  42.219   9.248   7.655
 6027POPC   NC3 9155   5.096  32.980   9.455
 6027POPC   PO4 9156   5.058  33.036   9.155
 6027POPC   GL1 9157   5.072  32.977   8.855
 6027POPC   GL2 9158   4.964  33.090   8.855
 6027POPC   C1A 9159   5.118  33.062   8.555
 6027POPC   D2A 9160   5.046  33.045   8.255
 6027POPC   C3A 9161   5.118  33.034   7.955
 6027POPC   C4A 9162   5.062  33.033   7.655
 6027POPC   C1B 9163   4.926  33.207   8.555
 6027POPC   C2B 9164   4.904  33.223   8.255
 6027POPC   C3B 9165   4.913  33.191   7.955
 6027POPC   C4B 9166   4.906  33.238   7.655
 6028POPC   NC3 9167  17.499  27.571   9.455
 6028POPC   PO4 9168  17.523  27.577   9.155
 6028POPC   GL1 9169  17.497  27.628   8.855
 6028POPC   GL2 9170  17.445  27.740   8.855
 6028POPC   C1A 9171  17.471  27.552   8.555
 6028POPC   D2A 9172  17.545  27.551   8.255
 6028POPC   C3A 9173  17.528  27.565   7.955
 6028POPC   C4A 9174  17.524  27.630   7.655
 6028POPC   C1B 9175  17.374  27.806   8.555
 6028POPC   C2B 9176  17.404  27.799   8.255
 6028POPC   C3B 9177  17.378  27.781   7.955
 6028POPC   C4B 9178  17.352  27.846   7.655
 6029POPC   NC3 9179  26.803  26.088   9.455
 6029POPC   PO4 9180  26.833  26.068   9.155
 6029POPC   GL1 9181  26.844  26.018   8.855
 6029POPC   GL2 9182  26.805  25.925   8.855
 6029POPC   C1A 9183  26.854  26.041   8.555
 6029POPC   D2A 9184  26.828  26.023   8.255
 6029POPC   C3A 9185  26.788  26.001   7.955
 6029POPC   C4A 9186  26.840  25.992   7.655
 6029POPC   C1B 9187  26.791  25.803   8.555
 6029POPC   C2B 9188  26.776  25.746   8.255
 6029POPC   C3B 9189  26.752  25.776   7.955
 6029POPC   C4B 9190  26.750  25.781   7.655
 6030POPC   NC3 9191  21.380  18.298   9.455
 6030POPC   PO4 9192  21.436  18.238   9.155
 6030POPC   GL1 9193  21.363  18.270   8.855
 6030POPC   GL2 9194  21.469  18.222   8.855
 6030POPC   C1A 9195  21.392  18.330   8.555
 6030POPC   D2A 9196  21.345  18.323   8.255
 6030POPC   C3A 9197  21.341  18.289   7.955
 6030POPC   C4A 9198  21.339  18.314   7.655
 6030POPC   C1B 9199  21.512  18.040   8.555
 6030POPC   C2B 9200  21.513  18.052   8.255
 6030POPC   C3B 9201  21.512  18.072   7.955
 6030POPC   C4B 9202  21.576  18.053   7.655
 6031POPC   NC3 9203  26.800  12.878   9.455
 6031POPC   PO4 9204  26.786  12.871   9.155
 6031POPC   GL1 9205  26.786  12.887   8.855
 6031POPC   GL2 9206  26.955  12.780   8.855
 6031POPC   C1A 9207  26.846  12.803   8.555
 6031POPC   D2A 9208  26.787  12.883   8.255
 6031POPC   C3A 9209  26.790  12.843   7.955
 6031POPC   C4A 9210  26.820  12.842   7.655
 6031POPC   C1B 9211  27.060  12.713   8.555
 6031POPC   C2B 9212  27.069  12.796   8.255
 6031POPC   C3B 9213  27.082  12.794   7.955
 6031POPC   C4B 9214  27.035  12.741   7.655
 6032POPC   NC3 9215  12.121  14.353   9.455
 6032POPC   PO4 9216  12.027  14.437   9.155
 6032POPC   GL1 9217  12.099  14.453   8.855
 6032POPC   GL2 9218  11.957  14.416   8.855
 6032POPC   C1A 9219  12.097  14.400   8.555
 6032POPC   D2A 9220  12.046  14.388   8.255
 6032POPC   C3A 9221  12.093  14.422   7.955
 6032POPC   C4A 9222  12.091  14.365   7.655
 6032POPC   C1B 9223  11.848  14.440   8.555
 6032POPC   C2B 9224  11.793  14.486   8.255
 6032POPC   C3B 9225  11.866  14.430   7.955
 6032POPC   C4B 9226  11.856  14.474   7.655
 6033POPC   NC3 9227  21.392   5.908   9.455
 6033POPC   PO4 9228  21.382   5.885   9.155
 6033POPC   GL1 9229  21.387   5.838   8.855
 6033POPC   GL2 9230  21.443   5.738   8.855
 6033POPC   C1A 9231  21.416   5.874   8.555
 6033POPC   D2A 9232  21.381   5.914   8.255
 6033POPC   C3A 9233  21.363   5.839   7.955
 6033POPC   C4A 9234  21.339   5.881   7.655
 6033POPC   C1B 9235  21.439   5.624   8.555
 6033POPC   C2B 9236  21.501   5.600   8.255
 6033POPC   C3B 9237  21.453   5.614   7.955
 6033POPC   C4B 9238  21.512   5.609   7.655
 6034POPC   NC3 9239  31.437  31.458   9.455
 6034POPC   PO4 9240  31.454  31.503   9.155
 6034POPC   GL1 9241  31.432  31.424   8.855
 6034POPC   GL2 9242  31.617  31.507   8.855
 6034POPC   C1A 9243  31.478  31.517   8.555
 6034POPC   D2A 9244  31.498  31.511   8.255
 6034POPC   C3A 9245  31.423  31.429   7.955
 6034POPC   C4A 9246  31.484  31.436   7.655
 6034POPC   C1B 9247  31.637  31.658   8.555
 6034POPC   C2B 9248  31.710  31.577   8.255
 6034POPC   C3B 9249  31.710  31.628   7.955
 6034POPC   C4B 9250  31.675  31.654   7.655
 6035POPC   NC3 9251  17.465  30.689   9.455
 6035POPC   PO4 9252  17.475  30.701   9.155
 6035POPC   GL1 9253  17.550  30.653   8.855
 6035POPC   GL2 9254  17.377  30.777   8.855
 6035POPC   C1A 9255  17.476  30.687   8.555
 6035POPC   D2A 9256  17.458  30.651   8.255
 6035POPC   C3A 9257  17.543  30.657   7.955
 6035POPC   C4A 9258  17.491  30.736   7.655
 6035POPC   C1B 9259  17.284  30.817   8.555
 6035POPC   C2B 9260  17.266  30.777   8.255
 6035POPC   C3B 9261  17.275  30.824   7.955
 6035POPC   C4B 9262  17.299  30.865   7.655
 6036POPC   NC3 9263  43.119  36.155   9.455
 6036POPC   PO4 9264  43.062  36.138   9.155
 6036POPC   GL1 9265  43.157  36.141   8.855
 6036POPC   GL2 9266  43.235  36.019   8.855
 6036POPC   C1A 9267  43.105  36.170   8.555
 6036POPC   D2A 9268  43.086  36.134   8.255
 6036POPC   C3A 9269  43.129  36.165   7.955
 6036POPC   C4A 9270  43.087  36.141   7.655
 6036POPC   C1B 9271  43.330  35.985   8.555
 6036POPC   C2B 9272  43.300  36.013   8.255
 6036POPC   C3B 9273  43.292  35.994   7.955
 6036POPC   C4B 9274  43.325  35.955   7.655
 6037POPC   NC3 9275   1.227   8.211   9.455
 6037POPC   PO4 9276   1.170   8.151   9.155
 6037POPC   GL1 9277   1.248   8.220   8.855
 6037POPC   GL2 9278   1.152   8.330   8.855
 6037POPC   C1A 9279   1.165   8.195   8.555
 6037POPC   D2A 9280   1.242   8.180   8.255
 6037POPC   C3A 9281   1.256   8.170   7.955
 6037POPC   C4A 9282   1.232   8.178   7.655
 6037POPC   C1B 9283   1.038   8.359   8.555
 6037POPC   C2B 9284   1.028   8.424   8.255
 6037POPC   C3B 9285   1.031   8.363   7.955
 6037POPC   C4B 9286   1.038   8.422   7.655
 6038POPC   NC3 9287  33.057  37.644   9.455
 6038POPC   PO4 9288  33.064  37.710   9.155
 6038POPC   GL1 9289  32.988  37.664   8.855
 6038POPC   GL2 9290  32.914  37.562   8.855
 6038POPC   C1A 9291  33.065  37.663   8.555
 6038POPC   D2A 9292  32.980  37.638   8.255
 6038POPC   C3A 9293  32.987  37.695   7.955
 6038POPC   C4A 9294  33.058  37.660   7.655
 6038POPC   C1B 9295  32.803  37.517   8.555
 6038POPC   C2B 9296  32.776  37.538   8.255
 6038POPC   C3B 9297  32.854  37.577   7.955
 6038POPC   C4B 9298  32.794  37.575   7.655
 6039POPC   NC3 9299  23.689   2.778   9.455
 6039POPC   PO4 9300  23.690   2.765   9.155
 6039POPC   GL1 9301  23.686   2.780   8.855
 6039POPC   GL2 9302  23.758   2.870   8.855
 6039POPC   C1A 9303  23.703   2.792   8.555
 6039POPC   D2A 9304  23.755   2.793   8.255
 6039POPC   C3A 9305  23.703   2.747   7.955
 6039POPC   C4A 9306  23.729   2.752   7.655
 6039POPC   C1B 9307  23.789   3.051   8.555
 6039POPC   C2B 9308  23.764   3.034   8.255
 6039POPC   C3B 9309  23.789   3.050   7.955
 6039POPC   C4B 9310  23.709   2.996   7.655
 6040POPC   NC3 9311   2.784  22.904   9.455
 6040POPC   PO4 9312   2.788  22.920   9.155
 6040POPC   GL1 9313   2.723  22.899   8.855
 6040POPC   GL2 9314   2.801  22.836   8.855
 6040POPC   C1A 9315   2.765  22.918   8.555
 6040POPC   D2A 9316   2.762  22.974   8.255
 6040POPC   C3A 9317   2.813  22.932   7.955
 6040POPC   C4A 9318   2.798  22.895   7.655
 6040POPC   C1B 9319   2.859  22.713   8.555
 6040POPC   C2B 9320   2.852  22.683   8.255
 6040POPC   C3B 9321   2.879  22.732   7.955
 6040POPC   C4B 9322   2.859  22.754   7.655
 6041POPC   NC3 9323  15.214   6.652   9.455
 6041POPC   PO4 9324  15.219   6.634   9.155
 6041POPC   GL1 9325  15.209   6.602   8.855
 6041POPC   GL2 9326  15.320   6.694   8.855
 6041POPC   C1A 9327  15.211   6.640   8.555
 6041POPC   D2A 9328  15.216   6.690   8.255
 6041POPC   C3A 9329  15.134   6.635   7.955
 6041POPC   C4A 9330  15.179   6.633   7.655
 6041POPC   C1B 9331  15.458   6.708   8.555
 6041POPC   C2B 9332  15.455   6.704   8.255
 6041POPC   C3B 9333  15.377   6.676   7.955
 6041POPC   C4B 9334  15.428   6.636   7.655
 6042POPC   NC3 9335  25.224  31.485   9.455
 6042POPC   PO4 9336  25.284  31.500   9.155
 6042POPC   GL1 9337  25.226  31.446   8.855
 6042POPC   GL2 9338  25.128  31.437   8.855
 6042POPC   C1A 9339  25.267  31.439   8.555
 6042POPC   D2A 9340  25.293  31.499   8.255
 6042POPC   C3A 9341  25.311  31.452   7.955
 6042POPC   C4A 9342  25.308  31.479   7.655
 6042POPC   C1B 9343  25.075  31.426   8.555
 6042POPC   C2B 9344  25.035  31.343   8.255
 6042POPC   C3B 9345  25.066  31.362   7.955
 6042POPC   C4B 9346  24.984  31.398   7.655
 6043POPC   NC3 9347   9.787   4.332   9.455
 6043POPC   PO4 9348   9.784   4.365   9.155
 6043POPC   GL1 9349   9.728   4.284   8.855
 6043POPC   GL2 9350   9.596   4.397   8.855
 6043POPC   C1A 9351   9.751   4.310   8.555
 6043POPC   D2A 9352   9.773   4.330   8.255
 6043POPC   C3A 9353   9.791   4.366   7.955
 6043POPC   C4A 9354   9.796   4.288   7.655
 6043POPC   C1B 9355   9.534   4.468   8.555
 6043POPC   C2B 9356   9.525   4.439   8.255
 6043POPC   C3B 9357   9.501   4.425   7.955
 6043POPC   C4B 9358   9.545   4.502   7.655
 6044POPC   NC3 9359  40.744  12.036   9.455
 6044POPC   PO4 9360  40.767  12.036   9.155
 6044POPC   GL1 9361  40.773  12.099   8.855
 6044POPC   GL2 9362  40.693  12.168   8.855
 6044POPC   C1A 9363  40.760  12.087   8.555
 6044POPC   D2A 9364  40.747  12.051   8.255
 6044POPC   C3A 9365  40.827  12.056   7.955
 6044POPC   C4A 9366  40.793  12.069   7.655
 6044POPC   C1B 9367  40.598  12.216   8.555
 6044POPC   C2B 9368  40.614  12.233   8.255
 6044POPC   C3B 9369  40.554  12.211   7.955
 6044POPC   C4B 9370  40.623  12.269   7.655
 6045POPC   NC3 9371  39.246  44.645   9.455
 6045POPC   PO4 9372  39.208  44.703   9.155
 6045POPC   GL1 9373  39.219  44.628   8.855
 6045POPC   GL2 9374  39.193  44.784   8.855
 6045POPC   C1A 9375  39.229  44.683   8.555
 6045POPC   D2A 9376  39.207  44.668   8.255
 6045POPC   C3A 9377  39.182  44.681   7.955
 6045POPC   C4A 9378  39.203  44.711   7.655
 6045POPC   C1B 9379  39.268  44.918   8.555
 6045POPC   C2B 9380  39.269  44.941   8.255
 6045POPC   C3B 9381  39.251  44.944   7.955
 6045POPC   C4B 9382  39.283  44.888   7.655
 6046POPC   NC3 9383  39.196  40.803   9.455
 6046POPC   PO4 9384  39.256  40.753   9.155
 6046POPC   GL1 9385  39.233  40.773   8.855
 6046POPC   GL2 9386  39.123  40.769   8.855
 6046POPC   C1A 9387  39.198  40.788   8.555
 6046POPC   D2A 9388  39.212  40.823   8.255
 6046POPC   C3A 9389  39.268  40.781   7.955
 6046POPC   C4A 9390  39.229  40.735   7.655
 6046POPC   C1B 9391  38.942  40.689   8.555
 6046POPC   C2B 9392  38.997  40.698   8.255
 6046POPC   C3B 9393  38.941  40.724   7.955
 6046POPC   C4B 9394  39.026  40.776   7.655
 6047POPC   NC3 9395  22.164  38.472   9.455
 6047POPC   PO4 9396  22.158  38.490   9.155
 6047POPC   GL1 9397  22.166  38.445   8.855
 6047POPC   GL2 9398  22.205  38.611   8.855
 6047POPC   C1A 9399  22.201  38.467   8.555
 6047POPC   D2A 9400  22.193  38.451   8.255
 6047POPC   C3A 9401  22.130  38.412   7.955
 6047POPC   C4A 9402  22.133  38.432   7.655
 6047POPC   C1B 9403  22.194  38.698   8.555
 6047POPC   C2B 9404  22.190  38.709   8.255
 6047POPC   C3B 9405  22.214  38.716   7.955
 6047POPC   C4B 9406  22.141  38.709   7.655
 6048POPC   NC3 9407  27.620  27.605   9.455
 6048POPC   PO4 9408  27.641  27.633   9.155
 6048POPC   GL1 9409  27.619  27.626   8.855
 6048POPC   GL2 9410  27.441  27.579   8.855
 6048POPC   C1A 9411  27.575  27.556   8.555
 6048POPC   D2A 9412  27.586  27.614   8.255
 6048POPC   C3A 9413  27.598  27.640   7.955
 6048POPC   C4A 9414  27.635  27.550   7.655
 6048POPC   C1B 9415  27.357  27.559   8.555
 6048POPC   C2B 9416  27.394  27.588   8.255
 6048POPC   C3B 9417  27.316  27.516   7.955
 6048POPC   C4B 9418  27.347  27.546   7.655
 6049POPC   NC3 9419  12.037  23.710   9.455
 6049POPC   PO4 9420  12.053  23.732   9.155
 6049POPC   GL1 9421  12.073  23.700   8.855
 6049POPC   GL2 9422  11.941  23.643   8.855
 6049POPC   C1A 9423  12.029  23.755   8.555
 6049POPC   D2A 9424  12.058  23.750   8.255
 6049POPC   C3A 9425  12.076  23.739   7.955
 6049POPC   C4A 9426  12.075  23.675   7.655
 6049POPC   C1B 9427  11.799  23.597   8.555
 6049POPC   C2B 9428  11.833  23.658   8.255
 6049POPC   C3B 9429  11.823  23.613   7.955
 6049POPC   C4B 9430  11.820  23.635   7.655
 6050POPC   NC3 9431  15.130  17.522   9.455
 6050POPC   PO4 9432  15.196  17.547   9.155
 6050POPC   GL1 9433  15.211  17.513   8.855
 6050POPC   GL2 9434  15.095  17.438   8.855
 6050POPC   C1A 9435  15.159  17.518   8.555
 6050POPC   D2A 9436  15.206  17.528   8.255
 6050POPC   C3A 9437  15.205  17.493   7.955
 6050POPC   C4A 9438  15.198  17.526   7.655
 6050POPC   C1B 9439  14.970  17.420   8.555
 6050POPC   C2B 9440  14.888  17.443   8.255
 6050POPC   C3B 9441  14.962  17.430   7.955
 6050POPC   C4B 9442  14.948  17.508   7.655
 6051POPC   NC3 9443  30.653  21.369   9.455
 6051POPC   PO4 9444  30.695  21.367   9.155
 6051POPC   GL1 9445  30.676  21.376   8.855
 6051POPC   GL2 9446  30.748  21.295   8.855
 6051POPC   C1A 9447  30.667  21.432   8.555
 6051POPC   D2A 9448  30.746  21.408   8.255
 6051POPC   C3A 9449  30.669  21.363   7.955
 6051POPC   C4A 9450  30.650  21.380   7.655
 6051POPC   C1B 9451  30.838  21.217   8.555
 6051POPC   C2B 9452  30.867  21.210   8.255
 6051POPC   C3B 9453  30.855  21.186   7.955
 6051POPC   C4B 9454  30.882  21.206   7.655
 6052POPC   NC3 9455  26.075  23.682   9.455
 6052POPC   PO4 9456  26.083  23.696   9.155
 6052POPC   GL1 9457  26.065  23.761   8.855
 6052POPC   GL2 9458  25.891  23.729   8.855
 6052POPC   C1A 9459  26.091  23.716   8.555
 6052POPC   D2A 9460  26.064  23.735   8.255
 6052POPC   C3A 9461  26.079  23.700   7.955
 6052POPC   C4A 9462  26.043  23.739   7.655
 6052POPC   C1B 9463  25.792  23.749   8.555
 6052POPC   C2B 9464  25.775  23.804   8.255
 6052POPC   C3B 9465  25.818  23.756   7.955
 6052POPC   C4B 9466  25.792  23.768   7.655
 6053POPC   NC3 9467  27.581  33.059   9.455
 6053POPC   PO4 9468  27.628  33.027   9.155
 6053POPC   GL1 9469  27.617  33.065   8.855
 6053POPC   GL2 9470  27.641  32.937   8.855
 6053POPC   C1A 9471  27.641  33.048   8.555
 6053POPC   D2A 9472  27.631  33.072   8.255
 6053POPC   C3A 9473  27.592  33.013   7.955
 6053POPC   C4A 9474  27.582  33.030   7.655
 6053POPC   C1B 9475  27.687  32.791   8.555
 6053POPC   C2B 9476  27.602  32.818   8.255
 6053POPC   C3B 9477  27.669  32.758   7.955
 6053POPC   C4B 9478  27.647  32.820   7.655
 6054POPC   NC3 9479  34.600  15.143   9.455
 6054POPC   PO4 9480  34.570  15.204   9.155
 6054POPC   GL1 9481  34.604  15.159   8.855
 6054POPC   GL2 9482  34.658  15.222   8.855
 6054POPC   C1A 9483  34.602  15.157   8.555
 6054POPC   D2A 9484  34.533  15.167   8.255
 6054POPC   C3A 9485  34.572  15.152   7.955
 6054POPC   C4A 9486  34.539  15.130   7.655
 6054POPC   C1B 9487  34.723  15.325   8.555
 6054POPC   C2B 9488  34.801  15.388   8.255
 6054POPC   C3B 9489  34.727  15.392   7.955
 6054POPC   C4B 9490  34.745  15.336   7.655
 6055POPC   NC3 9491  27.572   9.022   9.455
 6055POPC   PO4 9492  27.616   8.927   9.155
 6055POPC   GL1 9493  27.551   8.946   8.855
 6055POPC   GL2 9494  27.674   8.884   8.855
 6055POPC   C1A 9495  27.556   8.970   8.555
 6055POPC   D2A 9496  27.591   8.967   8.255
 6055POPC   C3A 9497  27.589   8.962   7.955
 6055POPC   C4A 9498  27.604   8.935   7.655
 6055POPC   C1B 9499  27.785   8.858   8.555
 6055POPC   C2B 9500  27.838   8.820   8.255
 6055POPC   C3B 9501  27.839   8.884   7.955
 6055POPC   C4B 9502  27.792   8.846   7.655
 6056POPC   NC3 9503  18.309  30.662   9.455
 6056POPC   PO4 9504  18.237  30.648   9.155
 6056POPC   GL1 9505  18.263  30.702   8.855
 6056POPC   GL2 9506  18.241  30.844   8.855
 6056POPC   C1A 9507  18.269  30.697   8.555
 6056POPC   D2A 9508  18.273  30.681   8.255
 6056POPC   C3A 9509  18.290  30.746   7.955
 6056POPC   C4A 9510  18.257  30.686   7.655
 6056POPC   C1B 9511  18.107  30.866   8.555
 6056POPC   C2B 9512  18.125  30.867   8.255
 6056POPC   C3B 9513  18.088  30.920   7.955
 6056POPC   C4B 9514  18.129  30.904   7.655
 6057POPC   NC3 9515   4.279  15.149   9.455
 6057POPC   PO4 9516   4.359  15.198   9.155
 6057POPC   GL1 9517   4.267  15.165   8.855
 6057POPC   GL2 9518   4.176  15.221   8.855
 6057POPC   C1A 9519   4.358  15.174   8.555
 6057POPC   D2A 9520   4.362  15.145   8.255
 6057POPC   C3A 9521   4.291  15.181   7.955
 6057POPC   C4A 9522   4.331  15.193   7.655
 6057POPC   C1B 9523   4.067  15.317   8.555
 6057POPC   C2B 9524   4.101  15.297   8.255
 6057POPC   C3B 9525   4.044  15.234   7.955
 6057POPC   C4B 9526   4.055  15.285   7.655
 6058POPC   NC3 9527  35.336  41.525   9.455
 6058POPC   PO4 9528  35.341  41.551   9.155
 6058POPC   GL1 9529  35.323  41.528   8.855
 6058POPC   GL2 9530  35.466  41.464   8.855
 6058POPC   C1A 9531  35.358  41.568   8.555
 6058POPC   D2A 9532  35.308  41.567   8.255
 6058POPC   C3A 9533  35.314  41.542   7.955
 6058POPC   C4A 9534  35.377  41.549   7.655
 6058POPC   C1B 9535  35.584  41.394   8.555
 6058POPC   C2B 9536  35.604  41.471   8.255
 6058POPC   C3B 9537  35.603  41.455   7.955
 6058POPC   C4B 9538  35.558  41.418   7.655
 6059POPC   NC3 9539  12.828  37.655   9.455
 6059POPC   PO4 9540  12.877  37.719   9.155
 6059POPC   GL1 9541  12.829  37.642   8.855
 6059POPC   GL2 9542  12.888  37.772   8.855
 6059POPC   C1A 9543  12.841  37.707   8.555
 6059POPC   D2A 9544  12.871  37.630   8.255
 6059POPC   C3A 9545  12.885  37.726   7.955
 6059POPC   C4A 9546  12.850  37.687   7.655
 6059POPC   C1B 9547  12.983  37.891   8.555
 6059POPC   C2B 9548  12.962  37.944   8.255
 6059POPC   C3B 9549  12.955  37.946   7.955
 6059POPC   C4B 9550  12.950  37.876   7.655
 6060POPC   NC3 9551  11.300  17.488   9.455
 6060POPC   PO4 9552  11.346  17.540   9.155
 6060POPC   GL1 9553  11.333  17.548   8.855
 6060POPC   GL2 9554  11.249  17.663   8.855
 6060POPC   C1A 9555  11.293  17.496   8.555
 6060POPC   D2A 9556  11.257  17.487   8.255
 6060POPC   C3A 9557  11.300  17.516   7.955
 6060POPC   C4A 9558  11.265  17.468   7.655
 6060POPC   C1B 9559  11.249  17.711   8.555
 6060POPC   C2B 9560  11.212  17.749   8.255
 6060POPC   C3B 9561  11.188  17.731   7.955
 6060POPC   C4B 9562  11.249  17.739   7.655
 6061POPC   NC3 9563  40.052  26.837   9.455
 6061POPC   PO4 9564  40.028  26.864   9.155
 6061POPC   GL1 9565  40.052  26.830   8.855
 6061POPC   GL2 9566  39.881  26.947   8.855
 6061POPC   C1A 9567  40.005  26.801   8.555
 6061POPC   D2A 9568  39.965  26.838   8.255
 6061POPC   C3A 9569  39.997  26.855   7.955
 6061POPC   C4A 9570  39.984  26.837   7.655
 6061POPC   C1B 9571  39.843  27.007   8.555
 6061POPC   C2B 9572  39.878  26.955   8.255
 6061POPC   C3B 9573  39.814  26.985   7.955
 6061POPC   C4B 9574  39.794  27.038   7.655
 6062POPC   NC3 9575  42.292  19.099   9.455
 6062POPC   PO4 9576  42.349  19.060   9.155
 6062POPC   GL1 9577  42.299  19.042   8.855
 6062POPC   GL2 9578  42.239  18.980   8.855
 6062POPC   C1A 9579  42.368  19.019   8.555
 6062POPC   D2A 9580  42.344  19.057   8.255
 6062POPC   C3A 9581  42.355  19.096   7.955
 6062POPC   C4A 9582  42.345  19.065   7.655
 6062POPC   C1B 9583  42.142  18.935   8.555
 6062POPC   C2B 9584  42.092  19.020   8.255
 6062POPC   C3B 9585  42.067  18.932   7.955
 6062POPC   C4B 9586  42.050  18.954   7.655
 6063POPC   NC3 9587  29.111  18.283   9.455
 6063POPC   PO4 9588  29.107  18.305   9.155
 6063POPC   GL1 9589  29.102  18.298   8.855
 6063POPC   GL2 9590  29.056  18.393   8.855
 6063POPC   C1A 9591  29.194  18.285   8.555
 6063POPC   D2A 9592  29.187  18.282   8.255
 6063POPC   C3A 9593  29.116  18.313   7.955
 6063POPC   C4A 9594  29.134  18.246   7.655
 6063POPC   C1B 9595  29.026  18.499   8.555
 6063POPC   C2B 9596  28.997  18.528   8.255
 6063POPC   C3B 9597  29.002  18.489   7.955
 6063POPC   C4B 9598  29.063  18.545   7.655
 6064POPC   NC3 9599  13.659   4.335   9.455
 6064POPC   PO4 9600  13.663   4.359   9.155
 6064POPC   GL1 9601  13.603   4.268   8.855
 6064POPC   GL2 9602  13.632   4.460   8.855
 6064POPC   C1A 9603  13.645   4.303   8.555
 6064POPC   D2A 9604  13.671   4.276   8.255
 6064POPC   C3A 9605  13.650   4.312   7.955
 6064POPC   C4A 9606  13.584   4.332   7.655
 6064POPC   C1B 9607  13.611   4.571   8.555
 6064POPC   C2B 9608  13.641   4.601   8.255
 6064POPC   C3B 9609  13.607   4.574   7.955
 6064POPC   C4B 9610  13.673   4.581   7.655
 6065POPC   NC3 9611  32.291  14.364   9.455
 6065POPC   PO4 9612  32.255  14.442   9.155
 6065POPC   GL1 9613  32.265  14.433   8.855
 6065POPC   GL2 9614  32.325  14.322   8.855
 6065POPC   C1A 9615  32.205  14.399   8.555
 6065POPC   D2A 9616  32.235  14.388   8.255
 6065POPC   C3A 9617  32.211  14.362   7.955
 6065POPC   C4A 9618  32.251  14.365   7.655
 6065POPC   C1B 9619  32.490  14.329   8.555
 6065POPC   C2B 9620  32.471  14.352   8.255
 6065POPC   C3B 9621  32.440  14.317   7.955
 6065POPC   C4B 9622  32.511  14.331   7.655
 6066POPC   NC3 9623  23.702   3.562   9.455
 6066POPC   PO4 9624  23.677   3.561   9.155
 6066POPC   GL1 9625  23.757   3.532   8.855
 6066POPC   GL2 9626  23.766   3.676   8.855
 6066POPC   C1A 9627  23.753   3.494   8.555
 6066POPC   D2A 9628  23.727   3.591   8.255
 6066POPC   C3A 9629  23.753   3.501   7.955
 6066POPC   C4A 9630  23.677   3.514   7.655
 6066POPC   C1B 9631  23.719   3.778   8.555
 6066POPC   C2B 9632  23.686   3.830   8.255
 6066POPC   C3B 9633  23.737   3.800   7.955
 6066POPC   C4B 9634  23.728   3.753   7.655
 6067POPC   NC3 9635  30.676  14.417   9.455
 6067POPC   PO4 9636  30.702  14.366   9.155
 6067POPC   GL1 9637  30.704  14.431   8.855
 6067POPC   GL2 9638  30.651  14.301   8.855
 6067POPC   C1A 9639  30.652  14.451   8.555
 6067POPC   D2A 9640  30.713  14.356   8.255
 6067POPC   C3A 9641  30.684  14.452   7.955
 6067POPC   C4A 9642  30.706  14.392   7.655
 6067POPC   C1B 9643  30.575  14.145   8.555
 6067POPC   C2B 9644  30.609  14.213   8.255
 6067POPC   C3B 9645  30.604  14.170   7.955
 6067POPC   C4B 9646  30.658  14.120   7.655
 6068POPC   NC3 9647  38.451  18.326   9.455
 6068POPC   PO4 9648  38.410  18.252   9.155
 6068POPC   GL1 9649  38.449  18.254   8.855
 6068POPC   GL2 9650  38.360  18.338   8.855
 6068POPC   C1A 9651  38.411  18.277   8.555
 6068POPC   D2A 9652  38.418  18.323   8.255
 6068POPC   C3A 9653  38.420  18.245   7.955
 6068POPC   C4A 9654  38.468  18.254   7.655
 6068POPC   C1B 9655  38.252  18.388   8.555
 6068POPC   C2B 9656  38.175  18.335   8.255
 6068POPC   C3B 9657  38.236  18.325   7.955
 6068POPC   C4B 9658  38.189  18.334   7.655
 6069POPC   NC3 9659  15.192  24.530   9.455
 6069POPC   PO4 9660  15.194  24.522   9.155
 6069POPC   GL1 9661  15.163  24.466   8.855
 6069POPC   GL2 9662  15.307  24.570   8.855
 6069POPC   C1A 9663  15.162  24.442   8.555
 6069POPC   D2A 9664  15.148  24.462   8.255
 6069POPC   C3A 9665  15.182  24.465   7.955
 6069POPC   C4A 9666  15.197  24.502   7.655
 6069POPC   C1B 9667  15.365  24.647   8.555
 6069POPC   C2B 9668  15.338  24.630   8.255
 6069POPC   C3B 9669  15.414  24.610   7.955
 6069POPC   C4B 9670  15.417  24.660   7.655
 6070POPC   NC3 9671  19.826   2.749   9.455
 6070POPC   PO4 9672  19.795   2.723   9.155
 6070POPC   GL1 9673  19.840   2.738   8.855
 6070POPC   GL2 9674  19.804   2.674   8.855
 6070POPC   C1A 9675  19.847   2.775   8.555
 6070POPC   D2A 9676  19.840   2.729   8.255
 6070POPC   C3A 9677  19.865   2.809   7.955
 6070POPC   C4A 9678  19.808   2.800   7.655
 6070POPC   C1B 9679  19.797   2.557   8.555
 6070POPC   C2B 9680  19.793   2.550   8.255
 6070POPC   C3B 9681  19.839   2.506   7.955
 6070POPC   C4B 9682  19.846   2.504   7.655
 6071POPC   NC3 9683  30.742  23.725   9.455
 6071POPC   PO4 9684  30.733  23.690   9.155
 6071POPC   GL1 9685  30.743  23.691   8.855
 6071POPC   GL2 9686  30.772  23.823   8.855
 6071POPC   C1A 9687  30.743  23.730   8.555
 6071POPC   D2A 9688  30.696  23.746   8.255
 6071POPC   C3A 9689  30.700  23.694   7.955
 6071POPC   C4A 9690  30.734  23.739   7.655
 6071POPC   C1B 9691  30.903  23.853   8.555
 6071POPC   C2B 9692  30.866  23.850   8.255
 6071POPC   C3B 9693  30.918  23.854   7.955
 6071POPC   C4B 9694  30.916  23.901   7.655
 6072POPC   NC3 9695  32.224  16.749   9.455
 6072POPC   PO4 9696  32.229  16.778   9.155
 6072POPC   GL1 9697  32.294  16.755   8.855
 6072POPC   GL2 9698  32.175  16.774   8.855
 6072POPC   C1A 9699  32.210  16.698   8.555
 6072POPC   D2A 9700  32.242  16.704   8.255
 6072POPC   C3A 9701  32.218  16.773   7.955
 6072POPC   C4A 9702  32.201  16.765   7.655
 6072POPC   C1B 9703  32.052  16.898   8.555
 6072POPC   C2B 9704  32.034  16.901   8.255
 6072POPC   C3B 9705  32.063  16.888   7.955
 6072POPC   C4B 9706  32.000  16.894   7.655
 6073POPC   NC3 9707  18.268  17.509   9.455
 6073POPC   PO4 9708  18.233  17.480   9.155
 6073POPC   GL1 9709  18.298  17.548   8.855
 6073POPC   GL2 9710  18.309  17.637   8.855
 6073POPC   C1A 9711  18.286  17.495   8.555
 6073POPC   D2A 9712  18.307  17.543   8.255
 6073POPC   C3A 9713  18.249  17.522   7.955
 6073POPC   C4A 9714  18.279  17.549   7.655
 6073POPC   C1B 9715  18.410  17.711   8.555
 6073POPC   C2B 9716  18.414  17.687   8.255
 6073POPC   C3B 9717  18.358  17.696   7.955
 6073POPC   C4B 9718  18.418  17.707   7.655
 6074POPC   NC3 9719  19.021  15.153   9.455
 6074POPC   PO4 9720  19.092  15.179   9.155
 6074POPC   GL1 9721  19.074  15.142   8.855
 6074POPC   GL2 9722  18.900  15.229   8.855
 6074POPC   C1A 9723  19.049  15.133   8.555
 6074POPC   D2A 9724  19.018  15.158   8.255
 6074POPC   C3A 9725  19.069  15.197   7.955
 6074POPC   C4A 9726  19.088  15.205   7.655
 6074POPC   C1B 9727  18.789  15.212   8.555
 6074POPC   C2B 9728  18.777  15.230   8.255
 6074POPC   C3B 9729  18.809  15.233   7.955
 6074POPC   C4B 9730  18.810  15.174   7.655
 6075POPC   NC3 9731  12.059  16.708   9.455
 6075POPC   PO4 9732  12.090  16.692   9.155
 6075POPC   GL1 9733  12.040  16.753   8.855
 6075POPC   GL2 9734  11.993  16.609   8.855
 6075POPC   C1A 9735  12.121  16.744   8.555
 6075POPC   D2A 9736  12.115  16.683   8.255
 6075POPC   C3A 9737  12.046  16.694   7.955
 6075POPC   C4A 9738  12.041  16.706   7.655
 6075POPC   C1B 9739  11.955  16.531   8.555
 6075POPC   C2B 9740  11.921  16.549   8.255
 6075POPC   C3B 9741  11.969  16.477   7.955
 6075POPC   C4B 9742  11.918  16.557   7.655
 6076POPC   NC3 9743  26.843   5.893   9.455
 6076POPC   PO4 9744  26.849   5.844   9.155
 6076POPC   GL1 9745  26.857   5.823   8.855
 6076POPC   GL2 9746  26.966   5.771   8.855
 6076POPC   C1A 9747  26.860   5.894   8.555
 6076POPC   D2A 9748  26.820   5.823   8.255
 6076POPC   C3A 9749  26.856   5.858   7.955
 6076POPC   C4A 9750  26.814   5.848   7.655
 6076POPC   C1B 9751  27.087   5.742   8.555
 6076POPC   C2B 9752  27.077   5.798   8.255
 6076POPC   C3B 9753  27.005   5.721   7.955
 6076POPC   C4B 9754  26.999   5.746   7.655
 6077POPC   NC3 9755  41.526   9.745   9.455
 6077POPC   PO4 9756  41.607   9.775   9.155
 6077POPC   GL1 9757  41.539   9.730   8.855
 6077POPC   GL2 9758  41.496   9.618   8.855
 6077POPC   C1A 9759  41.520   9.753   8.555
 6077POPC   D2A 9760  41.595   9.773   8.255
 6077POPC   C3A 9761  41.548   9.753   7.955
 6077POPC   C4A 9762  41.537   9.771   7.655
 6077POPC   C1B 9763  41.402   9.554   8.555
 6077POPC   C2B 9764  41.436   9.504   8.255
 6077POPC   C3B 9765  41.355   9.528   7.955
 6077POPC   C4B 9766  41.381   9.559   7.655
 6078POPC   NC3 9767  28.347  14.399   9.455
 6078POPC   PO4 9768  28.376  14.371   9.155
 6078POPC   GL1 9769  28.364  14.361   8.855
 6078POPC   GL2 9770  28.492  14.432   8.855
 6078POPC   C1A 9771  28.399  14.426   8.555
 6078POPC   D2A 9772  28.419  14.402   8.255
 6078POPC   C3A 9773  28.374  14.409   7.955
 6078POPC   C4A 9774  28.403  14.435   7.655
 6078POPC   C1B 9775  28.619  14.436   8.555
 6078POPC   C2B 9776  28.594  14.448   8.255
 6078POPC   C3B 9777  28.637  14.385   7.955
 6078POPC   C4B 9778  28.585  14.410   7.655
 6079POPC   NC3 9779  21.409  15.136   9.455
 6079POPC   PO4 9780  21.371  15.177   9.155
 6079POPC   GL1 9781  21.352  15.179   8.855
 6079POPC   GL2 9782  21.485  15.258   8.855
 6079POPC   C1A 9783  21.367  15.216   8.555
 6079POPC   D2A 9784  21.357  15.175   8.255
 6079POPC   C3A 9785  21.358  15.170   7.955
 6079POPC   C4A 9786  21.432  15.173   7.655
 6079POPC   C1B 9787  21.470  15.419   8.555
 6079POPC   C2B 9788  21.525  15.402   8.255
 6079POPC   C3B 9789  21.459  15.418   7.955
 6079POPC   C4B 9790  21.537  15.419   7.655
 6080POPC   NC3 9791  30.706  17.485   9.455
 6080POPC   PO4 9792  30.724  17.508   9.155
 6080POPC   GL1 9793  30.675  17.505   8.855
 6080POPC   GL2 9794  30.798  17.434   8.855
 6080POPC   C1A 9795  30.689  17.539   8.555
 6080POPC   D2A 9796  30.718  17.463   8.255
 6080POPC   C3A 9797  30.661  17.557   7.955
 6080POPC   C4A 9798  30.733  17.497   7.655
 6080POPC   C1B 9799  30.861  17.281   8.555
 6080POPC   C2B 9800  30.824  17.257   8.255
 6080POPC   C3B 9801  30.798  17.290   7.955
 6080POPC   C4B 9802  30.831  17.280   7.655
 6081POPC   NC3 9803  33.763  44.648   9.455
 6081POPC   PO4 9804  33.764  44.690   9.155
 6081POPC   GL1 9805  33.758  44.696   8.855
 6081POPC   GL2 9806  33.817  44.552   8.855
 6081POPC   C1A 9807  33.813  44.616   8.555
 6081POPC   D2A 9808  33.790  44.650   8.255
 6081POPC   C3A 9809  33.777  44.686   7.955
 6081POPC   C4A 9810  33.846  44.699   7.655
 6081POPC   C1B 9811  33.870  44.404   8.555
 6081POPC   C2B 9812  33.904  44.465   8.255
 6081POPC   C3B 9813  33.848  44.431   7.955
 6081POPC   C4B 9814  33.919  44.427   7.655
 6082POPC   NC3 9815  12.833   1.993   9.455
 6082POPC   PO4 9816  12.804   2.028   9.155
 6082POPC   GL1 9817  12.886   1.952   8.855
 6082POPC   GL2 9818  12.807   2.074   8.855
 6082POPC   C1A 9819  12.864   2.008   8.555
 6082POPC   D2A 9820  12.876   2.029   8.255
 6082POPC   C3A 9821  12.853   2.036   7.955
 6082POPC   C4A 9822  12.889   1.960   7.655
 6082POPC   C1B 9823  12.879   2.245   8.555
 6082POPC   C2B 9824  12.805   2.261   8.255
 6082POPC   C3B 9825  12.884   2.232   7.955
 6082POPC   C4B 9826  12.862   2.195   7.655
 6083POPC   NC3 9827   1.233   5.913   9.455
 6083POPC   PO4 9828   1.263   5.904   9.155
 6083POPC   GL1 9829   1.185   5.885   8.855
 6083POPC   GL2 9830   1.361   5.869   8.855
 6083POPC   C1A 9831   1.251   5.838   8.555
 6083POPC   D2A 9832   1.186   5.849   8.255
 6083POPC   C3A 9833   1.174   5.918   7.955
 6083POPC   C4A 9834   1.228   5.911   7.655
 6083POPC   C1B 9835   1.498   5.830   8.555
 6083POPC   C2B 9836   1.429   5.762   8.255
 6083POPC   C3B 9837   1.427   5.807   7.955
 6083POPC   C4B 9838   1.504   5.808   7.655
 6084POPC   NC3 9839  30.719   5.133   9.455
 6084POPC   PO4 9840  30.687   5.075   9.155
 6084POPC   GL1 9841  30.722   5.133   8.855
 6084POPC   GL2 9842  30.752   4.987   8.855
 6084POPC   C1A 9843  30.710   5.070   8.555
 6084POPC   D2A 9844  30.683   5.121   8.255
 6084POPC   C3A 9845  30.693   5.115   7.955
 6084POPC   C4A 9846  30.734   5.076   7.655
 6084POPC   C1B 9847  30.866   4.925   8.555
 6084POPC   C2B 9848  30.862   4.969   8.255
 6084POPC   C3B 9849  30.897   4.940   7.955
 6084POPC   C4B 9850  30.889   4.944   7.655
 6085POPC   NC3 9851  12.804  36.895   9.455
 6085POPC   PO4 9852  12.850  36.943   9.155
 6085POPC   GL1 9853  12.831  36.876   8.855
 6085POPC   GL2 9854  12.847  36.971   8.855
 6085POPC   C1A 9855  12.899  36.893   8.555
 6085POPC   D2A 9856  12.830  36.900   8.255
 6085POPC   C3A 9857  12.884  36.907   7.955
 6085POPC   C4A 9858  12.806  36.901   7.655
 6085POPC   C1B 9859  12.955  37.170   8.555
 6085POPC   C2B 9860  12.920  37.140   8.255
 6085POPC   C3B 9861  12.989  37.171   7.955
 6085POPC   C4B 9862  12.907  37.171   7.655
 6086POPC   NC3 9863  36.903  20.565   9.455
 6086POPC   PO4 9864  36.884  20.585   9.155
 6086POPC   GL1 9865  36.878  20.577   8.855
 6086POPC   GL2 9866  36.836  20.552   8.855
 6086POPC   C1A 9867  36.912  20.561   8.555
 6086POPC   D2A 9868  36.868  20.581   8.255
 6086POPC   C3A 9869  36.885  20.611   7.955
 6086POPC   C4A 9870  36.936  20.574   7.655
 6086POPC   C1B 9871  36.735  20.363   8.555
 6086POPC   C2B 9872  36.787  20.415   8.255
 6086POPC   C3B 9873  36.821  20.358   7.955
 6086POPC   C4B 9874  36.733  20.432   7.655
 6087POPC   NC3 9875  17.538  40.769   9.455
 6087POPC   PO4 9876  17.491  40.788   9.155
 6087POPC   GL1 9877  17.480  40.793   8.855
 6087POPC   GL2 9878  17.391  40.844   8.855
 6087POPC   C1A 9879  17.507  40.804   8.555
 6087POPC   D2A 9880  17.472  40.758   8.255
 6087POPC   C3A 9881  17.499  40.767   7.955
 6087POPC   C4A 9882  17.507  40.770   7.655
 6087POPC   C1B 9883  17.218  40.867   8.555
 6087POPC   C2B 9884  17.231  40.827   8.255
 6087POPC   C3B 9885  17.284  40.873   7.955
 6087POPC   C4B 9886  17.289  40.839   7.655
 6088POPC   NC3 9887  22.891  26.071   9.455
 6088POPC   PO4 9888  22.942  25.996   9.155
 6088POPC   GL1 9889  22.932  26.006   8.855
 6088POPC   GL2 9890  22.938  26.117   8.855
 6088POPC   C1A 9891  22.986  25.999   8.555
 6088POPC   D2A 9892  22.889  26.044   8.255
 6088POPC   C3A 9893  22.956  26.079   7.955
 6088POPC   C4A 9894  22.965  26.077   7.655
 6088POPC   C1B 9895  22.805  26.278   8.555
 6088POPC   C2B 9896  22.838  26.299   8.255
 6088POPC   C3B 9897  22.815  26.265   7.955
 6088POPC   C4B 9898  22.845  26.296   7.655
 6089POPC   NC3 9899  22.910  22.910   9.455
 6089POPC   PO4 9900  22.971  22.949   9.155
 6089POPC   GL1 9901  22.896  22.944   8.855
 6089POPC   GL2 9902  22.853  22.897   8.855
 6089POPC   C1A 9903  22.894  22.974   8.555
 6089POPC   D2A 9904  22.904  22.938   8.255
 6089POPC   C3A 9905  22.915  22.896   7.955
 6089POPC   C4A 9906  22.889  22.906   7.655
 6089POPC   C1B 9907  22.703  22.786   8.555
 6089POPC   C2B 9908  22.768  22.741   8.255
 6089POPC   C3B 9909  22.781  22.741   7.955
 6089POPC   C4B 9910  22.693  22.832   7.655
 6090POPC   NC3 9911  34.535  18.234   9.455
 6090POPC   PO4 9912  34.555  18.273   9.155
 6090POPC   GL1 9913  34.596  18.300   8.855
 6090POPC   GL2 9914  34.667  18.158   8.855
 6090POPC   C1A 9915  34.594  18.278   8.555
 6090POPC   D2A 9916  34.609  18.251   8.255
 6090POPC   C3A 9917  34.565  18.248   7.955
 6090POPC   C4A 9918  34.589  18.283   7.655
 6090POPC   C1B 9919  34.702  18.058   8.555
 6090POPC   C2B 9920  34.713  18.064   8.255
 6090POPC   C3B 9921  34.763  18.128   7.955
 6090POPC   C4B 9922  34.772  18.090   7.655
 6091POPC   NC3 9923  36.092  38.419   9.455
 6091POPC   PO4 9924  36.140  38.486   9.155
 6091POPC   GL1 9925  36.130  38.464   8.855
 6091POPC   GL2 9926  36.194  38.506   8.855
 6091POPC   C1A 9927  36.151  38.497   8.555
 6091POPC   D2A 9928  36.141  38.476   8.255
 6091POPC   C3A 9929  36.100  38.421   7.955
 6091POPC   C4A 9930  36.109  38.484   7.655
 6091POPC   C1B 9931  36.299  38.625   8.555
 6091POPC   C2B 9932  36.277  38.604   8.255
 6091POPC   C3B 9933  36.341  38.599   7.955
 6091POPC   C4B 9934  36.339  38.626   7.655
 6092POPC   NC3 9935  29.878  22.889   9.455
 6092POPC   PO4 9936  29.901  22.939   9.155
 6092POPC   GL1 9937  29.938  22.927   8.855
 6092POPC   GL2 9938  30.035  22.983   8.855
 6092POPC   C1A 9939  29.884  22.936   8.555
 6092POPC   D2A 9940  29.890  22.967   8.255
 6092POPC   C3A 9941  29.959  22.920   7.955
 6092POPC   C4A 9942  29.958  22.928   7.655
 6092POPC   C1B 9943  30.141  22.938   8.555
 6092POPC   C2B 9944  30.149  23.015   8.255
 6092POPC   C3B 9945  30.179  22.954   7.955
 6092POPC   C4B 9946  30.203  22.948   7.655
 6093POPC   NC3 9947   3.548  17.508   9.455
 6093POPC   PO4 9948   3.525  17.463   9.155
 6093POPC   GL1 9949   3.520  17.501   8.855
 6093POPC   GL2 9950   3.401  17.461   8.855
 6093POPC   C1A 9951   3.577  17.520   8.555
 6093POPC   D2A 9952   3.540  17.502   8.255
 6093POPC   C3A 9953   3.538  17.528   7.955
 6093POPC   C4A 9954   3.516  17.511   7.655
 6093POPC   C1B 9955   3.347  17.376   8.555
 6093POPC   C2B 9956   3.310  17.334   8.255
 6093POPC   C3B 9957   3.359  17.345   7.955
 6093POPC   C4B 9958   3.302  17.354   7.655
 6094POPC   NC3 9959  12.055   6.665   9.455
 6094POPC   PO4 9960  12.040   6.666   9.155
 6094POPC   GL1 9961  12.080   6.657   8.855
 6094POPC   GL2 9962  11.982   6.637   8.855
 6094POPC   C1A 9963  12.086   6.647   8.555
 6094POPC   D2A 9964  12.034   6.635   8.255
 6094POPC   C3A 9965  12.062   6.691   7.955
 6094POPC   C4A 9966  12.105   6.687   7.655
 6094POPC   C1B 9967  11.788   6.680   8.555
 6094POPC   C2B 9968  11.826   6.766   8.255
 6094POPC   C3B 9969  11.831   6.709   7.955
 6094POPC   C4B 9970  11.850   6.768   7.655
 6095POPC   NC3 9971  22.136  20.610   9.455
 6095POPC   PO4 9972  22.171  20.590   9.155
 6095POPC   GL1 9973  22.141  20.635   8.855
 6095POPC   GL2 9974  22.249  20.512   8.855
 6095POPC   C1A 9975  22.163  20.622   8.555
 6095POPC   D2A 9976  22.138  20.612   8.255
 6095POPC   C3A 9977  22.177  20.658   7.955
 6095POPC   C4A 9978  22.199  20.651   7.655
 6095POPC   C1B 9979  22.287  20.439   8.555
 6095POPC   C2B 9980  22.376  20.404   8.255
 6095POPC   C3B 9981  22.316  20.471   7.955
 6095POPC   C4B 9982  22.361  20.414   7.655
 6096POPC   NC3 9983  12.098   2.814   9.455
 6096POPC   PO4 9984  12.098   2.795   9.155
 6096POPC   GL1 9985  12.042   2.737   8.855
 6096POPC   GL2 9986  12.177   2.733   8.855
 6096POPC   C1A 9987  12.103   2.718   8.555
 6096POPC   D2A 9988  12.058   2.747   8.255
 6096POPC   C3A 9989  12.056   2.750   7.955
 6096POPC   C4A 9990  12.122   2.756   7.655
 6096POPC   C1B 9991  12.289   2.598   8.555
 6096POPC   C2B 9992  12.271   2.585   8.255
 6096POPC   C3B 9993  12.291   2.628   7.955
 6096POPC   C4B 9994  12.257   2.587   7.655
 6097POPC   NC3 9995  19.838   7.451   9.455
 6097POPC   PO4 9996  19.802   7.453   9.155
 6097POPC   GL1 9997  19.821   7.470   8.855
 6097POPC   GL2 9998  19.896   7.544   8.855
 6097POPC   C1A 9999  19.830   7.394   8.555
 6097POPC   D2A10000  19.846   7.381   8.255
 6097POPC   C3A10001  19.846   7.461   7.955
 6097POPC   C4A10002  19.810   7.408   7.655
 6097POPC   C1B10003  19.961   7.669   8.555
 6097POPC   C2B10004  19.956   7.621   8.255
 6097POPC   C3B10005  19.998   7.646   7.955
 6097POPC   C4B10006  19.973   7.579   7.655
 6098POPC   NC310007  22.132  41.576   9.455
 6098POPC   PO410008  22.208  41.560   9.155
 6098POPC   GL110009  22.189  41.528   8.855
 6098POPC   GL210010  22.162  41.674   8.855
 6098POPC   C1A10011  22.212  41.599   8.555
 6098POPC   D2A10012  22.152  41.578   8.255
 6098POPC   C3A10013  22.158  41.524   7.955
 6098POPC   C4A10014  22.205  41.586   7.655
 6098POPC   C1B10015  22.261  41.832   8.555
 6098POPC   C2B10016  22.243  41.782   8.255
 6098POPC   C3B10017  22.209  41.751   7.955
 6098POPC   C4B10018  22.205  41.784   7.655
 6099POPC   NC310019  40.807  13.614   9.455
 6099POPC   PO410020  40.759  13.658   9.155
 6099POPC   GL110021  40.807  13.603   8.855
 6099POPC   GL210022  40.894  13.624   8.855
 6099POPC   C1A10023  40.817  13.603   8.555
 6099POPC   D2A10024  40.829  13.614   8.255
 6099POPC   C3A10025  40.781  13.612   7.955
 6099POPC   C4A10026  40.789  13.653   7.655
 6099POPC   C1B10027  41.067  13.554   8.555
 6099POPC   C2B10028  41.064  13.544   8.255
 6099POPC   C3B10029  41.000  13.543   7.955
 6099POPC   C4B10030  41.023  13.561   7.655
 6100POPC   NC310031  11.283  36.948   9.455
 6100POPC   PO410032  11.311  36.907   9.155
 6100POPC   GL110033  11.306  36.857   8.855
 6100POPC   GL210034  11.344  37.056   8.855
 6100POPC   C1A10035  11.306  36.924   8.555
 6100POPC   D2A10036  11.262  36.910   8.255
 6100POPC   C3A10037  11.257  36.891   7.955
 6100POPC   C4A10038  11.271  36.860   7.655
 6100POPC   C1B10039  11.353  37.147   8.555
 6100POPC   C2B10040  11.332  37.168   8.255
 6100POPC   C3B10041  11.319  37.184   7.955
 6100POPC   C4B10042  11.382  37.183   7.655
 6101POPC   NC310043   4.359   5.101   9.455
 6101POPC   PO410044   4.297   5.123   9.155
 6101POPC   GL110045   4.341   5.114   8.855
 6101POPC   GL210046   4.371   5.180   8.855
 6101POPC   C1A10047   4.306   5.129   8.555
 6101POPC   D2A10048   4.357   5.129   8.255
 6101POPC   C3A10049   4.269   5.100   7.955
 6101POPC   C4A10050   4.331   5.090   7.655
 6101POPC   C1B10051   4.553   5.229   8.555
 6101POPC   C2B10052   4.515   5.227   8.255
 6101POPC   C3B10053   4.523   5.259   7.955
 6101POPC   C4B10054   4.521   5.263   7.655
 6102POPC   NC310055  41.512  15.997   9.455
 6102POPC   PO410056  41.543  15.962   9.155
 6102POPC   GL110057  41.537  15.907   8.855
 6102POPC   GL210058  41.564  16.027   8.855
 6102POPC   C1A10059  41.602  15.989   8.555
 6102POPC   D2A10060  41.510  15.991   8.255
 6102POPC   C3A10061  41.559  15.938   7.955
 6102POPC   C4A10062  41.526  15.955   7.655
 6102POPC   C1B10063  41.440  16.195   8.555
 6102POPC   C2B10064  41.511  16.232   8.255
 6102POPC   C3B10065  41.471  16.240   7.955
 6102POPC   C4B10066  41.530  16.191   7.655
 6103POPC   NC310067  19.855  42.295   9.455
 6103POPC   PO410068  19.827  42.302   9.155
 6103POPC   GL110069  19.829  42.378   8.855
 6103POPC   GL210070  19.974  42.376   8.855
 6103POPC   C1A10071  19.786  42.304   8.555
 6103POPC   D2A10072  19.813  42.322   8.255
 6103POPC   C3A10073  19.848  42.352   7.955
 6103POPC   C4A10074  19.876  42.289   7.655
 6103POPC   C1B10075  19.986  42.504   8.555
 6103POPC   C2B10076  20.071  42.445   8.255
 6103POPC   C3B10077  20.033  42.443   7.955
 6103POPC   C4B10078  20.057  42.503   7.655
 6104POPC   NC310079  10.571   3.515   9.455
 6104POPC   PO410080  10.553   3.577   9.155
 6104POPC   GL110081  10.502   3.504   8.855
 6104POPC   GL210082  10.669   3.425   8.855
 6104POPC   C1A10083  10.511   3.532   8.555
 6104POPC   D2A10084  10.553   3.503   8.255
 6104POPC   C3A10085  10.517   3.495   7.955
 6104POPC   C4A10086  10.494   3.562   7.655
 6104POPC   C1B10087  10.720   3.426   8.555
 6104POPC   C2B10088  10.692   3.375   8.255
 6104POPC   C3B10089  10.743   3.401   7.955
 6104POPC   C4B10090  10.782   3.449   7.655
 6105POPC   NC310091  30.739   1.176   9.455
 6105POPC   PO410092  30.678   1.170   9.155
 6105POPC   GL110093  30.738   1.237   8.855
 6105POPC   GL210094  30.744   1.285   8.855
 6105POPC   C1A10095  30.659   1.201   8.555
 6105POPC   D2A10096  30.706   1.245   8.255
 6105POPC   C3A10097  30.710   1.259   7.955
 6105POPC   C4A10098  30.737   1.249   7.655
 6105POPC   C1B10099  30.823   1.411   8.555
 6105POPC   C2B10100  30.827   1.494   8.255
 6105POPC   C3B10101  30.749   1.474   7.955
 6105POPC   C4B10102  30.736   1.486   7.655
 6106POPC   NC310103  11.283  27.606   9.455
 6106POPC   PO410104  11.297  27.547   9.155
 6106POPC   GL110105  11.298  27.589   8.855
 6106POPC   GL210106  11.190  27.517   8.855
 6106POPC   C1A10107  11.283  27.599   8.555
 6106POPC   D2A10108  11.340  27.608   8.255
 6106POPC   C3A10109  11.290  27.595   7.955
 6106POPC   C4A10110  11.287  27.639   7.655
 6106POPC   C1B10111  11.075  27.448   8.555
 6106POPC   C2B10112  11.110  27.475   8.255
 6106POPC   C3B10113  11.122  27.472   7.955
 6106POPC   C4B10114  11.070  27.507   7.655
 6107POPC   NC310115  32.257  13.662   9.455
 6107POPC   PO410116  32.233  13.677   9.155
 6107POPC   GL110117  32.269  13.667   8.855
 6107POPC   GL210118  32.272  13.719   8.855
 6107POPC   C1A10119  32.253  13.615   8.555
 6107POPC   D2A10120  32.224  13.640   8.255
 6107POPC   C3A10121  32.275  13.622   7.955
 6107POPC   C4A10122  32.223  13.627   7.655
 6107POPC   C1B10123  32.388  13.886   8.555
 6107POPC   C2B10124  32.341  13.882   8.255
 6107POPC   C3B10125  32.384  13.798   7.955
 6107POPC   C4B10126  32.343  13.815   7.655
 6108POPC   NC310127  29.914  24.442   9.455
 6108POPC   PO410128  29.875  24.453   9.155
 6108POPC   GL110129  29.936  24.505   8.855
 6108POPC   GL210130  29.990  24.552   8.855
 6108POPC   C1A10131  29.958  24.462   8.555
 6108POPC   D2A10132  29.911  24.478   8.255
 6108POPC   C3A10133  29.911  24.515   7.955
 6108POPC   C4A10134  29.888  24.499   7.655
 6108POPC   C1B10135  30.105  24.666   8.555
 6108POPC   C2B10136  30.143  24.681   8.255
 6108POPC   C3B10137  30.108  24.656   7.955
 6108POPC   C4B10138  30.139  24.693   7.655
 6109POPC   NC310139  36.937  21.420   9.455
 6109POPC   PO410140  36.926  21.399   9.155
 6109POPC   GL110141  36.881  21.413   8.855
 6109POPC   GL210142  36.767  21.400   8.855
 6109POPC   C1A10143  36.854  21.347   8.555
 6109POPC   D2A10144  36.912  21.412   8.255
 6109POPC   C3A10145  36.856  21.392   7.955
 6109POPC   C4A10146  36.906  21.350   7.655
 6109POPC   C1B10147  36.648  21.401   8.555
 6109POPC   C2B10148  36.648  21.435   8.255
 6109POPC   C3B10149  36.639  21.450   7.955
 6109POPC   C4B10150  36.674  21.447   7.655
 6110POPC   NC310151  42.373   6.677   9.455
 6110POPC   PO410152  42.328   6.638   9.155
 6110POPC   GL110153  42.320   6.609   8.855
 6110POPC   GL210154  42.224   6.593   8.855
 6110POPC   C1A10155  42.286   6.630   8.555
 6110POPC   D2A10156  42.339   6.664   8.255
 6110POPC   C3A10157  42.304   6.642   7.955
 6110POPC   C4A10158  42.307   6.656   7.655
 6110POPC   C1B10159  42.115   6.575   8.555
 6110POPC   C2B10160  42.153   6.499   8.255
 6110POPC   C3B10161  42.128   6.531   7.955
 6110POPC   C4B10162  42.124   6.573   7.655
 6111POPC   NC310163   9.783  12.805   9.455
 6111POPC   PO410164   9.748  12.879   9.155
 6111POPC   GL110165   9.726  12.805   8.855
 6111POPC   GL210166   9.632  12.914   8.855
 6111POPC   C1A10167   9.739  12.883   8.555
 6111POPC   D2A10168   9.744  12.858   8.255
 6111POPC   C3A10169   9.748  12.823   7.955
 6111POPC   C4A10170   9.776  12.873   7.655
 6111POPC   C1B10171   9.475  12.871   8.555
 6111POPC   C2B10172   9.456  12.852   8.255
 6111POPC   C3B10173   9.520  12.908   7.955
 6111POPC   C4B10174   9.537  12.863   7.655
 6112POPC   NC310175   0.415  40.803   9.455
 6112POPC   PO410176   0.422  40.743   9.155
 6112POPC   GL110177   0.411  40.818   8.855
 6112POPC   GL210178   0.338  40.715   8.855
 6112POPC   C1A10179   0.481  40.817   8.555
 6112POPC   D2A10180   0.438  40.813   8.255
 6112POPC   C3A10181   0.396  40.794   7.955
 6112POPC   C4A10182   0.465  40.816   7.655
 6112POPC   C1B10183   0.187  40.611   8.555
 6112POPC   C2B10184   0.203  40.673   8.255
 6112POPC   C3B10185   0.192  40.636   7.955
 6112POPC   C4B10186   0.244  40.605   7.655
 6113POPC   NC310187  28.322  43.890   9.455
 6113POPC   PO410188  28.363  43.932   9.155
 6113POPC   GL110189  28.338  43.881   8.855
 6113POPC   GL210190  28.535  43.931   8.855
 6113POPC   C1A10191  28.351  43.861   8.555
 6113POPC   D2A10192  28.341  43.927   8.255
 6113POPC   C3A10193  28.371  43.863   7.955
 6113POPC   C4A10194  28.377  43.865   7.655
 6113POPC   C1B10195  28.639  43.918   8.555
 6113POPC   C2B10196  28.644  43.935   8.255
 6113POPC   C3B10197  28.632  43.946   7.955
 6113POPC   C4B10198  28.615  43.969   7.655
 6114POPC   NC310199  30.676  25.286   9.455
 6114POPC   PO410200  30.685  25.247   9.155
 6114POPC   GL110201  30.723  25.289   8.855
 6114POPC   GL210202  30.775  25.234   8.855
 6114POPC   C1A10203  30.683  25.311   8.555
 6114POPC   D2A10204  30.723  25.225   8.255
 6114POPC   C3A10205  30.716  25.225   7.955
 6114POPC   C4A10206  30.711  25.279   7.655
 6114POPC   C1B10207  30.916  25.238   8.555
 6114POPC   C2B10208  30.942  25.201   8.255
 6114POPC   C3B10209  30.987  25.283   7.955
 6114POPC   C4B10210  30.916  25.269   7.655
 6115POPC   NC310211  14.421  43.145   9.455
 6115POPC   PO410212  14.362  43.099   9.155
 6115POPC   GL110213  14.453  43.113   8.855
 6115POPC   GL210214  14.260  43.153   8.855
 6115POPC   C1A10215  14.406  43.065   8.555
 6115POPC   D2A10216  14.448  43.144   8.255
 6115POPC   C3A10217  14.389  43.084   7.955
 6115POPC   C4A10218  14.400  43.077   7.655
 6115POPC   C1B10219  14.175  43.259   8.555
 6115POPC   C2B10220  14.187  43.208   8.255
 6115POPC   C3B10221  14.213  43.225   7.955
 6115POPC   C4B10222  14.139  43.186   7.655
 6116POPC   NC310223   8.959  42.349   9.455
 6116POPC   PO410224   8.941  42.317   9.155
 6116POPC   GL110225   8.934  42.351   8.855
 6116POPC   GL210226   8.869  42.215   8.855
 6116POPC   C1A10227   9.022  42.315   8.555
 6116POPC   D2A10228   8.946  42.297   8.255
 6116POPC   C3A10229   8.953  42.292   7.955
 6116POPC   C4A10230   8.946  42.302   7.655
 6116POPC   C1B10231   8.856  42.175   8.555
 6116POPC   C2B10232   8.800  42.155   8.255
 6116POPC   C3B10233   8.793  42.118   7.955
 6116POPC   C4B10234   8.829  42.188   7.655
 6117POPC   NC310235  43.864  16.004   9.455
 6117POPC   PO410236  43.934  15.983   9.155
 6117POPC   GL110237  43.842  15.949   8.855
 6117POPC   GL210238  43.858  16.078   8.855
 6117POPC   C1A10239  43.930  15.970   8.555
 6117POPC   D2A10240  43.867  15.999   8.255
 6117POPC   C3A10241  43.897  15.935   7.955
 6117POPC   C4A10242  43.909  15.999   7.655
 6117POPC   C1B10243  43.882  16.180   8.555
 6117POPC   C2B10244  43.871  16.177   8.255
 6117POPC   C3B10245  43.860  16.192   7.955
 6117POPC   C4B10246  43.854  16.231   7.655
 6118POPC   NC310247  33.053  14.438   9.455
 6118POPC   PO410248  33.049  14.446   9.155
 6118POPC   GL110249  33.016  14.427   8.855
 6118POPC   GL210250  32.948  14.465   8.855
 6118POPC   C1A10251  33.013  14.447   8.555
 6118POPC   D2A10252  33.029  14.417   8.255
 6118POPC   C3A10253  33.003  14.362   7.955
 6118POPC   C4A10254  33.049  14.375   7.655
 6118POPC   C1B10255  32.912  14.643   8.555
 6118POPC   C2B10256  32.865  14.606   8.255
 6118POPC   C3B10257  32.881  14.589   7.955
 6118POPC   C4B10258  32.874  14.589   7.655
 6119POPC   NC310259  19.011  36.921   9.455
 6119POPC   PO410260  19.073  36.916   9.155
 6119POPC   GL110261  19.017  36.911   8.855
 6119POPC   GL210262  19.002  36.782   8.855
 6119POPC   C1A10263  19.108  36.952   8.555
 6119POPC   D2A10264  19.078  36.911   8.255
 6119POPC   C3A10265  19.079  36.942   7.955
 6119POPC   C4A10266  19.055  36.887   7.655
 6119POPC   C1B10267  18.883  36.680   8.555
 6119POPC   C2B10268  18.884  36.673   8.255
 6119POPC   C3B10269  18.879  36.767   7.955
 6119POPC   C4B10270  18.910  36.687   7.655
 6120POPC   NC310271   3.527  22.922   9.455
 6120POPC   PO410272   3.591  22.929   9.155
 6120POPC   GL110273   3.529  22.925   8.855
 6120POPC   GL210274   3.501  22.866   8.855
 6120POPC   C1A10275   3.524  22.889   8.555
 6120POPC   D2A10276   3.517  22.906   8.255
 6120POPC   C3A10277   3.573  22.916   7.955
 6120POPC   C4A10278   3.540  22.919   7.655
 6120POPC   C1B10279   3.440  22.710   8.555
 6120POPC   C2B10280   3.445  22.750   8.255
 6120POPC   C3B10281   3.443  22.695   7.955
 6120POPC   C4B10282   3.496  22.679   7.655
 6121POPC   NC310283   8.206  40.055   9.455
 6121POPC   PO410284   8.241  40.009   9.155
 6121POPC   GL110285   8.187  40.055   8.855
 6121POPC   GL210286   8.196  39.854   8.855
 6121POPC   C1A10287   8.209  40.034   8.555
 6121POPC   D2A10288   8.221  39.962   8.255
 6121POPC   C3A10289   8.226  39.969   7.955
 6121POPC   C4A10290   8.193  40.023   7.655
 6121POPC   C1B10291   8.127  39.782   8.555
 6121POPC   C2B10292   8.181  39.773   8.255
 6121POPC   C3B10293   8.115  39.763   7.955
 6121POPC   C4B10294   8.151  39.770   7.655
 6122POPC   NC310295  26.793  34.558   9.455
 6122POPC   PO410296  26.854  34.583   9.155
 6122POPC   GL110297  26.808  34.534   8.855
 6122POPC   GL210298  26.847  34.660   8.855
 6122POPC   C1A10299  26.821  34.615   8.555
 6122POPC   D2A10300  26.867  34.554   8.255
 6122POPC   C3A10301  26.803  34.554   7.955
 6122POPC   C4A10302  26.838  34.536   7.655
 6122POPC   C1B10303  26.963  34.827   8.555
 6122POPC   C2B10304  26.936  34.751   8.255
 6122POPC   C3B10305  26.982  34.815   7.955
 6122POPC   C4B10306  26.939  34.737   7.655
 6123POPC   NC310307  15.132  29.127   9.455
 6123POPC   PO410308  15.207  29.152   9.155
 6123POPC   GL110309  15.202  29.132   8.855
 6123POPC   GL210310  15.088  29.203   8.855
 6123POPC   C1A10311  15.171  29.112   8.555
 6123POPC   D2A10312  15.194  29.185   8.255
 6123POPC   C3A10313  15.213  29.130   7.955
 6123POPC   C4A10314  15.210  29.141   7.655
 6123POPC   C1B10315  14.978  29.195   8.555
 6123POPC   C2B10316  14.975  29.169   8.255
 6123POPC   C3B10317  14.891  29.154   7.955
 6123POPC   C4B10318  14.958  29.196   7.655
 6124POPC   NC310319  44.711   8.969   9.455
 6124POPC   PO410320  44.638   8.992   9.155
 6124POPC   GL110321  44.617   8.955   8.855
 6124POPC   GL210322  44.716   9.074   8.855
 6124POPC   C1A10323  44.640   8.951   8.555
 6124POPC   D2A10324  44.706   8.962   8.255
 6124POPC   C3A10325  44.644   8.923   7.955
 6124POPC   C4A10326  44.639   8.997   7.655
 6124POPC   C1B10327  44.777   9.184   8.555
 6124POPC   C2B10328  44.814   9.116   8.255
 6124POPC   C3B10329  44.835   9.147   7.955
 6124POPC   C4B10330  44.781   9.181   7.655
 6125POPC   NC310331  33.010  33.806   9.455
 6125POPC   PO410332  33.063  33.849   9.155
 6125POPC   GL110333  32.997  33.764   8.855
 6125POPC   GL210334  33.129  33.862   8.855
 6125POPC   C1A10335  32.994  33.846   8.555
 6125POPC   D2A10336  32.979  33.758   8.255
 6125POPC   C3A10337  33.059  33.848   7.955
 6125POPC   C4A10338  33.000  33.800   7.655
 6125POPC   C1B10339  33.192  34.034   8.555
 6125POPC   C2B10340  33.186  33.976   8.255
 6125POPC   C3B10341  33.099  34.045   7.955
 6125POPC   C4B10342  33.145  34.041   7.655
 6126POPC   NC310343   7.415   8.991   9.455
 6126POPC   PO410344   7.419   8.973   9.155
 6126POPC   GL110345   7.386   8.973   8.855
 6126POPC   GL210346   7.342   8.872   8.855
 6126POPC   C1A10347   7.405   8.934   8.555
 6126POPC   D2A10348   7.413   8.999   8.255
 6126POPC   C3A10349   7.440   8.944   7.955
 6126POPC   C4A10350   7.418   9.018   7.655
 6126POPC   C1B10351   7.321   8.715   8.555
 6126POPC   C2B10352   7.277   8.727   8.255
 6126POPC   C3B10353   7.280   8.740   7.955
 6126POPC   C4B10354   7.320   8.793   7.655
 6127POPC   NC310355  15.174  39.256   9.455
 6127POPC   PO410356  15.158  39.219   9.155
 6127POPC   GL110357  15.198  39.234   8.855
 6127POPC   GL210358  15.204  39.170   8.855
 6127POPC   C1A10359  15.212  39.216   8.555
 6127POPC   D2A10360  15.166  39.214   8.255
 6127POPC   C3A10361  15.156  39.235   7.955
 6127POPC   C4A10362  15.215  39.220   7.655
 6127POPC   C1B10363  15.290  39.060   8.555
 6127POPC   C2B10364  15.318  38.972   8.255
 6127POPC   C3B10365  15.294  39.049   7.955
 6127POPC   C4B10366  15.341  38.973   7.655
 6128POPC   NC310367  34.558  22.898   9.455
 6128POPC   PO410368  34.546  22.967   9.155
 6128POPC   GL110369  34.552  22.983   8.855
 6128POPC   GL210370  34.737  22.987   8.855
 6128POPC   C1A10371  34.593  22.965   8.555
 6128POPC   D2A10372  34.555  22.927   8.255
 6128POPC   C3A10373  34.622  22.896   7.955
 6128POPC   C4A10374  34.529  22.916   7.655
 6128POPC   C1B10375  34.785  22.977   8.555
 6128POPC   C2B10376  34.782  22.990   8.255
 6128POPC   C3B10377  34.834  22.946   7.955
 6128POPC   C4B10378  34.821  22.935   7.655
 6129POPC   NC310379   6.602  26.016   9.455
 6129POPC   PO410380   6.610  26.065   9.155
 6129POPC   GL110381   6.682  26.051   8.855
 6129POPC   GL210382   6.485  26.084   8.855
 6129POPC   C1A10383   6.638  26.004   8.555
 6129POPC   D2A10384   6.669  25.999   8.255
 6129POPC   C3A10385   6.650  26.007   7.955
 6129POPC   C4A10386   6.663  26.047   7.655
 6129POPC   C1B10387   6.461  26.126   8.555
 6129POPC   C2B10388   6.375  26.138   8.255
 6129POPC   C3B10389   6.393  26.162   7.955
 6129POPC   C4B10390   6.426  26.127   7.655
 6130POPC   NC310391  42.383  14.373   9.455
 6130POPC   PO410392  42.313  14.452   9.155
 6130POPC   GL110393  42.287  14.443   8.855
 6130POPC   GL210394  42.190  14.393   8.855
 6130POPC   C1A10395  42.348  14.370   8.555
 6130POPC   D2A10396  42.374  14.361   8.255
 6130POPC   C3A10397  42.374  14.400   7.955
 6130POPC   C4A10398  42.324  14.366   7.655
 6130POPC   C1B10399  42.102  14.429   8.555
 6130POPC   C2B10400  42.066  14.445   8.255
 6130POPC   C3B10401  42.091  14.413   7.955
 6130POPC   C4B10402  42.055  14.468   7.655
 6131POPC   NC310403  33.050  15.983   9.455
 6131POPC   PO410404  32.975  15.964   9.155
 6131POPC   GL110405  32.989  15.918   8.855
 6131POPC   GL210406  32.945  16.066   8.855
 6131POPC   C1A10407  33.032  15.930   8.555
 6131POPC   D2A10408  33.070  15.979   8.255
 6131POPC   C3A10409  33.040  15.929   7.955
 6131POPC   C4A10410  33.045  15.991   7.655
 6131POPC   C1B10411  32.846  16.129   8.555
 6131POPC   C2B10412  32.837  16.144   8.255
 6131POPC   C3B10413  32.784  16.077   7.955
 6131POPC   C4B10414  32.795  16.124   7.655
 6132POPC   NC310415  28.324  41.575   9.455
 6132POPC   PO410416  28.367  41.549   9.155
 6132POPC   GL110417  28.419  41.543   8.855
 6132POPC   GL210418  28.321  41.635   8.855
 6132POPC   C1A10419  28.411  41.529   8.555
 6132POPC   D2A10420  28.378  41.512   8.255
 6132POPC   C3A10421  28.407  41.589   7.955
 6132POPC   C4A10422  28.356  41.554   7.655
 6132POPC   C1B10423  28.302  41.739   8.555
 6132POPC   C2B10424  28.235  41.809   8.255
 6132POPC   C3B10425  28.209  41.801   7.955
 6132POPC   C4B10426  28.301  41.821   7.655
 6133POPC   NC310427  12.853  15.941   9.455
 6133POPC   PO410428  12.842  15.940   9.155
 6133POPC   GL110429  12.870  15.939   8.855
 6133POPC   GL210430  12.983  15.962   8.855
 6133POPC   C1A10431  12.872  15.954   8.555
 6133POPC   D2A10432  12.841  15.916   8.255
 6133POPC   C3A10433  12.890  15.976   7.955
 6133POPC   C4A10434  12.810  15.941   7.655
 6133POPC   C1B10435  13.136  15.971   8.555
 6133POPC   C2B10436  13.119  15.886   8.255
 6133POPC   C3B10437  13.075  15.932   7.955
 6133POPC   C4B10438  13.053  15.889   7.655
 6134POPC   NC310439   1.168  39.226   9.455
 6134POPC   PO410440   1.252  39.231   9.155
 6134POPC   GL110441   1.258  39.217   8.855
 6134POPC   GL210442   1.120  39.077   8.855
 6134POPC   C1A10443   1.230  39.215   8.555
 6134POPC   D2A10444   1.192  39.221   8.255
 6134POPC   C3A10445   1.173  39.272   7.955
 6134POPC   C4A10446   1.167  39.259   7.655
 6134POPC   C1B10447   1.107  38.990   8.555
 6134POPC   C2B10448   1.075  38.982   8.255
 6134POPC   C3B10449   1.118  39.044   7.955
 6134POPC   C4B10450   1.085  39.045   7.655
 6135POPC   NC310451  23.744  39.254   9.455
 6135POPC   PO410452  23.691  39.254   9.155
 6135POPC   GL110453  23.682  39.231   8.855
 6135POPC   GL210454  23.834  39.288   8.855
 6135POPC   C1A10455  23.686  39.197   8.555
 6135POPC   D2A10456  23.706  39.192   8.255
 6135POPC   C3A10457  23.724  39.203   7.955
 6135POPC   C4A10458  23.749  39.233   7.655
 6135POPC   C1B10459  23.990  39.278   8.555
 6135POPC   C2B10460  23.954  39.233   8.255
 6135POPC   C3B10461  23.982  39.223   7.955
 6135POPC   C4B10462  23.957  39.239   7.655
 6136POPC   NC310463  25.245  18.268   9.455
 6136POPC   PO410464  25.285  18.269   9.155
 6136POPC   GL110465  25.277  18.282   8.855
 6136POPC   GL210466  25.379  18.342   8.855
 6136POPC   C1A10467  25.252  18.257   8.555
 6136POPC   D2A10468  25.250  18.300   8.255
 6136POPC   C3A10469  25.270  18.271   7.955
 6136POPC   C4A10470  25.268  18.301   7.655
 6136POPC   C1B10471  25.495  18.298   8.555
 6136POPC   C2B10472  25.469  18.384   8.255
 6136POPC   C3B10473  25.492  18.291   7.955
 6136POPC   C4B10474  25.525  18.317   7.655
 6137POPC   NC310475  26.060   4.318   9.455
 6137POPC   PO410476  26.054   4.331   9.155
 6137POPC   GL110477  26.040   4.280   8.855
 6137POPC   GL210478  25.893   4.346   8.855
 6137POPC   C1A10479  26.090   4.288   8.555
 6137POPC   D2A10480  26.084   4.324   8.255
 6137POPC   C3A10481  26.035   4.289   7.955
 6137POPC   C4A10482  26.064   4.363   7.655
 6137POPC   C1B10483  25.776   4.298   8.555
 6137POPC   C2B10484  25.756   4.282   8.255
 6137POPC   C3B10485  25.814   4.355   7.955
 6137POPC   C4B10486  25.831   4.288   7.655
 6138POPC   NC310487  11.310   3.535   9.455
 6138POPC   PO410488  11.277   3.520   9.155
 6138POPC   GL110489  11.257   3.562   8.855
 6138POPC   GL210490  11.409   3.424   8.855
 6138POPC   C1A10491  11.321   3.503   8.555
 6138POPC   D2A10492  11.329   3.563   8.255
 6138POPC   C3A10493  11.342   3.563   7.955
 6138POPC   C4A10494  11.292   3.571   7.655
 6138POPC   C1B10495  11.447   3.353   8.555
 6138POPC   C2B10496  11.505   3.366   8.255
 6138POPC   C3B10497  11.445   3.351   7.955
 6138POPC   C4B10498  11.420   3.363   7.655
 6139POPC   NC310499  39.278   2.764   9.455
 6139POPC   PO410500  39.235   2.806   9.155
 6139POPC   GL110501  39.183   2.807   8.855
 6139POPC   GL210502  39.309   2.866   8.855
 6139POPC   C1A10503  39.182   2.749   8.555
 6139POPC   D2A10504  39.194   2.732   8.255
 6139POPC   C3A10505  39.204   2.759   7.955
 6139POPC   C4A10506  39.246   2.722   7.655
 6139POPC   C1B10507  39.433   2.867   8.555
 6139POPC   C2B10508  39.402   2.874   8.255
 6139POPC   C3B10509  39.459   2.902   7.955
 6139POPC   C4B10510  39.406   2.886   7.655
 6140POPC   NC310511  44.631  40.810   9.455
 6140POPC   PO410512  44.694  40.824   9.155
 6140POPC   GL110513  44.653  40.830   8.855
 6140POPC   GL210514  44.589  40.617   8.855
 6140POPC   C1A10515  44.688  40.808   8.555
 6140POPC   D2A10516  44.709  40.763   8.255
 6140POPC   C3A10517  44.614  40.794   7.955
 6140POPC   C4A10518  44.696  40.749   7.655
 6140POPC   C1B10519  44.590  40.582   8.555
 6140POPC   C2B10520  44.577  40.561   8.255
 6140POPC   C3B10521  44.577  40.554   7.955
 6140POPC   C4B10522  44.584  40.557   7.655
 6141POPC   NC310523  29.190   5.857   9.455
 6141POPC   PO410524  29.136   5.897   9.155
 6141POPC   GL110525  29.180   5.863   8.855
 6141POPC   GL210526  29.242   5.859   8.855
 6141POPC   C1A10527  29.140   5.912   8.555
 6141POPC   D2A10528  29.144   5.826   8.255
 6141POPC   C3A10529  29.191   5.907   7.955
 6141POPC   C4A10530  29.172   5.905   7.655
 6141POPC   C1B10531  29.355   5.773   8.555
 6141POPC   C2B10532  29.360   5.782   8.255
 6141POPC   C3B10533  29.408   5.792   7.955
 6141POPC   C4B10534  29.415   5.749   7.655
 6142POPC   NC310535  36.896  15.969   9.455
 6142POPC   PO410536  36.907  15.927   9.155
 6142POPC   GL110537  36.887  16.001   8.855
 6142POPC   GL210538  36.785  15.969   8.855
 6142POPC   C1A10539  36.951  15.930   8.555
 6142POPC   D2A10540  36.898  15.986   8.255
 6142POPC   C3A10541  36.938  15.909   7.955
 6142POPC   C4A10542  36.932  15.966   7.655
 6142POPC   C1B10543  36.676  16.109   8.555
 6142POPC   C2B10544  36.711  16.104   8.255
 6142POPC   C3B10545  36.705  16.031   7.955
 6142POPC   C4B10546  36.681  16.040   7.655
 6143POPC   NC310547  18.257  26.848   9.455
 6143POPC   PO410548  18.295  26.841   9.155
 6143POPC   GL110549  18.246  26.814   8.855
 6143POPC   GL210550  18.300  26.899   8.855
 6143POPC   C1A10551  18.286  26.815   8.555
 6143POPC   D2A10552  18.233  26.844   8.255
 6143POPC   C3A10553  18.326  26.834   7.955
 6143POPC   C4A10554  18.244  26.835   7.655
 6143POPC   C1B10555  18.376  27.015   8.555
 6143POPC   C2B10556  18.344  27.045   8.255
 6143POPC   C3B10557  18.369  27.031   7.955
 6143POPC   C4B10558  18.413  27.066   7.655
 6144POPC   NC310559  12.896  26.032   9.455
 6144POPC   PO410560  12.825  26.039   9.155
 6144POPC   GL110561  12.804  26.041   8.855
 6144POPC   GL210562  12.713  26.090   8.855
 6144POPC   C1A10563  12.880  26.079   8.555
 6144POPC   D2A10564  12.897  26.040   8.255
 6144POPC   C3A10565  12.869  26.073   7.955
 6144POPC   C4A10566  12.861  26.085   7.655
 6144POPC   C1B10567  12.688  26.207   8.555
 6144POPC   C2B10568  12.687  26.203   8.255
 6144POPC   C3B10569  12.631  26.174   7.955
 6144POPC   C4B10570  12.673  26.213   7.655
 6145POPC   NC310571   1.230  19.871   9.455
 6145POPC   PO410572   1.231  19.849   9.155
 6145POPC   GL110573   1.198  19.818   8.855
 6145POPC   GL210574   1.116  19.874   8.855
 6145POPC   C1A10575   1.226  19.855   8.555
 6145POPC   D2A10576   1.251  19.866   8.255
 6145POPC   C3A10577   1.212  19.829   7.955
 6145POPC   C4A10578   1.194  19.872   7.655
 6145POPC   C1B10579   1.013  20.025   8.555
 6145POPC   C2B10580   1.040  20.026   8.255
 6145POPC   C3B10581   1.079  20.046   7.955
 6145POPC   C4B10582   1.016  20.010   7.655
 6146POPC   NC310583   5.868  43.077   9.455
 6146POPC   PO410584   5.902  43.115   9.155
 6146POPC   GL110585   5.884  43.139   8.855
 6146POPC   GL210586   5.884  43.039   8.855
 6146POPC   C1A10587   5.829  43.076   8.555
 6146POPC   D2A10588   5.877  43.150   8.255
 6146POPC   C3A10589   5.828  43.091   7.955
 6146POPC   C4A10590   5.825  43.126   7.655
 6146POPC   C1B10591   5.945  42.915   8.555
 6146POPC   C2B10592   5.893  42.875   8.255
 6146POPC   C3B10593   5.913  42.821   7.955
 6146POPC   C4B10594   5.975  42.910   7.655
 6147POPC   NC310595  28.326   0.450   9.455
 6147POPC   PO410596  28.326   0.408   9.155
 6147POPC   GL110597  28.374   0.426   8.855
 6147POPC   GL210598  28.474   0.324   8.855
 6147POPC   C1A10599  28.342   0.468   8.555
 6147POPC   D2A10600  28.392   0.440   8.255
 6147POPC   C3A10601  28.359   0.483   7.955
 6147POPC   C4A10602  28.415   0.480   7.655
 6147POPC   C1B10603  28.525   0.250   8.555
 6147POPC   C2B10604  28.576   0.259   8.255
 6147POPC   C3B10605  28.555   0.324   7.955
 6147POPC   C4B10606  28.589   0.273   7.655
 6148POPC   NC310607  28.393  13.655   9.455
 6148POPC   PO410608  28.354  13.613   9.155
 6148POPC   GL110609  28.367  13.599   8.855
 6148POPC   GL210610  28.439  13.658   8.855
 6148POPC   C1A10611  28.381  13.658   8.555
 6148POPC   D2A10612  28.418  13.669   8.255
 6148POPC   C3A10613  28.389  13.594   7.955
 6148POPC   C4A10614  28.415  13.643   7.655
 6148POPC   C1B10615  28.548  13.783   8.555
 6148POPC   C2B10616  28.588  13.789   8.255
 6148POPC   C3B10617  28.615  13.728   7.955
 6148POPC   C4B10618  28.552  13.811   7.655
 6149POPC   NC310619  37.702  41.545   9.455
 6149POPC   PO410620  37.675  41.538   9.155
 6149POPC   GL110621  37.645  41.591   8.855
 6149POPC   GL210622  37.659  41.716   8.855
 6149POPC   C1A10623  37.729  41.525   8.555
 6149POPC   D2A10624  37.694  41.579   8.255
 6149POPC   C3A10625  37.670  41.540   7.955
 6149POPC   C4A10626  37.680  41.522   7.655
 6149POPC   C1B10627  37.710  41.858   8.555
 6149POPC   C2B10628  37.718  41.857   8.255
 6149POPC   C3B10629  37.655  41.799   7.955
 6149POPC   C4B10630  37.675  41.776   7.655
 6150POPC   NC310631   3.559  16.738   9.455
 6150POPC   PO410632   3.541  16.716   9.155
 6150POPC   GL110633   3.572  16.776   8.855
 6150POPC   GL210634   3.578  16.633   8.855
 6150POPC   C1A10635   3.560  16.771   8.555
 6150POPC   D2A10636   3.539  16.741   8.255
 6150POPC   C3A10637   3.495  16.779   7.955
 6150POPC   C4A10638   3.565  16.714   7.655
 6150POPC   C1B10639   3.633  16.527   8.555
 6150POPC   C2B10640   3.660  16.547   8.255
 6150POPC   C3B10641   3.655  16.477   7.955
 6150POPC   C4B10642   3.668  16.465   7.655
 6151POPC   NC310643  23.756  43.095   9.455
 6151POPC   PO410644  23.711  43.109   9.155
 6151POPC   GL110645  23.721  43.093   8.855
 6151POPC   GL210646  23.576  43.190   8.855
 6151POPC   C1A10647  23.747  43.114   8.555
 6151POPC   D2A10648  23.695  43.141   8.255
 6151POPC   C3A10649  23.677  43.098   7.955
 6151POPC   C4A10650  23.675  43.129   7.655
 6151POPC   C1B10651  23.507  43.264   8.555
 6151POPC   C2B10652  23.470  43.295   8.255
 6151POPC   C3B10653  23.529  43.237   7.955
 6151POPC   C4B10654  23.522  43.252   7.655
 6152POPC   NC310655  21.365  14.449   9.455
 6152POPC   PO410656  21.340  14.400   9.155
 6152POPC   GL110657  21.424  14.425   8.855
 6152POPC   GL210658  21.311  14.310   8.855
 6152POPC   C1A10659  21.371  14.420   8.555
 6152POPC   D2A10660  21.426  14.444   8.255
 6152POPC   C3A10661  21.370  14.360   7.955
 6152POPC   C4A10662  21.401  14.367   7.655
 6152POPC   C1B10663  21.244  14.222   8.555
 6152POPC   C2B10664  21.273  14.229   8.255
 6152POPC   C3B10665  21.219  14.212   7.955
 6152POPC   C4B10666  21.262  14.220   7.655
 6153POPC   NC310667   3.546   8.934   9.455
 6153POPC   PO410668   3.494   9.000   9.155
 6153POPC   GL110669   3.584   8.970   8.855
 6153POPC   GL210670   3.616   8.998   8.855
 6153POPC   C1A10671   3.544   8.997   8.555
 6153POPC   D2A10672   3.558   8.995   8.255
 6153POPC   C3A10673   3.507   9.019   7.955
 6153POPC   C4A10674   3.524   8.998   7.655
 6153POPC   C1B10675   3.770   9.139   8.555
 6153POPC   C2B10676   3.785   9.066   8.255
 6153POPC   C3B10677   3.747   9.139   7.955
 6153POPC   C4B10678   3.721   9.071   7.655
 6154POPC   NC310679   3.585  13.584   9.455
 6154POPC   PO410680   3.575  13.623   9.155
 6154POPC   GL110681   3.581  13.600   8.855
 6154POPC   GL210682   3.556  13.485   8.855
 6154POPC   C1A10683   3.511  13.625   8.555
 6154POPC   D2A10684   3.501  13.630   8.255
 6154POPC   C3A10685   3.583  13.621   7.955
 6154POPC   C4A10686   3.521  13.616   7.655
 6154POPC   C1B10687   3.676  13.450   8.555
 6154POPC   C2B10688   3.686  13.414   8.255
 6154POPC   C3B10689   3.694  13.399   7.955
 6154POPC   C4B10690   3.654  13.361   7.655
 6155POPC   NC310691   0.415  21.357   9.455
 6155POPC   PO410692   0.440  21.411   9.155
 6155POPC   GL110693   0.427  21.414   8.855
 6155POPC   GL210694   0.579  21.350   8.855
 6155POPC   C1A10695   0.428  21.342   8.555
 6155POPC   D2A10696   0.389  21.384   8.255
 6155POPC   C3A10697   0.481  21.345   7.955
 6155POPC   C4A10698   0.402  21.426   7.655
 6155POPC   C1B10699   0.649  21.213   8.555
 6155POPC   C2B10700   0.658  21.253   8.255
 6155POPC   C3B10701   0.642  21.254   7.955
 6155POPC   C4B10702   0.619  21.301   7.655
 6156POPC   NC310703  22.158  37.637   9.455
 6156POPC   PO410704  22.142  37.650   9.155
 6156POPC   GL110705  22.172  37.696   8.855
 6156POPC   GL210706  22.233  37.617   8.855
 6156POPC   C1A10707  22.183  37.707   8.555
 6156POPC   D2A10708  22.173  37.650   8.255
 6156POPC   C3A10709  22.193  37.709   7.955
 6156POPC   C4A10710  22.170  37.697   7.655
 6156POPC   C1B10711  22.440  37.585   8.555
 6156POPC   C2B10712  22.374  37.539   8.255
 6156POPC   C3B10713  22.420  37.620   7.955
 6156POPC   C4B10714  22.343  37.545   7.655
 6157POPC   NC310715  32.235  22.914   9.455
 6157POPC   PO410716  32.242  22.927   9.155
 6157POPC   GL110717  32.203  22.916   8.855
 6157POPC   GL210718  32.200  23.059   8.855
 6157POPC   C1A10719  32.256  22.956   8.555
 6157POPC   D2A10720  32.285  22.905   8.255
 6157POPC   C3A10721  32.213  22.936   7.955
 6157POPC   C4A10722  32.215  22.921   7.655
 6157POPC   C1B10723  32.208  23.171   8.555
 6157POPC   C2B10724  32.130  23.185   8.255
 6157POPC   C3B10725  32.182  23.153   7.955
 6157POPC   C4B10726  32.156  23.188   7.655
 6158POPC   NC310727  12.836  41.599   9.455
 6158POPC   PO410728  12.842  41.604   9.155
 6158POPC   GL110729  12.852  41.567   8.855
 6158POPC   GL210730  13.012  41.546   8.855
 6158POPC   C1A10731  12.843  41.558   8.555
 6158POPC   D2A10732  12.864  41.517   8.255
 6158POPC   C3A10733  12.865  41.597   7.955
 6158POPC   C4A10734  12.823  41.601   7.655
 6158POPC   C1B10735  13.122  41.621   8.555
 6158POPC   C2B10736  13.145  41.626   8.255
 6158POPC   C3B10737  13.061  41.625   7.955
 6158POPC   C4B10738  13.138  41.548   7.655
 6159POPC   NC310739  29.938  10.489   9.455
 6159POPC   PO410740  29.871  10.523   9.155
 6159POPC   GL110741  29.913  10.491   8.855
 6159POPC   GL210742  29.930  10.364   8.855
 6159POPC   C1A10743  29.913  10.479   8.555
 6159POPC   D2A10744  29.968  10.547   8.255
 6159POPC   C3A10745  29.888  10.525   7.955
 6159POPC   C4A10746  29.888  10.515   7.655
 6159POPC   C1B10747  29.892  10.241   8.555
 6159POPC   C2B10748  29.815  10.273   8.255
 6159POPC   C3B10749  29.827  10.334   7.955
 6159POPC   C4B10750  29.836  10.238   7.655
 6160POPC   NC310751   4.328  38.454   9.455
 6160POPC   PO410752   4.347  38.469   9.155
 6160POPC   GL110753   4.279  38.501   8.855
 6160POPC   GL210754   4.458  38.402   8.855
 6160POPC   C1A10755   4.275  38.414   8.555
 6160POPC   D2A10756   4.273  38.420   8.255
 6160POPC   C3A10757   4.323  38.438   7.955
 6160POPC   C4A10758   4.294  38.424   7.655
 6160POPC   C1B10759   4.542  38.358   8.555
 6160POPC   C2B10760   4.503  38.358   8.255
 6160POPC   C3B10761   4.538  38.325   7.955
 6160POPC   C4B10762   4.498  38.330   7.655
 6161POPC   NC310763  29.878  25.292   9.455
 6161POPC   PO410764  29.931  25.288   9.155
 6161POPC   GL110765  29.877  25.236   8.855
 6161POPC   GL210766  29.895  25.377   8.855
 6161POPC   C1A10767  29.884  25.282   8.555
 6161POPC   D2A10768  29.947  25.233   8.255
 6161POPC   C3A10769  29.968  25.240   7.955
 6161POPC   C4A10770  29.951  25.286   7.655
 6161POPC   C1B10771  29.811  25.529   8.555
 6161POPC   C2B10772  29.836  25.474   8.255
 6161POPC   C3B10773  29.809  25.498   7.955
 6161POPC   C4B10774  29.804  25.463   7.655
 6162POPC   NC310775   5.055  12.035   9.455
 6162POPC   PO410776   5.083  12.027   9.155
 6162POPC   GL110777   5.136  12.035   8.855
 6162POPC   GL210778   5.124  12.206   8.855
 6162POPC   C1A10779   5.083  12.068   8.555
 6162POPC   D2A10780   5.132  12.106   8.255
 6162POPC   C3A10781   5.108  12.070   7.955
 6162POPC   C4A10782   5.113  12.080   7.655
 6162POPC   C1B10783   5.253  12.328   8.555
 6162POPC   C2B10784   5.188  12.284   8.255
 6162POPC   C3B10785   5.267  12.282   7.955
 6162POPC   C4B10786   5.239  12.245   7.655
 6163POPC   NC310787  30.740  29.897   9.455
 6163POPC   PO410788  30.666  29.954   9.155
 6163POPC   GL110789  30.678  29.878   8.855
 6163POPC   GL210790  30.543  29.813   8.855
 6163POPC   C1A10791  30.657  29.897   8.555
 6163POPC   D2A10792  30.723  29.931   8.255
 6163POPC   C3A10793  30.656  29.875   7.955
 6163POPC   C4A10794  30.697  29.937   7.655
 6163POPC   C1B10795  30.524  29.799   8.555
 6163POPC   C2B10796  30.507  29.826   8.255
 6163POPC   C3B10797  30.439  29.810   7.955
 6163POPC   C4B10798  30.479  29.745   7.655
 6164POPC   NC310799  25.245  36.086   9.455
 6164POPC   PO410800  25.300  36.156   9.155
 6164POPC   GL110801  25.253  36.141   8.855
 6164POPC   GL210802  25.166  36.213   8.855
 6164POPC   C1A10803  25.225  36.137   8.555
 6164POPC   D2A10804  25.261  36.160   8.255
 6164POPC   C3A10805  25.277  36.154   7.955
 6164POPC   C4A10806  25.279  36.121   7.655
 6164POPC   C1B10807  25.154  36.302   8.555
 6164POPC   C2B10808  25.127  36.345   8.255
 6164POPC   C3B10809  25.112  36.342   7.955
 6164POPC   C4B10810  25.130  36.306   7.655
 6165POPC   NC310811  15.946  29.956   9.455
 6165POPC   PO410812  15.938  29.964   9.155
 6165POPC   GL110813  15.943  29.923   8.855
 6165POPC   GL210814  15.950  29.769   8.855
 6165POPC   C1A10815  15.962  29.923   8.555
 6165POPC   D2A10816  15.922  29.888   8.255
 6165POPC   C3A10817  16.002  29.953   7.955
 6165POPC   C4A10818  15.983  29.937   7.655
 6165POPC   C1B10819  15.828  29.720   8.555
 6165POPC   C2B10820  15.899  29.655   8.255
 6165POPC   C3B10821  15.821  29.721   7.955
 6165POPC   C4B10822  15.818  29.668   7.655
 6166POPC   NC310823  43.838  25.262   9.455
 6166POPC   PO410824  43.899  25.217   9.155
 6166POPC   GL110825  43.867  25.248   8.855
 6166POPC   GL210826  43.817  25.161   8.855
 6166POPC   C1A10827  43.873  25.299   8.555
 6166POPC   D2A10828  43.894  25.285   8.255
 6166POPC   C3A10829  43.928  25.245   7.955
 6166POPC   C4A10830  43.874  25.305   7.655
 6166POPC   C1B10831  43.675  25.080   8.555
 6166POPC   C2B10832  43.718  25.141   8.255
 6166POPC   C3B10833  43.731  25.116   7.955
 6166POPC   C4B10834  43.704  25.104   7.655
 6167POPC   NC310835  32.277  15.202   9.455
 6167POPC   PO410836  32.215  15.184   9.155
 6167POPC   GL110837  32.228  15.195   8.855
 6167POPC   GL210838  32.287  15.320   8.855
 6167POPC   C1A10839  32.236  15.142   8.555
 6167POPC   D2A10840  32.209  15.151   8.255
 6167POPC   C3A10841  32.259  15.208   7.955
 6167POPC   C4A10842  32.239  15.139   7.655
 6167POPC   C1B10843  32.374  15.408   8.555
 6167POPC   C2B10844  32.365  15.402   8.255
 6167POPC   C3B10845  32.357  15.357   7.955
 6167POPC   C4B10846  32.331  15.402   7.655
 6168POPC   NC310847  33.785  22.126   9.455
 6168POPC   PO410848  33.804  22.169   9.155
 6168POPC   GL110849  33.765  22.117   8.855
 6168POPC   GL210850  33.916  22.177   8.855
 6168POPC   C1A10851  33.753  22.124   8.555
 6168POPC   D2A10852  33.769  22.199   8.255
 6168POPC   C3A10853  33.844  22.142   7.955
 6168POPC   C4A10854  33.836  22.198   7.655
 6168POPC   C1B10855  33.986  22.305   8.555
 6168POPC   C2B10856  34.062  22.271   8.255
 6168POPC   C3B10857  34.069  22.241   7.955
 6168POPC   C4B10858  34.075  22.243   7.655
 6169POPC   NC310859  39.192  39.281   9.455
 6169POPC   PO410860  39.197  39.212   9.155
 6169POPC   GL110861  39.256  39.220   8.855
 6169POPC   GL210862  39.153  39.175   8.855
 6169POPC   C1A10863  39.190  39.271   8.555
 6169POPC   D2A10864  39.223  39.272   8.255
 6169POPC   C3A10865  39.223  39.220   7.955
 6169POPC   C4A10866  39.225  39.186   7.655
 6169POPC   C1B10867  39.009  39.114   8.555
 6169POPC   C2B10868  38.951  39.134   8.255
 6169POPC   C3B10869  38.979  39.174   7.955
 6169POPC   C4B10870  38.986  39.194   7.655
 6170POPC   NC310871  12.110  22.921   9.455
 6170POPC   PO410872  12.053  22.889   9.155
 6170POPC   GL110873  12.049  22.924   8.855
 6170POPC   GL210874  12.063  23.081   8.855
 6170POPC   C1A10875  12.042  22.904   8.555
 6170POPC   D2A10876  12.050  22.890   8.255
 6170POPC   C3A10877  12.058  22.919   7.955
 6170POPC   C4A10878  12.096  22.899   7.655
 6170POPC   C1B10879  11.983  23.164   8.555
 6170POPC   C2B10880  11.959  23.144   8.255
 6170POPC   C3B10881  11.951  23.159   7.955
 6170POPC   C4B10882  11.964  23.165   7.655
 6171POPC   NC310883  10.477  12.889   9.455
 6171POPC   PO410884  10.520  12.856   9.155
 6171POPC   GL110885  10.497  12.858   8.855
 6171POPC   GL210886  10.609  12.934   8.855
 6171POPC   C1A10887  10.504  12.816   8.555
 6171POPC   D2A10888  10.534  12.830   8.255
 6171POPC   C3A10889  10.569  12.899   7.955
 6171POPC   C4A10890  10.521  12.883   7.655
 6171POPC   C1B10891  10.664  13.077   8.555
 6171POPC   C2B10892  10.643  13.094   8.255
 6171POPC   C3B10893  10.639  13.108   7.955
 6171POPC   C4B10894  10.644  13.060   7.655
 6172POPC   NC310895  33.067  22.898   9.455
 6172POPC   PO410896  33.065  22.919   9.155
 6172POPC   GL110897  33.007  22.915   8.855
 6172POPC   GL210898  32.867  23.001   8.855
 6172POPC   C1A10899  33.057  22.920   8.555
 6172POPC   D2A10900  33.048  22.915   8.255
 6172POPC   C3A10901  32.977  22.965   7.955
 6172POPC   C4A10902  32.996  22.920   7.655
 6172POPC   C1B10903  32.832  23.022   8.555
 6172POPC   C2B10904  32.773  23.026   8.255
 6172POPC   C3B10905  32.833  23.038   7.955
 6172POPC   C4B10906  32.771  23.023   7.655
 6173POPC   NC310907  18.310  44.658   9.455
 6173POPC   PO410908  18.259  44.612   9.155
 6173POPC   GL110909  18.326  44.627   8.855
 6173POPC   GL210910  18.138  44.693   8.855
 6173POPC   C1A10911  18.292  44.615   8.555
 6173POPC   D2A10912  18.310  44.691   8.255
 6173POPC   C3A10913  18.254  44.706   7.955
 6173POPC   C4A10914  18.241  44.709   7.655
 6173POPC   C1B10915  18.073  44.685   8.555
 6173POPC   C2B10916  18.048  44.726   8.255
 6173POPC   C3B10917  18.068  44.679   7.955
 6173POPC   C4B10918  18.008  44.658   7.655
 6174POPC   NC310919  29.148  11.259   9.455
 6174POPC   PO410920  29.144  11.270   9.155
 6174POPC   GL110921  29.187  11.346   8.855
 6174POPC   GL210922  29.049  11.416   8.855
 6174POPC   C1A10923  29.161  11.268   8.555
 6174POPC   D2A10924  29.159  11.324   8.255
 6174POPC   C3A10925  29.168  11.271   7.955
 6174POPC   C4A10926  29.176  11.320   7.655
 6174POPC   C1B10927  28.946  11.492   8.555
 6174POPC   C2B10928  28.903  11.436   8.255
 6174POPC   C3B10929  28.949  11.428   7.955
 6174POPC   C4B10930  28.975  11.493   7.655
 6175POPC   NC310931  12.811  39.977   9.455
 6175POPC   PO410932  12.842  39.987   9.155
 6175POPC   GL110933  12.876  40.018   8.855
 6175POPC   GL210934  12.750  39.918   8.855
 6175POPC   C1A10935  12.843  40.024   8.555
 6175POPC   D2A10936  12.899  39.981   8.255
 6175POPC   C3A10937  12.810  40.008   7.955
 6175POPC   C4A10938  12.820  39.990   7.655
 6175POPC   C1B10939  12.779  39.779   8.555
 6175POPC   C2B10940  12.766  39.800   8.255
 6175POPC   C3B10941  12.748  39.800   7.955
 6175POPC   C4B10942  12.700  39.820   7.655
 6176POPC   NC310943  42.292  16.698   9.455
 6176POPC   PO410944  42.347  16.744   9.155
 6176POPC   GL110945  42.310  16.709   8.855
 6176POPC   GL210946  42.332  16.895   8.855
 6176POPC   C1A10947  42.313  16.724   8.555
 6176POPC   D2A10948  42.331  16.748   8.255
 6176POPC   C3A10949  42.296  16.732   7.955
 6176POPC   C4A10950  42.361  16.750   7.655
 6176POPC   C1B10951  42.384  16.931   8.555
 6176POPC   C2B10952  42.372  16.997   8.255
 6176POPC   C3B10953  42.339  16.999   7.955
 6176POPC   C4B10954  42.394  16.997   7.655
 6177POPC   NC310955  43.919  28.413   9.455
 6177POPC   PO410956  43.882  28.369   9.155
 6177POPC   GL110957  43.868  28.359   8.855
 6177POPC   GL210958  43.769  28.409   8.855
 6177POPC   C1A10959  43.914  28.351   8.555
 6177POPC   D2A10960  43.865  28.388   8.255
 6177POPC   C3A10961  43.920  28.417   7.955
 6177POPC   C4A10962  43.921  28.403   7.655
 6177POPC   C1B10963  43.646  28.398   8.555
 6177POPC   C2B10964  43.605  28.466   8.255
 6177POPC   C3B10965  43.688  28.427   7.955
 6177POPC   C4B10966  43.625  28.395   7.655
 6178POPC   NC310967   0.416  12.826   9.455
 6178POPC   PO410968   0.452  12.829   9.155
 6178POPC   GL110969   0.458  12.889   8.855
 6178POPC   GL210970   0.433  12.692   8.855
 6178POPC   C1A10971   0.417  12.900   8.555
 6178POPC   D2A10972   0.407  12.854   8.255
 6178POPC   C3A10973   0.438  12.883   7.955
 6178POPC   C4A10974   0.486  12.879   7.655
 6178POPC   C1B10975   0.378  12.631   8.555
 6178POPC   C2B10976   0.342  12.575   8.255
 6178POPC   C3B10977   0.344  12.625   7.955
 6178POPC   C4B10978   0.349  12.602   7.655
 6179POPC   NC310979  22.183  15.164   9.455
 6179POPC   PO410980  22.163  15.150   9.155
 6179POPC   GL110981  22.133  15.157   8.855
 6179POPC   GL210982  22.251  15.181   8.855
 6179POPC   C1A10983  22.200  15.151   8.555
 6179POPC   D2A10984  22.135  15.164   8.255
 6179POPC   C3A10985  22.206  15.197   7.955
 6179POPC   C4A10986  22.139  15.165   7.655
 6179POPC   C1B10987  22.445  15.276   8.555
 6179POPC   C2B10988  22.451  15.278   8.255
 6179POPC   C3B10989  22.386  15.227   7.955
 6179POPC   C4B10990  22.396  15.212   7.655
 6180POPC   NC310991   7.396  22.900   9.455
 6180POPC   PO410992   7.379  22.982   9.155
 6180POPC   GL110993   7.456  22.941   8.855
 6180POPC   GL210994   7.571  22.857   8.855
 6180POPC   C1A10995   7.443  22.951   8.555
 6180POPC   D2A10996   7.374  22.936   8.255
 6180POPC   C3A10997   7.417  22.923   7.955
 6180POPC   C4A10998   7.470  22.918   7.655
 6180POPC   C1B10999   7.681  22.861   8.555
 6180POPC   C2B11000   7.681  22.888   8.255
 6180POPC   C3B11001   7.636  22.836   7.955
 6180POPC   C4B11002   7.618  22.808   7.655
 6181POPC   NC311003  33.760   4.284   9.455
 6181POPC   PO411004  33.763   4.315   9.155
 6181POPC   GL111005  33.768   4.318   8.855
 6181POPC   GL211006  33.953   4.343   8.855
 6181POPC   C1A11007  33.767   4.357   8.555
 6181POPC   D2A11008  33.804   4.356   8.255
 6181POPC   C3A11009  33.843   4.282   7.955
 6181POPC   C4A11010  33.850   4.292   7.655
 6181POPC   C1B11011  34.040   4.413   8.555
 6181POPC   C2B11012  33.989   4.438   8.255
 6181POPC   C3B11013  34.013   4.442   7.955
 6181POPC   C4B11014  34.011   4.403   7.655
 6182POPC   NC311015  36.915  15.227   9.455
 6182POPC   PO411016  36.914  15.151   9.155
 6182POPC   GL111017  36.925  15.146   8.855
 6182POPC   GL211018  36.780  15.218   8.855
 6182POPC   C1A11019  36.883  15.186   8.555
 6182POPC   D2A11020  36.917  15.202   8.255
 6182POPC   C3A11021  36.886  15.227   7.955
 6182POPC   C4A11022  36.933  15.228   7.655
 6182POPC   C1B11023  36.673  15.312   8.555
 6182POPC   C2B11024  36.718  15.273   8.255
 6182POPC   C3B11025  36.652  15.254   7.955
 6182POPC   C4B11026  36.649  15.305   7.655
 6183POPC   NC311027  39.208  13.674   9.455
 6183POPC   PO411028  39.227  13.599   9.155
 6183POPC   GL111029  39.268  13.594   8.855
 6183POPC   GL211030  39.357  13.557   8.855
 6183POPC   C1A11031  39.214  13.603   8.555
 6183POPC   D2A11032  39.237  13.578   8.255
 6183POPC   C3A11033  39.255  13.624   7.955
 6183POPC   C4A11034  39.188  13.593   7.655
 6183POPC   C1B11035  39.445  13.471   8.555
 6183POPC   C2B11036  39.482  13.447   8.255
 6183POPC   C3B11037  39.421  13.482   7.955
 6183POPC   C4B11038  39.384  13.456   7.655
 6184POPC   NC311039  21.423  34.574   9.455
 6184POPC   PO411040  21.391  34.560   9.155
 6184POPC   GL111041  21.376  34.543   8.855
 6184POPC   GL211042  21.314  34.497   8.855
 6184POPC   C1A11043  21.393  34.586   8.555
 6184POPC   D2A11044  21.395  34.538   8.255
 6184POPC   C3A11045  21.355  34.590   7.955
 6184POPC   C4A11046  21.360  34.539   7.655
 6184POPC   C1B11047  21.127  34.451   8.555
 6184POPC   C2B11048  21.139  34.463   8.255
 6184POPC   C3B11049  21.195  34.473   7.955
 6184POPC   C4B11050  21.207  34.460   7.655
 6185POPC   NC311051  37.697  18.288   9.455
 6185POPC   PO411052  37.700  18.302   9.155
 6185POPC   GL111053  37.651  18.314   8.855
 6185POPC   GL211054  37.701  18.385   8.855
 6185POPC   C1A11055  37.716  18.243   8.555
 6185POPC   D2A11056  37.722  18.269   8.255
 6185POPC   C3A11057  37.717  18.235   7.955
 6185POPC   C4A11058  37.717  18.266   7.655
 6185POPC   C1B11059  37.618  18.536   8.555
 6185POPC   C2B11060  37.697  18.495   8.255
 6185POPC   C3B11061  37.661  18.569   7.955
 6185POPC   C4B11062  37.647  18.550   7.655
 6186POPC   NC311063  12.125  28.417   9.455
 6186POPC   PO411064  12.055  28.350   9.155
 6186POPC   GL111065  12.027  28.338   8.855
 6186POPC   GL211066  11.972  28.453   8.855
 6186POPC   C1A11067  12.110  28.400   8.555
 6186POPC   D2A11068  12.079  28.417   8.255
 6186POPC   C3A11069  12.099  28.369   7.955
 6186POPC   C4A11070  12.086  28.363   7.655
 6186POPC   C1B11071  11.866  28.536   8.555
 6186POPC   C2B11072  11.878  28.536   8.255
 6186POPC   C3B11073  11.903  28.501   7.955
 6186POPC   C4B11074  11.923  28.514   7.655
 6187POPC   NC311075  25.995  39.968   9.455
 6187POPC   PO411076  26.075  40.024   9.155
 6187POPC   GL111077  26.022  40.003   8.855
 6187POPC   GL211078  26.041  40.088   8.855
 6187POPC   C1A11079  26.067  40.026   8.555
 6187POPC   D2A11080  26.073  39.963   8.255
 6187POPC   C3A11081  26.078  39.997   7.955
 6187POPC   C4A11082  25.997  39.961   7.655
 6187POPC   C1B11083  26.017  40.210   8.555
 6187POPC   C2B11084  26.065  40.218   8.255
 6187POPC   C3B11085  26.097  40.286   7.955
 6187POPC   C4B11086  26.102  40.269   7.655
 6188POPC   NC311087  29.154   1.175   9.455
 6188POPC   PO411088  29.161   1.174   9.155
 6188POPC   GL111089  29.129   1.172   8.855
 6188POPC   GL211090  29.177   1.136   8.855
 6188POPC   C1A11091  29.189   1.187   8.555
 6188POPC   D2A11092  29.117   1.207   8.255
 6188POPC   C3A11093  29.113   1.249   7.955
 6188POPC   C4A11094  29.141   1.239   7.655
 6188POPC   C1B11095  29.122   0.921   8.555
 6188POPC   C2B11096  29.137   0.948   8.255
 6188POPC   C3B11097  29.130   0.927   7.955
 6188POPC   C4B11098  29.145   0.956   7.655
 6189POPC   NC311099  33.789  29.912   9.455
 6189POPC   PO411100  33.795  29.883   9.155
 6189POPC   GL111101  33.784  29.884   8.855
 6189POPC   GL211102  33.755  29.773   8.855
 6189POPC   C1A11103  33.807  29.951   8.555
 6189POPC   D2A11104  33.831  29.950   8.255
 6189POPC   C3A11105  33.772  29.969   7.955
 6189POPC   C4A11106  33.799  29.950   7.655
 6189POPC   C1B11107  33.831  29.681   8.555
 6189POPC   C2B11108  33.768  29.639   8.255
 6189POPC   C3B11109  33.764  29.634   7.955
 6189POPC   C4B11110  33.789  29.696   7.655
 6190POPC   NC311111  12.088  21.377   9.455
 6190POPC   PO411112  12.116  21.426   9.155
 6190POPC   GL111113  12.080  21.345   8.855
 6190POPC   GL211114  12.122  21.320   8.855
 6190POPC   C1A11115  12.032  21.396   8.555
 6190POPC   D2A11116  12.111  21.402   8.255
 6190POPC   C3A11117  12.115  21.364   7.955
 6190POPC   C4A11118  12.095  21.420   7.655
 6190POPC   C1B11119  12.208  21.145   8.555
 6190POPC   C2B11120  12.168  21.120   8.255
 6190POPC   C3B11121  12.227  21.136   7.955
 6190POPC   C4B11122  12.211  21.185   7.655
 6191POPC   NC311123  43.129  12.034   9.455
 6191POPC   PO411124  43.126  12.066   9.155
 6191POPC   GL111125  43.121  12.058   8.855
 6191POPC   GL211126  43.198  11.996   8.855
 6191POPC   C1A11127  43.156  12.122   8.555
 6191POPC   D2A11128  43.157  12.120   8.255
 6191POPC   C3A11129  43.142  12.044   7.955
 6191POPC   C4A11130  43.151  12.093   7.655
 6191POPC   C1B11131  43.297  11.936   8.555
 6191POPC   C2B11132  43.316  11.957   8.255
 6191POPC   C3B11133  43.353  11.910   7.955
 6191POPC   C4B11134  43.315  11.922   7.655
 6192POPC   NC311135   9.017  25.260   9.455
 6192POPC   PO411136   8.938  25.282   9.155
 6192POPC   GL111137   9.002  25.247   8.855
 6192POPC   GL211138   8.965  25.343   8.855
 6192POPC   C1A11139   8.938  25.265   8.555
 6192POPC   D2A11140   8.983  25.270   8.255
 6192POPC   C3A11141   8.951  25.241   7.955
 6192POPC   C4A11142   9.022  25.276   7.655
 6192POPC   C1B11143   8.959  25.551   8.555
 6192POPC   C2B11144   8.940  25.520   8.255
 6192POPC   C3B11145   8.944  25.466   7.955
 6192POPC   C4B11146   9.003  25.502   7.655
 6193POPC   NC311147  33.840  17.499   9.455
 6193POPC   PO411148  33.754  17.507   9.155
 6193POPC   GL111149  33.791  17.512   8.855
 6193POPC   GL211150  33.836  17.440   8.855
 6193POPC   C1A11151  33.798  17.519   8.555
 6193POPC   D2A11152  33.810  17.549   8.255
 6193POPC   C3A11153  33.816  17.481   7.955
 6193POPC   C4A11154  33.816  17.521   7.655
 6193POPC   C1B11155  33.948  17.340   8.555
 6193POPC   C2B11156  33.930  17.353   8.255
 6193POPC   C3B11157  33.938  17.292   7.955
 6193POPC   C4B11158  33.974  17.318   7.655
 6194POPC   NC311159  44.688  39.190   9.455
 6194POPC   PO411160  44.647  39.185   9.155
 6194POPC   GL111161  44.615  39.233   8.855
 6194POPC   GL211162  44.553  39.239   8.855
 6194POPC   C1A11163  44.688  39.248   8.555
 6194POPC   D2A11164  44.629  39.185   8.255
 6194POPC   C3A11165  44.667  39.255   7.955
 6194POPC   C4A11166  44.628  39.192   7.655
 6194POPC   C1B11167  44.429  39.206   8.555
 6194POPC   C2B11168  44.375  39.168   8.255
 6194POPC   C3B11169  44.452  39.225   7.955
 6194POPC   C4B11170  44.389  39.244   7.655
 6195POPC   NC311171  34.605  41.561   9.455
 6195POPC   PO411172  34.528  41.557   9.155
 6195POPC   GL111173  34.602  41.588   8.855
 6195POPC   GL211174  34.708  41.666   8.855
 6195POPC   C1A11175  34.591  41.520   8.555
 6195POPC   D2A11176  34.580  41.516   8.255
 6195POPC   C3A11177  34.564  41.582   7.955
 6195POPC   C4A11178  34.559  41.574   7.655
 6195POPC   C1B11179  34.771  41.705   8.555
 6195POPC   C2B11180  34.801  41.701   8.255
 6195POPC   C3B11181  34.767  41.694   7.955
 6195POPC   C4B11182  34.801  41.656   7.655
 6196POPC   NC311183  41.564  40.832   9.455
 6196POPC   PO411184  41.531  40.801   9.155
 6196POPC   GL111185  41.591  40.829   8.855
 6196POPC   GL211186  41.620  40.853   8.855
 6196POPC   C1A11187  41.594  40.766   8.555
 6196POPC   D2A11188  41.552  40.777   8.255
 6196POPC   C3A11189  41.545  40.733   7.955
 6196POPC   C4A11190  41.543  40.753   7.655
 6196POPC   C1B11191  41.728  40.974   8.555
 6196POPC   C2B11192  41.697  40.946   8.255
 6196POPC   C3B11193  41.695  40.963   7.955
 6196POPC   C4B11194  41.684  41.018   7.655
 6197POPC   NC311195  17.510  31.433   9.455
 6197POPC   PO411196  17.512  31.507   9.155
 6197POPC   GL111197  17.513  31.441   8.855
 6197POPC   GL211198  17.646  31.379   8.855
 6197POPC   C1A11199  17.525  31.467   8.555
 6197POPC   D2A11200  17.467  31.494   8.255
 6197POPC   C3A11201  17.481  31.510   7.955
 6197POPC   C4A11202  17.497  31.425   7.655
 6197POPC   C1B11203  17.732  31.389   8.555
 6197POPC   C2B11204  17.722  31.397   8.255
 6197POPC   C3B11205  17.721  31.374   7.955
 6197POPC   C4B11206  17.709  31.324   7.655
 6198POPC   NC311207  12.116   8.216   9.455
 6198POPC   PO411208  12.093   8.191   9.155
 6198POPC   GL111209  12.078   8.202   8.855
 6198POPC   GL211210  12.070   8.118   8.855
 6198POPC   C1A11211  12.077   8.207   8.555
 6198POPC   D2A11212  12.040   8.151   8.255
 6198POPC   C3A11213  12.123   8.167   7.955
 6198POPC   C4A11214  12.087   8.148   7.655
 6198POPC   C1B11215  12.036   7.914   8.555
 6198POPC   C2B11216  12.107   7.973   8.255
 6198POPC   C3B11217  12.101   7.960   7.955
 6198POPC   C4B11218  12.064   7.995   7.655
 6199POPC   NC311219  22.186  19.807   9.455
 6199POPC   PO411220  22.153  19.864   9.155
 6199POPC   GL111221  22.180  19.843   8.855
 6199POPC   GL211222  22.213  19.893   8.855
 6199POPC   C1A11223  22.144  19.809   8.555
 6199POPC   D2A11224  22.200  19.844   8.255
 6199POPC   C3A11225  22.195  19.855   7.955
 6199POPC   C4A11226  22.208  19.822   7.655
 6199POPC   C1B11227  22.259  20.068   8.555
 6199POPC   C2B11228  22.310  20.080   8.255
 6199POPC   C3B11229  22.267  20.078   7.955
 6199POPC   C4B11230  22.259  20.008   7.655
 6200POPC   NC311231  42.352  22.118   9.455
 6200POPC   PO411232  42.362  22.180   9.155
 6200POPC   GL111233  42.298  22.193   8.855
 6200POPC   GL211234  42.271  22.245   8.855
 6200POPC   C1A11235  42.382  22.134   8.555
 6200POPC   D2A11236  42.334  22.206   8.255
 6200POPC   C3A11237  42.322  22.133   7.955
 6200POPC   C4A11238  42.317  22.207   7.655
 6200POPC   C1B11239  42.322  22.451   8.555
 6200POPC   C2B11240  42.246  22.414   8.255
 6200POPC   C3B11241  42.308  22.422   7.955
 6200POPC   C4B11242  42.269  22.436   7.655
 6201POPC   NC311243  40.041  43.922   9.455
 6201POPC   PO411244  40.053  43.883   9.155
 6201POPC   GL111245  40.034  43.838   8.855
 6201POPC   GL211246  39.939  43.858   8.855
 6201POPC   C1A11247  39.964  43.931   8.555
 6201POPC   D2A11248  40.010  43.851   8.255
 6201POPC   C3A11249  40.046  43.886   7.955
 6201POPC   C4A11250  39.978  43.860   7.655
 6201POPC   C1B11251  39.768  43.818   8.555
 6201POPC   C2B11252  39.785  43.751   8.255
 6201POPC   C3B11253  39.745  43.733   7.955
 6201POPC   C4B11254  39.810  43.790   7.655
 6202POPC   NC311255  16.727  16.713   9.455
 6202POPC   PO411256  16.767  16.693   9.155
 6202POPC   GL111257  16.753  16.687   8.855
 6202POPC   GL211258  16.838  16.763   8.855
 6202POPC   C1A11259  16.722  16.707   8.555
 6202POPC   D2A11260  16.759  16.698   8.255
 6202POPC   C3A11261  16.715  16.698   7.955
 6202POPC   C4A11262  16.748  16.684   7.655
 6202POPC   C1B11263  16.981  16.812   8.555
 6202POPC   C2B11264  17.020  16.821   8.255
 6202POPC   C3B11265  17.018  16.806   7.955
 6202POPC   C4B11266  17.008  16.842   7.655
 6203POPC   NC311267  43.072  13.583   9.455
 6203POPC   PO411268  43.105  13.658   9.155
 6203POPC   GL111269  43.134  13.587   8.855
 6203POPC   GL211270  43.239  13.575   8.855
 6203POPC   C1A11271  43.155  13.603   8.555
 6203POPC   D2A11272  43.073  13.647   8.255
 6203POPC   C3A11273  43.070  13.594   7.955
 6203POPC   C4A11274  43.110  13.624   7.655
 6203POPC   C1B11275  43.369  13.605   8.555
 6203POPC   C2B11276  43.350  13.582   8.255
 6203POPC   C3B11277  43.350  13.568   7.955
 6203POPC   C4B11278  43.403  13.591   7.655
 6204POPC   NC311279  14.438   0.430   9.455
 6204POPC   PO411280  14.413   0.431   9.155
 6204POPC   GL111281  14.375   0.447   8.855
 6204POPC   GL211282  14.267   0.330   8.855
 6204POPC   C1A11283  14.411   0.400   8.555
 6204POPC   D2A11284  14.372   0.396   8.255
 6204POPC   C3A11285  14.432   0.437   7.955
 6204POPC   C4A11286  14.417   0.466   7.655
 6204POPC   C1B11287  14.172   0.293   8.555
 6204POPC   C2B11288  14.174   0.331   8.255
 6204POPC   C3B11289  14.214   0.305   7.955
 6204POPC   C4B11290  14.185   0.237   7.655
 6205POPC   NC311291  18.317  16.694   9.455
 6205POPC   PO411292  18.284  16.682   9.155
 6205POPC   GL111293  18.299  16.731   8.855
 6205POPC   GL211294  18.211  16.613   8.855
 6205POPC   C1A11295  18.296  16.734   8.555
 6205POPC   D2A11296  18.314  16.703   8.255
 6205POPC   C3A11297  18.259  16.708   7.955
 6205POPC   C4A11298  18.315  16.743   7.655
 6205POPC   C1B11299  18.080  16.624   8.555
 6205POPC   C2B11300  18.055  16.627   8.255
 6205POPC   C3B11301  18.054  16.553   7.955
 6205POPC   C4B11302  18.069  16.615   7.655
 6206POPC   NC311303  25.256  21.337   9.455
 6206POPC   PO411304  25.289  21.362   9.155
 6206POPC   GL111305  25.294  21.371   8.855
 6206POPC   GL211306  25.194  21.332   8.855
 6206POPC   C1A11307  25.246  21.422   8.555
 6206POPC   D2A11308  25.258  21.347   8.255
 6206POPC   C3A11309  25.238  21.414   7.955
 6206POPC   C4A11310  25.278  21.432   7.655
 6206POPC   C1B11311  25.167  21.153   8.555
 6206POPC   C2B11312  25.169  21.230   8.255
 6206POPC   C3B11313  25.075  21.134   7.955
 6206POPC   C4B11314  25.156  21.155   7.655
 6207POPC   NC311315  41.529  24.490   9.455
 6207POPC   PO411316  41.598  24.447   9.155
 6207POPC   GL111317  41.512  24.501   8.855
 6207POPC   GL211318  41.630  24.434   8.855
 6207POPC   C1A11319  41.599  24.498   8.555
 6207POPC   D2A11320  41.541  24.533   8.255
 6207POPC   C3A11321  41.530  24.529   7.955
 6207POPC   C4A11322  41.588  24.486   7.655
 6207POPC   C1B11323  41.778  24.360   8.555
 6207POPC   C2B11324  41.811  24.405   8.255
 6207POPC   C3B11325  41.755  24.343   7.955
 6207POPC   C4B11326  41.778  24.381   7.655
 6208POPC   NC311327  22.155  40.759   9.455
 6208POPC   PO411328  22.210  40.796   9.155
 6208POPC   GL111329  22.133  40.769   8.855
 6208POPC   GL211330  22.188  40.917   8.855
 6208POPC   C1A11331  22.155  40.804   8.555
 6208POPC   D2A11332  22.124  40.791   8.255
 6208POPC   C3A11333  22.184  40.809   7.955
 6208POPC   C4A11334  22.179  40.825   7.655
 6208POPC   C1B11335  22.193  41.009   8.555
 6208POPC   C2B11336  22.190  41.076   8.255
 6208POPC   C3B11337  22.169  41.002   7.955
 6208POPC   C4B11338  22.168  41.071   7.655
 6209POPC   NC311339  40.027  15.963   9.455
 6209POPC   PO411340  39.987  15.941   9.155
 6209POPC   GL111341  40.011  15.955   8.855
 6209POPC   GL211342  40.114  15.854   8.855
 6209POPC   C1A11343  39.961  16.000   8.555
 6209POPC   D2A11344  39.971  16.000   8.255
 6209POPC   C3A11345  39.966  16.003   7.955
 6209POPC   C4A11346  39.966  15.925   7.655
 6209POPC   C1B11347  40.236  15.780   8.555
 6209POPC   C2B11348  40.157  15.791   8.255
 6209POPC   C3B11349  40.224  15.788   7.955
 6209POPC   C4B11350  40.197  15.766   7.655
 6210POPC   NC311351  35.369  22.179   9.455
 6210POPC   PO411352  35.324  22.155   9.155
 6210POPC   GL111353  35.374  22.139   8.855
 6210POPC   GL211354  35.472  22.141   8.855
 6210POPC   C1A11355  35.350  22.194   8.555
 6210POPC   D2A11356  35.336  22.193   8.255
 6210POPC   C3A11357  35.359  22.194   7.955
 6210POPC   C4A11358  35.313  22.156   7.655
 6210POPC   C1B11359  35.572  22.109   8.555
 6210POPC   C2B11360  35.616  22.063   8.255
 6210POPC   C3B11361  35.589  22.107   7.955
 6210POPC   C4B11362  35.580  22.089   7.655
 6211POPC   NC311363  20.571   3.550   9.455
 6211POPC   PO411364  20.597   3.569   9.155
 6211POPC   GL111365  20.589   3.497   8.855
 6211POPC   GL211366  20.488   3.499   8.855
 6211POPC   C1A11367  20.622   3.515   8.555
 6211POPC   D2A11368  20.645   3.551   8.255
 6211POPC   C3A11369  20.623   3.553   7.955
 6211POPC   C4A11370  20.608   3.506   7.655
 6211POPC   C1B11371  20.383   3.548   8.555
 6211POPC   C2B11372  20.384   3.498   8.255
 6211POPC   C3B11373  20.386   3.588   7.955
 6211POPC   C4B11374  20.342   3.552   7.655
 6212POPC   NC311375  36.159  15.991   9.455
 6212POPC   PO411376  36.104  16.003   9.155
 6212POPC   GL111377  36.085  15.946   8.855
 6212POPC   GL211378  36.119  15.803   8.855
 6212POPC   C1A11379  36.131  15.996   8.555
 6212POPC   D2A11380  36.087  15.965   8.255
 6212POPC   C3A11381  36.131  15.926   7.955
 6212POPC   C4A11382  36.148  15.966   7.655
 6212POPC   C1B11383  36.116  15.740   8.555
 6212POPC   C2B11384  36.094  15.722   8.255
 6212POPC   C3B11385  36.095  15.680   7.955
 6212POPC   C4B11386  36.086  15.689   7.655
 6213POPC   NC311387  19.036  12.111   9.455
 6213POPC   PO411388  19.032  12.030   9.155
 6213POPC   GL111389  19.076  12.085   8.855
 6213POPC   GL211390  19.071  11.916   8.855
 6213POPC   C1A11391  19.036  12.118   8.555
 6213POPC   D2A11392  19.102  12.086   8.255
 6213POPC   C3A11393  19.021  12.076   7.955
 6213POPC   C4A11394  19.010  12.032   7.655
 6213POPC   C1B11395  19.100  11.807   8.555
 6213POPC   C2B11396  19.041  11.865   8.255
 6213POPC   C3B11397  19.015  11.810   7.955
 6213POPC   C4B11398  19.102  11.861   7.655
 6214POPC   NC311399  28.390   5.900   9.455
 6214POPC   PO411400  28.335   5.821   9.155
 6214POPC   GL111401  28.338   5.872   8.855
 6214POPC   GL211402  28.202   5.925   8.855
 6214POPC   C1A11403  28.395   5.888   8.555
 6214POPC   D2A11404  28.382   5.916   8.255
 6214POPC   C3A11405  28.330   5.906   7.955
 6214POPC   C4A11406  28.388   5.864   7.655
 6214POPC   C1B11407  28.167   5.945   8.555
 6214POPC   C2B11408  28.169   5.954   8.255
 6214POPC   C3B11409  28.148   5.961   7.955
 6214POPC   C4B11410  28.129   5.971   7.655
 6215POPC   NC311411  29.174  26.084   9.455
 6215POPC   PO411412  29.121  26.017   9.155
 6215POPC   GL111413  29.152  26.061   8.855
 6215POPC   GL211414  28.980  26.049   8.855
 6215POPC   C1A11415  29.143  26.070   8.555
 6215POPC   D2A11416  29.132  26.074   8.255
 6215POPC   C3A11417  29.120  26.002   7.955
 6215POPC   C4A11418  29.182  26.013   7.655
 6215POPC   C1B11419  28.867  26.112   8.555
 6215POPC   C2B11420  28.851  26.083   8.255
 6215POPC   C3B11421  28.869  26.059   7.955
 6215POPC   C4B11422  28.935  26.106   7.655
 6216POPC   NC311423  30.677  12.812   9.455
 6216POPC   PO411424  30.648  12.893   9.155
 6216POPC   GL111425  30.705  12.894   8.855
 6216POPC   GL211426  30.593  12.889   8.855
 6216POPC   C1A11427  30.714  12.865   8.555
 6216POPC   D2A11428  30.696  12.861   8.255
 6216POPC   C3A11429  30.680  12.841   7.955
 6216POPC   C4A11430  30.711  12.894   7.655
 6216POPC   C1B11431  30.450  12.973   8.555
 6216POPC   C2B11432  30.460  12.981   8.255
 6216POPC   C3B11433  30.498  12.957   7.955
 6216POPC   C4B11434  30.447  12.940   7.655
 6217POPC   NC311435  39.184  19.865   9.455
 6217POPC   PO411436  39.226  19.815   9.155
 6217POPC   GL111437  39.256  19.826   8.855
 6217POPC   GL211438  39.360  19.725   8.855
 6217POPC   C1A11439  39.203  19.792   8.555
 6217POPC   D2A11440  39.203  19.815   8.255
 6217POPC   C3A11441  39.202  19.787   7.955
 6217POPC   C4A11442  39.193  19.799   7.655
 6217POPC   C1B11443  39.380  19.723   8.555
 6217POPC   C2B11444  39.401  19.654   8.255
 6217POPC   C3B11445  39.453  19.636   7.955
 6217POPC   C4B11446  39.431  19.725   7.655
 6218POPC   NC311447  43.857   9.744   9.455
 6218POPC   PO411448  43.872   9.748   9.155
 6218POPC   GL111449  43.849   9.726   8.855
 6218POPC   GL211450  43.851   9.648   8.855
 6218POPC   C1A11451  43.884   9.731   8.555
 6218POPC   D2A11452  43.909   9.733   8.255
 6218POPC   C3A11453  43.884   9.744   7.955
 6218POPC   C4A11454  43.917   9.751   7.655
 6218POPC   C1B11455  43.796   9.556   8.555
 6218POPC   C2B11456  43.727   9.587   8.255
 6218POPC   C3B11457  43.786   9.567   7.955
 6218POPC   C4B11458  43.722   9.579   7.655
 6219POPC   NC311459  36.868   3.528   9.455
 6219POPC   PO411460  36.924   3.570   9.155
 6219POPC   GL111461  36.926   3.514   8.855
 6219POPC   GL211462  37.016   3.652   8.855
 6219POPC   C1A11463  36.869   3.547   8.555
 6219POPC   D2A11464  36.945   3.517   8.255
 6219POPC   C3A11465  36.920   3.544   7.955
 6219POPC   C4A11466  36.947   3.587   7.655
 6219POPC   C1B11467  37.018   3.775   8.555
 6219POPC   C2B11468  37.034   3.719   8.255
 6219POPC   C3B11469  37.080   3.778   7.955
 6219POPC   C4B11470  37.063   3.765   7.655
 6220POPC   NC311471  42.331   8.183   9.455
 6220POPC   PO411472  42.350   8.164   9.155
 6220POPC   GL111473  42.368   8.149   8.855
 6220POPC   GL211474  42.349   8.287   8.855
 6220POPC   C1A11475  42.367   8.213   8.555
 6220POPC   D2A11476  42.335   8.150   8.255
 6220POPC   C3A11477  42.338   8.227   7.955
 6220POPC   C4A11478  42.318   8.202   7.655
 6220POPC   C1B11479  42.400   8.428   8.555
 6220POPC   C2B11480  42.407   8.441   8.255
 6220POPC   C3B11481  42.420   8.481   7.955
 6220POPC   C4B11482  42.442   8.389   7.655
 6221POPC   NC311483   1.189  12.087   9.455
 6221POPC   PO411484   1.171  12.054   9.155
 6221POPC   GL111485   1.189  12.099   8.855
 6221POPC   GL211486   1.317  12.196   8.855
 6221POPC   C1A11487   1.226  12.088   8.555
 6221POPC   D2A11488   1.253  12.118   8.255
 6221POPC   C3A11489   1.214  12.080   7.955
 6221POPC   C4A11490   1.260  12.089   7.655
 6221POPC   C1B11491   1.353  12.290   8.555
 6221POPC   C2B11492   1.411  12.286   8.255
 6221POPC   C3B11493   1.369  12.286   7.955
 6221POPC   C4B11494   1.387  12.260   7.655
 6222POPC   NC311495  20.580   5.063   9.455
 6222POPC   PO411496  20.583   5.058   9.155
 6222POPC   GL111497  20.650   5.096   8.855
 6222POPC   GL211498  20.516   4.988   8.855
 6222POPC   C1A11499  20.629   5.130   8.555
 6222POPC   D2A11500  20.563   5.101   8.255
 6222POPC   C3A11501  20.644   5.043   7.955
 6222POPC   C4A11502  20.631   5.076   7.655
 6222POPC   C1B11503  20.352   4.960   8.555
 6222POPC   C2B11504  20.349   5.000   8.255
 6222POPC   C3B11505  20.421   5.009   7.955
 6222POPC   C4B11506  20.418   4.995   7.655
 6223POPC   NC311507  43.874  38.486   9.455
 6223POPC   PO411508  43.903  38.467   9.155
 6223POPC   GL111509  43.847  38.406   8.855
 6223POPC   GL211510  43.902  38.550   8.855
 6223POPC   C1A11511  43.882  38.436   8.555
 6223POPC   D2A11512  43.904  38.460   8.255
 6223POPC   C3A11513  43.869  38.446   7.955
 6223POPC   C4A11514  43.888  38.406   7.655
 6223POPC   C1B11515  44.007  38.719   8.555
 6223POPC   C2B11516  43.932  38.648   8.255
 6223POPC   C3B11517  44.007  38.656   7.955
 6223POPC   C4B11518  43.971  38.735   7.655
 6224POPC   NC311519  28.414  26.849   9.455
 6224POPC   PO411520  28.333  26.774   9.155
 6224POPC   GL111521  28.320  26.802   8.855
 6224POPC   GL211522  28.459  26.718   8.855
 6224POPC   C1A11523  28.402  26.827   8.555
 6224POPC   D2A11524  28.419  26.833   8.255
 6224POPC   C3A11525  28.333  26.810   7.955
 6224POPC   C4A11526  28.405  26.790   7.655
 6224POPC   C1B11527  28.570  26.585   8.555
 6224POPC   C2B11528  28.549  26.655   8.255
 6224POPC   C3B11529  28.567  26.661   7.955
 6224POPC   C4B11530  28.536  26.619   7.655
 6225POPC   NC311531  24.530   1.968   9.455
 6225POPC   PO411532  24.470   1.992   9.155
 6225POPC   GL111533  24.495   2.033   8.855
 6225POPC   GL211534  24.381   2.025   8.855
 6225POPC   C1A11535  24.462   1.946   8.555
 6225POPC   D2A11536  24.523   1.949   8.255
 6225POPC   C3A11537  24.502   1.989   7.955
 6225POPC   C4A11538  24.480   1.962   7.655
 6225POPC   C1B11539  24.210   2.041   8.555
 6225POPC   C2B11540  24.259   2.090   8.255
 6225POPC   C3B11541  24.236   2.019   7.955
 6225POPC   C4B11542  24.285   2.029   7.655
 6226POPC   NC311543  29.933  32.251   9.455
 6226POPC   PO411544  29.950  32.219   9.155
 6226POPC   GL111545  29.902  32.291   8.855
 6226POPC   GL211546  29.794  32.274   8.855
 6226POPC   C1A11547  29.873  32.295   8.555
 6226POPC   D2A11548  29.947  32.293   8.255
 6226POPC   C3A11549  29.964  32.290   7.955
 6226POPC   C4A11550  29.898  32.287   7.655
 6226POPC   C1B11551  29.762  32.410   8.555
 6226POPC   C2B11552  29.667  32.377   8.255
 6226POPC   C3B11553  29.749  32.349   7.955
 6226POPC   C4B11554  29.710  32.415   7.655
 6227POPC   NC311555  41.593  10.526   9.455
 6227POPC   PO411556  41.572  10.478   9.155
 6227POPC   GL111557  41.539  10.497   8.855
 6227POPC   GL211558  41.585  10.443   8.855
 6227POPC   C1A11559  41.564  10.545   8.555
 6227POPC   D2A11560  41.595  10.518   8.255
 6227POPC   C3A11561  41.565  10.484   7.955
 6227POPC   C4A11562  41.517  10.515   7.655
 6227POPC   C1B11563  41.666  10.335   8.555
 6227POPC   C2B11564  41.615  10.241   8.255
 6227POPC   C3B11565  41.686  10.331   7.955
 6227POPC   C4B11566  41.596  10.271   7.655
 6228POPC   NC311567  39.183   8.214   9.455
 6228POPC   PO411568  39.280   8.226   9.155
 6228POPC   GL111569  39.209   8.218   8.855
 6228POPC   GL211570  39.322   8.073   8.855
 6228POPC   C1A11571  39.233   8.233   8.555
 6228POPC   D2A11572  39.218   8.209   8.255
 6228POPC   C3A11573  39.279   8.207   7.955
 6228POPC   C4A11574  39.265   8.180   7.655
 6228POPC   C1B11575  39.323   7.955   8.555
 6228POPC   C2B11576  39.277   7.956   8.255
 6228POPC   C3B11577  39.329   7.992   7.955
 6228POPC   C4B11578  39.290   7.915   7.655
 6229POPC   NC311579  21.428   4.307   9.455
 6229POPC   PO411580  21.369   4.336   9.155
 6229POPC   GL111581  21.363   4.360   8.855
 6229POPC   GL211582  21.240   4.323   8.855
 6229POPC   C1A11583  21.341   4.302   8.555
 6229POPC   D2A11584  21.384   4.361   8.255
 6229POPC   C3A11585  21.338   4.340   7.955
 6229POPC   C4A11586  21.427   4.317   7.655
 6229POPC   C1B11587  21.120   4.309   8.555
 6229POPC   C2B11588  21.184   4.332   8.255
 6229POPC   C3B11589  21.131   4.346   7.955
 6229POPC   C4B11590  21.184   4.340   7.655
 6230POPC   NC311591  28.403  29.112   9.455
 6230POPC   PO411592  28.402  29.136   9.155
 6230POPC   GL111593  28.325  29.130   8.855
 6230POPC   GL211594  28.343  29.040   8.855
 6230POPC   C1A11595  28.400  29.164   8.555
 6230POPC   D2A11596  28.331  29.179   8.255
 6230POPC   C3A11597  28.331  29.097   7.955
 6230POPC   C4A11598  28.334  29.135   7.655
 6230POPC   C1B11599  28.295  28.936   8.555
 6230POPC   C2B11600  28.212  28.909   8.255
 6230POPC   C3B11601  28.266  28.948   7.955
 6230POPC   C4B11602  28.220  28.878   7.655
 6231POPC   NC311603   7.383  40.039   9.455
 6231POPC   PO411604   7.458  39.976   9.155
 6231POPC   GL111605   7.434  39.990   8.855
 6231POPC   GL211606   7.316  39.990   8.855
 6231POPC   C1A11607   7.382  39.973   8.555
 6231POPC   D2A11608   7.466  40.005   8.255
 6231POPC   C3A11609   7.414  39.960   7.955
 6231POPC   C4A11610   7.435  40.040   7.655
 6231POPC   C1B11611   7.177  40.001   8.555
 6231POPC   C2B11612   7.186  39.951   8.255
 6231POPC   C3B11613   7.182  39.985   7.955
 6231POPC   C4B11614   7.138  39.963   7.655
 6232POPC   NC311615  35.364  15.933   9.455
 6232POPC   PO411616  35.350  15.940   9.155
 6232POPC   GL111617  35.327  15.915   8.855
 6232POPC   GL211618  35.361  15.868   8.855
 6232POPC   C1A11619  35.385  15.989   8.555
 6232POPC   D2A11620  35.400  15.964   8.255
 6232POPC   C3A11621  35.367  15.965   7.955
 6232POPC   C4A11622  35.330  15.931   7.655
 6232POPC   C1B11623  35.496  15.731   8.555
 6232POPC   C2B11624  35.452  15.746   8.255
 6232POPC   C3B11625  35.516  15.712   7.955
 6232POPC   C4B11626  35.443  15.722   7.655
 6233POPC   NC311627  32.993  36.903   9.455
 6233POPC   PO411628  33.014  36.888   9.155
 6233POPC   GL111629  33.059  36.936   8.855
 6233POPC   GL211630  33.166  36.907   8.855
 6233POPC   C1A11631  33.068  36.873   8.555
 6233POPC   D2A11632  33.019  36.941   8.255
 6233POPC   C3A11633  32.982  36.911   7.955
 6233POPC   C4A11634  32.992  36.898   7.655
 6233POPC   C1B11635  33.231  36.955   8.555
 6233POPC   C2B11636  33.278  36.937   8.255
 6233POPC   C3B11637  33.273  36.900   7.955
 6233POPC   C4B11638  33.313  36.896   7.655
 6234POPC   NC311639   4.364  32.235   9.455
 6234POPC   PO411640   4.276  32.262   9.155
 6234POPC   GL111641   4.279  32.283   8.855
 6234POPC   GL211642   4.277  32.127   8.855
 6234POPC   C1A11643   4.321  32.208   8.555
 6234POPC   D2A11644   4.356  32.215   8.255
 6234POPC   C3A11645   4.361  32.282   7.955
 6234POPC   C4A11646   4.326  32.288   7.655
 6234POPC   C1B11647   4.289  32.043   8.555
 6234POPC   C2B11648   4.241  31.986   8.255
 6234POPC   C3B11649   4.293  31.987   7.955
 6234POPC   C4B11650   4.311  32.019   7.655
 6235POPC   NC311651   9.009  20.642   9.455
 6235POPC   PO411652   8.970  20.655   9.155
 6235POPC   GL111653   8.938  20.619   8.855
 6235POPC   GL211654   8.858  20.575   8.855
 6235POPC   C1A11655   8.958  20.566   8.555
 6235POPC   D2A11656   8.954  20.595   8.255
 6235POPC   C3A11657   9.012  20.615   7.955
 6235POPC   C4A11658   8.996  20.644   7.655
 6235POPC   C1B11659   8.735  20.495   8.555
 6235POPC   C2B11660   8.749  20.473   8.255
 6235POPC   C3B11661   8.754  20.478   7.955
 6235POPC   C4B11662   8.724  20.507   7.655
 6236POPC   NC311663  13.602  31.458   9.455
 6236POPC   PO411664  13.675  31.442   9.155
 6236POPC   GL111665  13.655  31.509   8.855
 6236POPC   GL211666  13.743  31.469   8.855
 6236POPC   C1A11667  13.673  31.471   8.555
 6236POPC   D2A11668  13.588  31.504   8.255
 6236POPC   C3A11669  13.630  31.449   7.955
 6236POPC   C4A11670  13.620  31.488   7.655
 6236POPC   C1B11671  13.917  31.427   8.555
 6236POPC   C2B11672  13.863  31.435   8.255
 6236POPC   C3B11673  13.892  31.410   7.955
 6236POPC   C4B11674  13.848  31.368   7.655
 6237POPC   NC311675  15.948  41.561   9.455
 6237POPC   PO411676  15.997  41.590   9.155
 6237POPC   GL111677  15.966  41.587   8.855
 6237POPC   GL211678  16.052  41.677   8.855
 6237POPC   C1A11679  15.977  41.564   8.555
 6237POPC   D2A11680  15.939  41.587   8.255
 6237POPC   C3A11681  16.001  41.528   7.955
 6237POPC   C4A11682  15.981  41.538   7.655
 6237POPC   C1B11683  16.097  41.731   8.555
 6237POPC   C2B11684  16.076  41.719   8.255
 6237POPC   C3B11685  16.127  41.715   7.955
 6237POPC   C4B11686  16.119  41.771   7.655
 6238POPC   NC311687  36.117  40.039   9.455
 6238POPC   PO411688  36.127  39.982   9.155
 6238POPC   GL111689  36.102  39.971   8.855
 6238POPC   GL211690  36.264  39.950   8.855
 6238POPC   C1A11691  36.111  40.036   8.555
 6238POPC   D2A11692  36.105  40.031   8.255
 6238POPC   C3A11693  36.122  40.045   7.955
 6238POPC   C4A11694  36.169  39.964   7.655
 6238POPC   C1B11695  36.332  39.975   8.555
 6238POPC   C2B11696  36.327  39.943   8.255
 6238POPC   C3B11697  36.360  40.023   7.955
 6238POPC   C4B11698  36.361  39.980   7.655
 6239POPC   NC311699  35.371  26.004   9.455
 6239POPC   PO411700  35.322  26.041   9.155
 6239POPC   GL111701  35.320  26.061   8.855
 6239POPC   GL211702  35.221  26.051   8.855
 6239POPC   C1A11703  35.385  26.016   8.555
 6239POPC   D2A11704  35.349  26.049   8.255
 6239POPC   C3A11705  35.308  26.048   7.955
 6239POPC   C4A11706  35.391  26.085   7.655
 6239POPC   C1B11707  35.156  26.007   8.555
 6239POPC   C2B11708  35.125  26.022   8.255
 6239POPC   C3B11709  35.075  26.025   7.955
 6239POPC   C4B11710  35.067  26.008   7.655
 6240POPC   NC311711   9.792  36.944   9.455
 6240POPC   PO411712   9.755  36.883   9.155
 6240POPC   GL111713   9.712  36.914   8.855
 6240POPC   GL211714   9.688  36.941   8.855
 6240POPC   C1A11715   9.772  36.935   8.555
 6240POPC   D2A11716   9.750  36.882   8.255
 6240POPC   C3A11717   9.781  36.856   7.955
 6240POPC   C4A11718   9.725  36.953   7.655
 6240POPC   C1B11719   9.510  37.082   8.555
 6240POPC   C2B11720   9.507  37.071   8.255
 6240POPC   C3B11721   9.602  37.016   7.955
 6240POPC   C4B11722   9.554  37.050   7.655
 6241POPC   NC311723  35.387  20.561   9.455
 6241POPC   PO411724  35.330  20.567   9.155
 6241POPC   GL111725  35.392  20.641   8.855
 6241POPC   GL211726  35.245  20.512   8.855
 6241POPC   C1A11727  35.305  20.619   8.555
 6241POPC   D2A11728  35.357  20.606   8.255
 6241POPC   C3A11729  35.401  20.584   7.955
 6241POPC   C4A11730  35.349  20.603   7.655
 6241POPC   C1B11731  35.171  20.425   8.555
 6241POPC   C2B11732  35.171  20.427   8.255
 6241POPC   C3B11733  35.243  20.357   7.955
 6241POPC   C4B11734  35.202  20.367   7.655
 6242POPC   NC311735  33.029  27.585   9.455
 6242POPC   PO411736  33.029  27.569   9.155
 6242POPC   GL111737  32.988  27.611   8.855
 6242POPC   GL211738  32.979  27.633   8.855
 6242POPC   C1A11739  32.985  27.583   8.555
 6242POPC   D2A11740  33.050  27.583   8.255
 6242POPC   C3A11741  33.013  27.636   7.955
 6242POPC   C4A11742  32.995  27.557   7.655
 6242POPC   C1B11743  32.887  27.759   8.555
 6242POPC   C2B11744  32.894  27.733   8.255
 6242POPC   C3B11745  32.886  27.779   7.955
 6242POPC   C4B11746  32.877  27.813   7.655
 6243POPC   NC311747  42.361  34.586   9.455
 6243POPC   PO411748  42.353  34.561   9.155
 6243POPC   GL111749  42.323  34.528   8.855
 6243POPC   GL211750  42.470  34.485   8.855
 6243POPC   C1A11751  42.336  34.601   8.555
 6243POPC   D2A11752  42.352  34.575   8.255
 6243POPC   C3A11753  42.291  34.526   7.955
 6243POPC   C4A11754  42.354  34.604   7.655
 6243POPC   C1B11755  42.595  34.484   8.555
 6243POPC   C2B11756  42.589  34.507   8.255
 6243POPC   C3B11757  42.518  34.506   7.955
 6243POPC   C4B11758  42.541  34.475   7.655
 6244POPC   NC311759  11.305  15.933   9.455
 6244POPC   PO411760  11.306  15.920   9.155
 6244POPC   GL111761  11.312  15.982   8.855
 6244POPC   GL211762  11.182  16.065   8.855
 6244POPC   C1A11763  11.313  15.987   8.555
 6244POPC   D2A11764  11.314  15.920   8.255
 6244POPC   C3A11765  11.253  15.912   7.955
 6244POPC   C4A11766  11.317  15.931   7.655
 6244POPC   C1B11767  11.178  16.105   8.555
 6244POPC   C2B11768  11.166  16.112   8.255
 6244POPC   C3B11769  11.157  16.177   7.955
 6244POPC   C4B11770  11.191  16.180   7.655
 6245POPC   NC311771  42.355  33.820   9.455
 6245POPC   PO411772  42.368  33.838   9.155
 6245POPC   GL111773  42.351  33.820   8.855
 6245POPC   GL211774  42.351  33.901   8.855
 6245POPC   C1A11775  42.383  33.836   8.555
 6245POPC   D2A11776  42.327  33.753   8.255
 6245POPC   C3A11777  42.343  33.808   7.955
 6245POPC   C4A11778  42.300  33.815   7.655
 6245POPC   C1B11779  42.268  34.005   8.555
 6245POPC   C2B11780  42.299  34.055   8.255
 6245POPC   C3B11781  42.296  34.052   7.955
 6245POPC   C4B11782  42.298  34.064   7.655
 6246POPC   NC311783  10.504  18.310   9.455
 6246POPC   PO411784  10.510  18.234   9.155
 6246POPC   GL111785  10.525  18.245   8.855
 6246POPC   GL211786  10.373  18.329   8.855
 6246POPC   C1A11787  10.563  18.283   8.555
 6246POPC   D2A11788  10.515  18.287   8.255
 6246POPC   C3A11789  10.505  18.256   7.955
 6246POPC   C4A11790  10.569  18.241   7.655
 6246POPC   C1B11791  10.333  18.431   8.555
 6246POPC   C2B11792  10.269  18.403   8.255
 6246POPC   C3B11793  10.316  18.392   7.955
 6246POPC   C4B11794  10.355  18.393   7.655
 6247POPC   NC311795   7.412   6.663   9.455
 6247POPC   PO411796   7.419   6.691   9.155
 6247POPC   GL111797   7.441   6.657   8.855
 6247POPC   GL211798   7.514   6.553   8.855
 6247POPC   C1A11799   7.417   6.626   8.555
 6247POPC   D2A11800   7.402   6.605   8.255
 6247POPC   C3A11801   7.434   6.668   7.955
 6247POPC   C4A11802   7.371   6.653   7.655
 6247POPC   C1B11803   7.629   6.597   8.555
 6247POPC   C2B11804   7.607   6.601   8.255
 6247POPC   C3B11805   7.660   6.569   7.955
 6247POPC   C4B11806   7.691   6.540   7.655
 6248POPC   NC311807  32.251  29.939   9.455
 6248POPC   PO411808  32.209  29.949   9.155
 6248POPC   GL111809  32.253  29.959   8.855
 6248POPC   GL211810  32.160  29.916   8.855
 6248POPC   C1A11811  32.226  29.961   8.555
 6248POPC   D2A11812  32.199  29.886   8.255
 6248POPC   C3A11813  32.269  29.943   7.955
 6248POPC   C4A11814  32.227  29.968   7.655
 6248POPC   C1B11815  31.976  29.870   8.555
 6248POPC   C2B11816  31.962  29.898   8.255
 6248POPC   C3B11817  31.998  29.893   7.955
 6248POPC   C4B11818  31.980  29.887   7.655
 6249POPC   NC311819   1.983  17.487   9.455
 6249POPC   PO411820   2.009  17.521   9.155
 6249POPC   GL111821   1.957  17.469   8.855
 6249POPC   GL211822   1.886  17.610   8.855
 6249POPC   C1A11823   1.954  17.529   8.555
 6249POPC   D2A11824   1.993  17.476   8.255
 6249POPC   C3A11825   2.036  17.553   7.955
 6249POPC   C4A11826   1.970  17.531   7.655
 6249POPC   C1B11827   1.838  17.740   8.555
 6249POPC   C2B11828   1.856  17.721   8.255
 6249POPC   C3B11829   1.846  17.662   7.955
 6249POPC   C4B11830   1.780  17.706   7.655
 6250POPC   NC311831   2.796  44.691   9.455
 6250POPC   PO411832   2.750  44.616   9.155
 6250POPC   GL111833   2.742  44.612   8.855
 6250POPC   GL211834   2.734  44.538   8.855
 6250POPC   C1A11835   2.748  44.696   8.555
 6250POPC   D2A11836   2.811  44.627   8.255
 6250POPC   C3A11837   2.721  44.669   7.955
 6250POPC   C4A11838   2.739  44.688   7.655
 6250POPC   C1B11839   2.674  44.386   8.555
 6250POPC   C2B11840   2.756  44.371   8.255
 6250POPC   C3B11841   2.732  44.421   7.955
 6250POPC   C4B11842   2.704  44.407   7.655
 6251POPC   NC311843   8.171  23.684   9.455
 6251POPC   PO411844   8.165  23.729   9.155
 6251POPC   GL111845   8.238  23.677   8.855
 6251POPC   GL211846   8.317  23.793   8.855
 6251POPC   C1A11847   8.189  23.706   8.555
 6251POPC   D2A11848   8.166  23.715   8.255
 6251POPC   C3A11849   8.180  23.719   7.955
 6251POPC   C4A11850   8.194  23.711   7.655
 6251POPC   C1B11851   8.392  23.809   8.555
 6251POPC   C2B11852   8.438  23.826   8.255
 6251POPC   C3B11853   8.403  23.747   7.955
 6251POPC   C4B11854   8.464  23.789   7.655
 6252POPC   NC311855  26.833  19.072   9.455
 6252POPC   PO411856  26.856  19.104   9.155
 6252POPC   GL111857  26.800  19.014   8.855
 6252POPC   GL211858  26.952  18.966   8.855
 6252POPC   C1A11859  26.864  19.097   8.555
 6252POPC   D2A11860  26.771  19.045   8.255
 6252POPC   C3A11861  26.784  19.022   7.955
 6252POPC   C4A11862  26.856  19.038   7.655
 6252POPC   C1B11863  27.027  18.936   8.555
 6252POPC   C2B11864  27.030  18.976   8.255
 6252POPC   C3B11865  27.072  18.944   7.955
 6252POPC   C4B11866  27.040  18.972   7.655
 6253POPC   NC311867  39.999  39.259   9.455
 6253POPC   PO411868  39.974  39.197   9.155
 6253POPC   GL111869  40.043  39.242   8.855
 6253POPC   GL211870  40.096  39.171   8.855
 6253POPC   C1A11871  39.965  39.193   8.555
 6253POPC   D2A11872  40.022  39.255   8.255
 6253POPC   C3A11873  39.984  39.211   7.955
 6253POPC   C4A11874  39.982  39.275   7.655
 6253POPC   C1B11875  40.270  39.236   8.555
 6253POPC   C2B11876  40.283  39.198   8.255
 6253POPC   C3B11877  40.228  39.206   7.955
 6253POPC   C4B11878  40.236  39.212   7.655
 6254POPC   NC311879   8.951  13.667   9.455
 6254POPC   PO411880   8.993  13.635   9.155
 6254POPC   GL111881   8.939  13.651   8.855
 6254POPC   GL211882   9.043  13.478   8.855
 6254POPC   C1A11883   8.930  13.656   8.555
 6254POPC   D2A11884   8.997  13.653   8.255
 6254POPC   C3A11885   8.963  13.631   7.955
 6254POPC   C4A11886   9.020  13.658   7.655
 6254POPC   C1B11887   9.097  13.453   8.555
 6254POPC   C2B11888   9.073  13.398   8.255
 6254POPC   C3B11889   9.125  13.418   7.955
 6254POPC   C4B11890   9.101  13.368   7.655
 6255POPC   NC311891  23.714  36.159   9.455
 6255POPC   PO411892  23.683  36.139   9.155
 6255POPC   GL111893  23.701  36.097   8.855
 6255POPC   GL211894  23.676  35.977   8.855
 6255POPC   C1A11895  23.666  36.091   8.555
 6255POPC   D2A11896  23.690  36.100   8.255
 6255POPC   C3A11897  23.727  36.171   7.955
 6255POPC   C4A11898  23.687  36.159   7.655
 6255POPC   C1B11899  23.634  35.901   8.555
 6255POPC   C2B11900  23.661  35.852   8.255
 6255POPC   C3B11901  23.601  35.939   7.955
 6255POPC   C4B11902  23.655  35.858   7.655
 6256POPC   NC311903  19.855  25.306   9.455
 6256POPC   PO411904  19.789  25.258   9.155
 6256POPC   GL111905  19.876  25.225   8.855
 6256POPC   GL211906  19.762  25.188   8.855
 6256POPC   C1A11907  19.828  25.289   8.555
 6256POPC   D2A11908  19.806  25.252   8.255
 6256POPC   C3A11909  19.796  25.289   7.955
 6256POPC   C4A11910  19.805  25.277   7.655
 6256POPC   C1B11911  19.635  25.187   8.555
 6256POPC   C2B11912  19.576  25.244   8.255
 6256POPC   C3B11913  19.624  25.151   7.955
 6256POPC   C4B11914  19.611  25.235   7.655
 6257POPC   NC311915  29.953  16.742   9.455
 6257POPC   PO411916  29.910  16.693   9.155
 6257POPC   GL111917  29.900  16.733   8.855
 6257POPC   GL211918  29.940  16.570   8.855
 6257POPC   C1A11919  29.907  16.744   8.555
 6257POPC   D2A11920  29.926  16.747   8.255
 6257POPC   C3A11921  29.937  16.704   7.955
 6257POPC   C4A11922  29.884  16.700   7.655
 6257POPC   C1B11923  30.047  16.502   8.555
 6257POPC   C2B11924  30.075  16.492   8.255
 6257POPC   C3B11925  30.067  16.555   7.955
 6257POPC   C4B11926  30.040  16.482   7.655
 6258POPC   NC311927  34.532  29.903   9.455
 6258POPC   PO411928  34.596  29.878   9.155
 6258POPC   GL111929  34.552  29.897   8.855
 6258POPC   GL211930  34.473  29.929   8.855
 6258POPC   C1A11931  34.556  29.876   8.555
 6258POPC   D2A11932  34.571  29.891   8.255
 6258POPC   C3A11933  34.566  29.943   7.955
 6258POPC   C4A11934  34.605  29.923   7.655
 6258POPC   C1B11935  34.351  29.863   8.555
 6258POPC   C2B11936  34.318  29.877   8.255
 6258POPC   C3B11937  34.364  29.851   7.955
 6258POPC   C4B11938  34.344  29.825   7.655
 6259POPC   NC311939  29.097  22.896   9.455
 6259POPC   PO411940  29.132  22.923   9.155
 6259POPC   GL111941  29.106  22.912   8.855
 6259POPC   GL211942  29.040  23.015   8.855
 6259POPC   C1A11943  29.103  22.974   8.555
 6259POPC   D2A11944  29.189  22.932   8.255
 6259POPC   C3A11945  29.183  22.971   7.955
 6259POPC   C4A11946  29.157  22.954   7.655
 6259POPC   C1B11947  28.918  23.072   8.555
 6259POPC   C2B11948  28.900  23.022   8.255
 6259POPC   C3B11949  28.971  23.019   7.955
 6259POPC   C4B11950  28.918  23.027   7.655
 6260POPC   NC311951  27.572  16.700   9.455
 6260POPC   PO411952  27.546  16.707   9.155
 6260POPC   GL111953  27.606  16.686   8.855
 6260POPC   GL211954  27.483  16.794   8.855
 6260POPC   C1A11955  27.554  16.704   8.555
 6260POPC   D2A11956  27.635  16.714   8.255
 6260POPC   C3A11957  27.578  16.703   7.955
 6260POPC   C4A11958  27.582  16.746   7.655
 6260POPC   C1B11959  27.389  16.756   8.555
 6260POPC   C2B11960  27.384  16.790   8.255
 6260POPC   C3B11961  27.341  16.818   7.955
 6260POPC   C4B11962  27.316  16.753   7.655
 6261POPC   NC311963   5.844  14.388   9.455
 6261POPC   PO411964   5.834  14.452   9.155
 6261POPC   GL111965   5.869  14.417   8.855
 6261POPC   GL211966   5.792  14.353   8.855
 6261POPC   C1A11967   5.862  14.403   8.555
 6261POPC   D2A11968   5.888  14.362   8.255
 6261POPC   C3A11969   5.847  14.396   7.955
 6261POPC   C4A11970   5.891  14.453   7.655
 6261POPC   C1B11971   5.642  14.272   8.555
 6261POPC   C2B11972   5.663  14.317   8.255
 6261POPC   C3B11973   5.618  14.349   7.955
 6261POPC   C4B11974   5.628  14.314   7.655
 6262POPC   NC311975  27.597  26.015   9.455
 6262POPC   PO411976  27.598  26.043   9.155
 6262POPC   GL111977  27.604  26.016   8.855
 6262POPC   GL211978  27.652  25.904   8.855
 6262POPC   C1A11979  27.570  26.046   8.555
 6262POPC   D2A11980  27.635  26.030   8.255
 6262POPC   C3A11981  27.615  26.063   7.955
 6262POPC   C4A11982  27.566  25.996   7.655
 6262POPC   C1B11983  27.739  25.886   8.555
 6262POPC   C2B11984  27.716  25.895   8.255
 6262POPC   C3B11985  27.753  25.844   7.955
 6262POPC   C4B11986  27.808  25.873   7.655
 6263POPC   NC311987  29.926   2.787   9.455
 6263POPC   PO411988  29.962   2.747   9.155
 6263POPC   GL111989  29.916   2.725   8.855
 6263POPC   GL211990  29.902   2.912   8.855
 6263POPC   C1A11991  29.896   2.731   8.555
 6263POPC   D2A11992  29.920   2.719   8.255
 6263POPC   C3A11993  29.876   2.814   7.955
 6263POPC   C4A11994  29.947   2.815   7.655
 6263POPC   C1B11995  29.816   3.043   8.555
 6263POPC   C2B11996  29.864   2.975   8.255
 6263POPC   C3B11997  29.802   2.966   7.955
 6263POPC   C4B11998  29.889   2.988   7.655
 6264POPC   NC311999   6.673   8.176   9.455
 6264POPC   PO412000   6.612   8.179   9.155
 6264POPC   GL112001   6.606   8.210   8.855
 6264POPC   GL212002   6.552   8.266   8.855
 6264POPC   C1A12003   6.667   8.221   8.555
 6264POPC   D2A12004   6.684   8.194   8.255
 6264POPC   C3A12005   6.680   8.198   7.955
 6264POPC   C4A12006   6.639   8.198   7.655
 6264POPC   C1B12007   6.355   8.308   8.555
 6264POPC   C2B12008   6.418   8.216   8.255
 6264POPC   C3B12009   6.379   8.243   7.955
 6264POPC   C4B12010   6.440   8.294   7.655
 6265POPC   NC312011  18.329  43.062   9.455
 6265POPC   PO412012  18.254  43.075   9.155
 6265POPC   GL112013  18.323  43.072   8.855
 6265POPC   GL212014  18.231  43.251   8.855
 6265POPC   C1A12015  18.284  43.081   8.555
 6265POPC   D2A12016  18.250  43.134   8.255
 6265POPC   C3A12017  18.263  43.074   7.955
 6265POPC   C4A12018  18.234  43.090   7.655
 6265POPC   C1B12019  18.208  43.340   8.555
 6265POPC   C2B12020  18.189  43.314   8.255
 6265POPC   C3B12021  18.197  43.345   7.955
 6265POPC   C4B12022  18.214  43.369   7.655
 6266POPC   NC312023   4.340  35.320   9.455
 6266POPC   PO412024   4.305  35.376   9.155
 6266POPC   GL112025   4.278  35.334   8.855
 6266POPC   GL212026   4.229  35.426   8.855
 6266POPC   C1A12027   4.365  35.401   8.555
 6266POPC   D2A12028   4.315  35.344   8.255
 6266POPC   C3A12029   4.346  35.319   7.955
 6266POPC   C4A12030   4.289  35.345   7.655
 6266POPC   C1B12031   4.166  35.531   8.555
 6266POPC   C2B12032   4.225  35.614   8.255
 6266POPC   C3B12033   4.235  35.591   7.955
 6266POPC   C4B12034   4.212  35.571   7.655
 6267POPC   NC312035  24.514  40.829   9.455
 6267POPC   PO412036  24.475  40.765   9.155
 6267POPC   GL112037  24.532  40.832   8.855
 6267POPC   GL212038  24.378  40.700   8.855
 6267POPC   C1A12039  24.531  40.781   8.555
 6267POPC   D2A12040  24.517  40.784   8.255
 6267POPC   C3A12041  24.508  40.780   7.955
 6267POPC   C4A12042  24.526  40.800   7.655
 6267POPC   C1B12043  24.228  40.707   8.555
 6267POPC   C2B12044  24.259  40.724   8.255
 6267POPC   C3B12045  24.256  40.691   7.955
 6267POPC   C4B12046  24.231  40.758   7.655
 6268POPC   NC312047  14.411  28.407   9.455
 6268POPC   PO412048  14.413  28.366   9.155
 6268POPC   GL112049  14.437  28.331   8.855
 6268POPC   GL212050  14.402  28.248   8.855
 6268POPC   C1A12051  14.414  28.405   8.555
 6268POPC   D2A12052  14.424  28.370   8.255
 6268POPC   C3A12053  14.356  28.359   7.955
 6268POPC   C4A12054  14.373  28.379   7.655
 6268POPC   C1B12055  14.395  28.160   8.555
 6268POPC   C2B12056  14.374  28.171   8.255
 6268POPC   C3B12057  14.350  28.153   7.955
 6268POPC   C4B12058  14.361  28.087   7.655
 6269POPC   NC312059  27.545  12.083   9.455
 6269POPC   PO412060  27.613  12.064   9.155
 6269POPC   GL112061  27.567  12.118   8.855
 6269POPC   GL212062  27.738  12.094   8.855
 6269POPC   C1A12063  27.574  12.102   8.555
 6269POPC   D2A12064  27.614  12.093   8.255
 6269POPC   C3A12065  27.628  12.031   7.955
 6269POPC   C4A12066  27.571  12.091   7.655
 6269POPC   C1B12067  27.841  12.048   8.555
 6269POPC   C2B12068  27.854  12.059   8.255
 6269POPC   C3B12069  27.828  12.043   7.955
 6269POPC   C4B12070  27.853  12.041   7.655
 6270POPC   NC312071  26.859  15.175   9.455
 6270POPC   PO412072  26.857  15.145   9.155
 6270POPC   GL112073  26.773  15.136   8.855
 6270POPC   GL212074  26.945  15.177   8.855
 6270POPC   C1A12075  26.835  15.130   8.555
 6270POPC   D2A12076  26.793  15.210   8.255
 6270POPC   C3A12077  26.817  15.215   7.955
 6270POPC   C4A12078  26.834  15.160   7.655
 6270POPC   C1B12079  27.064  15.253   8.555
 6270POPC   C2B12080  27.084  15.183   8.255
 6270POPC   C3B12081  27.072  15.211   7.955
 6270POPC   C4B12082  27.108  15.185   7.655
 6271POPC   NC312083  19.846  26.059   9.455
 6271POPC   PO412084  19.788  26.045   9.155
 6271POPC   GL112085  19.789  26.060   8.855
 6271POPC   GL212086  19.874  25.947   8.855
 6271POPC   C1A12087  19.853  26.051   8.555
 6271POPC   D2A12088  19.806  26.075   8.255
 6271POPC   C3A12089  19.824  26.008   7.955
 6271POPC   C4A12090  19.786  26.028   7.655
 6271POPC   C1B12091  19.951  25.819   8.555
 6271POPC   C2B12092  19.962  25.843   8.255
 6271POPC   C3B12093  19.947  25.826   7.955
 6271POPC   C4B12094  19.995  25.860   7.655
 6272POPC   NC312095  21.348  17.467   9.455
 6272POPC   PO412096  21.343  17.519   9.155
 6272POPC   GL112097  21.434  17.549   8.855
 6272POPC   GL212098  21.229  17.485   8.855
 6272POPC   C1A12099  21.418  17.488   8.555
 6272POPC   D2A12100  21.369  17.527   8.255
 6272POPC   C3A12101  21.434  17.555   7.955
 6272POPC   C4A12102  21.339  17.462   7.655
 6272POPC   C1B12103  21.143  17.506   8.555
 6272POPC   C2B12104  21.149  17.508   8.255
 6272POPC   C3B12105  21.093  17.589   7.955
 6272POPC   C4B12106  21.099  17.538   7.655
 6273POPC   NC312107   1.211  14.421   9.455
 6273POPC   PO412108   1.262  14.434   9.155
 6273POPC   GL112109   1.238  14.417   8.855
 6273POPC   GL212110   1.357  14.465   8.855
 6273POPC   C1A12111   1.189  14.359   8.555
 6273POPC   D2A12112   1.224  14.442   8.255
 6273POPC   C3A12113   1.182  14.437   7.955
 6273POPC   C4A12114   1.178  14.381   7.655
 6273POPC   C1B12115   1.423  14.447   8.555
 6273POPC   C2B12116   1.429  14.440   8.255
 6273POPC   C3B12117   1.468  14.497   7.955
 6273POPC   C4B12118   1.422  14.494   7.655
 6274POPC   NC312119  43.881  33.059   9.455
 6274POPC   PO412120  43.842  32.990   9.155
 6274POPC   GL112121  43.890  32.987   8.855
 6274POPC   GL212122  43.970  32.895   8.855
 6274POPC   C1A12123  43.863  32.996   8.555
 6274POPC   D2A12124  43.880  33.006   8.255
 6274POPC   C3A12125  43.884  33.045   7.955
 6274POPC   C4A12126  43.920  33.033   7.655
 6274POPC   C1B12127  44.061  32.784   8.555
 6274POPC   C2B12128  44.046  32.835   8.255
 6274POPC   C3B12129  44.053  32.795   7.955
 6274POPC   C4B12130  43.988  32.799   7.655
 6275POPC   NC312131  23.731  44.696   9.455
 6275POPC   PO412132  23.733  44.672   9.155
 6275POPC   GL112133  23.709  44.682   8.855
 6275POPC   GL212134  23.658  44.570   8.855
 6275POPC   C1A12135  23.699  44.648   8.555
 6275POPC   D2A12136  23.760  44.682   8.255
 6275POPC   C3A12137  23.726  44.705   7.955
 6275POPC   C4A12138  23.716  44.709   7.655
 6275POPC   C1B12139  23.646  44.395   8.555
 6275POPC   C2B12140  23.616  44.429   8.255
 6275POPC   C3B12141  23.668  44.383   7.955
 6275POPC   C4B12142  23.644  44.381   7.655
 6276POPC   NC312143  43.142   8.981   9.455
 6276POPC   PO412144  43.118   8.967   9.155
 6276POPC   GL112145  43.122   8.941   8.855
 6276POPC   GL212146  43.000   9.066   8.855
 6276POPC   C1A12147  43.158   8.936   8.555
 6276POPC   D2A12148  43.138   8.988   8.255
 6276POPC   C3A12149  43.070   8.974   7.955
 6276POPC   C4A12150  43.086   8.965   7.655
 6276POPC   C1B12151  42.936   9.179   8.555
 6276POPC   C2B12152  43.017   9.195   8.255
 6276POPC   C3B12153  42.984   9.217   7.955
 6276POPC   C4B12154  42.962   9.186   7.655
 6277POPC   NC312155   8.195   8.945   9.455
 6277POPC   PO412156   8.211   9.000   9.155
 6277POPC   GL112157   8.147   9.017   8.855
 6277POPC   GL212158   8.235   9.066   8.855
 6277POPC   C1A12159   8.150   9.011   8.555
 6277POPC   D2A12160   8.217   8.991   8.255
 6277POPC   C3A12161   8.159   9.003   7.955
 6277POPC   C4A12162   8.189   8.934   7.655
 6277POPC   C1B12163   8.308   9.194   8.555
 6277POPC   C2B12164   8.329   9.172   8.255
 6277POPC   C3B12165   8.266   9.226   7.955
 6277POPC   C4B12166   8.318   9.169   7.655
 6278POPC   NC312167  39.962   5.054   9.455
 6278POPC   PO412168  40.021   5.099   9.155
 6278POPC   GL112169  39.989   5.095   8.855
 6278POPC   GL212170  40.089   5.184   8.855
 6278POPC   C1A12171  39.978   5.134   8.555
 6278POPC   D2A12172  39.958   5.084   8.255
 6278POPC   C3A12173  40.037   5.052   7.955
 6278POPC   C4A12174  39.960   5.060   7.655
 6278POPC   C1B12175  40.090   5.296   8.555
 6278POPC   C2B12176  40.073   5.322   8.255
 6278POPC   C3B12177  40.127   5.383   7.955
 6278POPC   C4B12178  40.124   5.323   7.655
 6279POPC   NC312179  29.953  22.206   9.455
 6279POPC   PO412180  29.883  22.139   9.155
 6279POPC   GL112181  29.909  22.136   8.855
 6279POPC   GL212182  30.088  22.217   8.855
 6279POPC   C1A12183  29.875  22.202   8.555
 6279POPC   D2A12184  29.903  22.187   8.255
 6279POPC   C3A12185  29.938  22.121   7.955
 6279POPC   C4A12186  29.928  22.192   7.655
 6279POPC   C1B12187  30.199  22.186   8.555
 6279POPC   C2B12188  30.203  22.232   8.255
 6279POPC   C3B12189  30.162  22.215   7.955
 6279POPC   C4B12190  30.185  22.169   7.655
 6280POPC   NC312191  27.620   2.720   9.455
 6280POPC   PO412192  27.586   2.722   9.155
 6280POPC   GL112193  27.579   2.726   8.855
 6280POPC   GL212194  27.676   2.736   8.855
 6280POPC   C1A12195  27.626   2.793   8.555
 6280POPC   D2A12196  27.623   2.777   8.255
 6280POPC   C3A12197  27.625   2.788   7.955
 6280POPC   C4A12198  27.575   2.789   7.655
 6280POPC   C1B12199  27.833   2.646   8.555
 6280POPC   C2B12200  27.785   2.578   8.255
 6280POPC   C3B12201  27.767   2.614   7.955
 6280POPC   C4B12202  27.781   2.582   7.655
 6281POPC   NC312203  34.596  15.936   9.455
 6281POPC   PO412204  34.595  15.965   9.155
 6281POPC   GL112205  34.542  15.976   8.855
 6281POPC   GL212206  34.544  15.855   8.855
 6281POPC   C1A12207  34.609  15.938   8.555
 6281POPC   D2A12208  34.582  15.970   8.255
 6281POPC   C3A12209  34.555  15.918   7.955
 6281POPC   C4A12210  34.610  15.972   7.655
 6281POPC   C1B12211  34.519  15.740   8.555
 6281POPC   C2B12212  34.577  15.685   8.255
 6281POPC   C3B12213  34.555  15.657   7.955
 6281POPC   C4B12214  34.542  15.684   7.655
 6282POPC   NC312215   4.285  21.431   9.455
 6282POPC   PO412216   4.307  21.425   9.155
 6282POPC   GL112217   4.312  21.431   8.855
 6282POPC   GL212218   4.185  21.351   8.855
 6282POPC   C1A12219   4.281  21.430   8.555
 6282POPC   D2A12220   4.273  21.394   8.255
 6282POPC   C3A12221   4.318  21.357   7.955
 6282POPC   C4A12222   4.353  21.413   7.655
 6282POPC   C1B12223   4.031  21.328   8.555
 6282POPC   C2B12224   4.029  21.339   8.255
 6282POPC   C3B12225   4.053  21.347   7.955
 6282POPC   C4B12226   4.060  21.356   7.655
 6283POPC   NC312227   5.096  12.897   9.455
 6283POPC   PO412228   5.127  12.839   9.155
 6283POPC   GL112229   5.108  12.807   8.855
 6283POPC   GL212230   5.067  12.962   8.855
 6283POPC   C1A12231   5.058  12.870   8.555
 6283POPC   D2A12232   5.141  12.843   8.255
 6283POPC   C3A12233   5.044  12.866   7.955
 6283POPC   C4A12234   5.106  12.889   7.655
 6283POPC   C1B12235   5.119  13.084   8.555
 6283POPC   C2B12236   5.123  13.124   8.255
 6283POPC   C3B12237   5.109  13.059   7.955
 6283POPC   C4B12238   5.068  13.091   7.655
 6284POPC   NC312239  24.447  23.744   9.455
 6284POPC   PO412240  24.499  23.717   9.155
 6284POPC   GL112241  24.476  23.673   8.855
 6284POPC   GL212242  24.528  23.789   8.855
 6284POPC   C1A12243  24.528  23.700   8.555
 6284POPC   D2A12244  24.518  23.734   8.255
 6284POPC   C3A12245  24.458  23.708   7.955
 6284POPC   C4A12246  24.469  23.750   7.655
 6284POPC   C1B12247  24.579  23.964   8.555
 6284POPC   C2B12248  24.558  23.911   8.255
 6284POPC   C3B12249  24.514  23.950   7.955
 6284POPC   C4B12250  24.560  23.915   7.655
 6285POPC   NC312251  22.953  43.864   9.455
 6285POPC   PO412252  22.949  43.843   9.155
 6285POPC   GL112253  22.970  43.931   8.855
 6285POPC   GL212254  22.820  43.827   8.855
 6285POPC   C1A12255  22.913  43.890   8.555
 6285POPC   D2A12256  22.966  43.927   8.255
 6285POPC   C3A12257  22.892  43.852   7.955
 6285POPC   C4A12258  22.960  43.876   7.655
 6285POPC   C1B12259  22.771  43.787   8.555
 6285POPC   C2B12260  22.676  43.748   8.255
 6285POPC   C3B12261  22.678  43.769   7.955
 6285POPC   C4B12262  22.682  43.782   7.655
 6286POPC   NC312263  17.551   5.901   9.455
 6286POPC   PO412264  17.518   5.875   9.155
 6286POPC   GL112265  17.462   5.868   8.855
 6286POPC   GL212266  17.590   5.962   8.855
 6286POPC   C1A12267  17.520   5.823   8.555
 6286POPC   D2A12268  17.487   5.840   8.255
 6286POPC   C3A12269  17.477   5.888   7.955
 6286POPC   C4A12270  17.544   5.831   7.655
 6286POPC   C1B12271  17.661   5.983   8.555
 6286POPC   C2B12272  17.723   6.073   8.255
 6286POPC   C3B12273  17.730   6.034   7.955
 6286POPC   C4B12274  17.702   6.032   7.655
 6287POPC   NC312275   6.662  40.012   9.455
 6287POPC   PO412276   6.624  40.009   9.155
 6287POPC   GL112277   6.630  40.042   8.855
 6287POPC   GL212278   6.766  39.960   8.855
 6287POPC   C1A12279   6.631  40.029   8.555
 6287POPC   D2A12280   6.662  39.991   8.255
 6287POPC   C3A12281   6.639  40.038   7.955
 6287POPC   C4A12282   6.655  40.048   7.655
 6287POPC   C1B12283   6.843  39.928   8.555
 6287POPC   C2B12284   6.923  39.911   8.255
 6287POPC   C3B12285   6.890  39.889   7.955
 6287POPC   C4B12286   6.918  39.891   7.655
 6288POPC   NC312287  21.427  29.911   9.455
 6288POPC   PO412288  21.337  29.956   9.155
 6288POPC   GL112289  21.369  29.951   8.855
 6288POPC   GL212290  21.377  30.063   8.855
 6288POPC   C1A12291  21.371  29.941   8.555
 6288POPC   D2A12292  21.433  29.903   8.255
 6288POPC   C3A12293  21.379  29.903   7.955
 6288POPC   C4A12294  21.372  29.945   7.655
 6288POPC   C1B12295  21.359  30.152   8.555
 6288POPC   C2B12296  21.374  30.128   8.255
 6288POPC   C3B12297  21.337  30.190   7.955
 6288POPC   C4B12298  21.373  30.173   7.655
 6289POPC   NC312299  34.582  16.707   9.455
 6289POPC   PO412300  34.541  16.781   9.155
 6289POPC   GL112301  34.537  16.752   8.855
 6289POPC   GL212302  34.580  16.592   8.855
 6289POPC   C1A12303  34.537  16.741   8.555
 6289POPC   D2A12304  34.579  16.740   8.255
 6289POPC   C3A12305  34.565  16.764   7.955
 6289POPC   C4A12306  34.615  16.687   7.655
 6289POPC   C1B12307  34.632  16.482   8.555
 6289POPC   C2B12308  34.640  16.506   8.255
 6289POPC   C3B12309  34.658  16.439   7.955
 6289POPC   C4B12310  34.658  16.536   7.655
 6290POPC   NC312311  25.278  43.880   9.455
 6290POPC   PO412312  25.272  43.849   9.155
 6290POPC   GL112313  25.222  43.920   8.855
 6290POPC   GL212314  25.267  44.034   8.855
 6290POPC   C1A12315  25.250  43.878   8.555
 6290POPC   D2A12316  25.220  43.904   8.255
 6290POPC   C3A12317  25.237  43.847   7.955
 6290POPC   C4A12318  25.288  43.890   7.655
 6290POPC   C1B12319  25.305  44.099   8.555
 6290POPC   C2B12320  25.259  44.139   8.255
 6290POPC   C3B12321  25.317  44.181   7.955
 6290POPC   C4B12322  25.259  44.115   7.655
 6291POPC   NC312323  42.295  40.738   9.455
 6291POPC   PO412324  42.344  40.751   9.155
 6291POPC   GL112325  42.339  40.795   8.855
 6291POPC   GL212326  42.188  40.756   8.855
 6291POPC   C1A12327  42.369  40.734   8.555
 6291POPC   D2A12328  42.368  40.791   8.255
 6291POPC   C3A12329  42.302  40.777   7.955
 6291POPC   C4A12330  42.381  40.818   7.655
 6291POPC   C1B12331  42.063  40.727   8.555
 6291POPC   C2B12332  42.127  40.741   8.255
 6291POPC   C3B12333  42.085  40.654   7.955
 6291POPC   C4B12334  42.140  40.663   7.655
 6292POPC   NC312335  17.523  40.034   9.455
 6292POPC   PO412336  17.551  40.056   9.155
 6292POPC   GL112337  17.534  40.014   8.855
 6292POPC   GL212338  17.421  40.071   8.855
 6292POPC   C1A12339  17.515  40.015   8.555
 6292POPC   D2A12340  17.460  39.964   8.255
 6292POPC   C3A12341  17.527  39.997   7.955
 6292POPC   C4A12342  17.506  40.045   7.655
 6292POPC   C1B12343  17.417  40.188   8.555
 6292POPC   C2B12344  17.393  40.253   8.255
 6292POPC   C3B12345  17.365  40.194   7.955
 6292POPC   C4B12346  17.346  40.273   7.655
 6293POPC   NC312347  22.914   2.781   9.455
 6293POPC   PO412348  22.943   2.731   9.155
 6293POPC   GL112349  22.919   2.733   8.855
 6293POPC   GL212350  23.027   2.778   8.855
 6293POPC   C1A12351  22.943   2.766   8.555
 6293POPC   D2A12352  22.912   2.792   8.255
 6293POPC   C3A12353  22.945   2.808   7.955
 6293POPC   C4A12354  22.893   2.748   7.655
 6293POPC   C1B12355  23.144   2.858   8.555
 6293POPC   C2B12356  23.154   2.844   8.255
 6293POPC   C3B12357  23.163   2.875   7.955
 6293POPC   C4B12358  23.157   2.920   7.655
 6294POPC   NC312359  32.290  24.521   9.455
 6294POPC   PO412360  32.247  24.507   9.155
 6294POPC   GL112361  32.209  24.472   8.855
 6294POPC   GL212362  32.117  24.443   8.855
 6294POPC   C1A12363  32.286  24.483   8.555
 6294POPC   D2A12364  32.257  24.525   8.255
 6294POPC   C3A12365  32.230  24.499   7.955
 6294POPC   C4A12366  32.243  24.443   7.655
 6294POPC   C1B12367  32.015  24.363   8.555
 6294POPC   C2B12368  32.065  24.387   8.255
 6294POPC   C3B12369  32.067  24.371   7.955
 6294POPC   C4B12370  31.999  24.344   7.655
 6295POPC   NC312371   7.377  26.791   9.455
 6295POPC   PO412372   7.424  26.840   9.155
 6295POPC   GL112373   7.374  26.859   8.855
 6295POPC   GL212374   7.306  26.775   8.855
 6295POPC   C1A12375   7.399  26.830   8.555
 6295POPC   D2A12376   7.386  26.790   8.255
 6295POPC   C3A12377   7.422  26.842   7.955
 6295POPC   C4A12378   7.377  26.788   7.655
 6295POPC   C1B12379   7.160  26.806   8.555
 6295POPC   C2B12380   7.143  26.782   8.255
 6295POPC   C3B12381   7.156  26.804   7.955
 6295POPC   C4B12382   7.212  26.735   7.655
 6296POPC   NC312383  17.501  43.901   9.455
 6296POPC   PO412384  17.480  43.921   9.155
 6296POPC   GL112385  17.483  43.924   8.855
 6296POPC   GL212386  17.580  43.955   8.855
 6296POPC   C1A12387  17.527  43.928   8.555
 6296POPC   D2A12388  17.551  43.911   8.255
 6296POPC   C3A12389  17.470  43.852   7.955
 6296POPC   C4A12390  17.540  43.884   7.655
 6296POPC   C1B12391  17.738  44.077   8.555
 6296POPC   C2B12392  17.735  43.997   8.255
 6296POPC   C3B12393  17.667  44.034   7.955
 6296POPC   C4B12394  17.715  44.004   7.655
 6297POPC   NC312395  25.223  22.166   9.455
 6297POPC   PO412396  25.229  22.177   9.155
 6297POPC   GL112397  25.234  22.198   8.855
 6297POPC   GL212398  25.214  22.061   8.855
 6297POPC   C1A12399  25.304  22.126   8.555
 6297POPC   D2A12400  25.249  22.165   8.255
 6297POPC   C3A12401  25.217  22.184   7.955
 6297POPC   C4A12402  25.231  22.112   7.655
 6297POPC   C1B12403  25.228  21.872   8.555
 6297POPC   C2B12404  25.231  21.876   8.255
 6297POPC   C3B12405  25.191  21.920   7.955
 6297POPC   C4B12406  25.255  21.931   7.655
 6298POPC   NC312407  28.349  16.733   9.455
 6298POPC   PO412408  28.400  16.682   9.155
 6298POPC   GL112409  28.325  16.775   8.855
 6298POPC   GL212410  28.494  16.706   8.855
 6298POPC   C1A12411  28.334  16.740   8.555
 6298POPC   D2A12412  28.375  16.706   8.255
 6298POPC   C3A12413  28.343  16.726   7.955
 6298POPC   C4A12414  28.372  16.751   7.655
 6298POPC   C1B12415  28.636  16.597   8.555
 6298POPC   C2B12416  28.597  16.619   8.255
 6298POPC   C3B12417  28.562  16.682   7.955
 6298POPC   C4B12418  28.614  16.676   7.655
 6299POPC   NC312419  40.748  31.435   9.455
 6299POPC   PO412420  40.800  31.518   9.155
 6299POPC   GL112421  40.756  31.492   8.855
 6299POPC   GL212422  40.951  31.398   8.855
 6299POPC   C1A12423  40.819  31.452   8.555
 6299POPC   D2A12424  40.778  31.452   8.255
 6299POPC   C3A12425  40.821  31.495   7.955
 6299POPC   C4A12426  40.832  31.464   7.655
 6299POPC   C1B12427  41.030  31.350   8.555
 6299POPC   C2B12428  41.000  31.397   8.255
 6299POPC   C3B12429  41.069  31.390   7.955
 6299POPC   C4B12430  41.019  31.395   7.655
 6300POPC   NC312431  28.361   9.714   9.455
 6300POPC   PO412432  28.361   9.705   9.155
 6300POPC   GL112433  28.338   9.781   8.855
 6300POPC   GL212434  28.482   9.852   8.855
 6300POPC   C1A12435  28.405   9.700   8.555
 6300POPC   D2A12436  28.356   9.783   8.255
 6300POPC   C3A12437  28.374   9.784   7.955
 6300POPC   C4A12438  28.321   9.759   7.655
 6300POPC   C1B12439  28.537   9.896   8.555
 6300POPC   C2B12440  28.544   9.875   8.255
 6300POPC   C3B12441  28.536   9.924   7.955
 6300POPC   C4B12442  28.624   9.870   7.655
 6301POPC   NC312443  41.606  15.164   9.455
 6301POPC   PO412444  41.570  15.180   9.155
 6301POPC   GL112445  41.554  15.182   8.855
 6301POPC   GL212446  41.431  15.219   8.855
 6301POPC   C1A12447  41.600  15.198   8.555
 6301POPC   D2A12448  41.553  15.198   8.255
 6301POPC   C3A12449  41.535  15.154   7.955
 6301POPC   C4A12450  41.536  15.215   7.655
 6301POPC   C1B12451  41.345  15.324   8.555
 6301POPC   C2B12452  41.312  15.298   8.255
 6301POPC   C3B12453  41.341  15.305   7.955
 6301POPC   C4B12454  41.364  15.279   7.655
 6302POPC   NC312455  21.389  32.292   9.455
 6302POPC   PO412456  21.372  32.215   9.155
 6302POPC   GL112457  21.370  32.252   8.855
 6302POPC   GL212458  21.260  32.222   8.855
 6302POPC   C1A12459  21.434  32.270   8.555
 6302POPC   D2A12460  21.366  32.208   8.255
 6302POPC   C3A12461  21.396  32.276   7.955
 6302POPC   C4A12462  21.428  32.231   7.655
 6302POPC   C1B12463  21.177  32.166   8.555
 6302POPC   C2B12464  21.150  32.206   8.255
 6302POPC   C3B12465  21.151  32.212   7.955
 6302POPC   C4B12466  21.147  32.247   7.655
 6303POPC   NC312467   1.212  24.493   9.455
 6303POPC   PO412468   1.219  24.444   9.155
 6303POPC   GL112469   1.258  24.522   8.855
 6303POPC   GL212470   1.267  24.388   8.855
 6303POPC   C1A12471   1.263  24.486   8.555
 6303POPC   D2A12472   1.232  24.518   8.255
 6303POPC   C3A12473   1.189  24.496   7.955
 6303POPC   C4A12474   1.213  24.533   7.655
 6303POPC   C1B12475   1.433  24.360   8.555
 6303POPC   C2B12476   1.367  24.337   8.255
 6303POPC   C3B12477   1.354  24.297   7.955
 6303POPC   C4B12478   1.404  24.318   7.655
 6304POPC   NC312479  22.184   4.288   9.455
 6304POPC   PO412480  22.203   4.313   9.155
 6304POPC   GL112481  22.116   4.312   8.855
 6304POPC   GL212482  22.103   4.439   8.855
 6304POPC   C1A12483  22.113   4.342   8.555
 6304POPC   D2A12484  22.152   4.366   8.255
 6304POPC   C3A12485  22.143   4.296   7.955
 6304POPC   C4A12486  22.146   4.351   7.655
 6304POPC   C1B12487  21.953   4.475   8.555
 6304POPC   C2B12488  22.001   4.510   8.255
 6304POPC   C3B12489  21.935   4.521   7.955
 6304POPC   C4B12490  22.010   4.501   7.655
 6305POPC   NC312491  36.130   1.195   9.455
 6305POPC   PO412492  36.142   1.235   9.155
 6305POPC   GL112493  36.142   1.225   8.855
 6305POPC   GL212494  36.212   1.257   8.855
 6305POPC   C1A12495  36.151   1.174   8.555
 6305POPC   D2A12496  36.131   1.222   8.255
 6305POPC   C3A12497  36.123   1.237   7.955
 6305POPC   C4A12498  36.177   1.249   7.655
 6305POPC   C1B12499  36.349   1.385   8.555
 6305POPC   C2B12500  36.271   1.435   8.255
 6305POPC   C3B12501  36.346   1.395   7.955
 6305POPC   C4B12502  36.320   1.370   7.655
 6306POPC   NC312503  44.646  11.337   9.455
 6306POPC   PO412504  44.642  11.322   9.155
 6306POPC   GL112505  44.660  11.280   8.855
 6306POPC   GL212506  44.602  11.372   8.855
 6306POPC   C1A12507  44.643  11.295   8.555
 6306POPC   D2A12508  44.701  11.330   8.255
 6306POPC   C3A12509  44.618  11.339   7.955
 6306POPC   C4A12510  44.668  11.347   7.655
 6306POPC   C1B12511  44.428  11.498   8.555
 6306POPC   C2B12512  44.430  11.407   8.255
 6306POPC   C3B12513  44.499  11.460   7.955
 6306POPC   C4B12514  44.509  11.497   7.655
 6307POPC   NC312515  43.071  26.067   9.455
 6307POPC   PO412516  43.160  26.041   9.155
 6307POPC   GL112517  43.084  26.010   8.855
 6307POPC   GL212518  43.156  26.128   8.855
 6307POPC   C1A12519  43.155  26.087   8.555
 6307POPC   D2A12520  43.147  26.031   8.255
 6307POPC   C3A12521  43.092  26.041   7.955
 6307POPC   C4A12522  43.107  26.052   7.655
 6307POPC   C1B12523  43.194  26.243   8.555
 6307POPC   C2B12524  43.160  26.246   8.255
 6307POPC   C3B12525  43.190  26.233   7.955
 6307POPC   C4B12526  43.191  26.299   7.655
 6308POPC   NC312527   3.501  40.762   9.455
 6308POPC   PO412528   3.591  40.779   9.155
 6308POPC   GL112529   3.545  40.789   8.855
 6308POPC   GL212530   3.662  40.641   8.855
 6308POPC   C1A12531   3.543  40.801   8.555
 6308POPC   D2A12532   3.504  40.816   8.255
 6308POPC   C3A12533   3.578  40.822   7.955
 6308POPC   C4A12534   3.495  40.772   7.655
 6308POPC   C1B12535   3.708  40.606   8.555
 6308POPC   C2B12536   3.732  40.586   8.255
 6308POPC   C3B12537   3.670  40.618   7.955
 6308POPC   C4B12538   3.668  40.619   7.655
 6309POPC   NC312539   6.601  37.631   9.455
 6309POPC   PO412540   6.654  37.692   9.155
 6309POPC   GL112541   6.634  37.666   8.855
 6309POPC   GL212542   6.755  37.763   8.855
 6309POPC   C1A12543   6.634  37.705   8.555
 6309POPC   D2A12544   6.623  37.671   8.255
 6309POPC   C3A12545   6.595  37.725   7.955
 6309POPC   C4A12546   6.655  37.699   7.655
 6309POPC   C1B12547   6.873  37.844   8.555
 6309POPC   C2B12548   6.820  37.816   8.255
 6309POPC   C3B12549   6.907  37.787   7.955
 6309POPC   C4B12550   6.815  37.835   7.655
 6310POPC   NC312551  33.846  42.329   9.455
 6310POPC   PO412552  33.841  42.326   9.155
 6310POPC   GL112553  33.813  42.309   8.855
 6310POPC   GL212554  33.728  42.419   8.855
 6310POPC   C1A12555  33.803  42.298   8.555
 6310POPC   D2A12556  33.779  42.321   8.255
 6310POPC   C3A12557  33.785  42.316   7.955
 6310POPC   C4A12558  33.798  42.342   7.655
 6310POPC   C1B12559  33.616  42.540   8.555
 6310POPC   C2B12560  33.649  42.510   8.255
 6310POPC   C3B12561  33.604  42.524   7.955
 6310POPC   C4B12562  33.672  42.565   7.655
 6311POPC   NC312563  30.698  19.786   9.455
 6311POPC   PO412564  30.690  19.850   9.155
 6311POPC   GL112565  30.711  19.838   8.855
 6311POPC   GL212566  30.610  19.918   8.855
 6311POPC   C1A12567  30.669  19.827   8.555
 6311POPC   D2A12568  30.723  19.793   8.255
 6311POPC   C3A12569  30.730  19.842   7.955
 6311POPC   C4A12570  30.734  19.836   7.655
 6311POPC   C1B12571  30.632  20.080   8.555
 6311POPC   C2B12572  30.588  20.090   8.255
 6311POPC   C3B12573  30.553  20.062   7.955
 6311POPC   C4B12574  30.589  20.022   7.655
 6312POPC   NC312575  32.206  19.787   9.455
 6312POPC   PO412576  32.275  19.852   9.155
 6312POPC   GL112577  32.287  19.837   8.855
 6312POPC   GL212578  32.363  19.746   8.855
 6312POPC   C1A12579  32.279  19.788   8.555
 6312POPC   D2A12580  32.260  19.873   8.255
 6312POPC   C3A12581  32.239  19.842   7.955
 6312POPC   C4A12582  32.257  19.818   7.655
 6312POPC   C1B12583  32.516  19.697   8.555
 6312POPC   C2B12584  32.480  19.747   8.255
 6312POPC   C3B12585  32.450  19.761   7.955
 6312POPC   C4B12586  32.481  19.739   7.655
 6313POPC   NC312587  43.918  19.048   9.455
 6313POPC   PO412588  43.899  19.077   9.155
 6313POPC   GL112589  43.881  19.077   8.855
 6313POPC   GL212590  44.019  19.050   8.855
 6313POPC   C1A12591  43.889  19.088   8.555
 6313POPC   D2A12592  43.874  19.044   8.255
 6313POPC   C3A12593  43.878  19.088   7.955
 6313POPC   C4A12594  43.931  19.058   7.655
 6313POPC   C1B12595  44.080  19.007   8.555
 6313POPC   C2B12596  44.124  18.952   8.255
 6313POPC   C3B12597  44.169  18.953   7.955
 6313POPC   C4B12598  44.148  18.997   7.655
 6314POPC   NC312599   2.815  41.514   9.455
 6314POPC   PO412600   2.722  41.547   9.155
 6314POPC   GL112601   2.728  41.510   8.855
 6314POPC   GL212602   2.768  41.431   8.855
 6314POPC   C1A12603   2.809  41.564   8.555
 6314POPC   D2A12604   2.737  41.557   8.255
 6314POPC   C3A12605   2.804  41.511   7.955
 6314POPC   C4A12606   2.780  41.553   7.655
 6314POPC   C1B12607   2.717  41.352   8.555
 6314POPC   C2B12608   2.634  41.337   8.255
 6314POPC   C3B12609   2.648  41.353   7.955
 6314POPC   C4B12610   2.646  41.287   7.655
 6315POPC   NC312611  30.716  11.256   9.455
 6315POPC   PO412612  30.699  11.315   9.155
 6315POPC   GL112613  30.671  11.339   8.855
 6315POPC   GL212614  30.594  11.216   8.855
 6315POPC   C1A12615  30.736  11.267   8.555
 6315POPC   D2A12616  30.694  11.314   8.255
 6315POPC   C3A12617  30.712  11.323   7.955
 6315POPC   C4A12618  30.704  11.268   7.655
 6315POPC   C1B12619  30.425  11.235   8.555
 6315POPC   C2B12620  30.443  11.153   8.255
 6315POPC   C3B12621  30.426  11.213   7.955
 6315POPC   C4B12622  30.504  11.195   7.655
 6316POPC   NC312623  26.001  28.342   9.455
 6316POPC   PO412624  26.020  28.358   9.155
 6316POPC   GL112625  26.088  28.405   8.855
 6316POPC   GL212626  25.980  28.329   8.855
 6316POPC   C1A12627  26.043  28.402   8.555
 6316POPC   D2A12628  26.088  28.320   8.255
 6316POPC   C3A12629  26.069  28.407   7.955
 6316POPC   C4A12630  26.045  28.398   7.655
 6316POPC   C1B12631  25.854  28.242   8.555
 6316POPC   C2B12632  25.798  28.170   8.255
 6316POPC   C3B12633  25.847  28.200   7.955
 6316POPC   C4B12634  25.869  28.191   7.655
 6317POPC   NC312635   6.665   5.822   9.455
 6317POPC   PO412636   6.638   5.858   9.155
 6317POPC   GL112637   6.658   5.890   8.855
 6317POPC   GL212638   6.809   5.775   8.855
 6317POPC   C1A12639   6.653   5.877   8.555
 6317POPC   D2A12640   6.617   5.914   8.255
 6317POPC   C3A12641   6.692   5.892   7.955
 6317POPC   C4A12642   6.678   5.865   7.655
 6317POPC   C1B12643   6.918   5.815   8.555
 6317POPC   C2B12644   6.884   5.796   8.255
 6317POPC   C3B12645   6.848   5.813   7.955
 6317POPC   C4B12646   6.888   5.825   7.655
 6318POPC   NC312647  40.039   1.216   9.455
 6318POPC   PO412648  40.056   1.263   9.155
 6318POPC   GL112649  40.038   1.202   8.855
 6318POPC   GL212650  39.923   1.061   8.855
 6318POPC   C1A12651  39.958   1.262   8.555
 6318POPC   D2A12652  39.981   1.194   8.255
 6318POPC   C3A12653  39.992   1.220   7.955
 6318POPC   C4A12654  40.037   1.254   7.655
 6318POPC   C1B12655  39.837   0.952   8.555
 6318POPC   C2B12656  39.881   1.025   8.255
 6318POPC   C3B12657  39.914   1.007   7.955
 6318POPC   C4B12658  39.889   0.958   7.655
 6319POPC   NC312659   2.015   7.378   9.455
 6319POPC   PO412660   1.984   7.403   9.155
 6319POPC   GL112661   1.983   7.420   8.855
 6319POPC   GL212662   1.837   7.413   8.855
 6319POPC   C1A12663   1.944   7.417   8.555
 6319POPC   D2A12664   1.972   7.453   8.255
 6319POPC   C3A12665   2.021   7.441   7.955
 6319POPC   C4A12666   2.011   7.411   7.655
 6319POPC   C1B12667   1.771   7.412   8.555
 6319POPC   C2B12668   1.697   7.376   8.255
 6319POPC   C3B12669   1.737   7.367   7.955
 6319POPC   C4B12670   1.781   7.404   7.655
 6320POPC   NC312671  41.526  21.383   9.455
 6320POPC   PO412672  41.551  21.376   9.155
 6320POPC   GL112673  41.549  21.372   8.855
 6320POPC   GL212674  41.511  21.458   8.855
 6320POPC   C1A12675  41.594  21.422   8.555
 6320POPC   D2A12676  41.523  21.419   8.255
 6320POPC   C3A12677  41.548  21.412   7.955
 6320POPC   C4A12678  41.563  21.388   7.655
 6320POPC   C1B12679  41.347  21.553   8.555
 6320POPC   C2B12680  41.409  21.561   8.255
 6320POPC   C3B12681  41.332  21.520   7.955
 6320POPC   C4B12682  41.406  21.567   7.655
 6321POPC   NC312683   3.560  21.375   9.455
 6321POPC   PO412684   3.557  21.364   9.155
 6321POPC   GL112685   3.531  21.387   8.855
 6321POPC   GL212686   3.589  21.464   8.855
 6321POPC   C1A12687   3.538  21.342   8.555
 6321POPC   D2A12688   3.504  21.434   8.255
 6321POPC   C3A12689   3.555  21.395   7.955
 6321POPC   C4A12690   3.519  21.423   7.655
 6321POPC   C1B12691   3.666  21.563   8.555
 6321POPC   C2B12692   3.754  21.568   8.255
 6321POPC   C3B12693   3.724  21.598   7.955
 6321POPC   C4B12694   3.712  21.607   7.655
 6322POPC   NC312695  36.162  44.647   9.455
 6322POPC   PO412696  36.122  44.630   9.155
 6322POPC   GL112697  36.093  44.643   8.855
 6322POPC   GL212698  36.089  44.788   8.855
 6322POPC   C1A12699  36.136  44.626   8.555
 6322POPC   D2A12700  36.111  44.659   8.255
 6322POPC   C3A12701  36.121  44.661   7.955
 6322POPC   C4A12702  36.166  44.658   7.655
 6322POPC   C1B12703  36.052  44.880   8.555
 6322POPC   C2B12704  36.051  44.937   8.255
 6322POPC   C3B12705  35.995  44.848   7.955
 6322POPC   C4B12706  36.023  44.874   7.655
 6323POPC   NC312707  25.263  20.574   9.455
 6323POPC   PO412708  25.287  20.614   9.155
 6323POPC   GL112709  25.310  20.617   8.855
 6323POPC   GL212710  25.118  20.546   8.855
 6323POPC   C1A12711  25.229  20.603   8.555
 6323POPC   D2A12712  25.305  20.647   8.255
 6323POPC   C3A12713  25.285  20.610   7.955
 6323POPC   C4A12714  25.258  20.659   7.655
 6323POPC   C1B12715  25.026  20.454   8.555
 6323POPC   C2B12716  25.102  20.428   8.255
 6323POPC   C3B12717  25.096  20.437   7.955
 6323POPC   C4B12718  25.090  20.443   7.655
 6324POPC   NC312719  30.663  42.367   9.455
 6324POPC   PO412720  30.678  42.336   9.155
 6324POPC   GL112721  30.656  42.344   8.855
 6324POPC   GL212722  30.715  42.475   8.855
 6324POPC   C1A12723  30.706  42.351   8.555
 6324POPC   D2A12724  30.704  42.333   8.255
 6324POPC   C3A12725  30.663  42.340   7.955
 6324POPC   C4A12726  30.721  42.375   7.655
 6324POPC   C1B12727  30.761  42.585   8.555
 6324POPC   C2B12728  30.765  42.578   8.255
 6324POPC   C3B12729  30.793  42.563   7.955
 6324POPC   C4B12730  30.812  42.596   7.655
 6325POPC   NC312731  28.353   3.552   9.455
 6325POPC   PO412732  28.351   3.539   9.155
 6325POPC   GL112733  28.385   3.497   8.855
 6325POPC   GL212734  28.489   3.632   8.855
 6325POPC   C1A12735  28.346   3.561   8.555
 6325POPC   D2A12736  28.370   3.511   8.255
 6325POPC   C3A12737  28.371   3.514   7.955
 6325POPC   C4A12738  28.358   3.541   7.655
 6325POPC   C1B12739  28.529   3.751   8.555
 6325POPC   C2B12740  28.598   3.674   8.255
 6325POPC   C3B12741  28.587   3.679   7.955
 6325POPC   C4B12742  28.553   3.760   7.655
 6326POPC   NC312743  31.427  36.930   9.455
 6326POPC   PO412744  31.468  36.912   9.155
 6326POPC   GL112745  31.455  36.883   8.855
 6326POPC   GL212746  31.302  36.886   8.855
 6326POPC   C1A12747  31.431  36.910   8.555
 6326POPC   D2A12748  31.476  36.864   8.255
 6326POPC   C3A12749  31.503  36.881   7.955
 6326POPC   C4A12750  31.430  36.878   7.655
 6326POPC   C1B12751  31.221  36.885   8.555
 6326POPC   C2B12752  31.252  36.888   8.255
 6326POPC   C3B12753  31.213  36.965   7.955
 6326POPC   C4B12754  31.234  36.868   7.655
 6327POPC   NC312755  16.759  32.286   9.455
 6327POPC   PO412756  16.770  32.298   9.155
 6327POPC   GL112757  16.688  32.244   8.855
 6327POPC   GL212758  16.684  32.150   8.855
 6327POPC   C1A12759  16.746  32.211   8.555
 6327POPC   D2A12760  16.759  32.223   8.255
 6327POPC   C3A12761  16.721  32.207   7.955
 6327POPC   C4A12762  16.683  32.251   7.655
 6327POPC   C1B12763  16.691  31.991   8.555
 6327POPC   C2B12764  16.665  31.995   8.255
 6327POPC   C3B12765  16.739  32.039   7.955
 6327POPC   C4B12766  16.725  32.005   7.655
 6328POPC   NC312767  43.070  34.609   9.455
 6328POPC   PO412768  43.077  34.620   9.155
 6328POPC   GL112769  43.145  34.541   8.855
 6328POPC   GL212770  43.217  34.666   8.855
 6328POPC   C1A12771  43.101  34.615   8.555
 6328POPC   D2A12772  43.154  34.556   8.255
 6328POPC   C3A12773  43.147  34.532   7.955
 6328POPC   C4A12774  43.124  34.579   7.655
 6328POPC   C1B12775  43.324  34.639   8.555
 6328POPC   C2B12776  43.388  34.623   8.255
 6328POPC   C3B12777  43.388  34.628   7.955
 6328POPC   C4B12778  43.356  34.704   7.655
 6329POPC   NC312779  43.092  21.425   9.455
 6329POPC   PO412780  43.141  21.345   9.155
 6329POPC   GL112781  43.085  21.374   8.855
 6329POPC   GL212782  43.034  21.548   8.855
 6329POPC   C1A12783  43.125  21.404   8.555
 6329POPC   D2A12784  43.064  21.429   8.255
 6329POPC   C3A12785  43.118  21.337   7.955
 6329POPC   C4A12786  43.128  21.412   7.655
 6329POPC   C1B12787  42.991  21.622   8.555
 6329POPC   C2B12788  43.047  21.580   8.255
 6329POPC   C3B12789  43.044  21.606   7.955
 6329POPC   C4B12790  42.976  21.604   7.655
 6330POPC   NC312791  34.543  24.504   9.455
 6330POPC   PO412792  34.586  24.498   9.155
 6330POPC   GL112793  34.531  24.477   8.855
 6330POPC   GL212794  34.519  24.330   8.855
 6330POPC   C1A12795  34.564  24.539   8.555
 6330POPC   D2A12796  34.575  24.495   8.255
 6330POPC   C3A12797  34.584  24.530   7.955
 6330POPC   C4A12798  34.577  24.521   7.655
 6330POPC   C1B12799  34.601  24.289   8.555
 6330POPC   C2B12800  34.536  24.257   8.255
 6330POPC   C3B12801  34.513  24.220   7.955
 6330POPC   C4B12802  34.587  24.283   7.655
 6331POPC   NC312803  38.487  15.217   9.455
 6331POPC   PO412804  38.467  15.172   9.155
 6331POPC   GL112805  38.452  15.182   8.855
 6331POPC   GL212806  38.365  15.248   8.855
 6331POPC   C1A12807  38.464  15.223   8.555
 6331POPC   D2A12808  38.499  15.203   8.255
 6331POPC   C3A12809  38.423  15.225   7.955
 6331POPC   C4A12810  38.470  15.180   7.655
 6331POPC   C1B12811  38.313  15.371   8.555
 6331POPC   C2B12812  38.329  15.363   8.255
 6331POPC   C3B12813  38.368  15.366   7.955
 6331POPC   C4B12814  38.371  15.406   7.655
 6332POPC   NC312815  27.642  34.550   9.455
 6332POPC   PO412816  27.630  34.617   9.155
 6332POPC   GL112817  27.559  34.616   8.855
 6332POPC   GL212818  27.672  34.643   8.855
 6332POPC   C1A12819  27.594  34.605   8.555
 6332POPC   D2A12820  27.582  34.580   8.255
 6332POPC   C3A12821  27.547  34.622   7.955
 6332POPC   C4A12822  27.598  34.599   7.655
 6332POPC   C1B12823  27.841  34.752   8.555
 6332POPC   C2B12824  27.802  34.749   8.255
 6332POPC   C3B12825  27.807  34.738   7.955
 6332POPC   C4B12826  27.832  34.730   7.655
 6333POPC   NC312827  28.356  19.018   9.455
 6333POPC   PO412828  28.374  19.009   9.155
 6333POPC   GL112829  28.405  19.022   8.855
 6333POPC   GL212830  28.303  18.927   8.855
 6333POPC   C1A12831  28.371  19.011   8.555
 6333POPC   D2A12832  28.327  19.081   8.255
 6333POPC   C3A12833  28.384  19.044   7.955
 6333POPC   C4A12834  28.322  19.067   7.655
 6333POPC   C1B12835  28.259  18.825   8.555
 6333POPC   C2B12836  28.345  18.822   8.255
 6333POPC   C3B12837  28.329  18.813   7.955
 6333POPC   C4B12838  28.293  18.780   7.655
 6334POPC   NC312839  41.533  19.864   9.455
 6334POPC   PO412840  41.551  19.864   9.155
 6334POPC   GL112841  41.541  19.868   8.855
 6334POPC   GL212842  41.448  19.867   8.855
 6334POPC   C1A12843  41.532  19.786   8.555
 6334POPC   D2A12844  41.567  19.818   8.255
 6334POPC   C3A12845  41.581  19.880   7.955
 6334POPC   C4A12846  41.518  19.795   7.655
 6334POPC   C1B12847  41.313  19.841   8.555
 6334POPC   C2B12848  41.287  19.886   8.255
 6334POPC   C3B12849  41.283  19.869   7.955
 6334POPC   C4B12850  41.315  19.859   7.655
 6335POPC   NC312851  30.738  32.992   9.455
 6335POPC   PO412852  30.719  32.992   9.155
 6335POPC   GL112853  30.697  33.047   8.855
 6335POPC   GL212854  30.588  33.011   8.855
 6335POPC   C1A12855  30.722  33.069   8.555
 6335POPC   D2A12856  30.666  32.984   8.255
 6335POPC   C3A12857  30.703  33.072   7.955
 6335POPC   C4A12858  30.683  33.007   7.655
 6335POPC   C1B12859  30.413  32.966   8.555
 6335POPC   C2B12860  30.416  32.974   8.255
 6335POPC   C3B12861  30.447  32.924   7.955
 6335POPC   C4B12862  30.442  32.901   7.655
 6336POPC   NC312863   8.165   9.700   9.455
 6336POPC   PO412864   8.149   9.726   9.155
 6336POPC   GL112865   8.236   9.794   8.855
 6336POPC   GL212866   8.131   9.811   8.855
 6336POPC   C1A12867   8.245   9.709   8.555
 6336POPC   D2A12868   8.238   9.796   8.255
 6336POPC   C3A12869   8.205   9.708   7.955
 6336POPC   C4A12870   8.245   9.699   7.655
 6336POPC   C1B12871   7.976   9.879   8.555
 6336POPC   C2B12872   8.003   9.817   8.255
 6336POPC   C3B12873   7.967   9.882   7.955
 6336POPC   C4B12874   7.964   9.875   7.655
 6337POPC   NC312875  43.844  36.916   9.455
 6337POPC   PO412876  43.903  36.858   9.155
 6337POPC   GL112877  43.901  36.941   8.855
 6337POPC   GL212878  43.924  36.779   8.855
 6337POPC   C1A12879  43.838  36.884   8.555
 6337POPC   D2A12880  43.839  36.935   8.255
 6337POPC   C3A12881  43.855  36.875   7.955
 6337POPC   C4A12882  43.871  36.868   7.655
 6337POPC   C1B12883  44.030  36.708   8.555
 6337POPC   C2B12884  44.005  36.703   8.255
 6337POPC   C3B12885  44.045  36.676   7.955
 6337POPC   C4B12886  44.039  36.691   7.655
 6338POPC   NC312887  23.738  14.441   9.455
 6338POPC   PO412888  23.728  14.448   9.155
 6338POPC   GL112889  23.665  14.424   8.855
 6338POPC   GL212890  23.854  14.420   8.855
 6338POPC   C1A12891  23.746  14.429   8.555
 6338POPC   D2A12892  23.690  14.437   8.255
 6338POPC   C3A12893  23.674  14.393   7.955
 6338POPC   C4A12894  23.682  14.434   7.655
 6338POPC   C1B12895  23.914  14.494   8.555
 6338POPC   C2B12896  23.941  14.480   8.255
 6338POPC   C3B12897  23.903  14.455   7.955
 6338POPC   C4B12898  23.916  14.455   7.655
 6339POPC   NC312899  20.627  22.151   9.455
 6339POPC   PO412900  20.603  22.117   9.155
 6339POPC   GL112901  20.660  22.181   8.855
 6339POPC   GL212902  20.494  22.267   8.855
 6339POPC   C1A12903  20.617  22.134   8.555
 6339POPC   D2A12904  20.591  22.150   8.255
 6339POPC   C3A12905  20.643  22.127   7.955
 6339POPC   C4A12906  20.612  22.148   7.655
 6339POPC   C1B12907  20.431  22.390   8.555
 6339POPC   C2B12908  20.475  22.392   8.255
 6339POPC   C3B12909  20.497  22.412   7.955
 6339POPC   C4B12910  20.431  22.331   7.655
 6340POPC   NC312911  42.301  15.944   9.455
 6340POPC   PO412912  42.296  15.932   9.155
 6340POPC   GL112913  42.351  16.003   8.855
 6340POPC   GL212914  42.283  16.090   8.855
 6340POPC   C1A12915  42.370  15.978   8.555
 6340POPC   D2A12916  42.345  15.946   8.255
 6340POPC   C3A12917  42.345  15.937   7.955
 6340POPC   C4A12918  42.369  15.991   7.655
 6340POPC   C1B12919  42.226  16.174   8.555
 6340POPC   C2B12920  42.227  16.200   8.255
 6340POPC   C3B12921  42.217  16.141   7.955
 6340POPC   C4B12922  42.215  16.185   7.655
 6341POPC   NC312923  39.962  41.518   9.455
 6341POPC   PO412924  40.046  41.571   9.155
 6341POPC   GL112925  40.018  41.512   8.855
 6341POPC   GL212926  40.164  41.539   8.855
 6341POPC   C1A12927  39.996  41.572   8.555
 6341POPC   D2A12928  40.010  41.577   8.255
 6341POPC   C3A12929  40.020  41.516   7.955
 6341POPC   C4A12930  39.966  41.562   7.655
 6341POPC   C1B12931  40.296  41.634   8.555
 6341POPC   C2B12932  40.254  41.631   8.255
 6341POPC   C3B12933  40.274  41.574   7.955
 6341POPC   C4B12934  40.297  41.628   7.655
 6342POPC   NC312935  22.157  17.517   9.455
 6342POPC   PO412936  22.207  17.460   9.155
 6342POPC   GL112937  22.195  17.518   8.855
 6342POPC   GL212938  22.186  17.640   8.855
 6342POPC   C1A12939  22.177  17.533   8.555
 6342POPC   D2A12940  22.207  17.462   8.255
 6342POPC   C3A12941  22.146  17.497   7.955
 6342POPC   C4A12942  22.203  17.524   7.655
 6342POPC   C1B12943  22.154  17.805   8.555
 6342POPC   C2B12944  22.177  17.734   8.255
 6342POPC   C3B12945  22.160  17.793   7.955
 6342POPC   C4B12946  22.129  17.771   7.655
 6343POPC   NC312947  40.010   7.418   9.455
 6343POPC   PO412948  40.018   7.470   9.155
 6343POPC   GL112949  40.028   7.440   8.855
 6343POPC   GL212950  40.114   7.380   8.855
 6343POPC   C1A12951  40.022   7.464   8.555
 6343POPC   D2A12952  40.041   7.417   8.255
 6343POPC   C3A12953  40.016   7.460   7.955
 6343POPC   C4A12954  39.958   7.402   7.655
 6343POPC   C1B12955  40.146   7.302   8.555
 6343POPC   C2B12956  40.239   7.285   8.255
 6343POPC   C3B12957  40.144   7.269   7.955
 6343POPC   C4B12958  40.239   7.212   7.655
 6344POPC   NC312959  43.908  12.115   9.455
 6344POPC   PO412960  43.850  12.093   9.155
 6344POPC   GL112961  43.870  12.105   8.855
 6344POPC   GL212962  43.790  12.088   8.855
 6344POPC   C1A12963  43.881  12.102   8.555
 6344POPC   D2A12964  43.876  12.085   8.255
 6344POPC   C3A12965  43.867  12.038   7.955
 6344POPC   C4A12966  43.890  12.058   7.655
 6344POPC   C1B12967  43.621  12.111   8.555
 6344POPC   C2B12968  43.595  12.162   8.255
 6344POPC   C3B12969  43.615  12.113   7.955
 6344POPC   C4B12970  43.616  12.085   7.655
 6345POPC   NC312971  29.874  28.388   9.455
 6345POPC   PO412972  29.912  28.375   9.155
 6345POPC   GL112973  29.929  28.363   8.855
 6345POPC   GL212974  29.869  28.274   8.855
 6345POPC   C1A12975  29.908  28.383   8.555
 6345POPC   D2A12976  29.955  28.402   8.255
 6345POPC   C3A12977  29.889  28.362   7.955
 6345POPC   C4A12978  29.904  28.392   7.655
 6345POPC   C1B12979  29.760  28.192   8.555
 6345POPC   C2B12980  29.820  28.121   8.255
 6345POPC   C3B12981  29.776  28.189   7.955
 6345POPC   C4B12982  29.795  28.187   7.655
 6346POPC   NC312983   9.760  13.644   9.455
 6346POPC   PO412984   9.727  13.589   9.155
 6346POPC   GL112985   9.783  13.661   8.855
 6346POPC   GL212986   9.673  13.715   8.855
 6346POPC   C1A12987   9.744  13.667   8.555
 6346POPC   D2A12988   9.739  13.589   8.255
 6346POPC   C3A12989   9.778  13.628   7.955
 6346POPC   C4A12990   9.791  13.628   7.655
 6346POPC   C1B12991   9.692  13.822   8.555
 6346POPC   C2B12992   9.662  13.887   8.255
 6346POPC   C3B12993   9.622  13.904   7.955
 6346POPC   C4B12994   9.641  13.859   7.655
 6347POPC   NC312995  44.664  33.074   9.455
 6347POPC   PO412996  44.661  32.979   9.155
 6347POPC   GL112997  44.645  33.052   8.855
 6347POPC   GL212998  44.766  32.980   8.855
 6347POPC   C1A12999  44.629  33.052   8.555
 6347POPC   D2A13000  44.632  33.035   8.255
 6347POPC   C3A13001  44.627  32.992   7.955
 6347POPC   C4A13002  44.702  33.007   7.655
 6347POPC   C1B13003  44.890  33.011   8.555
 6347POPC   C2B13004  44.955  33.012   8.255
 6347POPC   C3B13005  44.888  32.995   7.955
 6347POPC   C4B13006  44.959  32.970   7.655
 6348POPC   NC313007  14.382  16.738   9.455
 6348POPC   PO413008  14.428  16.716   9.155
 6348POPC   GL113009  14.410  16.718   8.855
 6348POPC   GL213010  14.295  16.692   8.855
 6348POPC   C1A13011  14.435  16.691   8.555
 6348POPC   D2A13012  14.404  16.756   8.255
 6348POPC   C3A13013  14.366  16.681   7.955
 6348POPC   C4A13014  14.382  16.702   7.655
 6348POPC   C1B13015  14.190  16.667   8.555
 6348POPC   C2B13016  14.195  16.631   8.255
 6348POPC   C3B13017  14.138  16.677   7.955
 6348POPC   C4B13018  14.215  16.630   7.655
 6349POPC   NC313019  38.459  29.936   9.455
 6349POPC   PO413020  38.424  29.953   9.155
 6349POPC   GL113021  38.435  29.871   8.855
 6349POPC   GL213022  38.495  29.986   8.855
 6349POPC   C1A13023  38.447  29.892   8.555
 6349POPC   D2A13024  38.433  29.891   8.255
 6349POPC   C3A13025  38.423  29.876   7.955
 6349POPC   C4A13026  38.439  29.943   7.655
 6349POPC   C1B13027  38.611  30.095   8.555
 6349POPC   C2B13028  38.549  30.134   8.255
 6349POPC   C3B13029  38.547  30.104   7.955
 6349POPC   C4B13030  38.578  30.162   7.655
 6350POPC   NC313031  12.857  42.286   9.455
 6350POPC   PO413032  12.867  42.289   9.155
 6350POPC   GL113033  12.818  42.382   8.855
 6350POPC   GL213034  12.909  42.472   8.855
 6350POPC   C1A13035  12.840  42.311   8.555
 6350POPC   D2A13036  12.878  42.375   8.255
 6350POPC   C3A13037  12.842  42.305   7.955
 6350POPC   C4A13038  12.831  42.380   7.655
 6350POPC   C1B13039  12.898  42.540   8.555
 6350POPC   C2B13040  12.923  42.528   8.255
 6350POPC   C3B13041  12.952  42.547   7.955
 6350POPC   C4B13042  12.919  42.612   7.655
 6351POPC   NC313043   1.944  13.591   9.455
 6351POPC   PO413044   1.968  13.586   9.155
 6351POPC   GL113045   2.004  13.608   8.855
 6351POPC   GL213046   1.986  13.490   8.855
 6351POPC   C1A13047   1.955  13.593   8.555
 6351POPC   D2A13048   2.018  13.630   8.255
 6351POPC   C3A13049   1.963  13.579   7.955
 6351POPC   C4A13050   2.001  13.611   7.655
 6351POPC   C1B13051   1.918  13.441   8.555
 6351POPC   C2B13052   1.865  13.351   8.255
 6351POPC   C3B13053   1.928  13.436   7.955
 6351POPC   C4B13054   1.895  13.430   7.655
 6352POPC   NC313055  24.533   1.184   9.455
 6352POPC   PO413056  24.460   1.242   9.155
 6352POPC   GL113057  24.473   1.210   8.855
 6352POPC   GL213058  24.450   1.304   8.855
 6352POPC   C1A13059  24.514   1.232   8.555
 6352POPC   D2A13060  24.522   1.241   8.255
 6352POPC   C3A13061  24.456   1.204   7.955
 6352POPC   C4A13062  24.474   1.226   7.655
 6352POPC   C1B13063  24.301   1.415   8.555
 6352POPC   C2B13064  24.374   1.361   8.255
 6352POPC   C3B13065  24.368   1.415   7.955
 6352POPC   C4B13066  24.311   1.452   7.655
 6353POPC   NC313067  42.348  19.803   9.455
 6353POPC   PO413068  42.362  19.832   9.155
 6353POPC   GL113069  42.372  19.789   8.855
 6353POPC   GL213070  42.274  19.801   8.855
 6353POPC   C1A13071  42.313  19.789   8.555
 6353POPC   D2A13072  42.352  19.846   8.255
 6353POPC   C3A13073  42.339  19.838   7.955
 6353POPC   C4A13074  42.347  19.882   7.655
 6353POPC   C1B13075  42.165  19.661   8.555
 6353POPC   C2B13076  42.149  19.720   8.255
 6353POPC   C3B13077  42.116  19.647   7.955
 6353POPC   C4B13078  42.171  19.721   7.655
 6354POPC   NC313079  17.522  26.794   9.455
 6354POPC   PO413080  17.510  26.845   9.155
 6354POPC   GL113081  17.539  26.833   8.855
 6354POPC   GL213082  17.491  26.901   8.855
 6354POPC   C1A13083  17.522  26.856   8.555
 6354POPC   D2A13084  17.533  26.770   8.255
 6354POPC   C3A13085  17.502  26.852   7.955
 6354POPC   C4A13086  17.529  26.777   7.655
 6354POPC   C1B13087  17.578  27.039   8.555
 6354POPC   C2B13088  17.581  27.098   8.255
 6354POPC   C3B13089  17.518  27.015   7.955
 6354POPC   C4B13090  17.538  27.040   7.655
 6355POPC   NC313091   8.933  17.550   9.455
 6355POPC   PO413092   8.923  17.542   9.155
 6355POPC   GL113093   8.964  17.476   8.855
 6355POPC   GL213094   8.983  17.585   8.855
 6355POPC   C1A13095   8.985  17.544   8.555
 6355POPC   D2A13096   8.928  17.516   8.255
 6355POPC   C3A13097   8.948  17.511   7.955
 6355POPC   C4A13098   8.926  17.495   7.655
 6355POPC   C1B13099   8.961  17.724   8.555
 6355POPC   C2B13100   8.958  17.718   8.255
 6355POPC   C3B13101   8.953  17.796   7.955
 6355POPC   C4B13102   8.962  17.723   7.655
 6356POPC   NC313103  22.944  19.851   9.455
 6356POPC   PO413104  22.979  19.848   9.155
 6356POPC   GL113105  22.975  19.837   8.855
 6356POPC   GL213106  22.862  19.819   8.855
 6356POPC   C1A13107  22.984  19.785   8.555
 6356POPC   D2A13108  22.939  19.811   8.255
 6356POPC   C3A13109  22.977  19.861   7.955
 6356POPC   C4A13110  22.958  19.805   7.655
 6356POPC   C1B13111  22.656  19.785   8.555
 6356POPC   C2B13112  22.651  19.764   8.255
 6356POPC   C3B13113  22.657  19.825   7.955
 6356POPC   C4B13114  22.731  19.858   7.655
 6357POPC   NC313115  40.733  29.163   9.455
 6357POPC   PO413116  40.743  29.169   9.155
 6357POPC   GL113117  40.791  29.188   8.855
 6357POPC   GL213118  40.742  29.223   8.855
 6357POPC   C1A13119  40.802  29.101   8.555
 6357POPC   D2A13120  40.810  29.127   8.255
 6357POPC   C3A13121  40.767  29.121   7.955
 6357POPC   C4A13122  40.734  29.128   7.655
 6357POPC   C1B13123  40.667  29.324   8.555
 6357POPC   C2B13124  40.624  29.359   8.255
 6357POPC   C3B13125  40.625  29.342   7.955
 6357POPC   C4B13126  40.664  29.401   7.655
 6358POPC   NC313127   2.001  35.311   9.455
 6358POPC   PO413128   1.962  35.314   9.155
 6358POPC   GL113129   2.007  35.349   8.855
 6358POPC   GL213130   1.878  35.397   8.855
 6358POPC   C1A13131   2.011  35.354   8.555
 6358POPC   D2A13132   1.999  35.372   8.255
 6358POPC   C3A13133   2.016  35.307   7.955
 6358POPC   C4A13134   1.992  35.358   7.655
 6358POPC   C1B13135   1.791  35.478   8.555
 6358POPC   C2B13136   1.730  35.435   8.255
 6358POPC   C3B13137   1.724  35.463   7.955
 6358POPC   C4B13138   1.719  35.393   7.655
 6359POPC   NC313139  31.522  29.152   9.455
 6359POPC   PO413140  31.516  29.115   9.155
 6359POPC   GL113141  31.452  29.129   8.855
 6359POPC   GL213142  31.309  29.131   8.855
 6359POPC   C1A13143  31.465  29.124   8.555
 6359POPC   D2A13144  31.481  29.134   8.255
 6359POPC   C3A13145  31.510  29.139   7.955
 6359POPC   C4A13146  31.494  29.141   7.655
 6359POPC   C1B13147  31.252  29.061   8.555
 6359POPC   C2B13148  31.259  29.066   8.255
 6359POPC   C3B13149  31.227  29.062   7.955
 6359POPC   C4B13150  31.251  29.070   7.655
 6360POPC   NC313151   1.170  31.426   9.455
 6360POPC   PO413152   1.179  31.486   9.155
 6360POPC   GL113153   1.228  31.430   8.855
 6360POPC   GL213154   1.169  31.584   8.855
 6360POPC   C1A13155   1.185  31.496   8.555
 6360POPC   D2A13156   1.241  31.457   8.255
 6360POPC   C3A13157   1.178  31.488   7.955
 6360POPC   C4A13158   1.199  31.445   7.655
 6360POPC   C1B13159   1.203  31.700   8.555
 6360POPC   C2B13160   1.179  31.700   8.255
 6360POPC   C3B13161   1.183  31.768   7.955
 6360POPC   C4B13162   1.160  31.742   7.655
 6361POPC   NC313163  19.883  27.618   9.455
 6361POPC   PO413164  19.872  27.549   9.155
 6361POPC   GL113165  19.812  27.642   8.855
 6361POPC   GL213166  19.713  27.511   8.855
 6361POPC   C1A13167  19.823  27.640   8.555
 6361POPC   D2A13168  19.829  27.580   8.255
 6361POPC   C3A13169  19.789  27.545   7.955
 6361POPC   C4A13170  19.804  27.549   7.655
 6361POPC   C1B13171  19.634  27.450   8.555
 6361POPC   C2B13172  19.675  27.371   8.255
 6361POPC   C3B13173  19.629  27.381   7.955
 6361POPC   C4B13174  19.632  27.366   7.655
 6362POPC   NC313175  19.035   3.550   9.455
 6362POPC   PO413176  19.009   3.563   9.155
 6362POPC   GL113177  19.082   3.544   8.855
 6362POPC   GL213178  19.160   3.595   8.855
 6362POPC   C1A13179  19.045   3.500   8.555
 6362POPC   D2A13180  19.019   3.523   8.255
 6362POPC   C3A13181  19.051   3.534   7.955
 6362POPC   C4A13182  19.089   3.557   7.655
 6362POPC   C1B13183  19.287   3.649   8.555
 6362POPC   C2B13184  19.293   3.714   8.255
 6362POPC   C3B13185  19.229   3.650   7.955
 6362POPC   C4B13186  19.314   3.648   7.655
 6363POPC   NC313187  24.485   3.568   9.455
 6363POPC   PO413188  24.453   3.565   9.155
 6363POPC   GL113189  24.476   3.535   8.855
 6363POPC   GL213190  24.459   3.463   8.855
 6363POPC   C1A13191  24.469   3.504   8.555
 6363POPC   D2A13192  24.513   3.535   8.255
 6363POPC   C3A13193  24.525   3.570   7.955
 6363POPC   C4A13194  24.518   3.548   7.655
 6363POPC   C1B13195  24.380   3.329   8.555
 6363POPC   C2B13196  24.352   3.272   8.255
 6363POPC   C3B13197  24.349   3.276   7.955
 6363POPC   C4B13198  24.350   3.306   7.655
 6364POPC   NC313199  36.127  31.509   9.455
 6364POPC   PO413200  36.110  31.425   9.155
 6364POPC   GL113201  36.118  31.508   8.855
 6364POPC   GL213202  36.083  31.320   8.855
 6364POPC   C1A13203  36.141  31.513   8.555
 6364POPC   D2A13204  36.132  31.511   8.255
 6364POPC   C3A13205  36.135  31.486   7.955
 6364POPC   C4A13206  36.110  31.491   7.655
 6364POPC   C1B13207  36.067  31.202   8.555
 6364POPC   C2B13208  36.021  31.235   8.255
 6364POPC   C3B13209  36.006  31.218   7.955
 6364POPC   C4B13210  36.013  31.213   7.655
 6365POPC   NC313211  33.763  23.756   9.455
 6365POPC   PO413212  33.778  23.704   9.155
 6365POPC   GL113213  33.820  23.726   8.855
 6365POPC   GL213214  33.724  23.767   8.855
 6365POPC   C1A13215  33.774  23.740   8.555
 6365POPC   D2A13216  33.794  23.745   8.255
 6365POPC   C3A13217  33.824  23.692   7.955
 6365POPC   C4A13218  33.804  23.739   7.655
 6365POPC   C1B13219  33.623  23.868   8.555
 6365POPC   C2B13220  33.584  23.860   8.255
 6365POPC   C3B13221  33.585  23.812   7.955
 6365POPC   C4B13222  33.626  23.865   7.655
 6366POPC   NC313223  28.336  29.963   9.455
 6366POPC   PO413224  28.339  29.933   9.155
 6366POPC   GL113225  28.376  29.966   8.855
 6366POPC   GL213226  28.498  29.984   8.855
 6366POPC   C1A13227  28.404  29.877   8.555
 6366POPC   D2A13228  28.327  29.932   8.255
 6366POPC   C3A13229  28.335  29.898   7.955
 6366POPC   C4A13230  28.332  29.964   7.655
 6366POPC   C1B13231  28.647  29.911   8.555
 6366POPC   C2B13232  28.583  29.986   8.255
 6366POPC   C3B13233  28.617  29.975   7.955
 6366POPC   C4B13234  28.574  29.942   7.655
 6367POPC   NC313235  20.609  28.330   9.455
 6367POPC   PO413236  20.654  28.406   9.155
 6367POPC   GL113237  20.643  28.360   8.855
 6367POPC   GL213238  20.683  28.419   8.855
 6367POPC   C1A13239  20.603  28.338   8.555
 6367POPC   D2A13240  20.575  28.399   8.255
 6367POPC   C3A13241  20.643  28.406   7.955
 6367POPC   C4A13242  20.626  28.394   7.655
 6367POPC   C1B13243  20.806  28.455   8.555
 6367POPC   C2B13244  20.866  28.409   8.255
 6367POPC   C3B13245  20.843  28.391   7.955
 6367POPC   C4B13246  20.867  28.422   7.655
 6368POPC   NC313247  11.341   5.883   9.455
 6368POPC   PO413248  11.254   5.915   9.155
 6368POPC   GL113249  11.339   5.902   8.855
 6368POPC   GL213250  11.236   5.925   8.855
 6368POPC   C1A13251  11.342   5.840   8.555
 6368POPC   D2A13252  11.275   5.865   8.255
 6368POPC   C3A13253  11.349   5.851   7.955
 6368POPC   C4A13254  11.272   5.867   7.655
 6368POPC   C1B13255  11.067   6.003   8.555
 6368POPC   C2B13256  11.099   6.006   8.255
 6368POPC   C3B13257  11.090   5.979   7.955
 6368POPC   C4B13258  11.087   6.004   7.655
 6369POPC   NC313259  29.130  24.453   9.455
 6369POPC   PO413260  29.133  24.468   9.155
 6369POPC   GL113261  29.098  24.526   8.855
 6369POPC   GL213262  28.974  24.435   8.855
 6369POPC   C1A13263  29.102  24.475   8.555
 6369POPC   D2A13264  29.138  24.466   8.255
 6369POPC   C3A13265  29.114  24.447   7.955
 6369POPC   C4A13266  29.188  24.450   7.655
 6369POPC   C1B13267  28.898  24.428   8.555
 6369POPC   C2B13268  28.887  24.442   8.255
 6369POPC   C3B13269  28.864  24.426   7.955
 6369POPC   C4B13270  28.915  24.476   7.655
 6370POPC   NC313271   3.558  15.176   9.455
 6370POPC   PO413272   3.491  15.151   9.155
 6370POPC   GL113273   3.553  15.150   8.855
 6370POPC   GL213274   3.623  15.131   8.855
 6370POPC   C1A13275   3.508  15.216   8.555
 6370POPC   D2A13276   3.558  15.167   8.255
 6370POPC   C3A13277   3.562  15.195   7.955
 6370POPC   C4A13278   3.571  15.185   7.655
 6370POPC   C1B13279   3.795  15.158   8.555
 6370POPC   C2B13280   3.825  15.184   8.255
 6370POPC   C3B13281   3.836  15.125   7.955
 6370POPC   C4B13282   3.829  15.175   7.655
 6371POPC   NC313283  24.461   0.481   9.455
 6371POPC   PO413284  24.456   0.421   9.155
 6371POPC   GL113285  24.527   0.439   8.855
 6371POPC   GL213286  24.408   0.466   8.855
 6371POPC   C1A13287  24.539   0.411   8.555
 6371POPC   D2A13288  24.440   0.405   8.255
 6371POPC   C3A13289  24.502   0.481   7.955
 6371POPC   C4A13290  24.508   0.423   7.655
 6371POPC   C1B13291  24.214   0.396   8.555
 6371POPC   C2B13292  24.261   0.355   8.255
 6371POPC   C3B13293  24.275   0.369   7.955
 6371POPC   C4B13294  24.281   0.359   7.655
 6372POPC   NC313295  42.307  20.660   9.455
 6372POPC   PO413296  42.292  20.658   9.155
 6372POPC   GL113297  42.305  20.610   8.855
 6372POPC   GL213298  42.259  20.690   8.855
 6372POPC   C1A13299  42.363  20.600   8.555
 6372POPC   D2A13300  42.329  20.565   8.255
 6372POPC   C3A13301  42.325  20.566   7.955
 6372POPC   C4A13302  42.287  20.621   7.655
 6372POPC   C1B13303  42.199  20.814   8.555
 6372POPC   C2B13304  42.213  20.835   8.255
 6372POPC   C3B13305  42.187  20.774   7.955
 6372POPC   C4B13306  42.167  20.768   7.655
 6373POPC   NC313307  19.862   9.787   9.455
 6373POPC   PO413308  19.813   9.794   9.155
 6373POPC   GL113309  19.829   9.749   8.855
 6373POPC   GL213310  19.982   9.634   8.855
 6373POPC   C1A13311  19.824   9.705   8.555
 6373POPC   D2A13312  19.816   9.739   8.255
 6373POPC   C3A13313  19.812   9.763   7.955
 6373POPC   C4A13314  19.788   9.792   7.655
 6373POPC   C1B13315  20.094   9.613   8.555
 6373POPC   C2B13316  20.017   9.604   8.255
 6373POPC   C3B13317  20.025   9.631   7.955
 6373POPC   C4B13318  20.047   9.578   7.655
 6374POPC   NC313319  41.510   5.054   9.455
 6374POPC   PO413320  41.588   5.105   9.155
 6374POPC   GL113321  41.557   5.086   8.855
 6374POPC   GL213322  41.627   5.170   8.855
 6374POPC   C1A13323  41.513   5.049   8.555
 6374POPC   D2A13324  41.535   5.096   8.255
 6374POPC   C3A13325  41.581   5.099   7.955
 6374POPC   C4A13326  41.606   5.073   7.655
 6374POPC   C1B13327  41.765   5.162   8.555
 6374POPC   C2B13328  41.800   5.194   8.255
 6374POPC   C3B13329  41.750   5.245   7.955
 6374POPC   C4B13330  41.800   5.172   7.655
 6375POPC   NC313331  20.600  15.218   9.455
 6375POPC   PO413332  20.645  15.180   9.155
 6375POPC   GL113333  20.650  15.183   8.855
 6375POPC   GL213334  20.546  15.104   8.855
 6375POPC   C1A13335  20.586  15.177   8.555
 6375POPC   D2A13336  20.562  15.192   8.255
 6375POPC   C3A13337  20.567  15.187   7.955
 6375POPC   C4A13338  20.659  15.198   7.655
 6375POPC   C1B13339  20.374  15.055   8.555
 6375POPC   C2B13340  20.354  15.068   8.255
 6375POPC   C3B13341  20.437  15.022   7.955
 6375POPC   C4B13342  20.444  15.055   7.655
 6376POPC   NC313343  40.808  41.566   9.455
 6376POPC   PO413344  40.749  41.535   9.155
 6376POPC   GL113345  40.758  41.585   8.855
 6376POPC   GL213346  40.914  41.488   8.855
 6376POPC   C1A13347  40.779  41.525   8.555
 6376POPC   D2A13348  40.769  41.559   8.255
 6376POPC   C3A13349  40.749  41.532   7.955
 6376POPC   C4A13350  40.798  41.598   7.655
 6376POPC   C1B13351  40.932  41.374   8.555
 6376POPC   C2B13352  40.925  41.389   8.255
 6376POPC   C3B13353  40.955  41.381   7.955
 6376POPC   C4B13354  40.918  41.415   7.655
 6377POPC   NC313355  15.955  29.131   9.455
 6377POPC   PO413356  15.960  29.184   9.155
 6377POPC   GL113357  15.952  29.174   8.855
 6377POPC   GL213358  15.895  29.058   8.855
 6377POPC   C1A13359  15.991  29.184   8.555
 6377POPC   D2A13360  15.918  29.164   8.255
 6377POPC   C3A13361  15.912  29.178   7.955
 6377POPC   C4A13362  15.957  29.105   7.655
 6377POPC   C1B13363  15.776  28.990   8.555
 6377POPC   C2B13364  15.743  28.969   8.255
 6377POPC   C3B13365  15.768  28.979   7.955
 6377POPC   C4B13366  15.756  28.926   7.655
 6378POPC   NC313367  17.473   8.165   9.455
 6378POPC   PO413368  17.540   8.204   9.155
 6378POPC   GL113369  17.466   8.159   8.855
 6378POPC   GL213370  17.388   8.328   8.855
 6378POPC   C1A13371  17.539   8.152   8.555
 6378POPC   D2A13372  17.551   8.206   8.255
 6378POPC   C3A13373  17.472   8.154   7.955
 6378POPC   C4A13374  17.482   8.245   7.655
 6378POPC   C1B13375  17.407   8.404   8.555
 6378POPC   C2B13376  17.319   8.376   8.255
 6378POPC   C3B13377  17.350   8.398   7.955
 6378POPC   C4B13378  17.409   8.451   7.655
 6379POPC   NC313379  38.423  43.150   9.455
 6379POPC   PO413380  38.437  43.149   9.155
 6379POPC   GL113381  38.487  43.122   8.855
 6379POPC   GL213382  38.613  43.204   8.855
 6379POPC   C1A13383  38.441  43.151   8.555
 6379POPC   D2A13384  38.503  43.131   8.255
 6379POPC   C3A13385  38.471  43.089   7.955
 6379POPC   C4A13386  38.466  43.100   7.655
 6379POPC   C1B13387  38.672  43.258   8.555
 6379POPC   C2B13388  38.732  43.215   8.255
 6379POPC   C3B13389  38.707  43.263   7.955
 6379POPC   C4B13390  38.641  43.179   7.655
 6380POPC   NC313391   5.896   8.235   9.455
 6380POPC   PO413392   5.867   8.209   9.155
 6380POPC   GL113393   5.860   8.183   8.855
 6380POPC   GL213394   5.733   8.248   8.855
 6380POPC   C1A13395   5.841   8.207   8.555
 6380POPC   D2A13396   5.903   8.232   8.255
 6380POPC   C3A13397   5.893   8.200   7.955
 6380POPC   C4A13398   5.854   8.198   7.655
 6380POPC   C1B13399   5.627   8.315   8.555
 6380POPC   C2B13400   5.680   8.273   8.255
 6380POPC   C3B13401   5.673   8.325   7.955
 6380POPC   C4B13402   5.655   8.295   7.655
 6381POPC   NC313403  33.780  33.850   9.455
 6381POPC   PO413404  33.793  33.802   9.155
 6381POPC   GL113405  33.790  33.785   8.855
 6381POPC   GL213406  33.651  33.799   8.855
 6381POPC   C1A13407  33.783  33.801   8.555
 6381POPC   D2A13408  33.767  33.766   8.255
 6381POPC   C3A13409  33.795  33.808   7.955
 6381POPC   C4A13410  33.836  33.763   7.655
 6381POPC   C1B13411  33.546  33.764   8.555
 6381POPC   C2B13412  33.574  33.725   8.255
 6381POPC   C3B13413  33.580  33.726   7.955
 6381POPC   C4B13414  33.537  33.674   7.655
 6382POPC   NC313415   5.854  12.891   9.455
 6382POPC   PO413416   5.822  12.875   9.155
 6382POPC   GL113417   5.917  12.854   8.855
 6382POPC   GL213418   5.887  12.957   8.855
 6382POPC   C1A13419   5.829  12.836   8.555
 6382POPC   D2A13420   5.842  12.816   8.255
 6382POPC   C3A13421   5.903  12.881   7.955
 6382POPC   C4A13422   5.891  12.830   7.655
 6382POPC   C1B13423   5.914  13.105   8.555
 6382POPC   C2B13424   5.832  13.125   8.255
 6382POPC   C3B13425   5.859  13.096   7.955
 6382POPC   C4B13426   5.857  13.090   7.655
 6383POPC   NC313427   1.197  25.245   9.455
 6383POPC   PO413428   1.259  25.232   9.155
 6383POPC   GL113429   1.254  25.261   8.855
 6383POPC   GL213430   1.301  25.210   8.855
 6383POPC   C1A13431   1.233  25.221   8.555
 6383POPC   D2A13432   1.221  25.303   8.255
 6383POPC   C3A13433   1.177  25.257   7.955
 6383POPC   C4A13434   1.248  25.223   7.655
 6383POPC   C1B13435   1.448  25.279   8.555
 6383POPC   C2B13436   1.424  25.250   8.255
 6383POPC   C3B13437   1.488  25.203   7.955
 6383POPC   C4B13438   1.447  25.215   7.655
 6384POPC   NC313439  36.951  22.934   9.455
 6384POPC   PO413440  36.918  22.919   9.155
 6384POPC   GL113441  36.943  22.915   8.855
 6384POPC   GL213442  36.758  22.927   8.855
 6384POPC   C1A13443  36.881  22.933   8.555
 6384POPC   D2A13444  36.866  22.926   8.255
 6384POPC   C3A13445  36.938  22.905   7.955
 6384POPC   C4A13446  36.884  22.905   7.655
 6384POPC   C1B13447  36.675  22.808   8.555
 6384POPC   C2B13448  36.713  22.798   8.255
 6384POPC   C3B13449  36.717  22.791   7.955
 6384POPC   C4B13450  36.642  22.879   7.655
 6385POPC   NC313451  14.430  44.625   9.455
 6385POPC   PO413452  14.381  44.613   9.155
 6385POPC   GL113453  14.450  44.616   8.855
 6385POPC   GL213454  14.484  44.704   8.855
 6385POPC   C1A13455  14.416  44.669   8.555
 6385POPC   D2A13456  14.408  44.710   8.255
 6385POPC   C3A13457  14.418  44.625   7.955
 6385POPC   C4A13458  14.371  44.647   7.655
 6385POPC   C1B13459  14.615  44.742   8.555
 6385POPC   C2B13460  14.638  44.757   8.255
 6385POPC   C3B13461  14.599  44.737   7.955
 6385POPC   C4B13462  14.614  44.758   7.655
 6386POPC   NC313463  20.648  14.412   9.455
 6386POPC   PO413464  20.591  14.356   9.155
 6386POPC   GL113465  20.575  14.391   8.855
 6386POPC   GL213466  20.641  14.495   8.855
 6386POPC   C1A13467  20.639  14.359   8.555
 6386POPC   D2A13468  20.577  14.423   8.255
 6386POPC   C3A13469  20.603  14.391   7.955
 6386POPC   C4A13470  20.576  14.379   7.655
 6386POPC   C1B13471  20.598  14.633   8.555
 6386POPC   C2B13472  20.618  14.642   8.255
 6386POPC   C3B13473  20.635  14.679   7.955
 6386POPC   C4B13474  20.578  14.654   7.655
 6387POPC   NC313475   1.940  38.503   9.455
 6387POPC   PO413476   2.039  38.442   9.155
 6387POPC   GL113477   1.956  38.445   8.855
 6387POPC   GL213478   2.059  38.407   8.855
 6387POPC   C1A13479   2.002  38.442   8.555
 6387POPC   D2A13480   1.977  38.473   8.255
 6387POPC   C3A13481   1.957  38.503   7.955
 6387POPC   C4A13482   1.985  38.444   7.655
 6387POPC   C1B13483   2.167  38.279   8.555
 6387POPC   C2B13484   2.180  38.308   8.255
 6387POPC   C3B13485   2.151  38.260   7.955
 6387POPC   C4B13486   2.180  38.265   7.655
 6388POPC   NC313487  42.360  29.871   9.455
 6388POPC   PO413488  42.346  29.902   9.155
 6388POPC   GL113489  42.335  29.947   8.855
 6388POPC   GL213490  42.402  29.869   8.855
 6388POPC   C1A13491  42.323  29.889   8.555
 6388POPC   D2A13492  42.327  29.929   8.255
 6388POPC   C3A13493  42.327  29.875   7.955
 6388POPC   C4A13494  42.323  29.962   7.655
 6388POPC   C1B13495  42.461  29.730   8.555
 6388POPC   C2B13496  42.555  29.722   8.255
 6388POPC   C3B13497  42.495  29.697   7.955
 6388POPC   C4B13498  42.526  29.769   7.655
 6389POPC   NC313499   0.443  22.173   9.455
 6389POPC   PO413500   0.447  22.135   9.155
 6389POPC   GL113501   0.474  22.142   8.855
 6389POPC   GL213502   0.397  22.270   8.855
 6389POPC   C1A13503   0.458  22.173   8.555
 6389POPC   D2A13504   0.394  22.115   8.255
 6389POPC   C3A13505   0.448  22.129   7.955
 6389POPC   C4A13506   0.411  22.196   7.655
 6389POPC   C1B13507   0.442  22.441   8.555
 6389POPC   C2B13508   0.430  22.424   8.255
 6389POPC   C3B13509   0.389  22.405   7.955
 6389POPC   C4B13510   0.468  22.411   7.655
 6390POPC   NC313511  19.863  20.639   9.455
 6390POPC   PO413512  19.810  20.570   9.155
 6390POPC   GL113513  19.812  20.594   8.855
 6390POPC   GL213514  19.672  20.688   8.855
 6390POPC   C1A13515  19.865  20.649   8.555
 6390POPC   D2A13516  19.837  20.631   8.255
 6390POPC   C3A13517  19.832  20.606   7.955
 6390POPC   C4A13518  19.854  20.650   7.655
 6390POPC   C1B13519  19.593  20.707   8.555
 6390POPC   C2B13520  19.565  20.704   8.255
 6390POPC   C3B13521  19.554  20.734   7.955
 6390POPC   C4B13522  19.571  20.699   7.655
 6391POPC   NC313523  27.639  44.660   9.455
 6391POPC   PO413524  27.638  44.653   9.155
 6391POPC   GL113525  27.550  44.697   8.855
 6391POPC   GL213526  27.612  44.759   8.855
 6391POPC   C1A13527  27.553  44.617   8.555
 6391POPC   D2A13528  27.586  44.694   8.255
 6391POPC   C3A13529  27.627  44.681   7.955
 6391POPC   C4A13530  27.643  44.675   7.655
 6391POPC   C1B13531  27.611  44.926   8.555
 6391POPC   C2B13532  27.575  44.948   8.255
 6391POPC   C3B13533  27.580  44.928   7.955
 6391POPC   C4B13534  27.593  44.872   7.655
 6392POPC   NC313535   1.965  32.243   9.455
 6392POPC   PO413536   1.975  32.276   9.155
 6392POPC   GL113537   1.977  32.256   8.855
 6392POPC   GL213538   1.980  32.350   8.855
 6392POPC   C1A13539   2.007  32.223   8.555
 6392POPC   D2A13540   2.026  32.260   8.255
 6392POPC   C3A13541   2.029  32.201   7.955
 6392POPC   C4A13542   2.005  32.243   7.655
 6392POPC   C1B13543   1.914  32.517   8.555
 6392POPC   C2B13544   1.875  32.502   8.255
 6392POPC   C3B13545   1.920  32.430   7.955
 6392POPC   C4B13546   1.886  32.446   7.655
 6393POPC   NC313547  18.246  28.356   9.455
 6393POPC   PO413548  18.242  28.370   9.155
 6393POPC   GL113549  18.281  28.349   8.855
 6393POPC   GL213550  18.418  28.443   8.855
 6393POPC   C1A13551  18.305  28.325   8.555
 6393POPC   D2A13552  18.304  28.345   8.255
 6393POPC   C3A13553  18.240  28.323   7.955
 6393POPC   C4A13554  18.324  28.349   7.655
 6393POPC   C1B13555  18.470  28.497   8.555
 6393POPC   C2B13556  18.495  28.508   8.255
 6393POPC   C3B13557  18.542  28.485   7.955
 6393POPC   C4B13558  18.488  28.495   7.655
 6394POPC   NC313559  37.630  15.950   9.455
 6394POPC   PO413560  37.680  15.968   9.155
 6394POPC   GL113561  37.729  15.941   8.855
 6394POPC   GL213562  37.615  16.062   8.855
 6394POPC   C1A13563  37.690  15.921   8.555
 6394POPC   D2A13564  37.635  15.937   8.255
 6394POPC   C3A13565  37.711  16.002   7.955
 6394POPC   C4A13566  37.711  15.969   7.655
 6394POPC   C1B13567  37.445  16.137   8.555
 6394POPC   C2B13568  37.510  16.131   8.255
 6394POPC   C3B13569  37.482  16.128   7.955
 6394POPC   C4B13570  37.440  16.124   7.655
 6395POPC   NC313571  29.899  33.753   9.455
 6395POPC   PO413572  29.907  33.775   9.155
 6395POPC   GL113573  29.953  33.825   8.855
 6395POPC   GL213574  29.971  33.728   8.855
 6395POPC   C1A13575  29.878  33.840   8.555
 6395POPC   D2A13576  29.943  33.750   8.255
 6395POPC   C3A13577  29.885  33.794   7.955
 6395POPC   C4A13578  29.919  33.819   7.655
 6395POPC   C1B13579  30.138  33.662   8.555
 6395POPC   C2B13580  30.075  33.593   8.255
 6395POPC   C3B13581  30.146  33.613   7.955
 6395POPC   C4B13582  30.088  33.639   7.655
 6396POPC   NC313583  10.564  43.932   9.455
 6396POPC   PO413584  10.480  43.849   9.155
 6396POPC   GL113585  10.502  43.851   8.855
 6396POPC   GL213586  10.480  43.730   8.855
 6396POPC   C1A13587  10.561  43.872   8.555
 6396POPC   D2A13588  10.493  43.857   8.255
 6396POPC   C3A13589  10.573  43.879   7.955
 6396POPC   C4A13590  10.542  43.928   7.655
 6396POPC   C1B13591  10.501  43.609   8.555
 6396POPC   C2B13592  10.550  43.622   8.255
 6396POPC   C3B13593  10.480  43.661   7.955
 6396POPC   C4B13594  10.461  43.647   7.655
 6397POPC   NC313595   2.783  39.212   9.455
 6397POPC   PO413596   2.731  39.257   9.155
 6397POPC   GL113597   2.752  39.252   8.855
 6397POPC   GL213598   2.888  39.248   8.855
 6397POPC   C1A13599   2.813  39.241   8.555
 6397POPC   D2A13600   2.770  39.216   8.255
 6397POPC   C3A13601   2.800  39.194   7.955
 6397POPC   C4A13602   2.814  39.199   7.655
 6397POPC   C1B13603   2.959  39.369   8.555
 6397POPC   C2B13604   2.949  39.301   8.255
 6397POPC   C3B13605   3.037  39.343   7.955
 6397POPC   C4B13606   2.957  39.323   7.655
 6398POPC   NC313607  31.427   1.982   9.455
 6398POPC   PO413608  31.446   2.018   9.155
 6398POPC   GL113609  31.437   1.949   8.855
 6398POPC   GL213610  31.550   2.043   8.855
 6398POPC   C1A13611  31.479   1.975   8.555
 6398POPC   D2A13612  31.427   2.028   8.255
 6398POPC   C3A13613  31.441   2.002   7.955
 6398POPC   C4A13614  31.492   1.968   7.655
 6398POPC   C1B13615  31.730   2.074   8.555
 6398POPC   C2B13616  31.654   2.110   8.255
 6398POPC   C3B13617  31.734   2.140   7.955
 6398POPC   C4B13618  31.668   2.108   7.655
 6399POPC   NC313619  43.891  24.465   9.455
 6399POPC   PO413620  43.869  24.537   9.155
 6399POPC   GL113621  43.897  24.476   8.855
 6399POPC   GL213622  43.972  24.486   8.855
 6399POPC   C1A13623  43.927  24.528   8.555
 6399POPC   D2A13624  43.903  24.491   8.255
 6399POPC   C3A13625  43.935  24.508   7.955
 6399POPC   C4A13626  43.924  24.538   7.655
 6399POPC   C1B13627  44.127  24.503   8.555
 6399POPC   C2B13628  44.146  24.517   8.255
 6399POPC   C3B13629  44.157  24.600   7.955
 6399POPC   C4B13630  44.176  24.523   7.655
 6400POPC   NC313631  36.106  14.363   9.455
 6400POPC   PO413632  36.107  14.380   9.155
 6400POPC   GL113633  36.139  14.402   8.855
 6400POPC   GL213634  36.237  14.397   8.855
 6400POPC   C1A13635  36.140  14.413   8.555
 6400POPC   D2A13636  36.163  14.407   8.255
 6400POPC   C3A13637  36.160  14.412   7.955
 6400POPC   C4A13638  36.089  14.391   7.655
 6400POPC   C1B13639  36.416  14.301   8.555
 6400POPC   C2B13640  36.419  14.328   8.255
 6400POPC   C3B13641  36.348  14.326   7.955
 6400POPC   C4B13642  36.413  14.398   7.655
 6401POPC   NC313643   3.504   3.537   9.455
 6401POPC   PO413644   3.568   3.544   9.155
 6401POPC   GL113645   3.577   3.563   8.855
 6401POPC   GL213646   3.504   3.646   8.855
 6401POPC   C1A13647   3.544   3.539   8.555
 6401POPC   D2A13648   3.532   3.511   8.255
 6401POPC   C3A13649   3.509   3.512   7.955
 6401POPC   C4A13650   3.550   3.528   7.655
 6401POPC   C1B13651   3.479   3.771   8.555
 6401POPC   C2B13652   3.494   3.773   8.255
 6401POPC   C3B13653   3.487   3.741   7.955
 6401POPC   C4B13654   3.464   3.787   7.655
 6402POPC   NC313655  44.696  22.930   9.455
 6402POPC   PO413656  44.632  22.944   9.155
 6402POPC   GL113657  44.653  22.970   8.855
 6402POPC   GL213658  44.574  23.068   8.855
 6402POPC   C1A13659  44.689  22.892   8.555
 6402POPC   D2A13660  44.640  22.894   8.255
 6402POPC   C3A13661  44.675  22.920   7.955
 6402POPC   C4A13662  44.636  22.946   7.655
 6402POPC   C1B13663  44.470  23.079   8.555
 6402POPC   C2B13664  44.477  23.089   8.255
 6402POPC   C3B13665  44.428  23.120   7.955
 6402POPC   C4B13666  44.451  23.143   7.655
 6403POPC   NC313667  36.107   1.948   9.455
 6403POPC   PO413668  36.096   1.988   9.155
 6403POPC   GL113669  36.164   2.001   8.855
 6403POPC   GL213670  36.094   2.099   8.855
 6403POPC   C1A13671  36.104   2.030   8.555
 6403POPC   D2A13672  36.155   1.961   8.255
 6403POPC   C3A13673  36.094   1.993   7.955
 6403POPC   C4A13674  36.085   2.020   7.655
 6403POPC   C1B13675  36.120   2.202   8.555
 6403POPC   C2B13676  36.144   2.256   8.255
 6403POPC   C3B13677  36.102   2.285   7.955
 6403POPC   C4B13678  36.058   2.269   7.655
 6404POPC   NC313679   0.445   9.710   9.455
 6404POPC   PO413680   0.428   9.752   9.155
 6404POPC   GL113681   0.410   9.719   8.855
 6404POPC   GL213682   0.375   9.826   8.855
 6404POPC   C1A13683   0.467   9.783   8.555
 6404POPC   D2A13684   0.428   9.751   8.255
 6404POPC   C3A13685   0.417   9.737   7.955
 6404POPC   C4A13686   0.408   9.702   7.655
 6404POPC   C1B13687   0.415  10.042   8.555
 6404POPC   C2B13688   0.355   9.976   8.255
 6404POPC   C3B13689   0.384   9.962   7.955
 6404POPC   C4B13690   0.434  10.040   7.655
 6405POPC   NC313691  12.873  18.319   9.455
 6405POPC   PO413692  12.893  18.244   9.155
 6405POPC   GL113693  12.808  18.241   8.855
 6405POPC   GL213694  12.894  18.406   8.855
 6405POPC   C1A13695  12.831  18.242   8.555
 6405POPC   D2A13696  12.886  18.254   8.255
 6405POPC   C3A13697  12.883  18.329   7.955
 6405POPC   C4A13698  12.839  18.298   7.655
 6405POPC   C1B13699  13.003  18.519   8.555
 6405POPC   C2B13700  12.936  18.548   8.255
 6405POPC   C3B13701  12.911  18.549   7.955
 6405POPC   C4B13702  12.928  18.512   7.655
 6406POPC   NC313703  22.988  42.371   9.455
 6406POPC   PO413704  22.920  42.286   9.155
 6406POPC   GL113705  22.899  42.339   8.855
 6406POPC   GL213706  22.932  42.493   8.855
 6406POPC   C1A13707  22.961  42.335   8.555
 6406POPC   D2A13708  22.916  42.371   8.255
 6406POPC   C3A13709  22.899  42.370   7.955
 6406POPC   C4A13710  22.988  42.371   7.655
 6406POPC   C1B13711  22.993  42.563   8.555
 6406POPC   C2B13712  22.962  42.560   8.255
 6406POPC   C3B13713  23.011  42.598   7.955
 6406POPC   C4B13714  22.970  42.585   7.655
 6407POPC   NC313715  34.619   0.465   9.455
 6407POPC   PO413716  34.617   0.406   9.155
 6407POPC   GL113717  34.565   0.404   8.855
 6407POPC   GL213718  34.643   0.585   8.855
 6407POPC   C1A13719  34.625   0.484   8.555
 6407POPC   D2A13720  34.527   0.469   8.255
 6407POPC   C3A13721  34.617   0.398   7.955
 6407POPC   C4A13722  34.532   0.431   7.655
 6407POPC   C1B13723  34.670   0.682   8.555
 6407POPC   C2B13724  34.614   0.708   8.255
 6407POPC   C3B13725  34.688   0.715   7.955
 6407POPC   C4B13726  34.669   0.661   7.655
 6408POPC   NC313727  18.292  40.782   9.455
 6408POPC   PO413728  18.250  40.755   9.155
 6408POPC   GL113729  18.259  40.789   8.855
 6408POPC   GL213730  18.280  40.889   8.855
 6408POPC   C1A13731  18.297  40.803   8.555
 6408POPC   D2A13732  18.253  40.768   8.255
 6408POPC   C3A13733  18.243  40.749   7.955
 6408POPC   C4A13734  18.256  40.792   7.655
 6408POPC   C1B13735  18.287  41.065   8.555
 6408POPC   C2B13736  18.357  41.026   8.255
 6408POPC   C3B13737  18.279  41.018   7.955
 6408POPC   C4B13738  18.341  41.040   7.655
 6409POPC   NC313739  43.902  41.527   9.455
 6409POPC   PO413740  43.883  41.519   9.155
 6409POPC   GL113741  43.902  41.515   8.855
 6409POPC   GL213742  43.861  41.671   8.855
 6409POPC   C1A13743  43.859  41.523   8.555
 6409POPC   D2A13744  43.875  41.544   8.255
 6409POPC   C3A13745  43.896  41.535   7.955
 6409POPC   C4A13746  43.873  41.580   7.655
 6409POPC   C1B13747  43.774  41.768   8.555
 6409POPC   C2B13748  43.765  41.788   8.255
 6409POPC   C3B13749  43.725  41.729   7.955
 6409POPC   C4B13750  43.762  41.753   7.655
 6410POPC   NC313751  37.632  21.392   9.455
 6410POPC   PO413752  37.707  21.361   9.155
 6410POPC   GL113753  37.635  21.359   8.855
 6410POPC   GL213754  37.522  21.334   8.855
 6410POPC   C1A13755  37.728  21.340   8.555
 6410POPC   D2A13756  37.717  21.363   8.255
 6410POPC   C3A13757  37.646  21.378   7.955
 6410POPC   C4A13758  37.650  21.344   7.655
 6410POPC   C1B13759  37.466  21.323   8.555
 6410POPC   C2B13760  37.418  21.355   8.255
 6410POPC   C3B13761  37.418  21.318   7.955
 6410POPC   C4B13762  37.474  21.279   7.655
 6411POPC   NC313763  40.803  16.743   9.455
 6411POPC   PO413764  40.785  16.734   9.155
 6411POPC   GL113765  40.769  16.739   8.855
 6411POPC   GL213766  40.692  16.805   8.855
 6411POPC   C1A13767  40.783  16.724   8.555
 6411POPC   D2A13768  40.816  16.760   8.255
 6411POPC   C3A13769  40.745  16.683   7.955
 6411POPC   C4A13770  40.742  16.732   7.655
 6411POPC   C1B13771  40.492  16.823   8.555
 6411POPC   C2B13772  40.584  16.773   8.255
 6411POPC   C3B13773  40.567  16.776   7.955
 6411POPC   C4B13774  40.554  16.749   7.655
 6412POPC   NC313775  31.492  26.069   9.455
 6412POPC   PO413776  31.509  26.084   9.155
 6412POPC   GL113777  31.493  26.071   8.855
 6412POPC   GL213778  31.366  25.985   8.855
 6412POPC   C1A13779  31.424  26.064   8.555
 6412POPC   D2A13780  31.461  26.041   8.255
 6412POPC   C3A13781  31.489  26.065   7.955
 6412POPC   C4A13782  31.514  26.040   7.655
 6412POPC   C1B13783  31.351  25.883   8.555
 6412POPC   C2B13784  31.350  25.867   8.255
 6412POPC   C3B13785  31.275  25.837   7.955
 6412POPC   C4B13786  31.294  25.839   7.655
 6413POPC   NC313787  39.969  26.048   9.455
 6413POPC   PO413788  40.018  26.063   9.155
 6413POPC   GL113789  40.052  26.036   8.855
 6413POPC   GL213790  40.047  26.201   8.855
 6413POPC   C1A13791  39.982  26.068   8.555
 6413POPC   D2A13792  39.987  26.013   8.255
 6413POPC   C3A13793  40.038  26.056   7.955
 6413POPC   C4A13794  39.997  26.031   7.655
 6413POPC   C1B13795  40.097  26.270   8.555
 6413POPC   C2B13796  40.091  26.307   8.255
 6413POPC   C3B13797  40.078  26.258   7.955
 6413POPC   C4B13798  40.074  26.317   7.655
 6414POPC   NC313799   3.510  31.462   9.455
 6414POPC   PO413800   3.528  31.500   9.155
 6414POPC   GL113801   3.586  31.490   8.855
 6414POPC   GL213802   3.492  31.621   8.855
 6414POPC   C1A13803   3.541  31.492   8.555
 6414POPC   D2A13804   3.512  31.502   8.255
 6414POPC   C3A13805   3.517  31.473   7.955
 6414POPC   C4A13806   3.534  31.499   7.655
 6414POPC   C1B13807   3.433  31.722   8.555
 6414POPC   C2B13808   3.497  31.685   8.255
 6414POPC   C3B13809   3.511  31.719   7.955
 6414POPC   C4B13810   3.434  31.705   7.655
 6415POPC   NC313811   6.633  42.308   9.455
 6415POPC   PO413812   6.607  42.299   9.155
 6415POPC   GL113813   6.653  42.342   8.855
 6415POPC   GL213814   6.660  42.426   8.855
 6415POPC   C1A13815   6.651  42.333   8.555
 6415POPC   D2A13816   6.668  42.365   8.255
 6415POPC   C3A13817   6.653  42.363   7.955
 6415POPC   C4A13818   6.675  42.310   7.655
 6415POPC   C1B13819   6.612  42.590   8.555
 6415POPC   C2B13820   6.616  42.558   8.255
 6415POPC   C3B13821   6.697  42.593   7.955
 6415POPC   C4B13822   6.690  42.544   7.655
 6416POPC   NC313823  42.316  35.356   9.455
 6416POPC   PO413824  42.287  35.399   9.155
 6416POPC   GL113825  42.291  35.329   8.855
 6416POPC   GL213826  42.209  35.390   8.855
 6416POPC   C1A13827  42.309  35.376   8.555
 6416POPC   D2A13828  42.358  35.311   8.255
 6416POPC   C3A13829  42.338  35.355   7.955
 6416POPC   C4A13830  42.356  35.332   7.655
 6416POPC   C1B13831  42.078  35.377   8.555
 6416POPC   C2B13832  42.046  35.365   8.255
 6416POPC   C3B13833  42.065  35.371   7.955
 6416POPC   C4B13834  42.134  35.334   7.655
 6417POPC   NC313835  12.091  38.463   9.455
 6417POPC   PO413836  12.037  38.474   9.155
 6417POPC   GL113837  12.077  38.447   8.855
 6417POPC   GL213838  11.943  38.444   8.855
 6417POPC   C1A13839  12.110  38.505   8.555
 6417POPC   D2A13840  12.065  38.469   8.255
 6417POPC   C3A13841  12.041  38.415   7.955
 6417POPC   C4A13842  12.104  38.467   7.655
 6417POPC   C1B13843  11.797  38.395   8.555
 6417POPC   C2B13844  11.783  38.468   8.255
 6417POPC   C3B13845  11.850  38.453   7.955
 6417POPC   C4B13846  11.783  38.396   7.655
 6418POPC   NC313847  15.962  25.216   9.455
 6418POPC   PO413848  15.999  25.303   9.155
 6418POPC   GL113849  15.923  25.271   8.855
 6418POPC   GL213850  15.943  25.161   8.855
 6418POPC   C1A13851  15.927  25.267   8.555
 6418POPC   D2A13852  15.945  25.250   8.255
 6418POPC   C3A13853  15.953  25.225   7.955
 6418POPC   C4A13854  15.945  25.230   7.655
 6418POPC   C1B13855  15.977  24.995   8.555
 6418POPC   C2B13856  16.046  24.974   8.255
 6418POPC   C3B13857  15.985  25.023   7.955
 6418POPC   C4B13858  16.012  25.001   7.655
 6419POPC   NC313859  38.448  26.804   9.455
 6419POPC   PO413860  38.486  26.847   9.155
 6419POPC   GL113861  38.409  26.861   8.855
 6419POPC   GL213862  38.571  26.935   8.855
 6419POPC   C1A13863  38.441  26.828   8.555
 6419POPC   D2A13864  38.501  26.825   8.255
 6419POPC   C3A13865  38.490  26.773   7.955
 6419POPC   C4A13866  38.444  26.820   7.655
 6419POPC   C1B13867  38.599  27.006   8.555
 6419POPC   C2B13868  38.650  26.995   8.255
 6419POPC   C3B13869  38.587  26.983   7.955
 6419POPC   C4B13870  38.617  27.051   7.655
 6420POPC   NC313871  13.647  18.277   9.455
 6420POPC   PO413872  13.623  18.292   9.155
 6420POPC   GL113873  13.594  18.308   8.855
 6420POPC   GL213874  13.728  18.325   8.855
 6420POPC   C1A13875  13.580  18.331   8.555
 6420POPC   D2A13876  13.638  18.315   8.255
 6420POPC   C3A13877  13.580  18.241   7.955
 6420POPC   C4A13878  13.648  18.307   7.655
 6420POPC   C1B13879  13.918  18.229   8.555
 6420POPC   C2B13880  13.848  18.227   8.255
 6420POPC   C3B13881  13.869  18.277   7.955
 6420POPC   C4B13882  13.870  18.286   7.655
 6421POPC   NC313883  32.998  30.670   9.455
 6421POPC   PO413884  32.974  30.736   9.155
 6421POPC   GL113885  33.001  30.709   8.855
 6421POPC   GL213886  33.001  30.823   8.855
 6421POPC   C1A13887  33.032  30.707   8.555
 6421POPC   D2A13888  32.983  30.669   8.255
 6421POPC   C3A13889  33.041  30.694   7.955
 6421POPC   C4A13890  32.975  30.694   7.655
 6421POPC   C1B13891  32.850  30.909   8.555
 6421POPC   C2B13892  32.911  30.865   8.255
 6421POPC   C3B13893  32.928  30.907   7.955
 6421POPC   C4B13894  32.869  30.944   7.655
 6422POPC   NC313895  31.515   1.202   9.455
 6422POPC   PO413896  31.468   1.211   9.155
 6422POPC   GL113897  31.491   1.188   8.855
 6422POPC   GL213898  31.404   1.343   8.855
 6422POPC   C1A13899  31.517   1.232   8.555
 6422POPC   D2A13900  31.512   1.184   8.255
 6422POPC   C3A13901  31.457   1.225   7.955
 6422POPC   C4A13902  31.444   1.247   7.655
 6422POPC   C1B13903  31.368   1.411   8.555
 6422POPC   C2B13904  31.350   1.489   8.255
 6422POPC   C3B13905  31.365   1.468   7.955
 6422POPC   C4B13906  31.404   1.467   7.655
 6423POPC   NC313907  20.584  19.085   9.455
 6423POPC   PO413908  20.579  19.037   9.155
 6423POPC   GL113909  20.560  19.075   8.855
 6423POPC   GL213910  20.735  19.075   8.855
 6423POPC   C1A13911  20.622  19.078   8.555
 6423POPC   D2A13912  20.604  19.088   8.255
 6423POPC   C3A13913  20.606  19.067   7.955
 6423POPC   C4A13914  20.604  19.104   7.655
 6423POPC   C1B13915  20.823  18.990   8.555
 6423POPC   C2B13916  20.851  19.035   8.255
 6423POPC   C3B13917  20.851  19.010   7.955
 6423POPC   C4B13918  20.904  19.010   7.655
 6424POPC   NC313919   8.152  14.424   9.455
 6424POPC   PO413920   8.243  14.450   9.155
 6424POPC   GL113921   8.195  14.443   8.855
 6424POPC   GL213922   8.098  14.316   8.855
 6424POPC   C1A13923   8.191  14.419   8.555
 6424POPC   D2A13924   8.165  14.453   8.255
 6424POPC   C3A13925   8.169  14.367   7.955
 6424POPC   C4A13926   8.226  14.385   7.655
 6424POPC   C1B13927   7.949  14.289   8.555
 6424POPC   C2B13928   7.968  14.283   8.255
 6424POPC   C3B13929   7.948  14.251   7.955
 6424POPC   C4B13930   7.934  14.319   7.655
 6425POPC   NC313931  22.930   0.440   9.455
 6425POPC   PO413932  22.946   0.486   9.155
 6425POPC   GL113933  22.971   0.394   8.855
 6425POPC   GL213934  22.822   0.507   8.855
 6425POPC   C1A13935  22.973   0.398   8.555
 6425POPC   D2A13936  22.911   0.473   8.255
 6425POPC   C3A13937  22.909   0.451   7.955
 6425POPC   C4A13938  22.907   0.441   7.655
 6425POPC   C1B13939  22.842   0.662   8.555
 6425POPC   C2B13940  22.746   0.645   8.255
 6425POPC   C3B13941  22.777   0.688   7.955
 6425POPC   C4B13942  22.764   0.641   7.655
 6426POPC   NC313943  19.790   5.114   9.455
 6426POPC   PO413944  19.835   5.075   9.155
 6426POPC   GL113945  19.785   5.080   8.855
 6426POPC   GL213946  19.961   5.063   8.855
 6426POPC   C1A13947  19.855   5.134   8.555
 6426POPC   D2A13948  19.785   5.092   8.255
 6426POPC   C3A13949  19.818   5.047   7.955
 6426POPC   C4A13950  19.812   5.099   7.655
 6426POPC   C1B13951  20.043   5.082   8.555
 6426POPC   C2B13952  20.041   5.059   8.255
 6426POPC   C3B13953  20.041   5.130   7.955
 6426POPC   C4B13954  20.060   5.085   7.655
 6427POPC   NC313955  43.917  23.696   9.455
 6427POPC   PO413956  43.930  23.712   9.155
 6427POPC   GL113957  43.905  23.689   8.855
 6427POPC   GL213958  43.814  23.870   8.855
 6427POPC   C1A13959  43.855  23.676   8.555
 6427POPC   D2A13960  43.922  23.703   8.255
 6427POPC   C3A13961  43.862  23.680   7.955
 6427POPC   C4A13962  43.860  23.735   7.655
 6427POPC   C1B13963  43.809  23.919   8.555
 6427POPC   C2B13964  43.816  23.904   8.255
 6427POPC   C3B13965  43.733  23.899   7.955
 6427POPC   C4B13966  43.815  23.900   7.655
 6428POPC   NC313967  22.154  36.133   9.455
 6428POPC   PO413968  22.118  36.134   9.155
 6428POPC   GL113969  22.171  36.107   8.855
 6428POPC   GL213970  22.208  36.222   8.855
 6428POPC   C1A13971  22.148  36.137   8.555
 6428POPC   D2A13972  22.183  36.115   8.255
 6428POPC   C3A13973  22.177  36.143   7.955
 6428POPC   C4A13974  22.135  36.105   7.655
 6428POPC   C1B13975  22.281  36.359   8.555
 6428POPC   C2B13976  22.288  36.384   8.255
 6428POPC   C3B13977  22.295  36.345   7.955
 6428POPC   C4B13978  22.277  36.367   7.655
 6429POPC   NC313979  22.915  31.459   9.455
 6429POPC   PO413980  22.898  31.516   9.155
 6429POPC   GL113981  22.894  31.473   8.855
 6429POPC   GL213982  23.055  31.423   8.855
 6429POPC   C1A13983  22.969  31.509   8.555
 6429POPC   D2A13984  22.957  31.443   8.255
 6429POPC   C3A13985  22.975  31.482   7.955
 6429POPC   C4A13986  22.899  31.441   7.655
 6429POPC   C1B13987  23.173  31.365   8.555
 6429POPC   C2B13988  23.149  31.426   8.255
 6429POPC   C3B13989  23.131  31.391   7.955
 6429POPC   C4B13990  23.170  31.413   7.655
 6430POPC   NC313991  31.447  32.204   9.455
 6430POPC   PO413992  31.459  32.258   9.155
 6430POPC   GL113993  31.509  32.260   8.855
 6430POPC   GL213994  31.368  32.116   8.855
 6430POPC   C1A13995  31.442  32.281   8.555
 6430POPC   D2A13996  31.482  32.226   8.255
 6430POPC   C3A13997  31.484  32.252   7.955
 6430POPC   C4A13998  31.463  32.199   7.655
 6430POPC   C1B13999  31.308  32.078   8.555
 6430POPC   C2B14000  31.301  32.075   8.255
 6430POPC   C3B14001  31.291  32.063   7.955
 6430POPC   C4B14002  31.299  32.023   7.655
 6431POPC   NC314003  28.350  15.944   9.455
 6431POPC   PO414004  28.343  15.991   9.155
 6431POPC   GL114005  28.351  15.973   8.855
 6431POPC   GL214006  28.326  15.843   8.855
 6431POPC   C1A14007  28.350  15.947   8.555
 6431POPC   D2A14008  28.348  15.910   8.255
 6431POPC   C3A14009  28.399  15.970   7.955
 6431POPC   C4A14010  28.409  15.991   7.655
 6431POPC   C1B14011  28.278  15.742   8.555
 6431POPC   C2B14012  28.331  15.717   8.255
 6431POPC   C3B14013  28.304  15.727   7.955
 6431POPC   C4B14014  28.334  15.673   7.655
 6432POPC   NC314015  23.737  17.462   9.455
 6432POPC   PO414016  23.676  17.525   9.155
 6432POPC   GL114017  23.763  17.499   8.855
 6432POPC   GL214018  23.845  17.429   8.855
 6432POPC   C1A14019  23.739  17.514   8.555
 6432POPC   D2A14020  23.755  17.482   8.255
 6432POPC   C3A14021  23.730  17.527   7.955
 6432POPC   C4A14022  23.762  17.462   7.655
 6432POPC   C1B14023  23.850  17.307   8.555
 6432POPC   C2B14024  23.915  17.292   8.255
 6432POPC   C3B14025  23.929  17.299   7.955
 6432POPC   C4B14026  23.926  17.371   7.655
 6433POPC   NC314027  26.826  30.714   9.455
 6433POPC   PO414028  26.819  30.719   9.155
 6433POPC   GL114029  26.784  30.672   8.855
 6433POPC   GL214030  26.790  30.609   8.855
 6433POPC   C1A14031  26.865  30.654   8.555
 6433POPC   D2A14032  26.810  30.660   8.255
 6433POPC   C3A14033  26.855  30.737   7.955
 6433POPC   C4A14034  26.840  30.710   7.655
 6433POPC   C1B14035  26.674  30.423   8.555
 6433POPC   C2B14036  26.706  30.522   8.255
 6433POPC   C3B14037  26.710  30.493   7.955
 6433POPC   C4B14038  26.746  30.501   7.655
 6434POPC   NC314039  36.861  12.122   9.455
 6434POPC   PO414040  36.919  12.063   9.155
 6434POPC   GL114041  36.871  12.031   8.855
 6434POPC   GL214042  36.811  12.042   8.855
 6434POPC   C1A14043  36.910  12.105   8.555
 6434POPC   D2A14044  36.877  12.098   8.255
 6434POPC   C3A14045  36.953  12.066   7.955
 6434POPC   C4A14046  36.945  12.085   7.655
 6434POPC   C1B14047  36.703  12.044   8.555
 6434POPC   C2B14048  36.625  12.055   8.255
 6434POPC   C3B14049  36.626  12.091   7.955
 6434POPC   C4B14050  36.636  12.016   7.655
 6435POPC   NC314051   0.451  11.258   9.455
 6435POPC   PO414052   0.441  11.323   9.155
 6435POPC   GL114053   0.420  11.316   8.855
 6435POPC   GL214054   0.366  11.396   8.855
 6435POPC   C1A14055   0.392  11.332   8.555
 6435POPC   D2A14056   0.447  11.297   8.255
 6435POPC   C3A14057   0.404  11.298   7.955
 6435POPC   C4A14058   0.441  11.302   7.655
 6435POPC   C1B14059   0.433  11.591   8.555
 6435POPC   C2B14060   0.334  11.539   8.255
 6435POPC   C3B14061   0.368  11.569   7.955
 6435POPC   C4B14062   0.349  11.575   7.655
 6436POPC   NC314063  31.507  10.567   9.455
 6436POPC   PO414064  31.485  10.520   9.155
 6436POPC   GL114065  31.469  10.505   8.855
 6436POPC   GL214066  31.449  10.447   8.855
 6436POPC   C1A14067  31.442  10.508   8.555
 6436POPC   D2A14068  31.463  10.557   8.255
 6436POPC   C3A14069  31.518  10.530   7.955
 6436POPC   C4A14070  31.439  10.564   7.655
 6436POPC   C1B14071  31.450  10.320   8.555
 6436POPC   C2B14072  31.413  10.246   8.255
 6436POPC   C3B14073  31.417  10.310   7.955
 6436POPC   C4B14074  31.415  10.328   7.655
 6437POPC   NC314075   5.059  35.393   9.455
 6437POPC   PO414076   5.120  35.384   9.155
 6437POPC   GL114077   5.142  35.381   8.855
 6437POPC   GL214078   4.951  35.333   8.855
 6437POPC   C1A14079   5.090  35.379   8.555
 6437POPC   D2A14080   5.109  35.317   8.255
 6437POPC   C3A14081   5.126  35.334   7.955
 6437POPC   C4A14082   5.078  35.357   7.655
 6437POPC   C1B14083   4.833  35.369   8.555
 6437POPC   C2B14084   4.873  35.332   8.255
 6437POPC   C3B14085   4.857  35.421   7.955
 6437POPC   C4B14086   4.847  35.339   7.655
 6438POPC   NC314087  31.428  22.924   9.455
 6438POPC   PO414088  31.516  22.919   9.155
 6438POPC   GL114089  31.507  22.899   8.855
 6438POPC   GL214090  31.325  22.898   8.855
 6438POPC   C1A14091  31.425  22.945   8.555
 6438POPC   D2A14092  31.510  22.961   8.255
 6438POPC   C3A14093  31.504  22.947   7.955
 6438POPC   C4A14094  31.498  22.979   7.655
 6438POPC   C1B14095  31.247  22.835   8.555
 6438POPC   C2B14096  31.277  22.822   8.255
 6438POPC   C3B14097  31.253  22.752   7.955
 6438POPC   C4B14098  31.299  22.809   7.655
 6439POPC   NC314099   1.207  32.285   9.455
 6439POPC   PO414100   1.253  32.199   9.155
 6439POPC   GL114101   1.231  32.289   8.855
 6439POPC   GL214102   1.315  32.256   8.855
 6439POPC   C1A14103   1.240  32.232   8.555
 6439POPC   D2A14104   1.216  32.263   8.255
 6439POPC   C3A14105   1.240  32.230   7.955
 6439POPC   C4A14106   1.218  32.220   7.655
 6439POPC   C1B14107   1.435  32.303   8.555
 6439POPC   C2B14108   1.474  32.255   8.255
 6439POPC   C3B14109   1.477  32.306   7.955
 6439POPC   C4B14110   1.466  32.334   7.655
 6440POPC   NC314111  17.508  33.026   9.455
 6440POPC   PO414112  17.535  33.031   9.155
 6440POPC   GL114113  17.511  33.013   8.855
 6440POPC   GL214114  17.603  33.002   8.855
 6440POPC   C1A14115  17.475  33.071   8.555
 6440POPC   D2A14116  17.541  33.024   8.255
 6440POPC   C3A14117  17.457  33.021   7.955
 6440POPC   C4A14118  17.510  33.067   7.655
 6440POPC   C1B14119  17.797  33.114   8.555
 6440POPC   C2B14120  17.741  33.083   8.255
 6440POPC   C3B14121  17.784  33.094   7.955
 6440POPC   C4B14122  17.711  33.095   7.655
 6441POPC   NC314123  40.778  40.763   9.455
 6441POPC   PO414124  40.748  40.782   9.155
 6441POPC   GL114125  40.807  40.825   8.855
 6441POPC   GL214126  40.805  40.892   8.855
 6441POPC   C1A14127  40.773  40.780   8.555
 6441POPC   D2A14128  40.751  40.772   8.255
 6441POPC   C3A14129  40.760  40.812   7.955
 6441POPC   C4A14130  40.797  40.752   7.655
 6441POPC   C1B14131  40.896  41.051   8.555
 6441POPC   C2B14132  40.921  41.045   8.255
 6441POPC   C3B14133  40.855  40.992   7.955
 6441POPC   C4B14134  40.916  40.967   7.655
 6442POPC   NC314135  22.124  28.374   9.455
 6442POPC   PO414136  22.155  28.394   9.155
 6442POPC   GL114137  22.133  28.396   8.855
 6442POPC   GL214138  22.193  28.524   8.855
 6442POPC   C1A14139  22.150  28.338   8.555
 6442POPC   D2A14140  22.209  28.392   8.255
 6442POPC   C3A14141  22.130  28.406   7.955
 6442POPC   C4A14142  22.150  28.353   7.655
 6442POPC   C1B14143  22.223  28.666   8.555
 6442POPC   C2B14144  22.204  28.637   8.255
 6442POPC   C3B14145  22.196  28.612   7.955
 6442POPC   C4B14146  22.177  28.666   7.655
 6443POPC   NC314147  18.240   8.926   9.455
 6443POPC   PO414148  18.265   8.976   9.155
 6443POPC   GL114149  18.328   8.984   8.855
 6443POPC   GL214150  18.282   8.799   8.855
 6443POPC   C1A14151  18.326   8.987   8.555
 6443POPC   D2A14152  18.238   8.943   8.255
 6443POPC   C3A14153  18.302   8.975   7.955
 6443POPC   C4A14154  18.316   8.925   7.655
 6443POPC   C1B14155  18.249   8.698   8.555
 6443POPC   C2B14156  18.246   8.723   8.255
 6443POPC   C3B14157  18.238   8.743   7.955
 6443POPC   C4B14158  18.323   8.732   7.655
 6444POPC   NC314159   0.421  26.786   9.455
 6444POPC   PO414160   0.404  26.859   9.155
 6444POPC   GL114161   0.440  26.786   8.855
 6444POPC   GL214162   0.318  26.886   8.855
 6444POPC   C1A14163   0.422  26.801   8.555
 6444POPC   D2A14164   0.487  26.844   8.255
 6444POPC   C3A14165   0.393  26.785   7.955
 6444POPC   C4A14166   0.452  26.827   7.655
 6444POPC   C1B14167   0.201  27.000   8.555
 6444POPC   C2B14168   0.241  26.947   8.255
 6444POPC   C3B14169   0.228  26.986   7.955
 6444POPC   C4B14170   0.204  26.988   7.655
 6445POPC   NC314171  19.834  29.882   9.455
 6445POPC   PO414172  19.849  29.935   9.155
 6445POPC   GL114173  19.883  29.889   8.855
 6445POPC   GL214174  19.773  29.799   8.855
 6445POPC   C1A14175  19.827  29.936   8.555
 6445POPC   D2A14176  19.832  29.897   8.255
 6445POPC   C3A14177  19.878  29.956   7.955
 6445POPC   C4A14178  19.821  29.892   7.655
 6445POPC   C1B14179  19.750  29.676   8.555
 6445POPC   C2B14180  19.751  29.660   8.255
 6445POPC   C3B14181  19.698  29.706   7.955
 6445POPC   C4B14182  19.737  29.692   7.655
 6446POPC   NC314183  33.764  32.284   9.455
 6446POPC   PO414184  33.771  32.232   9.155
 6446POPC   GL114185  33.752  32.266   8.855
 6446POPC   GL214186  33.740  32.164   8.855
 6446POPC   C1A14187  33.810  32.291   8.555
 6446POPC   D2A14188  33.834  32.286   8.255
 6446POPC   C3A14189  33.785  32.223   7.955
 6446POPC   C4A14190  33.832  32.296   7.655
 6446POPC   C1B14191  33.769  32.032   8.555
 6446POPC   C2B14192  33.763  32.030   8.255
 6446POPC   C3B14193  33.740  31.989   7.955
 6446POPC   C4B14194  33.713  31.974   7.655
 6447POPC   NC314195  12.126  41.565   9.455
 6447POPC   PO414196  12.040  41.575   9.155
 6447POPC   GL114197  12.095  41.512   8.855
 6447POPC   GL214198  11.983  41.593   8.855
 6447POPC   C1A14199  12.118  41.604   8.555
 6447POPC   D2A14200  12.080  41.597   8.255
 6447POPC   C3A14201  12.030  41.513   7.955
 6447POPC   C4A14202  12.056  41.552   7.655
 6447POPC   C1B14203  11.842  41.688   8.555
 6447POPC   C2B14204  11.895  41.643   8.255
 6447POPC   C3B14205  11.837  41.644   7.955
 6447POPC   C4B14206  11.833  41.632   7.655
 6448POPC   NC314207  43.070  29.898   9.455
 6448POPC   PO414208  43.083  29.925   9.155
 6448POPC   GL114209  43.153  29.925   8.855
 6448POPC   GL214210  43.033  29.964   8.855
 6448POPC   C1A14211  43.147  29.906   8.555
 6448POPC   D2A14212  43.131  29.910   8.255
 6448POPC   C3A14213  43.151  29.944   7.955
 6448POPC   C4A14214  43.082  29.963   7.655
 6448POPC   C1B14215  42.910  29.955   8.555
 6448POPC   C2B14216  42.891  29.959   8.255
 6448POPC   C3B14217  42.878  29.947   7.955
 6448POPC   C4B14218  42.866  29.952   7.655
 6449POPC   NC314219  43.157  18.296   9.455
 6449POPC   PO414220  43.081  18.294   9.155
 6449POPC   GL114221  43.110  18.327   8.855
 6449POPC   GL214222  43.171  18.390   8.855
 6449POPC   C1A14223  43.064  18.281   8.555
 6449POPC   D2A14224  43.151  18.307   8.255
 6449POPC   C3A14225  43.077  18.315   7.955
 6449POPC   C4A14226  43.127  18.291   7.655
 6449POPC   C1B14227  43.269  18.444   8.555
 6449POPC   C2B14228  43.328  18.469   8.255
 6449POPC   C3B14229  43.293  18.448   7.955
 6449POPC   C4B14230  43.290  18.464   7.655
 6450POPC   NC314231  36.915  40.020   9.455
 6450POPC   PO414232  36.900  39.995   9.155
 6450POPC   GL114233  36.908  40.041   8.855
 6450POPC   GL214234  36.810  39.984   8.855
 6450POPC   C1A14235  36.896  40.038   8.555
 6450POPC   D2A14236  36.945  39.984   8.255
 6450POPC   C3A14237  36.860  39.977   7.955
 6450POPC   C4A14238  36.932  40.008   7.655
 6450POPC   C1B14239  36.654  40.036   8.555
 6450POPC   C2B14240  36.627  39.968   8.255
 6450POPC   C3B14241  36.663  40.041   7.955
 6450POPC   C4B14242  36.684  40.053   7.655
 6451POPC   NC314243  16.779   7.438   9.455
 6451POPC   PO414244  16.778   7.376   9.155
 6451POPC   GL114245  16.724   7.421   8.855
 6451POPC   GL214246  16.627   7.462   8.855
 6451POPC   C1A14247  16.760   7.382   8.555
 6451POPC   D2A14248  16.690   7.457   8.255
 6451POPC   C3A14249  16.780   7.372   7.955
 6451POPC   C4A14250  16.763   7.382   7.655
 6451POPC   C1B14251  16.561   7.547   8.555
 6451POPC   C2B14252  16.571   7.526   8.255
 6451POPC   C3B14253  16.509   7.601   7.955
 6451POPC   C4B14254  16.568   7.568   7.655
 6452POPC   NC314255  23.730  22.976   9.455
 6452POPC   PO414256  23.738  22.986   9.155
 6452POPC   GL114257  23.678  22.941   8.855
 6452POPC   GL214258  23.793  22.894   8.855
 6452POPC   C1A14259  23.665  22.978   8.555
 6452POPC   D2A14260  23.715  22.933   8.255
 6452POPC   C3A14261  23.697  22.941   7.955
 6452POPC   C4A14262  23.667  22.940   7.655
 6452POPC   C1B14263  23.960  22.755   8.555
 6452POPC   C2B14264  23.949  22.809   8.255
 6452POPC   C3B14265  23.903  22.805   7.955
 6452POPC   C4B14266  23.938  22.777   7.655
 6453POPC   NC314267  29.136   4.289   9.455
 6453POPC   PO414268  29.107   4.307   9.155
 6453POPC   GL114269  29.124   4.275   8.855
 6453POPC   GL214270  29.140   4.403   8.855
 6453POPC   C1A14271  29.161   4.338   8.555
 6453POPC   D2A14272  29.119   4.323   8.255
 6453POPC   C3A14273  29.145   4.278   7.955
 6453POPC   C4A14274  29.109   4.280   7.655
 6453POPC   C1B14275  29.200   4.558   8.555
 6453POPC   C2B14276  29.275   4.540   8.255
 6453POPC   C3B14277  29.232   4.512   7.955
 6453POPC   C4B14278  29.264   4.579   7.655
 6454POPC   NC314279   6.635   7.470   9.455
 6454POPC   PO414280   6.668   7.396   9.155
 6454POPC   GL114281   6.695   7.379   8.855
 6454POPC   GL214282   6.654   7.492   8.855
 6454POPC   C1A14283   6.670   7.459   8.555
 6454POPC   D2A14284   6.693   7.410   8.255
 6454POPC   C3A14285   6.611   7.455   7.955
 6454POPC   C4A14286   6.647   7.469   7.655
 6454POPC   C1B14287   6.608   7.630   8.555
 6454POPC   C2B14288   6.589   7.661   8.255
 6454POPC   C3B14289   6.535   7.662   7.955
 6454POPC   C4B14290   6.609   7.641   7.655
 6455POPC   NC314291  11.293  20.562   9.455
 6455POPC   PO414292  11.250  20.656   9.155
 6455POPC   GL114293  11.262  20.598   8.855
 6455POPC   GL214294  11.446  20.569   8.855
 6455POPC   C1A14295  11.319  20.581   8.555
 6455POPC   D2A14296  11.328  20.606   8.255
 6455POPC   C3A14297  11.295  20.567   7.955
 6455POPC   C4A14298  11.322  20.596   7.655
 6455POPC   C1B14299  11.551  20.577   8.555
 6455POPC   C2B14300  11.504  20.571   8.255
 6455POPC   C3B14301  11.563  20.658   7.955
 6455POPC   C4B14302  11.506  20.633   7.655
 6456POPC   NC314303  12.880   5.104   9.455
 6456POPC   PO414304  12.820   5.087   9.155
 6456POPC   GL114305  12.852   5.063   8.855
 6456POPC   GL214306  12.932   5.153   8.855
 6456POPC   C1A14307  12.892   5.069   8.555
 6456POPC   D2A14308  12.814   5.091   8.255
 6456POPC   C3A14309  12.826   5.137   7.955
 6456POPC   C4A14310  12.897   5.091   7.655
 6456POPC   C1B14311  12.989   5.330   8.555
 6456POPC   C2B14312  12.969   5.247   8.255
 6456POPC   C3B14313  12.986   5.335   7.955
 6456POPC   C4B14314  13.009   5.308   7.655
 6457POPC   NC314315  40.735  10.571   9.455
 6457POPC   PO414316  40.745  10.521   9.155
 6457POPC   GL114317  40.820  10.545   8.855
 6457POPC   GL214318  40.629  10.562   8.855
 6457POPC   C1A14319  40.762  10.541   8.555
 6457POPC   D2A14320  40.796  10.560   8.255
 6457POPC   C3A14321  40.745  10.543   7.955
 6457POPC   C4A14322  40.809  10.475   7.655
 6457POPC   C1B14323  40.571  10.557   8.555
 6457POPC   C2B14324  40.510  10.586   8.255
 6457POPC   C3B14325  40.564  10.622   7.955
 6457POPC   C4B14326  40.503  10.601   7.655
 6458POPC   NC314327  32.246  26.087   9.455
 6458POPC   PO414328  32.227  25.997   9.155
 6458POPC   GL114329  32.199  26.081   8.855
 6458POPC   GL214330  32.185  25.913   8.855
 6458POPC   C1A14331  32.225  26.075   8.555
 6458POPC   D2A14332  32.199  26.000   8.255
 6458POPC   C3A14333  32.224  26.032   7.955
 6458POPC   C4A14334  32.259  26.045   7.655
 6458POPC   C1B14335  32.040  25.827   8.555
 6458POPC   C2B14336  32.015  25.902   8.255
 6458POPC   C3B14337  32.028  25.858   7.955
 6458POPC   C4B14338  32.087  25.894   7.655
 6459POPC   NC314339  37.633  30.734   9.455
 6459POPC   PO414340  37.637  30.663   9.155
 6459POPC   GL114341  37.714  30.647   8.855
 6459POPC   GL214342  37.512  30.756   8.855
 6459POPC   C1A14343  37.725  30.707   8.555
 6459POPC   D2A14344  37.658  30.677   8.255
 6459POPC   C3A14345  37.693  30.704   7.955
 6459POPC   C4A14346  37.694  30.705   7.655
 6459POPC   C1B14347  37.469  30.724   8.555
 6459POPC   C2B14348  37.396  30.708   8.255
 6459POPC   C3B14349  37.472  30.728   7.955
 6459POPC   C4B14350  37.412  30.704   7.655
 6460POPC   NC314351  16.758   9.013   9.455
 6460POPC   PO414352  16.744   8.958   9.155
 6460POPC   GL114353  16.753   8.943   8.855
 6460POPC   GL214354  16.759   9.063   8.855
 6460POPC   C1A14355  16.728   8.971   8.555
 6460POPC   D2A14356  16.699   9.000   8.255
 6460POPC   C3A14357  16.777   8.957   7.955
 6460POPC   C4A14358  16.774   9.017   7.655
 6460POPC   C1B14359  16.796   9.239   8.555
 6460POPC   C2B14360  16.763   9.229   8.255
 6460POPC   C3B14361  16.783   9.199   7.955
 6460POPC   C4B14362  16.794   9.209   7.655
 6461POPC   NC314363  11.335  43.117   9.455
 6461POPC   PO414364  11.293  43.062   9.155
 6461POPC   GL114365  11.250  43.093   8.855
 6461POPC   GL214366  11.344  43.236   8.855
 6461POPC   C1A14367  11.253  43.141   8.555
 6461POPC   D2A14368  11.332  43.069   8.255
 6461POPC   C3A14369  11.323  43.117   7.955
 6461POPC   C4A14370  11.326  43.125   7.655
 6461POPC   C1B14371  11.416  43.320   8.555
 6461POPC   C2B14372  11.352  43.309   8.255
 6461POPC   C3B14373  11.428  43.385   7.955
 6461POPC   C4B14374  11.419  43.305   7.655
 6462POPC   NC314375  36.138  28.398   9.455
 6462POPC   PO414376  36.128  28.374   9.155
 6462POPC   GL114377  36.161  28.402   8.855
 6462POPC   GL214378  36.211  28.411   8.855
 6462POPC   C1A14379  36.117  28.387   8.555
 6462POPC   D2A14380  36.169  28.388   8.255
 6462POPC   C3A14381  36.163  28.399   7.955
 6462POPC   C4A14382  36.159  28.397   7.655
 6462POPC   C1B14383  36.336  28.391   8.555
 6462POPC   C2B14384  36.379  28.414   8.255
 6462POPC   C3B14385  36.351  28.429   7.955
 6462POPC   C4B14386  36.410  28.403   7.655
 6463POPC   NC314387   5.050   1.165   9.455
 6463POPC   PO414388   5.086   1.213   9.155
 6463POPC   GL114389   5.097   1.224   8.855
 6463POPC   GL214390   5.199   1.328   8.855
 6463POPC   C1A14391   5.045   1.243   8.555
 6463POPC   D2A14392   5.138   1.228   8.255
 6463POPC   C3A14393   5.121   1.254   7.955
 6463POPC   C4A14394   5.081   1.199   7.655
 6463POPC   C1B14395   5.248   1.388   8.555
 6463POPC   C2B14396   5.267   1.344   8.255
 6463POPC   C3B14397   5.277   1.378   7.955
 6463POPC   C4B14398   5.320   1.426   7.655
 6464POPC   NC314399  19.797  12.842   9.455
 6464POPC   PO414400  19.824  12.804   9.155
 6464POPC   GL114401  19.838  12.857   8.855
 6464POPC   GL214402  19.685  12.796   8.855
 6464POPC   C1A14403  19.789  12.809   8.555
 6464POPC   D2A14404  19.815  12.879   8.255
 6464POPC   C3A14405  19.835  12.803   7.955
 6464POPC   C4A14406  19.792  12.855   7.655
 6464POPC   C1B14407  19.569  12.779   8.555
 6464POPC   C2B14408  19.608  12.805   8.255
 6464POPC   C3B14409  19.570  12.788   7.955
 6464POPC   C4B14410  19.567  12.835   7.655
 6465POPC   NC314411  22.175   6.622   9.455
 6465POPC   PO414412  22.198   6.666   9.155
 6465POPC   GL114413  22.168   6.673   8.855
 6465POPC   GL214414  22.076   6.655   8.855
 6465POPC   C1A14415  22.203   6.621   8.555
 6465POPC   D2A14416  22.116   6.666   8.255
 6465POPC   C3A14417  22.140   6.694   7.955
 6465POPC   C4A14418  22.159   6.606   7.655
 6465POPC   C1B14419  21.894   6.693   8.555
 6465POPC   C2B14420  21.878   6.715   8.255
 6465POPC   C3B14421  21.936   6.702   7.955
 6465POPC   C4B14422  21.900   6.763   7.655
 6466POPC   NC314423  28.324  25.304   9.455
 6466POPC   PO414424  28.331  25.263   9.155
 6466POPC   GL114425  28.333  25.260   8.855
 6466POPC   GL214426  28.540  25.315   8.855
 6466POPC   C1A14427  28.352  25.242   8.555
 6466POPC   D2A14428  28.398  25.270   8.255
 6466POPC   C3A14429  28.416  25.272   7.955
 6466POPC   C4A14430  28.338  25.284   7.655
 6466POPC   C1B14431  28.654  25.313   8.555
 6466POPC   C2B14432  28.608  25.251   8.255
 6466POPC   C3B14433  28.655  25.302   7.955
 6466POPC   C4B14434  28.579  25.340   7.655
 6467POPC   NC314435  31.496  19.039   9.455
 6467POPC   PO414436  31.511  19.095   9.155
 6467POPC   GL114437  31.519  19.032   8.855
 6467POPC   GL214438  31.395  18.974   8.855
 6467POPC   C1A14439  31.510  19.093   8.555
 6467POPC   D2A14440  31.467  19.027   8.255
 6467POPC   C3A14441  31.442  19.091   7.955
 6467POPC   C4A14442  31.520  19.084   7.655
 6467POPC   C1B14443  31.329  18.797   8.555
 6467POPC   C2B14444  31.372  18.801   8.255
 6467POPC   C3B14445  31.418  18.794   7.955
 6467POPC   C4B14446  31.419  18.828   7.655
 6468POPC   NC314447  12.820  40.734   9.455
 6468POPC   PO414448  12.868  40.779   9.155
 6468POPC   GL114449  12.891  40.826   8.855
 6468POPC   GL214450  12.901  40.874   8.855
 6468POPC   C1A14451  12.875  40.803   8.555
 6468POPC   D2A14452  12.880  40.758   8.255
 6468POPC   C3A14453  12.880  40.777   7.955
 6468POPC   C4A14454  12.840  40.778   7.655
 6468POPC   C1B14455  12.829  41.011   8.555
 6468POPC   C2B14456  12.909  41.034   8.255
 6468POPC   C3B14457  12.826  41.015   7.955
 6468POPC   C4B14458  12.873  41.020   7.655
 6469POPC   NC314459  17.528   7.463   9.455
 6469POPC   PO414460  17.510   7.469   9.155
 6469POPC   GL114461  17.505   7.391   8.855
 6469POPC   GL214462  17.666   7.484   8.855
 6469POPC   C1A14463  17.555   7.423   8.555
 6469POPC   D2A14464  17.460   7.415   8.255
 6469POPC   C3A14465  17.536   7.418   7.955
 6469POPC   C4A14466  17.463   7.393   7.655
 6469POPC   C1B14467  17.751   7.498   8.555
 6469POPC   C2B14468  17.684   7.569   8.255
 6469POPC   C3B14469  17.717   7.495   7.955
 6469POPC   C4B14470  17.765   7.498   7.655
 6470POPC   NC314471  19.878  16.700   9.455
 6470POPC   PO414472  19.835  16.747   9.155
 6470POPC   GL114473  19.830  16.766   8.855
 6470POPC   GL214474  19.799  16.816   8.855
 6470POPC   C1A14475  19.812  16.774   8.555
 6470POPC   D2A14476  19.838  16.684   8.255
 6470POPC   C3A14477  19.823  16.763   7.955
 6470POPC   C4A14478  19.873  16.693   7.655
 6470POPC   C1B14479  19.755  16.930   8.555
 6470POPC   C2B14480  19.706  16.992   8.255
 6470POPC   C3B14481  19.783  16.977   7.955
 6470POPC   C4B14482  19.765  16.977   7.655
 6471POPC   NC314483  33.849  36.913   9.455
 6471POPC   PO414484  33.817  36.857   9.155
 6471POPC   GL114485  33.850  36.940   8.855
 6471POPC   GL214486  33.744  36.839   8.855
 6471POPC   C1A14487  33.834  36.920   8.555
 6471POPC   D2A14488  33.821  36.890   8.255
 6471POPC   C3A14489  33.842  36.891   7.955
 6471POPC   C4A14490  33.840  36.854   7.655
 6471POPC   C1B14491  33.588  36.721   8.555
 6471POPC   C2B14492  33.640  36.726   8.255
 6471POPC   C3B14493  33.566  36.749   7.955
 6471POPC   C4B14494  33.611  36.798   7.655
 6472POPC   NC314495   2.804  25.314   9.455
 6472POPC   PO414496   2.804  25.274   9.155
 6472POPC   GL114497   2.764  25.253   8.855
 6472POPC   GL214498   2.647  25.339   8.855
 6472POPC   C1A14499   2.793  25.248   8.555
 6472POPC   D2A14500   2.808  25.283   8.255
 6472POPC   C3A14501   2.805  25.255   7.955
 6472POPC   C4A14502   2.741  25.277   7.655
 6472POPC   C1B14503   2.543  25.438   8.555
 6472POPC   C2B14504   2.560  25.419   8.255
 6472POPC   C3B14505   2.636  25.451   7.955
 6472POPC   C4B14506   2.636  25.404   7.655
 6473POPC   NC314507  18.250  24.445   9.455
 6473POPC   PO414508  18.268  24.492   9.155
 6473POPC   GL114509  18.323  24.492   8.855
 6473POPC   GL214510  18.215  24.556   8.855
 6473POPC   C1A14511  18.270  24.470   8.555
 6473POPC   D2A14512  18.234  24.501   8.255
 6473POPC   C3A14513  18.235  24.500   7.955
 6473POPC   C4A14514  18.309  24.464   7.655
 6473POPC   C1B14515  18.071  24.589   8.555
 6473POPC   C2B14516  18.092  24.644   8.255
 6473POPC   C3B14517  18.096  24.641   7.955
 6473POPC   C4B14518  18.103  24.608   7.655
 6474POPC   NC314519  21.431  29.181   9.455
 6474POPC   PO414520  21.403  29.109   9.155
 6474POPC   GL114521  21.365  29.104   8.855
 6474POPC   GL214522  21.333  29.267   8.855
 6474POPC   C1A14523  21.407  29.169   8.555
 6474POPC   D2A14524  21.390  29.104   8.255
 6474POPC   C3A14525  21.393  29.182   7.955
 6474POPC   C4A14526  21.435  29.170   7.655
 6474POPC   C1B14527  21.189  29.297   8.555
 6474POPC   C2B14528  21.187  29.310   8.255
 6474POPC   C3B14529  21.250  29.369   7.955
 6474POPC   C4B14530  21.269  29.387   7.655
 6475POPC   NC314531   9.005  18.249   9.455
 6475POPC   PO414532   8.963  18.305   9.155
 6475POPC   GL114533   8.973  18.331   8.855
 6475POPC   GL214534   8.816  18.219   8.855
 6475POPC   C1A14535   9.012  18.300   8.555
 6475POPC   D2A14536   8.926  18.316   8.255
 6475POPC   C3A14537   8.976  18.319   7.955
 6475POPC   C4A14538   9.002  18.235   7.655
 6475POPC   C1B14539   8.755  18.184   8.555
 6475POPC   C2B14540   8.750  18.249   8.255
 6475POPC   C3B14541   8.773  18.216   7.955
 6475POPC   C4B14542   8.695  18.193   7.655
 6476POPC   NC314543  23.669   5.112   9.455
 6476POPC   PO414544  23.681   5.068   9.155
 6476POPC   GL114545  23.706   5.128   8.855
 6476POPC   GL214546  23.576   5.042   8.855
 6476POPC   C1A14547  23.759   5.078   8.555
 6476POPC   D2A14548  23.722   5.104   8.255
 6476POPC   C3A14549  23.711   5.068   7.955
 6476POPC   C4A14550  23.696   5.065   7.655
 6476POPC   C1B14551  23.474   5.034   8.555
 6476POPC   C2B14552  23.501   5.041   8.255
 6476POPC   C3B14553  23.513   5.120   7.955
 6476POPC   C4B14554  23.460   5.039   7.655
 6477POPC   NC314555  42.284   5.095   9.455
 6477POPC   PO414556  42.302   5.045   9.155
 6477POPC   GL114557  42.359   5.053   8.855
 6477POPC   GL214558  42.407   5.027   8.855
 6477POPC   C1A14559  42.344   5.116   8.555
 6477POPC   D2A14560  42.309   5.114   8.255
 6477POPC   C3A14561  42.373   5.123   7.955
 6477POPC   C4A14562  42.359   5.063   7.655
 6477POPC   C1B14563  42.486   4.835   8.555
 6477POPC   C2B14564  42.457   4.848   8.255
 6477POPC   C3B14565  42.500   4.834   7.955
 6477POPC   C4B14566  42.419   4.860   7.655
 6478POPC   NC314567  41.529  26.779   9.455
 6478POPC   PO414568  41.577  26.857   9.155
 6478POPC   GL114569  41.509  26.799   8.855
 6478POPC   GL214570  41.584  26.741   8.855
 6478POPC   C1A14571  41.519  26.795   8.555
 6478POPC   D2A14572  41.520  26.846   8.255
 6478POPC   C3A14573  41.545  26.855   7.955
 6478POPC   C4A14574  41.511  26.774   7.655
 6478POPC   C1B14575  41.565  26.573   8.555
 6478POPC   C2B14576  41.567  26.562   8.255
 6478POPC   C3B14577  41.552  26.550   7.955
 6478POPC   C4B14578  41.515  26.605   7.655
 6479POPC   NC314579   8.981   8.937   9.455
 6479POPC   PO414580   8.961   8.962   9.155
 6479POPC   GL114581   8.953   8.993   8.855
 6479POPC   GL214582   8.945   9.045   8.855
 6479POPC   C1A14583   8.991   8.984   8.555
 6479POPC   D2A14584   8.985   9.005   8.255
 6479POPC   C3A14585   8.956   8.930   7.955
 6479POPC   C4A14586   9.011   8.992   7.655
 6479POPC   C1B14587   8.873   9.194   8.555
 6479POPC   C2B14588   8.838   9.210   8.255
 6479POPC   C3B14589   8.829   9.157   7.955
 6479POPC   C4B14590   8.840   9.185   7.655
 6480POPC   NC314591   3.569  37.647   9.455
 6480POPC   PO414592   3.558  37.712   9.155
 6480POPC   GL114593   3.569  37.657   8.855
 6480POPC   GL214594   3.393  37.796   8.855
 6480POPC   C1A14595   3.542  37.681   8.555
 6480POPC   D2A14596   3.570  37.707   8.255
 6480POPC   C3A14597   3.563  37.645   7.955
 6480POPC   C4A14598   3.534  37.637   7.655
 6480POPC   C1B14599   3.299  37.833   8.555
 6480POPC   C2B14600   3.349  37.782   8.255
 6480POPC   C3B14601   3.328  37.820   7.955
 6480POPC   C4B14602   3.323  37.787   7.655
 6481POPC   NC314603  29.958  36.872   9.455
 6481POPC   PO414604  29.956  36.864   9.155
 6481POPC   GL114605  29.967  36.880   8.855
 6481POPC   GL214606  29.806  36.873   8.855
 6481POPC   C1A14607  29.953  36.893   8.555
 6481POPC   D2A14608  29.891  36.862   8.255
 6481POPC   C3A14609  29.953  36.856   7.955
 6481POPC   C4A14610  29.898  36.887   7.655
 6481POPC   C1B14611  29.699  36.940   8.555
 6481POPC   C2B14612  29.659  36.940   8.255
 6481POPC   C3B14613  29.644  36.923   7.955
 6481POPC   C4B14614  29.716  36.932   7.655
 6482POPC   NC314615  12.061   8.951   9.455
 6482POPC   PO414616  12.104   8.972   9.155
 6482POPC   GL114617  12.063   8.935   8.855
 6482POPC   GL214618  12.032   9.125   8.855
 6482POPC   C1A14619  12.097   9.019   8.555
 6482POPC   D2A14620  12.040   8.986   8.255
 6482POPC   C3A14621  12.067   8.952   7.955
 6482POPC   C4A14622  12.075   8.938   7.655
 6482POPC   C1B14623  12.009   9.214   8.555
 6482POPC   C2B14624  12.021   9.235   8.255
 6482POPC   C3B14625  12.064   9.246   7.955
 6482POPC   C4B14626  12.052   9.202   7.655
 6483POPC   NC314627  31.506  22.170   9.455
 6483POPC   PO414628  31.521  22.207   9.155
 6483POPC   GL114629  31.482  22.164   8.855
 6483POPC   GL214630  31.384  22.035   8.855
 6483POPC   C1A14631  31.433  22.139   8.555
 6483POPC   D2A14632  31.455  22.160   8.255
 6483POPC   C3A14633  31.442  22.172   7.955
 6483POPC   C4A14634  31.471  22.196   7.655
 6483POPC   C1B14635  31.260  22.012   8.555
 6483POPC   C2B14636  31.268  21.959   8.255
 6483POPC   C3B14637  31.317  21.937   7.955
 6483POPC   C4B14638  31.331  22.011   7.655
 6484POPC   NC314639  18.261   8.153   9.455
 6484POPC   PO414640  18.301   8.181   9.155
 6484POPC   GL114641  18.251   8.245   8.855
 6484POPC   GL214642  18.397   8.054   8.855
 6484POPC   C1A14643  18.297   8.149   8.555
 6484POPC   D2A14644  18.295   8.235   8.255
 6484POPC   C3A14645  18.313   8.222   7.955
 6484POPC   C4A14646  18.249   8.222   7.655
 6484POPC   C1B14647  18.431   7.940   8.555
 6484POPC   C2B14648  18.431   8.019   8.255
 6484POPC   C3B14649  18.468   8.032   7.955
 6484POPC   C4B14650  18.417   7.996   7.655
 6485POPC   NC314651  39.274  41.579   9.455
 6485POPC   PO414652  39.261  41.561   9.155
 6485POPC   GL114653  39.237  41.606   8.855
 6485POPC   GL214654  39.240  41.429   8.855
 6485POPC   C1A14655  39.257  41.558   8.555
 6485POPC   D2A14656  39.215  41.527   8.255
 6485POPC   C3A14657  39.228  41.554   7.955
 6485POPC   C4A14658  39.253  41.571   7.655
 6485POPC   C1B14659  39.350  41.368   8.555
 6485POPC   C2B14660  39.380  41.368   8.255
 6485POPC   C3B14661  39.305  41.358   7.955
 6485POPC   C4B14662  39.386  41.327   7.655
 6486POPC   NC314663  13.581   2.774   9.455
 6486POPC   PO414664  13.588   2.799   9.155
 6486POPC   GL114665  13.629   2.740   8.855
 6486POPC   GL214666  13.761   2.727   8.855
 6486POPC   C1A14667  13.653   2.727   8.555
 6486POPC   D2A14668  13.603   2.759   8.255
 6486POPC   C3A14669  13.619   2.796   7.955
 6486POPC   C4A14670  13.660   2.800   7.655
 6486POPC   C1B14671  13.897   2.719   8.555
 6486POPC   C2B14672  13.838   2.759   8.255
 6486POPC   C3B14673  13.890   2.776   7.955
 6486POPC   C4B14674  13.919   2.758   7.655
 6487POPC   NC314675  19.038   4.315   9.455
 6487POPC   PO414676  19.074   4.278   9.155
 6487POPC   GL114677  19.089   4.320   8.855
 6487POPC   GL214678  19.149   4.358   8.855
 6487POPC   C1A14679  19.034   4.286   8.555
 6487POPC   D2A14680  19.043   4.339   8.255
 6487POPC   C3A14681  19.085   4.342   7.955
 6487POPC   C4A14682  19.024   4.360   7.655
 6487POPC   C1B14683  19.321   4.396   8.555
 6487POPC   C2B14684  19.278   4.466   8.255
 6487POPC   C3B14685  19.257   4.404   7.955
 6487POPC   C4B14686  19.295   4.404   7.655
 6488POPC   NC314687  43.127  12.843   9.455
 6488POPC   PO414688  43.087  12.830   9.155
 6488POPC   GL114689  43.091  12.844   8.855
 6488POPC   GL214690  43.214  12.989   8.855
 6488POPC   C1A14691  43.114  12.837   8.555
 6488POPC   D2A14692  43.103  12.860   8.255
 6488POPC   C3A14693  43.154  12.819   7.955
 6488POPC   C4A14694  43.148  12.813   7.655
 6488POPC   C1B14695  43.221  13.045   8.555
 6488POPC   C2B14696  43.188  13.083   8.255
 6488POPC   C3B14697  43.273  13.101   7.955
 6488POPC   C4B14698  43.192  13.095   7.655
 6489POPC   NC314699  19.060  32.278   9.455
 6489POPC   PO414700  19.054  32.230   9.155
 6489POPC   GL114701  19.046  32.292   8.855
 6489POPC   GL214702  19.167  32.369   8.855
 6489POPC   C1A14703  19.088  32.223   8.555
 6489POPC   D2A14704  19.070  32.201   8.255
 6489POPC   C3A14705  19.094  32.244   7.955
 6489POPC   C4A14706  19.086  32.271   7.655
 6489POPC   C1B14707  19.187  32.435   8.555
 6489POPC   C2B14708  19.212  32.400   8.255
 6489POPC   C3B14709  19.230  32.436   7.955
 6489POPC   C4B14710  19.219  32.446   7.655
 6490POPC   NC314711  38.447  15.990   9.455
 6490POPC   PO414712  38.464  15.963   9.155
 6490POPC   GL114713  38.459  15.993   8.855
 6490POPC   GL214714  38.370  15.927   8.855
 6490POPC   C1A14715  38.406  15.997   8.555
 6490POPC   D2A14716  38.411  15.972   8.255
 6490POPC   C3A14717  38.442  15.934   7.955
 6490POPC   C4A14718  38.486  15.951   7.655
 6490POPC   C1B14719  38.239  15.865   8.555
 6490POPC   C2B14720  38.213  15.861   8.255
 6490POPC   C3B14721  38.199  15.840   7.955
 6490POPC   C4B14722  38.192  15.867   7.655
 6491POPC   NC314723  32.981   8.971   9.455
 6491POPC   PO414724  33.039   8.924   9.155
 6491POPC   GL114725  33.044   8.965   8.855
 6491POPC   GL214726  32.947   9.103   8.855
 6491POPC   C1A14727  33.010   9.002   8.555
 6491POPC   D2A14728  33.045   8.984   8.255
 6491POPC   C3A14729  33.053   9.004   7.955
 6491POPC   C4A14730  32.979   8.958   7.655
 6491POPC   C1B14731  32.924   9.233   8.555
 6491POPC   C2B14732  32.905   9.218   8.255
 6491POPC   C3B14733  32.900   9.152   7.955
 6491POPC   C4B14734  32.863   9.200   7.655
 6492POPC   NC314735  38.450  20.574   9.455
 6492POPC   PO414736  38.448  20.615   9.155
 6492POPC   GL114737  38.459  20.585   8.855
 6492POPC   GL214738  38.459  20.700   8.855
 6492POPC   C1A14739  38.426  20.651   8.555
 6492POPC   D2A14740  38.457  20.602   8.255
 6492POPC   C3A14741  38.490  20.602   7.955
 6492POPC   C4A14742  38.505  20.600   7.655
 6492POPC   C1B14743  38.357  20.817   8.555
 6492POPC   C2B14744  38.355  20.903   8.255
 6492POPC   C3B14745  38.412  20.862   7.955
 6492POPC   C4B14746  38.433  20.884   7.655
 6493POPC   NC314747  38.473  40.806   9.455
 6493POPC   PO414748  38.493  40.741   9.155
 6493POPC   GL114749  38.462  40.800   8.855
 6493POPC   GL214750  38.367  40.724   8.855
 6493POPC   C1A14751  38.455  40.776   8.555
 6493POPC   D2A14752  38.435  40.734   8.255
 6493POPC   C3A14753  38.451  40.806   7.955
 6493POPC   C4A14754  38.414  40.742   7.655
 6493POPC   C1B14755  38.357  40.574   8.555
 6493POPC   C2B14756  38.280  40.569   8.255
 6493POPC   C3B14757  38.351  40.536   7.955
 6493POPC   C4B14758  38.331  40.538   7.655
 6494POPC   NC314759  13.633   1.261   9.455
 6494POPC   PO414760  13.661   1.166   9.155
 6494POPC   GL114761  13.659   1.188   8.855
 6494POPC   GL214762  13.750   1.255   8.855
 6494POPC   C1A14763  13.675   1.243   8.555
 6494POPC   D2A14764  13.654   1.205   8.255
 6494POPC   C3A14765  13.653   1.198   7.955
 6494POPC   C4A14766  13.593   1.205   7.655
 6494POPC   C1B14767  13.847   1.270   8.555
 6494POPC   C2B14768  13.837   1.229   8.255
 6494POPC   C3B14769  13.881   1.271   7.955
 6494POPC   C4B14770  13.832   1.308   7.655
 6495POPC   NC314771  22.208   3.581   9.455
 6495POPC   PO414772  22.198   3.512   9.155
 6495POPC   GL114773  22.169   3.567   8.855
 6495POPC   GL214774  22.091   3.394   8.855
 6495POPC   C1A14775  22.131   3.492   8.555
 6495POPC   D2A14776  22.142   3.569   8.255
 6495POPC   C3A14777  22.211   3.498   7.955
 6495POPC   C4A14778  22.129   3.565   7.655
 6495POPC   C1B14779  22.070   3.305   8.555
 6495POPC   C2B14780  22.117   3.313   8.255
 6495POPC   C3B14781  22.114   3.353   7.955
 6495POPC   C4B14782  22.114   3.262   7.655
 6496POPC   NC314783  43.871  11.259   9.455
 6496POPC   PO414784  43.858  11.292   9.155
 6496POPC   GL114785  43.928  11.259   8.855
 6496POPC   GL214786  43.794  11.294   8.855
 6496POPC   C1A14787  43.848  11.273   8.555
 6496POPC   D2A14788  43.840  11.301   8.255
 6496POPC   C3A14789  43.909  11.274   7.955
 6496POPC   C4A14790  43.844  11.260   7.655
 6496POPC   C1B14791  43.654  11.382   8.555
 6496POPC   C2B14792  43.651  11.393   8.255
 6496POPC   C3B14793  43.613  11.304   7.955
 6496POPC   C4B14794  43.678  11.334   7.655
 6497POPC   NC314795   9.021  41.525   9.455
 6497POPC   PO414796   8.951  41.572   9.155
 6497POPC   GL114797   8.970  41.516   8.855
 6497POPC   GL214798   9.048  41.551   8.855
 6497POPC   C1A14799   8.926  41.601   8.555
 6497POPC   D2A14800   8.986  41.586   8.255
 6497POPC   C3A14801   8.923  41.572   7.955
 6497POPC   C4A14802   8.956  41.573   7.655
 6497POPC   C1B14803   9.212  41.603   8.555
 6497POPC   C2B14804   9.208  41.551   8.255
 6497POPC   C3B14805   9.240  41.573   7.955
 6497POPC   C4B14806   9.177  41.596   7.655
 6498POPC   NC314807  39.271  32.274   9.455
 6498POPC   PO414808  39.184  32.255   9.155
 6498POPC   GL114809  39.185  32.272   8.855
 6498POPC   GL214810  39.328  32.198   8.855
 6498POPC   C1A14811  39.235  32.298   8.555
 6498POPC   D2A14812  39.251  32.278   8.255
 6498POPC   C3A14813  39.264  32.276   7.955
 6498POPC   C4A14814  39.187  32.263   7.655
 6498POPC   C1B14815  39.490  32.198   8.555
 6498POPC   C2B14816  39.440  32.153   8.255
 6498POPC   C3B14817  39.434  32.140   7.955
 6498POPC   C4B14818  39.480  32.127   7.655
 6499POPC   NC314819  24.475  26.029   9.455
 6499POPC   PO414820  24.526  26.008   9.155
 6499POPC   GL114821  24.451  26.075   8.855
 6499POPC   GL214822  24.454  26.184   8.855
 6499POPC   C1A14823  24.478  26.090   8.555
 6499POPC   D2A14824  24.462  26.049   8.255
 6499POPC   C3A14825  24.483  26.006   7.955
 6499POPC   C4A14826  24.473  26.067   7.655
 6499POPC   C1B14827  24.364  26.325   8.555
 6499POPC   C2B14828  24.438  26.261   8.255
 6499POPC   C3B14829  24.435  26.277   7.955
 6499POPC   C4B14830  24.392  26.308   7.655
 6500POPC   NC314831  33.803  14.368   9.455
 6500POPC   PO414832  33.779  14.407   9.155
 6500POPC   GL114833  33.768  14.427   8.855
 6500POPC   GL214834  33.941  14.450   8.855
 6500POPC   C1A14835  33.821  14.445   8.555
 6500POPC   D2A14836  33.841  14.430   8.255
 6500POPC   C3A14837  33.789  14.397   7.955
 6500POPC   C4A14838  33.846  14.358   7.655
 6500POPC   C1B14839  33.965  14.548   8.555
 6500POPC   C2B14840  33.988  14.555   8.255
 6500POPC   C3B14841  34.003  14.536   7.955
 6500POPC   C4B14842  34.011  14.545   7.655
 6501POPC   NC314843  34.558  35.304   9.455
 6501POPC   PO414844  34.607  35.385   9.155
 6501POPC   GL114845  34.581  35.337   8.855
 6501POPC   GL214846  34.625  35.257   8.855
 6501POPC   C1A14847  34.531  35.312   8.555
 6501POPC   D2A14848  34.570  35.376   8.255
 6501POPC   C3A14849  34.539  35.335   7.955
 6501POPC   C4A14850  34.596  35.376   7.655
 6501POPC   C1B14851  34.781  35.175   8.555
 6501POPC   C2B14852  34.770  35.171   8.255
 6501POPC   C3B14853  34.697  35.194   7.955
 6501POPC   C4B14854  34.784  35.170   7.655
 6502POPC   NC314855  23.708  34.599   9.455
 6502POPC   PO414856  23.678  34.593   9.155
 6502POPC   GL114857  23.676  34.618   8.855
 6502POPC   GL214858  23.669  34.447   8.855
 6502POPC   C1A14859  23.665  34.534   8.555
 6502POPC   D2A14860  23.759  34.616   8.255
 6502POPC   C3A14861  23.749  34.572   7.955
 6502POPC   C4A14862  23.731  34.622   7.655
 6502POPC   C1B14863  23.532  34.359   8.555
 6502POPC   C2B14864  23.601  34.402   8.255
 6502POPC   C3B14865  23.577  34.398   7.955
 6502POPC   C4B14866  23.593  34.352   7.655
 6503POPC   NC314867  23.683  20.605   9.455
 6503POPC   PO414868  23.747  20.653   9.155
 6503POPC   GL114869  23.726  20.652   8.855
 6503POPC   GL214870  23.783  20.543   8.855
 6503POPC   C1A14871  23.673  20.570   8.555
 6503POPC   D2A14872  23.758  20.659   8.255
 6503POPC   C3A14873  23.713  20.590   7.955
 6503POPC   C4A14874  23.678  20.610   7.655
 6503POPC   C1B14875  23.883  20.469   8.555
 6503POPC   C2B14876  23.901  20.402   8.255
 6503POPC   C3B14877  23.916  20.447   7.955
 6503POPC   C4B14878  23.919  20.415   7.655
 6504POPC   NC314879  26.850  18.289   9.455
 6504POPC   PO414880  26.823  18.311   9.155
 6504POPC   GL114881  26.773  18.242   8.855
 6504POPC   GL214882  26.702  18.232   8.855
 6504POPC   C1A14883  26.801  18.305   8.555
 6504POPC   D2A14884  26.851  18.308   8.255
 6504POPC   C3A14885  26.784  18.326   7.955
 6504POPC   C4A14886  26.841  18.241   7.655
 6504POPC   C1B14887  26.563  18.181   8.555
 6504POPC   C2B14888  26.595  18.127   8.255
 6504POPC   C3B14889  26.635  18.177   7.955
 6504POPC   C4B14890  26.551  18.148   7.655
 6505POPC   NC314891  28.338  17.489   9.455
 6505POPC   PO414892  28.324  17.488   9.155
 6505POPC   GL114893  28.353  17.532   8.855
 6505POPC   GL214894  28.353  17.347   8.855
 6505POPC   C1A14895  28.324  17.498   8.555
 6505POPC   D2A14896  28.398  17.516   8.255
 6505POPC   C3A14897  28.365  17.526   7.955
 6505POPC   C4A14898  28.364  17.497   7.655
 6505POPC   C1B14899  28.286  17.282   8.555
 6505POPC   C2B14900  28.277  17.222   8.255
 6505POPC   C3B14901  28.290  17.306   7.955
 6505POPC   C4B14902  28.310  17.289   7.655
 6506POPC   NC314903  22.123  14.382   9.455
 6506POPC   PO414904  22.121  14.365   9.155
 6506POPC   GL114905  22.157  14.430   8.855
 6506POPC   GL214906  22.134  14.530   8.855
 6506POPC   C1A14907  22.123  14.442   8.555
 6506POPC   D2A14908  22.204  14.367   8.255
 6506POPC   C3A14909  22.146  14.376   7.955
 6506POPC   C4A14910  22.149  14.359   7.655
 6506POPC   C1B14911  21.995  14.660   8.555
 6506POPC   C2B14912  22.047  14.643   8.255
 6506POPC   C3B14913  22.060  14.618   7.955
 6506POPC   C4B14914  22.048  14.613   7.655
 6507POPC   NC314915  19.067   1.251   9.455
 6507POPC   PO414916  19.051   1.176   9.155
 6507POPC   GL114917  19.073   1.195   8.855
 6507POPC   GL214918  19.097   1.305   8.855
 6507POPC   C1A14919  19.011   1.165   8.555
 6507POPC   D2A14920  19.060   1.192   8.255
 6507POPC   C3A14921  19.056   1.259   7.955
 6507POPC   C4A14922  19.077   1.234   7.655
 6507POPC   C1B14923  19.178   1.436   8.555
 6507POPC   C2B14924  19.143   1.430   8.255
 6507POPC   C3B14925  19.145   1.415   7.955
 6507POPC   C4B14926  19.102   1.465   7.655
 6508POPC   NC314927   5.137  29.872   9.455
 6508POPC   PO414928   5.104  29.952   9.155
 6508POPC   GL114929   5.142  29.950   8.855
 6508POPC   GL214930   5.072  29.793   8.855
 6508POPC   C1A14931   5.142  29.927   8.555
 6508POPC   D2A14932   5.064  29.900   8.255
 6508POPC   C3A14933   5.064  29.875   7.955
 6508POPC   C4A14934   5.079  29.964   7.655
 6508POPC   C1B14935   4.987  29.646   8.555
 6508POPC   C2B14936   5.028  29.710   8.255
 6508POPC   C3B14937   4.949  29.653   7.955
 6508POPC   C4B14938   4.967  29.660   7.655
 6509POPC   NC314939  41.530  32.231   9.455
 6509POPC   PO414940  41.605  32.213   9.155
 6509POPC   GL114941  41.598  32.259   8.855
 6509POPC   GL214942  41.431  32.271   8.855
 6509POPC   C1A14943  41.587  32.205   8.555
 6509POPC   D2A14944  41.552  32.221   8.255
 6509POPC   C3A14945  41.514  32.263   7.955
 6509POPC   C4A14946  41.523  32.231   7.655
 6509POPC   C1B14947  41.355  32.278   8.555
 6509POPC   C2B14948  41.295  32.231   8.255
 6509POPC   C3B14949  41.298  32.194   7.955
 6509POPC   C4B14950  41.312  32.196   7.655
 6510POPC   NC314951  27.557  14.438   9.455
 6510POPC   PO414952  27.638  14.364   9.155
 6510POPC   GL114953  27.637  14.429   8.855
 6510POPC   GL214954  27.592  14.320   8.855
 6510POPC   C1A14955  27.566  14.425   8.555
 6510POPC   D2A14956  27.581  14.423   8.255
 6510POPC   C3A14957  27.590  14.356   7.955
 6510POPC   C4A14958  27.585  14.370   7.655
 6510POPC   C1B14959  27.563  14.171   8.555
 6510POPC   C2B14960  27.499  14.129   8.255
 6510POPC   C3B14961  27.557  14.123   7.955
 6510POPC   C4B14962  27.554  14.132   7.655
 6511POPC   NC314963  41.527  29.930   9.455
 6511POPC   PO414964  41.542  29.959   9.155
 6511POPC   GL114965  41.552  29.933   8.855
 6511POPC   GL214966  41.539  30.002   8.855
 6511POPC   C1A14967  41.600  29.935   8.555
 6511POPC   D2A14968  41.522  29.896   8.255
 6511POPC   C3A14969  41.516  29.951   7.955
 6511POPC   C4A14970  41.524  29.927   7.655
 6511POPC   C1B14971  41.446  30.122   8.555
 6511POPC   C2B14972  41.415  30.128   8.255
 6511POPC   C3B14973  41.496  30.172   7.955
 6511POPC   C4B14974  41.469  30.182   7.655
 6512POPC   NC314975   0.469  43.150   9.455
 6512POPC   PO414976   0.400  43.147   9.155
 6512POPC   GL114977   0.408  43.128   8.855
 6512POPC   GL214978   0.555  43.044   8.855
 6512POPC   C1A14979   0.396  43.127   8.555
 6512POPC   D2A14980   0.430  43.077   8.255
 6512POPC   C3A14981   0.476  43.078   7.955
 6512POPC   C4A14982   0.450  43.125   7.655
 6512POPC   C1B14983   0.605  42.995   8.555
 6512POPC   C2B14984   0.662  42.910   8.255
 6512POPC   C3B14985   0.599  42.902   7.955
 6512POPC   C4B14986   0.635  42.958   7.655
 6513POPC   NC314987  16.756   5.113   9.455
 6513POPC   PO414988  16.687   5.124   9.155
 6513POPC   GL114989  16.703   5.073   8.855
 6513POPC   GL214990  16.778   5.260   8.855
 6513POPC   C1A14991  16.732   5.114   8.555
 6513POPC   D2A14992  16.758   5.142   8.255
 6513POPC   C3A14993  16.771   5.121   7.955
 6513POPC   C4A14994  16.754   5.141   7.655
 6513POPC   C1B14995  16.679   5.310   8.555
 6513POPC   C2B14996  16.718   5.351   8.255
 6513POPC   C3B14997  16.725   5.322   7.955
 6513POPC   C4B14998  16.680   5.330   7.655
 6514POPC   NC314999  22.935  36.924   9.455
 6514POPC   PO415000  22.895  36.912   9.155
 6514POPC   GL115001  22.975  36.891   8.855
 6514POPC   GL215002  22.998  37.035   8.855
 6514POPC   C1A15003  22.944  36.923   8.555
 6514POPC   D2A15004  22.915  36.924   8.255
 6514POPC   C3A15005  22.930  36.865   7.955
 6514POPC   C4A15006  22.937  36.891   7.655
 6514POPC   C1B15007  22.985  37.087   8.555
 6514POPC   C2B15008  22.991  37.170   8.255
 6514POPC   C3B15009  23.042  37.127   7.955
 6514POPC   C4B15010  23.023  37.095   7.655
 6515POPC   NC315011   0.453  41.562   9.455
 6515POPC   PO415012   0.404  41.572   9.155
 6515POPC   GL115013   0.463  41.549   8.855
 6515POPC   GL215014   0.377  41.616   8.855
 6515POPC   C1A15015   0.461  41.597   8.555
 6515POPC   D2A15016   0.457  41.512   8.255
 6515POPC   C3A15017   0.486  41.590   7.955
 6515POPC   C4A15018   0.463  41.541   7.655
 6515POPC   C1B15019   0.216  41.745   8.555
 6515POPC   C2B15020   0.276  41.752   8.255
 6515POPC   C3B15021   0.282  41.661   7.955
 6515POPC   C4B15022   0.233  41.747   7.655
 6516POPC   NC315023  38.412   2.749   9.455
 6516POPC   PO415024  38.440   2.776   9.155
 6516POPC   GL115025  38.482   2.756   8.855
 6516POPC   GL215026  38.449   2.642   8.855
 6516POPC   C1A15027  38.411   2.811   8.555
 6516POPC   D2A15028  38.420   2.730   8.255
 6516POPC   C3A15029  38.438   2.795   7.955
 6516POPC   C4A15030  38.412   2.763   7.655
 6516POPC   C1B15031  38.515   2.514   8.555
 6516POPC   C2B15032  38.543   2.480   8.255
 6516POPC   C3B15033  38.519   2.515   7.955
 6516POPC   C4B15034  38.534   2.527   7.655
 6517POPC   NC315035  40.769   8.986   9.455
 6517POPC   PO415036  40.755   8.997   9.155
 6517POPC   GL115037  40.738   8.969   8.855
 6517POPC   GL215038  40.684   8.961   8.855
 6517POPC   C1A15039  40.770   8.957   8.555
 6517POPC   D2A15040  40.814   9.013   8.255
 6517POPC   C3A15041  40.763   8.942   7.955
 6517POPC   C4A15042  40.740   8.962   7.655
 6517POPC   C1B15043  40.596   8.855   8.555
 6517POPC   C2B15044  40.545   8.939   8.255
 6517POPC   C3B15045  40.568   8.882   7.955
 6517POPC   C4B15046  40.509   8.925   7.655
 6518POPC   NC315047  40.808  38.446   9.455
 6518POPC   PO415048  40.733  38.502   9.155
 6518POPC   GL115049  40.786  38.450   8.855
 6518POPC   GL215050  40.727  38.545   8.855
 6518POPC   C1A15051  40.766  38.489   8.555
 6518POPC   D2A15052  40.822  38.494   8.255
 6518POPC   C3A15053  40.733  38.439   7.955
 6518POPC   C4A15054  40.743  38.501   7.655
 6518POPC   C1B15055  40.587  38.643   8.555
 6518POPC   C2B15056  40.555  38.618   8.255
 6518POPC   C3B15057  40.562  38.646   7.955
 6518POPC   C4B15058  40.622  38.601   7.655
 6519POPC   NC315059   5.117   9.012   9.455
 6519POPC   PO415060   5.128   8.970   9.155
 6519POPC   GL115061   5.115   9.012   8.855
 6519POPC   GL215062   5.169   9.048   8.855
 6519POPC   C1A15063   5.114   8.927   8.555
 6519POPC   D2A15064   5.109   8.994   8.255
 6519POPC   C3A15065   5.092   8.984   7.955
 6519POPC   C4A15066   5.121   8.944   7.655
 6519POPC   C1B15067   5.310   9.048   8.555
 6519POPC   C2B15068   5.280   9.073   8.255
 6519POPC   C3B15069   5.290   9.024   7.955
 6519POPC   C4B15070   5.287   9.041   7.655
 6520POPC   NC315071  40.054   3.492   9.455
 6520POPC   PO415072  39.963   3.545   9.155
 6520POPC   GL115073  40.009   3.562   8.855
 6520POPC   GL215074  40.015   3.386   8.855
 6520POPC   C1A15075  40.028   3.526   8.555
 6520POPC   D2A15076  40.012   3.589   8.255
 6520POPC   C3A15077  39.968   3.530   7.955
 6520POPC   C4A15078  39.973   3.499   7.655
 6520POPC   C1B15079  40.045   3.304   8.555
 6520POPC   C2B15080  39.992   3.256   8.255
 6520POPC   C3B15081  40.024   3.269   7.955
 6520POPC   C4B15082  40.031   3.288   7.655
 6521POPC   NC315083  38.482  43.885   9.455
 6521POPC   PO415084  38.410  43.936   9.155
 6521POPC   GL115085  38.458  43.867   8.855
 6521POPC   GL215086  38.449  44.053   8.855
 6521POPC   C1A15087  38.457  43.875   8.555
 6521POPC   D2A15088  38.423  43.901   8.255
 6521POPC   C3A15089  38.486  43.881   7.955
 6521POPC   C4A15090  38.452  43.859   7.655
 6521POPC   C1B15091  38.481  44.138   8.555
 6521POPC   C2B15092  38.441  44.181   8.255
 6521POPC   C3B15093  38.460  44.165   7.955
 6521POPC   C4B15094  38.428  44.102   7.655
 6522POPC   NC315095  33.002  39.184   9.455
 6522POPC   PO415096  33.051  39.274   9.155
 6522POPC   GL115097  32.985  39.260   8.855
 6522POPC   GL215098  33.113  39.146   8.855
 6522POPC   C1A15099  33.048  39.208   8.555
 6522POPC   D2A15100  33.010  39.267   8.255
 6522POPC   C3A15101  33.025  39.188   7.955
 6522POPC   C4A15102  33.009  39.271   7.655
 6522POPC   C1B15103  33.198  39.075   8.555
 6522POPC   C2B15104  33.214  39.055   8.255
 6522POPC   C3B15105  33.159  39.056   7.955
 6522POPC   C4B15106  33.150  39.035   7.655
 6523POPC   NC315107  29.108  44.692   9.455
 6523POPC   PO415108  29.102  44.612   9.155
 6523POPC   GL115109  29.108  44.658   8.855
 6523POPC   GL215110  29.054  44.613   8.855
 6523POPC   C1A15111  29.113  44.690   8.555
 6523POPC   D2A15112  29.153  44.674   8.255
 6523POPC   C3A15113  29.158  44.626   7.955
 6523POPC   C4A15114  29.152  44.629   7.655
 6523POPC   C1B15115  28.905  44.667   8.555
 6523POPC   C2B15116  28.897  44.605   8.255
 6523POPC   C3B15117  28.870  44.600   7.955
 6523POPC   C4B15118  28.919  44.583   7.655
 6524POPC   NC315119  27.603  43.908   9.455
 6524POPC   PO415120  27.596  43.859   9.155
 6524POPC   GL115121  27.636  43.866   8.855
 6524POPC   GL215122  27.548  43.732   8.855
 6524POPC   C1A15123  27.603  43.908   8.555
 6524POPC   D2A15124  27.576  43.862   8.255
 6524POPC   C3A15125  27.619  43.888   7.955
 6524POPC   C4A15126  27.546  43.849   7.655
 6524POPC   C1B15127  27.624  43.642   8.555
 6524POPC   C2B15128  27.573  43.587   8.255
 6524POPC   C3B15129  27.609  43.662   7.955
 6524POPC   C4B15130  27.640  43.660   7.655
 6525POPC   NC315131  43.106  41.545   9.455
 6525POPC   PO415132  43.070  41.572   9.155
 6525POPC   GL115133  43.063  41.598   8.855
 6525POPC   GL215134  43.003  41.590   8.855
 6525POPC   C1A15135  43.094  41.529   8.555
 6525POPC   D2A15136  43.083  41.601   8.255
 6525POPC   C3A15137  43.100  41.566   7.955
 6525POPC   C4A15138  43.079  41.591   7.655
 6525POPC   C1B15139  42.857  41.629   8.555
 6525POPC   C2B15140  42.885  41.562   8.255
 6525POPC   C3B15141  42.843  41.619   7.955
 6525POPC   C4B15142  42.868  41.612   7.655
 6526POPC   NC315143  19.855   9.020   9.455
 6526POPC   PO415144  19.824   8.948   9.155
 6526POPC   GL115145  19.838   8.941   8.855
 6526POPC   GL215146  19.703   9.002   8.855
 6526POPC   C1A15147  19.864   8.935   8.555
 6526POPC   D2A15148  19.836   8.997   8.255
 6526POPC   C3A15149  19.871   8.979   7.955
 6526POPC   C4A15150  19.813   9.019   7.655
 6526POPC   C1B15151  19.615   9.057   8.555
 6526POPC   C2B15152  19.574   9.097   8.255
 6526POPC   C3B15153  19.638   9.098   7.955
 6526POPC   C4B15154  19.605   9.081   7.655
 6527POPC   NC315155  12.817  38.475   9.455
 6527POPC   PO415156  12.817  38.492   9.155
 6527POPC   GL115157  12.832  38.488   8.855
 6527POPC   GL215158  12.917  38.560   8.855
 6527POPC   C1A15159  12.858  38.489   8.555
 6527POPC   D2A15160  12.897  38.418   8.255
 6527POPC   C3A15161  12.872  38.465   7.955
 6527POPC   C4A15162  12.833  38.427   7.655
 6527POPC   C1B15163  12.968  38.648   8.555
 6527POPC   C2B15164  12.908  38.680   8.255
 6527POPC   C3B15165  12.955  38.663   7.955
 6527POPC   C4B15166  12.947  38.643   7.655
 6528POPC   NC315167   5.136  36.170   9.455
 6528POPC   PO415168   5.126  36.112   9.155
 6528POPC   GL115169   5.122  36.080   8.855
 6528POPC   GL215170   4.951  36.174   8.855
 6528POPC   C1A15171   5.099  36.152   8.555
 6528POPC   D2A15172   5.099  36.149   8.255
 6528POPC   C3A15173   5.045  36.157   7.955
 6528POPC   C4A15174   5.052  36.100   7.655
 6528POPC   C1B15175   4.901  36.240   8.555
 6528POPC   C2B15176   4.888  36.241   8.255
 6528POPC   C3B15177   4.860  36.261   7.955
 6528POPC   C4B15178   4.861  36.324   7.655
 6529POPC   NC315179  43.090   9.761   9.455
 6529POPC   PO415180  43.127   9.737   9.155
 6529POPC   GL115181  43.084   9.734   8.855
 6529POPC   GL215182  43.171   9.614   8.855
 6529POPC   C1A15183  43.073   9.732   8.555
 6529POPC   D2A15184  43.145   9.703   8.255
 6529POPC   C3A15185  43.127   9.781   7.955
 6529POPC   C4A15186  43.091   9.765   7.655
 6529POPC   C1B15187  43.187   9.580   8.555
 6529POPC   C2B15188  43.211   9.507   8.255
 6529POPC   C3B15189  43.258   9.556   7.955
 6529POPC   C4B15190  43.251   9.538   7.655
 6530POPC   NC315191  21.405  21.355   9.455
 6530POPC   PO415192  21.395  21.363   9.155
 6530POPC   GL115193  21.412  21.399   8.855
 6530POPC   GL215194  21.465  21.295   8.855
 6530POPC   C1A15195  21.380  21.378   8.555
 6530POPC   D2A15196  21.375  21.388   8.255
 6530POPC   C3A15197  21.406  21.389   7.955
 6530POPC   C4A15198  21.392  21.371   7.655
 6530POPC   C1B15199  21.598  21.192   8.555
 6530POPC   C2B15200  21.563  21.250   8.255
 6530POPC   C3B15201  21.582  21.249   7.955
 6530POPC   C4B15202  21.535  21.191   7.655
 6531POPC   NC315203  34.535  39.238   9.455
 6531POPC   PO415204  34.547  39.238   9.155
 6531POPC   GL115205  34.555  39.265   8.855
 6531POPC   GL215206  34.532  39.139   8.855
 6531POPC   C1A15207  34.570  39.188   8.555
 6531POPC   D2A15208  34.574  39.189   8.255
 6531POPC   C3A15209  34.575  39.262   7.955
 6531POPC   C4A15210  34.576  39.246   7.655
 6531POPC   C1B15211  34.371  39.078   8.555
 6531POPC   C2B15212  34.354  39.037   8.255
 6531POPC   C3B15213  34.409  39.089   7.955
 6531POPC   C4B15214  34.435  39.019   7.655
 6532POPC   NC315215   1.263  33.041   9.455
 6532POPC   PO415216   1.202  33.058   9.155
 6532POPC   GL115217   1.177  33.023   8.855
 6532POPC   GL215218   1.301  33.117   8.855
 6532POPC   C1A15219   1.195  33.040   8.555
 6532POPC   D2A15220   1.167  32.996   8.255
 6532POPC   C3A15221   1.199  33.047   7.955
 6532POPC   C4A15222   1.217  32.989   7.655
 6532POPC   C1B15223   1.442  33.191   8.555
 6532POPC   C2B15224   1.417  33.238   8.255
 6532POPC   C3B15225   1.378  33.165   7.955
 6532POPC   C4B15226   1.363  33.181   7.655
 6533POPC   NC315227   1.232  27.576   9.455
 6533POPC   PO415228   1.221  27.556   9.155
 6533POPC   GL115229   1.220  27.611   8.855
 6533POPC   GL215230   1.048  27.635   8.855
 6533POPC   C1A15231   1.214  27.576   8.555
 6533POPC   D2A15232   1.224  27.558   8.255
 6533POPC   C3A15233   1.254  27.586   7.955
 6533POPC   C4A15234   1.231  27.635   7.655
 6533POPC   C1B15235   0.954  27.651   8.555
 6533POPC   C2B15236   0.976  27.686   8.255
 6533POPC   C3B15237   0.946  27.645   7.955
 6533POPC   C4B15238   1.002  27.612   7.655
 6534POPC   NC315239  37.715  17.516   9.455
 6534POPC   PO415240  37.645  17.462   9.155
 6534POPC   GL115241  37.704  17.555   8.855
 6534POPC   GL215242  37.636  17.407   8.855
 6534POPC   C1A15243  37.704  17.555   8.555
 6534POPC   D2A15244  37.656  17.555   8.255
 6534POPC   C3A15245  37.713  17.543   7.955
 6534POPC   C4A15246  37.656  17.469   7.655
 6534POPC   C1B15247  37.650  17.217   8.555
 6534POPC   C2B15248  37.597  17.293   8.255
 6534POPC   C3B15249  37.665  17.220   7.955
 6534POPC   C4B15250  37.662  17.216   7.655
 6535POPC   NC315251  12.087  43.874   9.455
 6535POPC   PO415252  12.081  43.896   9.155
 6535POPC   GL115253  12.046  43.914   8.855
 6535POPC   GL215254  12.044  43.991   8.855
 6535POPC   C1A15255  12.101  43.913   8.555
 6535POPC   D2A15256  12.050  43.862   8.255
 6535POPC   C3A15257  12.082  43.874   7.955
 6535POPC   C4A15258  12.124  43.848   7.655
 6535POPC   C1B15259  11.922  44.058   8.555
 6535POPC   C2B15260  11.995  44.063   8.255
 6535POPC   C3B15261  11.946  44.122   7.955
 6535POPC   C4B15262  11.976  44.100   7.655
 6536POPC   NC315263  31.513  23.669   9.455
 6536POPC   PO415264  31.509  23.704   9.155
 6536POPC   GL115265  31.500  23.686   8.855
 6536POPC   GL215266  31.395  23.634   8.855
 6536POPC   C1A15267  31.484  23.707   8.555
 6536POPC   D2A15268  31.459  23.686   8.255
 6536POPC   C3A15269  31.500  23.707   7.955
 6536POPC   C4A15270  31.483  23.685   7.655
 6536POPC   C1B15271  31.245  23.594   8.555
 6536POPC   C2B15272  31.306  23.551   8.255
 6536POPC   C3B15273  31.241  23.545   7.955
 6536POPC   C4B15274  31.236  23.601   7.655
 6537POPC   NC315275  23.754  21.351   9.455
 6537POPC   PO415276  23.747  21.420   9.155
 6537POPC   GL115277  23.708  21.383   8.855
 6537POPC   GL215278  23.713  21.225   8.855
 6537POPC   C1A15279  23.703  21.426   8.555
 6537POPC   D2A15280  23.731  21.342   8.255
 6537POPC   C3A15281  23.752  21.382   7.955
 6537POPC   C4A15282  23.734  21.415   7.655
 6537POPC   C1B15283  23.793  21.112   8.555
 6537POPC   C2B15284  23.762  21.190   8.255
 6537POPC   C3B15285  23.832  21.160   7.955
 6537POPC   C4B15286  23.783  21.108   7.655
 6538POPC   NC315287  36.100  29.922   9.455
 6538POPC   PO415288  36.138  29.960   9.155
 6538POPC   GL115289  36.156  29.910   8.855
 6538POPC   GL215290  36.096  29.828   8.855
 6538POPC   C1A15291  36.128  29.874   8.555
 6538POPC   D2A15292  36.099  29.907   8.255
 6538POPC   C3A15293  36.101  29.913   7.955
 6538POPC   C4A15294  36.144  29.875   7.655
 6538POPC   C1B15295  36.094  29.733   8.555
 6538POPC   C2B15296  36.029  29.651   8.255
 6538POPC   C3B15297  36.019  29.709   7.955
 6538POPC   C4B15298  36.093  29.671   7.655
 6539POPC   NC315299  12.083   9.740   9.455
 6539POPC   PO415300  12.088   9.795   9.155
 6539POPC   GL115301  12.048   9.742   8.855
 6539POPC   GL215302  11.998   9.667   8.855
 6539POPC   C1A15303  12.038   9.743   8.555
 6539POPC   D2A15304  12.035   9.698   8.255
 6539POPC   C3A15305  12.074   9.795   7.955
 6539POPC   C4A15306  12.116   9.722   7.655
 6539POPC   C1B15307  11.920   9.583   8.555
 6539POPC   C2B15308  11.852   9.560   8.255
 6539POPC   C3B15309  11.928   9.616   7.955
 6539POPC   C4B15310  11.920   9.636   7.655
 6540POPC   NC315311  32.202  17.476   9.455
 6540POPC   PO415312  32.260  17.537   9.155
 6540POPC   GL115313  32.232  17.517   8.855
 6540POPC   GL215314  32.355  17.558   8.855
 6540POPC   C1A15315  32.280  17.481   8.555
 6540POPC   D2A15316  32.244  17.500   8.255
 6540POPC   C3A15317  32.200  17.512   7.955
 6540POPC   C4A15318  32.204  17.547   7.655
 6540POPC   C1B15319  32.437  17.617   8.555
 6540POPC   C2B15320  32.483  17.648   8.255
 6540POPC   C3B15321  32.440  17.676   7.955
 6540POPC   C4B15322  32.450  17.683   7.655
 6541POPC   NC315323  26.850  24.470   9.455
 6541POPC   PO415324  26.797  24.527   9.155
 6541POPC   GL115325  26.838  24.453   8.855
 6541POPC   GL215326  26.769  24.387   8.855
 6541POPC   C1A15327  26.786  24.540   8.555
 6541POPC   D2A15328  26.795  24.517   8.255
 6541POPC   C3A15329  26.819  24.483   7.955
 6541POPC   C4A15330  26.857  24.511   7.655
 6541POPC   C1B15331  26.653  24.348   8.555
 6541POPC   C2B15332  26.637  24.301   8.255
 6541POPC   C3B15333  26.596  24.368   7.955
 6541POPC   C4B15334  26.578  24.305   7.655
 6542POPC   NC315335   9.008  27.591   9.455
 6542POPC   PO415336   8.985  27.568   9.155
 6542POPC   GL115337   8.999  27.560   8.855
 6542POPC   GL215338   8.881  27.517   8.855
 6542POPC   C1A15339   8.942  27.625   8.555
 6542POPC   D2A15340   8.963  27.603   8.255
 6542POPC   C3A15341   8.944  27.603   7.955
 6542POPC   C4A15342   8.938  27.614   7.655
 6542POPC   C1B15343   8.768  27.485   8.555
 6542POPC   C2B15344   8.772  27.438   8.255
 6542POPC   C3B15345   8.763  27.515   7.955
 6542POPC   C4B15346   8.713  27.498   7.655
 6543POPC   NC315347  12.073  19.874   9.455
 6543POPC   PO415348  12.097  19.867   9.155
 6543POPC   GL115349  12.094  19.843   8.855
 6543POPC   GL215350  12.049  19.759   8.855
 6543POPC   C1A15351  12.113  19.840   8.555
 6543POPC   D2A15352  12.087  19.865   8.255
 6543POPC   C3A15353  12.092  19.853   7.955
 6543POPC   C4A15354  12.076  19.802   7.655
 6543POPC   C1B15355  11.963  19.576   8.555
 6543POPC   C2B15356  11.931  19.633   8.255
 6543POPC   C3B15357  11.989  19.636   7.955
 6543POPC   C4B15358  11.928  19.598   7.655
 6544POPC   NC315359  40.830  19.091   9.455
 6544POPC   PO415360  40.819  19.104   9.155
 6544POPC   GL115361  40.809  19.054   8.855
 6544POPC   GL215362  40.718  19.167   8.855
 6544POPC   C1A15363  40.754  19.022   8.555
 6544POPC   D2A15364  40.798  19.056   8.255
 6544POPC   C3A15365  40.759  19.040   7.955
 6544POPC   C4A15366  40.761  19.009   7.655
 6544POPC   C1B15367  40.748  19.269   8.555
 6544POPC   C2B15368  40.750  19.288   8.255
 6544POPC   C3B15369  40.704  19.269   7.955
 6544POPC   C4B15370  40.714  19.252   7.655
 6545POPC   NC315371  27.590  32.241   9.455
 6545POPC   PO415372  27.623  32.274   9.155
 6545POPC   GL115373  27.625  32.238   8.855
 6545POPC   GL215374  27.479  32.182   8.855
 6545POPC   C1A15375  27.563  32.261   8.555
 6545POPC   D2A15376  27.560  32.242   8.255
 6545POPC   C3A15377  27.591  32.227   7.955
 6545POPC   C4A15378  27.553  32.246   7.655
 6545POPC   C1B15379  27.325  32.192   8.555
 6545POPC   C2B15380  27.368  32.255   8.255
 6545POPC   C3B15381  27.351  32.165   7.955
 6545POPC   C4B15382  27.334  32.192   7.655
 6546POPC   NC315383  25.262  14.357   9.455
 6546POPC   PO415384  25.313  14.371   9.155
 6546POPC   GL115385  25.314  14.439   8.855
 6546POPC   GL215386  25.409  14.327   8.855
 6546POPC   C1A15387  25.257  14.381   8.555
 6546POPC   D2A15388  25.264  14.402   8.255
 6546POPC   C3A15389  25.312  14.443   7.955
 6546POPC   C4A15390  25.238  14.413   7.655
 6546POPC   C1B15391  25.474  14.234   8.555
 6546POPC   C2B15392  25.454  14.275   8.255
 6546POPC   C3B15393  25.497  14.233   7.955
 6546POPC   C4B15394  25.441  14.271   7.655
 6547POPC   NC315395  30.736  27.599   9.455
 6547POPC   PO415396  30.657  27.583   9.155
 6547POPC   GL115397  30.702  27.621   8.855
 6547POPC   GL215398  30.856  27.534   8.855
 6547POPC   C1A15399  30.746  27.637   8.555
 6547POPC   D2A15400  30.679  27.550   8.255
 6547POPC   C3A15401  30.659  27.625   7.955
 6547POPC   C4A15402  30.696  27.618   7.655
 6547POPC   C1B15403  30.936  27.520   8.555
 6547POPC   C2B15404  30.977  27.563   8.255
 6547POPC   C3B15405  30.970  27.544   7.955
 6547POPC   C4B15406  30.957  27.568   7.655
 6548POPC   NC315407   5.100   7.462   9.455
 6548POPC   PO415408   5.047   7.437   9.155
 6548POPC   GL115409   5.083   7.393   8.855
 6548POPC   GL215410   4.959   7.408   8.855
 6548POPC   C1A15411   5.140   7.401   8.555
 6548POPC   D2A15412   5.122   7.436   8.255
 6548POPC   C3A15413   5.126   7.431   7.955
 6548POPC   C4A15414   5.128   7.389   7.655
 6548POPC   C1B15415   4.826   7.308   8.555
 6548POPC   C2B15416   4.886   7.359   8.255
 6548POPC   C3B15417   4.828   7.392   7.955
 6548POPC   C4B15418   4.866   7.385   7.655
 6549POPC   NC315419  22.986  26.789   9.455
 6549POPC   PO415420  22.942  26.798   9.155
 6549POPC   GL115421  22.950  26.789   8.855
 6549POPC   GL215422  22.917  26.736   8.855
 6549POPC   C1A15423  22.922  26.848   8.555
 6549POPC   D2A15424  22.949  26.848   8.255
 6549POPC   C3A15425  22.965  26.802   7.955
 6549POPC   C4A15426  22.964  26.833   7.655
 6549POPC   C1B15427  22.850  26.565   8.555
 6549POPC   C2B15428  22.773  26.585   8.255
 6549POPC   C3B15429  22.826  26.612   7.955
 6549POPC   C4B15430  22.825  26.586   7.655
 6550POPC   NC315431  41.566  20.578   9.455
 6550POPC   PO415432  41.606  20.658   9.155
 6550POPC   GL115433  41.540  20.562   8.855
 6550POPC   GL215434  41.672  20.664   8.855
 6550POPC   C1A15435  41.588  20.564   8.555
 6550POPC   D2A15436  41.558  20.639   8.255
 6550POPC   C3A15437  41.578  20.650   7.955
 6550POPC   C4A15438  41.552  20.646   7.655
 6550POPC   C1B15439  41.773  20.778   8.555
 6550POPC   C2B15440  41.721  20.752   8.255
 6550POPC   C3B15441  41.733  20.759   7.955
 6550POPC   C4B15442  41.804  20.772   7.655
 6551POPC   NC315443  33.057  32.276   9.455
 6551POPC   PO415444  33.015  32.229   9.155
 6551POPC   GL115445  33.028  32.267   8.855
 6551POPC   GL215446  33.055  32.332   8.855
 6551POPC   C1A15447  33.029  32.286   8.555
 6551POPC   D2A15448  33.031  32.281   8.255
 6551POPC   C3A15449  32.987  32.273   7.955
 6551POPC   C4A15450  32.991  32.211   7.655
 6551POPC   C1B15451  33.045  32.472   8.555
 6551POPC   C2B15452  33.018  32.481   8.255
 6551POPC   C3B15453  33.016  32.520   7.955
 6551POPC   C4B15454  33.024  32.457   7.655
 6552POPC   NC315455  25.300   5.897   9.455
 6552POPC   PO415456  25.286   5.868   9.155
 6552POPC   GL115457  25.256   5.906   8.855
 6552POPC   GL215458  25.186   5.853   8.855
 6552POPC   C1A15459  25.255   5.903   8.555
 6552POPC   D2A15460  25.266   5.850   8.255
 6552POPC   C3A15461  25.305   5.835   7.955
 6552POPC   C4A15462  25.216   5.866   7.655
 6552POPC   C1B15463  25.041   5.725   8.555
 6552POPC   C2B15464  25.086   5.755   8.255
 6552POPC   C3B15465  25.085   5.747   7.955
 6552POPC   C4B15466  25.010   5.775   7.655
 6553POPC   NC315467   4.350  31.475   9.455
 6553POPC   PO415468   4.321  31.490   9.155
 6553POPC   GL115469   4.316  31.504   8.855
 6553POPC   GL215470   4.387  31.543   8.855
 6553POPC   C1A15471   4.352  31.519   8.555
 6553POPC   D2A15472   4.287  31.426   8.255
 6553POPC   C3A15473   4.331  31.469   7.955
 6553POPC   C4A15474   4.344  31.474   7.655
 6553POPC   C1B15475   4.471  31.721   8.555
 6553POPC   C2B15476   4.454  31.670   8.255
 6553POPC   C3B15477   4.466  31.721   7.955
 6553POPC   C4B15478   4.488  31.629   7.655
 6554POPC   NC315479  40.040  17.538   9.455
 6554POPC   PO415480  39.962  17.470   9.155
 6554POPC   GL115481  40.028  17.534   8.855
 6554POPC   GL215482  39.888  17.408   8.855
 6554POPC   C1A15483  39.959  17.502   8.555
 6554POPC   D2A15484  40.043  17.476   8.255
 6554POPC   C3A15485  40.035  17.515   7.955
 6554POPC   C4A15486  39.978  17.506   7.655
 6554POPC   C1B15487  39.748  17.410   8.555
 6554POPC   C2B15488  39.795  17.332   8.255
 6554POPC   C3B15489  39.831  17.406   7.955
 6554POPC   C4B15490  39.826  17.352   7.655
 6555POPC   NC315491   3.510  24.511   9.455
 6555POPC   PO415492   3.500  24.521   9.155
 6555POPC   GL115493   3.537  24.505   8.855
 6555POPC   GL215494   3.562  24.619   8.855
 6555POPC   C1A15495   3.580  24.524   8.555
 6555POPC   D2A15496   3.523  24.534   8.255
 6555POPC   C3A15497   3.549  24.486   7.955
 6555POPC   C4A15498   3.496  24.474   7.655
 6555POPC   C1B15499   3.635  24.712   8.555
 6555POPC   C2B15500   3.658  24.699   8.255
 6555POPC   C3B15501   3.611  24.737   7.955
 6555POPC   C4B15502   3.596  24.691   7.655
 6556POPC   NC315503  36.934  18.313   9.455
 6556POPC   PO415504  36.946  18.244   9.155
 6556POPC   GL115505  36.877  18.332   8.855
 6556POPC   GL215506  36.797  18.182   8.855
 6556POPC   C1A15507  36.899  18.266   8.555
 6556POPC   D2A15508  36.953  18.311   8.255
 6556POPC   C3A15509  36.908  18.277   7.955
 6556POPC   C4A15510  36.915  18.244   7.655
 6556POPC   C1B15511  36.688  18.071   8.555
 6556POPC   C2B15512  36.771  18.111   8.255
 6556POPC   C3B15513  36.714  18.140   7.955
 6556POPC   C4B15514  36.693  18.137   7.655
 6557POPC   NC315515  27.557  29.967   9.455
 6557POPC   PO415516  27.641  29.940   9.155
 6557POPC   GL115517  27.629  29.889   8.855
 6557POPC   GL215518  27.505  29.881   8.855
 6557POPC   C1A15519  27.546  29.875   8.555
 6557POPC   D2A15520  27.642  29.927   8.255
 6557POPC   C3A15521  27.611  29.917   7.955
 6557POPC   C4A15522  27.595  29.872   7.655
 6557POPC   C1B15523  27.386  29.759   8.555
 6557POPC   C2B15524  27.393  29.842   8.255
 6557POPC   C3B15525  27.329  29.837   7.955
 6557POPC   C4B15526  27.415  29.852   7.655
 6558POPC   NC315527  31.457   5.048   9.455
 6558POPC   PO415528  31.431   5.055   9.155
 6558POPC   GL115529  31.435   5.097   8.855
 6558POPC   GL215530  31.398   5.007   8.855
 6558POPC   C1A15531  31.515   5.055   8.555
 6558POPC   D2A15532  31.464   5.059   8.255
 6558POPC   C3A15533  31.439   5.139   7.955
 6558POPC   C4A15534  31.459   5.109   7.655
 6558POPC   C1B15535  31.224   4.915   8.555
 6558POPC   C2B15536  31.274   4.978   8.255
 6558POPC   C3B15537  31.280   4.902   7.955
 6558POPC   C4B15538  31.229   4.916   7.655
 6559POPC   NC315539  12.088  36.878   9.455
 6559POPC   PO415540  12.092  36.864   9.155
 6559POPC   GL115541  12.052  36.881   8.855
 6559POPC   GL215542  12.172  36.872   8.855
 6559POPC   C1A15543  12.088  36.897   8.555
 6559POPC   D2A15544  12.037  36.896   8.255
 6559POPC   C3A15545  12.073  36.926   7.955
 6559POPC   C4A15546  12.081  36.925   7.655
 6559POPC   C1B15547  12.332  36.861   8.555
 6559POPC   C2B15548  12.318  36.812   8.255
 6559POPC   C3B15549  12.306  36.803   7.955
 6559POPC   C4B15550  12.335  36.840   7.655
 6560POPC   NC315551  33.791  38.421   9.455
 6560POPC   PO415552  33.773  38.491   9.155
 6560POPC   GL115553  33.827  38.496   8.855
 6560POPC   GL215554  33.913  38.551   8.855
 6560POPC   C1A15555  33.805  38.451   8.555
 6560POPC   D2A15556  33.771  38.466   8.255
 6560POPC   C3A15557  33.767  38.461   7.955
 6560POPC   C4A15558  33.765  38.433   7.655
 6560POPC   C1B15559  34.067  38.600   8.555
 6560POPC   C2B15560  33.983  38.543   8.255
 6560POPC   C3B15561  34.074  38.588   7.955
 6560POPC   C4B15562  33.984  38.514   7.655
 6561POPC   NC315563  32.240  43.121   9.455
 6561POPC   PO415564  32.280  43.093   9.155
 6561POPC   GL115565  32.203  43.126   8.855
 6561POPC   GL215566  32.135  43.218   8.855
 6561POPC   C1A15567  32.290  43.153   8.555
 6561POPC   D2A15568  32.280  43.140   8.255
 6561POPC   C3A15569  32.241  43.155   7.955
 6561POPC   C4A15570  32.198  43.066   7.655
 6561POPC   C1B15571  32.092  43.260   8.555
 6561POPC   C2B15572  32.103  43.247   8.255
 6561POPC   C3B15573  32.061  43.251   7.955
 6561POPC   C4B15574  32.096  43.247   7.655
 6562POPC   NC315575  23.747  22.201   9.455
 6562POPC   PO415576  23.706  22.136   9.155
 6562POPC   GL115577  23.690  22.113   8.855
 6562POPC   GL215578  23.558  22.100   8.855
 6562POPC   C1A15579  23.692  22.172   8.555
 6562POPC   D2A15580  23.757  22.152   8.255
 6562POPC   C3A15581  23.683  22.185   7.955
 6562POPC   C4A15582  23.737  22.123   7.655
 6562POPC   C1B15583  23.515  22.043   8.555
 6562POPC   C2B15584  23.508  22.135   8.255
 6562POPC   C3B15585  23.503  22.122   7.955
 6562POPC   C4B15586  23.508  22.042   7.655
 6563POPC   NC315587   2.745  17.551   9.455
 6563POPC   PO415588   2.797  17.492   9.155
 6563POPC   GL115589   2.749  17.524   8.855
 6563POPC   GL215590   2.852  17.655   8.855
 6563POPC   C1A15591   2.742  17.460   8.555
 6563POPC   D2A15592   2.777  17.459   8.255
 6563POPC   C3A15593   2.775  17.475   7.955
 6563POPC   C4A15594   2.734  17.457   7.655
 6563POPC   C1B15595   2.887  17.677   8.555
 6563POPC   C2B15596   2.858  17.730   8.255
 6563POPC   C3B15597   2.910  17.730   7.955
 6563POPC   C4B15598   2.936  17.766   7.655
 6564POPC   NC315599  10.523  33.025   9.455
 6564POPC   PO415600  10.541  32.979   9.155
 6564POPC   GL115601  10.497  32.997   8.855
 6564POPC   GL215602  10.427  33.028   8.855
 6564POPC   C1A15603  10.543  33.055   8.555
 6564POPC   D2A15604  10.566  33.017   8.255
 6564POPC   C3A15605  10.570  33.027   7.955
 6564POPC   C4A15606  10.566  33.072   7.655
 6564POPC   C1B15607  10.240  32.913   8.555
 6564POPC   C2B15608  10.326  32.977   8.255
 6564POPC   C3B15609  10.236  32.924   7.955
 6564POPC   C4B15610  10.243  32.973   7.655
 6565POPC   NC315611  33.797  36.132   9.455
 6565POPC   PO415612  33.763  36.085   9.155
 6565POPC   GL115613  33.765  36.126   8.855
 6565POPC   GL215614  33.771  35.960   8.855
 6565POPC   C1A15615  33.819  36.167   8.555
 6565POPC   D2A15616  33.761  36.130   8.255
 6565POPC   C3A15617  33.795  36.113   7.955
 6565POPC   C4A15618  33.793  36.132   7.655
 6565POPC   C1B15619  33.758  35.921   8.555
 6565POPC   C2B15620  33.760  35.862   8.255
 6565POPC   C3B15621  33.673  35.855   7.955
 6565POPC   C4B15622  33.675  35.917   7.655
 6566POPC   NC315623  14.400   3.578   9.455
 6566POPC   PO415624  14.381   3.540   9.155
 6566POPC   GL115625  14.419   3.548   8.855
 6566POPC   GL215626  14.511   3.498   8.855
 6566POPC   C1A15627  14.414   3.495   8.555
 6566POPC   D2A15628  14.384   3.528   8.255
 6566POPC   C3A15629  14.444   3.516   7.955
 6566POPC   C4A15630  14.423   3.571   7.655
 6566POPC   C1B15631  14.547   3.419   8.555
 6566POPC   C2B15632  14.597   3.325   8.255
 6566POPC   C3B15633  14.635   3.389   7.955
 6566POPC   C4B15634  14.588   3.381   7.655
 6567POPC   NC315635  15.165  27.626   9.455
 6567POPC   PO415636  15.144  27.597   9.155
 6567POPC   GL115637  15.183  27.570   8.855
 6567POPC   GL215638  15.253  27.559   8.855
 6567POPC   C1A15639  15.227  27.576   8.555
 6567POPC   D2A15640  15.167  27.627   8.255
 6567POPC   C3A15641  15.202  27.635   7.955
 6567POPC   C4A15642  15.222  27.594   7.655
 6567POPC   C1B15643  15.457  27.500   8.555
 6567POPC   C2B15644  15.378  27.536   8.255
 6567POPC   C3B15645  15.423  27.559   7.955
 6567POPC   C4B15646  15.387  27.488   7.655
 6568POPC   NC315647   5.841   6.650   9.455
 6568POPC   PO415648   5.868   6.681   9.155
 6568POPC   GL115649   5.898   6.666   8.855
 6568POPC   GL215650   5.931   6.724   8.855
 6568POPC   C1A15651   5.903   6.686   8.555
 6568POPC   D2A15652   5.824   6.624   8.255
 6568POPC   C3A15653   5.826   6.637   7.955
 6568POPC   C4A15654   5.902   6.655   7.655
 6568POPC   C1B15655   5.995   6.887   8.555
 6568POPC   C2B15656   5.932   6.868   8.255
 6568POPC   C3B15657   6.004   6.868   7.955
 6568POPC   C4B15658   5.966   6.857   7.655
 6569POPC   NC315659  36.907  43.929   9.455
 6569POPC   PO415660  36.885  43.897   9.155
 6569POPC   GL115661  36.931  43.906   8.855
 6569POPC   GL215662  36.760  43.832   8.855
 6569POPC   C1A15663  36.871  43.905   8.555
 6569POPC   D2A15664  36.877  43.850   8.255
 6569POPC   C3A15665  36.905  43.864   7.955
 6569POPC   C4A15666  36.930  43.872   7.655
 6569POPC   C1B15667  36.676  43.809   8.555
 6569POPC   C2B15668  36.672  43.807   8.255
 6569POPC   C3B15669  36.674  43.749   7.955
 6569POPC   C4B15670  36.660  43.762   7.655
 6570POPC   NC315671  43.160  14.387   9.455
 6570POPC   PO415672  43.083  14.453   9.155
 6570POPC   GL115673  43.136  14.405   8.855
 6570POPC   GL215674  43.090  14.539   8.855
 6570POPC   C1A15675  43.092  14.369   8.555
 6570POPC   D2A15676  43.150  14.366   8.255
 6570POPC   C3A15677  43.113  14.379   7.955
 6570POPC   C4A15678  43.155  14.430   7.655
 6570POPC   C1B15679  43.113  14.652   8.555
 6570POPC   C2B15680  43.169  14.661   8.255
 6570POPC   C3B15681  43.108  14.612   7.955
 6570POPC   C4B15682  43.115  14.678   7.655
 6571POPC   NC315683  43.100  39.995   9.455
 6571POPC   PO415684  43.114  39.992   9.155
 6571POPC   GL115685  43.149  40.017   8.855
 6571POPC   GL215686  43.007  40.054   8.855
 6571POPC   C1A15687  43.121  40.001   8.555
 6571POPC   D2A15688  43.134  40.056   8.255
 6571POPC   C3A15689  43.117  39.986   7.955
 6571POPC   C4A15690  43.108  39.993   7.655
 6571POPC   C1B15691  42.916  40.111   8.555
 6571POPC   C2B15692  42.854  40.177   8.255
 6571POPC   C3B15693  42.927  40.137   7.955
 6571POPC   C4B15694  42.941  40.138   7.655
 6572POPC   NC315695  18.328  34.551   9.455
 6572POPC   PO415696  18.261  34.549   9.155
 6572POPC   GL115697  18.268  34.528   8.855
 6572POPC   GL215698  18.380  34.615   8.855
 6572POPC   C1A15699  18.263  34.615   8.555
 6572POPC   D2A15700  18.292  34.535   8.255
 6572POPC   C3A15701  18.258  34.619   7.955
 6572POPC   C4A15702  18.292  34.597   7.655
 6572POPC   C1B15703  18.493  34.556   8.555
 6572POPC   C2B15704  18.499  34.597   8.255
 6572POPC   C3B15705  18.547  34.612   7.955
 6572POPC   C4B15706  18.580  34.630   7.655
 6573POPC   NC315707   7.410  15.196   9.455
 6573POPC   PO415708   7.388  15.176   9.155
 6573POPC   GL115709   7.456  15.160   8.855
 6573POPC   GL215710   7.535  15.204   8.855
 6573POPC   C1A15711   7.444  15.207   8.555
 6573POPC   D2A15712   7.379  15.180   8.255
 6573POPC   C3A15713   7.427  15.185   7.955
 6573POPC   C4A15714   7.452  15.215   7.655
 6573POPC   C1B15715   7.620  15.249   8.555
 6573POPC   C2B15716   7.677  15.299   8.255
 6573POPC   C3B15717   7.649  15.243   7.955
 6573POPC   C4B15718   7.614  15.265   7.655
 6574POPC   NC315719  24.488  29.901   9.455
 6574POPC   PO415720  24.506  29.896   9.155
 6574POPC   GL115721  24.528  29.931   8.855
 6574POPC   GL215722  24.517  29.828   8.855
 6574POPC   C1A15723  24.455  29.913   8.555
 6574POPC   D2A15724  24.457  29.933   8.255
 6574POPC   C3A15725  24.493  29.892   7.955
 6574POPC   C4A15726  24.504  29.933   7.655
 6574POPC   C1B15727  24.580  29.714   8.555
 6574POPC   C2B15728  24.625  29.699   8.255
 6574POPC   C3B15729  24.540  29.664   7.955
 6574POPC   C4B15730  24.611  29.666   7.655
 6575POPC   NC315731  38.415   0.424   9.455
 6575POPC   PO415732  38.473   0.420   9.155
 6575POPC   GL115733  38.436   0.443   8.855
 6575POPC   GL215734  38.534   0.508   8.855
 6575POPC   C1A15735  38.488   0.451   8.555
 6575POPC   D2A15736  38.458   0.398   8.255
 6575POPC   C3A15737  38.469   0.486   7.955
 6575POPC   C4A15738  38.414   0.484   7.655
 6575POPC   C1B15739  38.644   0.537   8.555
 6575POPC   C2B15740  38.675   0.595   8.255
 6575POPC   C3B15741  38.619   0.552   7.955
 6575POPC   C4B15742  38.630   0.559   7.655
 6576POPC   NC315743   3.552   1.235   9.455
 6576POPC   PO415744   3.517   1.252   9.155
 6576POPC   GL115745   3.589   1.174   8.855
 6576POPC   GL215746   3.619   1.262   8.855
 6576POPC   C1A15747   3.549   1.224   8.555
 6576POPC   D2A15748   3.501   1.233   8.255
 6576POPC   C3A15749   3.580   1.238   7.955
 6576POPC   C4A15750   3.573   1.217   7.655
 6576POPC   C1B15751   3.806   1.359   8.555
 6576POPC   C2B15752   3.769   1.320   8.255
 6576POPC   C3B15753   3.803   1.361   7.955
 6576POPC   C4B15754   3.742   1.361   7.655
 6577POPC   NC315755  19.852  37.727   9.455
 6577POPC   PO415756  19.884  37.634   9.155
 6577POPC   GL115757  19.817  37.674   8.855
 6577POPC   GL215758  19.945  37.728   8.855
 6577POPC   C1A15759  19.865  37.691   8.555
 6577POPC   D2A15760  19.847  37.652   8.255
 6577POPC   C3A15761  19.847  37.717   7.955
 6577POPC   C4A15762  19.796  37.653   7.655
 6577POPC   C1B15763  20.081  37.765   8.555
 6577POPC   C2B15764  20.122  37.714   8.255
 6577POPC   C3B15765  20.076  37.754   7.955
 6577POPC   C4B15766  20.062  37.801   7.655
 6578POPC   NC315767   6.665  38.467   9.455
 6578POPC   PO415768   6.595  38.456   9.155
 6578POPC   GL115769   6.615  38.470   8.855
 6578POPC   GL215770   6.554  38.508   8.855
 6578POPC   C1A15771   6.687  38.464   8.555
 6578POPC   D2A15772   6.690  38.496   8.255
 6578POPC   C3A15773   6.605  38.435   7.955
 6578POPC   C4A15774   6.623  38.482   7.655
 6578POPC   C1B15775   6.378  38.495   8.555
 6578POPC   C2B15776   6.410  38.500   8.255
 6578POPC   C3B15777   6.403  38.488   7.955
 6578POPC   C4B15778   6.415  38.482   7.655
 6579POPC   NC315779  35.346   2.784   9.455
 6579POPC   PO415780  35.377   2.787   9.155
 6579POPC   GL115781  35.325   2.785   8.855
 6579POPC   GL215782  35.361   2.879   8.855
 6579POPC   C1A15783  35.388   2.764   8.555
 6579POPC   D2A15784  35.348   2.722   8.255
 6579POPC   C3A15785  35.327   2.771   7.955
 6579POPC   C4A15786  35.309   2.790   7.655
 6579POPC   C1B15787  35.419   3.001   8.555
 6579POPC   C2B15788  35.391   3.012   8.255
 6579POPC   C3B15789  35.415   3.042   7.955
 6579POPC   C4B15790  35.358   3.051   7.655
 6580POPC   NC315791  42.352  11.323   9.455
 6580POPC   PO415792  42.332  11.252   9.155
 6580POPC   GL115793  42.351  11.267   8.855
 6580POPC   GL215794  42.364  11.406   8.855
 6580POPC   C1A15795  42.368  11.284   8.555
 6580POPC   D2A15796  42.314  11.309   8.255
 6580POPC   C3A15797  42.331  11.293   7.955
 6580POPC   C4A15798  42.305  11.277   7.655
 6580POPC   C1B15799  42.302  11.547   8.555
 6580POPC   C2B15800  42.321  11.582   8.255
 6580POPC   C3B15801  42.309  11.599   7.955
 6580POPC   C4B15802  42.334  11.563   7.655
 6581POPC   NC315803  42.357  37.662   9.455
 6581POPC   PO415804  42.304  37.668   9.155
 6581POPC   GL115805  42.308  37.726   8.855
 6581POPC   GL215806  42.270  37.753   8.855
 6581POPC   C1A15807  42.334  37.728   8.555
 6581POPC   D2A15808  42.378  37.666   8.255
 6581POPC   C3A15809  42.351  37.681   7.955
 6581POPC   C4A15810  42.292  37.651   7.655
 6581POPC   C1B15811  42.150  37.851   8.555
 6581POPC   C2B15812  42.154  37.841   8.255
 6581POPC   C3B15813  42.159  37.879   7.955
 6581POPC   C4B15814  42.140  37.869   7.655
 6582POPC   NC315815  40.784  20.561   9.455
 6582POPC   PO415816  40.785  20.624   9.155
 6582POPC   GL115817  40.747  20.589   8.855
 6582POPC   GL215818  40.777  20.759   8.855
 6582POPC   C1A15819  40.791  20.620   8.555
 6582POPC   D2A15820  40.751  20.614   8.255
 6582POPC   C3A15821  40.797  20.573   7.955
 6582POPC   C4A15822  40.822  20.629   7.655
 6582POPC   C1B15823  40.650  20.863   8.555
 6582POPC   C2B15824  40.653  20.834   8.255
 6582POPC   C3B15825  40.697  20.818   7.955
 6582POPC   C4B15826  40.660  20.861   7.655
 6583POPC   NC315827  33.024  38.406   9.455
 6583POPC   PO415828  32.978  38.461   9.155
 6583POPC   GL115829  33.008  38.501   8.855
 6583POPC   GL215830  32.982  38.582   8.855
 6583POPC   C1A15831  32.992  38.435   8.555
 6583POPC   D2A15832  33.051  38.474   8.255
 6583POPC   C3A15833  33.024  38.440   7.955
 6583POPC   C4A15834  32.982  38.418   7.655
 6583POPC   C1B15835  32.981  38.682   8.555
 6583POPC   C2B15836  32.981  38.693   8.255
 6583POPC   C3B15837  32.960  38.689   7.955
 6583POPC   C4B15838  32.933  38.650   7.655
 6584POPC   NC315839  44.641  26.000   9.455
 6584POPC   PO415840  44.646  26.010   9.155
 6584POPC   GL115841  44.663  26.006   8.855
 6584POPC   GL215842  44.576  25.935   8.855
 6584POPC   C1A15843  44.645  26.015   8.555
 6584POPC   D2A15844  44.656  26.026   8.255
 6584POPC   C3A15845  44.691  26.091   7.955
 6584POPC   C4A15846  44.703  26.044   7.655
 6584POPC   C1B15847  44.491  25.937   8.555
 6584POPC   C2B15848  44.490  25.935   8.255
 6584POPC   C3B15849  44.424  25.940   7.955
 6584POPC   C4B15850  44.403  25.874   7.655
 6585POPC   NC315851  44.616  28.360   9.455
 6585POPC   PO415852  44.645  28.405   9.155
 6585POPC   GL115853  44.670  28.364   8.855
 6585POPC   GL215854  44.538  28.397   8.855
 6585POPC   C1A15855  44.650  28.350   8.555
 6585POPC   D2A15856  44.648  28.362   8.255
 6585POPC   C3A15857  44.694  28.418   7.955
 6585POPC   C4A15858  44.625  28.349   7.655
 6585POPC   C1B15859  44.383  28.422   8.555
 6585POPC   C2B15860  44.374  28.440   8.255
 6585POPC   C3B15861  44.391  28.423   7.955
 6585POPC   C4B15862  44.408  28.442   7.655
 6586POPC   NC315863  40.823  32.262   9.455
 6586POPC   PO415864  40.831  32.232   9.155
 6586POPC   GL115865  40.764  32.221   8.855
 6586POPC   GL215866  40.757  32.128   8.855
 6586POPC   C1A15867  40.803  32.217   8.555
 6586POPC   D2A15868  40.782  32.221   8.255
 6586POPC   C3A15869  40.828  32.251   7.955
 6586POPC   C4A15870  40.797  32.218   7.655
 6586POPC   C1B15871  40.840  31.990   8.555
 6586POPC   C2B15872  40.795  32.017   8.255
 6586POPC   C3B15873  40.827  31.954   7.955
 6586POPC   C4B15874  40.802  32.048   7.655
 6587POPC   NC315875  43.854  26.015   9.455
 6587POPC   PO415876  43.913  26.009   9.155
 6587POPC   GL115877  43.857  26.063   8.855
 6587POPC   GL215878  43.822  26.139   8.855
 6587POPC   C1A15879  43.882  26.070   8.555
 6587POPC   D2A15880  43.840  26.088   8.255
 6587POPC   C3A15881  43.845  26.023   7.955
 6587POPC   C4A15882  43.919  26.073   7.655
 6587POPC   C1B15883  43.704  26.188   8.555
 6587POPC   C2B15884  43.724  26.187   8.255
 6587POPC   C3B15885  43.718  26.249   7.955
 6587POPC   C4B15886  43.718  26.192   7.655
 6588POPC   NC315887  43.913  22.117   9.455
 6588POPC   PO415888  43.928  22.147   9.155
 6588POPC   GL115889  43.891  22.135   8.855
 6588POPC   GL215890  43.936  22.223   8.855
 6588POPC   C1A15891  43.912  22.127   8.555
 6588POPC   D2A15892  43.906  22.204   8.255
 6588POPC   C3A15893  43.867  22.145   7.955
 6588POPC   C4A15894  43.893  22.202   7.655
 6588POPC   C1B15895  44.004  22.413   8.555
 6588POPC   C2B15896  44.024  22.378   8.255
 6588POPC   C3B15897  44.070  22.340   7.955
 6588POPC   C4B15898  44.076  22.394   7.655
 6589POPC   NC315899  32.263  10.552   9.455
 6589POPC   PO415900  32.261  10.569   9.155
 6589POPC   GL115901  32.204  10.554   8.855
 6589POPC   GL215902  32.289  10.364   8.855
 6589POPC   C1A15903  32.272  10.506   8.555
 6589POPC   D2A15904  32.277  10.560   8.255
 6589POPC   C3A15905  32.255  10.542   7.955
 6589POPC   C4A15906  32.289  10.485   7.655
 6589POPC   C1B15907  32.298  10.288   8.555
 6589POPC   C2B15908  32.294  10.283   8.255
 6589POPC   C3B15909  32.359  10.304   7.955
 6589POPC   C4B15910  32.345  10.254   7.655
 6590POPC   NC315911  26.046  34.552   9.455
 6590POPC   PO415912  26.043  34.547   9.155
 6590POPC   GL115913  26.036  34.548   8.855
 6590POPC   GL215914  25.931  34.612   8.855
 6590POPC   C1A15915  26.017  34.551   8.555
 6590POPC   D2A15916  26.048  34.614   8.255
 6590POPC   C3A15917  26.042  34.549   7.955
 6590POPC   C4A15918  26.072  34.594   7.655
 6590POPC   C1B15919  25.810  34.548   8.555
 6590POPC   C2B15920  25.795  34.592   8.255
 6590POPC   C3B15921  25.745  34.603   7.955
 6590POPC   C4B15922  25.779  34.547   7.655
 6591POPC   NC315923   2.781   9.786   9.455
 6591POPC   PO415924   2.793   9.786   9.155
 6591POPC   GL115925   2.773   9.781   8.855
 6591POPC   GL215926   2.799   9.693   8.855
 6591POPC   C1A15927   2.744   9.722   8.555
 6591POPC   D2A15928   2.799   9.730   8.255
 6591POPC   C3A15929   2.775   9.731   7.955
 6591POPC   C4A15930   2.739   9.704   7.655
 6591POPC   C1B15931   2.894   9.511   8.555
 6591POPC   C2B15932   2.873   9.499   8.255
 6591POPC   C3B15933   2.937   9.544   7.955
 6591POPC   C4B15934   2.949   9.544   7.655
 6592POPC   NC315935  26.820   8.941   9.455
 6592POPC   PO415936  26.851   8.943   9.155
 6592POPC   GL115937  26.799   8.975   8.855
 6592POPC   GL215938  26.894   8.880   8.855
 6592POPC   C1A15939  26.801   8.948   8.555
 6592POPC   D2A15940  26.814   8.927   8.255
 6592POPC   C3A15941  26.834   8.931   7.955
 6592POPC   C4A15942  26.859   9.009   7.655
 6592POPC   C1B15943  27.011   8.803   8.555
 6592POPC   C2B15944  26.932   8.782   8.255
 6592POPC   C3B15945  27.002   8.758   7.955
 6592POPC   C4B15946  26.996   8.798   7.655
 6593POPC   NC315947  30.676  22.907   9.455
 6593POPC   PO415948  30.703  22.941   9.155
 6593POPC   GL115949  30.739  22.941   8.855
 6593POPC   GL215950  30.772  22.858   8.855
 6593POPC   C1A15951  30.714  22.949   8.555
 6593POPC   D2A15952  30.693  22.983   8.255
 6593POPC   C3A15953  30.711  22.959   7.955
 6593POPC   C4A15954  30.716  22.925   7.655
 6593POPC   C1B15955  30.753  22.712   8.555
 6593POPC   C2B15956  30.734  22.690   8.255
 6593POPC   C3B15957  30.783  22.668   7.955
 6593POPC   C4B15958  30.795  22.694   7.655
 6594POPC   NC315959  10.519   6.683   9.455
 6594POPC   PO415960  10.572   6.671   9.155
 6594POPC   GL115961  10.520   6.620   8.855
 6594POPC   GL215962  10.430   6.754   8.855
 6594POPC   C1A15963  10.482   6.672   8.555
 6594POPC   D2A15964  10.476   6.596   8.255
 6594POPC   C3A15965  10.553   6.627   7.955
 6594POPC   C4A15966  10.527   6.651   7.655
 6594POPC   C1B15967  10.361   6.815   8.555
 6594POPC   C2B15968  10.363   6.774   8.255
 6594POPC   C3B15969  10.353   6.812   7.955
 6594POPC   C4B15970  10.362   6.847   7.655
 6595POPC   NC315971  24.453  33.842   9.455
 6595POPC   PO415972  24.530  33.774   9.155
 6595POPC   GL115973  24.508  33.753   8.855
 6595POPC   GL215974  24.361  33.794   8.855
 6595POPC   C1A15975  24.463  33.762   8.555
 6595POPC   D2A15976  24.447  33.838   8.255
 6595POPC   C3A15977  24.487  33.768   7.955
 6595POPC   C4A15978  24.482  33.781   7.655
 6595POPC   C1B15979  24.277  33.710   8.555
 6595POPC   C2B15980  24.245  33.711   8.255
 6595POPC   C3B15981  24.242  33.709   7.955
 6595POPC   C4B15982  24.267  33.687   7.655
 6596POPC   NC315983   7.453  26.076   9.455
 6596POPC   PO415984   7.429  26.001   9.155
 6596POPC   GL115985   7.376  26.062   8.855
 6596POPC   GL215986   7.497  26.027   8.855
 6596POPC   C1A15987   7.453  26.055   8.555
 6596POPC   D2A15988   7.375  26.045   8.255
 6596POPC   C3A15989   7.423  26.016   7.955
 6596POPC   C4A15990   7.464  26.043   7.655
 6596POPC   C1B15991   7.630  26.006   8.555
 6596POPC   C2B15992   7.653  25.983   8.255
 6596POPC   C3B15993   7.660  26.010   7.955
 6596POPC   C4B15994   7.644  26.030   7.655
 6597POPC   NC315995  13.659   0.424   9.455
 6597POPC   PO415996  13.636   0.427   9.155
 6597POPC   GL115997  13.587   0.404   8.855
 6597POPC   GL215998  13.786   0.500   8.855
 6597POPC   C1A15999  13.669   0.481   8.555
 6597POPC   D2A16000  13.613   0.458   8.255
 6597POPC   C3A16001  13.653   0.469   7.955
 6597POPC   C4A16002  13.635   0.435   7.655
 6597POPC   C1B16003  13.850   0.455   8.555
 6597POPC   C2B16004  13.886   0.502   8.255
 6597POPC   C3B16005  13.833   0.459   7.955
 6597POPC   C4B16006  13.830   0.517   7.655
 6598POPC   NC316007  35.398  39.988   9.455
 6598POPC   PO416008  35.320  40.052   9.155
 6598POPC   GL116009  35.381  39.989   8.855
 6598POPC   GL216010  35.219  40.038   8.855
 6598POPC   C1A16011  35.398  39.962   8.555
 6598POPC   D2A16012  35.380  39.959   8.255
 6598POPC   C3A16013  35.310  40.029   7.955
 6598POPC   C4A16014  35.370  40.045   7.655
 6598POPC   C1B16015  35.171  40.179   8.555
 6598POPC   C2B16016  35.105  40.179   8.255
 6598POPC   C3B16017  35.141  40.154   7.955
 6598POPC   C4B16018  35.102  40.162   7.655
 6599POPC   NC316019  26.029  12.833   9.455
 6599POPC   PO416020  26.075  12.814   9.155
 6599POPC   GL116021  26.081  12.871   8.855
 6599POPC   GL216022  26.108  12.710   8.855
 6599POPC   C1A16023  26.000  12.894   8.555
 6599POPC   D2A16024  26.079  12.844   8.255
 6599POPC   C3A16025  26.028  12.846   7.955
 6599POPC   C4A16026  26.034  12.827   7.655
 6599POPC   C1B16027  26.103  12.616   8.555
 6599POPC   C2B16028  26.111  12.656   8.255
 6599POPC   C3B16029  26.164  12.645   7.955
 6599POPC   C4B16030  26.153  12.661   7.655
 6600POPC   NC316031  25.295  22.901   9.455
 6600POPC   PO416032  25.240  22.934   9.155
 6600POPC   GL116033  25.290  22.971   8.855
 6600POPC   GL216034  25.355  23.005   8.855
 6600POPC   C1A16035  25.257  22.938   8.555
 6600POPC   D2A16036  25.256  22.916   8.255
 6600POPC   C3A16037  25.311  22.987   7.955
 6600POPC   C4A16038  25.296  22.933   7.655
 6600POPC   C1B16039  25.487  23.099   8.555
 6600POPC   C2B16040  25.404  23.102   8.255
 6600POPC   C3B16041  25.456  23.129   7.955
 6600POPC   C4B16042  25.441  23.129   7.655
 6601POPC   NC316043  39.207  22.937   9.455
 6601POPC   PO416044  39.272  22.937   9.155
 6601POPC   GL116045  39.209  22.964   8.855
 6601POPC   GL216046  39.132  23.028   8.855
 6601POPC   C1A16047  39.276  22.889   8.555
 6601POPC   D2A16048  39.205  22.937   8.255
 6601POPC   C3A16049  39.221  22.970   7.955
 6601POPC   C4A16050  39.261  22.911   7.655
 6601POPC   C1B16051  39.075  23.158   8.555
 6601POPC   C2B16052  39.056  23.182   8.255
 6601POPC   C3B16053  39.067  23.198   7.955
 6601POPC   C4B16054  39.145  23.107   7.655
 6602POPC   NC316055  25.246  11.326   9.455
 6602POPC   PO416056  25.304  11.323   9.155
 6602POPC   GL116057  25.294  11.285   8.855
 6602POPC   GL216058  25.215  11.229   8.855
 6602POPC   C1A16059  25.281  11.251   8.555
 6602POPC   D2A16060  25.242  11.332   8.255
 6602POPC   C3A16061  25.294  11.283   7.955
 6602POPC   C4A16062  25.248  11.321   7.655
 6602POPC   C1B16063  25.194  11.055   8.555
 6602POPC   C2B16064  25.146  11.069   8.255
 6602POPC   C3B16065  25.136  11.119   7.955
 6602POPC   C4B16066  25.135  11.124   7.655
 6603POPC   NC316067  39.187  16.696   9.455
 6603POPC   PO416068  39.211  16.687   9.155
 6603POPC   GL116069  39.263  16.731   8.855
 6603POPC   GL216070  39.197  16.625   8.855
 6603POPC   C1A16071  39.271  16.710   8.555
 6603POPC   D2A16072  39.193  16.721   8.255
 6603POPC   C3A16073  39.220  16.693   7.955
 6603POPC   C4A16074  39.231  16.719   7.655
 6603POPC   C1B16075  39.085  16.485   8.555
 6603POPC   C2B16076  39.119  16.489   8.255
 6603POPC   C3B16077  39.066  16.515   7.955
 6603POPC   C4B16078  39.121  16.543   7.655
 6604POPC   NC316079   5.079  14.369   9.455
 6604POPC   PO416080   5.133  14.429   9.155
 6604POPC   GL116081   5.090  14.432   8.855
 6604POPC   GL216082   5.134  14.450   8.855
 6604POPC   C1A16083   5.142  14.452   8.555
 6604POPC   D2A16084   5.097  14.445   8.255
 6604POPC   C3A16085   5.059  14.410   7.955
 6604POPC   C4A16086   5.081  14.415   7.655
 6604POPC   C1B16087   5.281  14.583   8.555
 6604POPC   C2B16088   5.246  14.633   8.255
 6604POPC   C3B16089   5.228  14.608   7.955
 6604POPC   C4B16090   5.262  14.605   7.655
 6605POPC   NC316091  39.232  15.945   9.455
 6605POPC   PO416092  39.222  15.920   9.155
 6605POPC   GL116093  39.245  15.908   8.855
 6605POPC   GL216094  39.290  16.106   8.855
 6605POPC   C1A16095  39.235  15.975   8.555
 6605POPC   D2A16096  39.216  15.931   8.255
 6605POPC   C3A16097  39.201  15.995   7.955
 6605POPC   C4A16098  39.216  15.911   7.655
 6605POPC   C1B16099  39.257  16.194   8.555
 6605POPC   C2B16100  39.269  16.228   8.255
 6605POPC   C3B16101  39.275  16.235   7.955
 6605POPC   C4B16102  39.258  16.171   7.655
 6606POPC   NC316103  43.844  14.418   9.455
 6606POPC   PO416104  43.919  14.386   9.155
 6606POPC   GL116105  43.910  14.409   8.855
 6606POPC   GL216106  44.011  14.359   8.855
 6606POPC   C1A16107  43.915  14.375   8.555
 6606POPC   D2A16108  43.916  14.386   8.255
 6606POPC   C3A16109  43.869  14.444   7.955
 6606POPC   C4A16110  43.921  14.433   7.655
 6606POPC   C1B16111  44.113  14.203   8.555
 6606POPC   C2B16112  44.068  14.242   8.255
 6606POPC   C3B16113  44.073  14.199   7.955
 6606POPC   C4B16114  44.104  14.207   7.655
 6607POPC   NC316115  21.376  37.643   9.455
 6607POPC   PO416116  21.376  37.717   9.155
 6607POPC   GL116117  21.430  37.663   8.855
 6607POPC   GL216118  21.464  37.665   8.855
 6607POPC   C1A16119  21.392  37.670   8.555
 6607POPC   D2A16120  21.407  37.632   8.255
 6607POPC   C3A16121  21.340  37.687   7.955
 6607POPC   C4A16122  21.395  37.704   7.655
 6607POPC   C1B16123  21.636  37.627   8.555
 6607POPC   C2B16124  21.629  37.674   8.255
 6607POPC   C3B16125  21.607  37.673   7.955
 6607POPC   C4B16126  21.599  37.635   7.655
 6608POPC   NC316127   4.296  24.455   9.455
 6608POPC   PO416128   4.316  24.535   9.155
 6608POPC   GL116129   4.315  24.506   8.855
 6608POPC   GL216130   4.281  24.615   8.855
 6608POPC   C1A16131   4.270  24.451   8.555
 6608POPC   D2A16132   4.294  24.444   8.255
 6608POPC   C3A16133   4.331  24.505   7.955
 6608POPC   C4A16134   4.330  24.458   7.655
 6608POPC   C1B16135   4.213  24.727   8.555
 6608POPC   C2B16136   4.190  24.760   8.255
 6608POPC   C3B16137   4.202  24.676   7.955
 6608POPC   C4B16138   4.265  24.760   7.655
 6609POPC   NC316139  30.690  16.000   9.455
 6609POPC   PO416140  30.671  15.963   9.155
 6609POPC   GL116141  30.725  15.916   8.855
 6609POPC   GL216142  30.744  16.060   8.855
 6609POPC   C1A16143  30.745  15.922   8.555
 6609POPC   D2A16144  30.745  15.941   8.255
 6609POPC   C3A16145  30.675  15.987   7.955
 6609POPC   C4A16146  30.673  16.000   7.655
 6609POPC   C1B16147  30.872  16.169   8.555
 6609POPC   C2B16148  30.871  16.133   8.255
 6609POPC   C3B16149  30.877  16.097   7.955
 6609POPC   C4B16150  30.835  16.100   7.655
 6610POPC   NC316151  42.313  23.738   9.455
 6610POPC   PO416152  42.376  23.680   9.155
 6610POPC   GL116153  42.297  23.676   8.855
 6610POPC   GL216154  42.449  23.730   8.855
 6610POPC   C1A16155  42.331  23.726   8.555
 6610POPC   D2A16156  42.372  23.730   8.255
 6610POPC   C3A16157  42.296  23.680   7.955
 6610POPC   C4A16158  42.381  23.705   7.655
 6610POPC   C1B16159  42.537  23.807   8.555
 6610POPC   C2B16160  42.591  23.855   8.255
 6610POPC   C3B16161  42.606  23.871   7.955
 6610POPC   C4B16162  42.514  23.774   7.655
 6611POPC   NC316163  43.149  35.333   9.455
 6611POPC   PO416164  43.154  35.316   9.155
 6611POPC   GL116165  43.125  35.359   8.855
 6611POPC   GL216166  43.016  35.344   8.855
 6611POPC   C1A16167  43.118  35.316   8.555
 6611POPC   D2A16168  43.110  35.367   8.255
 6611POPC   C3A16169  43.153  35.314   7.955
 6611POPC   C4A16170  43.150  35.330   7.655
 6611POPC   C1B16171  42.892  35.359   8.555
 6611POPC   C2B16172  42.864  35.284   8.255
 6611POPC   C3B16173  42.893  35.318   7.955
 6611POPC   C4B16174  42.817  35.316   7.655
 6612POPC   NC316175  10.536   5.084   9.455
 6612POPC   PO416176  10.475   5.055   9.155
 6612POPC   GL116177  10.497   5.047   8.855
 6612POPC   GL216178  10.622   5.171   8.855
 6612POPC   C1A16179  10.487   5.078   8.555
 6612POPC   D2A16180  10.516   5.058   8.255
 6612POPC   C3A16181  10.566   5.090   7.955
 6612POPC   C4A16182  10.479   5.090   7.655
 6612POPC   C1B16183  10.589   5.365   8.555
 6612POPC   C2B16184  10.673   5.370   8.255
 6612POPC   C3B16185  10.586   5.369   7.955
 6612POPC   C4B16186  10.639   5.338   7.655
 6613POPC   NC316187  41.529  13.655   9.455
 6613POPC   PO416188  41.594  13.582   9.155
 6613POPC   GL116189  41.563  13.604   8.855
 6613POPC   GL216190  41.390  13.665   8.855
 6613POPC   C1A16191  41.533  13.671   8.555
 6613POPC   D2A16192  41.565  13.620   8.255
 6613POPC   C3A16193  41.552  13.586   7.955
 6613POPC   C4A16194  41.608  13.578   7.655
 6613POPC   C1B16195  41.295  13.612   8.555
 6613POPC   C2B16196  41.339  13.559   8.255
 6613POPC   C3B16197  41.347  13.576   7.955
 6613POPC   C4B16198  41.356  13.588   7.655
 6614POPC   NC316199  33.843  28.364   9.455
 6614POPC   PO416200  33.769  28.352   9.155
 6614POPC   GL116201  33.820  28.399   8.855
 6614POPC   GL216202  33.724  28.301   8.855
 6614POPC   C1A16203  33.772  28.383   8.555
 6614POPC   D2A16204  33.768  28.399   8.255
 6614POPC   C3A16205  33.845  28.414   7.955
 6614POPC   C4A16206  33.812  28.400   7.655
 6614POPC   C1B16207  33.692  28.104   8.555
 6614POPC   C2B16208  33.736  28.092   8.255
 6614POPC   C3B16209  33.726  28.091   7.955
 6614POPC   C4B16210  33.733  28.137   7.655
 6615POPC   NC316211  21.351  16.740   9.455
 6615POPC   PO416212  21.378  16.735   9.155
 6615POPC   GL116213  21.362  16.700   8.855
 6615POPC   GL216214  21.530  16.773   8.855
 6615POPC   C1A16215  21.388  16.708   8.555
 6615POPC   D2A16216  21.416  16.744   8.255
 6615POPC   C3A16217  21.404  16.707   7.955
 6615POPC   C4A16218  21.338  16.764   7.655
 6615POPC   C1B16219  21.538  16.904   8.555
 6615POPC   C2B16220  21.554  16.882   8.255
 6615POPC   C3B16221  21.565  16.867   7.955
 6615POPC   C4B16222  21.628  16.914   7.655
 6616POPC   NC316223   1.169  37.720   9.455
 6616POPC   PO416224   1.198  37.717   9.155
 6616POPC   GL116225   1.261  37.638   8.855
 6616POPC   GL216226   1.365  37.575   8.855
 6616POPC   C1A16227   1.254  37.662   8.555
 6616POPC   D2A16228   1.168  37.639   8.255
 6616POPC   C3A16229   1.247  37.699   7.955
 6616POPC   C4A16230   1.181  37.644   7.655
 6616POPC   C1B16231   1.434  37.596   8.555
 6616POPC   C2B16232   1.435  37.571   8.255
 6616POPC   C3B16233   1.476  37.522   7.955
 6616POPC   C4B16234   1.472  37.536   7.655
 6617POPC   NC316235  44.623  23.758   9.455
 6617POPC   PO416236  44.643  23.667   9.155
 6617POPC   GL116237  44.663  23.703   8.855
 6617POPC   GL216238  44.583  23.712   8.855
 6617POPC   C1A16239  44.664  23.702   8.555
 6617POPC   D2A16240  44.660  23.753   8.255
 6617POPC   C3A16241  44.689  23.752   7.955
 6617POPC   C4A16242  44.663  23.706   7.655
 6617POPC   C1B16243  44.381  23.725   8.555
 6617POPC   C2B16244  44.427  23.705   8.255
 6617POPC   C3B16245  44.389  23.695   7.955
 6617POPC   C4B16246  44.420  23.719   7.655
 6618POPC   NC316247  30.666  20.622   9.455
 6618POPC   PO416248  30.730  20.648   9.155
 6618POPC   GL116249  30.652  20.638   8.855
 6618POPC   GL216250  30.600  20.674   8.855
 6618POPC   C1A16251  30.666  20.597   8.555
 6618POPC   D2A16252  30.698  20.603   8.255
 6618POPC   C3A16253  30.719  20.607   7.955
 6618POPC   C4A16254  30.662  20.659   7.655
 6618POPC   C1B16255  30.493  20.760   8.555
 6618POPC   C2B16256  30.502  20.822   8.255
 6618POPC   C3B16257  30.515  20.744   7.955
 6618POPC   C4B16258  30.480  20.752   7.655
 6619POPC   NC316259  25.307   4.350   9.455
 6619POPC   PO416260  25.233   4.305   9.155
 6619POPC   GL116261  25.269   4.357   8.855
 6619POPC   GL216262  25.345   4.321   8.855
 6619POPC   C1A16263  25.246   4.322   8.555
 6619POPC   D2A16264  25.288   4.329   8.255
 6619POPC   C3A16265  25.217   4.309   7.955
 6619POPC   C4A16266  25.283   4.314   7.655
 6619POPC   C1B16267  25.500   4.350   8.555
 6619POPC   C2B16268  25.526   4.310   8.255
 6619POPC   C3B16269  25.495   4.315   7.955
 6619POPC   C4B16270  25.486   4.360   7.655
 6620POPC   NC316271   1.969   5.901   9.455
 6620POPC   PO416272   1.998   5.894   9.155
 6620POPC   GL116273   2.002   5.832   8.855
 6620POPC   GL216274   2.098   5.908   8.855
 6620POPC   C1A16275   1.998   5.839   8.555
 6620POPC   D2A16276   2.010   5.829   8.255
 6620POPC   C3A16277   2.008   5.850   7.955
 6620POPC   C4A16278   1.964   5.846   7.655
 6620POPC   C1B16279   2.268   5.872   8.555
 6620POPC   C2B16280   2.189   5.951   8.255
 6620POPC   C3B16281   2.228   5.905   7.955
 6620POPC   C4B16282   2.277   5.897   7.655
 6621POPC   NC316283  28.381  27.605   9.455
 6621POPC   PO416284  28.366  27.548   9.155
 6621POPC   GL116285  28.403  27.584   8.855
 6621POPC   GL216286  28.298  27.720   8.855
 6621POPC   C1A16287  28.406  27.615   8.555
 6621POPC   D2A16288  28.417  27.548   8.255
 6621POPC   C3A16289  28.410  27.631   7.955
 6621POPC   C4A16290  28.377  27.554   7.655
 6621POPC   C1B16291  28.239  27.737   8.555
 6621POPC   C2B16292  28.176  27.769   8.255
 6621POPC   C3B16293  28.195  27.809   7.955
 6621POPC   C4B16294  28.252  27.824   7.655
 6622POPC   NC316295  19.824  11.304   9.455
 6622POPC   PO416296  19.860  11.303   9.155
 6622POPC   GL116297  19.829  11.260   8.855
 6622POPC   GL216298  19.833  11.228   8.855
 6622POPC   C1A16299  19.791  11.331   8.555
 6622POPC   D2A16300  19.786  11.260   8.255
 6622POPC   C3A16301  19.858  11.319   7.955
 6622POPC   C4A16302  19.837  11.251   7.655
 6622POPC   C1B16303  19.799  11.106   8.555
 6622POPC   C2B16304  19.801  11.012   8.255
 6622POPC   C3B16305  19.738  11.033   7.955
 6622POPC   C4B16306  19.785  11.034   7.655
 6623POPC   NC316307   5.070  32.263   9.455
 6623POPC   PO416308   5.133  32.226   9.155
 6623POPC   GL116309   5.092  32.246   8.855
 6623POPC   GL216310   5.022  32.366   8.855
 6623POPC   C1A16311   5.110  32.270   8.555
 6623POPC   D2A16312   5.064  32.294   8.255
 6623POPC   C3A16313   5.054  32.247   7.955
 6623POPC   C4A16314   5.065  32.205   7.655
 6623POPC   C1B16315   4.954  32.459   8.555
 6623POPC   C2B16316   4.866  32.391   8.255
 6623POPC   C3B16317   4.902  32.452   7.955
 6623POPC   C4B16318   4.882  32.428   7.655
 6624POPC   NC316319  11.265  41.550   9.455
 6624POPC   PO416320  11.344  41.545   9.155
 6624POPC   GL116321  11.302  41.581   8.855
 6624POPC   GL216322  11.304  41.733   8.855
 6624POPC   C1A16323  11.309  41.584   8.555
 6624POPC   D2A16324  11.322  41.528   8.255
 6624POPC   C3A16325  11.322  41.565   7.955
 6624POPC   C4A16326  11.259  41.564   7.655
 6624POPC   C1B16327  11.344  41.856   8.555
 6624POPC   C2B16328  11.294  41.806   8.255
 6624POPC   C3B16329  11.261  41.801   7.955
 6624POPC   C4B16330  11.342  41.849   7.655
 6625POPC   NC316331  41.550  38.412   9.455
 6625POPC   PO416332  41.549  38.433   9.155
 6625POPC   GL116333  41.609  38.431   8.855
 6625POPC   GL216334  41.603  38.353   8.855
 6625POPC   C1A16335  41.573  38.411   8.555
 6625POPC   D2A16336  41.513  38.504   8.255
 6625POPC   C3A16337  41.570  38.419   7.955
 6625POPC   C4A16338  41.594  38.434   7.655
 6625POPC   C1B16339  41.604  38.206   8.555
 6625POPC   C2B16340  41.592  38.177   8.255
 6625POPC   C3B16341  41.637  38.223   7.955
 6625POPC   C4B16342  41.642  38.190   7.655
 6626POPC   NC316343   0.475   4.305   9.455
 6626POPC   PO416344   0.445   4.333   9.155
 6626POPC   GL116345   0.440   4.345   8.855
 6626POPC   GL216346   0.313   4.330   8.855
 6626POPC   C1A16347   0.401   4.290   8.555
 6626POPC   D2A16348   0.473   4.353   8.255
 6626POPC   C3A16349   0.444   4.326   7.955
 6626POPC   C4A16350   0.446   4.275   7.655
 6626POPC   C1B16351   0.249   4.259   8.555
 6626POPC   C2B16352   0.201   4.229   8.255
 6626POPC   C3B16353   0.234   4.209   7.955
 6626POPC   C4B16354   0.229   4.238   7.655
 6627POPC   NC316355  27.629  35.312   9.455
 6627POPC   PO416356  27.563  35.388   9.155
 6627POPC   GL116357  27.563  35.335   8.855
 6627POPC   GL216358  27.597  35.260   8.855
 6627POPC   C1A16359  27.545  35.306   8.555
 6627POPC   D2A16360  27.564  35.398   8.255
 6627POPC   C3A16361  27.625  35.329   7.955
 6627POPC   C4A16362  27.566  35.366   7.655
 6627POPC   C1B16363  27.651  35.102   8.555
 6627POPC   C2B16364  27.671  35.114   8.255
 6627POPC   C3B16365  27.649  35.085   7.955
 6627POPC   C4B16366  27.651  35.139   7.655
 6628POPC   NC316367  43.149  26.778   9.455
 6628POPC   PO416368  43.071  26.855   9.155
 6628POPC   GL116369  43.080  26.839   8.855
 6628POPC   GL216370  43.095  26.715   8.855
 6628POPC   C1A16371  43.147  26.845   8.555
 6628POPC   D2A16372  43.062  26.784   8.255
 6628POPC   C3A16373  43.091  26.855   7.955
 6628POPC   C4A16374  43.129  26.861   7.655
 6628POPC   C1B16375  43.171  26.571   8.555
 6628POPC   C2B16376  43.138  26.523   8.255
 6628POPC   C3B16377  43.123  26.541   7.955
 6628POPC   C4B16378  43.175  26.617   7.655
 6629POPC   NC316379  17.464   1.995   9.455
 6629POPC   PO416380  17.489   2.009   9.155
 6629POPC   GL116381  17.553   1.955   8.855
 6629POPC   GL216382  17.611   1.984   8.855
 6629POPC   C1A16383  17.495   1.975   8.555
 6629POPC   D2A16384  17.485   1.949   8.255
 6629POPC   C3A16385  17.513   1.970   7.955
 6629POPC   C4A16386  17.550   1.950   7.655
 6629POPC   C1B16387  17.745   1.954   8.555
 6629POPC   C2B16388  17.792   1.989   8.255
 6629POPC   C3B16389  17.767   1.988   7.955
 6629POPC   C4B16390  17.756   1.961   7.655
 6630POPC   NC316391  11.274  13.668   9.455
 6630POPC   PO416392  11.341  13.665   9.155
 6630POPC   GL116393  11.337  13.617   8.855
 6630POPC   GL216394  11.328  13.775   8.855
 6630POPC   C1A16395  11.336  13.583   8.555
 6630POPC   D2A16396  11.271  13.676   8.255
 6630POPC   C3A16397  11.265  13.643   7.955
 6630POPC   C4A16398  11.310  13.634   7.655
 6630POPC   C1B16399  11.403  13.835   8.555
 6630POPC   C2B16400  11.447  13.844   8.255
 6630POPC   C3B16401  11.395  13.883   7.955
 6630POPC   C4B16402  11.458  13.798   7.655
 6631POPC   NC316403  43.882  17.551   9.455
 6631POPC   PO416404  43.847  17.505   9.155
 6631POPC   GL116405  43.879  17.463   8.855
 6631POPC   GL216406  43.832  17.367   8.855
 6631POPC   C1A16407  43.893  17.497   8.555
 6631POPC   D2A16408  43.854  17.547   8.255
 6631POPC   C3A16409  43.843  17.551   7.955
 6631POPC   C4A16410  43.928  17.528   7.655
 6631POPC   C1B16411  43.680  17.267   8.555
 6631POPC   C2B16412  43.708  17.268   8.255
 6631POPC   C3B16413  43.747  17.340   7.955
 6631POPC   C4B16414  43.705  17.310   7.655
 6632POPC   NC316415  18.281  23.698   9.455
 6632POPC   PO416416  18.308  23.725   9.155
 6632POPC   GL116417  18.308  23.737   8.855
 6632POPC   GL216418  18.362  23.780   8.855
 6632POPC   C1A16419  18.274  23.756   8.555
 6632POPC   D2A16420  18.322  23.714   8.255
 6632POPC   C3A16421  18.234  23.761   7.955
 6632POPC   C4A16422  18.319  23.716   7.655
 6632POPC   C1B16423  18.454  23.903   8.555
 6632POPC   C2B16424  18.395  23.909   8.255
 6632POPC   C3B16425  18.426  23.938   7.955
 6632POPC   C4B16426  18.445  23.941   7.655
 6633POPC   NC316427  29.154   9.748   9.455
 6633POPC   PO416428  29.176   9.726   9.155
 6633POPC   GL116429  29.189   9.785   8.855
 6633POPC   GL216430  29.192   9.807   8.855
 6633POPC   C1A16431  29.136   9.780   8.555
 6633POPC   D2A16432  29.125   9.714   8.255
 6633POPC   C3A16433  29.189   9.740   7.955
 6633POPC   C4A16434  29.116   9.715   7.655
 6633POPC   C1B16435  29.372   9.953   8.555
 6633POPC   C2B16436  29.354   9.909   8.255
 6633POPC   C3B16437  29.351   9.966   7.955
 6633POPC   C4B16438  29.287   9.958   7.655
 6634POPC   NC316439  11.253  24.528   9.455
 6634POPC   PO416440  11.302  24.449   9.155
 6634POPC   GL116441  11.317  24.444   8.855
 6634POPC   GL216442  11.326  24.321   8.855
 6634POPC   C1A16443  11.267  24.477   8.555
 6634POPC   D2A16444  11.329  24.441   8.255
 6634POPC   C3A16445  11.307  24.452   7.955
 6634POPC   C4A16446  11.257  24.476   7.655
 6634POPC   C1B16447  11.326  24.286   8.555
 6634POPC   C2B16448  11.336  24.223   8.255
 6634POPC   C3B16449  11.379  24.273   7.955
 6634POPC   C4B16450  11.405  24.235   7.655
 6635POPC   NC316451  36.138  26.787   9.455
 6635POPC   PO416452  36.150  26.859   9.155
 6635POPC   GL116453  36.103  26.818   8.855
 6635POPC   GL216454  36.133  26.691   8.855
 6635POPC   C1A16455  36.098  26.820   8.555
 6635POPC   D2A16456  36.128  26.838   8.255
 6635POPC   C3A16457  36.078  26.768   7.955
 6635POPC   C4A16458  36.170  26.859   7.655
 6635POPC   C1B16459  36.103  26.615   8.555
 6635POPC   C2B16460  36.139  26.583   8.255
 6635POPC   C3B16461  36.117  26.605   7.955
 6635POPC   C4B16462  36.072  26.519   7.655
 6636POPC   NC316463  37.637  42.372   9.455
 6636POPC   PO416464  37.647  42.306   9.155
 6636POPC   GL116465  37.706  42.365   8.855
 6636POPC   GL216466  37.631  42.219   8.855
 6636POPC   C1A16467  37.723  42.360   8.555
 6636POPC   D2A16468  37.680  42.327   8.255
 6636POPC   C3A16469  37.669  42.373   7.955
 6636POPC   C4A16470  37.669  42.384   7.655
 6636POPC   C1B16471  37.520  42.125   8.555
 6636POPC   C2B16472  37.505  42.084   8.255
 6636POPC   C3B16473  37.526  42.108   7.955
 6636POPC   C4B16474  37.546  42.173   7.655
 6637POPC   NC316475  39.961  30.689   9.455
 6637POPC   PO416476  40.018  30.678   9.155
 6637POPC   GL116477  39.959  30.665   8.855
 6637POPC   GL216478  39.877  30.614   8.855
 6637POPC   C1A16479  40.033  30.732   8.555
 6637POPC   D2A16480  39.960  30.728   8.255
 6637POPC   C3A16481  40.038  30.721   7.955
 6637POPC   C4A16482  39.992  30.717   7.655
 6637POPC   C1B16483  39.835  30.516   8.555
 6637POPC   C2B16484  39.809  30.517   8.255
 6637POPC   C3B16485  39.823  30.529   7.955
 6637POPC   C4B16486  39.813  30.545   7.655
 6638POPC   NC316487   1.997  26.075   9.455
 6638POPC   PO416488   1.981  26.035   9.155
 6638POPC   GL116489   1.990  26.051   8.855
 6638POPC   GL216490   2.146  26.058   8.855
 6638POPC   C1A16491   1.976  26.053   8.555
 6638POPC   D2A16492   1.962  26.008   8.255
 6638POPC   C3A16493   2.038  26.047   7.955
 6638POPC   C4A16494   1.958  26.016   7.655
 6638POPC   C1B16495   2.247  26.060   8.555
 6638POPC   C2B16496   2.225  26.047   8.255
 6638POPC   C3B16497   2.197  26.037   7.955
 6638POPC   C4B16498   2.213  26.046   7.655
 6639POPC   NC316499  27.549   7.430   9.455
 6639POPC   PO416500  27.580   7.398   9.155
 6639POPC   GL116501  27.586   7.443   8.855
 6639POPC   GL216502  27.633   7.499   8.855
 6639POPC   C1A16503  27.613   7.413   8.555
 6639POPC   D2A16504  27.609   7.431   8.255
 6639POPC   C3A16505  27.638   7.422   7.955
 6639POPC   C4A16506  27.606   7.432   7.655
 6639POPC   C1B16507  27.753   7.633   8.555
 6639POPC   C2B16508  27.772   7.633   8.255
 6639POPC   C3B16509  27.726   7.606   7.955
 6639POPC   C4B16510  27.740   7.603   7.655
 6640POPC   NC316511  14.420   8.975   9.455
 6640POPC   PO416512  14.403   8.945   9.155
 6640POPC   GL116513  14.421   8.960   8.855
 6640POPC   GL216514  14.348   8.857   8.855
 6640POPC   C1A16515  14.382   8.983   8.555
 6640POPC   D2A16516  14.449   8.988   8.255
 6640POPC   C3A16517  14.378   8.965   7.955
 6640POPC   C4A16518  14.447   8.934   7.655
 6640POPC   C1B16519  14.246   8.798   8.555
 6640POPC   C2B16520  14.279   8.767   8.255
 6640POPC   C3B16521  14.234   8.769   7.955
 6640POPC   C4B16522  14.251   8.808   7.655
 6641POPC   NC316523  33.806   0.451   9.455
 6641POPC   PO416524  33.780   0.453   9.155
 6641POPC   GL116525  33.829   0.434   8.855
 6641POPC   GL216526  33.880   0.403   8.855
 6641POPC   C1A16527  33.767   0.476   8.555
 6641POPC   D2A16528  33.846   0.468   8.255
 6641POPC   C3A16529  33.808   0.405   7.955
 6641POPC   C4A16530  33.849   0.414   7.655
 6641POPC   C1B16531  34.036   0.472   8.555
 6641POPC   C2B16532  34.065   0.387   8.255
 6641POPC   C3B16533  34.020   0.380   7.955
 6641POPC   C4B16534  34.039   0.452   7.655
 6642POPC   NC316535  41.604  26.054   9.455
 6642POPC   PO416536  41.546  26.074   9.155
 6642POPC   GL116537  41.599  26.014   8.855
 6642POPC   GL216538  41.423  26.051   8.855
 6642POPC   C1A16539  41.518  26.022   8.555
 6642POPC   D2A16540  41.570  26.026   8.255
 6642POPC   C3A16541  41.523  26.055   7.955
 6642POPC   C4A16542  41.539  26.019   7.655
 6642POPC   C1B16543  41.340  25.985   8.555
 6642POPC   C2B16544  41.323  25.951   8.255
 6642POPC   C3B16545  41.274  25.968   7.955
 6642POPC   C4B16546  41.289  25.965   7.655
 6643POPC   NC316547   1.986  39.199   9.455
 6643POPC   PO416548   2.000  39.233   9.155
 6643POPC   GL116549   1.977  39.246   8.855
 6643POPC   GL216550   1.968  39.338   8.855
 6643POPC   C1A16551   1.983  39.181   8.555
 6643POPC   D2A16552   1.970  39.200   8.255
 6643POPC   C3A16553   2.002  39.220   7.955
 6643POPC   C4A16554   1.986  39.254   7.655
 6643POPC   C1B16555   1.910  39.427   8.555
 6643POPC   C2B16556   1.866  39.484   8.255
 6643POPC   C3B16557   1.820  39.487   7.955
 6643POPC   C4B16558   1.899  39.495   7.655
 6644POPC   NC316559  26.830  23.761   9.455
 6644POPC   PO416560  26.820  23.692   9.155
 6644POPC   GL116561  26.841  23.712   8.855
 6644POPC   GL216562  26.919  23.802   8.855
 6644POPC   C1A16563  26.784  23.665   8.555
 6644POPC   D2A16564  26.835  23.689   8.255
 6644POPC   C3A16565  26.838  23.673   7.955
 6644POPC   C4A16566  26.864  23.698   7.655
 6644POPC   C1B16567  27.019  23.832   8.555
 6644POPC   C2B16568  26.998  23.867   8.255
 6644POPC   C3B16569  27.041  23.862   7.955
 6644POPC   C4B16570  27.028  23.877   7.655
 6645POPC   NC316571  13.676  34.543   9.455
 6645POPC   PO416572  13.634  34.543   9.155
 6645POPC   GL116573  13.606  34.546   8.855
 6645POPC   GL216574  13.791  34.617   8.855
 6645POPC   C1A16575  13.609  34.600   8.555
 6645POPC   D2A16576  13.660  34.550   8.255
 6645POPC   C3A16577  13.590  34.538   7.955
 6645POPC   C4A16578  13.605  34.566   7.655
 6645POPC   C1B16579  13.882  34.546   8.555
 6645POPC   C2B16580  13.839  34.617   8.255
 6645POPC   C3B16581  13.850  34.603   7.955
 6645POPC   C4B16582  13.927  34.576   7.655
 6646POPC   NC316583  13.586  15.988   9.455
 6646POPC   PO416584  13.596  15.964   9.155
 6646POPC   GL116585  13.585  15.947   8.855
 6646POPC   GL216586  13.715  15.855   8.855
 6646POPC   C1A16587  13.642  15.909   8.555
 6646POPC   D2A16588  13.638  15.979   8.255
 6646POPC   C3A16589  13.659  15.931   7.955
 6646POPC   C4A16590  13.629  15.991   7.655
 6646POPC   C1B16591  13.737  15.693   8.555
 6646POPC   C2B16592  13.763  15.705   8.255
 6646POPC   C3B16593  13.756  15.711   7.955
 6646POPC   C4B16594  13.766  15.743   7.655
 6647POPC   NC316595  22.209  29.161   9.455
 6647POPC   PO416596  22.181  29.158   9.155
 6647POPC   GL116597  22.209  29.114   8.855
 6647POPC   GL216598  22.312  29.176   8.855
 6647POPC   C1A16599  22.180  29.116   8.555
 6647POPC   D2A16600  22.139  29.163   8.255
 6647POPC   C3A16601  22.113  29.129   7.955
 6647POPC   C4A16602  22.148  29.100   7.655
 6647POPC   C1B16603  22.388  29.263   8.555
 6647POPC   C2B16604  22.381  29.246   8.255
 6647POPC   C3B16605  22.429  29.195   7.955
 6647POPC   C4B16606  22.435  29.229   7.655
 6648POPC   NC316607   5.861   4.276   9.455
 6648POPC   PO416608   5.872   4.295   9.155
 6648POPC   GL116609   5.873   4.311   8.855
 6648POPC   GL216610   5.987   4.392   8.855
 6648POPC   C1A16611   5.913   4.279   8.555
 6648POPC   D2A16612   5.824   4.307   8.255
 6648POPC   C3A16613   5.883   4.317   7.955
 6648POPC   C4A16614   5.884   4.343   7.655
 6648POPC   C1B16615   6.019   4.494   8.555
 6648POPC   C2B16616   6.082   4.439   8.255
 6648POPC   C3B16617   6.060   4.510   7.955
 6648POPC   C4B16618   6.100   4.518   7.655
 6649POPC   NC316619   9.743   9.746   9.455
 6649POPC   PO416620   9.728   9.710   9.155
 6649POPC   GL116621   9.782   9.752   8.855
 6649POPC   GL216622   9.762   9.623   8.855
 6649POPC   C1A16623   9.795   9.761   8.555
 6649POPC   D2A16624   9.756   9.795   8.255
 6649POPC   C3A16625   9.704   9.699   7.955
 6649POPC   C4A16626   9.775   9.776   7.655
 6649POPC   C1B16627   9.854   9.552   8.555
 6649POPC   C2B16628   9.780   9.495   8.255
 6649POPC   C3B16629   9.766   9.462   7.955
 6649POPC   C4B16630   9.836   9.508   7.655
 6650POPC   NC316631  30.720  19.082   9.455
 6650POPC   PO416632  30.716  19.076   9.155
 6650POPC   GL116633  30.714  19.070   8.855
 6650POPC   GL216634  30.710  18.902   8.855
 6650POPC   C1A16635  30.718  19.036   8.555
 6650POPC   D2A16636  30.723  19.038   8.255
 6650POPC   C3A16637  30.725  19.047   7.955
 6650POPC   C4A16638  30.716  19.019   7.655
 6650POPC   C1B16639  30.765  18.768   8.555
 6650POPC   C2B16640  30.801  18.866   8.255
 6650POPC   C3B16641  30.788  18.807   7.955
 6650POPC   C4B16642  30.747  18.771   7.655
 6651POPC   NC316643  35.357  35.318   9.455
 6651POPC   PO416644  35.338  35.334   9.155
 6651POPC   GL116645  35.326  35.341   8.855
 6651POPC   GL216646  35.294  35.300   8.855
 6651POPC   C1A16647  35.387  35.340   8.555
 6651POPC   D2A16648  35.311  35.345   8.255
 6651POPC   C3A16649  35.374  35.366   7.955
 6651POPC   C4A16650  35.388  35.372   7.655
 6651POPC   C1B16651  35.235  35.123   8.555
 6651POPC   C2B16652  35.154  35.168   8.255
 6651POPC   C3B16653  35.163  35.181   7.955
 6651POPC   C4B16654  35.211  35.211   7.655
 6652POPC   NC316655  16.774  31.521   9.455
 6652POPC   PO416656  16.729  31.453   9.155
 6652POPC   GL116657  16.708  31.458   8.855
 6652POPC   GL216658  16.656  31.613   8.855
 6652POPC   C1A16659  16.734  31.501   8.555
 6652POPC   D2A16660  16.744  31.514   8.255
 6652POPC   C3A16661  16.778  31.472   7.955
 6652POPC   C4A16662  16.705  31.430   7.655
 6652POPC   C1B16663  16.602  31.703   8.555
 6652POPC   C2B16664  16.554  31.700   8.255
 6652POPC   C3B16665  16.567  31.671   7.955
 6652POPC   C4B16666  16.567  31.628   7.655
 6653POPC   NC316667   9.753  41.527   9.455
 6653POPC   PO416668   9.741  41.517   9.155
 6653POPC   GL116669   9.766  41.564   8.855
 6653POPC   GL216670   9.661  41.602   8.855
 6653POPC   C1A16671   9.714  41.545   8.555
 6653POPC   D2A16672   9.794  41.522   8.255
 6653POPC   C3A16673   9.700  41.550   7.955
 6653POPC   C4A16674   9.742  41.513   7.655
 6653POPC   C1B16675   9.501  41.630   8.555
 6653POPC   C2B16676   9.498  41.599   8.255
 6653POPC   C3B16677   9.481  41.565   7.955
 6653POPC   C4B16678   9.477  41.619   7.655
 6654POPC   NC316679  15.953  35.372   9.455
 6654POPC   PO416680  15.999  35.317   9.155
 6654POPC   GL116681  15.915  35.373   8.855
 6654POPC   GL216682  15.785  35.369   8.855
 6654POPC   C1A16683  15.975  35.361   8.555
 6654POPC   D2A16684  15.964  35.319   8.255
 6654POPC   C3A16685  15.990  35.376   7.955
 6654POPC   C4A16686  15.985  35.361   7.655
 6654POPC   C1B16687  15.658  35.351   8.555
 6654POPC   C2B16688  15.664  35.313   8.255
 6654POPC   C3B16689  15.732  35.290   7.955
 6654POPC   C4B16690  15.690  35.378   7.655
 6655POPC   NC316691  27.551   5.860   9.455
 6655POPC   PO416692  27.593   5.914   9.155
 6655POPC   GL116693  27.583   5.871   8.855
 6655POPC   GL216694  27.571   5.734   8.855
 6655POPC   C1A16695  27.626   5.858   8.555
 6655POPC   D2A16696  27.599   5.905   8.255
 6655POPC   C3A16697  27.599   5.866   7.955
 6655POPC   C4A16698  27.580   5.907   7.655
 6655POPC   C1B16699  27.438   5.672   8.555
 6655POPC   C2B16700  27.510   5.609   8.255
 6655POPC   C3B16701  27.516   5.627   7.955
 6655POPC   C4B16702  27.439   5.631   7.655
 6656POPC   NC316703  39.995  42.310   9.455
 6656POPC   PO416704  39.985  42.379   9.155
 6656POPC   GL116705  40.015  42.358   8.855
 6656POPC   GL216706  39.936  42.469   8.855
 6656POPC   C1A16707  39.977  42.372   8.555
 6656POPC   D2A16708  40.008  42.354   8.255
 6656POPC   C3A16709  40.001  42.376   7.955
 6656POPC   C4A16710  39.972  42.376   7.655
 6656POPC   C1B16711  39.995  42.590   8.555
 6656POPC   C2B16712  39.952  42.585   8.255
 6656POPC   C3B16713  39.933  42.623   7.955
 6656POPC   C4B16714  39.927  42.536   7.655
 6657POPC   NC316715  25.274  19.810   9.455
 6657POPC   PO416716  25.279  19.792   9.155
 6657POPC   GL116717  25.238  19.828   8.855
 6657POPC   GL216718  25.232  19.971   8.855
 6657POPC   C1A16719  25.301  19.851   8.555
 6657POPC   D2A16720  25.281  19.823   8.255
 6657POPC   C3A16721  25.301  19.868   7.955
 6657POPC   C4A16722  25.290  19.862   7.655
 6657POPC   C1B16723  25.118  20.008   8.555
 6657POPC   C2B16724  25.125  20.041   8.255
 6657POPC   C3B16725  25.082  20.062   7.955
 6657POPC   C4B16726  25.112  20.056   7.655
 6658POPC   NC316727  12.088  20.568   9.455
 6658POPC   PO416728  12.086  20.660   9.155
 6658POPC   GL116729  12.109  20.652   8.855
 6658POPC   GL216730  11.971  20.751   8.855
 6658POPC   C1A16731  12.124  20.581   8.555
 6658POPC   D2A16732  12.119  20.602   8.255
 6658POPC   C3A16733  12.086  20.592   7.955
 6658POPC   C4A16734  12.047  20.635   7.655
 6658POPC   C1B16735  11.948  20.850   8.555
 6658POPC   C2B16736  11.957  20.811   8.255
 6658POPC   C3B16737  11.989  20.851   7.955
 6658POPC   C4B16738  11.922  20.872   7.655
 6659POPC   NC316739  41.570  29.126   9.455
 6659POPC   PO416740  41.606  29.146   9.155
 6659POPC   GL116741  41.575  29.121   8.855
 6659POPC   GL216742  41.554  29.004   8.855
 6659POPC   C1A16743  41.607  29.187   8.555
 6659POPC   D2A16744  41.591  29.120   8.255
 6659POPC   C3A16745  41.536  29.122   7.955
 6659POPC   C4A16746  41.524  29.194   7.655
 6659POPC   C1B16747  41.544  28.907   8.555
 6659POPC   C2B16748  41.538  28.866   8.255
 6659POPC   C3B16749  41.578  28.873   7.955
 6659POPC   C4B16750  41.578  28.896   7.655
 6660POPC   NC316751  35.367  24.538   9.455
 6660POPC   PO416752  35.309  24.512   9.155
 6660POPC   GL116753  35.392  24.477   8.855
 6660POPC   GL216754  35.295  24.382   8.855
 6660POPC   C1A16755  35.352  24.511   8.555
 6660POPC   D2A16756  35.375  24.492   8.255
 6660POPC   C3A16757  35.319  24.494   7.955
 6660POPC   C4A16758  35.332  24.499   7.655
 6660POPC   C1B16759  35.207  24.274   8.555
 6660POPC   C2B16760  35.124  24.352   8.255
 6660POPC   C3B16761  35.194  24.334   7.955
 6660POPC   C4B16762  35.200  24.274   7.655
 6661POPC   NC316763  36.891  43.092   9.455
 6661POPC   PO416764  36.952  43.134   9.155
 6661POPC   GL116765  36.943  43.136   8.855
 6661POPC   GL216766  37.030  43.211   8.855
 6661POPC   C1A16767  36.934  43.078   8.555
 6661POPC   D2A16768  36.861  43.149   8.255
 6661POPC   C3A16769  36.910  43.114   7.955
 6661POPC   C4A16770  36.946  43.149   7.655
 6661POPC   C1B16771  37.101  43.276   8.555
 6661POPC   C2B16772  37.136  43.273   8.255
 6661POPC   C3B16773  37.130  43.263   7.955
 6661POPC   C4B16774  37.086  43.297   7.655
 6662POPC   NC316775  19.871   1.982   9.455
 6662POPC   PO416776  19.790   2.006   9.155
 6662POPC   GL116777  19.819   2.018   8.855
 6662POPC   GL216778  19.719   2.006   8.855
 6662POPC   C1A16779  19.873   2.015   8.555
 6662POPC   D2A16780  19.808   1.991   8.255
 6662POPC   C3A16781  19.854   2.019   7.955
 6662POPC   C4A16782  19.799   1.973   7.655
 6662POPC   C1B16783  19.612   2.138   8.555
 6662POPC   C2B16784  19.576   2.112   8.255
 6662POPC   C3B16785  19.565   2.123   7.955
 6662POPC   C4B16786  19.648   2.077   7.655
 6663POPC   NC316787  13.618  17.552   9.455
 6663POPC   PO416788  13.641  17.551   9.155
 6663POPC   GL116789  13.610  17.498   8.855
 6663POPC   GL216790  13.563  17.552   8.855
 6663POPC   C1A16791  13.663  17.494   8.555
 6663POPC   D2A16792  13.603  17.499   8.255
 6663POPC   C3A16793  13.597  17.548   7.955
 6663POPC   C4A16794  13.579  17.516   7.655
 6663POPC   C1B16795  13.483  17.660   8.555
 6663POPC   C2B16796  13.448  17.673   8.255
 6663POPC   C3B16797  13.480  17.694   7.955
 6663POPC   C4B16798  13.483  17.707   7.655
 6664POPC   NC316799  33.056  12.881   9.455
 6664POPC   PO416800  33.029  12.860   9.155
 6664POPC   GL116801  33.031  12.834   8.855
 6664POPC   GL216802  33.097  12.718   8.855
 6664POPC   C1A16803  33.073  12.896   8.555
 6664POPC   D2A16804  33.001  12.835   8.255
 6664POPC   C3A16805  32.976  12.874   7.955
 6664POPC   C4A16806  33.046  12.890   7.655
 6664POPC   C1B16807  33.185  12.723   8.555
 6664POPC   C2B16808  33.157  12.685   8.255
 6664POPC   C3B16809  33.246  12.710   7.955
 6664POPC   C4B16810  33.178  12.695   7.655
 6665POPC   NC316811  29.934  26.800   9.455
 6665POPC   PO416812  29.915  26.856   9.155
 6665POPC   GL116813  29.894  26.812   8.855
 6665POPC   GL216814  30.016  26.845   8.855
 6665POPC   C1A16815  29.953  26.850   8.555
 6665POPC   D2A16816  29.901  26.797   8.255
 6665POPC   C3A16817  29.927  26.798   7.955
 6665POPC   C4A16818  29.951  26.855   7.655
 6665POPC   C1B16819  30.141  26.885   8.555
 6665POPC   C2B16820  30.128  26.891   8.255
 6665POPC   C3B16821  30.197  26.874   7.955
 6665POPC   C4B16822  30.195  26.841   7.655
 6666POPC   NC316823  42.285  28.321   9.455
 6666POPC   PO416824  42.307  28.384   9.155
 6666POPC   GL116825  42.343  28.373   8.855
 6666POPC   GL216826  42.192  28.470   8.855
 6666POPC   C1A16827  42.372  28.331   8.555
 6666POPC   D2A16828  42.363  28.418   8.255
 6666POPC   C3A16829  42.295  28.370   7.955
 6666POPC   C4A16830  42.361  28.370   7.655
 6666POPC   C1B16831  42.092  28.548   8.555
 6666POPC   C2B16832  42.146  28.483   8.255
 6666POPC   C3B16833  42.158  28.569   7.955
 6666POPC   C4B16834  42.185  28.547   7.655
 6667POPC   NC316835  23.729   1.945   9.455
 6667POPC   PO416836  23.716   1.954   9.155
 6667POPC   GL116837  23.704   2.002   8.855
 6667POPC   GL216838  23.689   2.098   8.855
 6667POPC   C1A16839  23.678   2.024   8.555
 6667POPC   D2A16840  23.738   2.000   8.255
 6667POPC   C3A16841  23.736   2.023   7.955
 6667POPC   C4A16842  23.739   1.949   7.655
 6667POPC   C1B16843  23.727   2.203   8.555
 6667POPC   C2B16844  23.704   2.250   8.255
 6667POPC   C3B16845  23.720   2.260   7.955
 6667POPC   C4B16846  23.694   2.228   7.655
 6668POPC   NC316847  17.549  15.970   9.455
 6668POPC   PO416848  17.469  15.950   9.155
 6668POPC   GL116849  17.503  15.969   8.855
 6668POPC   GL216850  17.379  16.003   8.855
 6668POPC   C1A16851  17.468  15.951   8.555
 6668POPC   D2A16852  17.495  15.975   8.255
 6668POPC   C3A16853  17.493  15.939   7.955
 6668POPC   C4A16854  17.509  15.959   7.655
 6668POPC   C1B16855  17.358  16.084   8.555
 6668POPC   C2B16856  17.339  16.086   8.255
 6668POPC   C3B16857  17.352  16.153   7.955
 6668POPC   C4B16858  17.281  16.094   7.655
 6669POPC   NC316859  22.976  32.268   9.455
 6669POPC   PO416860  22.976  32.249   9.155
 6669POPC   GL116861  22.935  32.287   8.855
 6669POPC   GL216862  22.781  32.165   8.855
 6669POPC   C1A16863  22.965  32.253   8.555
 6669POPC   D2A16864  22.918  32.211   8.255
 6669POPC   C3A16865  22.917  32.211   7.955
 6669POPC   C4A16866  22.984  32.225   7.655
 6669POPC   C1B16867  22.693  32.132   8.555
 6669POPC   C2B16868  22.666  32.180   8.255
 6669POPC   C3B16869  22.742  32.137   7.955
 6669POPC   C4B16870  22.749  32.149   7.655
 6670POPC   NC316871   3.556  26.863   9.455
 6670POPC   PO416872   3.498  26.845   9.155
 6670POPC   GL116873   3.573  26.790   8.855
 6670POPC   GL216874   3.686  26.801   8.855
 6670POPC   C1A16875   3.529  26.785   8.555
 6670POPC   D2A16876   3.497  26.863   8.255
 6670POPC   C3A16877   3.571  26.839   7.955
 6670POPC   C4A16878   3.550  26.818   7.655
 6670POPC   C1B16879   3.746  26.731   8.555
 6670POPC   C2B16880   3.830  26.798   8.255
 6670POPC   C3B16881   3.799  26.757   7.955
 6670POPC   C4B16882   3.753  26.824   7.655
 6671POPC   NC316883  29.886  20.624   9.455
 6671POPC   PO416884  29.946  20.647   9.155
 6671POPC   GL116885  29.900  20.652   8.855
 6671POPC   GL216886  29.906  20.726   8.855
 6671POPC   C1A16887  29.963  20.561   8.555
 6671POPC   D2A16888  29.923  20.596   8.255
 6671POPC   C3A16889  29.903  20.600   7.955
 6671POPC   C4A16890  29.903  20.608   7.655
 6671POPC   C1B16891  29.846  20.852   8.555
 6671POPC   C2B16892  29.815  20.881   8.255
 6671POPC   C3B16893  29.802  20.826   7.955
 6671POPC   C4B16894  29.882  20.889   7.655
 6672POPC   NC316895  22.968  15.137   9.455
 6672POPC   PO416896  22.955  15.206   9.155
 6672POPC   GL116897  22.909  15.201   8.855
 6672POPC   GL216898  22.773  15.202   8.855
 6672POPC   C1A16899  22.971  15.208   8.555
 6672POPC   D2A16900  22.986  15.181   8.255
 6672POPC   C3A16901  22.961  15.135   7.955
 6672POPC   C4A16902  22.928  15.192   7.655
 6672POPC   C1B16903  22.648  15.174   8.555
 6672POPC   C2B16904  22.649  15.159   8.255
 6672POPC   C3B16905  22.643  15.217   7.955
 6672POPC   C4B16906  22.663  15.178   7.655
 6673POPC   NC316907   5.053  29.157   9.455
 6673POPC   PO416908   5.053  29.140   9.155
 6673POPC   GL116909   5.091  29.182   8.855
 6673POPC   GL216910   5.011  29.091   8.855
 6673POPC   C1A16911   5.079  29.167   8.555
 6673POPC   D2A16912   5.128  29.124   8.255
 6673POPC   C3A16913   5.116  29.127   7.955
 6673POPC   C4A16914   5.110  29.114   7.655
 6673POPC   C1B16915   4.815  29.079   8.555
 6673POPC   C2B16916   4.870  29.065   8.255
 6673POPC   C3B16917   4.815  29.078   7.955
 6673POPC   C4B16918   4.819  29.073   7.655
 6674POPC   NC316919  41.584  28.397   9.455
 6674POPC   PO416920  41.590  28.380   9.155
 6674POPC   GL116921  41.511  28.385   8.855
 6674POPC   GL216922  41.713  28.338   8.855
 6674POPC   C1A16923  41.539  28.376   8.555
 6674POPC   D2A16924  41.563  28.321   8.255
 6674POPC   C3A16925  41.515  28.400   7.955
 6674POPC   C4A16926  41.555  28.408   7.655
 6674POPC   C1B16927  41.858  28.396   8.555
 6674POPC   C2B16928  41.833  28.352   8.255
 6674POPC   C3B16929  41.828  28.363   7.955
 6674POPC   C4B16930  41.832  28.367   7.655
 6675POPC   NC316931   7.446  39.267   9.455
 6675POPC   PO416932   7.381  39.191   9.155
 6675POPC   GL116933   7.412  39.278   8.855
 6675POPC   GL216934   7.248  39.208   8.855
 6675POPC   C1A16935   7.409  39.191   8.555
 6675POPC   D2A16936   7.455  39.201   8.255
 6675POPC   C3A16937   7.455  39.220   7.955
 6675POPC   C4A16938   7.459  39.233   7.655
 6675POPC   C1B16939   7.201  39.258   8.555
 6675POPC   C2B16940   7.187  39.284   8.255
 6675POPC   C3B16941   7.149  39.268   7.955
 6675POPC   C4B16942   7.196  39.270   7.655
 6676POPC   NC316943   6.664  28.411   9.455
 6676POPC   PO416944   6.642  28.391   9.155
 6676POPC   GL116945   6.595  28.346   8.855
 6676POPC   GL216946   6.514  28.443   8.855
 6676POPC   C1A16947   6.638  28.404   8.555
 6676POPC   D2A16948   6.694  28.368   8.255
 6676POPC   C3A16949   6.596  28.346   7.955
 6676POPC   C4A16950   6.671  28.320   7.655
 6676POPC   C1B16951   6.480  28.529   8.555
 6676POPC   C2B16952   6.494  28.511   8.255
 6676POPC   C3B16953   6.490  28.528   7.955
 6676POPC   C4B16954   6.516  28.513   7.655
 6677POPC   NC316955  44.620  12.051   9.455
 6677POPC   PO416956  44.647  12.118   9.155
 6677POPC   GL116957  44.649  12.033   8.855
 6677POPC   GL216958  44.701  12.150   8.855
 6677POPC   C1A16959  44.675  12.094   8.555
 6677POPC   D2A16960  44.613  12.061   8.255
 6677POPC   C3A16961  44.619  12.058   7.955
 6677POPC   C4A16962  44.686  12.085   7.655
 6677POPC   C1B16963  44.672  12.338   8.555
 6677POPC   C2B16964  44.716  12.352   8.255
 6677POPC   C3B16965  44.748  12.286   7.955
 6677POPC   C4B16966  44.691  12.361   7.655
 6678POPC   NC316967   2.758  19.843   9.455
 6678POPC   PO416968   2.754  19.867   9.155
 6678POPC   GL116969   2.804  19.848   8.855
 6678POPC   GL216970   2.854  19.693   8.855
 6678POPC   C1A16971   2.796  19.873   8.555
 6678POPC   D2A16972   2.815  19.860   8.255
 6678POPC   C3A16973   2.732  19.802   7.955
 6678POPC   C4A16974   2.785  19.830   7.655
 6678POPC   C1B16975   2.858  19.612   8.555
 6678POPC   C2B16976   2.848  19.631   8.255
 6678POPC   C3B16977   2.835  19.634   7.955
 6678POPC   C4B16978   2.830  19.556   7.655
 6679POPC   NC316979  18.309   0.435   9.455
 6679POPC   PO416980  18.311   0.443   9.155
 6679POPC   GL116981  18.252   0.462   8.855
 6679POPC   GL216982  18.194   0.524   8.855
 6679POPC   C1A16983  18.306   0.405   8.555
 6679POPC   D2A16984  18.295   0.454   8.255
 6679POPC   C3A16985  18.245   0.483   7.955
 6679POPC   C4A16986  18.320   0.488   7.655
 6679POPC   C1B16987  18.007   0.575   8.555
 6679POPC   C2B16988  18.092   0.495   8.255
 6679POPC   C3B16989  18.088   0.540   7.955
 6679POPC   C4B16990  18.066   0.494   7.655
 6680POPC   NC316991  24.473  36.887   9.455
 6680POPC   PO416992  24.517  36.922   9.155
 6680POPC   GL116993  24.486  36.905   8.855
 6680POPC   GL216994  24.410  36.818   8.855
 6680POPC   C1A16995  24.524  36.873   8.555
 6680POPC   D2A16996  24.489  36.953   8.255
 6680POPC   C3A16997  24.469  36.938   7.955
 6680POPC   C4A16998  24.456  36.871   7.655
 6680POPC   C1B16999  24.315  36.729   8.555
 6680POPC   C2B17000  24.257  36.815   8.255
 6680POPC   C3B17001  24.254  36.796   7.955
 6680POPC   C4B17002  24.244  36.801   7.655
 6681POPC   NC317003  24.538  27.602   9.455
 6681POPC   PO417004  24.458  27.582   9.155
 6681POPC   GL117005  24.505  27.616   8.855
 6681POPC   GL217006  24.472  27.504   8.855
 6681POPC   C1A17007  24.460  27.629   8.555
 6681POPC   D2A17008  24.508  27.617   8.255
 6681POPC   C3A17009  24.520  27.641   7.955
 6681POPC   C4A17010  24.480  27.632   7.655
 6681POPC   C1B17011  24.409  27.385   8.555
 6681POPC   C2B17012  24.413  27.319   8.255
 6681POPC   C3B17013  24.382  27.354   7.955
 6681POPC   C4B17014  24.382  27.341   7.655
 6682POPC   NC317015  16.775  25.296   9.455
 6682POPC   PO417016  16.709  25.283   9.155
 6682POPC   GL117017  16.745  25.251   8.855
 6682POPC   GL217018  16.819  25.115   8.855
 6682POPC   C1A17019  16.740  25.298   8.555
 6682POPC   D2A17020  16.740  25.307   8.255
 6682POPC   C3A17021  16.750  25.216   7.955
 6682POPC   C4A17022  16.711  25.268   7.655
 6682POPC   C1B17023  16.814  24.989   8.555
 6682POPC   C2B17024  16.832  25.018   8.255
 6682POPC   C3B17025  16.821  25.038   7.955
 6682POPC   C4B17026  16.785  25.031   7.655
 6683POPC   NC317027   5.919   9.013   9.455
 6683POPC   PO417028   5.914   8.948   9.155
 6683POPC   GL117029   5.909   8.968   8.855
 6683POPC   GL217030   5.885   9.140   8.855
 6683POPC   C1A17031   5.879   8.957   8.555
 6683POPC   D2A17032   5.881   9.017   8.255
 6683POPC   C3A17033   5.918   8.983   7.955
 6683POPC   C4A17034   5.886   8.950   7.655
 6683POPC   C1B17035   5.910   9.250   8.555
 6683POPC   C2B17036   5.971   9.251   8.255
 6683POPC   C3B17037   5.917   9.242   7.955
 6683POPC   C4B17038   5.951   9.183   7.655
 6684POPC   NC317039  29.168   5.121   9.455
 6684POPC   PO417040  29.130   5.083   9.155
 6684POPC   GL117041  29.109   5.065   8.855
 6684POPC   GL217042  29.273   5.102   8.855
 6684POPC   C1A17043  29.098   5.056   8.555
 6684POPC   D2A17044  29.113   5.052   8.255
 6684POPC   C3A17045  29.127   5.072   7.955
 6684POPC   C4A17046  29.097   5.109   7.655
 6684POPC   C1B17047  29.395   5.203   8.555
 6684POPC   C2B17048  29.398   5.189   8.255
 6684POPC   C3B17049  29.345   5.234   7.955
 6684POPC   C4B17050  29.331   5.202   7.655
 6685POPC   NC317051  20.628  42.297   9.455
 6685POPC   PO417052  20.614  42.343   9.155
 6685POPC   GL117053  20.657  42.371   8.855
 6685POPC   GL217054  20.469  42.269   8.855
 6685POPC   C1A17055  20.630  42.322   8.555
 6685POPC   D2A17056  20.651  42.312   8.255
 6685POPC   C3A17057  20.590  42.298   7.955
 6685POPC   C4A17058  20.573  42.306   7.655
 6685POPC   C1B17059  20.387  42.268   8.555
 6685POPC   C2B17060  20.362  42.322   8.255
 6685POPC   C3B17061  20.404  42.291   7.955
 6685POPC   C4B17062  20.344  42.282   7.655
 6686POPC   NC317063  19.015  37.706   9.455
 6686POPC   PO417064  19.048  37.640   9.155
 6686POPC   GL117065  19.014  37.676   8.855
 6686POPC   GL217066  18.946  37.646   8.855
 6686POPC   C1A17067  19.022  37.691   8.555
 6686POPC   D2A17068  19.015  37.644   8.255
 6686POPC   C3A17069  19.090  37.632   7.955
 6686POPC   C4A17070  19.094  37.709   7.655
 6686POPC   C1B17071  18.773  37.606   8.555
 6686POPC   C2B17072  18.818  37.580   8.255
 6686POPC   C3B17073  18.780  37.584   7.955
 6686POPC   C4B17074  18.840  37.613   7.655
 6687POPC   NC317075  20.565  34.585   9.455
 6687POPC   PO417076  20.627  34.623   9.155
 6687POPC   GL117077  20.608  34.535   8.855
 6687POPC   GL217078  20.540  34.629   8.855
 6687POPC   C1A17079  20.597  34.609   8.555
 6687POPC   D2A17080  20.571  34.600   8.255
 6687POPC   C3A17081  20.618  34.612   7.955
 6687POPC   C4A17082  20.581  34.588   7.655
 6687POPC   C1B17083  20.351  34.622   8.555
 6687POPC   C2B17084  20.329  34.708   8.255
 6687POPC   C3B17085  20.367  34.696   7.955
 6687POPC   C4B17086  20.417  34.673   7.655
 6688POPC   NC317087  18.235  38.504   9.455
 6688POPC   PO417088  18.279  38.428   9.155
 6688POPC   GL117089  18.328  38.493   8.855
 6688POPC   GL217090  18.156  38.565   8.855
 6688POPC   C1A17091  18.290  38.472   8.555
 6688POPC   D2A17092  18.309  38.488   8.255
 6688POPC   C3A17093  18.304  38.433   7.955
 6688POPC   C4A17094  18.294  38.410   7.655
 6688POPC   C1B17095  18.066  38.544   8.555
 6688POPC   C2B17096  18.039  38.583   8.255
 6688POPC   C3B17097  18.083  38.598   7.955
 6688POPC   C4B17098  18.101  38.620   7.655
 6689POPC   NC317099  17.464  37.684   9.455
 6689POPC   PO417100  17.470  37.656   9.155
 6689POPC   GL117101  17.494  37.704   8.855
 6689POPC   GL217102  17.594  37.798   8.855
 6689POPC   C1A17103  17.489  37.687   8.555
 6689POPC   D2A17104  17.529  37.685   8.255
 6689POPC   C3A17105  17.473  37.650   7.955
 6689POPC   C4A17106  17.473  37.690   7.655
 6689POPC   C1B17107  17.654  37.878   8.555
 6689POPC   C2B17108  17.607  37.879   8.255
 6689POPC   C3B17109  17.562  37.890   7.955
 6689POPC   C4B17110  17.579  37.938   7.655
 6690POPC   NC317111  32.278   1.172   9.455
 6690POPC   PO417112  32.288   1.169   9.155
 6690POPC   GL117113  32.259   1.172   8.855
 6690POPC   GL217114  32.417   1.176   8.855
 6690POPC   C1A17115  32.278   1.180   8.555
 6690POPC   D2A17116  32.237   1.209   8.255
 6690POPC   C3A17117  32.237   1.164   7.955
 6690POPC   C4A17118  32.239   1.174   7.655
 6690POPC   C1B17119  32.455   1.210   8.555
 6690POPC   C2B17120  32.469   1.212   8.255
 6690POPC   C3B17121  32.509   1.198   7.955
 6690POPC   C4B17122  32.548   1.269   7.655
 6691POPC   NC317123  39.967   9.009   9.455
 6691POPC   PO417124  39.964   8.979   9.155
 6691POPC   GL117125  40.021   8.952   8.855
 6691POPC   GL217126  40.056   8.845   8.855
 6691POPC   C1A17127  39.967   8.928   8.555
 6691POPC   D2A17128  39.996   8.985   8.255
 6691POPC   C3A17129  40.015   8.959   7.955
 6691POPC   C4A17130  40.004   8.955   7.655
 6691POPC   C1B17131  40.222   8.779   8.555
 6691POPC   C2B17132  40.213   8.809   8.255
 6691POPC   C3B17133  40.175   8.836   7.955
 6691POPC   C4B17134  40.218   8.801   7.655
 6692POPC   NC317135   6.693  40.770   9.455
 6692POPC   PO417136   6.611  40.803   9.155
 6692POPC   GL117137   6.604  40.760   8.855
 6692POPC   GL217138   6.689  40.926   8.855
 6692POPC   C1A17139   6.643  40.791   8.555
 6692POPC   D2A17140   6.675  40.739   8.255
 6692POPC   C3A17141   6.670  40.808   7.955
 6692POPC   C4A17142   6.686  40.747   7.655
 6692POPC   C1B17143   6.740  41.053   8.555
 6692POPC   C2B17144   6.730  40.972   8.255
 6692POPC   C3B17145   6.750  40.976   7.955
 6692POPC   C4B17146   6.770  41.052   7.655
 6693POPC   NC317147  12.073  25.228   9.455
 6693POPC   PO417148  12.113  25.283   9.155
 6693POPC   GL117149  12.122  25.271   8.855
 6693POPC   GL217150  12.024  25.330   8.855
 6693POPC   C1A17151  12.032  25.299   8.555
 6693POPC   D2A17152  12.120  25.224   8.255
 6693POPC   C3A17153  12.071  25.302   7.955
 6693POPC   C4A17154  12.087  25.227   7.655
 6693POPC   C1B17155  11.935  25.507   8.555
 6693POPC   C2B17156  12.002  25.503   8.255
 6693POPC   C3B17157  11.932  25.511   7.955
 6693POPC   C4B17158  11.910  25.463   7.655
 6694POPC   NC317159  38.437  26.056   9.455
 6694POPC   PO417160  38.467  25.998   9.155
 6694POPC   GL117161  38.418  26.027   8.855
 6694POPC   GL217162  38.511  25.961   8.855
 6694POPC   C1A17163  38.408  26.089   8.555
 6694POPC   D2A17164  38.437  26.051   8.255
 6694POPC   C3A17165  38.466  26.044   7.955
 6694POPC   C4A17166  38.500  25.999   7.655
 6694POPC   C1B17167  38.684  25.885   8.555
 6694POPC   C2B17168  38.677  25.939   8.255
 6694POPC   C3B17169  38.692  25.911   7.955
 6694POPC   C4B17170  38.637  25.931   7.655
 6695POPC   NC317171   3.553   6.661   9.455
 6695POPC   PO417172   3.509   6.622   9.155
 6695POPC   GL117173   3.495   6.614   8.855
 6695POPC   GL217174   3.500   6.551   8.855
 6695POPC   C1A17175   3.581   6.668   8.555
 6695POPC   D2A17176   3.523   6.607   8.255
 6695POPC   C3A17177   3.510   6.637   7.955
 6695POPC   C4A17178   3.586   6.632   7.655
 6695POPC   C1B17179   3.416   6.393   8.555
 6695POPC   C2B17180   3.451   6.409   8.255
 6695POPC   C3B17181   3.459   6.444   7.955
 6695POPC   C4B17182   3.443   6.415   7.655
 6696POPC   NC317183  26.811  31.467   9.455
 6696POPC   PO417184  26.802  31.461   9.155
 6696POPC   GL117185  26.817  31.470   8.855
 6696POPC   GL217186  26.732  31.538   8.855
 6696POPC   C1A17187  26.841  31.446   8.555
 6696POPC   D2A17188  26.848  31.449   8.255
 6696POPC   C3A17189  26.845  31.485   7.955
 6696POPC   C4A17190  26.842  31.446   7.655
 6696POPC   C1B17191  26.734  31.679   8.555
 6696POPC   C2B17192  26.669  31.663   8.255
 6696POPC   C3B17193  26.691  31.725   7.955
 6696POPC   C4B17194  26.688  31.677   7.655
 6697POPC   NC317195   2.802  18.254   9.455
 6697POPC   PO417196   2.805  18.247   9.155
 6697POPC   GL117197   2.771  18.244   8.855
 6697POPC   GL217198   2.708  18.201   8.855
 6697POPC   C1A17199   2.785  18.320   8.555
 6697POPC   D2A17200   2.739  18.287   8.255
 6697POPC   C3A17201   2.792  18.251   7.955
 6697POPC   C4A17202   2.787  18.309   7.655
 6697POPC   C1B17203   2.682  18.077   8.555
 6697POPC   C2B17204   2.684  18.065   8.255
 6697POPC   C3B17205   2.607  18.041   7.955
 6697POPC   C4B17206   2.673  18.056   7.655
 6698POPC   NC317207   3.573  44.640   9.455
 6698POPC   PO417208   3.511  44.698   9.155
 6698POPC   GL117209   3.529  44.616   8.855
 6698POPC   GL217210   3.490  44.521   8.855
 6698POPC   C1A17211   3.519  44.709   8.555
 6698POPC   D2A17212   3.499  44.707   8.255
 6698POPC   C3A17213   3.511  44.619   7.955
 6698POPC   C4A17214   3.495  44.622   7.655
 6698POPC   C1B17215   3.550  44.435   8.555
 6698POPC   C2B17216   3.551  44.363   8.255
 6698POPC   C3B17217   3.520  44.390   7.955
 6698POPC   C4B17218   3.492  44.459   7.655
 6699POPC   NC317219  36.108  13.640   9.455
 6699POPC   PO417220  36.084  13.584   9.155
 6699POPC   GL117221  36.151  13.591   8.855
 6699POPC   GL217222  36.017  13.572   8.855
 6699POPC   C1A17223  36.116  13.662   8.555
 6699POPC   D2A17224  36.161  13.638   8.255
 6699POPC   C3A17225  36.133  13.631   7.955
 6699POPC   C4A17226  36.095  13.578   7.655
 6699POPC   C1B17227  35.940  13.493   8.555
 6699POPC   C2B17228  35.892  13.513   8.255
 6699POPC   C3B17229  35.887  13.483   7.955
 6699POPC   C4B17230  35.877  13.502   7.655
 6700POPC   NC317231  18.306  27.543   9.455
 6700POPC   PO417232  18.250  27.621   9.155
 6700POPC   GL117233  18.308  27.623   8.855
 6700POPC   GL217234  18.354  27.664   8.855
 6700POPC   C1A17235  18.323  27.605   8.555
 6700POPC   D2A17236  18.333  27.608   8.255
 6700POPC   C3A17237  18.316  27.555   7.955
 6700POPC   C4A17238  18.305  27.566   7.655
 6700POPC   C1B17239  18.340  27.819   8.555
 6700POPC   C2B17240  18.405  27.872   8.255
 6700POPC   C3B17241  18.392  27.879   7.955
 6700POPC   C4B17242  18.358  27.830   7.655
 6701POPC   NC317243  34.544  43.912   9.455
 6701POPC   PO417244  34.581  43.866   9.155
 6701POPC   GL117245  34.620  43.898   8.855
 6701POPC   GL217246  34.681  43.770   8.855
 6701POPC   C1A17247  34.561  43.929   8.555
 6701POPC   D2A17248  34.549  43.857   8.255
 6701POPC   C3A17249  34.625  43.843   7.955
 6701POPC   C4A17250  34.608  43.862   7.655
 6701POPC   C1B17251  34.813  43.689   8.555
 6701POPC   C2B17252  34.757  43.751   8.255
 6701POPC   C3B17253  34.748  43.699   7.955
 6701POPC   C4B17254  34.742  43.724   7.655
 6702POPC   NC317255  22.924  29.102   9.455
 6702POPC   PO417256  22.918  29.112   9.155
 6702POPC   GL117257  22.957  29.113   8.855
 6702POPC   GL217258  22.812  29.121   8.855
 6702POPC   C1A17259  22.952  29.163   8.555
 6702POPC   D2A17260  22.984  29.095   8.255
 6702POPC   C3A17261  22.922  29.135   7.955
 6702POPC   C4A17262  22.929  29.167   7.655
 6702POPC   C1B17263  22.715  29.108   8.555
 6702POPC   C2B17264  22.683  29.099   8.255
 6702POPC   C3B17265  22.666  29.074   7.955
 6702POPC   C4B17266  22.694  29.063   7.655
 6703POPC   NC317267  43.856  29.102   9.455
 6703POPC   PO417268  43.877  29.192   9.155
 6703POPC   GL117269  43.934  29.128   8.855
 6703POPC   GL217270  43.838  29.270   8.855
 6703POPC   C1A17271  43.893  29.185   8.555
 6703POPC   D2A17272  43.932  29.098   8.255
 6703POPC   C3A17273  43.849  29.141   7.955
 6703POPC   C4A17274  43.891  29.098   7.655
 6703POPC   C1B17275  43.772  29.362   8.555
 6703POPC   C2B17276  43.845  29.390   8.255
 6703POPC   C3B17277  43.798  29.364   7.955
 6703POPC   C4B17278  43.859  29.398   7.655
 6704POPC   NC317279  41.571  12.824   9.455
 6704POPC   PO417280  41.515  12.867   9.155
 6704POPC   GL117281  41.536  12.898   8.855
 6704POPC   GL217282  41.595  12.713   8.855
 6704POPC   C1A17283  41.573  12.898   8.555
 6704POPC   D2A17284  41.509  12.807   8.255
 6704POPC   C3A17285  41.560  12.802   7.955
 6704POPC   C4A17286  41.547  12.828   7.655
 6704POPC   C1B17287  41.723  12.719   8.555
 6704POPC   C2B17288  41.779  12.656   8.255
 6704POPC   C3B17289  41.734  12.659   7.955
 6704POPC   C4B17290  41.690  12.628   7.655
 6705POPC   NC317291   9.021   7.377   9.455
 6705POPC   PO417292   8.946   7.418   9.155
 6705POPC   GL117293   8.955   7.387   8.855
 6705POPC   GL217294   8.910   7.269   8.855
 6705POPC   C1A17295   8.999   7.440   8.555
 6705POPC   D2A17296   8.951   7.462   8.255
 6705POPC   C3A17297   8.986   7.386   7.955
 6705POPC   C4A17298   8.933   7.459   7.655
 6705POPC   C1B17299   8.842   7.266   8.555
 6705POPC   C2B17300   8.868   7.177   8.255
 6705POPC   C3B17301   8.781   7.241   7.955
 6705POPC   C4B17302   8.784   7.253   7.655
 6706POPC   NC317303   0.479  30.670   9.455
 6706POPC   PO417304   0.432  30.686   9.155
 6706POPC   GL117305   0.475  30.653   8.855
 6706POPC   GL217306   0.475  30.603   8.855
 6706POPC   C1A17307   0.435  30.733   8.555
 6706POPC   D2A17308   0.394  30.739   8.255
 6706POPC   C3A17309   0.391  30.662   7.955
 6706POPC   C4A17310   0.475  30.690   7.655
 6706POPC   C1B17311   0.462  30.454   8.555
 6706POPC   C2B17312   0.437  30.413   8.255
 6706POPC   C3B17313   0.447  30.474   7.955
 6706POPC   C4B17314   0.480  30.417   7.655
 6707POPC   NC317315  33.846  19.063   9.455
 6707POPC   PO417316  33.797  19.023   9.155
 6707POPC   GL117317  33.820  19.036   8.855
 6707POPC   GL217318  33.760  18.976   8.855
 6707POPC   C1A17319  33.764  19.078   8.555
 6707POPC   D2A17320  33.792  19.012   8.255
 6707POPC   C3A17321  33.825  19.096   7.955
 6707POPC   C4A17322  33.836  19.030   7.655
 6707POPC   C1B17323  33.751  18.808   8.555
 6707POPC   C2B17324  33.775  18.821   8.255
 6707POPC   C3B17325  33.705  18.802   7.955
 6707POPC   C4B17326  33.783  18.829   7.655
 6708POPC   NC317327  38.458  30.699   9.455
 6708POPC   PO417328  38.450  30.706   9.155
 6708POPC   GL117329  38.504  30.684   8.855
 6708POPC   GL217330  38.417  30.590   8.855
 6708POPC   C1A17331  38.408  30.678   8.555
 6708POPC   D2A17332  38.429  30.662   8.255
 6708POPC   C3A17333  38.417  30.711   7.955
 6708POPC   C4A17334  38.495  30.740   7.655
 6708POPC   C1B17335  38.487  30.404   8.555
 6708POPC   C2B17336  38.451  30.412   8.255
 6708POPC   C3B17337  38.503  30.448   7.955
 6708POPC   C4B17338  38.485  30.420   7.655
 6709POPC   NC317339  43.061   6.670   9.455
 6709POPC   PO417340  43.068   6.641   9.155
 6709POPC   GL117341  43.099   6.618   8.855
 6709POPC   GL217342  43.251   6.648   8.855
 6709POPC   C1A17343  43.116   6.626   8.555
 6709POPC   D2A17344  43.114   6.676   8.255
 6709POPC   C3A17345  43.105   6.606   7.955
 6709POPC   C4A17346  43.137   6.626   7.655
 6709POPC   C1B17347  43.319   6.708   8.555
 6709POPC   C2B17348  43.335   6.736   8.255
 6709POPC   C3B17349  43.388   6.738   7.955
 6709POPC   C4B17350  43.322   6.715   7.655
 6710POPC   NC317351  19.047  36.109   9.455
 6710POPC   PO417352  19.072  36.156   9.155
 6710POPC   GL117353  19.053  36.168   8.855
 6710POPC   GL217354  18.956  36.154   8.855
 6710POPC   C1A17355  19.009  36.124   8.555
 6710POPC   D2A17356  19.037  36.102   8.255
 6710POPC   C3A17357  19.043  36.086   7.955
 6710POPC   C4A17358  19.010  36.087   7.655
 6710POPC   C1B17359  18.785  36.203   8.555
 6710POPC   C2B17360  18.849  36.184   8.255
 6710POPC   C3B17361  18.846  36.245   7.955
 6710POPC   C4B17362  18.845  36.165   7.655
 6711POPC   NC317363   5.075  13.645   9.455
 6711POPC   PO417364   5.086  13.628   9.155
 6711POPC   GL117365   5.129  13.631   8.855
 6711POPC   GL217366   4.930  13.687   8.855
 6711POPC   C1A17367   5.058  13.581   8.555
 6711POPC   D2A17368   5.073  13.631   8.255
 6711POPC   C3A17369   5.120  13.589   7.955
 6711POPC   C4A17370   5.077  13.622   7.655
 6711POPC   C1B17371   4.824  13.665   8.555
 6711POPC   C2B17372   4.804  13.691   8.255
 6711POPC   C3B17373   4.870  13.670   7.955
 6711POPC   C4B17374   4.818  13.623   7.655
 6712POPC   NC317375  32.265  18.276   9.455
 6712POPC   PO417376  32.229  18.294   9.155
 6712POPC   GL117377  32.276  18.331   8.855
 6712POPC   GL217378  32.138  18.361   8.855
 6712POPC   C1A17379  32.227  18.311   8.555
 6712POPC   D2A17380  32.279  18.277   8.255
 6712POPC   C3A17381  32.206  18.263   7.955
 6712POPC   C4A17382  32.255  18.258   7.655
 6712POPC   C1B17383  32.112  18.454   8.555
 6712POPC   C2B17384  32.129  18.459   8.255
 6712POPC   C3B17385  32.126  18.541   7.955
 6712POPC   C4B17386  32.081  18.500   7.655
 6713POPC   NC317387   4.293  25.994   9.455
 6713POPC   PO417388   4.328  26.089   9.155
 6713POPC   GL117389   4.311  26.059   8.855
 6713POPC   GL217390   4.255  26.141   8.855
 6713POPC   C1A17391   4.277  26.061   8.555
 6713POPC   D2A17392   4.320  26.089   8.255
 6713POPC   C3A17393   4.363  26.056   7.955
 6713POPC   C4A17394   4.302  26.073   7.655
 6713POPC   C1B17395   4.216  26.272   8.555
 6713POPC   C2B17396   4.254  26.270   8.255
 6713POPC   C3B17397   4.200  26.230   7.955
 6713POPC   C4B17398   4.168  26.238   7.655
 6714POPC   NC317399  19.813  14.431   9.455
 6714POPC   PO417400  19.791  14.414   9.155
 6714POPC   GL117401  19.851  14.416   8.855
 6714POPC   GL217402  19.722  14.445   8.855
 6714POPC   C1A17403  19.787  14.452   8.555
 6714POPC   D2A17404  19.831  14.406   8.255
 6714POPC   C3A17405  19.854  14.401   7.955
 6714POPC   C4A17406  19.821  14.422   7.655
 6714POPC   C1B17407  19.601  14.559   8.555
 6714POPC   C2B17408  19.655  14.572   8.255
 6714POPC   C3B17409  19.680  14.565   7.955
 6714POPC   C4B17410  19.659  14.608   7.655
 6715POPC   NC317411  20.636  29.110   9.455
 6715POPC   PO417412  20.629  29.138   9.155
 6715POPC   GL117413  20.631  29.188   8.855
 6715POPC   GL217414  20.668  29.004   8.855
 6715POPC   C1A17415  20.649  29.134   8.555
 6715POPC   D2A17416  20.609  29.163   8.255
 6715POPC   C3A17417  20.625  29.103   7.955
 6715POPC   C4A17418  20.636  29.148   7.655
 6715POPC   C1B17419  20.687  28.939   8.555
 6715POPC   C2B17420  20.723  28.935   8.255
 6715POPC   C3B17421  20.701  28.962   7.955
 6715POPC   C4B17422  20.767  28.916   7.655
 6716POPC   NC317423  39.219  25.309   9.455
 6716POPC   PO417424  39.222  25.263   9.155
 6716POPC   GL117425  39.265  25.312   8.855
 6716POPC   GL217426  39.283  25.139   8.855
 6716POPC   C1A17427  39.243  25.264   8.555
 6716POPC   D2A17428  39.226  25.251   8.255
 6716POPC   C3A17429  39.269  25.264   7.955
 6716POPC   C4A17430  39.232  25.272   7.655
 6716POPC   C1B17431  39.454  25.126   8.555
 6716POPC   C2B17432  39.400  25.079   8.255
 6716POPC   C3B17433  39.395  25.125   7.955
 6716POPC   C4B17434  39.381  25.105   7.655
 6717POPC   NC317435  27.594   2.031   9.455
 6717POPC   PO417436  27.605   1.979   9.155
 6717POPC   GL117437  27.618   1.996   8.855
 6717POPC   GL217438  27.494   1.996   8.855
 6717POPC   C1A17439  27.635   1.952   8.555
 6717POPC   D2A17440  27.593   1.961   8.255
 6717POPC   C3A17441  27.581   2.011   7.955
 6717POPC   C4A17442  27.627   1.961   7.655
 6717POPC   C1B17443  27.404   2.089   8.555
 6717POPC   C2B17444  27.335   2.087   8.255
 6717POPC   C3B17445  27.323   2.063   7.955
 6717POPC   C4B17446  27.390   2.084   7.655
 6718POPC   NC317447  36.912   5.130   9.455
 6718POPC   PO417448  36.860   5.106   9.155
 6718POPC   GL117449  36.894   5.132   8.855
 6718POPC   GL217450  36.996   5.085   8.855
 6718POPC   C1A17451  36.911   5.061   8.555
 6718POPC   D2A17452  36.868   5.067   8.255
 6718POPC   C3A17453  36.879   5.138   7.955
 6718POPC   C4A17454  36.950   5.102   7.655
 6718POPC   C1B17455  37.113   5.174   8.555
 6718POPC   C2B17456  37.186   5.122   8.255
 6718POPC   C3B17457  37.099   5.167   7.955
 6718POPC   C4B17458  37.104   5.201   7.655
 6719POPC   NC317459  22.194  22.980   9.455
 6719POPC   PO417460  22.119  22.922   9.155
 6719POPC   GL117461  22.161  22.900   8.855
 6719POPC   GL217462  22.201  22.995   8.855
 6719POPC   C1A17463  22.163  22.924   8.555
 6719POPC   D2A17464  22.149  22.932   8.255
 6719POPC   C3A17465  22.159  22.946   7.955
 6719POPC   C4A17466  22.152  22.968   7.655
 6719POPC   C1B17467  22.329  23.149   8.555
 6719POPC   C2B17468  22.286  23.127   8.255
 6719POPC   C3B17469  22.299  23.115   7.955
 6719POPC   C4B17470  22.309  23.151   7.655
 6720POPC   NC317471   3.504  28.386   9.455
 6720POPC   PO417472   3.556  28.390   9.155
 6720POPC   GL117473   3.535  28.415   8.855
 6720POPC   GL217474   3.465  28.314   8.855
 6720POPC   C1A17475   3.554  28.418   8.555
 6720POPC   D2A17476   3.577  28.355   8.255
 6720POPC   C3A17477   3.578  28.350   7.955
 6720POPC   C4A17478   3.578  28.325   7.655
 6720POPC   C1B17479   3.426  28.187   8.555
 6720POPC   C2B17480   3.366  28.155   8.255
 6720POPC   C3B17481   3.336  28.172   7.955
 6720POPC   C4B17482   3.430  28.124   7.655
 6721POPC   NC317483  22.141  33.014   9.455
 6721POPC   PO417484  22.176  33.056   9.155
 6721POPC   GL117485  22.163  33.026   8.855
 6721POPC   GL217486  22.149  32.917   8.855
 6721POPC   C1A17487  22.208  33.047   8.555
 6721POPC   D2A17488  22.134  32.998   8.255
 6721POPC   C3A17489  22.131  33.047   7.955
 6721POPC   C4A17490  22.161  32.978   7.655
 6721POPC   C1B17491  22.199  32.778   8.555
 6721POPC   C2B17492  22.242  32.784   8.255
 6721POPC   C3B17493  22.223  32.738   7.955
 6721POPC   C4B17494  22.163  32.735   7.655
 6722POPC   NC317495   9.729  15.953   9.455
 6722POPC   PO417496   9.776  15.971   9.155
 6722POPC   GL117497   9.718  15.978   8.855
 6722POPC   GL217498   9.628  15.812   8.855
 6722POPC   C1A17499   9.768  15.910   8.555
 6722POPC   D2A17500   9.758  15.925   8.255
 6722POPC   C3A17501   9.771  15.953   7.955
 6722POPC   C4A17502   9.715  15.972   7.655
 6722POPC   C1B17503   9.592  15.731   8.555
 6722POPC   C2B17504   9.582  15.744   8.255
 6722POPC   C3B17505   9.598  15.724   7.955
 6722POPC   C4B17506   9.578  15.735   7.655
 6723POPC   NC317507  35.343  44.621   9.455
 6723POPC   PO417508  35.399  44.703   9.155
 6723POPC   GL117509  35.368  44.679   8.855
 6723POPC   GL217510  35.213  44.637   8.855
 6723POPC   C1A17511  35.313  44.678   8.555
 6723POPC   D2A17512  35.338  44.674   8.255
 6723POPC   C3A17513  35.335  44.709   7.955
 6723POPC   C4A17514  35.317  44.632   7.655
 6723POPC   C1B17515  35.079  44.606   8.555
 6723POPC   C2B17516  35.061  44.603   8.255
 6723POPC   C3B17517  35.059  44.613   7.955
 6723POPC   C4B17518  35.104  44.667   7.655
 6724POPC   NC317519   1.963  40.738   9.455
 6724POPC   PO417520   1.979  40.812   9.155
 6724POPC   GL117521   1.946  40.754   8.855
 6724POPC   GL217522   1.873  40.812   8.855
 6724POPC   C1A17523   1.971  40.808   8.555
 6724POPC   D2A17524   1.992  40.812   8.255
 6724POPC   C3A17525   1.987  40.734   7.955
 6724POPC   C4A17526   2.030  40.734   7.655
 6724POPC   C1B17527   1.749  40.770   8.555
 6724POPC   C2B17528   1.709  40.719   8.255
 6724POPC   C3B17529   1.757  40.813   7.955
 6724POPC   C4B17530   1.707  40.758   7.655
 6725POPC   NC317531  20.604  39.225   9.455
 6725POPC   PO417532  20.609  39.243   9.155
 6725POPC   GL117533  20.582  39.236   8.855
 6725POPC   GL217534  20.528  39.160   8.855
 6725POPC   C1A17535  20.565  39.214   8.555
 6725POPC   D2A17536  20.576  39.186   8.255
 6725POPC   C3A17537  20.580  39.231   7.955
 6725POPC   C4A17538  20.569  39.187   7.655
 6725POPC   C1B17539  20.411  39.206   8.555
 6725POPC   C2B17540  20.369  39.213   8.255
 6725POPC   C3B17541  20.336  39.208   7.955
 6725POPC   C4B17542  20.354  39.198   7.655
 6726POPC   NC317543  23.693  43.856   9.455
 6726POPC   PO417544  23.756  43.844   9.155
 6726POPC   GL117545  23.719  43.867   8.855
 6726POPC   GL217546  23.852  43.881   8.855
 6726POPC   C1A17547  23.729  43.900   8.555
 6726POPC   D2A17548  23.694  43.896   8.255
 6726POPC   C3A17549  23.718  43.936   7.955
 6726POPC   C4A17550  23.755  43.900   7.655
 6726POPC   C1B17551  23.954  43.977   8.555
 6726POPC   C2B17552  23.994  43.997   8.255
 6726POPC   C3B17553  23.942  43.966   7.955
 6726POPC   C4B17554  23.944  43.926   7.655
 6727POPC   NC317555   8.213  17.527   9.455
 6727POPC   PO417556   8.202  17.485   9.155
 6727POPC   GL117557   8.162  17.463   8.855
 6727POPC   GL217558   8.103  17.446   8.855
 6727POPC   C1A17559   8.200  17.549   8.555
 6727POPC   D2A17560   8.217  17.510   8.255
 6727POPC   C3A17561   8.179  17.480   7.955
 6727POPC   C4A17562   8.166  17.464   7.655
 6727POPC   C1B17563   8.013  17.337   8.555
 6727POPC   C2B17564   8.012  17.297   8.255
 6727POPC   C3B17565   8.038  17.372   7.955
 6727POPC   C4B17566   8.005  17.337   7.655
 6728POPC   NC317567  26.017  43.130   9.455
 6728POPC   PO417568  25.996  43.092   9.155
 6728POPC   GL117569  26.089  43.101   8.855
 6728POPC   GL217570  26.156  43.187   8.855
 6728POPC   C1A17571  26.063  43.134   8.555
 6728POPC   D2A17572  25.993  43.139   8.255
 6728POPC   C3A17573  26.007  43.083   7.955
 6728POPC   C4A17574  25.992  43.098   7.655
 6728POPC   C1B17575  26.154  43.329   8.555
 6728POPC   C2B17576  26.161  43.348   8.255
 6728POPC   C3B17577  26.196  43.347   7.955
 6728POPC   C4B17578  26.163  43.258   7.655
 6729POPC   NC317579  40.774  25.308   9.455
 6729POPC   PO417580  40.823  25.292   9.155
 6729POPC   GL117581  40.807  25.301   8.855
 6729POPC   GL217582  40.700  25.257   8.855
 6729POPC   C1A17583  40.746  25.234   8.555
 6729POPC   D2A17584  40.769  25.293   8.255
 6729POPC   C3A17585  40.750  25.237   7.955
 6729POPC   C4A17586  40.807  25.271   7.655
 6729POPC   C1B17587  40.571  25.121   8.555
 6729POPC   C2B17588  40.518  25.151   8.255
 6729POPC   C3B17589  40.544  25.124   7.955
 6729POPC   C4B17590  40.521  25.195   7.655
 6730POPC   NC317591  24.485  32.258   9.455
 6730POPC   PO417592  24.521  32.208   9.155
 6730POPC   GL117593  24.524  32.238   8.855
 6730POPC   GL217594  24.607  32.321   8.855
 6730POPC   C1A17595  24.444  32.280   8.555
 6730POPC   D2A17596  24.526  32.251   8.255
 6730POPC   C3A17597  24.481  32.236   7.955
 6730POPC   C4A17598  24.497  32.256   7.655
 6730POPC   C1B17599  24.666  32.395   8.555
 6730POPC   C2B17600  24.689  32.404   8.255
 6730POPC   C3B17601  24.664  32.369   7.955
 6730POPC   C4B17602  24.732  32.362   7.655
 6731POPC   NC317603  12.870  22.944   9.455
 6731POPC   PO417604  12.896  22.948   9.155
 6731POPC   GL117605  12.878  22.973   8.855
 6731POPC   GL217606  12.981  22.860   8.855
 6731POPC   C1A17607  12.833  22.913   8.555
 6731POPC   D2A17608  12.872  22.919   8.255
 6731POPC   C3A17609  12.857  22.925   7.955
 6731POPC   C4A17610  12.841  22.967   7.655
 6731POPC   C1B17611  13.048  22.827   8.555
 6731POPC   C2B17612  13.051  22.856   8.255
 6731POPC   C3B17613  13.096  22.854   7.955
 6731POPC   C4B17614  13.117  22.837   7.655
 6732POPC   NC317615   1.239  17.552   9.455
 6732POPC   PO417616   1.247  17.533   9.155
 6732POPC   GL117617   1.166  17.526   8.855
 6732POPC   GL217618   1.104  17.470   8.855
 6732POPC   C1A17619   1.248  17.507   8.555
 6732POPC   D2A17620   1.239  17.520   8.255
 6732POPC   C3A17621   1.184  17.464   7.955
 6732POPC   C4A17622   1.216  17.528   7.655
 6732POPC   C1B17623   0.939  17.554   8.555
 6732POPC   C2B17624   0.971  17.530   8.255
 6732POPC   C3B17625   0.926  17.517   7.955
 6732POPC   C4B17626   0.923  17.473   7.655
 6733POPC   NC317627   2.003  43.097   9.455
 6733POPC   PO417628   1.953  43.103   9.155
 6733POPC   GL117629   2.021  43.108   8.855
 6733POPC   GL217630   1.834  43.040   8.855
 6733POPC   C1A17631   2.021  43.129   8.555
 6733POPC   D2A17632   2.026  43.094   8.255
 6733POPC   C3A17633   2.024  43.122   7.955
 6733POPC   C4A17634   1.975  43.106   7.655
 6733POPC   C1B17635   1.702  43.021   8.555
 6733POPC   C2B17636   1.726  43.009   8.255
 6733POPC   C3B17637   1.784  43.003   7.955
 6733POPC   C4B17638   1.779  43.064   7.655
 6734POPC   NC317639  29.188  22.181   9.455
 6734POPC   PO417640  29.128  22.115   9.155
 6734POPC   GL117641  29.098  22.167   8.855
 6734POPC   GL217642  29.059  22.216   8.855
 6734POPC   C1A17643  29.127  22.142   8.555
 6734POPC   D2A17644  29.096  22.124   8.255
 6734POPC   C3A17645  29.112  22.122   7.955
 6734POPC   C4A17646  29.160  22.140   7.655
 6734POPC   C1B17647  28.878  22.163   8.555
 6734POPC   C2B17648  28.850  22.209   8.255
 6734POPC   C3B17649  28.870  22.230   7.955
 6734POPC   C4B17650  28.936  22.170   7.655
 6735POPC   NC317651  15.980  40.751   9.455
 6735POPC   PO417652  15.916  40.755   9.155
 6735POPC   GL117653  15.924  40.758   8.855
 6735POPC   GL217654  16.022  40.952   8.855
 6735POPC   C1A17655  15.929  40.800   8.555
 6735POPC   D2A17656  15.985  40.811   8.255
 6735POPC   C3A17657  15.985  40.733   7.955
 6735POPC   C4A17658  15.950  40.764   7.655
 6735POPC   C1B17659  15.972  41.022   8.555
 6735POPC   C2B17660  15.991  41.003   8.255
 6735POPC   C3B17661  16.053  41.006   7.955
 6735POPC   C4B17662  16.026  41.062   7.655
 6736POPC   NC317663  21.428  25.247   9.455
 6736POPC   PO417664  21.355  25.250   9.155
 6736POPC   GL117665  21.360  25.297   8.855
 6736POPC   GL217666  21.495  25.329   8.855
 6736POPC   C1A17667  21.363  25.259   8.555
 6736POPC   D2A17668  21.337  25.221   8.255
 6736POPC   C3A17669  21.430  25.262   7.955
 6736POPC   C4A17670  21.348  25.217   7.655
 6736POPC   C1B17671  21.566  25.418   8.555
 6736POPC   C2B17672  21.545  25.436   8.255
 6736POPC   C3B17673  21.572  25.413   7.955
 6736POPC   C4B17674  21.549  25.417   7.655
 6737POPC   NC317675  13.616  23.742   9.455
 6737POPC   PO417676  13.587  23.738   9.155
 6737POPC   GL117677  13.647  23.690   8.855
 6737POPC   GL217678  13.713  23.684   8.855
 6737POPC   C1A17679  13.621  23.699   8.555
 6737POPC   D2A17680  13.586  23.672   8.255
 6737POPC   C3A17681  13.671  23.759   7.955
 6737POPC   C4A17682  13.637  23.725   7.655
 6737POPC   C1B17683  13.880  23.672   8.555
 6737POPC   C2B17684  13.850  23.681   8.255
 6737POPC   C3B17685  13.879  23.692   7.955
 6737POPC   C4B17686  13.874  23.705   7.655
 6738POPC   NC317687  11.325  38.447   9.455
 6738POPC   PO417688  11.286  38.500   9.155
 6738POPC   GL117689  11.282  38.495   8.855
 6738POPC   GL217690  11.464  38.460   8.855
 6738POPC   C1A17691  11.293  38.486   8.555
 6738POPC   D2A17692  11.274  38.409   8.255
 6738POPC   C3A17693  11.258  38.436   7.955
 6738POPC   C4A17694  11.252  38.445   7.655
 6738POPC   C1B17695  11.583  38.435   8.555
 6738POPC   C2B17696  11.564  38.492   8.255
 6738POPC   C3B17697  11.552  38.484   7.955
 6738POPC   C4B17698  11.518  38.447   7.655
 6739POPC   NC317699  34.548  19.014   9.455
 6739POPC   PO417700  34.555  19.023   9.155
 6739POPC   GL117701  34.564  19.057   8.855
 6739POPC   GL217702  34.624  19.190   8.855
 6739POPC   C1A17703  34.555  19.066   8.555
 6739POPC   D2A17704  34.592  19.080   8.255
 6739POPC   C3A17705  34.587  19.032   7.955
 6739POPC   C4A17706  34.564  19.083   7.655
 6739POPC   C1B17707  34.776  19.246   8.555
 6739POPC   C2B17708  34.762  19.218   8.255
 6739POPC   C3B17709  34.730  19.242   7.955
 6739POPC   C4B17710  34.727  19.240   7.655
 6740POPC   NC317711  39.224   5.910   9.455
 6740POPC   PO417712  39.260   5.911   9.155
 6740POPC   GL117713  39.206   5.919   8.855
 6740POPC   GL217714  39.137   5.932   8.855
 6740POPC   C1A17715  39.182   5.854   8.555
 6740POPC   D2A17716  39.185   5.823   8.255
 6740POPC   C3A17717  39.188   5.860   7.955
 6740POPC   C4A17718  39.213   5.886   7.655
 6740POPC   C1B17719  39.012   5.901   8.555
 6740POPC   C2B17720  38.986   5.934   8.255
 6740POPC   C3B17721  38.955   5.984   7.955
 6740POPC   C4B17722  38.976   5.913   7.655
 6741POPC   NC317723   0.462  27.543   9.455
 6741POPC   PO417724   0.391  27.624   9.155
 6741POPC   GL117725   0.393  27.566   8.855
 6741POPC   GL217726   0.325  27.572   8.855
 6741POPC   C1A17727   0.461  27.544   8.555
 6741POPC   D2A17728   0.441  27.544   8.255
 6741POPC   C3A17729   0.416  27.561   7.955
 6741POPC   C4A17730   0.453  27.603   7.655
 6741POPC   C1B17731   0.160  27.532   8.555
 6741POPC   C2B17732   0.223  27.473   8.255
 6741POPC   C3B17733   0.193  27.482   7.955
 6741POPC   C4B17734   0.181  27.495   7.655
 6742POPC   NC317735  28.374  19.800   9.455
 6742POPC   PO417736  28.342  19.795   9.155
 6742POPC   GL117737  28.391  19.806   8.855
 6742POPC   GL217738  28.248  19.778   8.855
 6742POPC   C1A17739  28.368  19.844   8.555
 6742POPC   D2A17740  28.365  19.838   8.255
 6742POPC   C3A17741  28.328  19.813   7.955
 6742POPC   C4A17742  28.353  19.786   7.655
 6742POPC   C1B17743  28.184  19.707   8.555
 6742POPC   C2B17744  28.126  19.716   8.255
 6742POPC   C3B17745  28.175  19.692   7.955
 6742POPC   C4B17746  28.167  19.734   7.655
 6743POPC   NC317747  19.792  43.871   9.455
 6743POPC   PO417748  19.852  43.926   9.155
 6743POPC   GL117749  19.789  43.851   8.855
 6743POPC   GL217750  19.825  44.038   8.855
 6743POPC   C1A17751  19.819  43.931   8.555
 6743POPC   D2A17752  19.870  43.878   8.255
 6743POPC   C3A17753  19.854  43.910   7.955
 6743POPC   C4A17754  19.803  43.887   7.655
 6743POPC   C1B17755  19.792  44.096   8.555
 6743POPC   C2B17756  19.743  44.120   8.255
 6743POPC   C3B17757  19.749  44.086   7.955
 6743POPC   C4B17758  19.808  44.161   7.655
 6744POPC   NC317759  33.040  29.957   9.455
 6744POPC   PO417760  33.050  29.904   9.155
 6744POPC   GL117761  33.031  29.895   8.855
 6744POPC   GL217762  32.958  29.988   8.855
 6744POPC   C1A17763  33.059  29.888   8.555
 6744POPC   D2A17764  32.991  29.880   8.255
 6744POPC   C3A17765  32.982  29.924   7.955
 6744POPC   C4A17766  32.982  29.966   7.655
 6744POPC   C1B17767  32.849  30.069   8.555
 6744POPC   C2B17768  32.857  30.070   8.255
 6744POPC   C3B17769  32.864  30.110   7.955
 6744POPC   C4B17770  32.806  30.061   7.655
 6745POPC   NC317771  14.435   1.233   9.455
 6745POPC   PO417772  14.377   1.221   9.155
 6745POPC   GL117773  14.355   1.255   8.855
 6745POPC   GL217774  14.518   1.121   8.855
 6745POPC   C1A17775  14.384   1.172   8.555
 6745POPC   D2A17776  14.368   1.259   8.255
 6745POPC   C3A17777  14.414   1.228   7.955
 6745POPC   C4A17778  14.384   1.203   7.655
 6745POPC   C1B17779  14.546   1.073   8.555
 6745POPC   C2B17780  14.563   1.053   8.255
 6745POPC   C3B17781  14.625   0.996   7.955
 6745POPC   C4B17782  14.549   1.023   7.655
 6746POPC   NC317783  41.594  17.485   9.455
 6746POPC   PO417784  41.593  17.556   9.155
 6746POPC   GL117785  41.606  17.508   8.855
 6746POPC   GL217786  41.615  17.675   8.855
 6746POPC   C1A17787  41.575  17.512   8.555
 6746POPC   D2A17788  41.597  17.483   8.255
 6746POPC   C3A17789  41.590  17.461   7.955
 6746POPC   C4A17790  41.578  17.463   7.655
 6746POPC   C1B17791  41.585  17.800   8.555
 6746POPC   C2B17792  41.629  17.733   8.255
 6746POPC   C3B17793  41.599  17.708   7.955
 6746POPC   C4B17794  41.530  17.739   7.655
 6747POPC   NC317795  14.421  15.226   9.455
 6747POPC   PO417796  14.392  15.213   9.155
 6747POPC   GL117797  14.399  15.186   8.855
 6747POPC   GL217798  14.319  15.120   8.855
 6747POPC   C1A17799  14.447  15.168   8.555
 6747POPC   D2A17800  14.372  15.162   8.255
 6747POPC   C3A17801  14.392  15.148   7.955
 6747POPC   C4A17802  14.379  15.167   7.655
 6747POPC   C1B17803  14.161  15.072   8.555
 6747POPC   C2B17804  14.204  15.037   8.255
 6747POPC   C3B17805  14.232  15.043   7.955
 6747POPC   C4B17806  14.157  15.006   7.655
 6748POPC   NC317807  41.550  25.239   9.455
 6748POPC   PO417808  41.605  25.272   9.155
 6748POPC   GL117809  41.563  25.292   8.855
 6748POPC   GL217810  41.710  25.208   8.855
 6748POPC   C1A17811  41.542  25.311   8.555
 6748POPC   D2A17812  41.534  25.295   8.255
 6748POPC   C3A17813  41.542  25.232   7.955
 6748POPC   C4A17814  41.608  25.244   7.655
 6748POPC   C1B17815  41.817  25.257   8.555
 6748POPC   C2B17816  41.812  25.274   8.255
 6748POPC   C3B17817  41.761  25.207   7.955
 6748POPC   C4B17818  41.810  25.189   7.655
 6749POPC   NC317819   6.608  27.624   9.455
 6749POPC   PO417820   6.601  27.622   9.155
 6749POPC   GL117821   6.636  27.635   8.855
 6749POPC   GL217822   6.708  27.512   8.855
 6749POPC   C1A17823   6.694  27.599   8.555
 6749POPC   D2A17824   6.619  27.547   8.255
 6749POPC   C3A17825   6.666  27.556   7.955
 6749POPC   C4A17826   6.613  27.589   7.655
 6749POPC   C1B17827   6.775  27.417   8.555
 6749POPC   C2B17828   6.792  27.410   8.255
 6749POPC   C3B17829   6.745  27.347   7.955
 6749POPC   C4B17830   6.831  27.376   7.655
 6750POPC   NC317831   2.792  36.168   9.455
 6750POPC   PO417832   2.779  36.081   9.155
 6750POPC   GL117833   2.772  36.131   8.855
 6750POPC   GL217834   2.813  36.202   8.855
 6750POPC   C1A17835   2.815  36.097   8.555
 6750POPC   D2A17836   2.721  36.144   8.255
 6750POPC   C3A17837   2.726  36.085   7.955
 6750POPC   C4A17838   2.808  36.129   7.655
 6750POPC   C1B17839   2.834  36.336   8.555
 6750POPC   C2B17840   2.854  36.367   8.255
 6750POPC   C3B17841   2.850  36.381   7.955
 6750POPC   C4B17842   2.878  36.358   7.655
 6751POPC   NC317843   3.544   8.175   9.455
 6751POPC   PO417844   3.578   8.171   9.155
 6751POPC   GL117845   3.507   8.193   8.855
 6751POPC   GL217846   3.707   8.219   8.855
 6751POPC   C1A17847   3.513   8.232   8.555
 6751POPC   D2A17848   3.589   8.161   8.255
 6751POPC   C3A17849   3.544   8.203   7.955
 6751POPC   C4A17850   3.497   8.211   7.655
 6751POPC   C1B17851   3.771   8.237   8.555
 6751POPC   C2B17852   3.788   8.282   8.255
 6751POPC   C3B17853   3.784   8.283   7.955
 6751POPC   C4B17854   3.820   8.292   7.655
 6752POPC   NC317855  19.016  43.155   9.455
 6752POPC   PO417856  19.084  43.144   9.155
 6752POPC   GL117857  19.044  43.122   8.855
 6752POPC   GL217858  19.051  42.952   8.855
 6752POPC   C1A17859  19.092  43.133   8.555
 6752POPC   D2A17860  19.107  43.088   8.255
 6752POPC   C3A17861  19.015  43.124   7.955
 6752POPC   C4A17862  19.085  43.139   7.655
 6752POPC   C1B17863  19.039  42.911   8.555
 6752POPC   C2B17864  18.965  42.832   8.255
 6752POPC   C3B17865  18.963  42.912   7.955
 6752POPC   C4B17866  19.048  42.838   7.655
 6753POPC   NC317867   5.847  26.062   9.455
 6753POPC   PO417868   5.822  26.036   9.155
 6753POPC   GL117869   5.839  25.997   8.855
 6753POPC   GL217870   5.831  26.133   8.855
 6753POPC   C1A17871   5.835  26.028   8.555
 6753POPC   D2A17872   5.894  26.020   8.255
 6753POPC   C3A17873   5.835  26.034   7.955
 6753POPC   C4A17874   5.824  26.051   7.655
 6753POPC   C1B17875   5.860  26.289   8.555
 6753POPC   C2B17876   5.815  26.305   8.255
 6753POPC   C3B17877   5.800  26.335   7.955
 6753POPC   C4B17878   5.820  26.293   7.655
 6754POPC   NC317879   3.530  43.132   9.455
 6754POPC   PO417880   3.581  43.105   9.155
 6754POPC   GL117881   3.547  43.158   8.855
 6754POPC   GL217882   3.483  43.235   8.855
 6754POPC   C1A17883   3.536  43.126   8.555
 6754POPC   D2A17884   3.495  43.087   8.255
 6754POPC   C3A17885   3.563  43.068   7.955
 6754POPC   C4A17886   3.582  43.079   7.655
 6754POPC   C1B17887   3.428  43.348   8.555
 6754POPC   C2B17888   3.474  43.323   8.255
 6754POPC   C3B17889   3.514  43.303   7.955
 6754POPC   C4B17890   3.426  43.315   7.655
 6755POPC   NC317891  29.174   8.961   9.455
 6755POPC   PO417892  29.168   8.942   9.155
 6755POPC   GL117893  29.185   9.021   8.855
 6755POPC   GL217894  29.119   9.126   8.855
 6755POPC   C1A17895  29.180   8.951   8.555
 6755POPC   D2A17896  29.127   9.005   8.255
 6755POPC   C3A17897  29.128   8.926   7.955
 6755POPC   C4A17898  29.128   8.924   7.655
 6755POPC   C1B17899  29.105   9.258   8.555
 6755POPC   C2B17900  29.109   9.203   8.255
 6755POPC   C3B17901  29.023   9.164   7.955
 6755POPC   C4B17902  29.040   9.203   7.655
 6756POPC   NC317903  12.851  39.186   9.455
 6756POPC   PO417904  12.873  39.213   9.155
 6756POPC   GL117905  12.848  39.185   8.855
 6756POPC   GL217906  12.941  39.160   8.855
 6756POPC   C1A17907  12.900  39.204   8.555
 6756POPC   D2A17908  12.829  39.235   8.255
 6756POPC   C3A17909  12.857  39.228   7.955
 6756POPC   C4A17910  12.870  39.194   7.655
 6756POPC   C1B17911  13.129  39.135   8.555
 6756POPC   C2B17912  13.089  39.112   8.255
 6756POPC   C3B17913  13.118  39.159   7.955
 6756POPC   C4B17914  13.073  39.192   7.655
 6757POPC   NC317915  33.824  26.816   9.455
 6757POPC   PO417916  33.754  26.801   9.155
 6757POPC   GL117917  33.775  26.786   8.855
 6757POPC   GL217918  33.724  26.948   8.855
 6757POPC   C1A17919  33.845  26.840   8.555
 6757POPC   D2A17920  33.756  26.853   8.255
 6757POPC   C3A17921  33.832  26.789   7.955
 6757POPC   C4A17922  33.830  26.825   7.655
 6757POPC   C1B17923  33.660  27.043   8.555
 6757POPC   C2B17924  33.720  27.010   8.255
 6757POPC   C3B17925  33.698  27.025   7.955
 6757POPC   C4B17926  33.711  27.065   7.655
 6758POPC   NC317927  21.341  12.055   9.455
 6758POPC   PO417928  21.359  12.043   9.155
 6758POPC   GL117929  21.344  12.079   8.855
 6758POPC   GL217930  21.236  12.112   8.855
 6758POPC   C1A17931  21.423  12.058   8.555
 6758POPC   D2A17932  21.387  12.086   8.255
 6758POPC   C3A17933  21.355  12.117   7.955
 6758POPC   C4A17934  21.372  12.062   7.655
 6758POPC   C1B17935  21.144  12.122   8.555
 6758POPC   C2B17936  21.158  12.104   8.255
 6758POPC   C3B17937  21.157  12.121   7.955
 6758POPC   C4B17938  21.151  12.127   7.655
 6759POPC   NC317939  43.893  33.796   9.455
 6759POPC   PO417940  43.880  33.832   9.155
 6759POPC   GL117941  43.855  33.835   8.855
 6759POPC   GL217942  43.787  33.817   8.855
 6759POPC   C1A17943  43.838  33.809   8.555
 6759POPC   D2A17944  43.872  33.826   8.255
 6759POPC   C3A17945  43.851  33.780   7.955
 6759POPC   C4A17946  43.883  33.799   7.655
 6759POPC   C1B17947  43.646  33.885   8.555
 6759POPC   C2B17948  43.675  33.867   8.255
 6759POPC   C3B17949  43.672  33.939   7.955
 6759POPC   C4B17950  43.646  33.941   7.655
 6760POPC   NC317951   1.979  11.250   9.455
 6760POPC   PO417952   1.983  11.310   9.155
 6760POPC   GL117953   1.975  11.333   8.855
 6760POPC   GL217954   2.053  11.438   8.855
 6760POPC   C1A17955   1.941  11.270   8.555
 6760POPC   D2A17956   2.013  11.333   8.255
 6760POPC   C3A17957   1.954  11.322   7.955
 6760POPC   C4A17958   1.962  11.314   7.655
 6760POPC   C1B17959   2.168  11.446   8.555
 6760POPC   C2B17960   2.146  11.529   8.255
 6760POPC   C3B17961   2.184  11.482   7.955
 6760POPC   C4B17962   2.137  11.448   7.655
 6761POPC   NC317963  41.603  42.369   9.455
 6761POPC   PO417964  41.541  42.364   9.155
 6761POPC   GL117965  41.545  42.345   8.855
 6761POPC   GL217966  41.699  42.346   8.855
 6761POPC   C1A17967  41.557  42.296   8.555
 6761POPC   D2A17968  41.517  42.373   8.255
 6761POPC   C3A17969  41.574  42.329   7.955
 6761POPC   C4A17970  41.592  42.349   7.655
 6761POPC   C1B17971  41.856  42.319   8.555
 6761POPC   C2B17972  41.835  42.370   8.255
 6761POPC   C3B17973  41.796  42.343   7.955
 6761POPC   C4B17974  41.760  42.338   7.655
 6762POPC   NC317975  25.254  23.733   9.455
 6762POPC   PO417976  25.243  23.672   9.155
 6762POPC   GL117977  25.252  23.734   8.855
 6762POPC   GL217978  25.333  23.747   8.855
 6762POPC   C1A17979  25.237  23.756   8.555
 6762POPC   D2A17980  25.294  23.745   8.255
 6762POPC   C3A17981  25.276  23.706   7.955
 6762POPC   C4A17982  25.235  23.687   7.655
 6762POPC   C1B17983  25.519  23.890   8.555
 6762POPC   C2B17984  25.500  23.797   8.255
 6762POPC   C3B17985  25.447  23.813   7.955
 6762POPC   C4B17986  25.442  23.851   7.655
 6763POPC   NC317987  33.822   2.801   9.455
 6763POPC   PO417988  33.759   2.761   9.155
 6763POPC   GL117989  33.829   2.801   8.855
 6763POPC   GL217990  33.924   2.693   8.855
 6763POPC   C1A17991  33.799   2.802   8.555
 6763POPC   D2A17992  33.793   2.754   8.255
 6763POPC   C3A17993  33.758   2.761   7.955
 6763POPC   C4A17994  33.801   2.768   7.655
 6763POPC   C1B17995  34.091   2.664   8.555
 6763POPC   C2B17996  34.074   2.689   8.255
 6763POPC   C3B17997  34.013   2.738   7.955
 6763POPC   C4B17998  34.039   2.716   7.655
 6764POPC   NC317999  23.709  38.466   9.455
 6764POPC   PO418000  23.693  38.413   9.155
 6764POPC   GL118001  23.710  38.408   8.855
 6764POPC   GL218002  23.677  38.373   8.855
 6764POPC   C1A18003  23.704  38.462   8.555
 6764POPC   D2A18004  23.758  38.452   8.255
 6764POPC   C3A18005  23.677  38.446   7.955
 6764POPC   C4A18006  23.729  38.486   7.655
 6764POPC   C1B18007  23.706  38.216   8.555
 6764POPC   C2B18008  23.706  38.250   8.255
 6764POPC   C3B18009  23.639  38.187   7.955
 6764POPC   C4B18010  23.712  38.167   7.655
 6765POPC   NC318011  36.894  19.802   9.455
 6765POPC   PO418012  36.939  19.839   9.155
 6765POPC   GL118013  36.854  19.873   8.855
 6765POPC   GL218014  36.897  19.998   8.855
 6765POPC   C1A18015  36.916  19.802   8.555
 6765POPC   D2A18016  36.855  19.848   8.255
 6765POPC   C3A18017  36.888  19.786   7.955
 6765POPC   C4A18018  36.918  19.798   7.655
 6765POPC   C1B18019  36.827  20.107   8.555
 6765POPC   C2B18020  36.776  20.118   8.255
 6765POPC   C3B18021  36.831  20.102   7.955
 6765POPC   C4B18022  36.790  20.107   7.655
 6766POPC   NC318023  13.589  40.012   9.455
 6766POPC   PO418024  13.646  40.037   9.155
 6766POPC   GL118025  13.650  40.052   8.855
 6766POPC   GL218026  13.617  40.124   8.855
 6766POPC   C1A18027  13.616  39.990   8.555
 6766POPC   D2A18028  13.593  40.050   8.255
 6766POPC   C3A18029  13.598  39.986   7.955
 6766POPC   C4A18030  13.649  39.994   7.655
 6766POPC   C1B18031  13.553  40.270   8.555
 6766POPC   C2B18032  13.561  40.211   8.255
 6766POPC   C3B18033  13.547  40.227   7.955
 6766POPC   C4B18034  13.565  40.230   7.655
 6767POPC   NC318035  43.910  18.309   9.455
 6767POPC   PO418036  43.891  18.258   9.155
 6767POPC   GL118037  43.883  18.283   8.855
 6767POPC   GL218038  43.763  18.284   8.855
 6767POPC   C1A18039  43.929  18.288   8.555
 6767POPC   D2A18040  43.900  18.233   8.255
 6767POPC   C3A18041  43.838  18.319   7.955
 6767POPC   C4A18042  43.867  18.306   7.655
 6767POPC   C1B18043  43.590  18.286   8.555
 6767POPC   C2B18044  43.646  18.232   8.255
 6767POPC   C3B18045  43.683  18.301   7.955
 6767POPC   C4B18046  43.677  18.228   7.655
 6768POPC   NC318047  12.808   0.406   9.455
 6768POPC   PO418048  12.899   0.424   9.155
 6768POPC   GL118049  12.812   0.442   8.855
 6768POPC   GL218050  12.795   0.569   8.855
 6768POPC   C1A18051  12.827   0.476   8.555
 6768POPC   D2A18052  12.878   0.396   8.255
 6768POPC   C3A18053  12.832   0.420   7.955
 6768POPC   C4A18054  12.857   0.403   7.655
 6768POPC   C1B18055  12.719   0.647   8.555
 6768POPC   C2B18056  12.674   0.652   8.255
 6768POPC   C3B18057  12.710   0.633   7.955
 6768POPC   C4B18058  12.661   0.651   7.655
 6769POPC   NC318059  24.446  13.597   9.455
 6769POPC   PO418060  24.457  13.592   9.155
 6769POPC   GL118061  24.485  13.618   8.855
 6769POPC   GL218062  24.443  13.517   8.855
 6769POPC   C1A18063  24.498  13.642   8.555
 6769POPC   D2A18064  24.477  13.641   8.255
 6769POPC   C3A18065  24.530  13.665   7.955
 6769POPC   C4A18066  24.496  13.634   7.655
 6769POPC   C1B18067  24.357  13.394   8.555
 6769POPC   C2B18068  24.427  13.379   8.255
 6769POPC   C3B18069  24.356  13.443   7.955
 6769POPC   C4B18070  24.346  13.378   7.655
 6770POPC   NC318071   1.184  18.235   9.455
 6770POPC   PO418072   1.182  18.330   9.155
 6770POPC   GL118073   1.217  18.290   8.855
 6770POPC   GL218074   1.076  18.207   8.855
 6770POPC   C1A18075   1.177  18.327   8.555
 6770POPC   D2A18076   1.197  18.284   8.255
 6770POPC   C3A18077   1.165  18.235   7.955
 6770POPC   C4A18078   1.252  18.267   7.655
 6770POPC   C1B18079   1.017  18.126   8.555
 6770POPC   C2B18080   1.036  18.084   8.255
 6770POPC   C3B18081   1.062  18.079   7.955
 6770POPC   C4B18082   1.016  18.146   7.655
 6771POPC   NC318083   4.360  14.373   9.455
 6771POPC   PO418084   4.324  14.425   9.155
 6771POPC   GL118085   4.354  14.395   8.855
 6771POPC   GL218086   4.145  14.418   8.855
 6771POPC   C1A18087   4.329  14.434   8.555
 6771POPC   D2A18088   4.336  14.377   8.255
 6771POPC   C3A18089   4.275  14.402   7.955
 6771POPC   C4A18090   4.311  14.422   7.655
 6771POPC   C1B18091   4.109  14.481   8.555
 6771POPC   C2B18092   4.044  14.490   8.255
 6771POPC   C3B18093   4.038  14.442   7.955
 6771POPC   C4B18094   4.024  14.463   7.655
 6772POPC   NC318095  14.427  31.464   9.455
 6772POPC   PO418096  14.375  31.502   9.155
 6772POPC   GL118097  14.421  31.497   8.855
 6772POPC   GL218098  14.345  31.544   8.855
 6772POPC   C1A18099  14.437  31.492   8.555
 6772POPC   D2A18100  14.403  31.424   8.255
 6772POPC   C3A18101  14.423  31.471   7.955
 6772POPC   C4A18102  14.376  31.493   7.655
 6772POPC   C1B18103  14.296  31.720   8.555
 6772POPC   C2B18104  14.214  31.722   8.255
 6772POPC   C3B18105  14.230  31.646   7.955
 6772POPC   C4B18106  14.229  31.703   7.655
 6773POPC   NC318107  15.167   8.169   9.455
 6773POPC   PO418108  15.176   8.214   9.155
 6773POPC   GL118109  15.155   8.160   8.855
 6773POPC   GL218110  15.200   8.058   8.855
 6773POPC   C1A18111  15.192   8.178   8.555
 6773POPC   D2A18112  15.218   8.200   8.255
 6773POPC   C3A18113  15.143   8.235   7.955
 6773POPC   C4A18114  15.218   8.204   7.655
 6773POPC   C1B18115  15.244   7.920   8.555
 6773POPC   C2B18116  15.206   7.942   8.255
 6773POPC   C3B18117  15.174   7.982   7.955
 6773POPC   C4B18118  15.162   7.973   7.655
 6774POPC   NC318119   0.464  33.024   9.455
 6774POPC   PO418120   0.449  33.036   9.155
 6774POPC   GL118121   0.410  33.003   8.855
 6774POPC   GL218122   0.442  32.888   8.855
 6774POPC   C1A18123   0.438  33.006   8.555
 6774POPC   D2A18124   0.397  33.072   8.255
 6774POPC   C3A18125   0.452  33.010   7.955
 6774POPC   C4A18126   0.424  33.057   7.655
 6774POPC   C1B18127   0.472  32.756   8.555
 6774POPC   C2B18128   0.557  32.742   8.255
 6774POPC   C3B18129   0.473  32.808   7.955
 6774POPC   C4B18130   0.552  32.756   7.655
 6775POPC   NC318131  35.398  19.093   9.455
 6775POPC   PO418132  35.338  19.021   9.155
 6775POPC   GL118133  35.335  19.093   8.855
 6775POPC   GL218134  35.336  18.912   8.855
 6775POPC   C1A18135  35.340  19.080   8.555
 6775POPC   D2A18136  35.317  19.087   8.255
 6775POPC   C3A18137  35.308  19.070   7.955
 6775POPC   C4A18138  35.330  19.102   7.655
 6775POPC   C1B18139  35.295  18.819   8.555
 6775POPC   C2B18140  35.298  18.835   8.255
 6775POPC   C3B18141  35.315  18.793   7.955
 6775POPC   C4B18142  35.311  18.764   7.655
 6776POPC   NC318143  36.921   1.949   9.455
 6776POPC   PO418144  36.906   1.996   9.155
 6776POPC   GL118145  36.937   1.958   8.855
 6776POPC   GL218146  36.888   2.140   8.855
 6776POPC   C1A18147  36.921   1.977   8.555
 6776POPC   D2A18148  36.863   1.997   8.255
 6776POPC   C3A18149  36.921   1.975   7.955
 6776POPC   C4A18150  36.883   2.037   7.655
 6776POPC   C1B18151  36.828   2.185   8.555
 6776POPC   C2B18152  36.754   2.209   8.255
 6776POPC   C3B18153  36.825   2.204   7.955
 6776POPC   C4B18154  36.769   2.208   7.655
 6777POPC   NC318155  36.143  43.123   9.455
 6777POPC   PO418156  36.089  43.092   9.155
 6777POPC   GL118157  36.114  43.121   8.855
 6777POPC   GL218158  36.280  43.102   8.855
 6777POPC   C1A18159  36.133  43.100   8.555
 6777POPC   D2A18160  36.082  43.145   8.255
 6777POPC   C3A18161  36.121  43.072   7.955
 6777POPC   C4A18162  36.129  43.134   7.655
 6777POPC   C1B18163  36.366  43.165   8.555
 6777POPC   C2B18164  36.333  43.231   8.255
 6777POPC   C3B18165  36.358  43.161   7.955
 6777POPC   C4B18166  36.345  43.214   7.655
 6778POPC   NC318167  43.123  36.951   9.455
 6778POPC   PO418168  43.155  36.930   9.155
 6778POPC   GL118169  43.085  36.937   8.855
 6778POPC   GL218170  42.974  36.963   8.855
 6778POPC   C1A18171  43.089  36.929   8.555
 6778POPC   D2A18172  43.100  36.918   8.255
 6778POPC   C3A18173  43.093  36.908   7.955
 6778POPC   C4A18174  43.082  36.889   7.655
 6778POPC   C1B18175  42.908  37.090   8.555
 6778POPC   C2B18176  42.928  37.052   8.255
 6778POPC   C3B18177  42.955  37.060   7.955
 6778POPC   C4B18178  42.921  37.112   7.655
 6779POPC   NC318179  26.081  27.565   9.455
 6779POPC   PO418180  26.032  27.547   9.155
 6779POPC   GL118181  26.014  27.549   8.855
 6779POPC   GL218182  26.098  27.512   8.855
 6779POPC   C1A18183  26.032  27.610   8.555
 6779POPC   D2A18184  26.042  27.634   8.255
 6779POPC   C3A18185  26.087  27.560   7.955
 6779POPC   C4A18186  26.085  27.620   7.655
 6779POPC   C1B18187  26.265  27.444   8.555
 6779POPC   C2B18188  26.262  27.460   8.255
 6779POPC   C3B18189  26.286  27.464   7.955
 6779POPC   C4B18190  26.209  27.410   7.655
 6780POPC   NC318191  22.943   4.308   9.455
 6780POPC   PO418192  22.980   4.332   9.155
 6780POPC   GL118193  22.968   4.321   8.855
 6780POPC   GL218194  23.019   4.373   8.855
 6780POPC   C1A18195  22.895   4.334   8.555
 6780POPC   D2A18196  22.984   4.293   8.255
 6780POPC   C3A18197  22.959   4.292   7.955
 6780POPC   C4A18198  22.899   4.293   7.655
 6780POPC   C1B18199  23.206   4.363   8.555
 6780POPC   C2B18200  23.230   4.376   8.255
 6780POPC   C3B18201  23.216   4.352   7.955
 6780POPC   C4B18202  23.161   4.291   7.655
 6781POPC   NC318203  36.108  35.321   9.455
 6781POPC   PO418204  36.116  35.323   9.155
 6781POPC   GL118205  36.092  35.306   8.855
 6781POPC   GL218206  36.031  35.416   8.855
 6781POPC   C1A18207  36.135  35.394   8.555
 6781POPC   D2A18208  36.166  35.395   8.255
 6781POPC   C3A18209  36.104  35.316   7.955
 6781POPC   C4A18210  36.098  35.329   7.655
 6781POPC   C1B18211  35.932  35.447   8.555
 6781POPC   C2B18212  35.863  35.434   8.255
 6781POPC   C3B18213  35.922  35.390   7.955
 6781POPC   C4B18214  35.850  35.484   7.655
 6782POPC   NC318215   2.735  39.966   9.455
 6782POPC   PO418216   2.724  39.986   9.155
 6782POPC   GL118217   2.764  40.031   8.855
 6782POPC   GL218218   2.841  40.036   8.855
 6782POPC   C1A18219   2.725  40.004   8.555
 6782POPC   D2A18220   2.770  40.007   8.255
 6782POPC   C3A18221   2.794  40.010   7.955
 6782POPC   C4A18222   2.730  40.040   7.655
 6782POPC   C1B18223   2.968  40.072   8.555
 6782POPC   C2B18224   3.017  40.145   8.255
 6782POPC   C3B18225   2.946  40.164   7.955
 6782POPC   C4B18226   3.035  40.152   7.655
 6783POPC   NC318227   0.399  36.953   9.455
 6783POPC   PO418228   0.405  36.909   9.155
 6783POPC   GL118229   0.395  36.937   8.855
 6783POPC   GL218230   0.376  36.755   8.855
 6783POPC   C1A18231   0.406  36.930   8.555
 6783POPC   D2A18232   0.460  36.938   8.255
 6783POPC   C3A18233   0.471  36.863   7.955
 6783POPC   C4A18234   0.428  36.929   7.655
 6783POPC   C1B18235   0.321  36.674   8.555
 6783POPC   C2B18236   0.369  36.622   8.255
 6783POPC   C3B18237   0.408  36.630   7.955
 6783POPC   C4B18238   0.369  36.634   7.655
 6784POPC   NC318239  19.073  29.927   9.455
 6784POPC   PO418240  19.019  29.963   9.155
 6784POPC   GL118241  19.078  29.925   8.855
 6784POPC   GL218242  19.101  29.788   8.855
 6784POPC   C1A18243  19.011  29.892   8.555
 6784POPC   D2A18244  19.044  29.875   8.255
 6784POPC   C3A18245  19.019  29.917   7.955
 6784POPC   C4A18246  19.099  29.959   7.655
 6784POPC   C1B18247  19.157  29.666   8.555
 6784POPC   C2B18248  19.146  29.644   8.255
 6784POPC   C3B18249  19.144  29.714   7.955
 6784POPC   C4B18250  19.119  29.638   7.655
 6785POPC   NC318251  37.727  23.683   9.455
 6785POPC   PO418252  37.664  23.672   9.155
 6785POPC   GL118253  37.644  23.691   8.855
 6785POPC   GL218254  37.650  23.597   8.855
 6785POPC   C1A18255  37.678  23.710   8.555
 6785POPC   D2A18256  37.667  23.718   8.255
 6785POPC   C3A18257  37.632  23.710   7.955
 6785POPC   C4A18258  37.647  23.740   7.655
 6785POPC   C1B18259  37.539  23.533   8.555
 6785POPC   C2B18260  37.494  23.498   8.255
 6785POPC   C3B18261  37.543  23.455   7.955
 6785POPC   C4B18262  37.534  23.517   7.655
 6786POPC   NC318263  18.286  29.137   9.455
 6786POPC   PO418264  18.319  29.112   9.155
 6786POPC   GL118265  18.254  29.113   8.855
 6786POPC   GL218266  18.357  29.205   8.855
 6786POPC   C1A18267  18.286  29.143   8.555
 6786POPC   D2A18268  18.278  29.139   8.255
 6786POPC   C3A18269  18.246  29.135   7.955
 6786POPC   C4A18270  18.246  29.116   7.655
 6786POPC   C1B18271  18.484  29.322   8.555
 6786POPC   C2B18272  18.414  29.356   8.255
 6786POPC   C3B18273  18.443  29.346   7.955
 6786POPC   C4B18274  18.481  29.301   7.655
 6787POPC   NC318275   2.018  33.011   9.455
 6787POPC   PO418276   1.986  32.979   9.155
 6787POPC   GL118277   1.978  33.058   8.855
 6787POPC   GL218278   1.872  32.940   8.855
 6787POPC   C1A18279   1.995  32.982   8.555
 6787POPC   D2A18280   1.971  33.036   8.255
 6787POPC   C3A18281   1.974  33.035   7.955
 6787POPC   C4A18282   1.943  33.046   7.655
 6787POPC   C1B18283   1.853  32.807   8.555
 6787POPC   C2B18284   1.779  32.832   8.255
 6787POPC   C3B18285   1.817  32.875   7.955
 6787POPC   C4B18286   1.794  32.817   7.655
 6788POPC   NC318287  29.185  12.044   9.455
 6788POPC   PO418288  29.096  12.066   9.155
 6788POPC   GL118289  29.181  12.118   8.855
 6788POPC   GL218290  29.081  11.938   8.855
 6788POPC   C1A18291  29.148  12.042   8.555
 6788POPC   D2A18292  29.132  12.074   8.255
 6788POPC   C3A18293  29.101  12.093   7.955
 6788POPC   C4A18294  29.151  12.114   7.655
 6788POPC   C1B18295  29.047  11.817   8.555
 6788POPC   C2B18296  29.025  11.844   8.255
 6788POPC   C3B18297  28.988  11.869   7.955
 6788POPC   C4B18298  28.982  11.850   7.655
 6789POPC   NC318299  15.201  43.086   9.455
 6789POPC   PO418300  15.147  43.113   9.155
 6789POPC   GL118301  15.224  43.154   8.855
 6789POPC   GL218302  15.142  43.036   8.855
 6789POPC   C1A18303  15.184  43.093   8.555
 6789POPC   D2A18304  15.202  43.083   8.255
 6789POPC   C3A18305  15.226  43.135   7.955
 6789POPC   C4A18306  15.190  43.092   7.655
 6789POPC   C1B18307  15.056  42.929   8.555
 6789POPC   C2B18308  15.042  42.853   8.255
 6789POPC   C3B18309  15.043  42.925   7.955
 6789POPC   C4B18310  15.042  42.841   7.655
 6790POPC   NC318311   9.779   8.242   9.455
 6790POPC   PO418312   9.723   8.147   9.155
 6790POPC   GL118313   9.732   8.195   8.855
 6790POPC   GL218314   9.871   8.094   8.855
 6790POPC   C1A18315   9.761   8.234   8.555
 6790POPC   D2A18316   9.731   8.198   8.255
 6790POPC   C3A18317   9.761   8.198   7.955
 6790POPC   C4A18318   9.731   8.183   7.655
 6790POPC   C1B18319   9.987   8.010   8.555
 6790POPC   C2B18320   9.963   8.014   8.255
 6790POPC   C3B18321   9.940   8.062   7.955
 6790POPC   C4B18322   9.988   8.008   7.655
 6791POPC   NC318323  33.769  40.770   9.455
 6791POPC   PO418324  33.785  40.761   9.155
 6791POPC   GL118325  33.791  40.770   8.855
 6791POPC   GL218326  33.851  40.628   8.855
 6791POPC   C1A18327  33.837  40.772   8.555
 6791POPC   D2A18328  33.815  40.738   8.255
 6791POPC   C3A18329  33.821  40.767   7.955
 6791POPC   C4A18330  33.805  40.741   7.655
 6791POPC   C1B18331  33.860  40.530   8.555
 6791POPC   C2B18332  33.892  40.559   8.255
 6791POPC   C3B18333  33.845  40.588   7.955
 6791POPC   C4B18334  33.860  40.581   7.655
 6792POPC   NC318335  33.020  26.791   9.455
 6792POPC   PO418336  32.986  26.865   9.155
 6792POPC   GL118337  33.032  26.793   8.855
 6792POPC   GL218338  33.027  26.711   8.855
 6792POPC   C1A18339  32.982  26.850   8.555
 6792POPC   D2A18340  33.024  26.854   8.255
 6792POPC   C3A18341  33.030  26.819   7.955
 6792POPC   C4A18342  33.013  26.815   7.655
 6792POPC   C1B18343  33.012  26.568   8.555
 6792POPC   C2B18344  33.090  26.550   8.255
 6792POPC   C3B18345  33.090  26.570   7.955
 6792POPC   C4B18346  33.063  26.605   7.655
 6793POPC   NC318347  22.905  33.041   9.455
 6793POPC   PO418348  22.965  33.056   9.155
 6793POPC   GL118349  22.973  33.020   8.855
 6793POPC   GL218350  22.805  33.140   8.855
 6793POPC   C1A18351  22.941  32.987   8.555
 6793POPC   D2A18352  22.924  32.988   8.255
 6793POPC   C3A18353  22.947  33.006   7.955
 6793POPC   C4A18354  22.955  33.010   7.655
 6793POPC   C1B18355  22.779  33.203   8.555
 6793POPC   C2B18356  22.774  33.199   8.255
 6793POPC   C3B18357  22.756  33.143   7.955
 6793POPC   C4B18358  22.736  33.181   7.655
 6794POPC   NC318359   8.974  12.840   9.455
 6794POPC   PO418360   9.021  12.889   9.155
 6794POPC   GL118361   9.009  12.853   8.855
 6794POPC   GL218362   8.982  12.690   8.855
 6794POPC   C1A18363   8.937  12.862   8.555
 6794POPC   D2A18364   8.968  12.827   8.255
 6794POPC   C3A18365   9.015  12.805   7.955
 6794POPC   C4A18366   8.959  12.866   7.655
 6794POPC   C1B18367   8.982  12.629   8.555
 6794POPC   C2B18368   9.013  12.650   8.255
 6794POPC   C3B18369   8.921  12.573   7.955
 6794POPC   C4B18370   8.968  12.572   7.655
 6795POPC   NC318371  29.135  32.226   9.455
 6795POPC   PO418372  29.145  32.282   9.155
 6795POPC   GL118373  29.186  32.201   8.855
 6795POPC   GL218374  29.256  32.268   8.855
 6795POPC   C1A18375  29.162  32.206   8.555
 6795POPC   D2A18376  29.146  32.241   8.255
 6795POPC   C3A18377  29.170  32.224   7.955
 6795POPC   C4A18378  29.122  32.221   7.655
 6795POPC   C1B18379  29.421  32.371   8.555
 6795POPC   C2B18380  29.353  32.324   8.255
 6795POPC   C3B18381  29.390  32.360   7.955
 6795POPC   C4B18382  29.387  32.386   7.655
 6796POPC   NC318383  38.429  40.013   9.455
 6796POPC   PO418384  38.406  40.018   9.155
 6796POPC   GL118385  38.422  40.054   8.855
 6796POPC   GL218386  38.457  40.138   8.855
 6796POPC   C1A18387  38.464  40.007   8.555
 6796POPC   D2A18388  38.412  40.013   8.255
 6796POPC   C3A18389  38.491  40.048   7.955
 6796POPC   C4A18390  38.412  39.995   7.655
 6796POPC   C1B18391  38.398  40.287   8.555
 6796POPC   C2B18392  38.426  40.217   8.255
 6796POPC   C3B18393  38.430  40.264   7.955
 6796POPC   C4B18394  38.397  40.267   7.655
 6797POPC   NC318395  15.190  30.728   9.455
 6797POPC   PO418396  15.148  30.702   9.155
 6797POPC   GL118397  15.132  30.707   8.855
 6797POPC   GL218398  15.144  30.831   8.855
 6797POPC   C1A18399  15.167  30.648   8.555
 6797POPC   D2A18400  15.177  30.712   8.255
 6797POPC   C3A18401  15.220  30.670   7.955
 6797POPC   C4A18402  15.188  30.697   7.655
 6797POPC   C1B18403  15.120  30.977   8.555
 6797POPC   C2B18404  15.134  30.970   8.255
 6797POPC   C3B18405  15.048  30.906   7.955
 6797POPC   C4B18406  15.140  30.908   7.655
 6798POPC   NC318407  38.474  23.732   9.455
 6798POPC   PO418408  38.418  23.709   9.155
 6798POPC   GL118409  38.486  23.680   8.855
 6798POPC   GL218410  38.331  23.646   8.855
 6798POPC   C1A18411  38.429  23.692   8.555
 6798POPC   D2A18412  38.499  23.744   8.255
 6798POPC   C3A18413  38.499  23.726   7.955
 6798POPC   C4A18414  38.434  23.699   7.655
 6798POPC   C1B18415  38.312  23.513   8.555
 6798POPC   C2B18416  38.271  23.520   8.255
 6798POPC   C3B18417  38.230  23.539   7.955
 6798POPC   C4B18418  38.305  23.528   7.655
 6799POPC   NC318419   1.167  22.179   9.455
 6799POPC   PO418420   1.256  22.170   9.155
 6799POPC   GL118421   1.215  22.119   8.855
 6799POPC   GL218422   1.191  22.270   8.855
 6799POPC   C1A18423   1.224  22.204   8.555
 6799POPC   D2A18424   1.168  22.131   8.255
 6799POPC   C3A18425   1.192  22.203   7.955
 6799POPC   C4A18426   1.244  22.150   7.655
 6799POPC   C1B18427   1.041  22.418   8.555
 6799POPC   C2B18428   1.043  22.405   8.255
 6799POPC   C3B18429   1.052  22.346   7.955
 6799POPC   C4B18430   1.044  22.385   7.655
 6800POPC   NC318431   1.247  30.729   9.455
 6800POPC   PO418432   1.176  30.727   9.155
 6800POPC   GL118433   1.246  30.686   8.855
 6800POPC   GL218434   1.356  30.665   8.855
 6800POPC   C1A18435   1.170  30.731   8.555
 6800POPC   D2A18436   1.255  30.721   8.255
 6800POPC   C3A18437   1.214  30.667   7.955
 6800POPC   C4A18438   1.212  30.660   7.655
 6800POPC   C1B18439   1.421  30.533   8.555
 6800POPC   C2B18440   1.396  30.606   8.255
 6800POPC   C3B18441   1.480  30.545   7.955
 6800POPC   C4B18442   1.411  30.591   7.655
 6801POPC   NC318443  33.795  25.283   9.455
 6801POPC   PO418444  33.765  25.241   9.155
 6801POPC   GL118445  33.788  25.284   8.855
 6801POPC   GL218446  33.787  25.392   8.855
 6801POPC   C1A18447  33.824  25.233   8.555
 6801POPC   D2A18448  33.774  25.273   8.255
 6801POPC   C3A18449  33.834  25.264   7.955
 6801POPC   C4A18450  33.824  25.240   7.655
 6801POPC   C1B18451  33.703  25.470   8.555
 6801POPC   C2B18452  33.749  25.543   8.255
 6801POPC   C3B18453  33.768  25.544   7.955
 6801POPC   C4B18454  33.787  25.478   7.655
 6802POPC   NC318455  14.400  40.011   9.455
 6802POPC   PO418456  14.375  40.054   9.155
 6802POPC   GL118457  14.390  39.972   8.855
 6802POPC   GL218458  14.449  40.099   8.855
 6802POPC   C1A18459  14.377  39.963   8.555
 6802POPC   D2A18460  14.372  40.034   8.255
 6802POPC   C3A18461  14.431  40.038   7.955
 6802POPC   C4A18462  14.356  40.030   7.655
 6802POPC   C1B18463  14.636  40.131   8.555
 6802POPC   C2B18464  14.569  40.219   8.255
 6802POPC   C3B18465  14.564  40.185   7.955
 6802POPC   C4B18466  14.637  40.152   7.655
 6803POPC   NC318467  30.695   2.793   9.455
 6803POPC   PO418468  30.676   2.735   9.155
 6803POPC   GL118469  30.746   2.796   8.855
 6803POPC   GL218470  30.648   2.631   8.855
 6803POPC   C1A18471  30.666   2.730   8.555
 6803POPC   D2A18472  30.701   2.774   8.255
 6803POPC   C3A18473  30.679   2.719   7.955
 6803POPC   C4A18474  30.730   2.733   7.655
 6803POPC   C1B18475  30.602   2.597   8.555
 6803POPC   C2B18476  30.528   2.584   8.255
 6803POPC   C3B18477  30.601   2.547   7.955
 6803POPC   C4B18478  30.615   2.527   7.655
 6804POPC   NC318479  15.918   6.677   9.455
 6804POPC   PO418480  15.937   6.635   9.155
 6804POPC   GL118481  15.957   6.682   8.855
 6804POPC   GL218482  15.898   6.710   8.855
 6804POPC   C1A18483  15.984   6.671   8.555
 6804POPC   D2A18484  16.002   6.603   8.255
 6804POPC   C3A18485  15.990   6.663   7.955
 6804POPC   C4A18486  15.980   6.606   7.655
 6804POPC   C1B18487  15.766   6.784   8.555
 6804POPC   C2B18488  15.797   6.747   8.255
 6804POPC   C3B18489  15.782   6.754   7.955
 6804POPC   C4B18490  15.705   6.779   7.655
 6805POPC   NC318491  13.601  36.157   9.455
 6805POPC   PO418492  13.624  36.151   9.155
 6805POPC   GL118493  13.636  36.141   8.855
 6805POPC   GL218494  13.691  36.201   8.855
 6805POPC   C1A18495  13.644  36.078   8.555
 6805POPC   D2A18496  13.605  36.111   8.255
 6805POPC   C3A18497  13.642  36.097   7.955
 6805POPC   C4A18498  13.656  36.167   7.655
 6805POPC   C1B18499  13.744  36.307   8.555
 6805POPC   C2B18500  13.726  36.324   8.255
 6805POPC   C3B18501  13.684  36.360   7.955
 6805POPC   C4B18502  13.754  36.323   7.655
 6806POPC   NC318503  12.895   4.319   9.455
 6806POPC   PO418504  12.900   4.275   9.155
 6806POPC   GL118505  12.855   4.348   8.855
 6806POPC   GL218506  12.745   4.304   8.855
 6806POPC   C1A18507  12.840   4.305   8.555
 6806POPC   D2A18508  12.894   4.273   8.255
 6806POPC   C3A18509  12.878   4.327   7.955
 6806POPC   C4A18510  12.882   4.350   7.655
 6806POPC   C1B18511  12.557   4.325   8.555
 6806POPC   C2B18512  12.613   4.304   8.255
 6806POPC   C3B18513  12.646   4.394   7.955
 6806POPC   C4B18514  12.606   4.343   7.655
 6807POPC   NC318515   4.353  37.697   9.455
 6807POPC   PO418516   4.334  37.695   9.155
 6807POPC   GL118517   4.321  37.655   8.855
 6807POPC   GL218518   4.437  37.776   8.855
 6807POPC   C1A18519   4.307  37.709   8.555
 6807POPC   D2A18520   4.365  37.716   8.255
 6807POPC   C3A18521   4.297  37.694   7.955
 6807POPC   C4A18522   4.290  37.685   7.655
 6807POPC   C1B18523   4.533  37.741   8.555
 6807POPC   C2B18524   4.554  37.765   8.255
 6807POPC   C3B18525   4.582  37.725   7.955
 6807POPC   C4B18526   4.545  37.819   7.655
 6808POPC   NC318527   9.723  17.478   9.455
 6808POPC   PO418528   9.703  17.492   9.155
 6808POPC   GL118529   9.700  17.487   8.855
 6808POPC   GL218530   9.798  17.369   8.855
 6808POPC   C1A18531   9.703  17.540   8.555
 6808POPC   D2A18532   9.760  17.549   8.255
 6808POPC   C3A18533   9.746  17.557   7.955
 6808POPC   C4A18534   9.782  17.472   7.655
 6808POPC   C1B18535   9.768  17.264   8.555
 6808POPC   C2B18536   9.795  17.311   8.255
 6808POPC   C3B18537   9.769  17.266   7.955
 6808POPC   C4B18538   9.771  17.278   7.655
 6809POPC   NC318539  26.855   1.180   9.455
 6809POPC   PO418540  26.794   1.212   9.155
 6809POPC   GL118541  26.821   1.226   8.855
 6809POPC   GL218542  26.815   1.090   8.855
 6809POPC   C1A18543  26.777   1.171   8.555
 6809POPC   D2A18544  26.795   1.218   8.255
 6809POPC   C3A18545  26.820   1.194   7.955
 6809POPC   C4A18546  26.831   1.241   7.655
 6809POPC   C1B18547  26.728   0.994   8.555
 6809POPC   C2B18548  26.753   0.992   8.255
 6809POPC   C3B18549  26.747   1.014   7.955
 6809POPC   C4B18550  26.708   1.001   7.655
 6810POPC   NC318551  19.857   5.869   9.455
 6810POPC   PO418552  19.807   5.889   9.155
 6810POPC   GL118553  19.824   5.889   8.855
 6810POPC   GL218554  19.811   5.714   8.855
 6810POPC   C1A18555  19.794   5.909   8.555
 6810POPC   D2A18556  19.871   5.845   8.255
 6810POPC   C3A18557  19.840   5.908   7.955
 6810POPC   C4A18558  19.827   5.878   7.655
 6810POPC   C1B18559  19.820   5.573   8.555
 6810POPC   C2B18560  19.850   5.590   8.255
 6810POPC   C3B18561  19.896   5.624   7.955
 6810POPC   C4B18562  19.856   5.604   7.655
 6811POPC   NC318563  19.056   6.676   9.455
 6811POPC   PO418564  19.037   6.695   9.155
 6811POPC   GL118565  19.063   6.596   8.855
 6811POPC   GL218566  19.139   6.667   8.855
 6811POPC   C1A18567  19.032   6.650   8.555
 6811POPC   D2A18568  19.076   6.687   8.255
 6811POPC   C3A18569  19.032   6.653   7.955
 6811POPC   C4A18570  19.036   6.666   7.655
 6811POPC   C1B18571  19.285   6.676   8.555
 6811POPC   C2B18572  19.284   6.736   8.255
 6811POPC   C3B18573  19.294   6.752   7.955
 6811POPC   C4B18574  19.316   6.763   7.655
 6812POPC   NC318575   9.743  38.503   9.455
 6812POPC   PO418576   9.782  38.462   9.155
 6812POPC   GL118577   9.762  38.481   8.855
 6812POPC   GL218578   9.632  38.541   8.855
 6812POPC   C1A18579   9.713  38.494   8.555
 6812POPC   D2A18580   9.786  38.439   8.255
 6812POPC   C3A18581   9.750  38.487   7.955
 6812POPC   C4A18582   9.725  38.426   7.655
 6812POPC   C1B18583   9.595  38.690   8.555
 6812POPC   C2B18584   9.655  38.691   8.255
 6812POPC   C3B18585   9.605  38.619   7.955
 6812POPC   C4B18586   9.606  38.632   7.655
 6813POPC   NC318587  10.556  43.132   9.455
 6813POPC   PO418588  10.505  43.110   9.155
 6813POPC   GL118589  10.563  43.064   8.855
 6813POPC   GL218590  10.519  42.993   8.855
 6813POPC   C1A18591  10.528  43.077   8.555
 6813POPC   D2A18592  10.570  43.148   8.255
 6813POPC   C3A18593  10.559  43.072   7.955
 6813POPC   C4A18594  10.534  43.138   7.655
 6813POPC   C1B18595  10.603  42.841   8.555
 6813POPC   C2B18596  10.535  42.891   8.255
 6813POPC   C3B18597  10.549  42.826   7.955
 6813POPC   C4B18598  10.584  42.870   7.655
 6814POPC   NC318599  39.262  20.616   9.455
 6814POPC   PO418600  39.223  20.621   9.155
 6814POPC   GL118601  39.237  20.567   8.855
 6814POPC   GL218602  39.250  20.690   8.855
 6814POPC   C1A18603  39.270  20.628   8.555
 6814POPC   D2A18604  39.183  20.590   8.255
 6814POPC   C3A18605  39.193  20.583   7.955
 6814POPC   C4A18606  39.208  20.577   7.655
 6814POPC   C1B18607  39.303  20.871   8.555
 6814POPC   C2B18608  39.379  20.800   8.255
 6814POPC   C3B18609  39.343  20.820   7.955
 6814POPC   C4B18610  39.341  20.852   7.655
 6815POPC   NC318611  20.570  12.871   9.455
 6815POPC   PO418612  20.592  12.819   9.155
 6815POPC   GL118613  20.614  12.883   8.855
 6815POPC   GL218614  20.765  12.793   8.855
 6815POPC   C1A18615  20.619  12.897   8.555
 6815POPC   D2A18616  20.620  12.858   8.255
 6815POPC   C3A18617  20.622  12.898   7.955
 6815POPC   C4A18618  20.577  12.803   7.655
 6815POPC   C1B18619  20.804  12.794   8.555
 6815POPC   C2B18620  20.865  12.794   8.255
 6815POPC   C3B18621  20.859  12.738   7.955
 6815POPC   C4B18622  20.899  12.819   7.655
 6816POPC   NC318623   0.482   5.124   9.455
 6816POPC   PO418624   0.463   5.075   9.155
 6816POPC   GL118625   0.434   5.100   8.855
 6816POPC   GL218626   0.517   5.105   8.855
 6816POPC   C1A18627   0.445   5.125   8.555
 6816POPC   D2A18628   0.455   5.140   8.255
 6816POPC   C3A18629   0.425   5.110   7.955
 6816POPC   C4A18630   0.425   5.046   7.655
 6816POPC   C1B18631   0.673   5.024   8.555
 6816POPC   C2B18632   0.727   5.009   8.255
 6816POPC   C3B18633   0.669   4.986   7.955
 6816POPC   C4B18634   0.707   5.068   7.655
 6817POPC   NC318635   2.786   3.517   9.455
 6817POPC   PO418636   2.793   3.591   9.155
 6817POPC   GL118637   2.747   3.518   8.855
 6817POPC   GL218638   2.823   3.481   8.855
 6817POPC   C1A18639   2.799   3.543   8.555
 6817POPC   D2A18640   2.741   3.538   8.255
 6817POPC   C3A18641   2.798   3.588   7.955
 6817POPC   C4A18642   2.731   3.494   7.655
 6817POPC   C1B18643   2.952   3.354   8.555
 6817POPC   C2B18644   2.940   3.403   8.255
 6817POPC   C3B18645   2.942   3.405   7.955
 6817POPC   C4B18646   2.999   3.426   7.655
 6818POPC   NC318647  25.244  33.063   9.455
 6818POPC   PO418648  25.265  33.055   9.155
 6818POPC   GL118649  25.273  33.023   8.855
 6818POPC   GL218650  25.241  32.907   8.855
 6818POPC   C1A18651  25.228  33.068   8.555
 6818POPC   D2A18652  25.231  33.010   8.255
 6818POPC   C3A18653  25.229  33.029   7.955
 6818POPC   C4A18654  25.312  33.023   7.655
 6818POPC   C1B18655  25.225  32.789   8.555
 6818POPC   C2B18656  25.170  32.799   8.255
 6818POPC   C3B18657  25.157  32.753   7.955
 6818POPC   C4B18658  25.159  32.757   7.655
 6819POPC   NC318659  28.388  24.453   9.455
 6819POPC   PO418660  28.326  24.503   9.155
 6819POPC   GL118661  28.394  24.506   8.855
 6819POPC   GL218662  28.300  24.424   8.855
 6819POPC   C1A18663  28.405  24.512   8.555
 6819POPC   D2A18664  28.335  24.488   8.255
 6819POPC   C3A18665  28.326  24.513   7.955
 6819POPC   C4A18666  28.387  24.531   7.655
 6819POPC   C1B18667  28.190  24.238   8.555
 6819POPC   C2B18668  28.234  24.254   8.255
 6819POPC   C3B18669  28.237  24.267   7.955
 6819POPC   C4B18670  28.192  24.287   7.655
 6820POPC   NC318671  24.442  17.523   9.455
 6820POPC   PO418672  24.502  17.467   9.155
 6820POPC   GL118673  24.538  17.533   8.855
 6820POPC   GL218674  24.541  17.417   8.855
 6820POPC   C1A18675  24.532  17.497   8.555
 6820POPC   D2A18676  24.477  17.479   8.255
 6820POPC   C3A18677  24.531  17.512   7.955
 6820POPC   C4A18678  24.518  17.523   7.655
 6820POPC   C1B18679  24.591  17.268   8.555
 6820POPC   C2B18680  24.517  17.247   8.255
 6820POPC   C3B18681  24.546  17.312   7.955
 6820POPC   C4B18682  24.602  17.220   7.655
 6821POPC   NC318683  18.321   1.262   9.455
 6821POPC   PO418684  18.311   1.206   9.155
 6821POPC   GL118685  18.331   1.224   8.855
 6821POPC   GL218686  18.294   1.353   8.855
 6821POPC   C1A18687  18.261   1.250   8.555
 6821POPC   D2A18688  18.276   1.218   8.255
 6821POPC   C3A18689  18.253   1.262   7.955
 6821POPC   C4A18690  18.287   1.174   7.655
 6821POPC   C1B18691  18.392   1.470   8.555
 6821POPC   C2B18692  18.321   1.499   8.255
 6821POPC   C3B18693  18.341   1.414   7.955
 6821POPC   C4B18694  18.346   1.492   7.655
 6822POPC   NC318695  34.571  27.592   9.455
 6822POPC   PO418696  34.597  27.640   9.155
 6822POPC   GL118697  34.563  27.628   8.855
 6822POPC   GL218698  34.649  27.674   8.855
 6822POPC   C1A18699  34.598  27.622   8.555
 6822POPC   D2A18700  34.613  27.553   8.255
 6822POPC   C3A18701  34.535  27.564   7.955
 6822POPC   C4A18702  34.533  27.615   7.655
 6822POPC   C1B18703  34.698  27.775   8.555
 6822POPC   C2B18704  34.754  27.763   8.255
 6822POPC   C3B18705  34.681  27.763   7.955
 6822POPC   C4B18706  34.738  27.757   7.655
 6823POPC   NC318707  13.579  29.957   9.455
 6823POPC   PO418708  13.641  29.933   9.155
 6823POPC   GL118709  13.605  29.878   8.855
 6823POPC   GL218710  13.787  29.936   8.855
 6823POPC   C1A18711  13.602  29.966   8.555
 6823POPC   D2A18712  13.677  29.879   8.255
 6823POPC   C3A18713  13.674  29.953   7.955
 6823POPC   C4A18714  13.648  29.929   7.655
 6823POPC   C1B18715  13.848  29.976   8.555
 6823POPC   C2B18716  13.810  30.027   8.255
 6823POPC   C3B18717  13.857  30.005   7.955
 6823POPC   C4B18718  13.841  29.972   7.655
 6824POPC   NC318719  14.382   2.812   9.455
 6824POPC   PO418720  14.391   2.723   9.155
 6824POPC   GL118721  14.441   2.720   8.855
 6824POPC   GL218722  14.250   2.791   8.855
 6824POPC   C1A18723  14.359   2.755   8.555
 6824POPC   D2A18724  14.441   2.798   8.255
 6824POPC   C3A18725  14.440   2.774   7.955
 6824POPC   C4A18726  14.445   2.787   7.655
 6824POPC   C1B18727  14.173   2.887   8.555
 6824POPC   C2B18728  14.155   2.837   8.255
 6824POPC   C3B18729  14.212   2.796   7.955
 6824POPC   C4B18730  14.168   2.834   7.655
 6825POPC   NC318731  32.985  19.803   9.455
 6825POPC   PO418732  33.047  19.819   9.155
 6825POPC   GL118733  33.002  19.827   8.855
 6825POPC   GL218734  33.178  19.841   8.855
 6825POPC   C1A18735  33.045  19.820   8.555
 6825POPC   D2A18736  33.064  19.806   8.255
 6825POPC   C3A18737  33.051  19.880   7.955
 6825POPC   C4A18738  33.014  19.823   7.655
 6825POPC   C1B18739  33.233  19.949   8.555
 6825POPC   C2B18740  33.244  19.896   8.255
 6825POPC   C3B18741  33.219  19.937   7.955
 6825POPC   C4B18742  33.275  19.936   7.655
 6826POPC   NC318743  16.728   5.876   9.455
 6826POPC   PO418744  16.744   5.915   9.155
 6826POPC   GL118745  16.717   5.856   8.855
 6826POPC   GL218746  16.616   5.875   8.855
 6826POPC   C1A18747  16.779   5.917   8.555
 6826POPC   D2A18748  16.716   5.912   8.255
 6826POPC   C3A18749  16.749   5.909   7.955
 6826POPC   C4A18750  16.770   5.877   7.655
 6826POPC   C1B18751  16.490   5.945   8.555
 6826POPC   C2B18752  16.507   5.957   8.255
 6826POPC   C3B18753  16.544   5.932   7.955
 6826POPC   C4B18754  16.523   5.936   7.655
 6827POPC   NC318755  24.496  42.370   9.455
 6827POPC   PO418756  24.455  42.326   9.155
 6827POPC   GL118757  24.478  42.285   8.855
 6827POPC   GL218758  24.468  42.239   8.855
 6827POPC   C1A18759  24.482  42.303   8.555
 6827POPC   D2A18760  24.489  42.379   8.255
 6827POPC   C3A18761  24.485  42.335   7.955
 6827POPC   C4A18762  24.454  42.339   7.655
 6827POPC   C1B18763  24.306  42.173   8.555
 6827POPC   C2B18764  24.398  42.094   8.255
 6827POPC   C3B18765  24.385  42.125   7.955
 6827POPC   C4B18766  24.379  42.118   7.655
 6828POPC   NC318767  12.033  34.584   9.455
 6828POPC   PO418768  12.112  34.568   9.155
 6828POPC   GL118769  12.029  34.566   8.855
 6828POPC   GL218770  11.985  34.501   8.855
 6828POPC   C1A18771  12.061  34.557   8.555
 6828POPC   D2A18772  12.078  34.527   8.255
 6828POPC   C3A18773  12.079  34.533   7.955
 6828POPC   C4A18774  12.108  34.606   7.655
 6828POPC   C1B18775  11.845  34.496   8.555
 6828POPC   C2B18776  11.861  34.452   8.255
 6828POPC   C3B18777  11.862  34.433   7.955
 6828POPC   C4B18778  11.887  34.456   7.655
 6829POPC   NC318779  42.342  38.469   9.455
 6829POPC   PO418780  42.335  38.464   9.155
 6829POPC   GL118781  42.338  38.406   8.855
 6829POPC   GL218782  42.352  38.543   8.855
 6829POPC   C1A18783  42.342  38.500   8.555
 6829POPC   D2A18784  42.302  38.487   8.255
 6829POPC   C3A18785  42.313  38.422   7.955
 6829POPC   C4A18786  42.380  38.462   7.655
 6829POPC   C1B18787  42.336  38.741   8.555
 6829POPC   C2B18788  42.302  38.717   8.255
 6829POPC   C3B18789  42.332  38.734   7.955
 6829POPC   C4B18790  42.328  38.716   7.655
 6830POPC   NC318791  37.660  22.203   9.455
 6830POPC   PO418792  37.682  22.171   9.155
 6830POPC   GL118793  37.673  22.165   8.855
 6830POPC   GL218794  37.644  22.005   8.855
 6830POPC   C1A18795  37.729  22.191   8.555
 6830POPC   D2A18796  37.709  22.134   8.255
 6830POPC   C3A18797  37.711  22.152   7.955
 6830POPC   C4A18798  37.672  22.129   7.655
 6830POPC   C1B18799  37.593  21.904   8.555
 6830POPC   C2B18800  37.603  21.904   8.255
 6830POPC   C3B18801  37.626  21.950   7.955
 6830POPC   C4B18802  37.551  21.947   7.655
 6831POPC   NC318803  28.347   8.183   9.455
 6831POPC   PO418804  28.416   8.213   9.155
 6831POPC   GL118805  28.369   8.190   8.855
 6831POPC   GL218806  28.458   8.268   8.855
 6831POPC   C1A18807  28.356   8.240   8.555
 6831POPC   D2A18808  28.411   8.214   8.255
 6831POPC   C3A18809  28.338   8.195   7.955
 6831POPC   C4A18810  28.398   8.220   7.655
 6831POPC   C1B18811  28.496   8.453   8.555
 6831POPC   C2B18812  28.441   8.453   8.255
 6831POPC   C3B18813  28.482   8.441   7.955
 6831POPC   C4B18814  28.433   8.469   7.655
 6832POPC   NC318815  26.036  29.890   9.455
 6832POPC   PO418816  26.082  29.878   9.155
 6832POPC   GL118817  26.075  29.906   8.855
 6832POPC   GL218818  25.924  30.042   8.855
 6832POPC   C1A18819  26.041  29.965   8.555
 6832POPC   D2A18820  26.009  29.936   8.255
 6832POPC   C3A18821  26.027  29.927   7.955
 6832POPC   C4A18822  26.008  29.929   7.655
 6832POPC   C1B18823  25.917  30.141   8.555
 6832POPC   C2B18824  25.862  30.126   8.255
 6832POPC   C3B18825  25.852  30.149   7.955
 6832POPC   C4B18826  25.924  30.176   7.655
 6833POPC   NC318827  15.136   1.165   9.455
 6833POPC   PO418828  15.146   1.238   9.155
 6833POPC   GL118829  15.178   1.206   8.855
 6833POPC   GL218830  15.097   1.314   8.855
 6833POPC   C1A18831  15.173   1.249   8.555
 6833POPC   D2A18832  15.200   1.193   8.255
 6833POPC   C3A18833  15.209   1.172   7.955
 6833POPC   C4A18834  15.208   1.207   7.655
 6833POPC   C1B18835  14.992   1.363   8.555
 6833POPC   C2B18836  14.952   1.348   8.255
 6833POPC   C3B18837  14.960   1.381   7.955
 6833POPC   C4B18838  14.991   1.348   7.655
 6834POPC   NC318839  43.142   7.375   9.455
 6834POPC   PO418840  43.119   7.415   9.155
 6834POPC   GL118841  43.130   7.393   8.855
 6834POPC   GL218842  43.158   7.286   8.855
 6834POPC   C1A18843  43.065   7.457   8.555
 6834POPC   D2A18844  43.061   7.414   8.255
 6834POPC   C3A18845  43.112   7.464   7.955
 6834POPC   C4A18846  43.135   7.425   7.655
 6834POPC   C1B18847  43.278   7.182   8.555
 6834POPC   C2B18848  43.212   7.182   8.255
 6834POPC   C3B18849  43.226   7.213   7.955
 6834POPC   C4B18850  43.210   7.207   7.655
 6835POPC   NC318851  24.490  19.809   9.455
 6835POPC   PO418852  24.482  19.881   9.155
 6835POPC   GL118853  24.505  19.855   8.855
 6835POPC   GL218854  24.513  19.763   8.855
 6835POPC   C1A18855  24.446  19.787   8.555
 6835POPC   D2A18856  24.480  19.814   8.255
 6835POPC   C3A18857  24.495  19.867   7.955
 6835POPC   C4A18858  24.537  19.864   7.655
 6835POPC   C1B18859  24.581  19.578   8.555
 6835POPC   C2B18860  24.590  19.630   8.255
 6835POPC   C3B18861  24.587  19.595   7.955
 6835POPC   C4B18862  24.536  19.544   7.655
 6836POPC   NC318863   2.742  12.042   9.455
 6836POPC   PO418864   2.729  12.119   9.155
 6836POPC   GL118865   2.750  12.033   8.855
 6836POPC   GL218866   2.852  12.161   8.855
 6836POPC   C1A18867   2.742  12.125   8.555
 6836POPC   D2A18868   2.749  12.087   8.255
 6836POPC   C3A18869   2.727  12.047   7.955
 6836POPC   C4A18870   2.752  12.042   7.655
 6836POPC   C1B18871   3.035  12.159   8.555
 6836POPC   C2B18872   3.010  12.155   8.255
 6836POPC   C3B18873   2.961  12.126   7.955
 6836POPC   C4B18874   2.952  12.157   7.655
 6837POPC   NC318875  30.701   9.748   9.455
 6837POPC   PO418876  30.695   9.752   9.155
 6837POPC   GL118877  30.689   9.706   8.855
 6837POPC   GL218878  30.844   9.711   8.855
 6837POPC   C1A18879  30.739   9.781   8.555
 6837POPC   D2A18880  30.694   9.781   8.255
 6837POPC   C3A18881  30.697   9.736   7.955
 6837POPC   C4A18882  30.745   9.780   7.655
 6837POPC   C1B18883  30.904   9.678   8.555
 6837POPC   C2B18884  30.961   9.768   8.255
 6837POPC   C3B18885  30.995   9.707   7.955
 6837POPC   C4B18886  30.992   9.703   7.655
 6838POPC   NC318887   9.703  25.244   9.455
 6838POPC   PO418888   9.712  25.259   9.155
 6838POPC   GL118889   9.761  25.283   8.855
 6838POPC   GL218890   9.682  25.176   8.855
 6838POPC   C1A18891   9.708  25.228   8.555
 6838POPC   D2A18892   9.701  25.224   8.255
 6838POPC   C3A18893   9.702  25.254   7.955
 6838POPC   C4A18894   9.792  25.258   7.655
 6838POPC   C1B18895   9.617  25.042   8.555
 6838POPC   C2B18896   9.651  25.021   8.255
 6838POPC   C3B18897   9.673  25.023   7.955
 6838POPC   C4B18898   9.694  25.076   7.655
 6839POPC   NC318899  34.618  26.812   9.455
 6839POPC   PO418900  34.578  26.804   9.155
 6839POPC   GL118901  34.621  26.862   8.855
 6839POPC   GL218902  34.648  26.717   8.855
 6839POPC   C1A18903  34.564  26.824   8.555
 6839POPC   D2A18904  34.578  26.828   8.255
 6839POPC   C3A18905  34.617  26.772   7.955
 6839POPC   C4A18906  34.546  26.862   7.655
 6839POPC   C1B18907  34.607  26.548   8.555
 6839POPC   C2B18908  34.678  26.553   8.255
 6839POPC   C3B18909  34.661  26.595   7.955
 6839POPC   C4B18910  34.629  26.577   7.655
 6840POPC   NC318911  23.688  18.283   9.455
 6840POPC   PO418912  23.667  18.330   9.155
 6840POPC   GL118913  23.761  18.264   8.855
 6840POPC   GL218914  23.795  18.261   8.855
 6840POPC   C1A18915  23.693  18.318   8.555
 6840POPC   D2A18916  23.690  18.262   8.255
 6840POPC   C3A18917  23.703  18.322   7.955
 6840POPC   C4A18918  23.671  18.245   7.655
 6840POPC   C1B18919  23.904  18.203   8.555
 6840POPC   C2B18920  23.985  18.174   8.255
 6840POPC   C3B18921  23.924  18.201   7.955
 6840POPC   C4B18922  23.955  18.158   7.655
 6841POPC   NC318923   4.321  41.528   9.455
 6841POPC   PO418924   4.285  41.555   9.155
 6841POPC   GL118925   4.356  41.534   8.855
 6841POPC   GL218926   4.411  41.496   8.855
 6841POPC   C1A18927   4.291  41.574   8.555
 6841POPC   D2A18928   4.285  41.528   8.255
 6841POPC   C3A18929   4.352  41.564   7.955
 6841POPC   C4A18930   4.333  41.552   7.655
 6841POPC   C1B18931   4.583  41.416   8.555
 6841POPC   C2B18932   4.530  41.433   8.255
 6841POPC   C3B18933   4.536  41.431   7.955
 6841POPC   C4B18934   4.564  41.506   7.655
 6842POPC   NC318935  20.633  30.687   9.455
 6842POPC   PO418936  20.639  30.707   9.155
 6842POPC   GL118937  20.636  30.682   8.855
 6842POPC   GL218938  20.712  30.619   8.855
 6842POPC   C1A18939  20.580  30.712   8.555
 6842POPC   D2A18940  20.610  30.695   8.255
 6842POPC   C3A18941  20.644  30.672   7.955
 6842POPC   C4A18942  20.585  30.683   7.655
 6842POPC   C1B18943  20.690  30.430   8.555
 6842POPC   C2B18944  20.706  30.510   8.255
 6842POPC   C3B18945  20.704  30.475   7.955
 6842POPC   C4B18946  20.713  30.487   7.655
 6843POPC   NC318947  37.685  14.435   9.455
 6843POPC   PO418948  37.651  14.396   9.155
 6843POPC   GL118949  37.661  14.440   8.855
 6843POPC   GL218950  37.811  14.423   8.855
 6843POPC   C1A18951  37.703  14.405   8.555
 6843POPC   D2A18952  37.650  14.413   8.255
 6843POPC   C3A18953  37.634  14.376   7.955
 6843POPC   C4A18954  37.696  14.360   7.655
 6843POPC   C1B18955  37.895  14.447   8.555
 6843POPC   C2B18956  37.890  14.424   8.255
 6843POPC   C3B18957  37.971  14.486   7.955
 6843POPC   C4B18958  37.887  14.451   7.655
 6844POPC   NC318959  20.632  15.973   9.455
 6844POPC   PO418960  20.642  15.933   9.155
 6844POPC   GL118961  20.607  15.994   8.855
 6844POPC   GL218962  20.633  15.800   8.855
 6844POPC   C1A18963  20.604  15.913   8.555
 6844POPC   D2A18964  20.631  15.988   8.255
 6844POPC   C3A18965  20.600  15.923   7.955
 6844POPC   C4A18966  20.584  15.987   7.655
 6844POPC   C1B18967  20.649  15.677   8.555
 6844POPC   C2B18968  20.613  15.666   8.255
 6844POPC   C3B18969  20.641  15.750   7.955
 6844POPC   C4B18970  20.595  15.679   7.655
 6845POPC   NC318971   2.764   2.795   9.455
 6845POPC   PO418972   2.782   2.802   9.155
 6845POPC   GL118973   2.763   2.726   8.855
 6845POPC   GL218974   2.923   2.682   8.855
 6845POPC   C1A18975   2.791   2.779   8.555
 6845POPC   D2A18976   2.750   2.717   8.255
 6845POPC   C3A18977   2.747   2.745   7.955
 6845POPC   C4A18978   2.775   2.809   7.655
 6845POPC   C1B18979   2.974   2.647   8.555
 6845POPC   C2B18980   2.975   2.740   8.255
 6845POPC   C3B18981   3.045   2.684   7.955
 6845POPC   C4B18982   2.997   2.675   7.655
 6846POPC   NC318983  22.175  24.472   9.455
 6846POPC   PO418984  22.191  24.525   9.155
 6846POPC   GL118985  22.189  24.465   8.855
 6846POPC   GL218986  22.227  24.568   8.855
 6846POPC   C1A18987  22.158  24.503   8.555
 6846POPC   D2A18988  22.145  24.502   8.255
 6846POPC   C3A18989  22.150  24.469   7.955
 6846POPC   C4A18990  22.114  24.511   7.655
 6846POPC   C1B18991  22.301  24.683   8.555
 6846POPC   C2B18992  22.352  24.712   8.255
 6846POPC   C3B18993  22.307  24.693   7.955
 6846POPC   C4B18994  22.308  24.622   7.655
 6847POPC   NC318995  27.582  42.294   9.455
 6847POPC   PO418996  27.628  42.327   9.155
 6847POPC   GL118997  27.623  42.309   8.855
 6847POPC   GL218998  27.673  42.167   8.855
 6847POPC   C1A18999  27.563  42.323   8.555
 6847POPC   D2A19000  27.573  42.370   8.255
 6847POPC   C3A19001  27.638  42.287   7.955
 6847POPC   C4A19002  27.636  42.332   7.655
 6847POPC   C1B19003  27.636  42.079   8.555
 6847POPC   C2B19004  27.660  42.076   8.255
 6847POPC   C3B19005  27.651  42.084   7.955
 6847POPC   C4B19006  27.647  42.060   7.655
 6848POPC   NC319007   9.729  12.072   9.455
 6848POPC   PO419008   9.749  12.081   9.155
 6848POPC   GL119009   9.699  12.117   8.855
 6848POPC   GL219010   9.775  11.942   8.855
 6848POPC   C1A19011   9.790  12.116   8.555
 6848POPC   D2A19012   9.753  12.126   8.255
 6848POPC   C3A19013   9.714  12.118   7.955
 6848POPC   C4A19014   9.711  12.098   7.655
 6848POPC   C1B19015   9.831  11.837   8.555
 6848POPC   C2B19016   9.838  11.875   8.255
 6848POPC   C3B19017   9.873  11.832   7.955
 6848POPC   C4B19018   9.878  11.879   7.655
 6849POPC   NC319019  36.905  26.087   9.455
 6849POPC   PO419020  36.913  26.013   9.155
 6849POPC   GL119021  36.877  26.008   8.855
 6849POPC   GL219022  36.932  26.195   8.855
 6849POPC   C1A19023  36.854  26.036   8.555
 6849POPC   D2A19024  36.928  26.028   8.255
 6849POPC   C3A19025  36.871  26.088   7.955
 6849POPC   C4A19026  36.932  26.069   7.655
 6849POPC   C1B19027  36.925  26.253   8.555
 6849POPC   C2B19028  36.854  26.311   8.255
 6849POPC   C3B19029  36.895  26.307   7.955
 6849POPC   C4B19030  36.853  26.256   7.655
 6850POPC   NC319031  23.705  28.348   9.455
 6850POPC   PO419032  23.723  28.342   9.155
 6850POPC   GL119033  23.694  28.331   8.855
 6850POPC   GL219034  23.574  28.396   8.855
 6850POPC   C1A19035  23.730  28.378   8.555
 6850POPC   D2A19036  23.756  28.362   8.255
 6850POPC   C3A19037  23.755  28.331   7.955
 6850POPC   C4A19038  23.730  28.396   7.655
 6850POPC   C1B19039  23.449  28.351   8.555
 6850POPC   C2B19040  23.448  28.374   8.255
 6850POPC   C3B19041  23.435  28.359   7.955
 6850POPC   C4B19042  23.490  28.383   7.655
 6851POPC   NC319043  18.312   7.372   9.455
 6851POPC   PO419044  18.317   7.464   9.155
 6851POPC   GL119045  18.262   7.437   8.855
 6851POPC   GL219046  18.238   7.522   8.855
 6851POPC   C1A19047  18.280   7.442   8.555
 6851POPC   D2A19048  18.275   7.401   8.255
 6851POPC   C3A19049  18.299   7.466   7.955
 6851POPC   C4A19050  18.250   7.435   7.655
 6851POPC   C1B19051  18.150   7.563   8.555
 6851POPC   C2B19052  18.142   7.656   8.255
 6851POPC   C3B19053  18.099   7.584   7.955
 6851POPC   C4B19054  18.145   7.628   7.655
 6852POPC   NC319055  37.713  12.108   9.455
 6852POPC   PO419056  37.700  12.039   9.155
 6852POPC   GL119057  37.670  12.091   8.855
 6852POPC   GL219058  37.754  12.191   8.855
 6852POPC   C1A19059  37.643  12.055   8.555
 6852POPC   D2A19060  37.704  12.088   8.255
 6852POPC   C3A19061  37.632  12.086   7.955
 6852POPC   C4A19062  37.656  12.078   7.655
 6852POPC   C1B19063  37.850  12.254   8.555
 6852POPC   C2B19064  37.859  12.287   8.255
 6852POPC   C3B19065  37.872  12.268   7.955
 6852POPC   C4B19066  37.815  12.241   7.655
 6853POPC   NC319067  44.651  25.219   9.455
 6853POPC   PO419068  44.678  25.219   9.155
 6853POPC   GL119069  44.642  25.220   8.855
 6853POPC   GL219070  44.637  25.360   8.855
 6853POPC   C1A19071  44.690  25.256   8.555
 6853POPC   D2A19072  44.623  25.248   8.255
 6853POPC   C3A19073  44.614  25.302   7.955
 6853POPC   C4A19074  44.646  25.306   7.655
 6853POPC   C1B19075  44.557  25.523   8.555
 6853POPC   C2B19076  44.603  25.481   8.255
 6853POPC   C3B19077  44.521  25.470   7.955
 6853POPC   C4B19078  44.574  25.496   7.655
 6854POPC   NC319079  21.426   1.987   9.455
 6854POPC   PO419080  21.370   1.995   9.155
 6854POPC   GL119081  21.344   2.035   8.855
 6854POPC   GL219082  21.467   1.929   8.855
 6854POPC   C1A19083  21.372   1.942   8.555
 6854POPC   D2A19084  21.353   1.981   8.255
 6854POPC   C3A19085  21.344   1.945   7.955
 6854POPC   C4A19086  21.342   2.013   7.655
 6854POPC   C1B19087  21.666   1.938   8.555
 6854POPC   C2B19088  21.571   1.930   8.255
 6854POPC   C3B19089  21.607   1.929   7.955
 6854POPC   C4B19090  21.578   1.896   7.655
 6855POPC   NC319091  22.962  38.443   9.455
 6855POPC   PO419092  22.986  38.505   9.155
 6855POPC   GL119093  22.924  38.431   8.855
 6855POPC   GL219094  22.891  38.504   8.855
 6855POPC   C1A19095  22.931  38.495   8.555
 6855POPC   D2A19096  22.917  38.424   8.255
 6855POPC   C3A19097  22.948  38.465   7.955
 6855POPC   C4A19098  22.921  38.427   7.655
 6855POPC   C1B19099  22.726  38.648   8.555
 6855POPC   C2B19100  22.747  38.648   8.255
 6855POPC   C3B19101  22.798  38.605   7.955
 6855POPC   C4B19102  22.776  38.624   7.655
 6856POPC   NC319103  30.655   3.493   9.455
 6856POPC   PO419104  30.705   3.550   9.155
 6856POPC   GL119105  30.690   3.570   8.855
 6856POPC   GL219106  30.775   3.529   8.855
 6856POPC   C1A19107  30.671   3.505   8.555
 6856POPC   D2A19108  30.739   3.524   8.255
 6856POPC   C3A19109  30.650   3.535   7.955
 6856POPC   C4A19110  30.670   3.507   7.655
 6856POPC   C1B19111  30.961   3.562   8.555
 6856POPC   C2B19112  30.928   3.580   8.255
 6856POPC   C3B19113  30.980   3.586   7.955
 6856POPC   C4B19114  30.971   3.525   7.655
 6857POPC   NC319115  21.418  15.994   9.455
 6857POPC   PO419116  21.434  15.927   9.155
 6857POPC   GL119117  21.355  15.946   8.855
 6857POPC   GL219118  21.398  16.060   8.855
 6857POPC   C1A19119  21.350  15.910   8.555
 6857POPC   D2A19120  21.408  15.907   8.255
 6857POPC   C3A19121  21.351  15.943   7.955
 6857POPC   C4A19122  21.356  16.001   7.655
 6857POPC   C1B19123  21.420  16.238   8.555
 6857POPC   C2B19124  21.416  16.241   8.255
 6857POPC   C3B19125  21.384  16.194   7.955
 6857POPC   C4B19126  21.361  16.176   7.655
 6858POPC   NC319127  27.604  22.134   9.455
 6858POPC   PO419128  27.579  22.115   9.155
 6858POPC   GL119129  27.585  22.125   8.855
 6858POPC   GL219130  27.740  22.172   8.855
 6858POPC   C1A19131  27.563  22.164   8.555
 6858POPC   D2A19132  27.579  22.178   8.255
 6858POPC   C3A19133  27.611  22.157   7.955
 6858POPC   C4A19134  27.589  22.171   7.655
 6858POPC   C1B19135  27.862  22.288   8.555
 6858POPC   C2B19136  27.851  22.240   8.255
 6858POPC   C3B19137  27.821  22.294   7.955
 6858POPC   C4B19138  27.826  22.328   7.655
 6859POPC   NC319139  19.024  16.690   9.455
 6859POPC   PO419140  19.096  16.759   9.155
 6859POPC   GL119141  19.105  16.772   8.855
 6859POPC   GL219142  19.104  16.847   8.855
 6859POPC   C1A19143  19.023  16.700   8.555
 6859POPC   D2A19144  19.048  16.725   8.255
 6859POPC   C3A19145  19.102  16.710   7.955
 6859POPC   C4A19146  19.109  16.715   7.655
 6859POPC   C1B19147  19.163  16.986   8.555
 6859POPC   C2B19148  19.164  16.988   8.255
 6859POPC   C3B19149  19.141  17.009   7.955
 6859POPC   C4B19150  19.130  16.991   7.655
 6860POPC   NC319151  17.509  36.160   9.455
 6860POPC   PO419152  17.542  36.112   9.155
 6860POPC   GL119153  17.493  36.078   8.855
 6860POPC   GL219154  17.641  36.123   8.855
 6860POPC   C1A19155  17.487  36.130   8.555
 6860POPC   D2A19156  17.461  36.110   8.255
 6860POPC   C3A19157  17.479  36.167   7.955
 6860POPC   C4A19158  17.552  36.147   7.655
 6860POPC   C1B19159  17.706  36.102   8.555
 6860POPC   C2B19160  17.704  36.084   8.255
 6860POPC   C3B19161  17.745  36.027   7.955
 6860POPC   C4B19162  17.755  36.025   7.655
 6861POPC   NC319163  31.504  34.570   9.455
 6861POPC   PO419164  31.485  34.606   9.155
 6861POPC   GL119165  31.472  34.621   8.855
 6861POPC   GL219166  31.529  34.651   8.855
 6861POPC   C1A19167  31.480  34.540   8.555
 6861POPC   D2A19168  31.439  34.554   8.255
 6861POPC   C3A19169  31.504  34.619   7.955
 6861POPC   C4A19170  31.459  34.558   7.655
 6861POPC   C1B19171  31.632  34.796   8.555
 6861POPC   C2B19172  31.663  34.741   8.255
 6861POPC   C3B19173  31.598  34.765   7.955
 6861POPC   C4B19174  31.647  34.751   7.655
 6862POPC   NC319175  22.896  22.198   9.455
 6862POPC   PO419176  22.969  22.196   9.155
 6862POPC   GL119177  22.956  22.160   8.855
 6862POPC   GL219178  22.961  22.054   8.855
 6862POPC   C1A19179  22.929  22.171   8.555
 6862POPC   D2A19180  22.971  22.134   8.255
 6862POPC   C3A19181  22.917  22.126   7.955
 6862POPC   C4A19182  22.953  22.204   7.655
 6862POPC   C1B19183  22.918  21.889   8.555
 6862POPC   C2B19184  22.883  21.929   8.255
 6862POPC   C3B19185  22.922  21.913   7.955
 6862POPC   C4B19186  22.924  21.863   7.655
 6863POPC   NC319187  13.605  16.735   9.455
 6863POPC   PO419188  13.665  16.778   9.155
 6863POPC   GL119189  13.664  16.734   8.855
 6863POPC   GL219190  13.768  16.732   8.855
 6863POPC   C1A19191  13.677  16.720   8.555
 6863POPC   D2A19192  13.666  16.726   8.255
 6863POPC   C3A19193  13.653  16.699   7.955
 6863POPC   C4A19194  13.592  16.759   7.655
 6863POPC   C1B19195  13.864  16.796   8.555
 6863POPC   C2B19196  13.849  16.716   8.255
 6863POPC   C3B19197  13.918  16.789   7.955
 6863POPC   C4B19198  13.904  16.779   7.655
 6864POPC   NC319199   2.811  29.116   9.455
 6864POPC   PO419200   2.734  29.135   9.155
 6864POPC   GL119201   2.717  29.123   8.855
 6864POPC   GL219202   2.753  29.069   8.855
 6864POPC   C1A19203   2.757  29.191   8.555
 6864POPC   D2A19204   2.725  29.166   8.255
 6864POPC   C3A19205   2.773  29.101   7.955
 6864POPC   C4A19206   2.768  29.184   7.655
 6864POPC   C1B19207   2.849  28.869   8.555
 6864POPC   C2B19208   2.813  28.862   8.255
 6864POPC   C3B19209   2.845  28.872   7.955
 6864POPC   C4B19210   2.779  28.911   7.655
 6865POPC   NC319211   5.061  36.876   9.455
 6865POPC   PO419212   5.074  36.931   9.155
 6865POPC   GL119213   5.124  36.874   8.855
 6865POPC   GL219214   5.183  37.070   8.855
 6865POPC   C1A19215   5.076  36.929   8.555
 6865POPC   D2A19216   5.113  36.859   8.255
 6865POPC   C3A19217   5.090  36.861   7.955
 6865POPC   C4A19218   5.074  36.929   7.655
 6865POPC   C1B19219   5.219  37.134   8.555
 6865POPC   C2B19220   5.229  37.126   8.255
 6865POPC   C3B19221   5.185  37.134   7.955
 6865POPC   C4B19222   5.145  37.172   7.655
 6866POPC   NC319223  21.371  31.445   9.455
 6866POPC   PO419224  21.383  31.473   9.155
 6866POPC   GL119225  21.357  31.467   8.855
 6866POPC   GL219226  21.470  31.529   8.855
 6866POPC   C1A19227  21.386  31.425   8.555
 6866POPC   D2A19228  21.429  31.500   8.255
 6866POPC   C3A19229  21.423  31.499   7.955
 6866POPC   C4A19230  21.339  31.498   7.655
 6866POPC   C1B19231  21.594  31.534   8.555
 6866POPC   C2B19232  21.654  31.481   8.255
 6866POPC   C3B19233  21.649  31.534   7.955
 6866POPC   C4B19234  21.633  31.531   7.655
 6867POPC   NC319235  15.927   3.540   9.455
 6867POPC   PO419236  15.926   3.541   9.155
 6867POPC   GL119237  15.963   3.504   8.855
 6867POPC   GL219238  15.902   3.486   8.855
 6867POPC   C1A19239  15.974   3.546   8.555
 6867POPC   D2A19240  15.936   3.528   8.255
 6867POPC   C3A19241  15.979   3.585   7.955
 6867POPC   C4A19242  15.969   3.569   7.655
 6867POPC   C1B19243  15.737   3.418   8.555
 6867POPC   C2B19244  15.721   3.350   8.255
 6867POPC   C3B19245  15.760   3.364   7.955
 6867POPC   C4B19246  15.796   3.372   7.655
 6868POPC   NC319247  38.425   3.532   9.455
 6868POPC   PO419248  38.471   3.504   9.155
 6868POPC   GL119249  38.424   3.543   8.855
 6868POPC   GL219250  38.544   3.646   8.855
 6868POPC   C1A19251  38.491   3.562   8.555
 6868POPC   D2A19252  38.435   3.574   8.255
 6868POPC   C3A19253  38.458   3.523   7.955
 6868POPC   C4A19254  38.428   3.561   7.655
 6868POPC   C1B19255  38.608   3.705   8.555
 6868POPC   C2B19256  38.602   3.745   8.255
 6868POPC   C3B19257  38.612   3.720   7.955
 6868POPC   C4B19258  38.640   3.783   7.655
 6869POPC   NC319259  36.885  10.482   9.455
 6869POPC   PO419260  36.918  10.568   9.155
 6869POPC   GL119261  36.895  10.479   8.855
 6869POPC   GL219262  36.948  10.412   8.855
 6869POPC   C1A19263  36.890  10.499   8.555
 6869POPC   D2A19264  36.944  10.511   8.255
 6869POPC   C3A19265  36.870  10.493   7.955
 6869POPC   C4A19266  36.932  10.484   7.655
 6869POPC   C1B19267  37.033  10.278   8.555
 6869POPC   C2B19268  36.963  10.305   8.255
 6869POPC   C3B19269  36.994  10.273   7.955
 6869POPC   C4B19270  36.955  10.316   7.655
 6870POPC   NC319271   7.382  28.342   9.455
 6870POPC   PO419272   7.376  28.383   9.155
 6870POPC   GL119273   7.375  28.363   8.855
 6870POPC   GL219274   7.265  28.390   8.855
 6870POPC   C1A19275   7.468  28.353   8.555
 6870POPC   D2A19276   7.457  28.367   8.255
 6870POPC   C3A19277   7.412  28.340   7.955
 6870POPC   C4A19278   7.452  28.334   7.655
 6870POPC   C1B19279   7.186  28.301   8.555
 6870POPC   C2B19280   7.166  28.287   8.255
 6870POPC   C3B19281   7.145  28.335   7.955
 6870POPC   C4B19282   7.162  28.359   7.655
 6871POPC   NC319283  29.161   6.691   9.455
 6871POPC   PO419284  29.158   6.672   9.155
 6871POPC   GL119285  29.162   6.670   8.855
 6871POPC   GL219286  29.011   6.659   8.855
 6871POPC   C1A19287  29.132   6.677   8.555
 6871POPC   D2A19288  29.157   6.624   8.255
 6871POPC   C3A19289  29.191   6.629   7.955
 6871POPC   C4A19290  29.169   6.670   7.655
 6871POPC   C1B19291  28.883   6.738   8.555
 6871POPC   C2B19292  28.887   6.782   8.255
 6871POPC   C3B19293  28.870   6.700   7.955
 6871POPC   C4B19294  28.955   6.789   7.655
 6872POPC   NC319295  33.792   1.251   9.455
 6872POPC   PO419296  33.785   1.238   9.155
 6872POPC   GL119297  33.796   1.184   8.855
 6872POPC   GL219298  33.692   1.321   8.855
 6872POPC   C1A19299  33.830   1.173   8.555
 6872POPC   D2A19300  33.797   1.190   8.255
 6872POPC   C3A19301  33.836   1.173   7.955
 6872POPC   C4A19302  33.797   1.248   7.655
 6872POPC   C1B19303  33.620   1.373   8.555
 6872POPC   C2B19304  33.700   1.434   8.255
 6872POPC   C3B19305  33.620   1.414   7.955
 6872POPC   C4B19306  33.703   1.462   7.655
 6873POPC   NC319307  14.410   7.443   9.455
 6873POPC   PO419308  14.406   7.372   9.155
 6873POPC   GL119309  14.435   7.468   8.855
 6873POPC   GL219310  14.358   7.323   8.855
 6873POPC   C1A19311  14.435   7.425   8.555
 6873POPC   D2A19312  14.411   7.395   8.255
 6873POPC   C3A19313  14.388   7.410   7.955
 6873POPC   C4A19314  14.429   7.439   7.655
 6873POPC   C1B19315  14.425   7.210   8.555
 6873POPC   C2B19316  14.352   7.147   8.255
 6873POPC   C3B19317  14.392   7.143   7.955
 6873POPC   C4B19318  14.424   7.171   7.655
 6874POPC   NC319319  23.703  13.639   9.455
 6874POPC   PO419320  23.695  13.648   9.155
 6874POPC   GL119321  23.677  13.599   8.855
 6874POPC   GL219322  23.599  13.658   8.855
 6874POPC   C1A19323  23.759  13.632   8.555
 6874POPC   D2A19324  23.726  13.648   8.255
 6874POPC   C3A19325  23.694  13.638   7.955
 6874POPC   C4A19326  23.749  13.656   7.655
 6874POPC   C1B19327  23.440  13.618   8.555
 6874POPC   C2B19328  23.423  13.622   8.255
 6874POPC   C3B19329  23.494  13.653   7.955
 6874POPC   C4B19330  23.468  13.660   7.655
 6875POPC   NC319331  35.397  25.246   9.455
 6875POPC   PO419332  35.376  25.285   9.155
 6875POPC   GL119333  35.381  25.259   8.855
 6875POPC   GL219334  35.305  25.139   8.855
 6875POPC   C1A19335  35.375  25.310   8.555
 6875POPC   D2A19336  35.401  25.224   8.255
 6875POPC   C3A19337  35.363  25.261   7.955
 6875POPC   C4A19338  35.389  25.306   7.655
 6875POPC   C1B19339  35.172  25.071   8.555
 6875POPC   C2B19340  35.248  25.061   8.255
 6875POPC   C3B19341  35.239  25.036   7.955
 6875POPC   C4B19342  35.249  25.096   7.655
 6876POPC   NC319343   2.020  12.808   9.455
 6876POPC   PO419344   2.023  12.853   9.155
 6876POPC   GL119345   2.026  12.831   8.855
 6876POPC   GL219346   1.890  12.758   8.855
 6876POPC   C1A19347   2.037  12.817   8.555
 6876POPC   D2A19348   1.978  12.843   8.255
 6876POPC   C3A19349   2.010  12.819   7.955
 6876POPC   C4A19350   1.972  12.810   7.655
 6876POPC   C1B19351   1.848  12.621   8.555
 6876POPC   C2B19352   1.852  12.660   8.255
 6876POPC   C3B19353   1.920  12.645   7.955
 6876POPC   C4B19354   1.892  12.654   7.655
 6877POPC   NC319355  43.070  19.798   9.455
 6877POPC   PO419356  43.127  19.874   9.155
 6877POPC   GL119357  43.140  19.858   8.855
 6877POPC   GL219358  43.111  19.923   8.855
 6877POPC   C1A19359  43.158  19.878   8.555
 6877POPC   D2A19360  43.142  19.796   8.255
 6877POPC   C3A19361  43.120  19.846   7.955
 6877POPC   C4A19362  43.067  19.851   7.655
 6877POPC   C1B19363  43.109  20.069   8.555
 6877POPC   C2B19364  43.064  20.049   8.255
 6877POPC   C3B19365  43.080  20.046   7.955
 6877POPC   C4B19366  43.079  20.077   7.655
 6878POPC   NC319367   8.247  41.539   9.455
 6878POPC   PO419368   8.160  41.522   9.155
 6878POPC   GL119369   8.185  41.598   8.855
 6878POPC   GL219370   8.028  41.565   8.855
 6878POPC   C1A19371   8.173  41.596   8.555
 6878POPC   D2A19372   8.195  41.584   8.255
 6878POPC   C3A19373   8.240  41.602   7.955
 6878POPC   C4A19374   8.192  41.561   7.655
 6878POPC   C1B19375   7.945  41.632   8.555
 6878POPC   C2B19376   7.915  41.649   8.255
 6878POPC   C3B19377   7.985  41.591   7.955
 6878POPC   C4B19378   7.982  41.607   7.655
 6879POPC   NC319379  14.438   5.061   9.455
 6879POPC   PO419380  14.374   5.073   9.155
 6879POPC   GL119381  14.360   5.051   8.855
 6879POPC   GL219382  14.504   5.014   8.855
 6879POPC   C1A19383  14.430   5.059   8.555
 6879POPC   D2A19384  14.413   5.118   8.255
 6879POPC   C3A19385  14.388   5.074   7.955
 6879POPC   C4A19386  14.384   5.134   7.655
 6879POPC   C1B19387  14.636   5.029   8.555
 6879POPC   C2B19388  14.685   4.957   8.255
 6879POPC   C3B19389  14.671   4.977   7.955
 6879POPC   C4B19390  14.649   5.032   7.655
 6880POPC   NC319391   5.080  28.395   9.455
 6880POPC   PO419392   5.080  28.334   9.155
 6880POPC   GL119393   5.130  28.336   8.855
 6880POPC   GL219394   5.038  28.417   8.855
 6880POPC   C1A19395   5.120  28.348   8.555
 6880POPC   D2A19396   5.053  28.324   8.255
 6880POPC   C3A19397   5.066  28.349   7.955
 6880POPC   C4A19398   5.069  28.378   7.655
 6880POPC   C1B19399   4.951  28.594   8.555
 6880POPC   C2B19400   4.907  28.524   8.255
 6880POPC   C3B19401   4.883  28.593   7.955
 6880POPC   C4B19402   4.979  28.510   7.655
 6881POPC   NC319403   1.956  37.639   9.455
 6881POPC   PO419404   1.986  37.672   9.155
 6881POPC   GL119405   1.952  37.657   8.855
 6881POPC   GL219406   2.148  37.705   8.855
 6881POPC   C1A19407   1.940  37.659   8.555
 6881POPC   D2A19408   1.989  37.724   8.255
 6881POPC   C3A19409   2.034  37.728   7.955
 6881POPC   C4A19410   2.026  37.718   7.655
 6881POPC   C1B19411   2.259  37.726   8.555
 6881POPC   C2B19412   2.186  37.783   8.255
 6881POPC   C3B19413   2.241  37.803   7.955
 6881POPC   C4B19414   2.222  37.761   7.655
 6882POPC   NC319415  33.032  34.620   9.455
 6882POPC   PO419416  33.033  34.550   9.155
 6882POPC   GL119417  33.031  34.625   8.855
 6882POPC   GL219418  33.107  34.603   8.855
 6882POPC   C1A19419  33.019  34.549   8.555
 6882POPC   D2A19420  32.979  34.533   8.255
 6882POPC   C3A19421  33.009  34.603   7.955
 6882POPC   C4A19422  33.031  34.543   7.655
 6882POPC   C1B19423  33.305  34.578   8.555
 6882POPC   C2B19424  33.313  34.587   8.255
 6882POPC   C3B19425  33.279  34.593   7.955
 6882POPC   C4B19426  33.239  34.539   7.655
 6883POPC   NC319427  34.583  38.488   9.455
 6883POPC   PO419428  34.583  38.463   9.155
 6883POPC   GL119429  34.545  38.470   8.855
 6883POPC   GL219430  34.677  38.395   8.855
 6883POPC   C1A19431  34.569  38.498   8.555
 6883POPC   D2A19432  34.580  38.428   8.255
 6883POPC   C3A19433  34.575  38.418   7.955
 6883POPC   C4A19434  34.606  38.450   7.655
 6883POPC   C1B19435  34.702  38.247   8.555
 6883POPC   C2B19436  34.687  38.298   8.255
 6883POPC   C3B19437  34.738  38.274   7.955
 6883POPC   C4B19438  34.766  38.285   7.655
 6884POPC   NC319439  35.303  29.128   9.455
 6884POPC   PO419440  35.309  29.177   9.155
 6884POPC   GL119441  35.349  29.177   8.855
 6884POPC   GL219442  35.355  29.265   8.855
 6884POPC   C1A19443  35.341  29.169   8.555
 6884POPC   D2A19444  35.323  29.117   8.255
 6884POPC   C3A19445  35.363  29.095   7.955
 6884POPC   C4A19446  35.325  29.103   7.655
 6884POPC   C1B19447  35.355  29.371   8.555
 6884POPC   C2B19448  35.325  29.358   8.255
 6884POPC   C3B19449  35.360  29.418   7.955
 6884POPC   C4B19450  35.374  29.389   7.655
 6885POPC   NC319451  27.558   5.047   9.455
 6885POPC   PO419452  27.566   5.063   9.155
 6885POPC   GL119453  27.593   5.122   8.855
 6885POPC   GL219454  27.739   5.081   8.855
 6885POPC   C1A19455  27.611   5.065   8.555
 6885POPC   D2A19456  27.563   5.118   8.255
 6885POPC   C3A19457  27.572   5.131   7.955
 6885POPC   C4A19458  27.619   5.133   7.655
 6885POPC   C1B19459  27.815   5.161   8.555
 6885POPC   C2B19460  27.810   5.146   8.255
 6885POPC   C3B19461  27.821   5.109   7.955
 6885POPC   C4B19462  27.823   5.127   7.655
 6886POPC   NC319463  33.065   0.459   9.455
 6886POPC   PO419464  33.048   0.404   9.155
 6886POPC   GL119465  33.003   0.438   8.855
 6886POPC   GL219466  32.985   0.521   8.855
 6886POPC   C1A19467  32.984   0.446   8.555
 6886POPC   D2A19468  33.024   0.464   8.255
 6886POPC   C3A19469  32.980   0.455   7.955
 6886POPC   C4A19470  33.055   0.484   7.655
 6886POPC   C1B19471  32.838   0.570   8.555
 6886POPC   C2B19472  32.850   0.665   8.255
 6886POPC   C3B19473  32.868   0.595   7.955
 6886POPC   C4B19474  32.825   0.597   7.655
 6887POPC   NC319475  17.536   6.680   9.455
 6887POPC   PO419476  17.471   6.608   9.155
 6887POPC   GL119477  17.546   6.641   8.855
 6887POPC   GL219478  17.605   6.599   8.855
 6887POPC   C1A19479  17.459   6.689   8.555
 6887POPC   D2A19480  17.547   6.650   8.255
 6887POPC   C3A19481  17.491   6.681   7.955
 6887POPC   C4A19482  17.474   6.650   7.655
 6887POPC   C1B19483  17.739   6.644   8.555
 6887POPC   C2B19484  17.731   6.663   8.255
 6887POPC   C3B19485  17.748   6.680   7.955
 6887POPC   C4B19486  17.798   6.626   7.655
 6888POPC   NC319487  22.902  30.745   9.455
 6888POPC   PO419488  22.984  30.710   9.155
 6888POPC   GL119489  22.973  30.704   8.855
 6888POPC   GL219490  22.860  30.829   8.855
 6888POPC   C1A19491  22.927  30.722   8.555
 6888POPC   D2A19492  22.977  30.722   8.255
 6888POPC   C3A19493  22.982  30.654   7.955
 6888POPC   C4A19494  22.962  30.712   7.655
 6888POPC   C1B19495  22.752  30.906   8.555
 6888POPC   C2B19496  22.760  30.917   8.255
 6888POPC   C3B19497  22.762  30.845   7.955
 6888POPC   C4B19498  22.788  30.899   7.655
 6889POPC   NC319499  26.858  12.063   9.455
 6889POPC   PO419500  26.773  12.026   9.155
 6889POPC   GL119501  26.794  12.044   8.855
 6889POPC   GL219502  26.747  12.160   8.855
 6889POPC   C1A19503  26.808  12.071   8.555
 6889POPC   D2A19504  26.809  12.094   8.255
 6889POPC   C3A19505  26.824  12.060   7.955
 6889POPC   C4A19506  26.799  12.119   7.655
 6889POPC   C1B19507  26.729  12.354   8.555
 6889POPC   C2B19508  26.782  12.341   8.255
 6889POPC   C3B19509  26.746  12.351   7.955
 6889POPC   C4B19510  26.803  12.338   7.655
 6890POPC   NC319511  38.467  12.854   9.455
 6890POPC   PO419512  38.437  12.834   9.155
 6890POPC   GL119513  38.475  12.837   8.855
 6890POPC   GL219514  38.445  12.691   8.855
 6890POPC   C1A19515  38.439  12.899   8.555
 6890POPC   D2A19516  38.418  12.815   8.255
 6890POPC   C3A19517  38.409  12.833   7.955
 6890POPC   C4A19518  38.499  12.866   7.655
 6890POPC   C1B19519  38.469  12.572   8.555
 6890POPC   C2B19520  38.463  12.634   8.255
 6890POPC   C3B19521  38.381  12.607   7.955
 6890POPC   C4B19522  38.397  12.574   7.655
 6891POPC   NC319523  11.260  15.145   9.455
 6891POPC   PO419524  11.275  15.223   9.155
 6891POPC   GL119525  11.312  15.134   8.855
 6891POPC   GL219526  11.272  15.078   8.855
 6891POPC   C1A19527  11.268  15.151   8.555
 6891POPC   D2A19528  11.347  15.160   8.255
 6891POPC   C3A19529  11.262  15.186   7.955
 6891POPC   C4A19530  11.319  15.189   7.655
 6891POPC   C1B19531  11.345  14.937   8.555
 6891POPC   C2B19532  11.378  14.900   8.255
 6891POPC   C3B19533  11.373  14.933   7.955
 6891POPC   C4B19534  11.369  14.953   7.655
 6892POPC   NC319535  19.068  42.312   9.455
 6892POPC   PO419536  19.058  42.322   9.155
 6892POPC   GL119537  19.084  42.357   8.855
 6892POPC   GL219538  19.151  42.451   8.855
 6892POPC   C1A19539  19.045  42.292   8.555
 6892POPC   D2A19540  19.086  42.293   8.255
 6892POPC   C3A19541  19.099  42.307   7.955
 6892POPC   C4A19542  19.033  42.294   7.655
 6892POPC   C1B19543  19.272  42.509   8.555
 6892POPC   C2B19544  19.244  42.467   8.255
 6892POPC   C3B19545  19.228  42.445   7.955
 6892POPC   C4B19546  19.308  42.461   7.655
 6893POPC   NC319547  19.050  44.688   9.455
 6893POPC   PO419548  19.106  44.614   9.155
 6893POPC   GL119549  19.073  44.649   8.855
 6893POPC   GL219550  19.142  44.743   8.855
 6893POPC   C1A19551  19.053  44.647   8.555
 6893POPC   D2A19552  19.047  44.624   8.255
 6893POPC   C3A19553  19.086  44.669   7.955
 6893POPC   C4A19554  19.062  44.618   7.655
 6893POPC   C1B19555  19.253  44.795   8.555
 6893POPC   C2B19556  19.229  44.854   8.255
 6893POPC   C3B19557  19.303  44.824   7.955
 6893POPC   C4B19558  19.215  44.807   7.655
 6894POPC   NC319559  11.252  43.884   9.455
 6894POPC   PO419560  11.326  43.891   9.155
 6894POPC   GL119561  11.308  43.876   8.855
 6894POPC   GL219562  11.430  43.989   8.855
 6894POPC   C1A19563  11.306  43.928   8.555
 6894POPC   D2A19564  11.315  43.922   8.255
 6894POPC   C3A19565  11.308  43.857   7.955
 6894POPC   C4A19566  11.298  43.840   7.655
 6894POPC   C1B19567  11.526  44.056   8.555
 6894POPC   C2B19568  11.526  44.079   8.255
 6894POPC   C3B19569  11.462  44.080   7.955
 6894POPC   C4B19570  11.473  44.063   7.655
 6895POPC   NC319571   0.441  42.378   9.455
 6895POPC   PO419572   0.434  42.290   9.155
 6895POPC   GL119573   0.464  42.330   8.855
 6895POPC   GL219574   0.292  42.431   8.855
 6895POPC   C1A19575   0.476  42.335   8.555
 6895POPC   D2A19576   0.425  42.306   8.255
 6895POPC   C3A19577   0.444  42.311   7.955
 6895POPC   C4A19578   0.453  42.323   7.655
 6895POPC   C1B19579   0.215  42.461   8.555
 6895POPC   C2B19580   0.242  42.452   8.255
 6895POPC   C3B19581   0.231  42.469   7.955
 6895POPC   C4B19582   0.203  42.509   7.655
 6896POPC   NC319583  19.797  12.036   9.455
 6896POPC   PO419584  19.842  12.093   9.155
 6896POPC   GL119585  19.867  12.028   8.855
 6896POPC   GL219586  19.880  12.208   8.855
 6896POPC   C1A19587  19.804  12.066   8.555
 6896POPC   D2A19588  19.873  12.046   8.255
 6896POPC   C3A19589  19.848  12.124   7.955
 6896POPC   C4A19590  19.850  12.033   7.655
 6896POPC   C1B19591  20.055  12.197   8.555
 6896POPC   C2B19592  20.013  12.207   8.255
 6896POPC   C3B19593  20.032  12.254   7.955
 6896POPC   C4B19594  20.048  12.253   7.655
 6897POPC   NC319595  10.565  16.698   9.455
 6897POPC   PO419596  10.532  16.728   9.155
 6897POPC   GL119597  10.516  16.698   8.855
 6897POPC   GL219598  10.395  16.658   8.855
 6897POPC   C1A19599  10.488  16.695   8.555
 6897POPC   D2A19600  10.484  16.772   8.255
 6897POPC   C3A19601  10.498  16.751   7.955
 6897POPC   C4A19602  10.477  16.756   7.655
 6897POPC   C1B19603  10.311  16.633   8.555
 6897POPC   C2B19604  10.261  16.586   8.255
 6897POPC   C3B19605  10.301  16.560   7.955
 6897POPC   C4B19606  10.297  16.560   7.655
 6898POPC   NC319607  12.831   2.802   9.455
 6898POPC   PO419608  12.814   2.726   9.155
 6898POPC   GL119609  12.871   2.726   8.855
 6898POPC   GL219610  12.778   2.653   8.855
 6898POPC   C1A19611  12.857   2.746   8.555
 6898POPC   D2A19612  12.815   2.768   8.255
 6898POPC   C3A19613  12.876   2.759   7.955
 6898POPC   C4A19614  12.837   2.720   7.655
 6898POPC   C1B19615  12.645   2.580   8.555
 6898POPC   C2B19616  12.668   2.552   8.255
 6898POPC   C3B19617  12.685   2.564   7.955
 6898POPC   C4B19618  12.647   2.616   7.655
 6899POPC   NC319619   1.195  40.739   9.455
 6899POPC   PO419620   1.216  40.796   9.155
 6899POPC   GL119621   1.259  40.764   8.855
 6899POPC   GL219622   1.210  40.617   8.855
 6899POPC   C1A19623   1.233  40.814   8.555
 6899POPC   D2A19624   1.232  40.762   8.255
 6899POPC   C3A19625   1.171  40.788   7.955
 6899POPC   C4A19626   1.214  40.804   7.655
 6899POPC   C1B19627   1.331  40.516   8.555
 6899POPC   C2B19628   1.286  40.551   8.255
 6899POPC   C3B19629   1.311  40.520   7.955
 6899POPC   C4B19630   1.321  40.577   7.655
 6900POPC   NC319631  28.330   2.018   9.455
 6900POPC   PO419632  28.356   1.945   9.155
 6900POPC   GL119633  28.361   2.010   8.855
 6900POPC   GL219634  28.306   2.139   8.855
 6900POPC   C1A19635  28.396   1.958   8.555
 6900POPC   D2A19636  28.371   2.022   8.255
 6900POPC   C3A19637  28.379   2.017   7.955
 6900POPC   C4A19638  28.327   2.019   7.655
 6900POPC   C1B19639  28.260   2.200   8.555
 6900POPC   C2B19640  28.281   2.255   8.255
 6900POPC   C3B19641  28.312   2.244   7.955
 6900POPC   C4B19642  28.257   2.252   7.655
 6901POPC   NC319643  20.580  26.860   9.455
 6901POPC   PO419644  20.621  26.851   9.155
 6901POPC   GL119645  20.630  26.808   8.855
 6901POPC   GL219646  20.537  26.784   8.855
 6901POPC   C1A19647  20.650  26.844   8.555
 6901POPC   D2A19648  20.590  26.825   8.255
 6901POPC   C3A19649  20.563  26.846   7.955
 6901POPC   C4A19650  20.579  26.798   7.655
 6901POPC   C1B19651  20.397  26.716   8.555
 6901POPC   C2B19652  20.394  26.815   8.255
 6901POPC   C3B19653  20.349  26.755   7.955
 6901POPC   C4B19654  20.377  26.797   7.655
 6902POPC   NC319655  32.230  36.127   9.455
 6902POPC   PO419656  32.251  36.131   9.155
 6902POPC   GL119657  32.274  36.103   8.855
 6902POPC   GL219658  32.241  36.273   8.855
 6902POPC   C1A19659  32.281  36.166   8.555
 6902POPC   D2A19660  32.264  36.107   8.255
 6902POPC   C3A19661  32.276  36.111   7.955
 6902POPC   C4A19662  32.283  36.081   7.655
 6902POPC   C1B19663  32.218  36.341   8.555
 6902POPC   C2B19664  32.156  36.376   8.255
 6902POPC   C3B19665  32.189  36.338   7.955
 6902POPC   C4B19666  32.148  36.385   7.655
 6903POPC   NC319667  30.680   6.684   9.455
 6903POPC   PO419668  30.728   6.692   9.155
 6903POPC   GL119669  30.743   6.615   8.855
 6903POPC   GL219670  30.649   6.571   8.855
 6903POPC   C1A19671  30.701   6.650   8.555
 6903POPC   D2A19672  30.682   6.604   8.255
 6903POPC   C3A19673  30.678   6.674   7.955
 6903POPC   C4A19674  30.720   6.602   7.655
 6903POPC   C1B19675  30.627   6.371   8.555
 6903POPC   C2B19676  30.616   6.434   8.255
 6903POPC   C3B19677  30.658   6.379   7.955
 6903POPC   C4B19678  30.629   6.443   7.655
 6904POPC   NC319679  41.591   8.148   9.455
 6904POPC   PO419680  41.586   8.245   9.155
 6904POPC   GL119681  41.593   8.152   8.855
 6904POPC   GL219682  41.553   8.115   8.855
 6904POPC   C1A19683  41.549   8.163   8.555
 6904POPC   D2A19684  41.571   8.147   8.255
 6904POPC   C3A19685  41.551   8.241   7.955
 6904POPC   C4A19686  41.588   8.177   7.655
 6904POPC   C1B19687  41.676   7.916   8.555
 6904POPC   C2B19688  41.606   7.953   8.255
 6904POPC   C3B19689  41.580   8.003   7.955
 6904POPC   C4B19690  41.650   7.980   7.655
 6905POPC   NC319691  26.085  33.795   9.455
 6905POPC   PO419692  25.998  33.771   9.155
 6905POPC   GL119693  26.014  33.801   8.855
 6905POPC   GL219694  26.134  33.927   8.855
 6905POPC   C1A19695  26.019  33.814   8.555
 6905POPC   D2A19696  26.055  33.843   8.255
 6905POPC   C3A19697  25.998  33.825   7.955
 6905POPC   C4A19698  26.003  33.789   7.655
 6905POPC   C1B19699  26.206  33.970   8.555
 6905POPC   C2B19700  26.185  34.011   8.255
 6905POPC   C3B19701  26.211  33.968   7.955
 6905POPC   C4B19702  26.217  33.950   7.655
 6906POPC   NC319703  29.146  30.740   9.455
 6906POPC   PO419704  29.149  30.667   9.155
 6906POPC   GL119705  29.117  30.733   8.855
 6906POPC   GL219706  29.260  30.730   8.855
 6906POPC   C1A19707  29.109  30.737   8.555
 6906POPC   D2A19708  29.175  30.667   8.255
 6906POPC   C3A19709  29.148  30.649   7.955
 6906POPC   C4A19710  29.191  30.673   7.655
 6906POPC   C1B19711  29.362  30.670   8.555
 6906POPC   C2B19712  29.348  30.744   8.255
 6906POPC   C3B19713  29.347  30.669   7.955
 6906POPC   C4B19714  29.415  30.754   7.655
 6907POPC   NC319715   1.959  15.206   9.455
 6907POPC   PO419716   1.961  15.174   9.155
 6907POPC   GL119717   1.945  15.163   8.855
 6907POPC   GL219718   1.897  15.154   8.855
 6907POPC   C1A19719   2.030  15.141   8.555
 6907POPC   D2A19720   1.965  15.143   8.255
 6907POPC   C3A19721   1.997  15.176   7.955
 6907POPC   C4A19722   1.948  15.213   7.655
 6907POPC   C1B19723   1.793  15.091   8.555
 6907POPC   C2B19724   1.812  15.055   8.255
 6907POPC   C3B19725   1.760  15.078   7.955
 6907POPC   C4B19726   1.769  15.069   7.655
 6908POPC   NC319727   1.191  29.121   9.455
 6908POPC   PO419728   1.230  29.102   9.155
 6908POPC   GL119729   1.175  29.154   8.855
 6908POPC   GL219730   1.099  29.135   8.855
 6908POPC   C1A19731   1.203  29.117   8.555
 6908POPC   D2A19732   1.186  29.131   8.255
 6908POPC   C3A19733   1.206  29.126   7.955
 6908POPC   C4A19734   1.236  29.148   7.655
 6908POPC   C1B19735   0.965  29.094   8.555
 6908POPC   C2B19736   0.958  29.072   8.255
 6908POPC   C3B19737   0.985  29.075   7.955
 6908POPC   C4B19738   0.955  29.087   7.655
 6909POPC   NC319739  33.003  28.332   9.455
 6909POPC   PO419740  33.004  28.380   9.155
 6909POPC   GL119741  33.043  28.370   8.855
 6909POPC   GL219742  33.163  28.274   8.855
 6909POPC   C1A19743  32.975  28.401   8.555
 6909POPC   D2A19744  33.036  28.402   8.255
 6909POPC   C3A19745  32.980  28.326   7.955
 6909POPC   C4A19746  32.982  28.396   7.655
 6909POPC   C1B19747  33.211  28.205   8.555
 6909POPC   C2B19748  33.261  28.255   8.255
 6909POPC   C3B19749  33.253  28.208   7.955
 6909POPC   C4B19750  33.218  28.218   7.655
 6910POPC   NC319751  16.775  43.842   9.455
 6910POPC   PO419752  16.765  43.846   9.155
 6910POPC   GL119753  16.729  43.867   8.855
 6910POPC   GL219754  16.581  43.898   8.855
 6910POPC   C1A19755  16.740  43.848   8.555
 6910POPC   D2A19756  16.721  43.898   8.255
 6910POPC   C3A19757  16.767  43.894   7.955
 6910POPC   C4A19758  16.699  43.848   7.655
 6910POPC   C1B19759  16.469  43.927   8.555
 6910POPC   C2B19760  16.468  43.912   8.255
 6910POPC   C3B19761  16.463  43.947   7.955
 6910POPC   C4B19762  16.514  43.935   7.655
 6911POPC   NC319763  10.569  21.368   9.455
 6911POPC   PO419764  10.514  21.348   9.155
 6911POPC   GL119765  10.557  21.393   8.855
 6911POPC   GL219766  10.445  21.309   8.855
 6911POPC   C1A19767  10.561  21.354   8.555
 6911POPC   D2A19768  10.495  21.359   8.255
 6911POPC   C3A19769  10.486  21.405   7.955
 6911POPC   C4A19770  10.492  21.340   7.655
 6911POPC   C1B19771  10.313  21.272   8.555
 6911POPC   C2B19772  10.325  21.366   8.255
 6911POPC   C3B19773  10.298  21.345   7.955
 6911POPC   C4B19774  10.334  21.309   7.655
 6912POPC   NC319775   4.338  12.828   9.455
 6912POPC   PO419776   4.279  12.845   9.155
 6912POPC   GL119777   4.360  12.839   8.855
 6912POPC   GL219778   4.295  12.705   8.855
 6912POPC   C1A19779   4.302  12.866   8.555
 6912POPC   D2A19780   4.333  12.876   8.255
 6912POPC   C3A19781   4.344  12.812   7.955
 6912POPC   C4A19782   4.286  12.901   7.655
 6912POPC   C1B19783   4.195  12.616   8.555
 6912POPC   C2B19784   4.186  12.621   8.255
 6912POPC   C3B19785   4.176  12.646   7.955
 6912POPC   C4B19786   4.159  12.634   7.655
 6913POPC   NC319787  27.619  30.694   9.455
 6913POPC   PO419788  27.641  30.729   9.155
 6913POPC   GL119789  27.570  30.674   8.855
 6913POPC   GL219790  27.482  30.721   8.855
 6913POPC   C1A19791  27.561  30.709   8.555
 6913POPC   D2A19792  27.544  30.745   8.255
 6913POPC   C3A19793  27.580  30.746   7.955
 6913POPC   C4A19794  27.579  30.698   7.655
 6913POPC   C1B19795  27.377  30.732   8.555
 6913POPC   C2B19796  27.336  30.811   8.255
 6913POPC   C3B19797  27.321  30.784   7.955
 6913POPC   C4B19798  27.317  30.815   7.655
 6914POPC   NC319799  22.938  37.677   9.455
 6914POPC   PO419800  22.967  37.641   9.155
 6914POPC   GL119801  22.921  37.722   8.855
 6914POPC   GL219802  22.847  37.655   8.855
 6914POPC   C1A19803  22.891  37.688   8.555
 6914POPC   D2A19804  22.954  37.714   8.255
 6914POPC   C3A19805  22.959  37.644   7.955
 6914POPC   C4A19806  22.932  37.660   7.655
 6914POPC   C1B19807  22.694  37.589   8.555
 6914POPC   C2B19808  22.713  37.667   8.255
 6914POPC   C3B19809  22.644  37.583   7.955
 6914POPC   C4B19810  22.703  37.615   7.655
 6915POPC   NC319811  10.492  22.966   9.455
 6915POPC   PO419812  10.531  22.975   9.155
 6915POPC   GL119813  10.497  22.890   8.855
 6915POPC   GL219814  10.522  23.086   8.855
 6915POPC   C1A19815  10.527  22.949   8.555
 6915POPC   D2A19816  10.540  22.982   8.255
 6915POPC   C3A19817  10.569  22.966   7.955
 6915POPC   C4A19818  10.542  22.936   7.655
 6915POPC   C1B19819  10.419  23.193   8.555
 6915POPC   C2B19820  10.445  23.133   8.255
 6915POPC   C3B19821  10.475  23.207   7.955
 6915POPC   C4B19822  10.446  23.154   7.655
 6916POPC   NC319823  29.921  29.096   9.455
 6916POPC   PO419824  29.895  29.132   9.155
 6916POPC   GL119825  29.884  29.157   8.855
 6916POPC   GL219826  30.003  29.169   8.855
 6916POPC   C1A19827  29.893  29.118   8.555
 6916POPC   D2A19828  29.923  29.127   8.255
 6916POPC   C3A19829  29.969  29.166   7.955
 6916POPC   C4A19830  29.927  29.173   7.655
 6916POPC   C1B19831  30.100  29.228   8.555
 6916POPC   C2B19832  30.180  29.285   8.255
 6916POPC   C3B19833  30.144  29.225   7.955
 6916POPC   C4B19834  30.129  29.254   7.655
 6917POPC   NC319835  30.675  35.302   9.455
 6917POPC   PO419836  30.714  35.321   9.155
 6917POPC   GL119837  30.739  35.396   8.855
 6917POPC   GL219838  30.827  35.449   8.855
 6917POPC   C1A19839  30.650  35.355   8.555
 6917POPC   D2A19840  30.670  35.331   8.255
 6917POPC   C3A19841  30.719  35.311   7.955
 6917POPC   C4A19842  30.672  35.388   7.655
 6917POPC   C1B19843  30.920  35.550   8.555
 6917POPC   C2B19844  30.912  35.506   8.255
 6917POPC   C3B19845  30.839  35.537   7.955
 6917POPC   C4B19846  30.895  35.542   7.655
 6918POPC   NC319847  22.166  19.036   9.455
 6918POPC   PO419848  22.199  19.100   9.155
 6918POPC   GL119849  22.173  19.026   8.855
 6918POPC   GL219850  22.024  19.057   8.855
 6918POPC   C1A19851  22.144  19.095   8.555
 6918POPC   D2A19852  22.114  19.100   8.255
 6918POPC   C3A19853  22.116  19.040   7.955
 6918POPC   C4A19854  22.119  19.081   7.655
 6918POPC   C1B19855  21.942  19.036   8.555
 6918POPC   C2B19856  21.903  19.046   8.255
 6918POPC   C3B19857  21.917  19.056   7.955
 6918POPC   C4B19858  21.960  19.104   7.655
 6919POPC   NC319859  22.184  31.464   9.455
 6919POPC   PO419860  22.117  31.437   9.155
 6919POPC   GL119861  22.196  31.477   8.855
 6919POPC   GL219862  22.288  31.514   8.855
 6919POPC   C1A19863  22.174  31.456   8.555
 6919POPC   D2A19864  22.159  31.483   8.255
 6919POPC   C3A19865  22.160  31.516   7.955
 6919POPC   C4A19866  22.181  31.518   7.655
 6919POPC   C1B19867  22.350  31.577   8.555
 6919POPC   C2B19868  22.327  31.602   8.255
 6919POPC   C3B19869  22.392  31.616   7.955
 6919POPC   C4B19870  22.322  31.636   7.655
 6920POPC   NC319871  23.688   4.347   9.455
 6920POPC   PO419872  23.754   4.302   9.155
 6920POPC   GL119873  23.718   4.342   8.855
 6920POPC   GL219874  23.836   4.306   8.855
 6920POPC   C1A19875  23.665   4.296   8.555
 6920POPC   D2A19876  23.668   4.296   8.255
 6920POPC   C3A19877  23.713   4.285   7.955
 6920POPC   C4A19878  23.729   4.342   7.655
 6920POPC   C1B19879  23.985   4.347   8.555
 6920POPC   C2B19880  23.926   4.308   8.255
 6920POPC   C3B19881  23.947   4.357   7.955
 6920POPC   C4B19882  23.938   4.354   7.655
 6921POPC   NC319883   3.497  25.293   9.455
 6921POPC   PO419884   3.571  25.298   9.155
 6921POPC   GL119885   3.588  25.239   8.855
 6921POPC   GL219886   3.563  25.333   8.855
 6921POPC   C1A19887   3.583  25.224   8.555
 6921POPC   D2A19888   3.504  25.248   8.255
 6921POPC   C3A19889   3.502  25.241   7.955
 6921POPC   C4A19890   3.564  25.292   7.655
 6921POPC   C1B19891   3.644  25.457   8.555
 6921POPC   C2B19892   3.579  25.497   8.255
 6921POPC   C3B19893   3.643  25.514   7.955
 6921POPC   C4B19894   3.671  25.530   7.655
 6922POPC   NC319895  30.707   1.958   9.455
 6922POPC   PO419896  30.736   1.971   9.155
 6922POPC   GL119897  30.744   2.035   8.855
 6922POPC   GL219898  30.810   2.086   8.855
 6922POPC   C1A19899  30.697   2.006   8.555
 6922POPC   D2A19900  30.693   1.941   8.255
 6922POPC   C3A19901  30.705   1.945   7.955
 6922POPC   C4A19902  30.738   1.957   7.655
 6922POPC   C1B19903  30.831   2.171   8.555
 6922POPC   C2B19904  30.807   2.219   8.255
 6922POPC   C3B19905  30.800   2.180   7.955
 6922POPC   C4B19906  30.800   2.225   7.655
 6923POPC   NC319907  17.483  26.079   9.455
 6923POPC   PO419908  17.463  26.020   9.155
 6923POPC   GL119909  17.483  26.078   8.855
 6923POPC   GL219910  17.451  26.204   8.855
 6923POPC   C1A19911  17.469  26.035   8.555
 6923POPC   D2A19912  17.467  26.061   8.255
 6923POPC   C3A19913  17.546  26.017   7.955
 6923POPC   C4A19914  17.471  26.088   7.655
 6923POPC   C1B19915  17.446  26.336   8.555
 6923POPC   C2B19916  17.470  26.241   8.255
 6923POPC   C3B19917  17.534  26.298   7.955
 6923POPC   C4B19918  17.448  26.283   7.655
 6924POPC   NC319919  17.524  34.557   9.455
 6924POPC   PO419920  17.482  34.556   9.155
 6924POPC   GL119921  17.480  34.614   8.855
 6924POPC   GL219922  17.377  34.571   8.855
 6924POPC   C1A19923  17.528  34.591   8.555
 6924POPC   D2A19924  17.532  34.592   8.255
 6924POPC   C3A19925  17.540  34.562   7.955
 6924POPC   C4A19926  17.507  34.579   7.655
 6924POPC   C1B19927  17.300  34.653   8.555
 6924POPC   C2B19928  17.286  34.668   8.255
 6924POPC   C3B19929  17.264  34.640   7.955
 6924POPC   C4B19930  17.225  34.637   7.655
 6925POPC   NC319931  44.658  13.653   9.455
 6925POPC   PO419932  44.693  13.598   9.155
 6925POPC   GL119933  44.682  13.646   8.855
 6925POPC   GL219934  44.649  13.498   8.855
 6925POPC   C1A19935  44.668  13.621   8.555
 6925POPC   D2A19936  44.663  13.674   8.255
 6925POPC   C3A19937  44.644  13.588   7.955
 6925POPC   C4A19938  44.616  13.630   7.655
 6925POPC   C1B19939  44.744  13.413   8.555
 6925POPC   C2B19940  44.743  13.356   8.255
 6925POPC   C3B19941  44.748  13.401   7.955
 6925POPC   C4B19942  44.737  13.426   7.655
 6926POPC   NC319943  21.378  20.616   9.455
 6926POPC   PO419944  21.386  20.561   9.155
 6926POPC   GL119945  21.391  20.591   8.855
 6926POPC   GL219946  21.306  20.499   8.855
 6926POPC   C1A19947  21.353  20.621   8.555
 6926POPC   D2A19948  21.347  20.565   8.255
 6926POPC   C3A19949  21.400  20.606   7.955
 6926POPC   C4A19950  21.367  20.642   7.655
 6926POPC   C1B19951  21.255  20.412   8.555
 6926POPC   C2B19952  21.254  20.407   8.255
 6926POPC   C3B19953  21.202  20.402   7.955
 6926POPC   C4B19954  21.213  20.403   7.655
 6927POPC   NC319955   1.213  36.138   9.455
 6927POPC   PO419956   1.223  36.132   9.155
 6927POPC   GL119957   1.208  36.086   8.855
 6927POPC   GL219958   1.171  36.184   8.855
 6927POPC   C1A19959   1.221  36.123   8.555
 6927POPC   D2A19960   1.237  36.090   8.255
 6927POPC   C3A19961   1.252  36.120   7.955
 6927POPC   C4A19962   1.258  36.105   7.655
 6927POPC   C1B19963   1.039  36.360   8.555
 6927POPC   C2B19964   1.030  36.388   8.255
 6927POPC   C3B19965   1.078  36.368   7.955
 6927POPC   C4B19966   1.094  36.374   7.655
 6928POPC   NC319967  25.290  29.138   9.455
 6928POPC   PO419968  25.244  29.181   9.155
 6928POPC   GL119969  25.273  29.189   8.855
 6928POPC   GL219970  25.168  29.182   8.855
 6928POPC   C1A19971  25.295  29.103   8.555
 6928POPC   D2A19972  25.306  29.161   8.255
 6928POPC   C3A19973  25.270  29.138   7.955
 6928POPC   C4A19974  25.302  29.184   7.655
 6928POPC   C1B19975  25.089  29.328   8.555
 6928POPC   C2B19976  25.117  29.289   8.255
 6928POPC   C3B19977  25.080  29.314   7.955
 6928POPC   C4B19978  25.118  29.311   7.655
 6929POPC   NC319979  13.623  20.638   9.455
 6929POPC   PO419980  13.672  20.595   9.155
 6929POPC   GL119981  13.670  20.611   8.855
 6929POPC   GL219982  13.665  20.453   8.855
 6929POPC   C1A19983  13.613  20.566   8.555
 6929POPC   D2A19984  13.626  20.568   8.255
 6929POPC   C3A19985  13.678  20.577   7.955
 6929POPC   C4A19986  13.646  20.648   7.655
 6929POPC   C1B19987  13.682  20.316   8.555
 6929POPC   C2B19988  13.639  20.346   8.255
 6929POPC   C3B19989  13.640  20.376   7.955
 6929POPC   C4B19990  13.651  20.324   7.655
 6930POPC   NC319991   8.998   4.355   9.455
 6930POPC   PO419992   8.952   4.306   9.155
 6930POPC   GL119993   9.004   4.281   8.855
 6930POPC   GL219994   8.874   4.275   8.855
 6930POPC   C1A19995   9.013   4.340   8.555
 6930POPC   D2A19996   9.005   4.350   8.255
 6930POPC   C3A19997   8.982   4.314   7.955
 6930POPC   C4A19998   8.925   4.343   7.655
 6930POPC   C1B19999   8.741   4.107   8.555
 6930POPC   C2B20000   8.744   4.142   8.255
 6930POPC   C3B20001   8.818   4.146   7.955
 6930POPC   C4B20002   8.760   4.134   7.655
 6931POPC   NC320003  32.282   5.839   9.455
 6931POPC   PO420004  32.226   5.896   9.155
 6931POPC   GL120005  32.255   5.861   8.855
 6931POPC   GL220006  32.392   5.885   8.855
 6931POPC   C1A20007  32.227   5.822   8.555
 6931POPC   D2A20008  32.217   5.907   8.255
 6931POPC   C3A20009  32.210   5.840   7.955
 6931POPC   C4A20010  32.258   5.897   7.655
 6931POPC   C1B20011  32.469   5.904   8.555
 6931POPC   C2B20012  32.454   5.887   8.255
 6931POPC   C3B20013  32.486   5.914   7.955
 6931POPC   C4B20014  32.542   5.917   7.655
 6932POPC   NC320015   9.728  29.168   9.455
 6932POPC   PO420016   9.792  29.150   9.155
 6932POPC   GL120017   9.717  29.168   8.855
 6932POPC   GL220018   9.866  29.120   8.855
 6932POPC   C1A20019   9.739  29.155   8.555
 6932POPC   D2A20020   9.704  29.114   8.255
 6932POPC   C3A20021   9.742  29.121   7.955
 6932POPC   C4A20022   9.739  29.165   7.655
 6932POPC   C1B20023  10.017  29.121   8.555
 6932POPC   C2B20024   9.985  29.103   8.255
 6932POPC   C3B20025  10.032  29.141   7.955
 6932POPC   C4B20026  10.047  29.180   7.655
 6933POPC   NC320027  15.136  15.187   9.455
 6933POPC   PO420028  15.186  15.178   9.155
 6933POPC   GL120029  15.226  15.161   8.855
 6933POPC   GL220030  15.134  15.076   8.855
 6933POPC   C1A20031  15.212  15.138   8.555
 6933POPC   D2A20032  15.218  15.210   8.255
 6933POPC   C3A20033  15.142  15.193   7.955
 6933POPC   C4A20034  15.208  15.151   7.655
 6933POPC   C1B20035  15.034  14.985   8.555
 6933POPC   C2B20036  15.024  14.962   8.255
 6933POPC   C3B20037  14.979  14.988   7.955
 6933POPC   C4B20038  15.017  15.041   7.655
 6934POPC   NC320039  39.209  19.019   9.455
 6934POPC   PO420040  39.237  19.070   9.155
 6934POPC   GL120041  39.193  19.040   8.855
 6934POPC   GL220042  39.230  18.955   8.855
 6934POPC   C1A20043  39.275  19.010   8.555
 6934POPC   D2A20044  39.269  19.030   8.255
 6934POPC   C3A20045  39.190  19.085   7.955
 6934POPC   C4A20046  39.221  19.042   7.655
 6934POPC   C1B20047  39.197  18.809   8.555
 6934POPC   C2B20048  39.111  18.818   8.255
 6934POPC   C3B20049  39.155  18.781   7.955
 6934POPC   C4B20050  39.158  18.775   7.655
 6935POPC   NC320051  43.921  29.923   9.455
 6935POPC   PO420052  43.847  29.898   9.155
 6935POPC   GL120053  43.871  29.930   8.855
 6935POPC   GL220054  43.754  30.039   8.855
 6935POPC   C1A20055  43.869  29.945   8.555
 6935POPC   D2A20056  43.852  29.964   8.255
 6935POPC   C3A20057  43.852  29.947   7.955
 6935POPC   C4A20058  43.847  29.900   7.655
 6935POPC   C1B20059  43.721  30.103   8.555
 6935POPC   C2B20060  43.741  30.088   8.255
 6935POPC   C3B20061  43.695  30.137   7.955
 6935POPC   C4B20062  43.717  30.127   7.655
 6936POPC   NC320063   2.006  16.753   9.455
 6936POPC   PO420064   2.025  16.719   9.155
 6936POPC   GL120065   1.965  16.765   8.855
 6936POPC   GL220066   1.921  16.894   8.855
 6936POPC   C1A20067   2.007  16.775   8.555
 6936POPC   D2A20068   2.016  16.774   8.255
 6936POPC   C3A20069   2.026  16.709   7.955
 6936POPC   C4A20070   2.012  16.765   7.655
 6936POPC   C1B20071   1.935  17.016   8.555
 6936POPC   C2B20072   1.932  17.002   8.255
 6936POPC   C3B20073   1.928  16.981   7.955
 6936POPC   C4B20074   1.935  16.960   7.655
 6937POPC   NC320075  13.603  25.253   9.455
 6937POPC   PO420076  13.615  25.249   9.155
 6937POPC   GL120077  13.597  25.290   8.855
 6937POPC   GL220078  13.568  25.374   8.855
 6937POPC   C1A20079  13.582  25.277   8.555
 6937POPC   D2A20080  13.634  25.257   8.255
 6937POPC   C3A20081  13.599  25.227   7.955
 6937POPC   C4A20082  13.585  25.292   7.655
 6937POPC   C1B20083  13.432  25.427   8.555
 6937POPC   C2B20084  13.443  25.413   8.255
 6937POPC   C3B20085  13.387  25.443   7.955
 6937POPC   C4B20086  13.443  25.403   7.655
 6938POPC   NC320087  41.558  31.431   9.455
 6938POPC   PO420088  41.522  31.428   9.155
 6938POPC   GL120089  41.602  31.493   8.855
 6938POPC   GL220090  41.463  31.500   8.855
 6938POPC   C1A20091  41.558  31.493   8.555
 6938POPC   D2A20092  41.558  31.484   8.255
 6938POPC   C3A20093  41.596  31.450   7.955
 6938POPC   C4A20094  41.561  31.503   7.655
 6938POPC   C1B20095  41.318  31.607   8.555
 6938POPC   C2B20096  41.298  31.576   8.255
 6938POPC   C3B20097  41.354  31.566   7.955
 6938POPC   C4B20098  41.379  31.595   7.655
 6939POPC   NC320099  43.072  10.555   9.455
 6939POPC   PO420100  43.107  10.533   9.155
 6939POPC   GL120101  43.078  10.561   8.855
 6939POPC   GL220102  43.103  10.430   8.855
 6939POPC   C1A20103  43.125  10.476   8.555
 6939POPC   D2A20104  43.156  10.546   8.255
 6939POPC   C3A20105  43.069  10.555   7.955
 6939POPC   C4A20106  43.088  10.533   7.655
 6939POPC   C1B20107  43.048  10.329   8.555
 6939POPC   C2B20108  43.061  10.323   8.255
 6939POPC   C3B20109  43.089  10.284   7.955
 6939POPC   C4B20110  43.055  10.289   7.655
 6940POPC   NC320111  22.965  29.897   9.455
 6940POPC   PO420112  22.945  29.876   9.155
 6940POPC   GL120113  22.987  29.953   8.855
 6940POPC   GL220114  22.871  30.030   8.855
 6940POPC   C1A20115  22.965  29.894   8.555
 6940POPC   D2A20116  22.939  29.898   8.255
 6940POPC   C3A20117  22.935  29.877   7.955
 6940POPC   C4A20118  22.963  29.924   7.655
 6940POPC   C1B20119  22.783  30.084   8.555
 6940POPC   C2B20120  22.754  30.128   8.255
 6940POPC   C3B20121  22.817  30.080   7.955
 6940POPC   C4B20122  22.753  30.077   7.655
 6941POPC   NC320123   3.525  29.188   9.455
 6941POPC   PO420124   3.585  29.136   9.155
 6941POPC   GL120125   3.501  29.107   8.855
 6941POPC   GL220126   3.442  29.081   8.855
 6941POPC   C1A20127   3.572  29.106   8.555
 6941POPC   D2A20128   3.578  29.179   8.255
 6941POPC   C3A20129   3.513  29.171   7.955
 6941POPC   C4A20130   3.566  29.110   7.655
 6941POPC   C1B20131   3.342  29.047   8.555
 6941POPC   C2B20132   3.376  28.984   8.255
 6941POPC   C3B20133   3.303  28.995   7.955
 6941POPC   C4B20134   3.369  29.057   7.655
 6942POPC   NC320135  39.980  29.144   9.455
 6942POPC   PO420136  40.021  29.113   9.155
 6942POPC   GL120137  39.957  29.144   8.855
 6942POPC   GL220138  39.989  29.010   8.855
 6942POPC   C1A20139  40.038  29.115   8.555
 6942POPC   D2A20140  40.020  29.097   8.255
 6942POPC   C3A20141  40.013  29.176   7.955
 6942POPC   C4A20142  40.028  29.129   7.655
 6942POPC   C1B20143  39.933  28.947   8.555
 6942POPC   C2B20144  39.941  28.906   8.255
 6942POPC   C3B20145  39.942  28.947   7.955
 6942POPC   C4B20146  39.935  28.869   7.655
 6943POPC   NC320147  12.044   5.855   9.455
 6943POPC   PO420148  12.102   5.880   9.155
 6943POPC   GL120149  12.088   5.826   8.855
 6943POPC   GL220150  12.073   5.993   8.855
 6943POPC   C1A20151  12.098   5.831   8.555
 6943POPC   D2A20152  12.108   5.881   8.255
 6943POPC   C3A20153  12.048   5.830   7.955
 6943POPC   C4A20154  12.058   5.908   7.655
 6943POPC   C1B20155  12.031   6.118   8.555
 6943POPC   C2B20156  12.083   6.085   8.255
 6943POPC   C3B20157  12.022   6.099   7.955
 6943POPC   C4B20158  12.069   6.092   7.655
 6944POPC   NC320159   4.332  36.917   9.455
 6944POPC   PO420160   4.342  36.949   9.155
 6944POPC   GL120161   4.298  36.865   8.855
 6944POPC   GL220162   4.274  36.763   8.855
 6944POPC   C1A20163   4.308  36.878   8.555
 6944POPC   D2A20164   4.327  36.911   8.255
 6944POPC   C3A20165   4.277  36.924   7.955
 6944POPC   C4A20166   4.302  36.916   7.655
 6944POPC   C1B20167   4.174  36.735   8.555
 6944POPC   C2B20168   4.199  36.682   8.255
 6944POPC   C3B20169   4.204  36.690   7.955
 6944POPC   C4B20170   4.200  36.719   7.655
 6945POPC   NC320171  16.753   3.543   9.455
 6945POPC   PO420172  16.706   3.541   9.155
 6945POPC   GL120173  16.724   3.543   8.855
 6945POPC   GL220174  16.737   3.444   8.855
 6945POPC   C1A20175  16.736   3.529   8.555
 6945POPC   D2A20176  16.735   3.567   8.255
 6945POPC   C3A20177  16.732   3.526   7.955
 6945POPC   C4A20178  16.734   3.494   7.655
 6945POPC   C1B20179  16.880   3.274   8.555
 6945POPC   C2B20180  16.792   3.343   8.255
 6945POPC   C3B20181  16.871   3.296   7.955
 6945POPC   C4B20182  16.817   3.325   7.655
 6946POPC   NC320183  20.626  35.364   9.455
 6946POPC   PO420184  20.633  35.351   9.155
 6946POPC   GL120185  20.650  35.396   8.855
 6946POPC   GL220186  20.638  35.194   8.855
 6946POPC   C1A20187  20.587  35.326   8.555
 6946POPC   D2A20188  20.564  35.355   8.255
 6946POPC   C3A20189  20.646  35.365   7.955
 6946POPC   C4A20190  20.619  35.390   7.655
 6946POPC   C1B20191  20.543  35.110   8.555
 6946POPC   C2B20192  20.535  35.133   8.255
 6946POPC   C3B20193  20.620  35.138   7.955
 6946POPC   C4B20194  20.624  35.123   7.655
 6947POPC   NC320195  38.421  22.122   9.455
 6947POPC   PO420196  38.473  22.112   9.155
 6947POPC   GL120197  38.461  22.167   8.855
 6947POPC   GL220198  38.404  22.241   8.855
 6947POPC   C1A20199  38.500  22.160   8.555
 6947POPC   D2A20200  38.448  22.116   8.255
 6947POPC   C3A20201  38.505  22.129   7.955
 6947POPC   C4A20202  38.448  22.173   7.655
 6947POPC   C1B20203  38.406  22.391   8.555
 6947POPC   C2B20204  38.376  22.383   8.255
 6947POPC   C3B20205  38.375  22.406   7.955
 6947POPC   C4B20206  38.454  22.404   7.655
 6948POPC   NC320207  14.450  35.334   9.455
 6948POPC   PO420208  14.400  35.394   9.155
 6948POPC   GL120209  14.439  35.338   8.855
 6948POPC   GL220210  14.433  35.487   8.855
 6948POPC   C1A20211  14.409  35.319   8.555
 6948POPC   D2A20212  14.355  35.317   8.255
 6948POPC   C3A20213  14.430  35.399   7.955
 6948POPC   C4A20214  14.383  35.400   7.655
 6948POPC   C1B20215  14.436  35.560   8.555
 6948POPC   C2B20216  14.513  35.573   8.255
 6948POPC   C3B20217  14.474  35.565   7.955
 6948POPC   C4B20218  14.521  35.571   7.655
 6949POPC   NC320219  15.951  42.383   9.455
 6949POPC   PO420220  15.935  42.344   9.155
 6949POPC   GL120221  15.987  42.360   8.855
 6949POPC   GL220222  16.050  42.285   8.855
 6949POPC   C1A20223  15.974  42.296   8.555
 6949POPC   D2A20224  15.945  42.336   8.255
 6949POPC   C3A20225  15.923  42.332   7.955
 6949POPC   C4A20226  15.928  42.369   7.655
 6949POPC   C1B20227  16.179  42.273   8.555
 6949POPC   C2B20228  16.240  42.226   8.255
 6949POPC   C3B20229  16.221  42.316   7.955
 6949POPC   C4B20230  16.222  42.238   7.655
 6950POPC   NC320231   5.093  31.450   9.455
 6950POPC   PO420232   5.103  31.445   9.155
 6950POPC   GL120233   5.103  31.498   8.855
 6950POPC   GL220234   5.127  31.630   8.855
 6950POPC   C1A20235   5.074  31.514   8.555
 6950POPC   D2A20236   5.084  31.465   8.255
 6950POPC   C3A20237   5.080  31.503   7.955
 6950POPC   C4A20238   5.143  31.461   7.655
 6950POPC   C1B20239   5.126  31.673   8.555
 6950POPC   C2B20240   5.117  31.769   8.255
 6950POPC   C3B20241   5.116  31.710   7.955
 6950POPC   C4B20242   5.077  31.740   7.655
 6951POPC   NC320243  29.097  34.587   9.455
 6951POPC   PO420244  29.183  34.600   9.155
 6951POPC   GL120245  29.157  34.553   8.855
 6951POPC   GL220246  29.255  34.681   8.855
 6951POPC   C1A20247  29.135  34.593   8.555
 6951POPC   D2A20248  29.184  34.604   8.255
 6951POPC   C3A20249  29.191  34.610   7.955
 6951POPC   C4A20250  29.186  34.549   7.655
 6951POPC   C1B20251  29.317  34.747   8.555
 6951POPC   C2B20252  29.369  34.744   8.255
 6951POPC   C3B20253  29.385  34.693   7.955
 6951POPC   C4B20254  29.351  34.730   7.655
 6952POPC   NC320255  29.889  35.396   9.455
 6952POPC   PO420256  29.957  35.319   9.155
 6952POPC   GL120257  29.921  35.323   8.855
 6952POPC   GL220258  29.909  35.186   8.855
 6952POPC   C1A20259  29.954  35.369   8.555
 6952POPC   D2A20260  29.873  35.394   8.255
 6952POPC   C3A20261  29.910  35.342   7.955
 6952POPC   C4A20262  29.950  35.371   7.655
 6952POPC   C1B20263  29.950  35.054   8.555
 6952POPC   C2B20264  29.867  35.060   8.255
 6952POPC   C3B20265  29.893  35.093   7.955
 6952POPC   C4B20266  29.957  35.115   7.655
 6953POPC   NC320267  39.969  16.771   9.455
 6953POPC   PO420268  40.041  16.779   9.155
 6953POPC   GL120269  40.026  16.721   8.855
 6953POPC   GL220270  40.016  16.805   8.855
 6953POPC   C1A20271  40.037  16.770   8.555
 6953POPC   D2A20272  40.033  16.768   8.255
 6953POPC   C3A20273  40.002  16.747   7.955
 6953POPC   C4A20274  39.988  16.689   7.655
 6953POPC   C1B20275  40.140  16.918   8.555
 6953POPC   C2B20276  40.080  16.929   8.255
 6953POPC   C3B20277  40.097  16.929   7.955
 6953POPC   C4B20278  40.150  16.980   7.655
 6954POPC   NC320279   3.574  39.272   9.455
 6954POPC   PO420280   3.529  39.189   9.155
 6954POPC   GL120281   3.578  39.266   8.855
 6954POPC   GL220282   3.494  39.319   8.855
 6954POPC   C1A20283   3.582  39.194   8.555
 6954POPC   D2A20284   3.500  39.238   8.255
 6954POPC   C3A20285   3.558  39.277   7.955
 6954POPC   C4A20286   3.537  39.230   7.655
 6954POPC   C1B20287   3.575  39.452   8.555
 6954POPC   C2B20288   3.545  39.509   8.255
 6954POPC   C3B20289   3.491  39.462   7.955
 6954POPC   C4B20290   3.565  39.433   7.655
 6955POPC   NC320291  39.245  22.121   9.455
 6955POPC   PO420292  39.242  22.189   9.155
 6955POPC   GL120293  39.266  22.182   8.855
 6955POPC   GL220294  39.114  22.200   8.855
 6955POPC   C1A20295  39.270  22.122   8.555
 6955POPC   D2A20296  39.268  22.180   8.255
 6955POPC   C3A20297  39.212  22.168   7.955
 6955POPC   C4A20298  39.194  22.165   7.655
 6955POPC   C1B20299  38.982  22.210   8.555
 6955POPC   C2B20300  39.015  22.169   8.255
 6955POPC   C3B20301  38.936  22.176   7.955
 6955POPC   C4B20302  38.998  22.226   7.655
 6956POPC   NC320303  44.619   9.755   9.455
 6956POPC   PO420304  44.633   9.780   9.155
 6956POPC   GL120305  44.653   9.794   8.855
 6956POPC   GL220306  44.767   9.773   8.855
 6956POPC   C1A20307  44.706   9.730   8.555
 6956POPC   D2A20308  44.675   9.769   8.255
 6956POPC   C3A20309  44.622   9.722   7.955
 6956POPC   C4A20310  44.641   9.714   7.655
 6956POPC   C1B20311  44.916   9.863   8.555
 6956POPC   C2B20312  44.916   9.911   8.255
 6956POPC   C3B20313  44.851   9.884   7.955
 6956POPC   C4B20314  44.882   9.885   7.655
 6957POPC   NC320315  22.923  34.538   9.455
 6957POPC   PO420316  22.976  34.616   9.155
 6957POPC   GL120317  22.974  34.578   8.855
 6957POPC   GL220318  23.014  34.442   8.855
 6957POPC   C1A20319  22.977  34.589   8.555
 6957POPC   D2A20320  22.929  34.547   8.255
 6957POPC   C3A20321  22.917  34.588   7.955
 6957POPC   C4A20322  22.900  34.550   7.655
 6957POPC   C1B20323  23.099  34.311   8.555
 6957POPC   C2B20324  23.084  34.324   8.255
 6957POPC   C3B20325  23.050  34.386   7.955
 6957POPC   C4B20326  23.037  34.317   7.655
 6958POPC   NC320327  25.289  29.904   9.455
 6958POPC   PO420328  25.272  29.922   9.155
 6958POPC   GL120329  25.254  29.905   8.855
 6958POPC   GL220330  25.154  29.839   8.855
 6958POPC   C1A20331  25.216  29.894   8.555
 6958POPC   D2A20332  25.218  29.917   8.255
 6958POPC   C3A20333  25.235  29.924   7.955
 6958POPC   C4A20334  25.260  29.887   7.655
 6958POPC   C1B20335  25.021  29.775   8.555
 6958POPC   C2B20336  25.059  29.796   8.255
 6958POPC   C3B20337  25.020  29.783   7.955
 6958POPC   C4B20338  25.073  29.756   7.655
 6959POPC   NC320339  19.850   4.331   9.455
 6959POPC   PO420340  19.846   4.310   9.155
 6959POPC   GL120341  19.823   4.274   8.855
 6959POPC   GL220342  19.906   4.276   8.855
 6959POPC   C1A20343  19.846   4.348   8.555
 6959POPC   D2A20344  19.827   4.295   8.255
 6959POPC   C3A20345  19.832   4.312   7.955
 6959POPC   C4A20346  19.811   4.325   7.655
 6959POPC   C1B20347  20.048   4.250   8.555
 6959POPC   C2B20348  20.120   4.250   8.255
 6959POPC   C3B20349  20.103   4.226   7.955
 6959POPC   C4B20350  20.051   4.216   7.655
 6960POPC   NC320351  39.959  18.252   9.455
 6960POPC   PO420352  39.963  18.269   9.155
 6960POPC   GL120353  40.046  18.294   8.855
 6960POPC   GL220354  40.029  18.449   8.855
 6960POPC   C1A20355  39.977  18.309   8.555
 6960POPC   D2A20356  40.046  18.265   8.255
 6960POPC   C3A20357  39.976  18.286   7.955
 6960POPC   C4A20358  40.013  18.284   7.655
 6960POPC   C1B20359  39.954  18.544   8.555
 6960POPC   C2B20360  40.012  18.555   8.255
 6960POPC   C3B20361  39.939  18.496   7.955
 6960POPC   C4B20362  39.975  18.553   7.655
 6961POPC   NC320363  13.648  26.857   9.455
 6961POPC   PO420364  13.611  26.832   9.155
 6961POPC   GL120365  13.582  26.841   8.855
 6961POPC   GL220366  13.614  26.933   8.855
 6961POPC   C1A20367  13.673  26.839   8.555
 6961POPC   D2A20368  13.616  26.779   8.255
 6961POPC   C3A20369  13.591  26.850   7.955
 6961POPC   C4A20370  13.606  26.860   7.655
 6961POPC   C1B20371  13.570  27.068   8.555
 6961POPC   C2B20372  13.526  27.090   8.255
 6961POPC   C3B20373  13.557  27.040   7.955
 6961POPC   C4B20374  13.524  27.083   7.655
 6962POPC   NC320375  15.224   2.007   9.455
 6962POPC   PO420376  15.183   2.009   9.155
 6962POPC   GL120377  15.176   2.027   8.855
 6962POPC   GL220378  15.031   1.990   8.855
 6962POPC   C1A20379  15.206   1.977   8.555
 6962POPC   D2A20380  15.146   2.029   8.255
 6962POPC   C3A20381  15.131   1.965   7.955
 6962POPC   C4A20382  15.205   2.029   7.655
 6962POPC   C1B20383  14.975   2.021   8.555
 6962POPC   C2B20384  14.924   2.003   8.255
 6962POPC   C3B20385  14.956   1.995   7.955
 6962POPC   C4B20386  14.962   2.071   7.655
 6963POPC   NC320387  14.360   6.671   9.455
 6963POPC   PO420388  14.445   6.627   9.155
 6963POPC   GL120389  14.360   6.662   8.855
 6963POPC   GL220390  14.274   6.622   8.855
 6963POPC   C1A20391  14.363   6.607   8.555
 6963POPC   D2A20392  14.422   6.675   8.255
 6963POPC   C3A20393  14.436   6.605   7.955
 6963POPC   C4A20394  14.378   6.689   7.655
 6963POPC   C1B20395  14.129   6.628   8.555
 6963POPC   C2B20396  14.202   6.599   8.255
 6963POPC   C3B20397  14.167   6.579   7.955
 6963POPC   C4B20398  14.174   6.609   7.655
 6964POPC   NC320399  33.785   3.561   9.455
 6964POPC   PO420400  33.841   3.563   9.155
 6964POPC   GL120401  33.775   3.508   8.855
 6964POPC   GL220402  33.872   3.632   8.855
 6964POPC   C1A20403  33.784   3.509   8.555
 6964POPC   D2A20404  33.775   3.583   8.255
 6964POPC   C3A20405  33.763   3.532   7.955
 6964POPC   C4A20406  33.837   3.495   7.655
 6964POPC   C1B20407  33.857   3.810   8.555
 6964POPC   C2B20408  33.810   3.791   8.255
 6964POPC   C3B20409  33.843   3.834   7.955
 6964POPC   C4B20410  33.894   3.736   7.655
 6965POPC   NC320411  28.413  21.416   9.455
 6965POPC   PO420412  28.328  21.384   9.155
 6965POPC   GL120413  28.411  21.416   8.855
 6965POPC   GL220414  28.272  21.313   8.855
 6965POPC   C1A20415  28.385  21.422   8.555
 6965POPC   D2A20416  28.417  21.432   8.255
 6965POPC   C3A20417  28.416  21.347   7.955
 6965POPC   C4A20418  28.381  21.361   7.655
 6965POPC   C1B20419  28.082  21.312   8.555
 6965POPC   C2B20420  28.171  21.334   8.255
 6965POPC   C3B20421  28.120  21.364   7.955
 6965POPC   C4B20422  28.085  21.276   7.655
 6966POPC   NC320423  19.861  33.767   9.455
 6966POPC   PO420424  19.822  33.833   9.155
 6966POPC   GL120425  19.856  33.829   8.855
 6966POPC   GL220426  19.860  33.959   8.855
 6966POPC   C1A20427  19.818  33.756   8.555
 6966POPC   D2A20428  19.814  33.771   8.255
 6966POPC   C3A20429  19.832  33.824   7.955
 6966POPC   C4A20430  19.787  33.778   7.655
 6966POPC   C1B20431  19.871  34.023   8.555
 6966POPC   C2B20432  19.875  34.086   8.255
 6966POPC   C3B20433  19.817  34.045   7.955
 6966POPC   C4B20434  19.891  34.054   7.655
 6967POPC   NC320435  33.847  15.154   9.455
 6967POPC   PO420436  33.811  15.169   9.155
 6967POPC   GL120437  33.820  15.197   8.855
 6967POPC   GL220438  33.929  15.152   8.855
 6967POPC   C1A20439  33.814  15.200   8.555
 6967POPC   D2A20440  33.830  15.165   8.255
 6967POPC   C3A20441  33.772  15.212   7.955
 6967POPC   C4A20442  33.797  15.201   7.655
 6967POPC   C1B20443  34.089  15.191   8.555
 6967POPC   C2B20444  34.007  15.192   8.255
 6967POPC   C3B20445  34.059  15.171   7.955
 6967POPC   C4B20446  34.083  15.181   7.655
 6968POPC   NC320447  36.120  22.928   9.455
 6968POPC   PO420448  36.144  22.948   9.155
 6968POPC   GL120449  36.149  22.903   8.855
 6968POPC   GL220450  36.059  22.920   8.855
 6968POPC   C1A20451  36.115  22.960   8.555
 6968POPC   D2A20452  36.102  22.947   8.255
 6968POPC   C3A20453  36.100  22.957   7.955
 6968POPC   C4A20454  36.176  22.963   7.655
 6968POPC   C1B20455  35.951  22.774   8.555
 6968POPC   C2B20456  35.948  22.759   8.255
 6968POPC   C3B20457  35.917  22.785   7.955
 6968POPC   C4B20458  35.869  22.841   7.655
 6969POPC   NC320459  35.377  18.238   9.455
 6969POPC   PO420460  35.366  18.310   9.155
 6969POPC   GL120461  35.396  18.265   8.855
 6969POPC   GL220462  35.427  18.298   8.855
 6969POPC   C1A20463  35.357  18.233   8.555
 6969POPC   D2A20464  35.392  18.295   8.255
 6969POPC   C3A20465  35.380  18.331   7.955
 6969POPC   C4A20466  35.398  18.289   7.655
 6969POPC   C1B20467  35.618  18.374   8.555
 6969POPC   C2B20468  35.615  18.296   8.255
 6969POPC   C3B20469  35.614  18.316   7.955
 6969POPC   C4B20470  35.568  18.358   7.655
 6970POPC   NC320471  33.000  26.063   9.455
 6970POPC   PO420472  33.070  26.086   9.155
 6970POPC   GL120473  33.033  26.064   8.855
 6970POPC   GL220474  32.920  25.955   8.855
 6970POPC   C1A20475  32.994  26.026   8.555
 6970POPC   D2A20476  33.056  26.072   8.255
 6970POPC   C3A20477  33.007  26.020   7.955
 6970POPC   C4A20478  33.033  26.060   7.655
 6970POPC   C1B20479  32.861  25.897   8.555
 6970POPC   C2B20480  32.798  25.851   8.255
 6970POPC   C3B20481  32.865  25.902   7.955
 6970POPC   C4B20482  32.827  25.915   7.655
 6971POPC   NC320483  39.199  29.179   9.455
 6971POPC   PO420484  39.236  29.175   9.155
 6971POPC   GL120485  39.184  29.151   8.855
 6971POPC   GL220486  39.107  29.142   8.855
 6971POPC   C1A20487  39.271  29.109   8.555
 6971POPC   D2A20488  39.202  29.142   8.255
 6971POPC   C3A20489  39.254  29.172   7.955
 6971POPC   C4A20490  39.200  29.168   7.655
 6971POPC   C1B20491  39.027  29.032   8.555
 6971POPC   C2B20492  39.025  29.119   8.255
 6971POPC   C3B20493  38.996  29.129   7.955
 6971POPC   C4B20494  38.990  29.059   7.655
 6972POPC   NC320495  19.056   8.928   9.455
 6972POPC   PO420496  19.021   8.947   9.155
 6972POPC   GL120497  19.073   9.003   8.855
 6972POPC   GL220498  19.158   8.898   8.855
 6972POPC   C1A20499  19.090   8.929   8.555
 6972POPC   D2A20500  19.057   8.979   8.255
 6972POPC   C3A20501  19.048   8.930   7.955
 6972POPC   C4A20502  19.060   8.988   7.655
 6972POPC   C1B20503  19.189   8.715   8.555
 6972POPC   C2B20504  19.162   8.761   8.255
 6972POPC   C3B20505  19.177   8.727   7.955
 6972POPC   C4B20506  19.203   8.721   7.655
 6973POPC   NC320507  15.967  22.901   9.455
 6973POPC   PO420508  15.963  22.973   9.155
 6973POPC   GL120509  15.968  22.922   8.855
 6973POPC   GL220510  16.099  22.912   8.855
 6973POPC   C1A20511  15.936  22.917   8.555
 6973POPC   D2A20512  16.000  22.892   8.255
 6973POPC   C3A20513  15.968  22.905   7.955
 6973POPC   C4A20514  15.924  22.960   7.655
 6973POPC   C1B20515  16.191  22.880   8.555
 6973POPC   C2B20516  16.161  22.809   8.255
 6973POPC   C3B20517  16.220  22.835   7.955
 6973POPC   C4B20518  16.202  22.796   7.655
 6974POPC   NC320519  39.991   8.157   9.455
 6974POPC   PO420520  39.982   8.234   9.155
 6974POPC   GL120521  40.053   8.147   8.855
 6974POPC   GL220522  40.090   8.218   8.855
 6974POPC   C1A20523  40.010   8.246   8.555
 6974POPC   D2A20524  39.992   8.230   8.255
 6974POPC   C3A20525  39.958   8.233   7.955
 6974POPC   C4A20526  40.010   8.227   7.655
 6974POPC   C1B20527  40.215   8.129   8.555
 6974POPC   C2B20528  40.265   8.148   8.255
 6974POPC   C3B20529  40.241   8.123   7.955
 6974POPC   C4B20530  40.230   8.188   7.655
 6975POPC   NC320531  39.194  14.432   9.455
 6975POPC   PO420532  39.245  14.391   9.155
 6975POPC   GL120533  39.258  14.381   8.855
 6975POPC   GL220534  39.238  14.530   8.855
 6975POPC   C1A20535  39.236  14.434   8.555
 6975POPC   D2A20536  39.183  14.397   8.255
 6975POPC   C3A20537  39.194  14.431   7.955
 6975POPC   C4A20538  39.193  14.449   7.655
 6975POPC   C1B20539  39.207  14.690   8.555
 6975POPC   C2B20540  39.148  14.617   8.255
 6975POPC   C3B20541  39.154  14.627   7.955
 6975POPC   C4B20542  39.142  14.665   7.655
 6976POPC   NC320543   8.225  10.499   9.455
 6976POPC   PO420544   8.205  10.570   9.155
 6976POPC   GL120545   8.158  10.477   8.855
 6976POPC   GL220546   8.360  10.450   8.855
 6976POPC   C1A20547   8.241  10.565   8.555
 6976POPC   D2A20548   8.148  10.487   8.255
 6976POPC   C3A20549   8.176  10.502   7.955
 6976POPC   C4A20550   8.191  10.486   7.655
 6976POPC   C1B20551   8.379  10.407   8.555
 6976POPC   C2B20552   8.414  10.387   8.255
 6976POPC   C3B20553   8.463  10.423   7.955
 6976POPC   C4B20554   8.409  10.457   7.655
 6977POPC   NC320555  29.904   8.945   9.455
 6977POPC   PO420556  29.916   8.941   9.155
 6977POPC   GL120557  29.913   8.972   8.855
 6977POPC   GL220558  29.805   9.104   8.855
 6977POPC   C1A20559  29.871   9.004   8.555
 6977POPC   D2A20560  29.910   8.982   8.255
 6977POPC   C3A20561  29.904   8.981   7.955
 6977POPC   C4A20562  29.882   8.988   7.655
 6977POPC   C1B20563  29.761   9.127   8.555
 6977POPC   C2B20564  29.779   9.186   8.255
 6977POPC   C3B20565  29.724   9.186   7.955
 6977POPC   C4B20566  29.746   9.143   7.655
 6978POPC   NC320567   3.494   5.845   9.455
 6978POPC   PO420568   3.512   5.897   9.155
 6978POPC   GL120569   3.557   5.891   8.855
 6978POPC   GL220570   3.421   5.813   8.855
 6978POPC   C1A20571   3.560   5.909   8.555
 6978POPC   D2A20572   3.492   5.824   8.255
 6978POPC   C3A20573   3.529   5.889   7.955
 6978POPC   C4A20574   3.564   5.865   7.655
 6978POPC   C1B20575   3.360   5.771   8.555
 6978POPC   C2B20576   3.309   5.798   8.255
 6978POPC   C3B20577   3.331   5.770   7.955
 6978POPC   C4B20578   3.370   5.701   7.655
 6979POPC   NC320579  17.490  33.819   9.455
 6979POPC   PO420580  17.464  33.764   9.155
 6979POPC   GL120581  17.527  33.800   8.855
 6979POPC   GL220582  17.566  33.870   8.855
 6979POPC   C1A20583  17.531  33.759   8.555
 6979POPC   D2A20584  17.537  33.811   8.255
 6979POPC   C3A20585  17.480  33.834   7.955
 6979POPC   C4A20586  17.544  33.791   7.655
 6979POPC   C1B20587  17.611  33.991   8.555
 6979POPC   C2B20588  17.655  34.022   8.255
 6979POPC   C3B20589  17.622  34.038   7.955
 6979POPC   C4B20590  17.645  34.001   7.655
 6980POPC   NC320591  39.984  24.513   9.455
 6980POPC   PO420592  40.009  24.510   9.155
 6980POPC   GL120593  40.007  24.455   8.855
 6980POPC   GL220594  39.912  24.569   8.855
 6980POPC   C1A20595  40.037  24.446   8.555
 6980POPC   D2A20596  40.016  24.521   8.255
 6980POPC   C3A20597  39.972  24.441   7.955
 6980POPC   C4A20598  39.995  24.456   7.655
 6980POPC   C1B20599  39.814  24.656   8.555
 6980POPC   C2B20600  39.831  24.614   8.255
 6980POPC   C3B20601  39.851  24.591   7.955
 6980POPC   C4B20602  39.804  24.591   7.655
 6981POPC   NC320603  14.426   2.017   9.455
 6981POPC   PO420604  14.385   2.029   9.155
 6981POPC   GL120605  14.410   1.949   8.855
 6981POPC   GL220606  14.322   1.999   8.855
 6981POPC   C1A20607  14.412   1.975   8.555
 6981POPC   D2A20608  14.375   1.992   8.255
 6981POPC   C3A20609  14.358   1.944   7.955
 6981POPC   C4A20610  14.357   2.025   7.655
 6981POPC   C1B20611  14.176   1.910   8.555
 6981POPC   C2B20612  14.155   1.948   8.255
 6981POPC   C3B20613  14.177   2.006   7.955
 6981POPC   C4B20614  14.147   1.989   7.655
 6982POPC   NC320615  23.724  31.512   9.455
 6982POPC   PO420616  23.719  31.470   9.155
 6982POPC   GL120617  23.708  31.463   8.855
 6982POPC   GL220618  23.642  31.498   8.855
 6982POPC   C1A20619  23.734  31.497   8.555
 6982POPC   D2A20620  23.705  31.474   8.255
 6982POPC   C3A20621  23.747  31.505   7.955
 6982POPC   C4A20622  23.712  31.424   7.655
 6982POPC   C1B20623  23.464  31.588   8.555
 6982POPC   C2B20624  23.521  31.591   8.255
 6982POPC   C3B20625  23.441  31.607   7.955
 6982POPC   C4B20626  23.448  31.540   7.655
 6983POPC   NC320627   5.837  34.552   9.455
 6983POPC   PO420628   5.842  34.565   9.155
 6983POPC   GL120629   5.901  34.578   8.855
 6983POPC   GL220630   5.779  34.670   8.855
 6983POPC   C1A20631   5.841  34.615   8.555
 6983POPC   D2A20632   5.840  34.569   8.255
 6983POPC   C3A20633   5.908  34.532   7.955
 6983POPC   C4A20634   5.832  34.600   7.655
 6983POPC   C1B20635   5.628  34.728   8.555
 6983POPC   C2B20636   5.630  34.772   8.255
 6983POPC   C3B20637   5.714  34.774   7.955
 6983POPC   C4B20638   5.702  34.725   7.655
 6984POPC   NC320639  17.522  35.311   9.455
 6984POPC   PO420640  17.461  35.368   9.155
 6984POPC   GL120641  17.489  35.309   8.855
 6984POPC   GL220642  17.536  35.256   8.855
 6984POPC   C1A20643  17.483  35.321   8.555
 6984POPC   D2A20644  17.459  35.371   8.255
 6984POPC   C3A20645  17.485  35.386   7.955
 6984POPC   C4A20646  17.541  35.308   7.655
 6984POPC   C1B20647  17.581  35.107   8.555
 6984POPC   C2B20648  17.628  35.138   8.255
 6984POPC   C3B20649  17.673  35.134   7.955
 6984POPC   C4B20650  17.589  35.136   7.655
 6985POPC   NC320651   2.750  36.861   9.455
 6985POPC   PO420652   2.737  36.912   9.155
 6985POPC   GL120653   2.755  36.914   8.855
 6985POPC   GL220654   2.809  36.843   8.855
 6985POPC   C1A20655   2.798  36.892   8.555
 6985POPC   D2A20656   2.739  36.860   8.255
 6985POPC   C3A20657   2.753  36.919   7.955
 6985POPC   C4A20658   2.782  36.875   7.655
 6985POPC   C1B20659   2.916  36.707   8.555
 6985POPC   C2B20660   2.948  36.752   8.255
 6985POPC   C3B20661   2.921  36.724   7.955
 6985POPC   C4B20662   2.955  36.731   7.655
 6986POPC   NC320663  10.497  24.448   9.455
 6986POPC   PO420664  10.497  24.498   9.155
 6986POPC   GL120665  10.536  24.489   8.855
 6986POPC   GL220666  10.490  24.594   8.855
 6986POPC   C1A20667  10.525  24.492   8.555
 6986POPC   D2A20668  10.533  24.450   8.255
 6986POPC   C3A20669  10.480  24.461   7.955
 6986POPC   C4A20670  10.566  24.507   7.655
 6986POPC   C1B20671  10.413  24.744   8.555
 6986POPC   C2B20672  10.434  24.735   8.255
 6986POPC   C3B20673  10.362  24.710   7.955
 6986POPC   C4B20674  10.409  24.665   7.655
 6987POPC   NC320675  42.365  36.933   9.455
 6987POPC   PO420676  42.313  36.884   9.155
 6987POPC   GL120677  42.334  36.916   8.855
 6987POPC   GL220678  42.405  36.972   8.855
 6987POPC   C1A20679  42.369  36.889   8.555
 6987POPC   D2A20680  42.301  36.941   8.255
 6987POPC   C3A20681  42.310  36.915   7.955
 6987POPC   C4A20682  42.329  36.915   7.655
 6987POPC   C1B20683  42.575  37.025   8.555
 6987POPC   C2B20684  42.535  37.033   8.255
 6987POPC   C3B20685  42.557  37.030   7.955
 6987POPC   C4B20686  42.570  37.002   7.655
 6988POPC   NC320687  31.434  12.848   9.455
 6988POPC   PO420688  31.447  12.842   9.155
 6988POPC   GL120689  31.431  12.850   8.855
 6988POPC   GL220690  31.604  12.833   8.855
 6988POPC   C1A20691  31.437  12.852   8.555
 6988POPC   D2A20692  31.509  12.815   8.255
 6988POPC   C3A20693  31.439  12.880   7.955
 6988POPC   C4A20694  31.477  12.877   7.655
 6988POPC   C1B20695  31.660  12.787   8.555
 6988POPC   C2B20696  31.752  12.765   8.255
 6988POPC   C3B20697  31.714  12.736   7.955
 6988POPC   C4B20698  31.754  12.718   7.655
 6989POPC   NC320699  23.689  29.969   9.455
 6989POPC   PO420700  23.667  29.927   9.155
 6989POPC   GL120701  23.739  29.881   8.855
 6989POPC   GL220702  23.636  29.868   8.855
 6989POPC   C1A20703  23.683  29.952   8.555
 6989POPC   D2A20704  23.741  29.904   8.255
 6989POPC   C3A20705  23.744  29.921   7.955
 6989POPC   C4A20706  23.744  29.886   7.655
 6989POPC   C1B20707  23.511  29.738   8.555
 6989POPC   C2B20708  23.547  29.816   8.255
 6989POPC   C3B20709  23.493  29.763   7.955
 6989POPC   C4B20710  23.484  29.755   7.655
 6990POPC   NC320711  15.932  30.722   9.455
 6990POPC   PO420712  15.937  30.681   9.155
 6990POPC   GL120713  16.001  30.663   8.855
 6990POPC   GL220714  16.088  30.709   8.855
 6990POPC   C1A20715  15.932  30.720   8.555
 6990POPC   D2A20716  15.972  30.724   8.255
 6990POPC   C3A20717  15.935  30.656   7.955
 6990POPC   C4A20718  15.983  30.705   7.655
 6990POPC   C1B20719  16.179  30.734   8.555
 6990POPC   C2B20720  16.199  30.685   8.255
 6990POPC   C3B20721  16.250  30.775   7.955
 6990POPC   C4B20722  16.168  30.764   7.655
 6991POPC   NC320723  33.816  40.056   9.455
 6991POPC   PO420724  33.756  40.014   9.155
 6991POPC   GL120725  33.788  40.049   8.855
 6991POPC   GL220726  33.679  40.051   8.855
 6991POPC   C1A20727  33.768  40.032   8.555
 6991POPC   D2A20728  33.843  40.010   8.255
 6991POPC   C3A20729  33.767  40.009   7.955
 6991POPC   C4A20730  33.823  39.990   7.655
 6991POPC   C1B20731  33.595  40.101   8.555
 6991POPC   C2B20732  33.614  40.128   8.255
 6991POPC   C3B20733  33.540  40.122   7.955
 6991POPC   C4B20734  33.604  40.095   7.655
 6992POPC   NC320735  24.443  18.282   9.455
 6992POPC   PO420736  24.442  18.267   9.155
 6992POPC   GL120737  24.459  18.259   8.855
 6992POPC   GL220738  24.385  18.317   8.855
 6992POPC   C1A20739  24.478  18.237   8.555
 6992POPC   D2A20740  24.478  18.291   8.255
 6992POPC   C3A20741  24.511  18.258   7.955
 6992POPC   C4A20742  24.454  18.242   7.655
 6992POPC   C1B20743  24.261  18.275   8.555
 6992POPC   C2B20744  24.213  18.276   8.255
 6992POPC   C3B20745  24.243  18.275   7.955
 6992POPC   C4B20746  24.257  18.248   7.655
 6993POPC   NC320747   4.327  43.083   9.455
 6993POPC   PO420748   4.329  43.089   9.155
 6993POPC   GL120749   4.311  43.133   8.855
 6993POPC   GL220750   4.174  43.191   8.855
 6993POPC   C1A20751   4.276  43.071   8.555
 6993POPC   D2A20752   4.304  43.089   8.255
 6993POPC   C3A20753   4.334  43.092   7.955
 6993POPC   C4A20754   4.286  43.088   7.655
 6993POPC   C1B20755   4.080  43.196   8.555
 6993POPC   C2B20756   4.098  43.231   8.255
 6993POPC   C3B20757   4.071  43.166   7.955
 6993POPC   C4B20758   4.131  43.171   7.655
 6994POPC   NC320759  37.719  16.702   9.455
 6994POPC   PO420760  37.633  16.759   9.155
 6994POPC   GL120761  37.695  16.774   8.855
 6994POPC   GL220762  37.602  16.854   8.855
 6994POPC   C1A20763  37.697  16.691   8.555
 6994POPC   D2A20764  37.721  16.697   8.255
 6994POPC   C3A20765  37.658  16.760   7.955
 6994POPC   C4A20766  37.684  16.763   7.655
 6994POPC   C1B20767  37.605  16.933   8.555
 6994POPC   C2B20768  37.644  16.979   8.255
 6994POPC   C3B20769  37.612  16.981   7.955
 6994POPC   C4B20770  37.572  16.932   7.655
 6995POPC   NC320771  28.342  33.073   9.455
 6995POPC   PO420772  28.391  33.015   9.155
 6995POPC   GL120773  28.401  33.014   8.855
 6995POPC   GL220774  28.389  33.116   8.855
 6995POPC   C1A20775  28.345  33.001   8.555
 6995POPC   D2A20776  28.400  33.057   8.255
 6995POPC   C3A20777  28.320  33.025   7.955
 6995POPC   C4A20778  28.360  33.024   7.655
 6995POPC   C1B20779  28.371  33.276   8.555
 6995POPC   C2B20780  28.367  33.298   8.255
 6995POPC   C3B20781  28.301  33.282   7.955
 6995POPC   C4B20782  28.301  33.285   7.655
 6996POPC   NC320783  35.351  28.411   9.455
 6996POPC   PO420784  35.344  28.413   9.155
 6996POPC   GL120785  35.345  28.356   8.855
 6996POPC   GL220786  35.500  28.384   8.855
 6996POPC   C1A20787  35.309  28.415   8.555
 6996POPC   D2A20788  35.398  28.416   8.255
 6996POPC   C3A20789  35.337  28.319   7.955
 6996POPC   C4A20790  35.354  28.409   7.655
 6996POPC   C1B20791  35.590  28.446   8.555
 6996POPC   C2B20792  35.556  28.431   8.255
 6996POPC   C3B20793  35.577  28.513   7.955
 6996POPC   C4B20794  35.548  28.497   7.655
 6997POPC   NC320795  13.606  38.442   9.455
 6997POPC   PO420796  13.592  38.443   9.155
 6997POPC   GL120797  13.660  38.462   8.855
 6997POPC   GL220798  13.593  38.345   8.855
 6997POPC   C1A20799  13.595  38.409   8.555
 6997POPC   D2A20800  13.672  38.468   8.255
 6997POPC   C3A20801  13.607  38.405   7.955
 6997POPC   C4A20802  13.677  38.446   7.655
 6997POPC   C1B20803  13.500  38.259   8.555
 6997POPC   C2B20804  13.578  38.242   8.255
 6997POPC   C3B20805  13.579  38.228   7.955
 6997POPC   C4B20806  13.587  38.236   7.655
 6998POPC   NC320807  33.846  27.588   9.455
 6998POPC   PO420808  33.806  27.612   9.155
 6998POPC   GL120809  33.848  27.579   8.855
 6998POPC   GL220810  33.884  27.704   8.855
 6998POPC   C1A20811  33.802  27.593   8.555
 6998POPC   D2A20812  33.837  27.635   8.255
 6998POPC   C3A20813  33.831  27.635   7.955
 6998POPC   C4A20814  33.750  27.632   7.655
 6998POPC   C1B20815  34.020  27.806   8.555
 6998POPC   C2B20816  33.962  27.805   8.255
 6998POPC   C3B20817  33.991  27.726   7.955
 6998POPC   C4B20818  33.941  27.732   7.655
 6999POPC   NC320819  33.755  39.273   9.455
 6999POPC   PO420820  33.845  39.269   9.155
 6999POPC   GL120821  33.809  39.221   8.855
 6999POPC   GL220822  33.755  39.378   8.855
 6999POPC   C1A20823  33.833  39.204   8.555
 6999POPC   D2A20824  33.779  39.237   8.255
 6999POPC   C3A20825  33.827  39.229   7.955
 6999POPC   C4A20826  33.761  39.201   7.655
 6999POPC   C1B20827  33.721  39.493   8.555
 6999POPC   C2B20828  33.704  39.443   8.255
 6999POPC   C3B20829  33.704  39.421   7.955
 6999POPC   C4B20830  33.715  39.496   7.655
 7000POPC   NC320831  32.288  22.162   9.455
 7000POPC   PO420832  32.276  22.133   9.155
 7000POPC   GL120833  32.270  22.191   8.855
 7000POPC   GL220834  32.396  22.181   8.855
 7000POPC   C1A20835  32.216  22.136   8.555
 7000POPC   D2A20836  32.245  22.173   8.255
 7000POPC   C3A20837  32.239  22.152   7.955
 7000POPC   C4A20838  32.239  22.202   7.655
 7000POPC   C1B20839  32.469  22.194   8.555
 7000POPC   C2B20840  32.494  22.251   8.255
 7000POPC   C3B20841  32.518  22.194   7.955
 7000POPC   C4B20842  32.472  22.251   7.655
 7001POPC   NC320843   9.797  10.495   9.455
 7001POPC   PO420844   9.702  10.487   9.155
 7001POPC   GL120845   9.723  10.515   8.855
 7001POPC   GL220846   9.802  10.619   8.855
 7001POPC   C1A20847   9.764  10.557   8.555
 7001POPC   D2A20848   9.763  10.526   8.255
 7001POPC   C3A20849   9.789  10.490   7.955
 7001POPC   C4A20850   9.773  10.491   7.655
 7001POPC   C1B20851   9.956  10.669   8.555
 7001POPC   C2B20852   9.950  10.714   8.255
 7001POPC   C3B20853   9.882  10.706   7.955
 7001POPC   C4B20854   9.912  10.688   7.655
 7002POPC   NC320855  34.559  12.116   9.455
 7002POPC   PO420856  34.586  12.063   9.155
 7002POPC   GL120857  34.529  12.034   8.855
 7002POPC   GL220858  34.635  11.971   8.855
 7002POPC   C1A20859  34.576  12.064   8.555
 7002POPC   D2A20860  34.605  12.092   8.255
 7002POPC   C3A20861  34.546  12.084   7.955
 7002POPC   C4A20862  34.526  12.110   7.655
 7002POPC   C1B20863  34.627  11.780   8.555
 7002POPC   C2B20864  34.656  11.791   8.255
 7002POPC   C3B20865  34.591  11.839   7.955
 7002POPC   C4B20866  34.614  11.853   7.655
 7003POPC   NC320867  32.204  35.366   9.455
 7003POPC   PO420868  32.234  35.342   9.155
 7003POPC   GL120869  32.261  35.332   8.855
 7003POPC   GL220870  32.171  35.303   8.855
 7003POPC   C1A20871  32.213  35.353   8.555
 7003POPC   D2A20872  32.271  35.309   8.255
 7003POPC   C3A20873  32.227  35.358   7.955
 7003POPC   C4A20874  32.239  35.364   7.655
 7003POPC   C1B20875  32.018  35.203   8.555
 7003POPC   C2B20876  32.025  35.212   8.255
 7003POPC   C3B20877  32.012  35.150   7.955
 7003POPC   C4B20878  32.068  35.221   7.655
 7004POPC   NC320879  36.871  11.287   9.455
 7004POPC   PO420880  36.889  11.275   9.155
 7004POPC   GL120881  36.932  11.288   8.855
 7004POPC   GL220882  36.802  11.322   8.855
 7004POPC   C1A20883  36.869  11.337   8.555
 7004POPC   D2A20884  36.923  11.329   8.255
 7004POPC   C3A20885  36.935  11.343   7.955
 7004POPC   C4A20886  36.947  11.316   7.655
 7004POPC   C1B20887  36.737  11.424   8.555
 7004POPC   C2B20888  36.688  11.424   8.255
 7004POPC   C3B20889  36.710  11.434   7.955
 7004POPC   C4B20890  36.658  11.390   7.655
 7005POPC   NC320891  15.212   2.776   9.455
 7005POPC   PO420892  15.194   2.797   9.155
 7005POPC   GL120893  15.152   2.756   8.855
 7005POPC   GL220894  15.084   2.723   8.855
 7005POPC   C1A20895  15.198   2.729   8.555
 7005POPC   D2A20896  15.212   2.729   8.255
 7005POPC   C3A20897  15.191   2.735   7.955
 7005POPC   C4A20898  15.163   2.780   7.655
 7005POPC   C1B20899  14.922   2.691   8.555
 7005POPC   C2B20900  14.891   2.718   8.255
 7005POPC   C3B20901  14.922   2.778   7.955
 7005POPC   C4B20902  14.971   2.706   7.655
 7006POPC   NC320903  10.558  22.142   9.455
 7006POPC   PO420904  10.564  22.147   9.155
 7006POPC   GL120905  10.558  22.180   8.855
 7006POPC   GL220906  10.582  22.218   8.855
 7006POPC   C1A20907  10.550  22.137   8.555
 7006POPC   D2A20908  10.567  22.211   8.255
 7006POPC   C3A20909  10.573  22.156   7.955
 7006POPC   C4A20910  10.494  22.211   7.655
 7006POPC   C1B20911  10.698  22.288   8.555
 7006POPC   C2B20912  10.661  22.368   8.255
 7006POPC   C3B20913  10.750  22.368   7.955
 7006POPC   C4B20914  10.692  22.302   7.655
 7007POPC   NC320915   1.996   6.690   9.455
 7007POPC   PO420916   1.941   6.628   9.155
 7007POPC   GL120917   1.973   6.614   8.855
 7007POPC   GL220918   2.088   6.536   8.855
 7007POPC   C1A20919   1.979   6.602   8.555
 7007POPC   D2A20920   2.018   6.599   8.255
 7007POPC   C3A20921   1.954   6.662   7.955
 7007POPC   C4A20922   2.002   6.673   7.655
 7007POPC   C1B20923   2.100   6.427   8.555
 7007POPC   C2B20924   2.094   6.443   8.255
 7007POPC   C3B20925   2.107   6.456   7.955
 7007POPC   C4B20926   2.118   6.463   7.655
 7008POPC   NC320927  26.778  25.304   9.455
 7008POPC   PO420928  26.817  25.271   9.155
 7008POPC   GL120929  26.857  25.298   8.855
 7008POPC   GL220930  26.754  25.397   8.855
 7008POPC   C1A20931  26.783  25.253   8.555
 7008POPC   D2A20932  26.866  25.256   8.255
 7008POPC   C3A20933  26.854  25.218   7.955
 7008POPC   C4A20934  26.820  25.241   7.655
 7008POPC   C1B20935  26.776  25.521   8.555
 7008POPC   C2B20936  26.699  25.540   8.255
 7008POPC   C3B20937  26.708  25.487   7.955
 7008POPC   C4B20938  26.721  25.546   7.655
 7009POPC   NC320939   3.575  33.772   9.455
 7009POPC   PO420940   3.586  33.847   9.155
 7009POPC   GL120941   3.501  33.820   8.855
 7009POPC   GL220942   3.585  33.699   8.855
 7009POPC   C1A20943   3.548  33.807   8.555
 7009POPC   D2A20944   3.511  33.819   8.255
 7009POPC   C3A20945   3.590  33.800   7.955
 7009POPC   C4A20946   3.498  33.807   7.655
 7009POPC   C1B20947   3.546  33.542   8.555
 7009POPC   C2B20948   3.528  33.585   8.255
 7009POPC   C3B20949   3.569  33.530   7.955
 7009POPC   C4B20950   3.580  33.578   7.655
 7010POPC   NC320951  36.885  40.821   9.455
 7010POPC   PO420952  36.943  40.745   9.155
 7010POPC   GL120953  36.867  40.831   8.855
 7010POPC   GL220954  36.947  40.703   8.855
 7010POPC   C1A20955  36.883  40.822   8.555
 7010POPC   D2A20956  36.869  40.771   8.255
 7010POPC   C3A20957  36.945  40.787   7.955
 7010POPC   C4A20958  36.856  40.824   7.655
 7010POPC   C1B20959  37.016  40.576   8.555
 7010POPC   C2B20960  37.007  40.538   8.255
 7010POPC   C3B20961  37.018  40.564   7.955
 7010POPC   C4B20962  36.945  40.516   7.655
 7011POPC   NC320963  10.558   4.336   9.455
 7011POPC   PO420964  10.553   4.288   9.155
 7011POPC   GL120965  10.520   4.291   8.855
 7011POPC   GL220966  10.395   4.400   8.855
 7011POPC   C1A20967  10.562   4.300   8.555
 7011POPC   D2A20968  10.503   4.308   8.255
 7011POPC   C3A20969  10.476   4.289   7.955
 7011POPC   C4A20970  10.493   4.327   7.655
 7011POPC   C1B20971  10.314   4.458   8.555
 7011POPC   C2B20972  10.354   4.440   8.255
 7011POPC   C3B20973  10.319   4.465   7.955
 7011POPC   C4B20974  10.257   4.410   7.655
 7012POPC   NC320975   7.463  11.318   9.455
 7012POPC   PO420976   7.458  11.265   9.155
 7012POPC   GL120977   7.442  11.298   8.855
 7012POPC   GL220978   7.255  11.246   8.855
 7012POPC   C1A20979   7.442  11.294   8.555
 7012POPC   D2A20980   7.453  11.283   8.255
 7012POPC   C3A20981   7.409  11.317   7.955
 7012POPC   C4A20982   7.455  11.302   7.655
 7012POPC   C1B20983   7.164  11.261   8.555
 7012POPC   C2B20984   7.172  11.274   8.255
 7012POPC   C3B20985   7.219  11.306   7.955
 7012POPC   C4B20986   7.136  11.307   7.655
 7013POPC   NC320987  19.834  15.200   9.455
 7013POPC   PO420988  19.841  15.179   9.155
 7013POPC   GL120989  19.786  15.154   8.855
 7013POPC   GL220990  19.824  15.287   8.855
 7013POPC   C1A20991  19.796  15.228   8.555
 7013POPC   D2A20992  19.833  15.162   8.255
 7013POPC   C3A20993  19.815  15.214   7.955
 7013POPC   C4A20994  19.798  15.175   7.655
 7013POPC   C1B20995  19.752  15.454   8.555
 7013POPC   C2B20996  19.733  15.418   8.255
 7013POPC   C3B20997  19.708  15.403   7.955
 7013POPC   C4B20998  19.763  15.365   7.655
 7014POPC   NC320999   2.808  28.360   9.455
 7014POPC   PO421000   2.785  28.320   9.155
 7014POPC   GL121001   2.803  28.332   8.855
 7014POPC   GL221002   2.720  28.277   8.855
 7014POPC   C1A21003   2.812  28.335   8.555
 7014POPC   D2A21004   2.787  28.364   8.255
 7014POPC   C3A21005   2.754  28.405   7.955
 7014POPC   C4A21006   2.723  28.413   7.655
 7014POPC   C1B21007   2.643  28.148   8.555
 7014POPC   C2B21008   2.664  28.123   8.255
 7014POPC   C3B21009   2.688  28.138   7.955
 7014POPC   C4B21010   2.677  28.191   7.655
 7015POPC   NC321011  13.675   8.991   9.455
 7015POPC   PO421012  13.636   8.957   9.155
 7015POPC   GL121013  13.672   8.946   8.855
 7015POPC   GL221014  13.529   8.848   8.855
 7015POPC   C1A21015  13.667   9.009   8.555
 7015POPC   D2A21016  13.640   8.948   8.255
 7015POPC   C3A21017  13.615   8.979   7.955
 7015POPC   C4A21018  13.628   9.007   7.655
 7015POPC   C1B21019  13.518   8.771   8.555
 7015POPC   C2B21020  13.530   8.717   8.255
 7015POPC   C3B21021  13.518   8.745   7.955
 7015POPC   C4B21022  13.478   8.713   7.655
 7016POPC   NC321023  20.651  27.613   9.455
 7016POPC   PO421024  20.573  27.595   9.155
 7016POPC   GL121025  20.564  27.569   8.855
 7016POPC   GL221026  20.447  27.580   8.855
 7016POPC   C1A21027  20.599  27.581   8.555
 7016POPC   D2A21028  20.652  27.576   8.255
 7016POPC   C3A21029  20.619  27.605   7.955
 7016POPC   C4A21030  20.655  27.561   7.655
 7016POPC   C1B21031  20.323  27.665   8.555
 7016POPC   C2B21032  20.362  27.670   8.255
 7016POPC   C3B21033  20.403  27.611   7.955
 7016POPC   C4B21034  20.380  27.660   7.655
 7017POPC   NC321035  12.031  19.048   9.455
 7017POPC   PO421036  12.111  19.035   9.155
 7017POPC   GL121037  12.084  19.049   8.855
 7017POPC   GL221038  12.045  18.926   8.855
 7017POPC   C1A21039  12.050  19.015   8.555
 7017POPC   D2A21040  12.100  19.077   8.255
 7017POPC   C3A21041  12.107  19.014   7.955
 7017POPC   C4A21042  12.028  19.094   7.655
 7017POPC   C1B21043  11.972  18.862   8.555
 7017POPC   C2B21044  11.956  18.840   8.255
 7017POPC   C3B21045  12.012  18.863   7.955
 7017POPC   C4B21046  11.999  18.856   7.655
 7018POPC   NC321047  12.115  35.363   9.455
 7018POPC   PO421048  12.068  35.377   9.155
 7018POPC   GL121049  12.113  35.319   8.855
 7018POPC   GL221050  12.030  35.405   8.855
 7018POPC   C1A21051  12.088  35.359   8.555
 7018POPC   D2A21052  12.070  35.319   8.255
 7018POPC   C3A21053  12.031  35.383   7.955
 7018POPC   C4A21054  12.052  35.374   7.655
 7018POPC   C1B21055  11.930  35.560   8.555
 7018POPC   C2B21056  11.934  35.500   8.255
 7018POPC   C3B21057  11.901  35.535   7.955
 7018POPC   C4B21058  11.909  35.582   7.655
 7019POPC   NC321059  18.302  31.441   9.455
 7019POPC   PO421060  18.264  31.502   9.155
 7019POPC   GL121061  18.287  31.475   8.855
 7019POPC   GL221062  18.409  31.401   8.855
 7019POPC   C1A21063  18.317  31.461   8.555
 7019POPC   D2A21064  18.331  31.508   8.255
 7019POPC   C3A21065  18.285  31.496   7.955
 7019POPC   C4A21066  18.252  31.488   7.655
 7019POPC   C1B21067  18.484  31.303   8.555
 7019POPC   C2B21068  18.505  31.341   8.255
 7019POPC   C3B21069  18.505  31.365   7.955
 7019POPC   C4B21070  18.468  31.343   7.655
 7020POPC   NC321071  14.423  26.831   9.455
 7020POPC   PO421072  14.376  26.769   9.155
 7020POPC   GL121073  14.431  26.809   8.855
 7020POPC   GL221074  14.477  26.747   8.855
 7020POPC   C1A21075  14.375  26.847   8.555
 7020POPC   D2A21076  14.426  26.799   8.255
 7020POPC   C3A21077  14.400  26.797   7.955
 7020POPC   C4A21078  14.410  26.773   7.655
 7020POPC   C1B21079  14.595  26.693   8.555
 7020POPC   C2B21080  14.647  26.659   8.255
 7020POPC   C3B21081  14.666  26.750   7.955
 7020POPC   C4B21082  14.654  26.732   7.655
 7021POPC   NC321083  17.481  41.588   9.455
 7021POPC   PO421084  17.545  41.563   9.155
 7021POPC   GL121085  17.520  41.549   8.855
 7021POPC   GL221086  17.561  41.672   8.855
 7021POPC   C1A21087  17.512  41.554   8.555
 7021POPC   D2A21088  17.554  41.585   8.255
 7021POPC   C3A21089  17.481  41.564   7.955
 7021POPC   C4A21090  17.472  41.589   7.655
 7021POPC   C1B21091  17.488  41.774   8.555
 7021POPC   C2B21092  17.549  41.795   8.255
 7021POPC   C3B21093  17.495  41.842   7.955
 7021POPC   C4B21094  17.545  41.853   7.655
 7022POPC   NC321095  11.251  19.064   9.455
 7022POPC   PO421096  11.335  19.064   9.155
 7022POPC   GL121097  11.275  19.108   8.855
 7022POPC   GL221098  11.257  18.910   8.855
 7022POPC   C1A21099  11.288  19.106   8.555
 7022POPC   D2A21100  11.291  19.072   8.255
 7022POPC   C3A21101  11.333  19.036   7.955
 7022POPC   C4A21102  11.309  19.029   7.655
 7022POPC   C1B21103  11.265  18.855   8.555
 7022POPC   C2B21104  11.252  18.774   8.255
 7022POPC   C3B21105  11.259  18.778   7.955
 7022POPC   C4B21106  11.198  18.811   7.655
 7023POPC   NC321107   8.946  33.753   9.455
 7023POPC   PO421108   9.006  33.824   9.155
 7023POPC   GL121109   8.935  33.793   8.855
 7023POPC   GL221110   8.984  33.656   8.855
 7023POPC   C1A21111   8.949  33.765   8.555
 7023POPC   D2A21112   8.967  33.841   8.255
 7023POPC   C3A21113   8.966  33.799   7.955
 7023POPC   C4A21114   8.962  33.826   7.655
 7023POPC   C1B21115   8.891  33.574   8.555
 7023POPC   C2B21116   8.925  33.542   8.255
 7023POPC   C3B21117   8.939  33.571   7.955
 7023POPC   C4B21118   8.953  33.552   7.655
 7024POPC   NC321119   2.778   5.071   9.455
 7024POPC   PO421120   2.770   5.100   9.155
 7024POPC   GL121121   2.762   5.127   8.855
 7024POPC   GL221122   2.886   5.159   8.855
 7024POPC   C1A21123   2.797   5.105   8.555
 7024POPC   D2A21124   2.754   5.129   8.255
 7024POPC   C3A21125   2.718   5.090   7.955
 7024POPC   C4A21126   2.807   5.048   7.655
 7024POPC   C1B21127   3.003   5.214   8.555
 7024POPC   C2B21128   2.934   5.273   8.255
 7024POPC   C3B21129   2.923   5.213   7.955
 7024POPC   C4B21130   2.965   5.218   7.655
 7025POPC   NC321131  12.849   5.846   9.455
 7025POPC   PO421132  12.807   5.843   9.155
 7025POPC   GL121133  12.830   5.862   8.855
 7025POPC   GL221134  12.851   6.032   8.855
 7025POPC   C1A21135  12.889   5.879   8.555
 7025POPC   D2A21136  12.825   5.901   8.255
 7025POPC   C3A21137  12.847   5.824   7.955
 7025POPC   C4A21138  12.828   5.841   7.655
 7025POPC   C1B21139  12.868   6.164   8.555
 7025POPC   C2B21140  12.866   6.147   8.255
 7025POPC   C3B21141  12.923   6.073   7.955
 7025POPC   C4B21142  12.874   6.133   7.655
 7026POPC   NC321143  30.730  22.129   9.455
 7026POPC   PO421144  30.687  22.124   9.155
 7026POPC   GL121145  30.698  22.160   8.855
 7026POPC   GL221146  30.777  22.172   8.855
 7026POPC   C1A21147  30.743  22.201   8.555
 7026POPC   D2A21148  30.718  22.187   8.255
 7026POPC   C3A21149  30.670  22.152   7.955
 7026POPC   C4A21150  30.721  22.134   7.655
 7026POPC   C1B21151  30.906  22.148   8.555
 7026POPC   C2B21152  30.988  22.179   8.255
 7026POPC   C3B21153  30.910  22.244   7.955
 7026POPC   C4B21154  30.909  22.235   7.655
 7027POPC   NC321155  40.831  12.853   9.455
 7027POPC   PO421156  40.782  12.855   9.155
 7027POPC   GL121157  40.802  12.882   8.855
 7027POPC   GL221158  40.847  12.903   8.855
 7027POPC   C1A21159  40.797  12.814   8.555
 7027POPC   D2A21160  40.775  12.802   8.255
 7027POPC   C3A21161  40.800  12.831   7.955
 7027POPC   C4A21162  40.797  12.837   7.655
 7027POPC   C1B21163  41.022  12.986   8.555
 7027POPC   C2B21164  41.050  12.996   8.255
 7027POPC   C3B21165  41.034  12.944   7.955
 7027POPC   C4B21166  41.004  12.961   7.655
 7028POPC   NC321167  15.977  38.428   9.455
 7028POPC   PO421168  15.998  38.431   9.155
 7028POPC   GL121169  15.943  38.455   8.855
 7028POPC   GL221170  16.088  38.458   8.855
 7028POPC   C1A21171  15.958  38.420   8.555
 7028POPC   D2A21172  15.997  38.483   8.255
 7028POPC   C3A21173  15.928  38.490   7.955
 7028POPC   C4A21174  15.973  38.468   7.655
 7028POPC   C1B21175  16.161  38.362   8.555
 7028POPC   C2B21176  16.208  38.386   8.255
 7028POPC   C3B21177  16.190  38.404   7.955
 7028POPC   C4B21178  16.169  38.362   7.655
 7029POPC   NC321179  15.139  26.856   9.455
 7029POPC   PO421180  15.159  26.770   9.155
 7029POPC   GL121181  15.192  26.795   8.855
 7029POPC   GL221182  15.188  26.682   8.855
 7029POPC   C1A21183  15.219  26.858   8.555
 7029POPC   D2A21184  15.217  26.824   8.255
 7029POPC   C3A21185  15.134  26.861   7.955
 7029POPC   C4A21186  15.189  26.823   7.655
 7029POPC   C1B21187  15.175  26.546   8.555
 7029POPC   C2B21188  15.159  26.565   8.255
 7029POPC   C3B21189  15.170  26.534   7.955
 7029POPC   C4B21190  15.160  26.605   7.655
 7030POPC   NC321191  26.805  36.865   9.455
 7030POPC   PO421192  26.832  36.876   9.155
 7030POPC   GL121193  26.830  36.927   8.855
 7030POPC   GL221194  26.721  36.765   8.855
 7030POPC   C1A21195  26.862  36.906   8.555
 7030POPC   D2A21196  26.857  36.938   8.255
 7030POPC   C3A21197  26.774  36.948   7.955
 7030POPC   C4A21198  26.812  36.914   7.655
 7030POPC   C1B21199  26.697  36.717   8.555
 7030POPC   C2B21200  26.728  36.709   8.255
 7030POPC   C3B21201  26.746  36.662   7.955
 7030POPC   C4B21202  26.700  36.700   7.655
 7031POPC   NC321203  28.378  33.796   9.455
 7031POPC   PO421204  28.348  33.833   9.155
 7031POPC   GL121205  28.330  33.804   8.855
 7031POPC   GL221206  28.434  33.671   8.855
 7031POPC   C1A21207  28.338  33.758   8.555
 7031POPC   D2A21208  28.416  33.806   8.255
 7031POPC   C3A21209  28.383  33.808   7.955
 7031POPC   C4A21210  28.398  33.789   7.655
 7031POPC   C1B21211  28.463  33.552   8.555
 7031POPC   C2B21212  28.518  33.575   8.255
 7031POPC   C3B21213  28.522  33.615   7.955
 7031POPC   C4B21214  28.448  33.614   7.655
 7032POPC   NC321215  34.540   2.011   9.455
 7032POPC   PO421216  34.620   2.025   9.155
 7032POPC   GL121217  34.527   1.988   8.855
 7032POPC   GL221218  34.583   1.891   8.855
 7032POPC   C1A21219  34.567   1.977   8.555
 7032POPC   D2A21220  34.589   1.942   8.255
 7032POPC   C3A21221  34.607   1.953   7.955
 7032POPC   C4A21222  34.610   1.999   7.655
 7032POPC   C1B21223  34.666   1.751   8.555
 7032POPC   C2B21224  34.639   1.717   8.255
 7032POPC   C3B21225  34.611   1.775   7.955
 7032POPC   C4B21226  34.592   1.730   7.655
 7033POPC   NC321227   1.190   5.110   9.455
 7033POPC   PO421228   1.258   5.131   9.155
 7033POPC   GL121229   1.227   5.098   8.855
 7033POPC   GL221230   1.329   5.149   8.855
 7033POPC   C1A21231   1.243   5.059   8.555
 7033POPC   D2A21232   1.235   5.125   8.255
 7033POPC   C3A21233   1.173   5.069   7.955
 7033POPC   C4A21234   1.242   5.083   7.655
 7033POPC   C1B21235   1.443   5.169   8.555
 7033POPC   C2B21236   1.451   5.215   8.255
 7033POPC   C3B21237   1.412   5.171   7.955
 7033POPC   C4B21238   1.453   5.170   7.655
 7034POPC   NC321239   1.996  28.350   9.455
 7034POPC   PO421240   1.948  28.368   9.155
 7034POPC   GL121241   1.978  28.390   8.855
 7034POPC   GL221242   2.112  28.434   8.855
 7034POPC   C1A21243   2.035  28.395   8.555
 7034POPC   D2A21244   2.029  28.372   8.255
 7034POPC   C3A21245   2.002  28.320   7.955
 7034POPC   C4A21246   2.004  28.380   7.655
 7034POPC   C1B21247   2.198  28.486   8.555
 7034POPC   C2B21248   2.191  28.482   8.255
 7034POPC   C3B21249   2.202  28.468   7.955
 7034POPC   C4B21250   2.234  28.494   7.655
 7035POPC   NC321251   5.906  36.111   9.455
 7035POPC   PO421252   5.898  36.167   9.155
 7035POPC   GL121253   5.860  36.137   8.855
 7035POPC   GL221254   5.736  36.190   8.855
 7035POPC   C1A21255   5.878  36.119   8.555
 7035POPC   D2A21256   5.856  36.136   8.255
 7035POPC   C3A21257   5.890  36.119   7.955
 7035POPC   C4A21258   5.828  36.155   7.655
 7035POPC   C1B21259   5.621  36.137   8.555
 7035POPC   C2B21260   5.599  36.139   8.255
 7035POPC   C3B21261   5.619  36.145   7.955
 7035POPC   C4B21262   5.601  36.150   7.655
 7036POPC   NC321263  32.994  19.096   9.455
 7036POPC   PO421264  32.997  19.078   9.155
 7036POPC   GL121265  33.062  19.061   8.855
 7036POPC   GL221266  33.101  19.204   8.855
 7036POPC   C1A21267  32.977  19.043   8.555
 7036POPC   D2A21268  33.067  19.080   8.255
 7036POPC   C3A21269  33.007  19.090   7.955
 7036POPC   C4A21270  33.021  19.017   7.655
 7036POPC   C1B21271  33.089  19.264   8.555
 7036POPC   C2B21272  33.145  19.318   8.255
 7036POPC   C3B21273  33.105  19.250   7.955
 7036POPC   C4B21274  33.047  19.345   7.655
 7037POPC   NC321275  33.006  24.449   9.455
 7037POPC   PO421276  32.995  24.484   9.155
 7037POPC   GL121277  33.072  24.443   8.855
 7037POPC   GL221278  32.951  24.431   8.855
 7037POPC   C1A21279  33.070  24.508   8.555
 7037POPC   D2A21280  33.006  24.488   8.255
 7037POPC   C3A21281  33.011  24.486   7.955
 7037POPC   C4A21282  32.990  24.459   7.655
 7037POPC   C1B21283  32.798  24.426   8.555
 7037POPC   C2B21284  32.828  24.431   8.255
 7037POPC   C3B21285  32.803  24.434   7.955
 7037POPC   C4B21286  32.772  24.439   7.655
 7038POPC   NC321287   5.916  31.468   9.455
 7038POPC   PO421288   5.858  31.516   9.155
 7038POPC   GL121289   5.855  31.520   8.855
 7038POPC   GL221290   5.818  31.555   8.855
 7038POPC   C1A21291   5.882  31.510   8.555
 7038POPC   D2A21292   5.890  31.450   8.255
 7038POPC   C3A21293   5.856  31.484   7.955
 7038POPC   C4A21294   5.913  31.434   7.655
 7038POPC   C1B21295   5.714  31.684   8.555
 7038POPC   C2B21296   5.781  31.719   8.255
 7038POPC   C3B21297   5.753  31.635   7.955
 7038POPC   C4B21298   5.771  31.718   7.655
 7039POPC   NC321299  10.482  10.494   9.455
 7039POPC   PO421300  10.485  10.509   9.155
 7039POPC   GL121301  10.505  10.490   8.855
 7039POPC   GL221302  10.543  10.449   8.855
 7039POPC   C1A21303  10.503  10.489   8.555
 7039POPC   D2A21304  10.482  10.574   8.255
 7039POPC   C3A21305  10.534  10.547   7.955
 7039POPC   C4A21306  10.478  10.501   7.655
 7039POPC   C1B21307  10.618  10.337   8.555
 7039POPC   C2B21308  10.704  10.347   8.255
 7039POPC   C3B21309  10.693  10.304   7.955
 7039POPC   C4B21310  10.640  10.341   7.655
 7040POPC   NC321311  32.240  28.373   9.455
 7040POPC   PO421312  32.212  28.345   9.155
 7040POPC   GL121313  32.258  28.363   8.855
 7040POPC   GL221314  32.394  28.397   8.855
 7040POPC   C1A21315  32.219  28.349   8.555
 7040POPC   D2A21316  32.266  28.389   8.255
 7040POPC   C3A21317  32.264  28.381   7.955
 7040POPC   C4A21318  32.287  28.343   7.655
 7040POPC   C1B21319  32.511  28.474   8.555
 7040POPC   C2B21320  32.448  28.473   8.255
 7040POPC   C3B21321  32.508  28.434   7.955
 7040POPC   C4B21322  32.484  28.489   7.655
 7041POPC   NC321323   8.160  15.140   9.455
 7041POPC   PO421324   8.157  15.201   9.155
 7041POPC   GL121325   8.229  15.168   8.855
 7041POPC   GL221326   8.190  15.248   8.855
 7041POPC   C1A21327   8.149  15.198   8.555
 7041POPC   D2A21328   8.227  15.171   8.255
 7041POPC   C3A21329   8.205  15.143   7.955
 7041POPC   C4A21330   8.165  15.176   7.655
 7041POPC   C1B21331   8.266  15.442   8.555
 7041POPC   C2B21332   8.327  15.390   8.255
 7041POPC   C3B21333   8.290  15.388   7.955
 7041POPC   C4B21334   8.256  15.430   7.655
 7042POPC   NC321335  26.841  19.863   9.455
 7042POPC   PO421336  26.779  19.794   9.155
 7042POPC   GL121337  26.853  19.845   8.855
 7042POPC   GL221338  26.774  19.701   8.855
 7042POPC   C1A21339  26.814  19.833   8.555
 7042POPC   D2A21340  26.797  19.878   8.255
 7042POPC   C3A21341  26.855  19.788   7.955
 7042POPC   C4A21342  26.855  19.796   7.655
 7042POPC   C1B21343  26.845  19.621   8.555
 7042POPC   C2B21344  26.801  19.597   8.255
 7042POPC   C3B21345  26.843  19.612   7.955
 7042POPC   C4B21346  26.777  19.584   7.655
 7043POPC   NC321347   4.298   7.418   9.455
 7043POPC   PO421348   4.308   7.399   9.155
 7043POPC   GL121349   4.325   7.434   8.855
 7043POPC   GL221350   4.391   7.343   8.855
 7043POPC   C1A21351   4.334   7.423   8.555
 7043POPC   D2A21352   4.308   7.447   8.255
 7043POPC   C3A21353   4.345   7.458   7.955
 7043POPC   C4A21354   4.325   7.413   7.655
 7043POPC   C1B21355   4.577   7.341   8.555
 7043POPC   C2B21356   4.587   7.354   8.255
 7043POPC   C3B21357   4.584   7.358   7.955
 7043POPC   C4B21358   4.502   7.351   7.655
 7044POPC   NC321359  32.201  25.301   9.455
 7044POPC   PO421360  32.279  25.226   9.155
 7044POPC   GL121361  32.255  25.267   8.855
 7044POPC   GL221362  32.098  25.257   8.855
 7044POPC   C1A21363  32.222  25.225   8.555
 7044POPC   D2A21364  32.273  25.288   8.255
 7044POPC   C3A21365  32.224  25.231   7.955
 7044POPC   C4A21366  32.292  25.233   7.655
 7044POPC   C1B21367  32.028  25.241   8.555
 7044POPC   C2B21368  31.994  25.298   8.255
 7044POPC   C3B21369  31.959  25.306   7.955
 7044POPC   C4B21370  31.985  25.276   7.655
 7045POPC   NC321371  25.286  44.709   9.455
 7045POPC   PO421372  25.273  44.677   9.155
 7045POPC   GL121373  25.301  44.710   8.855
 7045POPC   GL221374  25.416  44.651   8.855
 7045POPC   C1A21375  25.257  44.673   8.555
 7045POPC   D2A21376  25.292  44.623   8.255
 7045POPC   C3A21377  25.302  44.641   7.955
 7045POPC   C4A21378  25.259  44.651   7.655
 7045POPC   C1B21379  25.498  44.548   8.555
 7045POPC   C2B21380  25.480  44.556   8.255
 7045POPC   C3B21381  25.534  44.534   7.955
 7045POPC   C4B21382  25.495  44.567   7.655
 7046POPC   NC321383  16.762   8.167   9.455
 7046POPC   PO421384  16.709   8.212   9.155
 7046POPC   GL121385  16.738   8.222   8.855
 7046POPC   GL221386  16.603   8.211   8.855
 7046POPC   C1A21387  16.726   8.238   8.555
 7046POPC   D2A21388  16.778   8.215   8.255
 7046POPC   C3A21389  16.771   8.156   7.955
 7046POPC   C4A21390  16.778   8.227   7.655
 7046POPC   C1B21391  16.504   8.198   8.555
 7046POPC   C2B21392  16.499   8.149   8.255
 7046POPC   C3B21393  16.499   8.236   7.955
 7046POPC   C4B21394  16.488   8.212   7.655
 7047POPC   NC321395  12.838   3.572   9.455
 7047POPC   PO421396  12.861   3.518   9.155
 7047POPC   GL121397  12.886   3.558   8.855
 7047POPC   GL221398  12.838   3.467   8.855
 7047POPC   C1A21399  12.878   3.584   8.555
 7047POPC   D2A21400  12.819   3.527   8.255
 7047POPC   C3A21401  12.804   3.539   7.955
 7047POPC   C4A21402  12.847   3.529   7.655
 7047POPC   C1B21403  12.828   3.253   8.555
 7047POPC   C2B21404  12.779   3.315   8.255
 7047POPC   C3B21405  12.751   3.313   7.955
 7047POPC   C4B21406  12.754   3.267   7.655
 7048POPC   NC321407  24.466  20.619   9.455
 7048POPC   PO421408  24.534  20.640   9.155
 7048POPC   GL121409  24.518  20.589   8.855
 7048POPC   GL221410  24.417  20.681   8.855
 7048POPC   C1A21411  24.470  20.622   8.555
 7048POPC   D2A21412  24.510  20.625   8.255
 7048POPC   C3A21413  24.511  20.563   7.955
 7048POPC   C4A21414  24.536  20.565   7.655
 7048POPC   C1B21415  24.285  20.791   8.555
 7048POPC   C2B21416  24.254  20.699   8.255
 7048POPC   C3B21417  24.326  20.701   7.955
 7048POPC   C4B21418  24.292  20.697   7.655
 7049POPC   NC321419  17.535  38.472   9.455
 7049POPC   PO421420  17.510  38.442   9.155
 7049POPC   GL121421  17.524  38.435   8.855
 7049POPC   GL221422  17.652  38.478   8.855
 7049POPC   C1A21423  17.513  38.426   8.555
 7049POPC   D2A21424  17.486  38.459   8.255
 7049POPC   C3A21425  17.544  38.490   7.955
 7049POPC   C4A21426  17.486  38.463   7.655
 7049POPC   C1B21427  17.755  38.518   8.555
 7049POPC   C2B21428  17.775  38.535   8.255
 7049POPC   C3B21429  17.717  38.507   7.955
 7049POPC   C4B21430  17.754  38.522   7.655
 7050POPC   NC321431  40.777  19.880   9.455
 7050POPC   PO421432  40.794  19.853   9.155
 7050POPC   GL121433  40.753  19.797   8.855
 7050POPC   GL221434  40.797  19.952   8.855
 7050POPC   C1A21435  40.769  19.819   8.555
 7050POPC   D2A21436  40.831  19.870   8.255
 7050POPC   C3A21437  40.786  19.829   7.955
 7050POPC   C4A21438  40.742  19.807   7.655
 7050POPC   C1B21439  40.845  20.032   8.555
 7050POPC   C2B21440  40.905  20.088   8.255
 7050POPC   C3B21441  40.918  20.091   7.955
 7050POPC   C4B21442  40.898  20.051   7.655
 7051POPC   NC321443  25.243  34.550   9.455
 7051POPC   PO421444  25.296  34.561   9.155
 7051POPC   GL121445  25.278  34.598   8.855
 7051POPC   GL221446  25.111  34.550   8.855
 7051POPC   C1A21447  25.282  34.621   8.555
 7051POPC   D2A21448  25.289  34.613   8.255
 7051POPC   C3A21449  25.279  34.551   7.955
 7051POPC   C4A21450  25.223  34.572   7.655
 7051POPC   C1B21451  25.034  34.525   8.555
 7051POPC   C2B21452  25.029  34.560   8.255
 7051POPC   C3B21453  25.018  34.593   7.955
 7051POPC   C4B21454  25.005  34.583   7.655
 7052POPC   NC321455   1.238  22.952   9.455
 7052POPC   PO421456   1.174  22.973   9.155
 7052POPC   GL121457   1.218  22.944   8.855
 7052POPC   GL221458   1.300  22.845   8.855
 7052POPC   C1A21459   1.247  22.980   8.555
 7052POPC   D2A21460   1.174  22.948   8.255
 7052POPC   C3A21461   1.222  22.947   7.955
 7052POPC   C4A21462   1.229  22.957   7.655
 7052POPC   C1B21463   1.451  22.819   8.555
 7052POPC   C2B21464   1.477  22.881   8.255
 7052POPC   C3B21465   1.442  22.868   7.955
 7052POPC   C4B21466   1.466  22.814   7.655
 7053POPC   NC321467  14.391  38.485   9.455
 7053POPC   PO421468  14.405  38.416   9.155
 7053POPC   GL121469  14.355  38.455   8.855
 7053POPC   GL221470  14.339  38.586   8.855
 7053POPC   C1A21471  14.426  38.422   8.555
 7053POPC   D2A21472  14.429  38.415   8.255
 7053POPC   C3A21473  14.448  38.466   7.955
 7053POPC   C4A21474  14.374  38.493   7.655
 7053POPC   C1B21475  14.276  38.615   8.555
 7053POPC   C2B21476  14.237  38.647   8.255
 7053POPC   C3B21477  14.209  38.676   7.955
 7053POPC   C4B21478  14.277  38.649   7.655
 7054POPC   NC321479  26.056   3.548   9.455
 7054POPC   PO421480  26.013   3.564   9.155
 7054POPC   GL121481  26.079   3.523   8.855
 7054POPC   GL221482  25.979   3.407   8.855
 7054POPC   C1A21483  25.997   3.506   8.555
 7054POPC   D2A21484  26.061   3.544   8.255
 7054POPC   C3A21485  26.078   3.502   7.955
 7054POPC   C4A21486  26.041   3.547   7.655
 7054POPC   C1B21487  25.912   3.388   8.555
 7054POPC   C2B21488  25.861   3.353   8.255
 7054POPC   C3B21489  25.876   3.390   7.955
 7054POPC   C4B21490  25.913   3.373   7.655
 7055POPC   NC321491  13.601  35.360   9.455
 7055POPC   PO421492  13.629  35.307   9.155
 7055POPC   GL121493  13.653  35.328   8.855
 7055POPC   GL221494  13.584  35.489   8.855
 7055POPC   C1A21495  13.624  35.355   8.555
 7055POPC   D2A21496  13.629  35.316   8.255
 7055POPC   C3A21497  13.656  35.386   7.955
 7055POPC   C4A21498  13.633  35.372   7.655
 7055POPC   C1B21499  13.540  35.611   8.555
 7055POPC   C2B21500  13.476  35.552   8.255
 7055POPC   C3B21501  13.449  35.521   7.955
 7055POPC   C4B21502  13.514  35.569   7.655
 7056POPC   NC321503  29.967  21.390   9.455
 7056POPC   PO421504  29.953  21.385   9.155
 7056POPC   GL121505  29.930  21.355   8.855
 7056POPC   GL221506  29.844  21.523   8.855
 7056POPC   C1A21507  29.896  21.425   8.555
 7056POPC   D2A21508  29.948  21.350   8.255
 7056POPC   C3A21509  29.968  21.399   7.955
 7056POPC   C4A21510  29.922  21.337   7.655
 7056POPC   C1B21511  29.911  21.607   8.555
 7056POPC   C2B21512  29.866  21.666   8.255
 7056POPC   C3B21513  29.898  21.583   7.955
 7056POPC   C4B21514  29.838  21.585   7.655
 7057POPC   NC321515  10.489  15.152   9.455
 7057POPC   PO421516  10.522  15.222   9.155
 7057POPC   GL121517  10.569  15.130   8.855
 7057POPC   GL221518  10.607  15.018   8.855
 7057POPC   C1A21519  10.551  15.181   8.555
 7057POPC   D2A21520  10.492  15.216   8.255
 7057POPC   C3A21521  10.513  15.229   7.955
 7057POPC   C4A21522  10.573  15.169   7.655
 7057POPC   C1B21523  10.634  14.926   8.555
 7057POPC   C2B21524  10.594  14.923   8.255
 7057POPC   C3B21525  10.604  14.972   7.955
 7057POPC   C4B21526  10.635  14.929   7.655
 7058POPC   NC321527  35.343  17.524   9.455
 7058POPC   PO421528  35.355  17.502   9.155
 7058POPC   GL121529  35.367  17.554   8.855
 7058POPC   GL221530  35.236  17.557   8.855
 7058POPC   C1A21531  35.304  17.505   8.555
 7058POPC   D2A21532  35.350  17.493   8.255
 7058POPC   C3A21533  35.306  17.479   7.955
 7058POPC   C4A21534  35.340  17.504   7.655
 7058POPC   C1B21535  35.216  17.687   8.555
 7058POPC   C2B21536  35.225  17.685   8.255
 7058POPC   C3B21537  35.245  17.677   7.955
 7058POPC   C4B21538  35.231  17.658   7.655
 7059POPC   NC321539  43.121  17.521   9.455
 7059POPC   PO421540  43.060  17.535   9.155
 7059POPC   GL121541  43.158  17.507   8.855
 7059POPC   GL221542  43.141  17.432   8.855
 7059POPC   C1A21543  43.062  17.554   8.555
 7059POPC   D2A21544  43.065  17.502   8.255
 7059POPC   C3A21545  43.127  17.471   7.955
 7059POPC   C4A21546  43.140  17.515   7.655
 7059POPC   C1B21547  43.035  17.258   8.555
 7059POPC   C2B21548  43.116  17.274   8.255
 7059POPC   C3B21549  43.102  17.231   7.955
 7059POPC   C4B21550  43.101  17.237   7.655
 7060POPC   NC321551   5.126   8.225   9.455
 7060POPC   PO421552   5.106   8.246   9.155
 7060POPC   GL121553   5.103   8.212   8.855
 7060POPC   GL221554   5.046   8.103   8.855
 7060POPC   C1A21555   5.142   8.200   8.555
 7060POPC   D2A21556   5.084   8.226   8.255
 7060POPC   C3A21557   5.048   8.203   7.955
 7060POPC   C4A21558   5.050   8.191   7.655
 7060POPC   C1B21559   4.940   8.026   8.555
 7060POPC   C2B21560   4.931   8.019   8.255
 7060POPC   C3B21561   4.921   7.971   7.955
 7060POPC   C4B21562   4.941   7.991   7.655
 7061POPC   NC321563   1.980  30.657   9.455
 7061POPC   PO421564   2.032  30.715   9.155
 7061POPC   GL121565   1.940  30.683   8.855
 7061POPC   GL221566   2.156  30.743   8.855
 7061POPC   C1A21567   2.025  30.692   8.555
 7061POPC   D2A21568   1.940  30.739   8.255
 7061POPC   C3A21569   1.990  30.675   7.955
 7061POPC   C4A21570   1.962  30.647   7.655
 7061POPC   C1B21571   2.226  30.691   8.555
 7061POPC   C2B21572   2.255  30.666   8.255
 7061POPC   C3B21573   2.267  30.669   7.955
 7061POPC   C4B21574   2.193  30.754   7.655
 7062POPC   NC321575  38.420  42.316   9.455
 7062POPC   PO421576  38.438  42.338   9.155
 7062POPC   GL121577  38.457  42.292   8.855
 7062POPC   GL221578  38.588  42.296   8.855
 7062POPC   C1A21579  38.420  42.352   8.555
 7062POPC   D2A21580  38.488  42.373   8.255
 7062POPC   C3A21581  38.420  42.383   7.955
 7062POPC   C4A21582  38.409  42.379   7.655
 7062POPC   C1B21583  38.662  42.202   8.555
 7062POPC   C2B21584  38.635  42.195   8.255
 7062POPC   C3B21585  38.635  42.145   7.955
 7062POPC   C4B21586  38.689  42.207   7.655
 7063POPC   NC321587  23.730   1.216   9.455
 7063POPC   PO421588  23.698   1.224   9.155
 7063POPC   GL121589  23.721   1.248   8.855
 7063POPC   GL221590  23.688   1.316   8.855
 7063POPC   C1A21591  23.675   1.185   8.555
 7063POPC   D2A21592  23.685   1.233   8.255
 7063POPC   C3A21593  23.678   1.182   7.955
 7063POPC   C4A21594  23.676   1.230   7.655
 7063POPC   C1B21595  23.534   1.436   8.555
 7063POPC   C2B21596  23.614   1.409   8.255
 7063POPC   C3B21597  23.524   1.419   7.955
 7063POPC   C4B21598  23.568   1.384   7.655
 7064POPC   NC321599  22.899  17.541   9.455
 7064POPC   PO421600  22.924  17.534   9.155
 7064POPC   GL121601  22.941  17.544   8.855
 7064POPC   GL221602  23.079  17.463   8.855
 7064POPC   C1A21603  22.895  17.474   8.555
 7064POPC   D2A21604  22.965  17.462   8.255
 7064POPC   C3A21605  22.954  17.482   7.955
 7064POPC   C4A21606  22.951  17.481   7.655
 7064POPC   C1B21607  23.207  17.462   8.555
 7064POPC   C2B21608  23.192  17.415   8.255
 7064POPC   C3B21609  23.190  17.494   7.955
 7064POPC   C4B21610  23.196  17.493   7.655
 7065POPC   NC321611  40.056  29.935   9.455
 7065POPC   PO421612  40.033  29.925   9.155
 7065POPC   GL121613  40.043  29.956   8.855
 7065POPC   GL221614  40.009  30.036   8.855
 7065POPC   C1A21615  39.975  29.901   8.555
 7065POPC   D2A21616  39.975  29.954   8.255
 7065POPC   C3A21617  39.973  29.949   7.955
 7065POPC   C4A21618  39.978  29.932   7.655
 7065POPC   C1B21619  40.031  30.192   8.555
 7065POPC   C2B21620  40.086  30.184   8.255
 7065POPC   C3B21621  40.023  30.212   7.955
 7065POPC   C4B21622  40.088  30.213   7.655
 7066POPC   NC321623  16.780   2.003   9.455
 7066POPC   PO421624  16.745   2.004   9.155
 7066POPC   GL121625  16.776   2.008   8.855
 7066POPC   GL221626  16.763   1.897   8.855
 7066POPC   C1A21627  16.767   2.000   8.555
 7066POPC   D2A21628  16.736   1.967   8.255
 7066POPC   C3A21629  16.718   2.039   7.955
 7066POPC   C4A21630  16.731   1.945   7.655
 7066POPC   C1B21631  16.705   1.706   8.555
 7066POPC   C2B21632  16.742   1.700   8.255
 7066POPC   C3B21633  16.726   1.743   7.955
 7066POPC   C4B21634  16.734   1.703   7.655
 7067POPC   NC321635  40.009   9.748   9.455
 7067POPC   PO421636  39.973   9.758   9.155
 7067POPC   GL121637  40.032   9.797   8.855
 7067POPC   GL221638  39.993   9.640   8.855
 7067POPC   C1A21639  39.999   9.734   8.555
 7067POPC   D2A21640  39.998   9.768   8.255
 7067POPC   C3A21641  39.966   9.759   7.955
 7067POPC   C4A21642  40.055   9.779   7.655
 7067POPC   C1B21643  39.891   9.489   8.555
 7067POPC   C2B21644  39.880   9.473   8.255
 7067POPC   C3B21645  39.892   9.506   7.955
 7067POPC   C4B21646  39.865   9.506   7.655
 7068POPC   NC321647   4.352   1.173   9.455
 7068POPC   PO421648   4.344   1.239   9.155
 7068POPC   GL121649   4.303   1.231   8.855
 7068POPC   GL221650   4.263   1.358   8.855
 7068POPC   C1A21651   4.331   1.243   8.555
 7068POPC   D2A21652   4.300   1.188   8.255
 7068POPC   C3A21653   4.298   1.259   7.955
 7068POPC   C4A21654   4.304   1.178   7.655
 7068POPC   C1B21655   4.218   1.391   8.555
 7068POPC   C2B21656   4.179   1.474   8.255
 7068POPC   C3B21657   4.193   1.408   7.955
 7068POPC   C4B21658   4.152   1.411   7.655
 7069POPC   NC321659  34.533   2.737   9.455
 7069POPC   PO421660  34.529   2.735   9.155
 7069POPC   GL121661  34.615   2.764   8.855
 7069POPC   GL221662  34.724   2.762   8.855
 7069POPC   C1A21663  34.530   2.790   8.555
 7069POPC   D2A21664  34.613   2.775   8.255
 7069POPC   C3A21665  34.564   2.782   7.955
 7069POPC   C4A21666  34.615   2.788   7.655
 7069POPC   C1B21667  34.846   2.809   8.555
 7069POPC   C2B21668  34.862   2.737   8.255
 7069POPC   C3B21669  34.817   2.743   7.955
 7069POPC   C4B21670  34.796   2.792   7.655
 7070POPC   NC321671  22.931  21.350   9.455
 7070POPC   PO421672  22.899  21.357   9.155
 7070POPC   GL121673  22.939  21.418   8.855
 7070POPC   GL221674  22.826  21.478   8.855
 7070POPC   C1A21675  22.929  21.378   8.555
 7070POPC   D2A21676  22.921  21.429   8.255
 7070POPC   C3A21677  22.980  21.434   7.955
 7070POPC   C4A21678  22.939  21.373   7.655
 7070POPC   C1B21679  22.723  21.514   8.555
 7070POPC   C2B21680  22.765  21.530   8.255
 7070POPC   C3B21681  22.797  21.555   7.955
 7070POPC   C4B21682  22.717  21.604   7.655
 7071POPC   NC321683  29.921  43.843   9.455
 7071POPC   PO421684  29.944  43.902   9.155
 7071POPC   GL121685  29.906  43.904   8.855
 7071POPC   GL221686  29.973  43.968   8.855
 7071POPC   C1A21687  29.903  43.933   8.555
 7071POPC   D2A21688  29.899  43.922   8.255
 7071POPC   C3A21689  29.938  43.860   7.955
 7071POPC   C4A21690  29.919  43.869   7.655
 7071POPC   C1B21691  30.012  44.082   8.555
 7071POPC   C2B21692  30.030  44.140   8.255
 7071POPC   C3B21693  30.101  44.131   7.955
 7071POPC   C4B21694  30.088  44.119   7.655
 7072POPC   NC321695  21.356  33.762   9.455
 7072POPC   PO421696  21.422  33.767   9.155
 7072POPC   GL121697  21.395  33.827   8.855
 7072POPC   GL221698  21.514  33.741   8.855
 7072POPC   C1A21699  21.416  33.837   8.555
 7072POPC   D2A21700  21.354  33.805   8.255
 7072POPC   C3A21701  21.379  33.771   7.955
 7072POPC   C4A21702  21.351  33.846   7.655
 7072POPC   C1B21703  21.641  33.631   8.555
 7072POPC   C2B21704  21.557  33.680   8.255
 7072POPC   C3B21705  21.556  33.648   7.955
 7072POPC   C4B21706  21.598  33.672   7.655
 7073POPC   NC321707  36.106  24.473   9.455
 7073POPC   PO421708  36.085  24.506   9.155
 7073POPC   GL121709  36.161  24.506   8.855
 7073POPC   GL221710  36.248  24.500   8.855
 7073POPC   C1A21711  36.149  24.462   8.555
 7073POPC   D2A21712  36.111  24.488   8.255
 7073POPC   C3A21713  36.088  24.463   7.955
 7073POPC   C4A21714  36.105  24.520   7.655
 7073POPC   C1B21715  36.352  24.478   8.555
 7073POPC   C2B21716  36.372  24.427   8.255
 7073POPC   C3B21717  36.368  24.452   7.955
 7073POPC   C4B21718  36.398  24.488   7.655
 7074POPC   NC321719   8.957  39.183   9.455
 7074POPC   PO421720   8.985  39.254   9.155
 7074POPC   GL121721   8.976  39.241   8.855
 7074POPC   GL221722   9.045  39.140   8.855
 7074POPC   C1A21723   8.999  39.187   8.555
 7074POPC   D2A21724   9.006  39.241   8.255
 7074POPC   C3A21725   8.953  39.203   7.955
 7074POPC   C4A21726   9.006  39.281   7.655
 7074POPC   C1B21727   9.149  39.050   8.555
 7074POPC   C2B21728   9.122  39.029   8.255
 7074POPC   C3B21729   9.187  39.032   7.955
 7074POPC   C4B21730   9.119  39.028   7.655
 7075POPC   NC321731   4.357  26.855   9.455
 7075POPC   PO421732   4.327  26.837   9.155
 7075POPC   GL121733   4.363  26.844   8.855
 7075POPC   GL221734   4.458  26.815   8.855
 7075POPC   C1A21735   4.302  26.773   8.555
 7075POPC   D2A21736   4.311  26.812   8.255
 7075POPC   C3A21737   4.346  26.853   7.955
 7075POPC   C4A21738   4.270  26.856   7.655
 7075POPC   C1B21739   4.527  26.727   8.555
 7075POPC   C2B21740   4.537  26.709   8.255
 7075POPC   C3B21741   4.528  26.678   7.955
 7075POPC   C4B21742   4.506  26.737   7.655
 7076POPC   NC321743  26.015  25.279   9.455
 7076POPC   PO421744  26.061  25.285   9.155
 7076POPC   GL121745  26.044  25.270   8.855
 7076POPC   GL221746  26.121  25.233   8.855
 7076POPC   C1A21747  26.041  25.290   8.555
 7076POPC   D2A21748  26.033  25.262   8.255
 7076POPC   C3A21749  26.058  25.227   7.955
 7076POPC   C4A21750  26.058  25.305   7.655
 7076POPC   C1B21751  26.241  25.221   8.555
 7076POPC   C2B21752  26.291  25.157   8.255
 7076POPC   C3B21753  26.291  25.166   7.955
 7076POPC   C4B21754  26.231  25.146   7.655
 7077POPC   NC321755  11.307  11.277   9.455
 7077POPC   PO421756  11.294  11.292   9.155
 7077POPC   GL121757  11.270  11.318   8.855
 7077POPC   GL221758  11.188  11.298   8.855
 7077POPC   C1A21759  11.280  11.261   8.555
 7077POPC   D2A21760  11.319  11.266   8.255
 7077POPC   C3A21761  11.331  11.286   7.955
 7077POPC   C4A21762  11.306  11.318   7.655
 7077POPC   C1B21763  11.085  11.255   8.555
 7077POPC   C2B21764  11.089  11.304   8.255
 7077POPC   C3B21765  11.032  11.303   7.955
 7077POPC   C4B21766  11.057  11.274   7.655
 7078POPC   NC321767  29.194  29.907   9.455
 7078POPC   PO421768  29.169  29.958   9.155
 7078POPC   GL121769  29.095  29.901   8.855
 7078POPC   GL221770  29.245  29.900   8.855
 7078POPC   C1A21771  29.111  29.873   8.555
 7078POPC   D2A21772  29.098  29.876   8.255
 7078POPC   C3A21773  29.191  29.959   7.955
 7078POPC   C4A21774  29.164  29.906   7.655
 7078POPC   C1B21775  29.342  29.846   8.555
 7078POPC   C2B21776  29.394  29.834   8.255
 7078POPC   C3B21777  29.410  29.893   7.955
 7078POPC   C4B21778  29.352  29.902   7.655
 7079POPC   NC321779  26.825  17.520   9.455
 7079POPC   PO421780  26.776  17.536   9.155
 7079POPC   GL121781  26.822  17.555   8.855
 7079POPC   GL221782  26.880  17.388   8.855
 7079POPC   C1A21783  26.770  17.518   8.555
 7079POPC   D2A21784  26.847  17.491   8.255
 7079POPC   C3A21785  26.772  17.509   7.955
 7079POPC   C4A21786  26.852  17.533   7.655
 7079POPC   C1B21787  27.027  17.352   8.555
 7079POPC   C2B21788  27.018  17.347   8.255
 7079POPC   C3B21789  26.958  17.300   7.955
 7079POPC   C4B21790  26.996  17.315   7.655
 7080POPC   NC321791  41.561  19.079   9.455
 7080POPC   PO421792  41.574  19.027   9.155
 7080POPC   GL121793  41.528  19.081   8.855
 7080POPC   GL221794  41.717  19.018   8.855
 7080POPC   C1A21795  41.548  19.032   8.555
 7080POPC   D2A21796  41.510  19.046   8.255
 7080POPC   C3A21797  41.539  19.033   7.955
 7080POPC   C4A21798  41.517  19.031   7.655
 7080POPC   C1B21799  41.810  18.998   8.555
 7080POPC   C2B21800  41.782  19.074   8.255
 7080POPC   C3B21801  41.767  19.044   7.955
 7080POPC   C4B21802  41.851  19.069   7.655
 7081POPC   NC321803  22.957  14.354   9.455
 7081POPC   PO421804  22.938  14.431   9.155
 7081POPC   GL121805  22.938  14.389   8.855
 7081POPC   GL221806  22.802  14.316   8.855
 7081POPC   C1A21807  22.935  14.375   8.555
 7081POPC   D2A21808  22.978  14.427   8.255
 7081POPC   C3A21809  22.945  14.393   7.955
 7081POPC   C4A21810  22.975  14.398   7.655
 7081POPC   C1B21811  22.772  14.234   8.555
 7081POPC   C2B21812  22.772  14.208   8.255
 7081POPC   C3B21813  22.752  14.289   7.955
 7081POPC   C4B21814  22.748  14.290   7.655
 7082POPC   NC321815  37.681   0.397   9.455
 7082POPC   PO421816  37.685   0.404   9.155
 7082POPC   GL121817  37.698   0.476   8.855
 7082POPC   GL221818  37.764   0.304   8.855
 7082POPC   C1A21819  37.636   0.478   8.555
 7082POPC   D2A21820  37.666   0.475   8.255
 7082POPC   C3A21821  37.706   0.400   7.955
 7082POPC   C4A21822  37.665   0.410   7.655
 7082POPC   C1B21823  37.862   0.277   8.555
 7082POPC   C2B21824  37.840   0.260   8.255
 7082POPC   C3B21825  37.854   0.251   7.955
 7082POPC   C4B21826  37.882   0.223   7.655
 7083POPC   NC321827  26.064  26.791   9.455
 7083POPC   PO421828  26.054  26.817   9.155
 7083POPC   GL121829  26.091  26.850   8.855
 7083POPC   GL221830  26.202  26.889   8.855
 7083POPC   C1A21831  26.026  26.788   8.555
 7083POPC   D2A21832  26.011  26.856   8.255
 7083POPC   C3A21833  26.039  26.796   7.955
 7083POPC   C4A21834  26.004  26.835   7.655
 7083POPC   C1B21835  26.251  26.922   8.555
 7083POPC   C2B21836  26.250  26.945   8.255
 7083POPC   C3B21837  26.282  26.941   7.955
 7083POPC   C4B21838  26.279  26.955   7.655
 7084POPC   NC321839   6.597  32.980   9.455
 7084POPC   PO421840   6.628  33.047   9.155
 7084POPC   GL121841   6.688  33.003   8.855
 7084POPC   GL221842   6.599  33.131   8.855
 7084POPC   C1A21843   6.684  33.022   8.555
 7084POPC   D2A21844   6.679  33.050   8.255
 7084POPC   C3A21845   6.601  33.031   7.955
 7084POPC   C4A21846   6.664  33.073   7.655
 7084POPC   C1B21847   6.653  33.241   8.555
 7084POPC   C2B21848   6.599  33.290   8.255
 7084POPC   C3B21849   6.662  33.277   7.955
 7084POPC   C4B21850   6.596  33.267   7.655
 7085POPC   NC321851  22.134  43.852   9.455
 7085POPC   PO421852  22.161  43.891   9.155
 7085POPC   GL121853  22.140  43.852   8.855
 7085POPC   GL221854  22.035  43.773   8.855
 7085POPC   C1A21855  22.130  43.851   8.555
 7085POPC   D2A21856  22.181  43.935   8.255
 7085POPC   C3A21857  22.143  43.850   7.955
 7085POPC   C4A21858  22.200  43.914   7.655
 7085POPC   C1B21859  22.021  43.677   8.555
 7085POPC   C2B21860  21.989  43.717   8.255
 7085POPC   C3B21861  21.959  43.723   7.955
 7085POPC   C4B21862  21.945  43.751   7.655
 7086POPC   NC321863   5.890  42.293   9.455
 7086POPC   PO421864   5.862  42.374   9.155
 7086POPC   GL121865   5.835  42.360   8.855
 7086POPC   GL221866   6.041  42.356   8.855
 7086POPC   C1A21867   5.876  42.329   8.555
 7086POPC   D2A21868   5.862  42.303   8.255
 7086POPC   C3A21869   5.898  42.341   7.955
 7086POPC   C4A21870   5.897  42.347   7.655
 7086POPC   C1B21871   6.125  42.268   8.555
 7086POPC   C2B21872   6.136  42.300   8.255
 7086POPC   C3B21873   6.146  42.361   7.955
 7086POPC   C4B21874   6.101  42.294   7.655
 7087POPC   NC321875  15.978   2.800   9.455
 7087POPC   PO421876  15.916   2.722   9.155
 7087POPC   GL121877  15.935   2.796   8.855
 7087POPC   GL221878  15.869   2.696   8.855
 7087POPC   C1A21879  15.927   2.734   8.555
 7087POPC   D2A21880  15.979   2.784   8.255
 7087POPC   C3A21881  15.988   2.719   7.955
 7087POPC   C4A21882  15.980   2.723   7.655
 7087POPC   C1B21883  15.766   2.586   8.555
 7087POPC   C2B21884  15.762   2.579   8.255
 7087POPC   C3B21885  15.782   2.559   7.955
 7087POPC   C4B21886  15.731   2.604   7.655
 7088POPC   NC321887   1.230  19.103   9.455
 7088POPC   PO421888   1.227  19.084   9.155
 7088POPC   GL121889   1.233  19.085   8.855
 7088POPC   GL221890   1.383  19.056   8.855
 7088POPC   C1A21891   1.179  19.066   8.555
 7088POPC   D2A21892   1.203  19.031   8.255
 7088POPC   C3A21893   1.188  19.034   7.955
 7088POPC   C4A21894   1.193  19.079   7.655
 7088POPC   C1B21895   1.477  19.128   8.555
 7088POPC   C2B21896   1.456  19.130   8.255
 7088POPC   C3B21897   1.460  19.044   7.955
 7088POPC   C4B21898   1.443  19.046   7.655
 7089POPC   NC321899  26.025  42.382   9.455
 7089POPC   PO421900  26.047  42.306   9.155
 7089POPC   GL121901  26.044  42.339   8.855
 7089POPC   GL221902  26.025  42.417   8.855
 7089POPC   C1A21903  26.001  42.336   8.555
 7089POPC   D2A21904  26.081  42.287   8.255
 7089POPC   C3A21905  26.054  42.367   7.955
 7089POPC   C4A21906  26.010  42.359   7.655
 7089POPC   C1B21907  26.000  42.593   8.555
 7089POPC   C2B21908  25.983  42.548   8.255
 7089POPC   C3B21909  26.019  42.615   7.955
 7089POPC   C4B21910  25.988  42.604   7.655
 7090POPC   NC321911  33.778   5.840   9.455
 7090POPC   PO421912  33.765   5.836   9.155
 7090POPC   GL121913  33.789   5.851   8.855
 7090POPC   GL221914  33.893   5.893   8.855
 7090POPC   C1A21915  33.828   5.880   8.555
 7090POPC   D2A21916  33.828   5.859   8.255
 7090POPC   C3A21917  33.785   5.827   7.955
 7090POPC   C4A21918  33.754   5.912   7.655
 7090POPC   C1B21919  33.998   5.953   8.555
 7090POPC   C2B21920  34.049   5.980   8.255
 7090POPC   C3B21921  34.019   5.942   7.955
 7090POPC   C4B21922  34.073   5.963   7.655
 7091POPC   NC321923   5.893  41.597   9.455
 7091POPC   PO421924   5.849  41.597   9.155
 7091POPC   GL121925   5.889  41.590   8.855
 7091POPC   GL221926   5.994  41.646   8.855
 7091POPC   C1A21927   5.884  41.547   8.555
 7091POPC   D2A21928   5.876  41.581   8.255
 7091POPC   C3A21929   5.827  41.534   7.955
 7091POPC   C4A21930   5.879  41.545   7.655
 7091POPC   C1B21931   6.050  41.764   8.555
 7091POPC   C2B21932   6.004  41.751   8.255
 7091POPC   C3B21933   6.028  41.713   7.955
 7091POPC   C4B21934   5.986  41.773   7.655
 7092POPC   NC321935   0.407  23.708   9.455
 7092POPC   PO421936   0.461  23.697   9.155
 7092POPC   GL121937   0.442  23.726   8.855
 7092POPC   GL221938   0.334  23.806   8.855
 7092POPC   C1A21939   0.457  23.761   8.555
 7092POPC   D2A21940   0.465  23.712   8.255
 7092POPC   C3A21941   0.426  23.690   7.955
 7092POPC   C4A21942   0.440  23.710   7.655
 7092POPC   C1B21943   0.234  23.808   8.555
 7092POPC   C2B21944   0.212  23.833   8.255
 7092POPC   C3B21945   0.182  23.853   7.955
 7092POPC   C4B21946   0.251  23.826   7.655
 7093POPC   NC321947   4.312   5.915   9.455
 7093POPC   PO421948   4.353   5.844   9.155
 7093POPC   GL121949   4.297   5.848   8.855
 7093POPC   GL221950   4.401   5.890   8.855
 7093POPC   C1A21951   4.294   5.854   8.555
 7093POPC   D2A21952   4.330   5.918   8.255
 7093POPC   C3A21953   4.301   5.850   7.955
 7093POPC   C4A21954   4.362   5.865   7.655
 7093POPC   C1B21955   4.532   5.828   8.555
 7093POPC   C2B21956   4.601   5.859   8.255
 7093POPC   C3B21957   4.601   5.828   7.955
 7093POPC   C4B21958   4.554   5.788   7.655
 7094POPC   NC321959  30.733   7.387   9.455
 7094POPC   PO421960  30.697   7.381   9.155
 7094POPC   GL121961  30.727   7.462   8.855
 7094POPC   GL221962  30.724   7.281   8.855
 7094POPC   C1A21963  30.717   7.449   8.555
 7094POPC   D2A21964  30.741   7.389   8.255
 7094POPC   C3A21965  30.670   7.380   7.955
 7094POPC   C4A21966  30.711   7.457   7.655
 7094POPC   C1B21967  30.702   7.155   8.555
 7094POPC   C2B21968  30.694   7.122   8.255
 7094POPC   C3B21969  30.707   7.184   7.955
 7094POPC   C4B21970  30.752   7.193   7.655
 7095POPC   NC321971  31.448   8.172   9.455
 7095POPC   PO421972  31.432   8.227   9.155
 7095POPC   GL121973  31.461   8.186   8.855
 7095POPC   GL221974  31.406   8.211   8.855
 7095POPC   C1A21975  31.463   8.235   8.555
 7095POPC   D2A21976  31.520   8.209   8.255
 7095POPC   C3A21977  31.497   8.169   7.955
 7095POPC   C4A21978  31.458   8.223   7.655
 7095POPC   C1B21979  31.249   8.309   8.555
 7095POPC   C2B21980  31.220   8.309   8.255
 7095POPC   C3B21981  31.267   8.333   7.955
 7095POPC   C4B21982  31.234   8.336   7.655
 7096POPC   NC321983  30.743  39.181   9.455
 7096POPC   PO421984  30.687  39.238   9.155
 7096POPC   GL121985  30.732  39.280   8.855
 7096POPC   GL221986  30.825  39.209   8.855
 7096POPC   C1A21987  30.680  39.200   8.555
 7096POPC   D2A21988  30.648  39.280   8.255
 7096POPC   C3A21989  30.695  39.203   7.955
 7096POPC   C4A21990  30.740  39.206   7.655
 7096POPC   C1B21991  30.951  39.248   8.555
 7096POPC   C2B21992  30.927  39.248   8.255
 7096POPC   C3B21993  30.980  39.275   7.955
 7096POPC   C4B21994  30.898  39.250   7.655
 7097POPC   NC321995  42.314  25.278   9.455
 7097POPC   PO421996  42.322  25.265   9.155
 7097POPC   GL121997  42.287  25.252   8.855
 7097POPC   GL221998  42.318  25.155   8.855
 7097POPC   C1A21999  42.294  25.223   8.555
 7097POPC   D2A22000  42.353  25.267   8.255
 7097POPC   C3A22001  42.289  25.227   7.955
 7097POPC   C4A22002  42.379  25.315   7.655
 7097POPC   C1B22003  42.284  25.054   8.555
 7097POPC   C2B22004  42.323  24.985   8.255
 7097POPC   C3B22005  42.292  25.020   7.955
 7097POPC   C4B22006  42.369  25.004   7.655
 7098POPC   NC322007  29.938   3.553   9.455
 7098POPC   PO422008  29.917   3.555   9.155
 7098POPC   GL122009  29.879   3.572   8.855
 7098POPC   GL222010  29.761   3.532   8.855
 7098POPC   C1A22011  29.936   3.536   8.555
 7098POPC   D2A22012  29.903   3.502   8.255
 7098POPC   C3A22013  29.881   3.590   7.955
 7098POPC   C4A22014  29.887   3.556   7.655
 7098POPC   C1B22015  29.694   3.658   8.555
 7098POPC   C2B22016  29.666   3.664   8.255
 7098POPC   C3B22017  29.702   3.590   7.955
 7098POPC   C4B22018  29.685   3.635   7.655
 7099POPC   NC322019   4.342  33.811   9.455
 7099POPC   PO422020   4.326  33.780   9.155
 7099POPC   GL122021   4.322  33.811   8.855
 7099POPC   GL222022   4.458  33.768   8.855
 7099POPC   C1A22023   4.340  33.774   8.555
 7099POPC   D2A22024   4.271  33.775   8.255
 7099POPC   C3A22025   4.296  33.796   7.955
 7099POPC   C4A22026   4.354  33.801   7.655
 7099POPC   C1B22027   4.519  33.741   8.555
 7099POPC   C2B22028   4.511  33.708   8.255
 7099POPC   C3B22029   4.513  33.713   7.955
 7099POPC   C4B22030   4.601  33.737   7.655
 7100POPC   NC322031  14.447   8.212   9.455
 7100POPC   PO422032  14.391   8.243   9.155
 7100POPC   GL122033  14.395   8.196   8.855
 7100POPC   GL222034  14.470   8.146   8.855
 7100POPC   C1A22035  14.427   8.167   8.555
 7100POPC   D2A22036  14.407   8.241   8.255
 7100POPC   C3A22037  14.378   8.243   7.955
 7100POPC   C4A22038  14.362   8.215   7.655
 7100POPC   C1B22039  14.668   8.055   8.555
 7100POPC   C2B22040  14.656   8.143   8.255
 7100POPC   C3B22041  14.659   8.121   7.955
 7100POPC   C4B22042  14.632   8.140   7.655
 7101POPC   NC322043  12.897  24.487   9.455
 7101POPC   PO422044  12.835  24.499   9.155
 7101POPC   GL122045  12.863  24.516   8.855
 7101POPC   GL222046  12.749  24.530   8.855
 7101POPC   C1A22047  12.848  24.520   8.555
 7101POPC   D2A22048  12.859  24.513   8.255
 7101POPC   C3A22049  12.842  24.468   7.955
 7101POPC   C4A22050  12.862  24.449   7.655
 7101POPC   C1B22051  12.640  24.566   8.555
 7101POPC   C2B22052  12.612  24.502   8.255
 7101POPC   C3B22053  12.637  24.560   7.955
 7101POPC   C4B22054  12.595  24.493   7.655
 7102POPC   NC322055  37.666  19.818   9.455
 7102POPC   PO422056  37.724  19.884   9.155
 7102POPC   GL122057  37.701  19.873   8.855
 7102POPC   GL222058  37.799  19.825   8.855
 7102POPC   C1A22059  37.634  19.884   8.555
 7102POPC   D2A22060  37.629  19.787   8.255
 7102POPC   C3A22061  37.727  19.836   7.955
 7102POPC   C4A22062  37.724  19.827   7.655
 7102POPC   C1B22063  37.921  19.911   8.555
 7102POPC   C2B22064  37.899  19.907   8.255
 7102POPC   C3B22065  37.935  19.926   7.955
 7102POPC   C4B22066  37.964  19.871   7.655
 7103POPC   NC322067  29.102  23.709   9.455
 7103POPC   PO422068  29.144  23.705   9.155
 7103POPC   GL122069  29.169  23.732   8.855
 7103POPC   GL222070  29.142  23.579   8.855
 7103POPC   C1A22071  29.151  23.707   8.555
 7103POPC   D2A22072  29.151  23.762   8.255
 7103POPC   C3A22073  29.180  23.737   7.955
 7103POPC   C4A22074  29.184  23.706   7.655
 7103POPC   C1B22075  29.113  23.497   8.555
 7103POPC   C2B22076  29.042  23.451   8.255
 7103POPC   C3B22077  29.075  23.503   7.955
 7103POPC   C4B22078  29.041  23.463   7.655
 7104POPC   NC322079   3.538  10.559   9.455
 7104POPC   PO422080   3.502  10.557   9.155
 7104POPC   GL122081   3.579  10.541   8.855
 7104POPC   GL222082   3.549  10.654   8.855
 7104POPC   C1A22083   3.565  10.573   8.555
 7104POPC   D2A22084   3.539  10.514   8.255
 7104POPC   C3A22085   3.537  10.511   7.955
 7104POPC   C4A22086   3.513  10.560   7.655
 7104POPC   C1B22087   3.507  10.769   8.555
 7104POPC   C2B22088   3.415  10.794   8.255
 7104POPC   C3B22089   3.488  10.727   7.955
 7104POPC   C4B22090   3.465  10.766   7.655
 7105POPC   NC322091   1.952  10.530   9.455
 7105POPC   PO422092   2.025  10.514   9.155
 7105POPC   GL122093   2.020  10.569   8.855
 7105POPC   GL222094   2.050  10.598   8.855
 7105POPC   C1A22095   2.019  10.518   8.555
 7105POPC   D2A22096   1.972  10.508   8.255
 7105POPC   C3A22097   2.030  10.518   7.955
 7105POPC   C4A22098   1.973  10.481   7.655
 7105POPC   C1B22099   2.055  10.803   8.555
 7105POPC   C2B22100   2.090  10.739   8.255
 7105POPC   C3B22101   2.106  10.759   7.955
 7105POPC   C4B22102   2.104  10.793   7.655
 7106POPC   NC322103   5.079  15.196   9.455
 7106POPC   PO422104   5.082  15.138   9.155
 7106POPC   GL122105   5.100  15.160   8.855
 7106POPC   GL222106   5.172  15.102   8.855
 7106POPC   C1A22107   5.094  15.137   8.555
 7106POPC   D2A22108   5.091  15.131   8.255
 7106POPC   C3A22109   5.101  15.187   7.955
 7106POPC   C4A22110   5.134  15.193   7.655
 7106POPC   C1B22111   5.210  14.970   8.555
 7106POPC   C2B22112   5.218  14.934   8.255
 7106POPC   C3B22113   5.250  14.964   7.955
 7106POPC   C4B22114   5.178  14.929   7.655
 7107POPC   NC322115  42.366  26.845   9.455
 7107POPC   PO422116  42.339  26.856   9.155
 7107POPC   GL122117  42.357  26.790   8.855
 7107POPC   GL222118  42.287  26.779   8.855
 7107POPC   C1A22119  42.323  26.813   8.555
 7107POPC   D2A22120  42.306  26.775   8.255
 7107POPC   C3A22121  42.376  26.791   7.955
 7107POPC   C4A22122  42.327  26.810   7.655
 7107POPC   C1B22123  42.144  26.655   8.555
 7107POPC   C2B22124  42.116  26.694   8.255
 7107POPC   C3B22125  42.150  26.606   7.955
 7107POPC   C4B22126  42.134  26.668   7.655
 7108POPC   NC322127  26.012  16.721   9.455
 7108POPC   PO422128  25.994  16.736   9.155
 7108POPC   GL122129  26.026  16.745   8.855
 7108POPC   GL222130  25.913  16.829   8.855
 7108POPC   C1A22131  26.021  16.741   8.555
 7108POPC   D2A22132  26.015  16.693   8.255
 7108POPC   C3A22133  26.024  16.769   7.955
 7108POPC   C4A22134  26.037  16.719   7.655
 7108POPC   C1B22135  25.885  16.879   8.555
 7108POPC   C2B22136  25.908  16.940   8.255
 7108POPC   C3B22137  25.826  16.942   7.955
 7108POPC   C4B22138  25.917  16.881   7.655
 7109POPC   NC322139  35.302  13.658   9.455
 7109POPC   PO422140  35.303  13.593   9.155
 7109POPC   GL122141  35.316  13.677   8.855
 7109POPC   GL222142  35.506  13.686   8.855
 7109POPC   C1A22143  35.340  13.671   8.555
 7109POPC   D2A22144  35.319  13.643   8.255
 7109POPC   C3A22145  35.368  13.615   7.955
 7109POPC   C4A22146  35.352  13.605   7.655
 7109POPC   C1B22147  35.609  13.803   8.555
 7109POPC   C2B22148  35.591  13.772   8.255
 7109POPC   C3B22149  35.544  13.788   7.955
 7109POPC   C4B22150  35.559  13.763   7.655
 7110POPC   NC322151  36.133   2.798   9.455
 7110POPC   PO422152  36.086   2.754   9.155
 7110POPC   GL122153  36.151   2.779   8.855
 7110POPC   GL222154  35.991   2.654   8.855
 7110POPC   C1A22155  36.124   2.732   8.555
 7110POPC   D2A22156  36.119   2.798   8.255
 7110POPC   C3A22157  36.136   2.791   7.955
 7110POPC   C4A22158  36.149   2.762   7.655
 7110POPC   C1B22159  35.888   2.641   8.555
 7110POPC   C2B22160  35.949   2.605   8.255
 7110POPC   C3B22161  35.864   2.675   7.955
 7110POPC   C4B22162  35.893   2.594   7.655
 7111POPC   NC322163  35.366  15.220   9.455
 7111POPC   PO422164  35.303  15.194   9.155
 7111POPC   GL122165  35.364  15.216   8.855
 7111POPC   GL222166  35.296  15.089   8.855
 7111POPC   C1A22167  35.341  15.189   8.555
 7111POPC   D2A22168  35.342  15.133   8.255
 7111POPC   C3A22169  35.355  15.224   7.955
 7111POPC   C4A22170  35.362  15.134   7.655
 7111POPC   C1B22171  35.140  15.020   8.555
 7111POPC   C2B22172  35.112  15.013   8.255
 7111POPC   C3B22173  35.197  14.979   7.955
 7111POPC   C4B22174  35.128  14.997   7.655
 7112POPC   NC322175   5.907  15.989   9.455
 7112POPC   PO422176   5.870  15.998   9.155
 7112POPC   GL122177   5.893  15.949   8.855
 7112POPC   GL222178   5.816  16.041   8.855
 7112POPC   C1A22179   5.835  15.906   8.555
 7112POPC   D2A22180   5.830  15.960   8.255
 7112POPC   C3A22181   5.914  15.998   7.955
 7112POPC   C4A22182   5.872  16.003   7.655
 7112POPC   C1B22183   5.684  16.193   8.555
 7112POPC   C2B22184   5.761  16.185   8.255
 7112POPC   C3B22185   5.688  16.154   7.955
 7112POPC   C4B22186   5.780  16.189   7.655
 7113POPC   NC322187  22.170   0.388   9.455
 7113POPC   PO422188  22.114   0.429   9.155
 7113POPC   GL122189  22.141   0.481   8.855
 7113POPC   GL222190  22.156   0.292   8.855
 7113POPC   C1A22191  22.176   0.478   8.555
 7113POPC   D2A22192  22.152   0.468   8.255
 7113POPC   C3A22193  22.210   0.480   7.955
 7113POPC   C4A22194  22.149   0.425   7.655
 7113POPC   C1B22195  22.096   0.206   8.555
 7113POPC   C2B22196  22.110   0.230   8.255
 7113POPC   C3B22197  22.060   0.210   7.955
 7113POPC   C4B22198  22.125   0.159   7.655
 7114POPC   NC322199  24.487  33.070   9.455
 7114POPC   PO422200  24.465  33.047   9.155
 7114POPC   GL122201  24.489  33.037   8.855
 7114POPC   GL222202  24.553  33.092   8.855
 7114POPC   C1A22203  24.523  33.060   8.555
 7114POPC   D2A22204  24.480  33.026   8.255
 7114POPC   C3A22205  24.535  32.996   7.955
 7114POPC   C4A22206  24.510  33.055   7.655
 7114POPC   C1B22207  24.753  33.112   8.555
 7114POPC   C2B22208  24.668  33.136   8.255
 7114POPC   C3B22209  24.748  33.176   7.955
 7114POPC   C4B22210  24.679  33.163   7.655
 7115POPC   NC322211  29.168  19.829   9.455
 7115POPC   PO422212  29.171  19.809   9.155
 7115POPC   GL122213  29.188  19.825   8.855
 7115POPC   GL222214  29.120  20.005   8.855
 7115POPC   C1A22215  29.142  19.841   8.555
 7115POPC   D2A22216  29.164  19.818   8.255
 7115POPC   C3A22217  29.124  19.808   7.955
 7115POPC   C4A22218  29.185  19.876   7.655
 7115POPC   C1B22219  29.166  20.039   8.555
 7115POPC   C2B22220  29.227  20.048   8.255
 7115POPC   C3B22221  29.221  20.056   7.955
 7115POPC   C4B22222  29.213  20.126   7.655
 7116POPC   NC322223  26.812   2.012   9.455
 7116POPC   PO422224  26.770   1.990   9.155
 7116POPC   GL122225  26.771   2.002   8.855
 7116POPC   GL222226  26.747   1.873   8.855
 7116POPC   C1A22227  26.811   1.947   8.555
 7116POPC   D2A22228  26.809   2.001   8.255
 7116POPC   C3A22229  26.860   2.000   7.955
 7116POPC   C4A22230  26.816   1.989   7.655
 7116POPC   C1B22231  26.747   1.756   8.555
 7116POPC   C2B22232  26.773   1.742   8.255
 7116POPC   C3B22233  26.728   1.697   7.955
 7116POPC   C4B22234  26.731   1.777   7.655
 7117POPC   NC322235  33.751  26.082   9.455
 7117POPC   PO422236  33.793  26.043   9.155
 7117POPC   GL122237  33.820  26.081   8.855
 7117POPC   GL222238  33.916  25.992   8.855
 7117POPC   C1A22239  33.770  26.053   8.555
 7117POPC   D2A22240  33.831  26.015   8.255
 7117POPC   C3A22241  33.779  25.998   7.955
 7117POPC   C4A22242  33.838  25.991   7.655
 7117POPC   C1B22243  33.988  25.973   8.555
 7117POPC   C2B22244  34.011  25.915   8.255
 7117POPC   C3B22245  34.048  25.979   7.955
 7117POPC   C4B22246  33.989  25.913   7.655
 7118POPC   NC322247  29.911   4.288   9.455
 7118POPC   PO422248  29.885   4.328   9.155
 7118POPC   GL122249  29.918   4.292   8.855
 7118POPC   GL222250  29.804   4.349   8.855
 7118POPC   C1A22251  29.954   4.310   8.555
 7118POPC   D2A22252  29.939   4.271   8.255
 7118POPC   C3A22253  29.886   4.307   7.955
 7118POPC   C4A22254  29.902   4.367   7.655
 7118POPC   C1B22255  29.684   4.404   8.555
 7118POPC   C2B22256  29.749   4.414   8.255
 7118POPC   C3B22257  29.741   4.472   7.955
 7118POPC   C4B22258  29.727   4.445   7.655
 7119POPC   NC322259   9.711   7.378   9.455
 7119POPC   PO422260   9.702   7.462   9.155
 7119POPC   GL122261   9.782   7.420   8.855
 7119POPC   GL222262   9.604   7.434   8.855
 7119POPC   C1A22263   9.792   7.386   8.555
 7119POPC   D2A22264   9.769   7.405   8.255
 7119POPC   C3A22265   9.739   7.382   7.955
 7119POPC   C4A22266   9.712   7.381   7.655
 7119POPC   C1B22267   9.548   7.449   8.555
 7119POPC   C2B22268   9.527   7.452   8.255
 7119POPC   C3B22269   9.459   7.391   7.955
 7119POPC   C4B22270   9.492   7.418   7.655
 7120POPC   NC322271  22.203  39.237   9.455
 7120POPC   PO422272  22.138  39.260   9.155
 7120POPC   GL122273  22.195  39.273   8.855
 7120POPC   GL222274  21.991  39.201   8.855
 7120POPC   C1A22275  22.165  39.254   8.555
 7120POPC   D2A22276  22.172  39.194   8.255
 7120POPC   C3A22277  22.137  39.238   7.955
 7120POPC   C4A22278  22.150  39.279   7.655
 7120POPC   C1B22279  21.876  39.169   8.555
 7120POPC   C2B22280  21.868  39.260   8.255
 7120POPC   C3B22281  21.872  39.205   7.955
 7120POPC   C4B22282  21.884  39.256   7.655
 7121POPC   NC322283  38.498  28.384   9.455
 7121POPC   PO422284  38.453  28.407   9.155
 7121POPC   GL122285  38.502  28.379   8.855
 7121POPC   GL222286  38.361  28.395   8.855
 7121POPC   C1A22287  38.492  28.348   8.555
 7121POPC   D2A22288  38.474  28.407   8.255
 7121POPC   C3A22289  38.500  28.385   7.955
 7121POPC   C4A22290  38.490  28.396   7.655
 7121POPC   C1B22291  38.207  28.443   8.555
 7121POPC   C2B22292  38.251  28.399   8.255
 7121POPC   C3B22293  38.250  28.445   7.955
 7121POPC   C4B22294  38.213  28.440   7.655
 7122POPC   NC322295  19.804  35.384   9.455
 7122POPC   PO422296  19.807  35.315   9.155
 7122POPC   GL122297  19.829  35.388   8.855
 7122POPC   GL222298  19.894  35.453   8.855
 7122POPC   C1A22299  19.840  35.363   8.555
 7122POPC   D2A22300  19.872  35.341   8.255
 7122POPC   C3A22301  19.830  35.350   7.955
 7122POPC   C4A22302  19.817  35.323   7.655
 7122POPC   C1B22303  20.037  35.541   8.555
 7122POPC   C2B22304  20.047  35.517   8.255
 7122POPC   C3B22305  20.052  35.495   7.955
 7122POPC   C4B22306  20.050  35.489   7.655
 7123POPC   NC322307  26.825  20.590   9.455
 7123POPC   PO422308  26.817  20.614   9.155
 7123POPC   GL122309  26.817  20.627   8.855
 7123POPC   GL222310  26.795  20.541   8.855
 7123POPC   C1A22311  26.781  20.655   8.555
 7123POPC   D2A22312  26.863  20.609   8.255
 7123POPC   C3A22313  26.773  20.602   7.955
 7123POPC   C4A22314  26.787  20.619   7.655
 7123POPC   C1B22315  26.679  20.381   8.555
 7123POPC   C2B22316  26.741  20.389   8.255
 7123POPC   C3B22317  26.704  20.428   7.955
 7123POPC   C4B22318  26.674  20.343   7.655
 7124POPC   NC322319   1.974  15.924   9.455
 7124POPC   PO422320   1.973  15.923   9.155
 7124POPC   GL122321   2.008  15.931   8.855
 7124POPC   GL222322   1.856  15.889   8.855
 7124POPC   C1A22323   1.957  16.003   8.555
 7124POPC   D2A22324   2.021  15.923   8.255
 7124POPC   C3A22325   2.009  15.930   7.955
 7124POPC   C4A22326   2.007  15.960   7.655
 7124POPC   C1B22327   1.766  15.810   8.555
 7124POPC   C2B22328   1.787  15.757   8.255
 7124POPC   C3B22329   1.762  15.823   7.955
 7124POPC   C4B22330   1.747  15.769   7.655
 7125POPC   NC322331   3.559  34.568   9.455
 7125POPC   PO422332   3.571  34.600   9.155
 7125POPC   GL122333   3.533  34.533   8.855
 7125POPC   GL222334   3.532  34.482   8.855
 7125POPC   C1A22335   3.579  34.581   8.555
 7125POPC   D2A22336   3.562  34.622   8.255
 7125POPC   C3A22337   3.553  34.615   7.955
 7125POPC   C4A22338   3.527  34.587   7.655
 7125POPC   C1B22339   3.567  34.290   8.555
 7125POPC   C2B22340   3.574  34.325   8.255
 7125POPC   C3B22341   3.579  34.377   7.955
 7125POPC   C4B22342   3.551  34.335   7.655
 7126POPC   NC322343  30.724  32.199   9.455
 7126POPC   PO422344  30.654  32.260   9.155
 7126POPC   GL122345  30.684  32.209   8.855
 7126POPC   GL222346  30.791  32.119   8.855
 7126POPC   C1A22347  30.652  32.212   8.555
 7126POPC   D2A22348  30.718  32.285   8.255
 7126POPC   C3A22349  30.684  32.258   7.955
 7126POPC   C4A22350  30.659  32.293   7.655
 7126POPC   C1B22351  30.762  32.066   8.555
 7126POPC   C2B22352  30.827  32.050   8.255
 7126POPC   C3B22353  30.838  32.010   7.955
 7126POPC   C4B22354  30.775  32.035   7.655
 7127POPC   NC322355  19.056  31.458   9.455
 7127POPC   PO422356  19.078  31.461   9.155
 7127POPC   GL122357  19.047  31.474   8.855
 7127POPC   GL222358  19.092  31.603   8.855
 7127POPC   C1A22359  19.076  31.481   8.555
 7127POPC   D2A22360  19.070  31.446   8.255
 7127POPC   C3A22361  19.067  31.447   7.955
 7127POPC   C4A22362  19.014  31.487   7.655
 7127POPC   C1B22363  19.072  31.723   8.555
 7127POPC   C2B22364  19.116  31.678   8.255
 7127POPC   C3B22365  19.075  31.703   7.955
 7127POPC   C4B22366  19.101  31.710   7.655
 7128POPC   NC322367  26.807   0.423   9.455
 7128POPC   PO422368  26.857   0.400   9.155
 7128POPC   GL122369  26.846   0.435   8.855
 7128POPC   GL222370  26.869   0.321   8.855
 7128POPC   C1A22371  26.841   0.389   8.555
 7128POPC   D2A22372  26.810   0.429   8.255
 7128POPC   C3A22373  26.804   0.476   7.955
 7128POPC   C4A22374  26.843   0.420   7.655
 7128POPC   C1B22375  26.878   0.214   8.555
 7128POPC   C2B22376  26.904   0.206   8.255
 7128POPC   C3B22377  26.886   0.233   7.955
 7128POPC   C4B22378  26.887   0.229   7.655
 7129POPC   NC322379  21.413  26.800   9.455
 7129POPC   PO422380  21.426  26.859   9.155
 7129POPC   GL122381  21.376  26.808   8.855
 7129POPC   GL222382  21.459  26.745   8.855
 7129POPC   C1A22383  21.417  26.861   8.555
 7129POPC   D2A22384  21.357  26.771   8.255
 7129POPC   C3A22385  21.354  26.856   7.955
 7129POPC   C4A22386  21.413  26.791   7.655
 7129POPC   C1B22387  21.618  26.734   8.555
 7129POPC   C2B22388  21.603  26.759   8.255
 7129POPC   C3B22389  21.624  26.745   7.955
 7129POPC   C4B22390  21.651  26.683   7.655
 7130POPC   NC322391   4.286  40.776   9.455
 7130POPC   PO422392   4.280  40.816   9.155
 7130POPC   GL122393   4.361  40.752   8.855
 7130POPC   GL222394   4.426  40.717   8.855
 7130POPC   C1A22395   4.339  40.742   8.555
 7130POPC   D2A22396   4.271  40.781   8.255
 7130POPC   C3A22397   4.363  40.797   7.955
 7130POPC   C4A22398   4.269  40.757   7.655
 7130POPC   C1B22399   4.479  40.598   8.555
 7130POPC   C2B22400   4.534  40.594   8.255
 7130POPC   C3B22401   4.526  40.629   7.955
 7130POPC   C4B22402   4.556  40.641   7.655
 7131POPC   NC322403  29.182  19.010   9.455
 7131POPC   PO422404  29.169  19.023   9.155
 7131POPC   GL122405  29.099  19.077   8.855
 7131POPC   GL222406  29.125  19.226   8.855
 7131POPC   C1A22407  29.118  19.058   8.555
 7131POPC   D2A22408  29.102  19.034   8.255
 7131POPC   C3A22409  29.169  19.012   7.955
 7131POPC   C4A22410  29.175  19.089   7.655
 7131POPC   C1B22411  29.154  19.287   8.555
 7131POPC   C2B22412  29.137  19.331   8.255
 7131POPC   C3B22413  29.119  19.304   7.955
 7131POPC   C4B22414  29.153  19.303   7.655
 7132POPC   NC322415  36.166   5.893   9.455
 7132POPC   PO422416  36.097   5.882   9.155
 7132POPC   GL122417  36.152   5.826   8.855
 7132POPC   GL222418  36.233   5.884   8.855
 7132POPC   C1A22419  36.141   5.833   8.555
 7132POPC   D2A22420  36.135   5.824   8.255
 7132POPC   C3A22421  36.134   5.898   7.955
 7132POPC   C4A22422  36.088   5.825   7.655
 7132POPC   C1B22423  36.351   5.799   8.555
 7132POPC   C2B22424  36.345   5.793   8.255
 7132POPC   C3B22425  36.343   5.847   7.955
 7132POPC   C4B22426  36.333   5.811   7.655
 7133POPC   NC322427  29.935  30.696   9.455
 7133POPC   PO422428  29.932  30.677   9.155
 7133POPC   GL122429  29.957  30.738   8.855
 7133POPC   GL222430  29.857  30.560   8.855
 7133POPC   C1A22431  29.900  30.693   8.555
 7133POPC   D2A22432  29.952  30.690   8.255
 7133POPC   C3A22433  29.943  30.743   7.955
 7133POPC   C4A22434  29.912  30.744   7.655
 7133POPC   C1B22435  29.844  30.483   8.555
 7133POPC   C2B22436  29.833  30.431   8.255
 7133POPC   C3B22437  29.822  30.429   7.955
 7133POPC   C4B22438  29.809  30.491   7.655
 7134POPC   NC322439  25.270   3.519   9.455
 7134POPC   PO422440  25.229   3.578   9.155
 7134POPC   GL122441  25.302   3.536   8.855
 7134POPC   GL222442  25.096   3.579   8.855
 7134POPC   C1A22443  25.286   3.574   8.555
 7134POPC   D2A22444  25.288   3.534   8.255
 7134POPC   C3A22445  25.260   3.578   7.955
 7134POPC   C4A22446  25.226   3.577   7.655
 7134POPC   C1B22447  25.050   3.580   8.555
 7134POPC   C2B22448  25.058   3.539   8.255
 7134POPC   C3B22449  25.026   3.600   7.955
 7134POPC   C4B22450  25.008   3.569   7.655
 7135POPC   NC322451  23.723  23.704   9.455
 7135POPC   PO422452  23.736  23.665   9.155
 7135POPC   GL122453  23.712  23.709   8.855
 7135POPC   GL222454  23.701  23.835   8.855
 7135POPC   C1A22455  23.731  23.748   8.555
 7135POPC   D2A22456  23.664  23.737   8.255
 7135POPC   C3A22457  23.760  23.695   7.955
 7135POPC   C4A22458  23.678  23.732   7.655
 7135POPC   C1B22459  23.681  23.973   8.555
 7135POPC   C2B22460  23.719  23.994   8.255
 7135POPC   C3B22461  23.725  23.927   7.955
 7135POPC   C4B22462  23.750  24.013   7.655
 7136POPC   NC322463  40.775   8.212   9.455
 7136POPC   PO422464  40.829   8.197   9.155
 7136POPC   GL122465  40.789   8.171   8.855
 7136POPC   GL222466  40.857   8.226   8.855
 7136POPC   C1A22467  40.739   8.185   8.555
 7136POPC   D2A22468  40.756   8.195   8.255
 7136POPC   C3A22469  40.811   8.231   7.955
 7136POPC   C4A22470  40.779   8.165   7.655
 7136POPC   C1B22471  41.076   8.286   8.555
 7136POPC   C2B22472  41.044   8.257   8.255
 7136POPC   C3B22473  41.066   8.288   7.955
 7136POPC   C4B22474  41.031   8.217   7.655
 7137POPC   NC322475  36.931  19.081   9.455
 7137POPC   PO422476  36.939  19.025   9.155
 7137POPC   GL122477  36.869  19.009   8.855
 7137POPC   GL222478  36.737  19.067   8.855
 7137POPC   C1A22479  36.900  19.085   8.555
 7137POPC   D2A22480  36.930  19.059   8.255
 7137POPC   C3A22481  36.935  19.075   7.955
 7137POPC   C4A22482  36.935  19.041   7.655
 7137POPC   C1B22483  36.691  19.068   8.555
 7137POPC   C2B22484  36.664  19.083   8.255
 7137POPC   C3B22485  36.605  19.097   7.955
 7137POPC   C4B22486  36.666  19.072   7.655
 7138POPC   NC322487   5.826  26.810   9.455
 7138POPC   PO422488   5.841  26.817   9.155
 7138POPC   GL122489   5.876  26.864   8.855
 7138POPC   GL222490   5.908  26.894   8.855
 7138POPC   C1A22491   5.844  26.784   8.555
 7138POPC   D2A22492   5.837  26.822   8.255
 7138POPC   C3A22493   5.829  26.848   7.955
 7138POPC   C4A22494   5.914  26.845   7.655
 7138POPC   C1B22495   6.028  27.045   8.555
 7138POPC   C2B22496   6.014  26.990   8.255
 7138POPC   C3B22497   5.958  27.042   7.955
 7138POPC   C4B22498   5.982  27.008   7.655
 7139POPC   NC322499  37.630  25.267   9.455
 7139POPC   PO422500  37.683  25.252   9.155
 7139POPC   GL122501  37.694  25.232   8.855
 7139POPC   GL222502  37.657  25.141   8.855
 7139POPC   C1A22503  37.680  25.247   8.555
 7139POPC   D2A22504  37.697  25.256   8.255
 7139POPC   C3A22505  37.718  25.219   7.955
 7139POPC   C4A22506  37.653  25.283   7.655
 7139POPC   C1B22507  37.509  25.094   8.555
 7139POPC   C2B22508  37.505  25.028   8.255
 7139POPC   C3B22509  37.590  25.027   7.955
 7139POPC   C4B22510  37.532  25.039   7.655
 7140POPC   NC322511   8.223  12.085   9.455
 7140POPC   PO422512   8.208  12.065   9.155
 7140POPC   GL122513   8.176  12.095   8.855
 7140POPC   GL222514   8.296  12.168   8.855
 7140POPC   C1A22515   8.210  12.060   8.555
 7140POPC   D2A22516   8.165  12.119   8.255
 7140POPC   C3A22517   8.188  12.094   7.955
 7140POPC   C4A22518   8.169  12.054   7.655
 7140POPC   C1B22519   8.343  12.307   8.555
 7140POPC   C2B22520   8.363  12.227   8.255
 7140POPC   C3B22521   8.373  12.216   7.955
 7140POPC   C4B22522   8.324  12.269   7.655
 7141POPC   NC322523  27.552  20.578   9.455
 7141POPC   PO422524  27.567  20.642   9.155
 7141POPC   GL122525  27.581  20.604   8.855
 7141POPC   GL222526  27.685  20.636   8.855
 7141POPC   C1A22527  27.596  20.635   8.555
 7141POPC   D2A22528  27.549  20.583   8.255
 7141POPC   C3A22529  27.628  20.645   7.955
 7141POPC   C4A22530  27.553  20.572   7.655
 7141POPC   C1B22531  27.811  20.684   8.555
 7141POPC   C2B22532  27.853  20.698   8.255
 7141POPC   C3B22533  27.850  20.713   7.955
 7141POPC   C4B22534  27.815  20.688   7.655
 7142POPC   NC322535  26.833  15.937   9.455
 7142POPC   PO422536  26.806  15.912   9.155
 7142POPC   GL122537  26.850  15.988   8.855
 7142POPC   GL222538  26.718  16.030   8.855
 7142POPC   C1A22539  26.854  15.989   8.555
 7142POPC   D2A22540  26.826  15.934   8.255
 7142POPC   C3A22541  26.840  15.936   7.955
 7142POPC   C4A22542  26.815  15.937   7.655
 7142POPC   C1B22543  26.619  16.010   8.555
 7142POPC   C2B22544  26.557  16.012   8.255
 7142POPC   C3B22545  26.549  16.061   7.955
 7142POPC   C4B22546  26.550  16.049   7.655
 7143POPC   NC322547  25.997   0.460   9.455
 7143POPC   PO422548  26.026   0.470   9.155
 7143POPC   GL122549  26.078   0.441   8.855
 7143POPC   GL222550  25.933   0.330   8.855
 7143POPC   C1A22551  25.999   0.482   8.555
 7143POPC   D2A22552  26.040   0.422   8.255
 7143POPC   C3A22553  25.992   0.426   7.955
 7143POPC   C4A22554  26.040   0.464   7.655
 7143POPC   C1B22555  25.811   0.244   8.555
 7143POPC   C2B22556  25.812   0.311   8.255
 7143POPC   C3B22557  25.870   0.254   7.955
 7143POPC   C4B22558  25.822   0.323   7.655
 7144POPC   NC322559  32.292  27.583   9.455
 7144POPC   PO422560  32.279  27.591   9.155
 7144POPC   GL122561  32.252  27.599   8.855
 7144POPC   GL222562  32.166  27.513   8.855
 7144POPC   C1A22563  32.261  27.587   8.555
 7144POPC   D2A22564  32.258  27.547   8.255
 7144POPC   C3A22565  32.206  27.553   7.955
 7144POPC   C4A22566  32.232  27.548   7.655
 7144POPC   C1B22567  32.164  27.332   8.555
 7144POPC   C2B22568  32.120  27.384   8.255
 7144POPC   C3B22569  32.177  27.378   7.955
 7144POPC   C4B22570  32.116  27.326   7.655
 7145POPC   NC322571  15.138  36.083   9.455
 7145POPC   PO422572  15.200  36.128   9.155
 7145POPC   GL122573  15.211  36.154   8.855
 7145POPC   GL222574  15.334  36.135   8.855
 7145POPC   C1A22575  15.191  36.101   8.555
 7145POPC   D2A22576  15.193  36.149   8.255
 7145POPC   C3A22577  15.162  36.132   7.955
 7145POPC   C4A22578  15.189  36.107   7.655
 7145POPC   C1B22579  15.383  36.233   8.555
 7145POPC   C2B22580  15.399  36.233   8.255
 7145POPC   C3B22581  15.388  36.243   7.955
 7145POPC   C4B22582  15.443  36.166   7.655
 7146POPC   NC322583  30.700   9.005   9.455
 7146POPC   PO422584  30.694   8.992   9.155
 7146POPC   GL122585  30.659   8.955   8.855
 7146POPC   GL222586  30.710   8.887   8.855
 7146POPC   C1A22587  30.714   8.937   8.555
 7146POPC   D2A22588  30.734   8.950   8.255
 7146POPC   C3A22589  30.683   8.987   7.955
 7146POPC   C4A22590  30.701   8.995   7.655
 7146POPC   C1B22591  30.763   8.744   8.555
 7146POPC   C2B22592  30.772   8.707   8.255
 7146POPC   C3B22593  30.721   8.681   7.955
 7146POPC   C4B22594  30.727   8.774   7.655
 7147POPC   NC322595  16.760  33.812   9.455
 7147POPC   PO422596  16.753  33.781   9.155
 7147POPC   GL122597  16.711  33.849   8.855
 7147POPC   GL222598  16.773  33.742   8.855
 7147POPC   C1A22599  16.762  33.807   8.555
 7147POPC   D2A22600  16.715  33.810   8.255
 7147POPC   C3A22601  16.758  33.832   7.955
 7147POPC   C4A22602  16.738  33.792   7.655
 7147POPC   C1B22603  16.841  33.578   8.555
 7147POPC   C2B22604  16.907  33.597   8.255
 7147POPC   C3B22605  16.918  33.627   7.955
 7147POPC   C4B22606  16.879  33.593   7.655
 7148POPC   NC322607  26.851   5.140   9.455
 7148POPC   PO422608  26.853   5.088   9.155
 7148POPC   GL122609  26.837   5.074   8.855
 7148POPC   GL222610  26.881   5.180   8.855
 7148POPC   C1A22611  26.835   5.109   8.555
 7148POPC   D2A22612  26.792   5.060   8.255
 7148POPC   C3A22613  26.781   5.116   7.955
 7148POPC   C4A22614  26.841   5.108   7.655
 7148POPC   C1B22615  27.042   5.269   8.555
 7148POPC   C2B22616  26.981   5.220   8.255
 7148POPC   C3B22617  26.983   5.276   7.955
 7148POPC   C4B22618  26.994   5.261   7.655
 7149POPC   NC322619   1.186  11.337   9.455
 7149POPC   PO422620   1.246  11.295   9.155
 7149POPC   GL122621   1.248  11.312   8.855
 7149POPC   GL222622   1.143  11.240   8.855
 7149POPC   C1A22623   1.165  11.277   8.555
 7149POPC   D2A22624   1.215  11.343   8.255
 7149POPC   C3A22625   1.247  11.339   7.955
 7149POPC   C4A22626   1.253  11.280   7.655
 7149POPC   C1B22627   1.088  11.130   8.555
 7149POPC   C2B22628   1.044  11.109   8.255
 7149POPC   C3B22629   1.135  11.079   7.955
 7149POPC   C4B22630   1.137  11.112   7.655
 7150POPC   NC322631   4.276   8.981   9.455
 7150POPC   PO422632   4.361   8.988   9.155
 7150POPC   GL122633   4.345   8.995   8.855
 7150POPC   GL222634   4.354   9.119   8.855
 7150POPC   C1A22635   4.298   8.924   8.555
 7150POPC   D2A22636   4.341   8.954   8.255
 7150POPC   C3A22637   4.317   8.968   7.955
 7150POPC   C4A22638   4.281   8.953   7.655
 7150POPC   C1B22639   4.370   9.198   8.555
 7150POPC   C2B22640   4.393   9.167   8.255
 7150POPC   C3B22641   4.422   9.229   7.955
 7150POPC   C4B22642   4.358   9.223   7.655
 7151POPC   NC322643  17.471  42.364   9.455
 7151POPC   PO422644  17.472  42.301   9.155
 7151POPC   GL122645  17.478  42.291   8.855
 7151POPC   GL222646  17.627  42.268   8.855
 7151POPC   C1A22647  17.478  42.292   8.555
 7151POPC   D2A22648  17.476  42.337   8.255
 7151POPC   C3A22649  17.502  42.313   7.955
 7151POPC   C4A22650  17.522  42.302   7.655
 7151POPC   C1B22651  17.723  42.227   8.555
 7151POPC   C2B22652  17.718  42.156   8.255
 7151POPC   C3B22653  17.671  42.166   7.955
 7151POPC   C4B22654  17.716  42.218   7.655
 7152POPC   NC322655  22.910   1.243   9.455
 7152POPC   PO422656  22.978   1.198   9.155
 7152POPC   GL122657  22.926   1.182   8.855
 7152POPC   GL222658  23.020   1.182   8.855
 7152POPC   C1A22659  22.962   1.185   8.555
 7152POPC   D2A22660  22.952   1.228   8.255
 7152POPC   C3A22661  22.943   1.183   7.955
 7152POPC   C4A22662  22.914   1.202   7.655
 7152POPC   C1B22663  23.173   1.252   8.555
 7152POPC   C2B22664  23.214   1.254   8.255
 7152POPC   C3B22665  23.158   1.194   7.955
 7152POPC   C4B22666  23.198   1.207   7.655
 7153POPC   NC322667  38.494   1.209   9.455
 7153POPC   PO422668  38.498   1.218   9.155
 7153POPC   GL122669  38.406   1.220   8.855
 7153POPC   GL222670  38.398   1.298   8.855
 7153POPC   C1A22671  38.479   1.208   8.555
 7153POPC   D2A22672  38.470   1.208   8.255
 7153POPC   C3A22673  38.446   1.169   7.955
 7153POPC   C4A22674  38.462   1.190   7.655
 7153POPC   C1B22675  38.359   1.440   8.555
 7153POPC   C2B22676  38.419   1.503   8.255
 7153POPC   C3B22677  38.405   1.473   7.955
 7153POPC   C4B22678  38.403   1.426   7.655
 7154POPC   NC322679  43.879   8.168   9.455
 7154POPC   PO422680  43.935   8.195   9.155
 7154POPC   GL122681  43.935   8.220   8.855
 7154POPC   GL222682  43.834   8.302   8.855
 7154POPC   C1A22683  43.880   8.169   8.555
 7154POPC   D2A22684  43.852   8.214   8.255
 7154POPC   C3A22685  43.926   8.191   7.955
 7154POPC   C4A22686  43.842   8.155   7.655
 7154POPC   C1B22687  43.771   8.373   8.555
 7154POPC   C2B22688  43.762   8.368   8.255
 7154POPC   C3B22689  43.737   8.423   7.955
 7154POPC   C4B22690  43.736   8.456   7.655
 7155POPC   NC322691  22.958  25.232   9.455
 7155POPC   PO422692  22.966  25.307   9.155
 7155POPC   GL122693  22.925  25.309   8.855
 7155POPC   GL222694  23.073  25.289   8.855
 7155POPC   C1A22695  22.960  25.244   8.555
 7155POPC   D2A22696  22.904  25.285   8.255
 7155POPC   C3A22697  22.967  25.225   7.955
 7155POPC   C4A22698  22.931  25.220   7.655
 7155POPC   C1B22699  23.223  25.197   8.555
 7155POPC   C2B22700  23.156  25.286   8.255
 7155POPC   C3B22701  23.163  25.220   7.955
 7155POPC   C4B22702  23.216  25.233   7.655
 7156POPC   NC322703  44.646  30.688   9.455
 7156POPC   PO422704  44.614  30.680   9.155
 7156POPC   GL122705  44.633  30.670   8.855
 7156POPC   GL222706  44.761  30.644   8.855
 7156POPC   C1A22707  44.643  30.702   8.555
 7156POPC   D2A22708  44.658  30.735   8.255
 7156POPC   C3A22709  44.626  30.711   7.955
 7156POPC   C4A22710  44.659  30.700   7.655
 7156POPC   C1B22711  44.870  30.578   8.555
 7156POPC   C2B22712  44.888  30.629   8.255
 7156POPC   C3B22713  44.889  30.637   7.955
 7156POPC   C4B22714  44.897  30.625   7.655
 7157POPC   NC322715  32.983  16.702   9.455
 7157POPC   PO422716  33.052  16.684   9.155
 7157POPC   GL122717  33.007  16.763   8.855
 7157POPC   GL222718  32.882  16.779   8.855
 7157POPC   C1A22719  32.985  16.707   8.555
 7157POPC   D2A22720  32.978  16.720   8.255
 7157POPC   C3A22721  33.002  16.729   7.955
 7157POPC   C4A22722  33.072  16.723   7.655
 7157POPC   C1B22723  32.738  16.742   8.555
 7157POPC   C2B22724  32.821  16.752   8.255
 7157POPC   C3B22725  32.812  16.777   7.955
 7157POPC   C4B22726  32.791  16.737   7.655
 7158POPC   NC322727  36.870  30.651   9.455
 7158POPC   PO422728  36.918  30.657   9.155
 7158POPC   GL122729  36.947  30.685   8.855
 7158POPC   GL222730  37.038  30.672   8.855
 7158POPC   C1A22731  36.880  30.696   8.555
 7158POPC   D2A22732  36.925  30.746   8.255
 7158POPC   C3A22733  36.875  30.647   7.955
 7158POPC   C4A22734  36.923  30.700   7.655
 7158POPC   C1B22735  37.186  30.776   8.555
 7158POPC   C2B22736  37.111  30.700   8.255
 7158POPC   C3B22737  37.164  30.754   7.955
 7158POPC   C4B22738  37.102  30.755   7.655
 7159POPC   NC322739  34.562  22.189   9.455
 7159POPC   PO422740  34.531  22.141   9.155
 7159POPC   GL122741  34.579  22.177   8.855
 7159POPC   GL222742  34.503  22.082   8.855
 7159POPC   C1A22743  34.544  22.141   8.555
 7159POPC   D2A22744  34.576  22.194   8.255
 7159POPC   C3A22745  34.622  22.132   7.955
 7159POPC   C4A22746  34.621  22.186   7.655
 7159POPC   C1B22747  34.429  21.998   8.555
 7159POPC   C2B22748  34.448  21.982   8.255
 7159POPC   C3B22749  34.391  21.935   7.955
 7159POPC   C4B22750  34.433  21.969   7.655
 7160POPC   NC322751   8.177  36.932   9.455
 7160POPC   PO422752   8.172  36.919   9.155
 7160POPC   GL122753   8.186  36.910   8.855
 7160POPC   GL222754   8.312  36.773   8.855
 7160POPC   C1A22755   8.211  36.854   8.555
 7160POPC   D2A22756   8.200  36.871   8.255
 7160POPC   C3A22757   8.195  36.888   7.955
 7160POPC   C4A22758   8.163  36.951   7.655
 7160POPC   C1B22759   8.337  36.752   8.555
 7160POPC   C2B22760   8.380  36.764   8.255
 7160POPC   C3B22761   8.353  36.719   7.955
 7160POPC   C4B22762   8.352  36.777   7.655
 7161POPC   NC322763  22.171  33.804   9.455
 7161POPC   PO422764  22.186  33.798   9.155
 7161POPC   GL122765  22.163  33.798   8.855
 7161POPC   GL222766  22.004  33.878   8.855
 7161POPC   C1A22767  22.206  33.804   8.555
 7161POPC   D2A22768  22.139  33.816   8.255
 7161POPC   C3A22769  22.133  33.822   7.955
 7161POPC   C4A22770  22.185  33.798   7.655
 7161POPC   C1B22771  21.944  33.903   8.555
 7161POPC   C2B22772  21.941  33.842   8.255
 7161POPC   C3B22773  21.889  33.895   7.955
 7161POPC   C4B22774  21.909  33.835   7.655
 7162POPC   NC322775  16.000  39.984   9.455
 7162POPC   PO422776  15.973  39.986   9.155
 7162POPC   GL122777  15.960  39.975   8.855
 7162POPC   GL222778  16.033  39.903   8.855
 7162POPC   C1A22779  15.961  40.012   8.555
 7162POPC   D2A22780  15.996  40.038   8.255
 7162POPC   C3A22781  15.958  40.008   7.955
 7162POPC   C4A22782  15.920  39.974   7.655
 7162POPC   C1B22783  16.029  39.783   8.555
 7162POPC   C2B22784  16.027  39.783   8.255
 7162POPC   C3B22785  16.058  39.737   7.955
 7162POPC   C4B22786  16.063  39.731   7.655
 7163POPC   NC322787  34.579  17.476   9.455
 7163POPC   PO422788  34.547  17.465   9.155
 7163POPC   GL122789  34.544  17.541   8.855
 7163POPC   GL222790  34.473  17.505   8.855
 7163POPC   C1A22791  34.550  17.490   8.555
 7163POPC   D2A22792  34.548  17.533   8.255
 7163POPC   C3A22793  34.578  17.474   7.955
 7163POPC   C4A22794  34.584  17.504   7.655
 7163POPC   C1B22795  34.349  17.565   8.555
 7163POPC   C2B22796  34.315  17.576   8.255
 7163POPC   C3B22797  34.298  17.615   7.955
 7163POPC   C4B22798  34.300  17.544   7.655
 7164POPC   NC322799  44.643  19.849   9.455
 7164POPC   PO422800  44.627  19.809   9.155
 7164POPC   GL122801  44.703  19.787   8.855
 7164POPC   GL222802  44.747  19.758   8.855
 7164POPC   C1A22803  44.614  19.850   8.555
 7164POPC   D2A22804  44.626  19.870   8.255
 7164POPC   C3A22805  44.683  19.840   7.955
 7164POPC   C4A22806  44.651  19.834   7.655
 7164POPC   C1B22807  44.928  19.758   8.555
 7164POPC   C2B22808  44.869  19.762   8.255
 7164POPC   C3B22809  44.857  19.817   7.955
 7164POPC   C4B22810  44.926  19.814   7.655
 7165POPC   NC322811  36.156  39.207   9.455
 7165POPC   PO422812  36.174  39.278   9.155
 7165POPC   GL122813  36.160  39.190   8.855
 7165POPC   GL222814  36.179  39.308   8.855
 7165POPC   C1A22815  36.078  39.186   8.555
 7165POPC   D2A22816  36.091  39.254   8.255
 7165POPC   C3A22817  36.134  39.237   7.955
 7165POPC   C4A22818  36.095  39.252   7.655
 7165POPC   C1B22819  36.204  39.504   8.555
 7165POPC   C2B22820  36.196  39.453   8.255
 7165POPC   C3B22821  36.203  39.466   7.955
 7165POPC   C4B22822  36.163  39.520   7.655
 7166POPC   NC322823  26.080   5.912   9.455
 7166POPC   PO422824  26.073   5.838   9.155
 7166POPC   GL122825  26.002   5.871   8.855
 7166POPC   GL222826  25.930   5.948   8.855
 7166POPC   C1A22827  26.084   5.884   8.555
 7166POPC   D2A22828  26.013   5.877   8.255
 7166POPC   C3A22829  26.032   5.871   7.955
 7166POPC   C4A22830  26.091   5.845   7.655
 7166POPC   C1B22831  25.897   6.068   8.555
 7166POPC   C2B22832  25.851   6.051   8.255
 7166POPC   C3B22833  25.887   6.057   7.955
 7166POPC   C4B22834  25.919   6.025   7.655
 7167POPC   NC322835  25.262  33.776   9.455
 7167POPC   PO422836  25.259  33.847   9.155
 7167POPC   GL122837  25.224  33.775   8.855
 7167POPC   GL222838  25.328  33.705   8.855
 7167POPC   C1A22839  25.267  33.778   8.555
 7167POPC   D2A22840  25.267  33.797   8.255
 7167POPC   C3A22841  25.236  33.813   7.955
 7167POPC   C4A22842  25.269  33.765   7.655
 7167POPC   C1B22843  25.456  33.694   8.555
 7167POPC   C2B22844  25.461  33.690   8.255
 7167POPC   C3B22845  25.502  33.640   7.955
 7167POPC   C4B22846  25.440  33.712   7.655
 7168POPC   NC322847   3.536   9.754   9.455
 7168POPC   PO422848   3.492   9.740   9.155
 7168POPC   GL122849   3.539   9.767   8.855
 7168POPC   GL222850   3.427   9.816   8.855
 7168POPC   C1A22851   3.558   9.720   8.555
 7168POPC   D2A22852   3.505   9.712   8.255
 7168POPC   C3A22853   3.557   9.760   7.955
 7168POPC   C4A22854   3.496   9.702   7.655
 7168POPC   C1B22855   3.427   9.950   8.555
 7168POPC   C2B22856   3.461  10.007   8.255
 7168POPC   C3B22857   3.397   9.945   7.955
 7168POPC   C4B22858   3.416  10.006   7.655
 7169POPC   NC322859  26.809  44.708   9.455
 7169POPC   PO422860  26.783  44.678   9.155
 7169POPC   GL122861  26.796  44.675   8.855
 7169POPC   GL222862  26.931  44.569   8.855
 7169POPC   C1A22863  26.865  44.689   8.555
 7169POPC   D2A22864  26.817  44.626   8.255
 7169POPC   C3A22865  26.857  44.623   7.955
 7169POPC   C4A22866  26.774  44.699   7.655
 7169POPC   C1B22867  26.980  44.458   8.555
 7169POPC   C2B22868  26.899  44.490   8.255
 7169POPC   C3B22869  26.898  44.411   7.955
 7169POPC   C4B22870  26.950  44.472   7.655
 7170POPC   NC322871  36.083  25.246   9.455
 7170POPC   PO422872  36.173  25.311   9.155
 7170POPC   GL122873  36.102  25.237   8.855
 7170POPC   GL222874  36.272  25.142   8.855
 7170POPC   C1A22875  36.172  25.310   8.555
 7170POPC   D2A22876  36.164  25.232   8.255
 7170POPC   C3A22877  36.130  25.277   7.955
 7170POPC   C4A22878  36.140  25.308   7.655
 7170POPC   C1B22879  36.302  25.136   8.555
 7170POPC   C2B22880  36.359  25.131   8.255
 7170POPC   C3B22881  36.293  25.113   7.955
 7170POPC   C4B22882  36.347  25.153   7.655
 7171POPC   NC322883  38.414  33.000   9.455
 7171POPC   PO422884  38.468  32.993   9.155
 7171POPC   GL122885  38.420  32.988   8.855
 7171POPC   GL222886  38.384  32.943   8.855
 7171POPC   C1A22887  38.421  33.071   8.555
 7171POPC   D2A22888  38.482  32.994   8.255
 7171POPC   C3A22889  38.441  33.027   7.955
 7171POPC   C4A22890  38.440  32.981   7.655
 7171POPC   C1B22891  38.278  32.821   8.555
 7171POPC   C2B22892  38.327  32.863   8.255
 7171POPC   C3B22893  38.276  32.825   7.955
 7171POPC   C4B22894  38.288  32.894   7.655
 7172POPC   NC322895  25.284  36.857   9.455
 7172POPC   PO422896  25.262  36.923   9.155
 7172POPC   GL122897  25.309  36.875   8.855
 7172POPC   GL222898  25.196  36.834   8.855
 7172POPC   C1A22899  25.306  36.863   8.555
 7172POPC   D2A22900  25.251  36.951   8.255
 7172POPC   C3A22901  25.314  36.922   7.955
 7172POPC   C4A22902  25.265  36.907   7.655
 7172POPC   C1B22903  25.159  36.750   8.555
 7172POPC   C2B22904  25.085  36.720   8.255
 7172POPC   C3B22905  25.116  36.667   7.955
 7172POPC   C4B22906  25.151  36.723   7.655
 7173POPC   NC322907   3.583  43.911   9.455
 7173POPC   PO422908   3.580  43.874   9.155
 7173POPC   GL122909   3.583  43.862   8.855
 7173POPC   GL222910   3.651  43.965   8.855
 7173POPC   C1A22911   3.511  43.933   8.555
 7173POPC   D2A22912   3.589  43.861   8.255
 7173POPC   C3A22913   3.493  43.886   7.955
 7173POPC   C4A22914   3.555  43.890   7.655
 7173POPC   C1B22915   3.693  44.097   8.555
 7173POPC   C2B22916   3.710  44.008   8.255
 7173POPC   C3B22917   3.735  44.073   7.955
 7173POPC   C4B22918   3.765  44.026   7.655
 7174POPC   NC322919  26.053   2.719   9.455
 7174POPC   PO422920  26.023   2.747   9.155
 7174POPC   GL122921  26.034   2.729   8.855
 7174POPC   GL222922  26.117   2.712   8.855
 7174POPC   C1A22923  26.002   2.780   8.555
 7174POPC   D2A22924  26.032   2.758   8.255
 7174POPC   C3A22925  26.049   2.721   7.955
 7174POPC   C4A22926  26.002   2.765   7.655
 7174POPC   C1B22927  26.212   2.649   8.555
 7174POPC   C2B22928  26.271   2.601   8.255
 7174POPC   C3B22929  26.260   2.642   7.955
 7174POPC   C4B22930  26.237   2.633   7.655
 7175POPC   NC322931   2.001   8.232   9.455
 7175POPC   PO422932   1.983   8.197   9.155
 7175POPC   GL122933   1.944   8.199   8.855
 7175POPC   GL222934   1.850   8.147   8.855
 7175POPC   C1A22935   2.028   8.214   8.555
 7175POPC   D2A22936   1.949   8.232   8.255
 7175POPC   C3A22937   2.035   8.197   7.955
 7175POPC   C4A22938   1.970   8.234   7.655
 7175POPC   C1B22939   1.802   8.114   8.555
 7175POPC   C2B22940   1.806   8.067   8.255
 7175POPC   C3B22941   1.791   8.061   7.955
 7175POPC   C4B22942   1.762   8.084   7.655
 7176POPC   NC322943  38.458  29.120   9.455
 7176POPC   PO422944  38.493  29.159   9.155
 7176POPC   GL122945  38.487  29.127   8.855
 7176POPC   GL222946  38.331  29.269   8.855
 7176POPC   C1A22947  38.456  29.141   8.555
 7176POPC   D2A22948  38.428  29.144   8.255
 7176POPC   C3A22949  38.502  29.128   7.955
 7176POPC   C4A22950  38.413  29.116   7.655
 7176POPC   C1B22951  38.262  29.349   8.555
 7176POPC   C2B22952  38.278  29.326   8.255
 7176POPC   C3B22953  38.311  29.355   7.955
 7176POPC   C4B22954  38.296  29.323   7.655
 7177POPC   NC322955   2.812  21.381   9.455
 7177POPC   PO422956   2.765  21.418   9.155
 7177POPC   GL122957   2.807  21.403   8.855
 7177POPC   GL222958   2.738  21.532   8.855
 7177POPC   C1A22959   2.727  21.348   8.555
 7177POPC   D2A22960   2.796  21.399   8.255
 7177POPC   C3A22961   2.764  21.377   7.955
 7177POPC   C4A22962   2.788  21.432   7.655
 7177POPC   C1B22963   2.754  21.593   8.555
 7177POPC   C2B22964   2.795  21.633   8.255
 7177POPC   C3B22965   2.777  21.670   7.955
 7177POPC   C4B22966   2.705  21.606   7.655
 7178POPC   NC322967  20.573   2.009   9.455
 7178POPC   PO422968  20.580   1.963   9.155
 7178POPC   GL122969  20.655   1.982   8.855
 7178POPC   GL222970  20.671   2.139   8.855
 7178POPC   C1A22971  20.652   1.977   8.555
 7178POPC   D2A22972  20.637   1.991   8.255
 7178POPC   C3A22973  20.595   2.027   7.955
 7178POPC   C4A22974  20.571   2.024   7.655
 7178POPC   C1B22975  20.746   2.195   8.555
 7178POPC   C2B22976  20.781   2.158   8.255
 7178POPC   C3B22977  20.766   2.239   7.955
 7178POPC   C4B22978  20.720   2.177   7.655
 7179POPC   NC322979  26.779   2.745   9.455
 7179POPC   PO422980  26.865   2.762   9.155
 7179POPC   GL122981  26.820   2.774   8.855
 7179POPC   GL222982  26.826   2.642   8.855
 7179POPC   C1A22983  26.786   2.759   8.555
 7179POPC   D2A22984  26.854   2.786   8.255
 7179POPC   C3A22985  26.849   2.729   7.955
 7179POPC   C4A22986  26.773   2.787   7.655
 7179POPC   C1B22987  26.884   2.514   8.555
 7179POPC   C2B22988  26.878   2.494   8.255
 7179POPC   C3B22989  26.846   2.520   7.955
 7179POPC   C4B22990  26.807   2.545   7.655
 7180POPC   NC322991  40.749  24.524   9.455
 7180POPC   PO422992  40.759  24.452   9.155
 7180POPC   GL122993  40.756  24.515   8.855
 7180POPC   GL222994  40.889  24.409   8.855
 7180POPC   C1A22995  40.824  24.458   8.555
 7180POPC   D2A22996  40.814  24.499   8.255
 7180POPC   C3A22997  40.753  24.509   7.955
 7180POPC   C4A22998  40.758  24.531   7.655
 7180POPC   C1B22999  40.914  24.300   8.555
 7180POPC   C2B23000  40.992  24.262   8.255
 7180POPC   C3B23001  40.905  24.295   7.955
 7180POPC   C4B23002  40.942  24.295   7.655
 7181POPC   NC323003  19.812  32.246   9.455
 7181POPC   PO423004  19.816  32.217   9.155
 7181POPC   GL123005  19.794  32.203   8.855
 7181POPC   GL223006  19.926  32.155   8.855
 7181POPC   C1A23007  19.791  32.278   8.555
 7181POPC   D2A23008  19.829  32.209   8.255
 7181POPC   C3A23009  19.843  32.234   7.955
 7181POPC   C4A23010  19.798  32.273   7.655
 7181POPC   C1B23011  20.045  32.058   8.555
 7181POPC   C2B23012  20.031  32.101   8.255
 7181POPC   C3B23013  19.960  32.046   7.955
 7181POPC   C4B23014  20.004  32.020   7.655
 7182POPC   NC323015   3.504  35.326   9.455
 7182POPC   PO423016   3.493  35.355   9.155
 7182POPC   GL123017   3.527  35.392   8.855
 7182POPC   GL223018   3.539  35.265   8.855
 7182POPC   C1A23019   3.587  35.333   8.555
 7182POPC   D2A23020   3.559  35.390   8.255
 7182POPC   C3A23021   3.569  35.306   7.955
 7182POPC   C4A23022   3.545  35.372   7.655
 7182POPC   C1B23023   3.591  35.130   8.555
 7182POPC   C2B23024   3.513  35.126   8.255
 7182POPC   C3B23025   3.593  35.152   7.955
 7182POPC   C4B23026   3.603  35.089   7.655
 7183POPC   NC323027  40.046  20.629   9.455
 7183POPC   PO423028  39.959  20.594   9.155
 7183POPC   GL123029  40.011  20.624   8.855
 7183POPC   GL223030  39.914  20.730   8.855
 7183POPC   C1A23031  40.000  20.569   8.555
 7183POPC   D2A23032  40.048  20.633   8.255
 7183POPC   C3A23033  40.009  20.627   7.955
 7183POPC   C4A23034  40.006  20.625   7.655
 7183POPC   C1B23035  39.808  20.764   8.555
 7183POPC   C2B23036  39.805  20.774   8.255
 7183POPC   C3B23037  39.792  20.732   7.955
 7183POPC   C4B23038  39.783  20.798   7.655
 7184POPC   NC323039  33.814  12.041   9.455
 7184POPC   PO423040  33.753  12.064   9.155
 7184POPC   GL123041  33.796  12.094   8.855
 7184POPC   GL223042  33.883  12.073   8.855
 7184POPC   C1A23043  33.798  12.066   8.555
 7184POPC   D2A23044  33.818  12.037   8.255
 7184POPC   C3A23045  33.816  12.099   7.955
 7184POPC   C4A23046  33.751  12.030   7.655
 7184POPC   C1B23047  34.076  12.137   8.555
 7184POPC   C2B23048  34.000  12.132   8.255
 7184POPC   C3B23049  34.028  12.167   7.955
 7184POPC   C4B23050  33.989  12.157   7.655
 7185POPC   NC323051   8.161  16.728   9.455
 7185POPC   PO423052   8.191  16.760   9.155
 7185POPC   GL123053   8.184  16.773   8.855
 7185POPC   GL223054   8.242  16.628   8.855
 7185POPC   C1A23055   8.221  16.732   8.555
 7185POPC   D2A23056   8.166  16.731   8.255
 7185POPC   C3A23057   8.243  16.685   7.955
 7185POPC   C4A23058   8.216  16.701   7.655
 7185POPC   C1B23059   8.231  16.496   8.555
 7185POPC   C2B23060   8.204  16.438   8.255
 7185POPC   C3B23061   8.218  16.506   7.955
 7185POPC   C4B23062   8.191  16.489   7.655
 7186POPC   NC323063  37.661  28.364   9.455
 7186POPC   PO423064  37.713  28.322   9.155
 7186POPC   GL123065  37.652  28.368   8.855
 7186POPC   GL223066  37.599  28.264   8.855
 7186POPC   C1A23067  37.707  28.387   8.555
 7186POPC   D2A23068  37.669  28.418   8.255
 7186POPC   C3A23069  37.693  28.353   7.955
 7186POPC   C4A23070  37.643  28.372   7.655
 7186POPC   C1B23071  37.474  28.194   8.555
 7186POPC   C2B23072  37.511  28.274   8.255
 7186POPC   C3B23073  37.508  28.243   7.955
 7186POPC   C4B23074  37.507  28.208   7.655
 7187POPC   NC323075   3.524  11.269   9.455
 7187POPC   PO423076   3.589  11.343   9.155
 7187POPC   GL123077   3.521  11.254   8.855
 7187POPC   GL223078   3.439  11.276   8.855
 7187POPC   C1A23079   3.492  11.258   8.555
 7187POPC   D2A23080   3.507  11.290   8.255
 7187POPC   C3A23081   3.513  11.265   7.955
 7187POPC   C4A23082   3.515  11.336   7.655
 7187POPC   C1B23083   3.273  11.372   8.555
 7187POPC   C2B23084   3.342  11.365   8.255
 7187POPC   C3B23085   3.271  11.307   7.955
 7187POPC   C4B23086   3.275  11.353   7.655
 7188POPC   NC323087   3.582  14.424   9.455
 7188POPC   PO423088   3.509  14.441   9.155
 7188POPC   GL123089   3.524  14.366   8.855
 7188POPC   GL223090   3.406  14.475   8.855
 7188POPC   C1A23091   3.547  14.393   8.555
 7188POPC   D2A23092   3.551  14.399   8.255
 7188POPC   C3A23093   3.578  14.354   7.955
 7188POPC   C4A23094   3.575  14.420   7.655
 7188POPC   C1B23095   3.383  14.541   8.555
 7188POPC   C2B23096   3.313  14.526   8.255
 7188POPC   C3B23097   3.331  14.525   7.955
 7188POPC   C4B23098   3.329  14.533   7.655
 7189POPC   NC323099  14.443  24.467   9.455
 7189POPC   PO423100  14.360  24.447   9.155
 7189POPC   GL123101  14.403  24.466   8.855
 7189POPC   GL223102  14.350  24.557   8.855
 7189POPC   C1A23103  14.406  24.480   8.555
 7189POPC   D2A23104  14.357  24.466   8.255
 7189POPC   C3A23105  14.397  24.524   7.955
 7189POPC   C4A23106  14.384  24.443   7.655
 7189POPC   C1B23107  14.281  24.726   8.555
 7189POPC   C2B23108  14.244  24.633   8.255
 7189POPC   C3B23109  14.250  24.729   7.955
 7189POPC   C4B23110  14.247  24.714   7.655
 7190POPC   NC323111  43.110  22.200   9.455
 7190POPC   PO423112  43.098  22.141   9.155
 7190POPC   GL123113  43.159  22.139   8.855
 7190POPC   GL223114  43.125  22.041   8.855
 7190POPC   C1A23115  43.097  22.113   8.555
 7190POPC   D2A23116  43.113  22.154   8.255
 7190POPC   C3A23117  43.076  22.115   7.955
 7190POPC   C4A23118  43.067  22.113   7.655
 7190POPC   C1B23119  43.187  21.888   8.555
 7190POPC   C2B23120  43.188  21.975   8.255
 7190POPC   C3B23121  43.157  21.895   7.955
 7190POPC   C4B23122  43.165  21.923   7.655
 7191POPC   NC323123  33.073  33.020   9.455
 7191POPC   PO423124  33.071  32.995   9.155
 7191POPC   GL123125  33.013  32.989   8.855
 7191POPC   GL223126  32.879  32.973   8.855
 7191POPC   C1A23127  33.010  32.975   8.555
 7191POPC   D2A23128  32.989  32.995   8.255
 7191POPC   C3A23129  33.004  33.072   7.955
 7191POPC   C4A23130  33.027  33.057   7.655
 7191POPC   C1B23131  32.812  32.927   8.555
 7191POPC   C2B23132  32.773  32.990   8.255
 7191POPC   C3B23133  32.837  32.961   7.955
 7191POPC   C4B23134  32.831  32.981   7.655
 7192POPC   NC323135  32.289  23.734   9.455
 7192POPC   PO423136  32.292  23.664   9.155
 7192POPC   GL123137  32.233  23.700   8.855
 7192POPC   GL223138  32.359  23.789   8.855
 7192POPC   C1A23139  32.275  23.713   8.555
 7192POPC   D2A23140  32.266  23.748   8.255
 7192POPC   C3A23141  32.286  23.699   7.955
 7192POPC   C4A23142  32.203  23.683   7.655
 7192POPC   C1B23143  32.493  23.858   8.555
 7192POPC   C2B23144  32.430  23.821   8.255
 7192POPC   C3B23145  32.508  23.810   7.955
 7192POPC   C4B23146  32.486  23.836   7.655
 7193POPC   NC323147  26.021  33.039   9.455
 7193POPC   PO423148  26.003  32.979   9.155
 7193POPC   GL123149  26.077  32.979   8.855
 7193POPC   GL223150  26.078  33.138   8.855
 7193POPC   C1A23151  26.082  33.039   8.555
 7193POPC   D2A23152  25.996  32.992   8.255
 7193POPC   C3A23153  26.024  33.044   7.955
 7193POPC   C4A23154  26.089  33.052   7.655
 7193POPC   C1B23155  26.169  33.225   8.555
 7193POPC   C2B23156  26.196  33.191   8.255
 7193POPC   C3B23157  26.249  33.225   7.955
 7193POPC   C4B23158  26.166  33.240   7.655
 7194POPC   NC323159  42.357  13.596   9.455
 7194POPC   PO423160  42.310  13.655   9.155
 7194POPC   GL123161  42.357  13.580   8.855
 7194POPC   GL223162  42.455  13.534   8.855
 7194POPC   C1A23163  42.383  13.599   8.555
 7194POPC   D2A23164  42.382  13.579   8.255
 7194POPC   C3A23165  42.328  13.629   7.955
 7194POPC   C4A23166  42.370  13.587   7.655
 7194POPC   C1B23167  42.548  13.410   8.555
 7194POPC   C2B23168  42.514  13.409   8.255
 7194POPC   C3B23169  42.492  13.416   7.955
 7194POPC   C4B23170  42.540  13.442   7.655
 7195POPC   NC323171  18.236  39.268   9.455
 7195POPC   PO423172  18.321  39.191   9.155
 7195POPC   GL123173  18.251  39.254   8.855
 7195POPC   GL223174  18.156  39.224   8.855
 7195POPC   C1A23175  18.331  39.280   8.555
 7195POPC   D2A23176  18.321  39.253   8.255
 7195POPC   C3A23177  18.276  39.207   7.955
 7195POPC   C4A23178  18.271  39.224   7.655
 7195POPC   C1B23179  18.028  39.123   8.555
 7195POPC   C2B23180  18.058  39.190   8.255
 7195POPC   C3B23181  18.004  39.165   7.955
 7195POPC   C4B23182  18.088  39.132   7.655
 7196POPC   NC323183  18.306  42.315   9.455
 7196POPC   PO423184  18.319  42.312   9.155
 7196POPC   GL123185  18.324  42.357   8.855
 7196POPC   GL223186  18.395  42.284   8.855
 7196POPC   C1A23187  18.268  42.292   8.555
 7196POPC   D2A23188  18.316  42.334   8.255
 7196POPC   C3A23189  18.242  42.383   7.955
 7196POPC   C4A23190  18.296  42.329   7.655
 7196POPC   C1B23191  18.452  42.201   8.555
 7196POPC   C2B23192  18.487  42.118   8.255
 7196POPC   C3B23193  18.444  42.135   7.955
 7196POPC   C4B23194  18.492  42.172   7.655
 7197POPC   NC323195  28.393  12.093   9.455
 7197POPC   PO423196  28.320  12.088   9.155
 7197POPC   GL123197  28.324  12.095   8.855
 7197POPC   GL223198  28.433  11.951   8.855
 7197POPC   C1A23199  28.353  12.087   8.555
 7197POPC   D2A23200  28.348  12.107   8.255
 7197POPC   C3A23201  28.395  12.087   7.955
 7197POPC   C4A23202  28.364  12.037   7.655
 7197POPC   C1B23203  28.448  11.865   8.555
 7197POPC   C2B23204  28.496  11.871   8.255
 7197POPC   C3B23205  28.511  11.825   7.955
 7197POPC   C4B23206  28.481  11.880   7.655
 7198POPC   NC323207  16.762  38.431   9.455
 7198POPC   PO423208  16.760  38.459   9.155
 7198POPC   GL123209  16.689  38.437   8.855
 7198POPC   GL223210  16.810  38.389   8.855
 7198POPC   C1A23211  16.741  38.465   8.555
 7198POPC   D2A23212  16.692  38.417   8.255
 7198POPC   C3A23213  16.700  38.433   7.955
 7198POPC   C4A23214  16.697  38.488   7.655
 7198POPC   C1B23215  16.887  38.249   8.555
 7198POPC   C2B23216  16.958  38.346   8.255
 7198POPC   C3B23217  16.880  38.284   7.955
 7198POPC   C4B23218  16.881  38.329   7.655
 7199POPC   NC323219   5.912  38.483   9.455
 7199POPC   PO423220   5.895  38.489   9.155
 7199POPC   GL123221   5.916  38.504   8.855
 7199POPC   GL223222   5.787  38.576   8.855
 7199POPC   C1A23223   5.908  38.416   8.555
 7199POPC   D2A23224   5.839  38.492   8.255
 7199POPC   C3A23225   5.917  38.503   7.955
 7199POPC   C4A23226   5.841  38.476   7.655
 7199POPC   C1B23227   5.747  38.693   8.555
 7199POPC   C2B23228   5.718  38.686   8.255
 7199POPC   C3B23229   5.725  38.647   7.955
 7199POPC   C4B23230   5.798  38.715   7.655
 7200POPC   NC323231  43.855  34.559   9.455
 7200POPC   PO423232  43.857  34.597   9.155
 7200POPC   GL123233  43.936  34.607   8.855
 7200POPC   GL223234  43.732  34.530   8.855
 7200POPC   C1A23235  43.928  34.563   8.555
 7200POPC   D2A23236  43.901  34.583   8.255
 7200POPC   C3A23237  43.888  34.547   7.955
 7200POPC   C4A23238  43.910  34.535   7.655
 7200POPC   C1B23239  43.609  34.529   8.555
 7200POPC   C2B23240  43.601  34.527   8.255
 7200POPC   C3B23241  43.646  34.503   7.955
 7200POPC   C4B23242  43.660  34.548   7.655
 7201POPC   NC323243  10.520   8.970   9.455
 7201POPC   PO423244  10.493   8.981   9.155
 7201POPC   GL123245  10.524   8.948   8.855
 7201POPC   GL223246  10.463   8.805   8.855
 7201POPC   C1A23247  10.572   9.014   8.555
 7201POPC   D2A23248  10.574   8.925   8.255
 7201POPC   C3A23249  10.531   8.955   7.955
 7201POPC   C4A23250  10.555   8.951   7.655
 7201POPC   C1B23251  10.493   8.712   8.555
 7201POPC   C2B23252  10.465   8.708   8.255
 7201POPC   C3B23253  10.527   8.731   7.955
 7201POPC   C4B23254  10.479   8.774   7.655
 7202POPC   NC323255  41.606  12.123   9.455
 7202POPC   PO423256  41.598  12.042   9.155
 7202POPC   GL123257  41.535  12.070   8.855
 7202POPC   GL223258  41.457  11.977   8.855
 7202POPC   C1A23259  41.608  12.120   8.555
 7202POPC   D2A23260  41.592  12.060   8.255
 7202POPC   C3A23261  41.563  12.040   7.955
 7202POPC   C4A23262  41.580  12.046   7.655
 7202POPC   C1B23263  41.414  11.858   8.555
 7202POPC   C2B23264  41.483  11.840   8.255
 7202POPC   C3B23265  41.408  11.856   7.955
 7202POPC   C4B23266  41.407  11.854   7.655
 7203POPC   NC323267  29.890  13.625   9.455
 7203POPC   PO423268  29.956  13.605   9.155
 7203POPC   GL123269  29.945  13.601   8.855
 7203POPC   GL223270  29.996  13.770   8.855
 7203POPC   C1A23271  29.943  13.630   8.555
 7203POPC   D2A23272  29.933  13.596   8.255
 7203POPC   C3A23273  29.888  13.655   7.955
 7203POPC   C4A23274  29.939  13.625   7.655
 7203POPC   C1B23275  30.032  13.844   8.555
 7203POPC   C2B23276  30.022  13.893   8.255
 7203POPC   C3B23277  29.942  13.858   7.955
 7203POPC   C4B23278  29.968  13.863   7.655
 7204POPC   NC323279   1.952  19.075   9.455
 7204POPC   PO423280   2.004  19.061   9.155
 7204POPC   GL123281   1.961  19.087   8.855
 7204POPC   GL223282   1.873  18.971   8.855
 7204POPC   C1A23283   1.977  19.062   8.555
 7204POPC   D2A23284   2.000  19.057   8.255
 7204POPC   C3A23285   1.946  19.055   7.955
 7204POPC   C4A23286   2.006  19.052   7.655
 7204POPC   C1B23287   1.767  19.010   8.555
 7204POPC   C2B23288   1.792  19.001   8.255
 7204POPC   C3B23289   1.776  18.978   7.955
 7204POPC   C4B23290   1.796  19.014   7.655
 7205POPC   NC323291  33.818  43.871   9.455
 7205POPC   PO423292  33.835  43.917   9.155
 7205POPC   GL123293  33.798  43.886   8.855
 7205POPC   GL223294  33.913  43.878   8.855
 7205POPC   C1A23295  33.843  43.900   8.555
 7205POPC   D2A23296  33.810  43.839   8.255
 7205POPC   C3A23297  33.827  43.886   7.955
 7205POPC   C4A23298  33.816  43.890   7.655
 7205POPC   C1B23299  34.033  43.945   8.555
 7205POPC   C2B23300  34.061  43.928   8.255
 7205POPC   C3B23301  34.013  43.949   7.955
 7205POPC   C4B23302  34.077  43.976   7.655
 7206POPC   NC323303   0.456   8.958   9.455
 7206POPC   PO423304   0.483   8.943   9.155
 7206POPC   GL123305   0.410   8.962   8.855
 7206POPC   GL223306   0.464   8.868   8.855
 7206POPC   C1A23307   0.453   9.007   8.555
 7206POPC   D2A23308   0.423   8.979   8.255
 7206POPC   C3A23309   0.460   9.005   7.955
 7206POPC   C4A23310   0.405   8.979   7.655
 7206POPC   C1B23311   0.428   8.760   8.555
 7206POPC   C2B23312   0.455   8.764   8.255
 7206POPC   C3B23313   0.426   8.710   7.955
 7206POPC   C4B23314   0.437   8.700   7.655
 7207POPC   NC323315   7.389  18.275   9.455
 7207POPC   PO423316   7.393  18.294   9.155
 7207POPC   GL123317   7.438  18.258   8.855
 7207POPC   GL223318   7.267  18.325   8.855
 7207POPC   C1A23319   7.410  18.306   8.555
 7207POPC   D2A23320   7.445  18.311   8.255
 7207POPC   C3A23321   7.437  18.251   7.955
 7207POPC   C4A23322   7.410  18.312   7.655
 7207POPC   C1B23323   7.196  18.377   8.555
 7207POPC   C2B23324   7.162  18.417   8.255
 7207POPC   C3B23325   7.243  18.365   7.955
 7207POPC   C4B23326   7.235  18.455   7.655
 7208POPC   NC323327  10.525   5.829   9.455
 7208POPC   PO423328  10.533   5.826   9.155
 7208POPC   GL123329  10.568   5.854   8.855
 7208POPC   GL223330  10.598   6.018   8.855
 7208POPC   C1A23331  10.492   5.890   8.555
 7208POPC   D2A23332  10.547   5.919   8.255
 7208POPC   C3A23333  10.519   5.890   7.955
 7208POPC   C4A23334  10.481   5.856   7.655
 7208POPC   C1B23335  10.680   6.119   8.555
 7208POPC   C2B23336  10.630   6.123   8.255
 7208POPC   C3B23337  10.657   6.111   7.955
 7208POPC   C4B23338  10.630   6.062   7.655
 7209POPC   NC323339  40.749   5.098   9.455
 7209POPC   PO423340  40.820   5.122   9.155
 7209POPC   GL123341  40.808   5.092   8.855
 7209POPC   GL223342  40.749   4.965   8.855
 7209POPC   C1A23343  40.762   5.052   8.555
 7209POPC   D2A23344  40.742   5.046   8.255
 7209POPC   C3A23345  40.757   5.062   7.955
 7209POPC   C4A23346  40.792   5.123   7.655
 7209POPC   C1B23347  40.616   4.882   8.555
 7209POPC   C2B23348  40.609   4.930   8.255
 7209POPC   C3B23349  40.643   4.897   7.955
 7209POPC   C4B23350  40.598   4.891   7.655
 7210POPC   NC323351  44.703  17.496   9.455
 7210POPC   PO423352  44.654  17.490   9.155
 7210POPC   GL123353  44.618  17.474   8.855
 7210POPC   GL223354  44.738  17.572   8.855
 7210POPC   C1A23355  44.632  17.463   8.555
 7210POPC   D2A23356  44.709  17.485   8.255
 7210POPC   C3A23357  44.613  17.551   7.955
 7210POPC   C4A23358  44.636  17.512   7.655
 7210POPC   C1B23359  44.851  17.705   8.555
 7210POPC   C2B23360  44.880  17.677   8.255
 7210POPC   C3B23361  44.807  17.689   7.955
 7210POPC   C4B23362  44.849  17.724   7.655
 7211POPC   NC323363  19.106   5.825   9.455
 7211POPC   PO423364  19.061   5.893   9.155
 7211POPC   GL123365  19.013   5.876   8.855
 7211POPC   GL223366  19.196   5.915   8.855
 7211POPC   C1A23367  19.024   5.907   8.555
 7211POPC   D2A23368  19.102   5.906   8.255
 7211POPC   C3A23369  19.074   5.836   7.955
 7211POPC   C4A23370  19.085   5.906   7.655
 7211POPC   C1B23371  19.337   5.919   8.555
 7211POPC   C2B23372  19.300   5.929   8.255
 7211POPC   C3B23373  19.279   5.894   7.955
 7211POPC   C4B23374  19.285   5.973   7.655
 7212POPC   NC323375   8.206  12.843   9.455
 7212POPC   PO423376   8.190  12.811   9.155
 7212POPC   GL123377   8.163  12.877   8.855
 7212POPC   GL223378   8.055  12.932   8.855
 7212POPC   C1A23379   8.220  12.854   8.555
 7212POPC   D2A23380   8.245  12.887   8.255
 7212POPC   C3A23381   8.227  12.824   7.955
 7212POPC   C4A23382   8.207  12.843   7.655
 7212POPC   C1B23383   8.039  13.022   8.555
 7212POPC   C2B23384   8.035  12.986   8.255
 7212POPC   C3B23385   7.953  13.042   7.955
 7212POPC   C4B23386   8.029  12.983   7.655
 7213POPC   NC323387  29.949  15.154   9.455
 7213POPC   PO423388  29.877  15.202   9.155
 7213POPC   GL123389  29.937  15.148   8.855
 7213POPC   GL223390  29.864  15.063   8.855
 7213POPC   C1A23391  29.890  15.203   8.555
 7213POPC   D2A23392  29.951  15.184   8.255
 7213POPC   C3A23393  29.871  15.139   7.955
 7213POPC   C4A23394  29.884  15.201   7.655
 7213POPC   C1B23395  29.908  14.882   8.555
 7213POPC   C2B23396  29.951  14.945   8.255
 7213POPC   C3B23397  29.870  14.946   7.955
 7213POPC   C4B23398  29.933  14.931   7.655
 7214POPC   NC323399   1.974  42.377   9.455
 7214POPC   PO423400   2.038  42.287   9.155
 7214POPC   GL123401   1.957  42.291   8.855
 7214POPC   GL223402   2.150  42.403   8.855
 7214POPC   C1A23403   1.944  42.318   8.555
 7214POPC   D2A23404   2.027  42.356   8.255
 7214POPC   C3A23405   1.996  42.381   7.955
 7214POPC   C4A23406   1.999  42.291   7.655
 7214POPC   C1B23407   2.236  42.429   8.555
 7214POPC   C2B23408   2.192  42.437   8.255
 7214POPC   C3B23409   2.232  42.406   7.955
 7214POPC   C4B23410   2.273  42.373   7.655
 7215POPC   NC323411   5.819  12.074   9.455
 7215POPC   PO423412   5.824  12.067   9.155
 7215POPC   GL123413   5.862  12.121   8.855
 7215POPC   GL223414   5.734  12.090   8.855
 7215POPC   C1A23415   5.891  12.034   8.555
 7215POPC   D2A23416   5.859  12.109   8.255
 7215POPC   C3A23417   5.841  12.070   7.955
 7215POPC   C4A23418   5.900  12.107   7.655
 7215POPC   C1B23419   5.601  12.108   8.555
 7215POPC   C2B23420   5.646  12.140   8.255
 7215POPC   C3B23421   5.607  12.142   7.955
 7215POPC   C4B23422   5.644  12.110   7.655
 7216POPC   NC323423  22.899  39.251   9.455
 7216POPC   PO423424  22.904  39.244   9.155
 7216POPC   GL123425  22.921  39.241   8.855
 7216POPC   GL223426  23.078  39.203   8.855
 7216POPC   C1A23427  22.961  39.277   8.555
 7216POPC   D2A23428  22.906  39.233   8.255
 7216POPC   C3A23429  22.962  39.230   7.955
 7216POPC   C4A23430  22.954  39.196   7.655
 7216POPC   C1B23431  23.206  39.224   8.555
 7216POPC   C2B23432  23.208  39.282   8.255
 7216POPC   C3B23433  23.152  39.252   7.955
 7216POPC   C4B23434  23.188  39.280   7.655
 7217POPC   NC323435  26.013  19.837   9.455
 7217POPC   PO423436  25.992  19.861   9.155
 7217POPC   GL123437  26.025  19.805   8.855
 7217POPC   GL223438  25.954  19.987   8.855
 7217POPC   C1A23439  26.077  19.860   8.555
 7217POPC   D2A23440  26.050  19.857   8.255
 7217POPC   C3A23441  26.006  19.812   7.955
 7217POPC   C4A23442  26.079  19.790   7.655
 7217POPC   C1B23443  25.984  20.067   8.555
 7217POPC   C2B23444  25.969  20.052   8.255
 7217POPC   C3B23445  25.976  20.033   7.955
 7217POPC   C4B23446  25.977  20.064   7.655
 7218POPC   NC323447  17.482  39.271   9.455
 7218POPC   PO423448  17.518  39.271   9.155
 7218POPC   GL123449  17.550  39.199   8.855
 7218POPC   GL223450  17.449  39.179   8.855
 7218POPC   C1A23451  17.482  39.223   8.555
 7218POPC   D2A23452  17.469  39.238   8.255
 7218POPC   C3A23453  17.542  39.204   7.955
 7218POPC   C4A23454  17.528  39.190   7.655
 7218POPC   C1B23455  17.377  39.039   8.555
 7218POPC   C2B23456  17.360  39.003   8.255
 7218POPC   C3B23457  17.339  39.097   7.955
 7218POPC   C4B23458  17.302  39.037   7.655
 7219POPC   NC323459  33.028  20.610   9.455
 7219POPC   PO423460  33.010  20.608   9.155
 7219POPC   GL123461  33.020  20.588   8.855
 7219POPC   GL223462  33.046  20.483   8.855
 7219POPC   C1A23463  32.985  20.595   8.555
 7219POPC   D2A23464  33.069  20.614   8.255
 7219POPC   C3A23465  33.068  20.619   7.955
 7219POPC   C4A23466  32.996  20.592   7.655
 7219POPC   C1B23467  33.033  20.327   8.555
 7219POPC   C2B23468  33.014  20.366   8.255
 7219POPC   C3B23469  32.965  20.323   7.955
 7219POPC   C4B23470  32.986  20.332   7.655
 7220POPC   NC323471  39.227  12.100   9.455
 7220POPC   PO423472  39.208  12.113   9.155
 7220POPC   GL123473  39.192  12.032   8.855
 7220POPC   GL223474  39.257  11.993   8.855
 7220POPC   C1A23475  39.194  12.036   8.555
 7220POPC   D2A23476  39.252  12.057   8.255
 7220POPC   C3A23477  39.280  12.032   7.955
 7220POPC   C4A23478  39.245  12.080   7.655
 7220POPC   C1B23479  39.273  11.803   8.555
 7220POPC   C2B23480  39.306  11.848   8.255
 7220POPC   C3B23481  39.274  11.852   7.955
 7220POPC   C4B23482  39.323  11.831   7.655
 7221POPC   NC323483  39.209  15.155   9.455
 7221POPC   PO423484  39.196  15.223   9.155
 7221POPC   GL123485  39.205  15.226   8.855
 7221POPC   GL223486  39.275  15.065   8.855
 7221POPC   C1A23487  39.233  15.157   8.555
 7221POPC   D2A23488  39.205  15.176   8.255
 7221POPC   C3A23489  39.244  15.217   7.955
 7221POPC   C4A23490  39.186  15.220   7.655
 7221POPC   C1B23491  39.456  15.023   8.555
 7221POPC   C2B23492  39.378  15.012   8.255
 7221POPC   C3B23493  39.416  15.054   7.955
 7221POPC   C4B23494  39.447  14.999   7.655
 7222POPC   NC323495   2.750  31.468   9.455
 7222POPC   PO423496   2.734  31.451   9.155
 7222POPC   GL123497   2.736  31.499   8.855
 7222POPC   GL223498   2.873  31.606   8.855
 7222POPC   C1A23499   2.738  31.465   8.555
 7222POPC   D2A23500   2.748  31.444   8.255
 7222POPC   C3A23501   2.751  31.513   7.955
 7222POPC   C4A23502   2.742  31.490   7.655
 7222POPC   C1B23503   2.940  31.694   8.555
 7222POPC   C2B23504   2.941  31.664   8.255
 7222POPC   C3B23505   2.902  31.701   7.955
 7222POPC   C4B23506   2.958  31.637   7.655
 7223POPC   NC323507   2.766  42.327   9.455
 7223POPC   PO423508   2.743  42.287   9.155
 7223POPC   GL123509   2.812  42.375   8.855
 7223POPC   GL223510   2.660  42.431   8.855
 7223POPC   C1A23511   2.730  42.293   8.555
 7223POPC   D2A23512   2.782  42.307   8.255
 7223POPC   C3A23513   2.797  42.314   7.955
 7223POPC   C4A23514   2.753  42.371   7.655
 7223POPC   C1B23515   2.487  42.383   8.555
 7223POPC   C2B23516   2.511  42.463   8.255
 7223POPC   C3B23517   2.564  42.446   7.955
 7223POPC   C4B23518   2.526  42.437   7.655
 7224POPC   NC323519  31.468  21.391   9.455
 7224POPC   PO423520  31.506  21.337   9.155
 7224POPC   GL123521  31.481  21.393   8.855
 7224POPC   GL223522  31.540  21.470   8.855
 7224POPC   C1A23523  31.432  21.394   8.555
 7224POPC   D2A23524  31.438  21.358   8.255
 7224POPC   C3A23525  31.467  21.388   7.955
 7224POPC   C4A23526  31.479  21.380   7.655
 7224POPC   C1B23527  31.552  21.584   8.555
 7224POPC   C2B23528  31.524  21.655   8.255
 7224POPC   C3B23529  31.529  21.599   7.955
 7224POPC   C4B23530  31.590  21.579   7.655
 7225POPC   NC323531  23.737  19.010   9.455
 7225POPC   PO423532  23.698  19.059   9.155
 7225POPC   GL123533  23.724  19.054   8.855
 7225POPC   GL223534  23.808  19.007   8.855
 7225POPC   C1A23535  23.693  19.011   8.555
 7225POPC   D2A23536  23.710  19.013   8.255
 7225POPC   C3A23537  23.730  19.089   7.955
 7225POPC   C4A23538  23.722  19.044   7.655
 7225POPC   C1B23539  23.940  18.989   8.555
 7225POPC   C2B23540  23.998  19.016   8.255
 7225POPC   C3B23541  23.911  19.001   7.955
 7225POPC   C4B23542  23.944  19.066   7.655
 7226POPC   NC323543  27.620  31.479   9.455
 7226POPC   PO423544  27.564  31.481   9.155
 7226POPC   GL123545  27.638  31.479   8.855
 7226POPC   GL223546  27.713  31.424   8.855
 7226POPC   C1A23547  27.620  31.494   8.555
 7226POPC   D2A23548  27.625  31.506   8.255
 7226POPC   C3A23549  27.625  31.508   7.955
 7226POPC   C4A23550  27.613  31.487   7.655
 7226POPC   C1B23551  27.838  31.517   8.555
 7226POPC   C2B23552  27.889  31.478   8.255
 7226POPC   C3B23553  27.803  31.477   7.955
 7226POPC   C4B23554  27.820  31.506   7.655
 7227POPC   NC323555  41.526   9.000   9.455
 7227POPC   PO423556  41.580   8.971   9.155
 7227POPC   GL123557  41.531   8.936   8.855
 7227POPC   GL223558  41.580   8.840   8.855
 7227POPC   C1A23559  41.584   8.940   8.555
 7227POPC   D2A23560  41.513   9.017   8.255
 7227POPC   C3A23561  41.588   8.930   7.955
 7227POPC   C4A23562  41.582   8.961   7.655
 7227POPC   C1B23563  41.561   8.711   8.555
 7227POPC   C2B23564  41.536   8.765   8.255
 7227POPC   C3B23565  41.540   8.697   7.955
 7227POPC   C4B23566  41.574   8.746   7.655
 7228POPC   NC323567  25.298  19.035   9.455
 7228POPC   PO423568  25.243  19.086   9.155
 7228POPC   GL123569  25.220  19.087   8.855
 7228POPC   GL223570  25.296  19.177   8.855
 7228POPC   C1A23571  25.249  19.093   8.555
 7228POPC   D2A23572  25.252  19.048   8.255
 7228POPC   C3A23573  25.312  19.062   7.955
 7228POPC   C4A23574  25.291  19.057   7.655
 7228POPC   C1B23575  25.411  19.249   8.555
 7228POPC   C2B23576  25.369  19.251   8.255
 7228POPC   C3B23577  25.387  19.234   7.955
 7228POPC   C4B23578  25.402  19.303   7.655
 7229POPC   NC323579  25.297  15.177   9.455
 7229POPC   PO423580  25.254  15.199   9.155
 7229POPC   GL123581  25.272  15.200   8.855
 7229POPC   GL223582  25.357  15.207   8.855
 7229POPC   C1A23583  25.233  15.196   8.555
 7229POPC   D2A23584  25.247  15.156   8.255
 7229POPC   C3A23585  25.298  15.142   7.955
 7229POPC   C4A23586  25.294  15.200   7.655
 7229POPC   C1B23587  25.528  15.175   8.555
 7229POPC   C2B23588  25.475  15.197   8.255
 7229POPC   C3B23589  25.507  15.248   7.955
 7229POPC   C4B23590  25.470  15.212   7.655
 7230POPC   NC323591   9.753  16.714   9.455
 7230POPC   PO423592   9.792  16.769   9.155
 7230POPC   GL123593   9.752  16.698   8.855
 7230POPC   GL223594   9.880  16.611   8.855
 7230POPC   C1A23595   9.706  16.766   8.555
 7230POPC   D2A23596   9.724  16.746   8.255
 7230POPC   C3A23597   9.700  16.711   7.955
 7230POPC   C4A23598   9.750  16.692   7.655
 7230POPC   C1B23599   9.925  16.591   8.555
 7230POPC   C2B23600   9.923  16.589   8.255
 7230POPC   C3B23601   9.971  16.603   7.955
 7230POPC   C4B23602   9.904  16.537   7.655
 7231POPC   NC323603  38.423  19.815   9.455
 7231POPC   PO423604  38.497  19.867   9.155
 7231POPC   GL123605  38.460  19.847   8.855
 7231POPC   GL223606  38.508  19.964   8.855
 7231POPC   C1A23607  38.439  19.877   8.555
 7231POPC   D2A23608  38.430  19.870   8.255
 7231POPC   C3A23609  38.444  19.835   7.955
 7231POPC   C4A23610  38.469  19.795   7.655
 7231POPC   C1B23611  38.650  20.044   8.555
 7231POPC   C2B23612  38.597  20.050   8.255
 7231POPC   C3B23613  38.645  20.063   7.955
 7231POPC   C4B23614  38.622  20.035   7.655
 7232POPC   NC323615  36.166  26.056   9.455
 7232POPC   PO423616  36.133  26.088   9.155
 7232POPC   GL123617  36.143  26.086   8.855
 7232POPC   GL223618  36.212  25.879   8.855
 7232POPC   C1A23619  36.167  26.013   8.555
 7232POPC   D2A23620  36.113  26.078   8.255
 7232POPC   C3A23621  36.138  26.032   7.955
 7232POPC   C4A23622  36.112  26.002   7.655
 7232POPC   C1B23623  36.247  25.820   8.555
 7232POPC   C2B23624  36.209  25.779   8.255
 7232POPC   C3B23625  36.232  25.799   7.955
 7232POPC   C4B23626  36.239  25.811   7.655
 7233POPC   NC323627  25.280  27.548   9.455
 7233POPC   PO423628  25.246  27.584   9.155
 7233POPC   GL123629  25.257  27.614   8.855
 7233POPC   GL223630  25.197  27.516   8.855
 7233POPC   C1A23631  25.290  27.605   8.555
 7233POPC   D2A23632  25.232  27.630   8.255
 7233POPC   C3A23633  25.257  27.642   7.955
 7233POPC   C4A23634  25.218  27.611   7.655
 7233POPC   C1B23635  25.235  27.396   8.555
 7233POPC   C2B23636  25.176  27.336   8.255
 7233POPC   C3B23637  25.193  27.362   7.955
 7233POPC   C4B23638  25.204  27.351   7.655
 7234POPC   NC323639  15.135  42.299   9.455
 7234POPC   PO423640  15.192  42.291   9.155
 7234POPC   GL123641  15.203  42.312   8.855
 7234POPC   GL223642  15.113  42.416   8.855
 7234POPC   C1A23643  15.149  42.298   8.555
 7234POPC   D2A23644  15.148  42.362   8.255
 7234POPC   C3A23645  15.148  42.308   7.955
 7234POPC   C4A23646  15.223  42.341   7.655
 7234POPC   C1B23647  15.077  42.549   8.555
 7234POPC   C2B23648  15.117  42.563   8.255
 7234POPC   C3B23649  15.071  42.615   7.955
 7234POPC   C4B23650  15.139  42.532   7.655
 7235POPC   NC323651  40.016   1.972   9.455
 7235POPC   PO423652  40.010   1.953   9.155
 7235POPC   GL123653  40.038   2.025   8.855
 7235POPC   GL223654  39.907   1.998   8.855
 7235POPC   C1A23655  40.048   1.962   8.555
 7235POPC   D2A23656  40.056   2.026   8.255
 7235POPC   C3A23657  40.014   1.970   7.955
 7235POPC   C4A23658  39.979   1.954   7.655
 7235POPC   C1B23659  39.773   2.057   8.555
 7235POPC   C2B23660  39.742   2.070   8.255
 7235POPC   C3B23661  39.744   2.075   7.955
 7235POPC   C4B23662  39.742   2.018   7.655
 7236POPC   NC323663  27.577  22.939   9.455
 7236POPC   PO423664  27.613  22.892   9.155
 7236POPC   GL123665  27.562  22.910   8.855
 7236POPC   GL223666  27.513  22.914   8.855
 7236POPC   C1A23667  27.557  22.931   8.555
 7236POPC   D2A23668  27.583  22.945   8.255
 7236POPC   C3A23669  27.570  22.954   7.955
 7236POPC   C4A23670  27.613  22.955   7.655
 7236POPC   C1B23671  27.386  22.940   8.555
 7236POPC   C2B23672  27.354  22.966   8.255
 7236POPC   C3B23673  27.305  22.978   7.955
 7236POPC   C4B23674  27.348  22.972   7.655
 7237POPC   NC323675  41.526  22.971   9.455
 7237POPC   PO423676  41.520  22.969   9.155
 7237POPC   GL123677  41.540  22.895   8.855
 7237POPC   GL223678  41.499  22.807   8.855
 7237POPC   C1A23679  41.512  22.934   8.555
 7237POPC   D2A23680  41.569  22.931   8.255
 7237POPC   C3A23681  41.565  22.929   7.955
 7237POPC   C4A23682  41.544  22.986   7.655
 7237POPC   C1B23683  41.517  22.643   8.555
 7237POPC   C2B23684  41.533  22.678   8.255
 7237POPC   C3B23685  41.546  22.662   7.955
 7237POPC   C4B23686  41.552  22.689   7.655
 7238POPC   NC323687  32.292  26.830   9.455
 7238POPC   PO423688  32.250  26.770   9.155
 7238POPC   GL123689  32.247  26.815   8.855
 7238POPC   GL223690  32.170  26.775   8.855
 7238POPC   C1A23691  32.234  26.823   8.555
 7238POPC   D2A23692  32.284  26.814   8.255
 7238POPC   C3A23693  32.213  26.817   7.955
 7238POPC   C4A23694  32.221  26.863   7.655
 7238POPC   C1B23695  32.020  26.744   8.555
 7238POPC   C2B23696  31.976  26.728   8.255
 7238POPC   C3B23697  31.985  26.706   7.955
 7238POPC   C4B23698  32.024  26.726   7.655
 7239POPC   NC323699   1.958   5.052   9.455
 7239POPC   PO423700   1.971   5.125   9.155
 7239POPC   GL123701   2.037   5.050   8.855
 7239POPC   GL223702   1.995   5.254   8.855
 7239POPC   C1A23703   2.004   5.100   8.555
 7239POPC   D2A23704   1.990   5.117   8.255
 7239POPC   C3A23705   2.000   5.142   7.955
 7239POPC   C4A23706   1.957   5.085   7.655
 7239POPC   C1B23707   1.975   5.323   8.555
 7239POPC   C2B23708   2.026   5.372   8.255
 7239POPC   C3B23709   2.030   5.387   7.955
 7239POPC   C4B23710   2.045   5.365   7.655
 7240POPC   NC323711  14.421  26.060   9.455
 7240POPC   PO423712  14.356  26.038   9.155
 7240POPC   GL123713  14.410  26.008   8.855
 7240POPC   GL223714  14.273  26.135   8.855
 7240POPC   C1A23715  14.414  26.006   8.555
 7240POPC   D2A23716  14.442  26.077   8.255
 7240POPC   C3A23717  14.385  26.054   7.955
 7240POPC   C4A23718  14.426  26.005   7.655
 7240POPC   C1B23719  14.209  26.109   8.555
 7240POPC   C2B23720  14.144  26.200   8.255
 7240POPC   C3B23721  14.208  26.201   7.955
 7240POPC   C4B23722  14.205  26.143   7.655
 7241POPC   NC323723  15.159  37.698   9.455
 7241POPC   PO423724  15.211  37.709   9.155
 7241POPC   GL123725  15.178  37.659   8.855
 7241POPC   GL223726  15.305  37.738   8.855
 7241POPC   C1A23727  15.200  37.724   8.555
 7241POPC   D2A23728  15.218  37.702   8.255
 7241POPC   C3A23729  15.166  37.630   7.955
 7241POPC   C4A23730  15.227  37.639   7.655
 7241POPC   C1B23731  15.470  37.731   8.555
 7241POPC   C2B23732  15.387  37.669   8.255
 7241POPC   C3B23733  15.446  37.675   7.955
 7241POPC   C4B23734  15.399  37.697   7.655
 7242POPC   NC323735  10.499   7.382   9.455
 7242POPC   PO423736  10.568   7.421   9.155
 7242POPC   GL123737  10.481   7.466   8.855
 7242POPC   GL223738  10.514   7.327   8.855
 7242POPC   C1A23739  10.560   7.445   8.555
 7242POPC   D2A23740  10.504   7.400   8.255
 7242POPC   C3A23741  10.560   7.393   7.955
 7242POPC   C4A23742  10.504   7.455   7.655
 7242POPC   C1B23743  10.537   7.188   8.555
 7242POPC   C2B23744  10.499   7.150   8.255
 7242POPC   C3B23745  10.514   7.142   7.955
 7242POPC   C4B23746  10.513   7.185   7.655
 7243POPC   NC323747   0.467   7.377   9.455
 7243POPC   PO423748   0.440   7.455   9.155
 7243POPC   GL123749   0.470   7.461   8.855
 7243POPC   GL223750   0.595   7.524   8.855
 7243POPC   C1A23751   0.454   7.428   8.555
 7243POPC   D2A23752   0.401   7.382   8.255
 7243POPC   C3A23753   0.474   7.434   7.955
 7243POPC   C4A23754   0.448   7.460   7.655
 7243POPC   C1B23755   0.630   7.532   8.555
 7243POPC   C2B23756   0.646   7.510   8.255
 7243POPC   C3B23757   0.617   7.595   7.955
 7243POPC   C4B23758   0.673   7.517   7.655
 7244POPC   NC323759  33.835   8.925   9.455
 7244POPC   PO423760  33.786   9.022   9.155
 7244POPC   GL123761  33.817   9.004   8.855
 7244POPC   GL223762  33.803   9.094   8.855
 7244POPC   C1A23763  33.792   8.935   8.555
 7244POPC   D2A23764  33.836   8.924   8.255
 7244POPC   C3A23765  33.750   8.932   7.955
 7244POPC   C4A23766  33.830   8.983   7.655
 7244POPC   C1B23767  33.802   9.232   8.555
 7244POPC   C2B23768  33.805   9.210   8.255
 7244POPC   C3B23769  33.842   9.232   7.955
 7244POPC   C4B23770  33.835   9.180   7.655
 7245POPC   NC323771  15.198  25.256   9.455
 7245POPC   PO423772  15.224  25.308   9.155
 7245POPC   GL123773  15.153  25.247   8.855
 7245POPC   GL223774  15.248  25.225   8.855
 7245POPC   C1A23775  15.208  25.304   8.555
 7245POPC   D2A23776  15.145  25.257   8.255
 7245POPC   C3A23777  15.137  25.303   7.955
 7245POPC   C4A23778  15.191  25.314   7.655
 7245POPC   C1B23779  15.340  25.138   8.555
 7245POPC   C2B23780  15.391  25.135   8.255
 7245POPC   C3B23781  15.393  25.136   7.955
 7245POPC   C4B23782  15.388  25.106   7.655
 7246POPC   NC323783  24.496   4.343   9.455
 7246POPC   PO423784  24.495   4.325   9.155
 7246POPC   GL123785  24.509   4.269   8.855
 7246POPC   GL223786  24.362   4.283   8.855
 7246POPC   C1A23787  24.479   4.304   8.555
 7246POPC   D2A23788  24.507   4.313   8.255
 7246POPC   C3A23789  24.475   4.360   7.955
 7246POPC   C4A23790  24.519   4.276   7.655
 7246POPC   C1B23791  24.250   4.207   8.555
 7246POPC   C2B23792  24.259   4.267   8.255
 7246POPC   C3B23793  24.252   4.247   7.955
 7246POPC   C4B23794  24.281   4.251   7.655
 7247POPC   NC323795  33.023  21.409   9.455
 7247POPC   PO423796  33.026  21.431   9.155
 7247POPC   GL123797  32.984  21.431   8.855
 7247POPC   GL223798  33.036  21.473   8.855
 7247POPC   C1A23799  33.011  21.413   8.555
 7247POPC   D2A23800  32.986  21.387   8.255
 7247POPC   C3A23801  33.030  21.421   7.955
 7247POPC   C4A23802  33.055  21.422   7.655
 7247POPC   C1B23803  33.189  21.575   8.555
 7247POPC   C2B23804  33.135  21.621   8.255
 7247POPC   C3B23805  33.155  21.576   7.955
 7247POPC   C4B23806  33.149  21.640   7.655
 7248POPC   NC323807  12.072  37.690   9.455
 7248POPC   PO423808  12.124  37.665   9.155
 7248POPC   GL123809  12.067  37.641   8.855
 7248POPC   GL223810  11.988  37.815   8.855
 7248POPC   C1A23811  12.051  37.645   8.555
 7248POPC   D2A23812  12.063  37.652   8.255
 7248POPC   C3A23813  12.072  37.630   7.955
 7248POPC   C4A23814  12.066  37.716   7.655
 7248POPC   C1B23815  12.015  37.891   8.555
 7248POPC   C2B23816  11.954  37.892   8.255
 7248POPC   C3B23817  11.999  37.925   7.955
 7248POPC   C4B23818  11.991  37.910   7.655
 7249POPC   NC323819  39.192  42.302   9.455
 7249POPC   PO423820  39.202  42.318   9.155
 7249POPC   GL123821  39.261  42.344   8.855
 7249POPC   GL223822  39.116  42.326   8.855
 7249POPC   C1A23823  39.206  42.307   8.555
 7249POPC   D2A23824  39.228  42.369   8.255
 7249POPC   C3A23825  39.275  42.321   7.955
 7249POPC   C4A23826  39.199  42.382   7.655
 7249POPC   C1B23827  38.946  42.345   8.555
 7249POPC   C2B23828  38.954  42.278   8.255
 7249POPC   C3B23829  38.935  42.345   7.955
 7249POPC   C4B23830  38.945  42.267   7.655
 7250POPC   NC323831   8.154   5.855   9.455
 7250POPC   PO423832   8.198   5.844   9.155
 7250POPC   GL123833   8.198   5.908   8.855
 7250POPC   GL223834   8.174   5.959   8.855
 7250POPC   C1A23835   8.182   5.904   8.555
 7250POPC   D2A23836   8.218   5.885   8.255
 7250POPC   C3A23837   8.231   5.854   7.955
 7250POPC   C4A23838   8.155   5.820   7.655
 7250POPC   C1B23839   8.180   6.080   8.555
 7250POPC   C2B23840   8.123   6.134   8.255
 7250POPC   C3B23841   8.151   6.104   7.955
 7250POPC   C4B23842   8.181   6.147   7.655
 7251POPC   NC323843   1.247  42.319   9.455
 7251POPC   PO423844   1.166  42.329   9.155
 7251POPC   GL123845   1.203  42.320   8.855
 7251POPC   GL223846   1.140  42.436   8.855
 7251POPC   C1A23847   1.240  42.326   8.555
 7251POPC   D2A23848   1.256  42.291   8.255
 7251POPC   C3A23849   1.262  42.319   7.955
 7251POPC   C4A23850   1.263  42.332   7.655
 7251POPC   C1B23851   1.063  42.464   8.555
 7251POPC   C2B23852   1.038  42.515   8.255
 7251POPC   C3B23853   1.024  42.462   7.955
 7251POPC   C4B23854   0.987  42.491   7.655
 7252POPC   NC323855  43.159  19.011   9.455
 7252POPC   PO423856  43.089  19.012   9.155
 7252POPC   GL123857  43.113  19.085   8.855
 7252POPC   GL223858  43.173  19.007   8.855
 7252POPC   C1A23859  43.115  19.067   8.555
 7252POPC   D2A23860  43.106  19.107   8.255
 7252POPC   C3A23861  43.134  19.101   7.955
 7252POPC   C4A23862  43.111  19.048   7.655
 7252POPC   C1B23863  43.343  18.906   8.555
 7252POPC   C2B23864  43.293  18.920   8.255
 7252POPC   C3B23865  43.306  18.918   7.955
 7252POPC   C4B23866  43.264  18.880   7.655
 7253POPC   NC323867   5.856  39.248   9.455
 7253POPC   PO423868   5.831  39.268   9.155
 7253POPC   GL123869   5.871  39.260   8.855
 7253POPC   GL223870   5.842  39.344   8.855
 7253POPC   C1A23871   5.872  39.248   8.555
 7253POPC   D2A23872   5.895  39.196   8.255
 7253POPC   C3A23873   5.821  39.201   7.955
 7253POPC   C4A23874   5.829  39.254   7.655
 7253POPC   C1B23875   5.886  39.479   8.555
 7253POPC   C2B23876   5.857  39.513   8.255
 7253POPC   C3B23877   5.861  39.492   7.955
 7253POPC   C4B23878   5.846  39.477   7.655
 7254POPC   NC323879  16.777  27.591   9.455
 7254POPC   PO423880  16.691  27.580   9.155
 7254POPC   GL123881  16.741  27.581   8.855
 7254POPC   GL223882  16.788  27.520   8.855
 7254POPC   C1A23883  16.761  27.549   8.555
 7254POPC   D2A23884  16.780  27.573   8.255
 7254POPC   C3A23885  16.763  27.559   7.955
 7254POPC   C4A23886  16.697  27.552   7.655
 7254POPC   C1B23887  16.803  27.343   8.555
 7254POPC   C2B23888  16.736  27.356   8.255
 7254POPC   C3B23889  16.757  27.330   7.955
 7254POPC   C4B23890  16.816  27.359   7.655
 7255POPC   NC323891  15.947   5.068   9.455
 7255POPC   PO423892  15.906   5.078   9.155
 7255POPC   GL123893  15.992   5.073   8.855
 7255POPC   GL223894  15.854   5.116   8.855
 7255POPC   C1A23895  15.958   5.137   8.555
 7255POPC   D2A23896  15.932   5.138   8.255
 7255POPC   C3A23897  15.957   5.119   7.955
 7255POPC   C4A23898  15.978   5.087   7.655
 7255POPC   C1B23899  15.760   5.164   8.555
 7255POPC   C2B23900  15.666   5.182   8.255
 7255POPC   C3B23901  15.739   5.114   7.955
 7255POPC   C4B23902  15.751   5.153   7.655
 7256POPC   NC323903   6.653   9.744   9.455
 7256POPC   PO423904   6.680   9.772   9.155
 7256POPC   GL123905   6.661   9.751   8.855
 7256POPC   GL223906   6.572   9.655   8.855
 7256POPC   C1A23907   6.682   9.773   8.555
 7256POPC   D2A23908   6.626   9.763   8.255
 7256POPC   C3A23909   6.685   9.716   7.955
 7256POPC   C4A23910   6.631   9.703   7.655
 7256POPC   C1B23911   6.553   9.567   8.555
 7256POPC   C2B23912   6.498   9.519   8.255
 7256POPC   C3B23913   6.495   9.528   7.955
 7256POPC   C4B23914   6.538   9.523   7.655
 7257POPC   NC323915   0.464  34.541   9.455
 7257POPC   PO423916   0.451  34.598   9.155
 7257POPC   GL123917   0.447  34.613   8.855
 7257POPC   GL223918   0.582  34.569   8.855
 7257POPC   C1A23919   0.390  34.605   8.555
 7257POPC   D2A23920   0.465  34.579   8.255
 7257POPC   C3A23921   0.434  34.619   7.955
 7257POPC   C4A23922   0.439  34.599   7.655
 7257POPC   C1B23923   0.642  34.577   8.555
 7257POPC   C2B23924   0.705  34.636   8.255
 7257POPC   C3B23925   0.731  34.601   7.955
 7257POPC   C4B23926   0.731  34.649   7.655
 7258POPC   NC323927  39.210   1.948   9.455
 7258POPC   PO423928  39.186   2.028   9.155
 7258POPC   GL123929  39.200   2.008   8.855
 7258POPC   GL223930  39.258   1.884   8.855
 7258POPC   C1A23931  39.201   1.952   8.555
 7258POPC   D2A23932  39.270   1.956   8.255
 7258POPC   C3A23933  39.250   2.031   7.955
 7258POPC   C4A23934  39.182   1.983   7.655
 7258POPC   C1B23935  39.368   1.723   8.555
 7258POPC   C2B23936  39.362   1.723   8.255
 7258POPC   C3B23937  39.377   1.739   7.955
 7258POPC   C4B23938  39.332   1.744   7.655
 7259POPC   NC323939  25.269  41.600   9.455
 7259POPC   PO423940  25.292  41.556   9.155
 7259POPC   GL123941  25.251  41.539   8.855
 7259POPC   GL223942  25.292  41.422   8.855
 7259POPC   C1A23943  25.229  41.510   8.555
 7259POPC   D2A23944  25.299  41.561   8.255
 7259POPC   C3A23945  25.218  41.520   7.955
 7259POPC   C4A23946  25.231  41.563   7.655
 7259POPC   C1B23947  25.322  41.275   8.555
 7259POPC   C2B23948  25.323  41.362   8.255
 7259POPC   C3B23949  25.386  41.349   7.955
 7259POPC   C4B23950  25.307  41.369   7.655
 7260POPC   NC323951  38.412  25.219   9.455
 7260POPC   PO423952  38.481  25.277   9.155
 7260POPC   GL123953  38.483  25.300   8.855
 7260POPC   GL223954  38.528  25.343   8.855
 7260POPC   C1A23955  38.474  25.259   8.555
 7260POPC   D2A23956  38.429  25.264   8.255
 7260POPC   C3A23957  38.423  25.313   7.955
 7260POPC   C4A23958  38.496  25.222   7.655
 7260POPC   C1B23959  38.522  25.484   8.555
 7260POPC   C2B23960  38.529  25.484   8.255
 7260POPC   C3B23961  38.527  25.467   7.955
 7260POPC   C4B23962  38.563  25.489   7.655
 7261POPC   NC323963  31.429  16.000   9.455
 7261POPC   PO423964  31.497  15.980   9.155
 7261POPC   GL123965  31.425  15.989   8.855
 7261POPC   GL223966  31.597  15.890   8.855
 7261POPC   C1A23967  31.522  15.985   8.555
 7261POPC   D2A23968  31.521  15.942   8.255
 7261POPC   C3A23969  31.518  15.997   7.955
 7261POPC   C4A23970  31.468  15.912   7.655
 7261POPC   C1B23971  31.672  15.851   8.555
 7261POPC   C2B23972  31.720  15.843   8.255
 7261POPC   C3B23973  31.746  15.881   7.955
 7261POPC   C4B23974  31.705  15.888   7.655
 7262POPC   NC323975  23.744  33.047   9.455
 7262POPC   PO423976  23.726  33.004   9.155
 7262POPC   GL123977  23.676  33.003   8.855
 7262POPC   GL223978  23.799  32.973   8.855
 7262POPC   C1A23979  23.698  33.051   8.555
 7262POPC   D2A23980  23.720  33.029   8.255
 7262POPC   C3A23981  23.665  32.978   7.955
 7262POPC   C4A23982  23.688  33.033   7.655
 7262POPC   C1B23983  23.914  32.857   8.555
 7262POPC   C2B23984  23.888  32.835   8.255
 7262POPC   C3B23985  23.927  32.845   7.955
 7262POPC   C4B23986  23.870  32.841   7.655
 7263POPC   NC323987  15.998  34.549   9.455
 7263POPC   PO423988  15.937  34.553   9.155
 7263POPC   GL123989  15.973  34.611   8.855
 7263POPC   GL223990  16.064  34.528   8.855
 7263POPC   C1A23991  15.938  34.556   8.555
 7263POPC   D2A23992  15.968  34.548   8.255
 7263POPC   C3A23993  15.937  34.564   7.955
 7263POPC   C4A23994  15.906  34.612   7.655
 7263POPC   C1B23995  16.242  34.508   8.555
 7263POPC   C2B23996  16.188  34.519   8.255
 7263POPC   C3B23997  16.181  34.541   7.955
 7263POPC   C4B23998  16.188  34.572   7.655
 7264POPC   NC323999   3.515  36.128   9.455
 7264POPC   PO424000   3.538  36.117   9.155
 7264POPC   GL124001   3.513  36.144   8.855
 7264POPC   GL224002   3.626  36.264   8.855
 7264POPC   C1A24003   3.571  36.092   8.555
 7264POPC   D2A24004   3.585  36.086   8.255
 7264POPC   C3A24005   3.534  36.154   7.955
 7264POPC   C4A24006   3.521  36.132   7.655
 7264POPC   C1B24007   3.724  36.300   8.555
 7264POPC   C2B24008   3.736  36.310   8.255
 7264POPC   C3B24009   3.745  36.348   7.955
 7264POPC   C4B24010   3.736  36.336   7.655
 7265POPC   NC324011  21.396  24.492   9.455
 7265POPC   PO424012  21.367  24.442   9.155
 7265POPC   GL124013  21.429  24.499   8.855
 7265POPC   GL224014  21.364  24.392   8.855
 7265POPC   C1A24015  21.343  24.469   8.555
 7265POPC   D2A24016  21.427  24.496   8.255
 7265POPC   C3A24017  21.431  24.462   7.955
 7265POPC   C4A24018  21.369  24.450   7.655
 7265POPC   C1B24019  21.430  24.218   8.555
 7265POPC   C2B24020  21.365  24.196   8.255
 7265POPC   C3B24021  21.363  24.257   7.955
 7265POPC   C4B24022  21.357  24.231   7.655
 7266POPC   NC324023  40.781   4.286   9.455
 7266POPC   PO424024  40.818   4.284   9.155
 7266POPC   GL124025  40.737   4.333   8.855
 7266POPC   GL224026  40.819   4.209   8.855
 7266POPC   C1A24027  40.777   4.358   8.555
 7266POPC   D2A24028  40.832   4.349   8.255
 7266POPC   C3A24029  40.755   4.294   7.955
 7266POPC   C4A24030  40.760   4.272   7.655
 7266POPC   C1B24031  40.766   4.091   8.555
 7266POPC   C2B24032  40.821   4.074   8.255
 7266POPC   C3B24033  40.796   4.078   7.955
 7266POPC   C4B24034  40.825   4.035   7.655
 7267POPC   NC324035  19.830   6.688   9.455
 7267POPC   PO424036  19.843   6.647   9.155
 7267POPC   GL124037  19.874   6.627   8.855
 7267POPC   GL224038  19.765   6.798   8.855
 7267POPC   C1A24039  19.877   6.693   8.555
 7267POPC   D2A24040  19.833   6.599   8.255
 7267POPC   C3A24041  19.860   6.619   7.955
 7267POPC   C4A24042  19.816   6.684   7.655
 7267POPC   C1B24043  19.756   6.926   8.555
 7267POPC   C2B24044  19.832   6.874   8.255
 7267POPC   C3B24045  19.771   6.866   7.955
 7267POPC   C4B24046  19.779   6.841   7.655
 7268POPC   NC324047  39.197  11.274   9.455
 7268POPC   PO424048  39.249  11.251   9.155
 7268POPC   GL124049  39.258  11.294   8.855
 7268POPC   GL224050  39.139  11.194   8.855
 7268POPC   C1A24051  39.238  11.331   8.555
 7268POPC   D2A24052  39.264  11.299   8.255
 7268POPC   C3A24053  39.244  11.289   7.955
 7268POPC   C4A24054  39.261  11.270   7.655
 7268POPC   C1B24055  39.092  11.029   8.555
 7268POPC   C2B24056  39.148  11.038   8.255
 7268POPC   C3B24057  39.081  11.115   7.955
 7268POPC   C4B24058  39.165  11.071   7.655
 7269POPC   NC324059   5.900   7.454   9.455
 7269POPC   PO424060   5.875   7.420   9.155
 7269POPC   GL124061   5.867   7.374   8.855
 7269POPC   GL224062   5.996   7.306   8.855
 7269POPC   C1A24063   5.918   7.399   8.555
 7269POPC   D2A24064   5.861   7.447   8.255
 7269POPC   C3A24065   5.900   7.393   7.955
 7269POPC   C4A24066   5.892   7.379   7.655
 7269POPC   C1B24067   6.077   7.233   8.555
 7269POPC   C2B24068   6.057   7.296   8.255
 7269POPC   C3B24069   6.053   7.292   7.955
 7269POPC   C4B24070   6.102   7.240   7.655
 7270POPC   NC324071  11.287   1.226   9.455
 7270POPC   PO424072  11.319   1.198   9.155
 7270POPC   GL124073  11.318   1.166   8.855
 7270POPC   GL224074  11.272   1.277   8.855
 7270POPC   C1A24075  11.255   1.203   8.555
 7270POPC   D2A24076  11.282   1.236   8.255
 7270POPC   C3A24077  11.304   1.204   7.955
 7270POPC   C4A24078  11.310   1.252   7.655
 7270POPC   C1B24079  11.203   1.397   8.555
 7270POPC   C2B24080  11.177   1.475   8.255
 7270POPC   C3B24081  11.217   1.419   7.955
 7270POPC   C4B24082  11.216   1.469   7.655
 7271POPC   NC324083  33.789   2.012   9.455
 7271POPC   PO424084  33.776   2.039   9.155
 7271POPC   GL124085  33.840   2.006   8.855
 7271POPC   GL224086  33.759   1.845   8.855
 7271POPC   C1A24087  33.801   1.974   8.555
 7271POPC   D2A24088  33.826   2.031   8.255
 7271POPC   C3A24089  33.819   1.968   7.955
 7271POPC   C4A24090  33.824   1.950   7.655
 7271POPC   C1B24091  33.788   1.760   8.555
 7271POPC   C2B24092  33.780   1.778   8.255
 7271POPC   C3B24093  33.740   1.763   7.955
 7271POPC   C4B24094  33.741   1.740   7.655
 7272POPC   NC324095  18.239  43.889   9.455
 7272POPC   PO424096  18.284  43.915   9.155
 7272POPC   GL124097  18.331  43.911   8.855
 7272POPC   GL224098  18.403  44.021   8.855
 7272POPC   C1A24099  18.322  43.843   8.555
 7272POPC   D2A24100  18.298  43.840   8.255
 7272POPC   C3A24101  18.298  43.891   7.955
 7272POPC   C4A24102  18.320  43.840   7.655
 7272POPC   C1B24103  18.425  44.104   8.555
 7272POPC   C2B24104  18.413  44.132   8.255
 7272POPC   C3B24105  18.436  44.045   7.955
 7272POPC   C4B24106  18.402  44.140   7.655
 7273POPC   NC324107  11.265  16.712   9.455
 7273POPC   PO424108  11.315  16.778   9.155
 7273POPC   GL124109  11.286  16.754   8.855
 7273POPC   GL224110  11.292  16.894   8.855
 7273POPC   C1A24111  11.306  16.707   8.555
 7273POPC   D2A24112  11.274  16.753   8.255
 7273POPC   C3A24113  11.341  16.743   7.955
 7273POPC   C4A24114  11.284  16.749   7.655
 7273POPC   C1B24115  11.340  16.933   8.555
 7273POPC   C2B24116  11.368  16.998   8.255
 7273POPC   C3B24117  11.334  16.989   7.955
 7273POPC   C4B24118  11.307  16.972   7.655
 7274POPC   NC324119  43.913   6.651   9.455
 7274POPC   PO424120  43.857   6.684   9.155
 7274POPC   GL124121  43.884   6.661   8.855
 7274POPC   GL224122  44.017   6.685   8.855
 7274POPC   C1A24123  43.843   6.685   8.555
 7274POPC   D2A24124  43.865   6.632   8.255
 7274POPC   C3A24125  43.866   6.639   7.955
 7274POPC   C4A24126  43.890   6.690   7.655
 7274POPC   C1B24127  44.089   6.684   8.555
 7274POPC   C2B24128  44.146   6.749   8.255
 7274POPC   C3B24129  44.138   6.691   7.955
 7274POPC   C4B24130  44.144   6.723   7.655
 7275POPC   NC324131  22.136  30.703   9.455
 7275POPC   PO424132  22.174  30.673   9.155
 7275POPC   GL124133  22.163  30.651   8.855
 7275POPC   GL224134  22.141  30.809   8.855
 7275POPC   C1A24135  22.209  30.708   8.555
 7275POPC   D2A24136  22.137  30.676   8.255
 7275POPC   C3A24137  22.196  30.688   7.955
 7275POPC   C4A24138  22.146  30.693   7.655
 7275POPC   C1B24139  22.153  30.991   8.555
 7275POPC   C2B24140  22.152  30.940   8.255
 7275POPC   C3B24141  22.130  30.934   7.955
 7275POPC   C4B24142  22.114  30.979   7.655
 7276POPC   NC324143  16.727  26.780   9.455
 7276POPC   PO424144  16.738  26.820   9.155
 7276POPC   GL124145  16.691  26.808   8.855
 7276POPC   GL224146  16.564  26.852   8.855
 7276POPC   C1A24147  16.699  26.810   8.555
 7276POPC   D2A24148  16.703  26.859   8.255
 7276POPC   C3A24149  16.705  26.774   7.955
 7276POPC   C4A24150  16.747  26.840   7.655
 7276POPC   C1B24151  16.462  26.866   8.555
 7276POPC   C2B24152  16.475  26.841   8.255
 7276POPC   C3B24153  16.516  26.888   7.955
 7276POPC   C4B24154  16.529  26.860   7.655
 7277POPC   NC324155  17.467  18.234   9.455
 7277POPC   PO424156  17.462  18.241   9.155
 7277POPC   GL124157  17.505  18.318   8.855
 7277POPC   GL224158  17.521  18.408   8.855
 7277POPC   C1A24159  17.501  18.290   8.555
 7277POPC   D2A24160  17.544  18.266   8.255
 7277POPC   C3A24161  17.550  18.247   7.955
 7277POPC   C4A24162  17.535  18.245   7.655
 7277POPC   C1B24163  17.674  18.531   8.555
 7277POPC   C2B24164  17.679  18.468   8.255
 7277POPC   C3B24165  17.665  18.523   7.955
 7277POPC   C4B24166  17.680  18.451   7.655
 7278POPC   NC324167  44.688  26.779   9.455
 7278POPC   PO424168  44.625  26.830   9.155
 7278POPC   GL124169  44.644  26.808   8.855
 7278POPC   GL224170  44.689  26.988   8.855
 7278POPC   C1A24171  44.650  26.859   8.555
 7278POPC   D2A24172  44.678  26.768   8.255
 7278POPC   C3A24173  44.650  26.839   7.955
 7278POPC   C4A24174  44.657  26.843   7.655
 7278POPC   C1B24175  44.578  27.062   8.555
 7278POPC   C2B24176  44.660  27.018   8.255
 7278POPC   C3B24177  44.622  27.048   7.955
 7278POPC   C4B24178  44.626  27.045   7.655
 7279POPC   NC324179  31.464  26.839   9.455
 7279POPC   PO424180  31.457  26.829   9.155
 7279POPC   GL124181  31.479  26.834   8.855
 7279POPC   GL224182  31.416  26.925   8.855
 7279POPC   C1A24183  31.430  26.799   8.555
 7279POPC   D2A24184  31.470  26.846   8.255
 7279POPC   C3A24185  31.439  26.862   7.955
 7279POPC   C4A24186  31.447  26.839   7.655
 7279POPC   C1B24187  31.350  26.983   8.555
 7279POPC   C2B24188  31.328  27.037   8.255
 7279POPC   C3B24189  31.318  27.055   7.955
 7279POPC   C4B24190  31.294  27.060   7.655
 7280POPC   NC324191  19.852  33.037   9.455
 7280POPC   PO424192  19.867  33.071   9.155
 7280POPC   GL124193  19.806  32.994   8.855
 7280POPC   GL224194  19.903  33.080   8.855
 7280POPC   C1A24195  19.858  33.068   8.555
 7280POPC   D2A24196  19.830  33.068   8.255
 7280POPC   C3A24197  19.868  33.072   7.955
 7280POPC   C4A24198  19.838  33.051   7.655
 7280POPC   C1B24199  20.062  33.188   8.555
 7280POPC   C2B24200  20.024  33.183   8.255
 7280POPC   C3B24201  20.009  33.164   7.955
 7280POPC   C4B24202  20.031  33.177   7.655
 7281POPC   NC324203   5.834  35.350   9.455
 7281POPC   PO424204   5.860  35.318   9.155
 7281POPC   GL124205   5.892  35.378   8.855
 7281POPC   GL224206   5.925  35.238   8.855
 7281POPC   C1A24207   5.900  35.372   8.555
 7281POPC   D2A24208   5.879  35.359   8.255
 7281POPC   C3A24209   5.892  35.390   7.955
 7281POPC   C4A24210   5.892  35.307   7.655
 7281POPC   C1B24211   6.018  35.187   8.555
 7281POPC   C2B24212   6.081  35.152   8.255
 7281POPC   C3B24213   6.034  35.151   7.955
 7281POPC   C4B24214   6.072  35.162   7.655
 7282POPC   NC324215  15.909  23.723   9.455
 7282POPC   PO424216  15.971  23.738   9.155
 7282POPC   GL124217  15.948  23.703   8.855
 7282POPC   GL224218  15.930  23.610   8.855
 7282POPC   C1A24219  15.982  23.746   8.555
 7282POPC   D2A24220  15.909  23.695   8.255
 7282POPC   C3A24221  15.956  23.737   7.955
 7282POPC   C4A24222  15.987  23.703   7.655
 7282POPC   C1B24223  15.993  23.488   8.555
 7282POPC   C2B24224  15.955  23.432   8.255
 7282POPC   C3B24225  15.975  23.448   7.955
 7282POPC   C4B24226  15.999  23.453   7.655
 7283POPC   NC324227   8.957  10.511   9.455
 7283POPC   PO424228   8.999  10.492   9.155
 7283POPC   GL124229   9.011  10.531   8.855
 7283POPC   GL224230   9.058  10.629   8.855
 7283POPC   C1A24231   9.018  10.544   8.555
 7283POPC   D2A24232   8.976  10.564   8.255
 7283POPC   C3A24233   8.944  10.499   7.955
 7283POPC   C4A24234   8.982  10.565   7.655
 7283POPC   C1B24235   9.131  10.742   8.555
 7283POPC   C2B24236   9.192  10.725   8.255
 7283POPC   C3B24237   9.171  10.743   7.955
 7283POPC   C4B24238   9.139  10.678   7.655
 7284POPC   NC324239   0.398  33.838   9.455
 7284POPC   PO424240   0.396  33.826   9.155
 7284POPC   GL124241   0.447  33.755   8.855
 7284POPC   GL224242   0.576  33.863   8.855
 7284POPC   C1A24243   0.430  33.756   8.555
 7284POPC   D2A24244   0.420  33.759   8.255
 7284POPC   C3A24245   0.467  33.826   7.955
 7284POPC   C4A24246   0.394  33.760   7.655
 7284POPC   C1B24247   0.664  33.862   8.555
 7284POPC   C2B24248   0.635  33.877   8.255
 7284POPC   C3B24249   0.667  33.843   7.955
 7284POPC   C4B24250   0.672  33.853   7.655
 7285POPC   NC324251  33.056  40.742   9.455
 7285POPC   PO424252  33.062  40.736   9.155
 7285POPC   GL124253  33.073  40.751   8.855
 7285POPC   GL224254  33.096  40.719   8.855
 7285POPC   C1A24255  33.011  40.772   8.555
 7285POPC   D2A24256  33.054  40.791   8.255
 7285POPC   C3A24257  32.975  40.752   7.955
 7285POPC   C4A24258  33.025  40.814   7.655
 7285POPC   C1B24259  33.261  40.653   8.555
 7285POPC   C2B24260  33.215  40.665   8.255
 7285POPC   C3B24261  33.254  40.680   7.955
 7285POPC   C4B24262  33.266  40.731   7.655
 7286POPC   NC324263  15.216  31.522   9.455
 7286POPC   PO424264  15.189  31.466   9.155
 7286POPC   GL124265  15.158  31.486   8.855
 7286POPC   GL224266  15.177  31.333   8.855
 7286POPC   C1A24267  15.198  31.489   8.555
 7286POPC   D2A24268  15.204  31.506   8.255
 7286POPC   C3A24269  15.212  31.502   7.955
 7286POPC   C4A24270  15.225  31.463   7.655
 7286POPC   C1B24271  15.209  31.220   8.555
 7286POPC   C2B24272  15.249  31.241   8.255
 7286POPC   C3B24273  15.281  31.182   7.955
 7286POPC   C4B24274  15.278  31.261   7.655
 7287POPC   NC324275  19.084   2.720   9.455
 7287POPC   PO424276  19.078   2.810   9.155
 7287POPC   GL124277  19.083   2.742   8.855
 7287POPC   GL224278  18.994   2.678   8.855
 7287POPC   C1A24279  19.098   2.754   8.555
 7287POPC   D2A24280  19.013   2.752   8.255
 7287POPC   C3A24281  19.099   2.774   7.955
 7287POPC   C4A24282  19.023   2.780   7.655
 7287POPC   C1B24283  18.880   2.510   8.555
 7287POPC   C2B24284  18.912   2.607   8.255
 7287POPC   C3B24285  18.925   2.543   7.955
 7287POPC   C4B24286  18.918   2.530   7.655
 7288POPC   NC324287  32.235  12.031   9.455
 7288POPC   PO424288  32.277  12.034   9.155
 7288POPC   GL124289  32.296  12.078   8.855
 7288POPC   GL224290  32.294  12.162   8.855
 7288POPC   C1A24291  32.241  12.078   8.555
 7288POPC   D2A24292  32.268  12.065   8.255
 7288POPC   C3A24293  32.239  12.106   7.955
 7288POPC   C4A24294  32.253  12.076   7.655
 7288POPC   C1B24295  32.314  12.286   8.555
 7288POPC   C2B24296  32.356  12.330   8.255
 7288POPC   C3B24297  32.361  12.256   7.955
 7288POPC   C4B24298  32.356  12.262   7.655
 7289POPC   NC324299  13.644  42.332   9.455
 7289POPC   PO424300  13.660  42.306   9.155
 7289POPC   GL124301  13.663  42.360   8.855
 7289POPC   GL224302  13.745  42.384   8.855
 7289POPC   C1A24303  13.608  42.312   8.555
 7289POPC   D2A24304  13.660  42.322   8.255
 7289POPC   C3A24305  13.643  42.293   7.955
 7289POPC   C4A24306  13.616  42.315   7.655
 7289POPC   C1B24307  13.842  42.330   8.555
 7289POPC   C2B24308  13.852  42.410   8.255
 7289POPC   C3B24309  13.880  42.394   7.955
 7289POPC   C4B24310  13.837  42.406   7.655
 7290POPC   NC324311  31.485  43.076   9.455
 7290POPC   PO424312  31.502  43.087   9.155
 7290POPC   GL124313  31.487  43.137   8.855
 7290POPC   GL224314  31.550  42.968   8.855
 7290POPC   C1A24315  31.441  43.126   8.555
 7290POPC   D2A24316  31.439  43.116   8.255
 7290POPC   C3A24317  31.464  43.063   7.955
 7290POPC   C4A24318  31.487  43.148   7.655
 7290POPC   C1B24319  31.604  42.887   8.555
 7290POPC   C2B24320  31.578  42.933   8.255
 7290POPC   C3B24321  31.649  42.934   7.955
 7290POPC   C4B24322  31.600  42.934   7.655
 7291POPC   NC324323  38.478  22.966   9.455
 7291POPC   PO424324  38.464  22.984   9.155
 7291POPC   GL124325  38.464  22.978   8.855
 7291POPC   GL224326  38.407  22.769   8.855
 7291POPC   C1A24327  38.462  22.958   8.555
 7291POPC   D2A24328  38.464  22.988   8.255
 7291POPC   C3A24329  38.486  22.893   7.955
 7291POPC   C4A24330  38.472  22.936   7.655
 7291POPC   C1B24331  38.425  22.707   8.555
 7291POPC   C2B24332  38.476  22.700   8.255
 7291POPC   C3B24333  38.492  22.663   7.955
 7291POPC   C4B24334  38.482  22.729   7.655
 7292POPC   NC324335  16.775   4.296   9.455
 7292POPC   PO424336  16.693   4.356   9.155
 7292POPC   GL124337  16.755   4.275   8.855
 7292POPC   GL224338  16.812   4.446   8.855
 7292POPC   C1A24339  16.761   4.324   8.555
 7292POPC   D2A24340  16.725   4.273   8.255
 7292POPC   C3A24341  16.688   4.304   7.955
 7292POPC   C4A24342  16.683   4.294   7.655
 7292POPC   C1B24343  16.882   4.456   8.555
 7292POPC   C2B24344  16.899   4.546   8.255
 7292POPC   C3B24345  16.938   4.472   7.955
 7292POPC   C4B24346  16.890   4.490   7.655
 7293POPC   NC324347  19.043  33.816   9.455
 7293POPC   PO424348  19.051  33.793   9.155
 7293POPC   GL124349  19.101  33.828   8.855
 7293POPC   GL224350  18.974  33.770   8.855
 7293POPC   C1A24351  19.013  33.781   8.555
 7293POPC   D2A24352  19.047  33.849   8.255
 7293POPC   C3A24353  19.011  33.826   7.955
 7293POPC   C4A24354  19.013  33.800   7.655
 7293POPC   C1B24355  18.805  33.872   8.555
 7293POPC   C2B24356  18.803  33.817   8.255
 7293POPC   C3B24357  18.782  33.862   7.955
 7293POPC   C4B24358  18.845  33.857   7.655
 7294POPC   NC324359  15.171  41.544   9.455
 7294POPC   PO424360  15.134  41.530   9.155
 7294POPC   GL124361  15.170  41.512   8.855
 7294POPC   GL224362  15.120  41.407   8.855
 7294POPC   C1A24363  15.229  41.593   8.555
 7294POPC   D2A24364  15.221  41.599   8.255
 7294POPC   C3A24365  15.184  41.589   7.955
 7294POPC   C4A24366  15.202  41.583   7.655
 7294POPC   C1B24367  15.012  41.342   8.555
 7294POPC   C2B24368  15.048  41.378   8.255
 7294POPC   C3B24369  15.070  41.367   7.955
 7294POPC   C4B24370  15.062  41.354   7.655
 7295POPC   NC324371   6.600  14.410   9.455
 7295POPC   PO424372   6.674  14.444   9.155
 7295POPC   GL124373   6.632  14.359   8.855
 7295POPC   GL224374   6.601  14.255   8.855
 7295POPC   C1A24375   6.664  14.358   8.555
 7295POPC   D2A24376   6.630  14.427   8.255
 7295POPC   C3A24377   6.651  14.369   7.955
 7295POPC   C4A24378   6.673  14.449   7.655
 7295POPC   C1B24379   6.491  14.246   8.555
 7295POPC   C2B24380   6.518  14.169   8.255
 7295POPC   C3B24381   6.503  14.190   7.955
 7295POPC   C4B24382   6.492  14.203   7.655
 7296POPC   NC324383  41.535  14.368   9.455
 7296POPC   PO424384  41.557  14.398   9.155
 7296POPC   GL124385  41.599  14.363   8.855
 7296POPC   GL224386  41.492  14.563   8.855
 7296POPC   C1A24387  41.596  14.446   8.555
 7296POPC   D2A24388  41.587  14.377   8.255
 7296POPC   C3A24389  41.513  14.404   7.955
 7296POPC   C4A24390  41.600  14.419   7.655
 7296POPC   C1B24391  41.423  14.597   8.555
 7296POPC   C2B24392  41.410  14.632   8.255
 7296POPC   C3B24393  41.484  14.579   7.955
 7296POPC   C4B24394  41.394  14.591   7.655
 7297POPC   NC324395  42.379  39.997   9.455
 7297POPC   PO424396  42.364  40.005   9.155
 7297POPC   GL124397  42.353  40.026   8.855
 7297POPC   GL224398  42.176  40.049   8.855
 7297POPC   C1A24399  42.356  40.008   8.555
 7297POPC   D2A24400  42.348  40.043   8.255
 7297POPC   C3A24401  42.372  40.036   7.955
 7297POPC   C4A24402  42.286  39.973   7.655
 7297POPC   C1B24403  42.120  40.040   8.555
 7297POPC   C2B24404  42.056  40.052   8.255
 7297POPC   C3B24405  42.136  40.115   7.955
 7297POPC   C4B24406  42.058  40.133   7.655
 7298POPC   NC324407  37.651   5.130   9.455
 7298POPC   PO424408  37.713   5.067   9.155
 7298POPC   GL124409  37.709   5.073   8.855
 7298POPC   GL224410  37.778   5.039   8.855
 7298POPC   C1A24411  37.699   5.044   8.555
 7298POPC   D2A24412  37.708   5.062   8.255
 7298POPC   C3A24413  37.720   5.134   7.955
 7298POPC   C4A24414  37.655   5.087   7.655
 7298POPC   C1B24415  37.837   4.892   8.555
 7298POPC   C2B24416  37.845   4.959   8.255
 7298POPC   C3B24417  37.863   4.923   7.955
 7298POPC   C4B24418  37.816   4.946   7.655
 7299POPC   NC324419  29.127  10.491   9.455
 7299POPC   PO424420  29.122  10.551   9.155
 7299POPC   GL124421  29.132  10.487   8.855
 7299POPC   GL224422  29.018  10.480   8.855
 7299POPC   C1A24423  29.097  10.567   8.555
 7299POPC   D2A24424  29.109  10.501   8.255
 7299POPC   C3A24425  29.185  10.551   7.955
 7299POPC   C4A24426  29.145  10.525   7.655
 7299POPC   C1B24427  28.925  10.394   8.555
 7299POPC   C2B24428  28.947  10.387   8.255
 7299POPC   C3B24429  28.940  10.371   7.955
 7299POPC   C4B24430  28.930  10.324   7.655
 7300POPC   NC324431  13.616  40.733   9.455
 7300POPC   PO424432  13.602  40.760   9.155
 7300POPC   GL124433  13.609  40.748   8.855
 7300POPC   GL224434  13.686  40.661   8.855
 7300POPC   C1A24435  13.666  40.780   8.555
 7300POPC   D2A24436  13.632  40.791   8.255
 7300POPC   C3A24437  13.634  40.824   7.955
 7300POPC   C4A24438  13.588  40.817   7.655
 7300POPC   C1B24439  13.691  40.559   8.555
 7300POPC   C2B24440  13.674  40.527   8.255
 7300POPC   C3B24441  13.656  40.545   7.955
 7300POPC   C4B24442  13.666  40.532   7.655
 7301POPC   NC324443   1.176  41.535   9.455
 7301POPC   PO424444   1.221  41.523   9.155
 7301POPC   GL124445   1.223  41.557   8.855
 7301POPC   GL224446   1.262  41.495   8.855
 7301POPC   C1A24447   1.227  41.564   8.555
 7301POPC   D2A24448   1.165  41.547   8.255
 7301POPC   C3A24449   1.212  41.606   7.955
 7301POPC   C4A24450   1.237  41.562   7.655
 7301POPC   C1B24451   1.372  41.346   8.555
 7301POPC   C2B24452   1.311  41.388   8.255
 7301POPC   C3B24453   1.318  41.326   7.955
 7301POPC   C4B24454   1.342  41.358   7.655
 7302POPC   NC324455  36.154  27.628   9.455
 7302POPC   PO424456  36.130  27.605   9.155
 7302POPC   GL124457  36.130  27.579   8.855
 7302POPC   GL224458  36.203  27.651   8.855
 7302POPC   C1A24459  36.082  27.639   8.555
 7302POPC   D2A24460  36.156  27.634   8.255
 7302POPC   C3A24461  36.088  27.594   7.955
 7302POPC   C4A24462  36.150  27.599   7.655
 7302POPC   C1B24463  36.366  27.739   8.555
 7302POPC   C2B24464  36.360  27.760   8.255
 7302POPC   C3B24465  36.282  27.772   7.955
 7302POPC   C4B24466  36.276  27.714   7.655
 7303POPC   NC324467   5.111  33.755   9.455
 7303POPC   PO424468   5.090  33.796   9.155
 7303POPC   GL124469   5.049  33.847   8.855
 7303POPC   GL224470   5.210  33.914   8.855
 7303POPC   C1A24471   5.114  33.750   8.555
 7303POPC   D2A24472   5.054  33.801   8.255
 7303POPC   C3A24473   5.076  33.792   7.955
 7303POPC   C4A24474   5.113  33.770   7.655
 7303POPC   C1B24475   5.316  33.937   8.555
 7303POPC   C2B24476   5.299  33.930   8.255
 7303POPC   C3B24477   5.275  33.927   7.955
 7303POPC   C4B24478   5.236  33.930   7.655
 7304POPC   NC324479  20.640  36.131   9.455
 7304POPC   PO424480  20.585  36.089   9.155
 7304POPC   GL124481  20.649  36.099   8.855
 7304POPC   GL224482  20.557  36.226   8.855
 7304POPC   C1A24483  20.586  36.135   8.555
 7304POPC   D2A24484  20.589  36.087   8.255
 7304POPC   C3A24485  20.606  36.089   7.955
 7304POPC   C4A24486  20.604  36.119   7.655
 7304POPC   C1B24487  20.439  36.334   8.555
 7304POPC   C2B24488  20.513  36.295   8.255
 7304POPC   C3B24489  20.525  36.329   7.955
 7304POPC   C4B24490  20.429  36.325   7.655
 7305POPC   NC324491  15.924  33.056   9.455
 7305POPC   PO424492  15.921  33.041   9.155
 7305POPC   GL124493  15.959  33.032   8.855
 7305POPC   GL224494  16.011  33.134   8.855
 7305POPC   C1A24495  15.979  33.050   8.555
 7305POPC   D2A24496  15.994  33.060   8.255
 7305POPC   C3A24497  15.980  33.021   7.955
 7305POPC   C4A24498  15.907  33.020   7.655
 7305POPC   C1B24499  16.125  33.142   8.555
 7305POPC   C2B24500  16.103  33.193   8.255
 7305POPC   C3B24501  16.114  33.154   7.955
 7305POPC   C4B24502  16.143  33.192   7.655
 7306POPC   NC324503  44.631  14.446   9.455
 7306POPC   PO424504  44.628  14.427   9.155
 7306POPC   GL124505  44.613  14.410   8.855
 7306POPC   GL224506  44.603  14.494   8.855
 7306POPC   C1A24507  44.709  14.362   8.555
 7306POPC   D2A24508  44.638  14.450   8.255
 7306POPC   C3A24509  44.634  14.432   7.955
 7306POPC   C4A24510  44.625  14.430   7.655
 7306POPC   C1B24511  44.524  14.547   8.555
 7306POPC   C2B24512  44.441  14.571   8.255
 7306POPC   C3B24513  44.471  14.608   7.955
 7306POPC   C4B24514  44.530  14.596   7.655
 7307POPC   NC324515   5.055  40.777   9.455
 7307POPC   PO424516   5.060  40.768   9.155
 7307POPC   GL124517   5.094  40.748   8.855
 7307POPC   GL224518   4.961  40.782   8.855
 7307POPC   C1A24519   5.134  40.823   8.555
 7307POPC   D2A24520   5.066  40.805   8.255
 7307POPC   C3A24521   5.122  40.744   7.955
 7307POPC   C4A24522   5.124  40.762   7.655
 7307POPC   C1B24523   4.893  40.806   8.555
 7307POPC   C2B24524   4.851  40.755   8.255
 7307POPC   C3B24525   4.853  40.804   7.955
 7307POPC   C4B24526   4.804  40.797   7.655
 7308POPC   NC324527   7.409  12.885   9.455
 7308POPC   PO424528   7.417  12.858   9.155
 7308POPC   GL124529   7.436  12.821   8.855
 7308POPC   GL224530   7.406  12.765   8.855
 7308POPC   C1A24531   7.407  12.818   8.555
 7308POPC   D2A24532   7.466  12.849   8.255
 7308POPC   C3A24533   7.433  12.822   7.955
 7308POPC   C4A24534   7.461  12.872   7.655
 7308POPC   C1B24535   7.496  12.644   8.555
 7308POPC   C2B24536   7.496  12.622   8.255
 7308POPC   C3B24537   7.539  12.594   7.955
 7308POPC   C4B24538   7.474  12.593   7.655
 7309POPC   NC324539  31.501  36.122   9.455
 7309POPC   PO424540  31.469  36.120   9.155
 7309POPC   GL124541  31.480  36.148   8.855
 7309POPC   GL224542  31.495  36.298   8.855
 7309POPC   C1A24543  31.437  36.090   8.555
 7309POPC   D2A24544  31.513  36.141   8.255
 7309POPC   C3A24545  31.480  36.109   7.955
 7309POPC   C4A24546  31.437  36.106   7.655
 7309POPC   C1B24547  31.432  36.410   8.555
 7309POPC   C2B24548  31.439  36.337   8.255
 7309POPC   C3B24549  31.445  36.345   7.955
 7309POPC   C4B24550  31.470  36.363   7.655
 7310POPC   NC324551  42.335  24.510   9.455
 7310POPC   PO424552  42.348  24.514   9.155
 7310POPC   GL124553  42.331  24.465   8.855
 7310POPC   GL224554  42.478  24.426   8.855
 7310POPC   C1A24555  42.288  24.524   8.555
 7310POPC   D2A24556  42.322  24.466   8.255
 7310POPC   C3A24557  42.346  24.495   7.955
 7310POPC   C4A24558  42.327  24.531   7.655
 7310POPC   C1B24559  42.572  24.327   8.555
 7310POPC   C2B24560  42.580  24.378   8.255
 7310POPC   C3B24561  42.528  24.364   7.955
 7310POPC   C4B24562  42.516  24.380   7.655
 7311POPC   NC324563  22.172  29.943   9.455
 7311POPC   PO424564  22.162  29.880   9.155
 7311POPC   GL124565  22.117  29.937   8.855
 7311POPC   GL224566  22.244  29.998   8.855
 7311POPC   C1A24567  22.128  29.912   8.555
 7311POPC   D2A24568  22.155  29.875   8.255
 7311POPC   C3A24569  22.139  29.938   7.955
 7311POPC   C4A24570  22.152  29.904   7.655
 7311POPC   C1B24571  22.309  30.110   8.555
 7311POPC   C2B24572  22.303  30.091   8.255
 7311POPC   C3B24573  22.318  30.095   7.955
 7311POPC   C4B24574  22.275  30.154   7.655
 7312POPC   NC324575   2.007   4.282   9.455
 7312POPC   PO424576   1.994   4.277   9.155
 7312POPC   GL124577   1.953   4.367   8.855
 7312POPC   GL224578   1.998   4.239   8.855
 7312POPC   C1A24579   1.953   4.301   8.555
 7312POPC   D2A24580   1.963   4.352   8.255
 7312POPC   C3A24581   1.944   4.334   7.955
 7312POPC   C4A24582   1.996   4.320   7.655
 7312POPC   C1B24583   2.032   4.123   8.555
 7312POPC   C2B24584   2.017   4.089   8.255
 7312POPC   C3B24585   2.034   4.101   7.955
 7312POPC   C4B24586   2.030   4.077   7.655
 7313POPC   NC324587  19.015   2.027   9.455
 7313POPC   PO424588  19.059   1.962   9.155
 7313POPC   GL124589  19.029   1.982   8.855
 7313POPC   GL224590  19.051   2.146   8.855
 7313POPC   C1A24591  19.090   1.947   8.555
 7313POPC   D2A24592  19.018   2.033   8.255
 7313POPC   C3A24593  19.094   1.995   7.955
 7313POPC   C4A24594  19.093   1.968   7.655
 7313POPC   C1B24595  18.917   2.239   8.555
 7313POPC   C2B24596  18.957   2.243   8.255
 7313POPC   C3B24597  19.000   2.250   7.955
 7313POPC   C4B24598  18.968   2.190   7.655
 7314POPC   NC324599  39.196  43.139   9.455
 7314POPC   PO424600  39.201  43.113   9.155
 7314POPC   GL124601  39.253  43.081   8.855
 7314POPC   GL224602  39.248  43.247   8.855
 7314POPC   C1A24603  39.239  43.138   8.555
 7314POPC   D2A24604  39.191  43.069   8.255
 7314POPC   C3A24605  39.252  43.103   7.955
 7314POPC   C4A24606  39.254  43.118   7.655
 7314POPC   C1B24607  39.245  43.346   8.555
 7314POPC   C2B24608  39.168  43.341   8.255
 7314POPC   C3B24609  39.222  43.362   7.955
 7314POPC   C4B24610  39.212  43.355   7.655
 7315POPC   NC324611  31.423  24.471   9.455
 7315POPC   PO424612  31.466  24.458   9.155
 7315POPC   GL124613  31.516  24.459   8.855
 7315POPC   GL224614  31.587  24.571   8.855
 7315POPC   C1A24615  31.468  24.445   8.555
 7315POPC   D2A24616  31.494  24.443   8.255
 7315POPC   C3A24617  31.517  24.502   7.955
 7315POPC   C4A24618  31.501  24.472   7.655
 7315POPC   C1B24619  31.736  24.578   8.555
 7315POPC   C2B24620  31.673  24.549   8.255
 7315POPC   C3B24621  31.734  24.545   7.955
 7315POPC   C4B24622  31.725  24.551   7.655
 7316POPC   NC324623  24.475  26.835   9.455
 7316POPC   PO424624  24.462  26.859   9.155
 7316POPC   GL124625  24.537  26.832   8.855
 7316POPC   GL224626  24.328  26.764   8.855
 7316POPC   C1A24627  24.489  26.850   8.555
 7316POPC   D2A24628  24.453  26.827   8.255
 7316POPC   C3A24629  24.461  26.795   7.955
 7316POPC   C4A24630  24.480  26.818   7.655
 7316POPC   C1B24631  24.198  26.809   8.555
 7316POPC   C2B24632  24.229  26.812   8.255
 7316POPC   C3B24633  24.272  26.774   7.955
 7316POPC   C4B24634  24.193  26.783   7.655
 7317POPC   NC324635  44.623  33.843   9.455
 7317POPC   PO424636  44.619  33.848   9.155
 7317POPC   GL124637  44.701  33.829   8.855
 7317POPC   GL224638  44.508  33.834   8.855
 7317POPC   C1A24639  44.643  33.801   8.555
 7317POPC   D2A24640  44.670  33.782   8.255
 7317POPC   C3A24641  44.702  33.779   7.955
 7317POPC   C4A24642  44.669  33.791   7.655
 7317POPC   C1B24643  44.451  33.879   8.555
 7317POPC   C2B24644  44.440  33.937   8.255
 7317POPC   C3B24645  44.458  33.937   7.955
 7317POPC   C4B24646  44.388  33.916   7.655
 7318POPC   NC324647  14.447   5.897   9.455
 7318POPC   PO424648  14.444   5.897   9.155
 7318POPC   GL124649  14.392   5.838   8.855
 7318POPC   GL224650  14.459   5.734   8.855
 7318POPC   C1A24651  14.433   5.844   8.555
 7318POPC   D2A24652  14.382   5.858   8.255
 7318POPC   C3A24653  14.400   5.906   7.955
 7318POPC   C4A24654  14.415   5.917   7.655
 7318POPC   C1B24655  14.540   5.639   8.555
 7318POPC   C2B24656  14.542   5.666   8.255
 7318POPC   C3B24657  14.572   5.658   7.955
 7318POPC   C4B24658  14.607   5.662   7.655
 7319POPC   NC324659   1.941  20.597   9.455
 7319POPC   PO424660   1.985  20.608   9.155
 7319POPC   GL124661   1.984  20.648   8.855
 7319POPC   GL224662   1.880  20.626   8.855
 7319POPC   C1A24663   1.977  20.652   8.555
 7319POPC   D2A24664   2.002  20.646   8.255
 7319POPC   C3A24665   2.004  20.590   7.955
 7319POPC   C4A24666   2.012  20.644   7.655
 7319POPC   C1B24667   1.710  20.664   8.555
 7319POPC   C2B24668   1.781  20.667   8.255
 7319POPC   C3B24669   1.791  20.675   7.955
 7319POPC   C4B24670   1.797  20.702   7.655
 7320POPC   NC324671  33.006   5.137   9.455
 7320POPC   PO424672  33.038   5.113   9.155
 7320POPC   GL124673  32.996   5.097   8.855
 7320POPC   GL224674  33.114   5.161   8.855
 7320POPC   C1A24675  33.055   5.046   8.555
 7320POPC   D2A24676  33.044   5.133   8.255
 7320POPC   C3A24677  33.039   5.071   7.955
 7320POPC   C4A24678  33.016   5.094   7.655
 7320POPC   C1B24679  33.227   5.239   8.555
 7320POPC   C2B24680  33.232   5.247   8.255
 7320POPC   C3B24681  33.250   5.193   7.955
 7320POPC   C4B24682  33.237   5.235   7.655
 7321POPC   NC324683  24.454  25.234   9.455
 7321POPC   PO424684  24.532  25.221   9.155
 7321POPC   GL124685  24.512  25.216   8.855
 7321POPC   GL224686  24.554  25.381   8.855
 7321POPC   C1A24687  24.509  25.221   8.555
 7321POPC   D2A24688  24.475  25.239   8.255
 7321POPC   C3A24689  24.522  25.222   7.955
 7321POPC   C4A24690  24.446  25.248   7.655
 7321POPC   C1B24691  24.746  25.438   8.555
 7321POPC   C2B24692  24.746  25.448   8.255
 7321POPC   C3B24693  24.660  25.451   7.955
 7321POPC   C4B24694  24.679  25.397   7.655
 7322POPC   NC324695   3.562  30.737   9.455
 7322POPC   PO424696   3.502  30.691   9.155
 7322POPC   GL124697   3.565  30.694   8.855
 7322POPC   GL224698   3.561  30.581   8.855
 7322POPC   C1A24699   3.505  30.745   8.555
 7322POPC   D2A24700   3.556  30.647   8.255
 7322POPC   C3A24701   3.554  30.704   7.955
 7322POPC   C4A24702   3.547  30.694   7.655
 7322POPC   C1B24703   3.637  30.451   8.555
 7322POPC   C2B24704   3.618  30.489   8.255
 7322POPC   C3B24705   3.624  30.503   7.955
 7322POPC   C4B24706   3.621  30.434   7.655
 7323POPC   NC324707  19.071   8.202   9.455
 7323POPC   PO424708  19.107   8.220   9.155
 7323POPC   GL124709  19.062   8.212   8.855
 7323POPC   GL224710  19.117   8.297   8.855
 7323POPC   C1A24711  19.043   8.149   8.555
 7323POPC   D2A24712  19.104   8.231   8.255
 7323POPC   C3A24713  19.034   8.240   7.955
 7323POPC   C4A24714  19.043   8.150   7.655
 7323POPC   C1B24715  19.184   8.414   8.555
 7323POPC   C2B24716  19.160   8.404   8.255
 7323POPC   C3B24717  19.148   8.370   7.955
 7323POPC   C4B24718  19.155   8.385   7.655
 7324POPC   NC324719  39.246   0.418   9.455
 7324POPC   PO424720  39.244   0.397   9.155
 7324POPC   GL124721  39.189   0.429   8.855
 7324POPC   GL224722  39.282   0.372   8.855
 7324POPC   C1A24723  39.252   0.436   8.555
 7324POPC   D2A24724  39.198   0.414   8.255
 7324POPC   C3A24725  39.278   0.457   7.955
 7324POPC   C4A24726  39.240   0.399   7.655
 7324POPC   C1B24727  39.302   0.201   8.555
 7324POPC   C2B24728  39.300   0.210   8.255
 7324POPC   C3B24729  39.357   0.181   7.955
 7324POPC   C4B24730  39.337   0.229   7.655
 7325POPC   NC324731  17.543  15.133   9.455
 7325POPC   PO424732  17.479  15.151   9.155
 7325POPC   GL124733  17.527  15.177   8.855
 7325POPC   GL224734  17.571  15.294   8.855
 7325POPC   C1A24735  17.554  15.220   8.555
 7325POPC   D2A24736  17.524  15.175   8.255
 7325POPC   C3A24737  17.463  15.177   7.955
 7325POPC   C4A24738  17.473  15.207   7.655
 7325POPC   C1B24739  17.655  15.421   8.555
 7325POPC   C2B24740  17.698  15.367   8.255
 7325POPC   C3B24741  17.704  15.374   7.955
 7325POPC   C4B24742  17.619  15.349   7.655
 7326POPC   NC324743  18.305  32.230   9.455
 7326POPC   PO424744  18.317  32.260   9.155
 7326POPC   GL124745  18.264  32.203   8.855
 7326POPC   GL224746  18.241  32.351   8.855
 7326POPC   C1A24747  18.278  32.265   8.555
 7326POPC   D2A24748  18.280  32.230   8.255
 7326POPC   C3A24749  18.299  32.280   7.955
 7326POPC   C4A24750  18.287  32.229   7.655
 7326POPC   C1B24751  18.297  32.450   8.555
 7326POPC   C2B24752  18.295  32.481   8.255
 7326POPC   C3B24753  18.233  32.481   7.955
 7326POPC   C4B24754  18.305  32.447   7.655
 7327POPC   NC324755  29.965  29.926   9.455
 7327POPC   PO424756  29.969  29.876   9.155
 7327POPC   GL124757  29.919  29.915   8.855
 7327POPC   GL224758  29.838  30.012   8.855
 7327POPC   C1A24759  29.917  29.884   8.555
 7327POPC   D2A24760  29.916  29.891   8.255
 7327POPC   C3A24761  29.958  29.922   7.955
 7327POPC   C4A24762  29.875  29.875   7.655
 7327POPC   C1B24763  29.699  30.053   8.555
 7327POPC   C2B24764  29.715  30.055   8.255
 7327POPC   C3B24765  29.685  30.104   7.955
 7327POPC   C4B24766  29.763  30.095   7.655
 7328POPC   NC324767   9.730  24.515   9.455
 7328POPC   PO424768   9.797  24.486   9.155
 7328POPC   GL124769   9.711  24.486   8.855
 7328POPC   GL224770   9.726  24.388   8.855
 7328POPC   C1A24771   9.753  24.484   8.555
 7328POPC   D2A24772   9.759  24.457   8.255
 7328POPC   C3A24773   9.731  24.458   7.955
 7328POPC   C4A24774   9.758  24.464   7.655
 7328POPC   C1B24775   9.564  24.291   8.555
 7328POPC   C2B24776   9.628  24.292   8.255
 7328POPC   C3B24777   9.559  24.261   7.955
 7328POPC   C4B24778   9.587  24.328   7.655
 7329POPC   NC324779  31.487  15.147   9.455
 7329POPC   PO424780  31.458  15.129   9.155
 7329POPC   GL124781  31.495  15.200   8.855
 7329POPC   GL224782  31.390  15.028   8.855
 7329POPC   C1A24783  31.461  15.228   8.555
 7329POPC   D2A24784  31.481  15.152   8.255
 7329POPC   C3A24785  31.485  15.164   7.955
 7329POPC   C4A24786  31.511  15.159   7.655
 7329POPC   C1B24787  31.348  14.926   8.555
 7329POPC   C2B24788  31.375  14.969   8.255
 7329POPC   C3B24789  31.300  15.021   7.955
 7329POPC   C4B24790  31.301  15.013   7.655
 7330POPC   NC324791  29.163  28.417   9.455
 7330POPC   PO424792  29.161  28.393   9.155
 7330POPC   GL124793  29.154  28.326   8.855
 7330POPC   GL224794  29.239  28.364   8.855
 7330POPC   C1A24795  29.109  28.344   8.555
 7330POPC   D2A24796  29.115  28.367   8.255
 7330POPC   C3A24797  29.187  28.332   7.955
 7330POPC   C4A24798  29.161  28.346   7.655
 7330POPC   C1B24799  29.376  28.401   8.555
 7330POPC   C2B24800  29.415  28.383   8.255
 7330POPC   C3B24801  29.413  28.453   7.955
 7330POPC   C4B24802  29.409  28.425   7.655
 7331POPC   NC324803  26.820  13.590   9.455
 7331POPC   PO424804  26.837  13.598   9.155
 7331POPC   GL124805  26.856  13.639   8.855
 7331POPC   GL224806  26.926  13.513   8.855
 7331POPC   C1A24807  26.848  13.603   8.555
 7331POPC   D2A24808  26.848  13.634   8.255
 7331POPC   C3A24809  26.828  13.616   7.955
 7331POPC   C4A24810  26.844  13.580   7.655
 7331POPC   C1B24811  26.946  13.484   8.555
 7331POPC   C2B24812  26.986  13.418   8.255
 7331POPC   C3B24813  26.959  13.404   7.955
 7331POPC   C4B24814  26.973  13.413   7.655
 7332POPC   NC324815  43.912  27.559   9.455
 7332POPC   PO424816  43.928  27.552   9.155
 7332POPC   GL124817  43.847  27.588   8.855
 7332POPC   GL224818  43.808  27.610   8.855
 7332POPC   C1A24819  43.894  27.618   8.555
 7332POPC   D2A24820  43.913  27.551   8.255
 7332POPC   C3A24821  43.843  27.615   7.955
 7332POPC   C4A24822  43.862  27.612   7.655
 7332POPC   C1B24823  43.676  27.618   8.555
 7332POPC   C2B24824  43.618  27.565   8.255
 7332POPC   C3B24825  43.623  27.573   7.955
 7332POPC   C4B24826  43.661  27.617   7.655
 7333POPC   NC324827  22.985  33.807   9.455
 7333POPC   PO424828  22.939  33.770   9.155
 7333POPC   GL124829  22.919  33.770   8.855
 7333POPC   GL224830  22.980  33.918   8.855
 7333POPC   C1A24831  22.950  33.793   8.555
 7333POPC   D2A24832  22.968  33.823   8.255
 7333POPC   C3A24833  22.951  33.784   7.955
 7333POPC   C4A24834  22.947  33.841   7.655
 7333POPC   C1B24835  23.019  34.042   8.555
 7333POPC   C2B24836  22.983  34.072   8.255
 7333POPC   C3B24837  22.980  34.042   7.955
 7333POPC   C4B24838  23.028  34.021   7.655
 7334POPC   NC324839  39.276   4.335   9.455
 7334POPC   PO424840  39.263   4.356   9.155
 7334POPC   GL124841  39.188   4.361   8.855
 7334POPC   GL224842  39.122   4.387   8.855
 7334POPC   C1A24843  39.269   4.281   8.555
 7334POPC   D2A24844  39.217   4.332   8.255
 7334POPC   C3A24845  39.215   4.294   7.955
 7334POPC   C4A24846  39.259   4.293   7.655
 7334POPC   C1B24847  39.003   4.388   8.555
 7334POPC   C2B24848  39.025   4.346   8.255
 7334POPC   C3B24849  39.013   4.333   7.955
 7334POPC   C4B24850  39.008   4.343   7.655
 7335POPC   NC324851  34.574  30.727   9.455
 7335POPC   PO424852  34.568  30.680   9.155
 7335POPC   GL124853  34.570  30.684   8.855
 7335POPC   GL224854  34.465  30.692   8.855
 7335POPC   C1A24855  34.539  30.676   8.555
 7335POPC   D2A24856  34.594  30.710   8.255
 7335POPC   C3A24857  34.562  30.667   7.955
 7335POPC   C4A24858  34.618  30.711   7.655
 7335POPC   C1B24859  34.331  30.691   8.555
 7335POPC   C2B24860  34.344  30.730   8.255
 7335POPC   C3B24861  34.287  30.787   7.955
 7335POPC   C4B24862  34.317  30.743   7.655
 7336POPC   NC324863  15.148   4.274   9.455
 7336POPC   PO424864  15.223   4.367   9.155
 7336POPC   GL124865  15.186   4.318   8.855
 7336POPC   GL224866  15.281   4.413   8.855
 7336POPC   C1A24867  15.168   4.361   8.555
 7336POPC   D2A24868  15.150   4.272   8.255
 7336POPC   C3A24869  15.204   4.328   7.955
 7336POPC   C4A24870  15.199   4.314   7.655
 7336POPC   C1B24871  15.348   4.469   8.555
 7336POPC   C2B24872  15.396   4.514   8.255
 7336POPC   C3B24873  15.363   4.499   7.955
 7336POPC   C4B24874  15.349   4.470   7.655
 7337POPC   NC324875  30.717  33.771   9.455
 7337POPC   PO424876  30.725  33.793   9.155
 7337POPC   GL124877  30.688  33.814   8.855
 7337POPC   GL224878  30.797  33.874   8.855
 7337POPC   C1A24879  30.651  33.821   8.555
 7337POPC   D2A24880  30.739  33.755   8.255
 7337POPC   C3A24881  30.678  33.819   7.955
 7337POPC   C4A24882  30.715  33.845   7.655
 7337POPC   C1B24883  30.865  33.950   8.555
 7337POPC   C2B24884  30.885  33.949   8.255
 7337POPC   C3B24885  30.894  33.986   7.955
 7337POPC   C4B24886  30.876  33.969   7.655
 7338POPC   NC324887   2.749   4.360   9.455
 7338POPC   PO424888   2.729   4.281   9.155
 7338POPC   GL124889   2.743   4.361   8.855
 7338POPC   GL224890   2.618   4.418   8.855
 7338POPC   C1A24891   2.811   4.326   8.555
 7338POPC   D2A24892   2.746   4.334   8.255
 7338POPC   C3A24893   2.732   4.292   7.955
 7338POPC   C4A24894   2.728   4.353   7.655
 7338POPC   C1B24895   2.543   4.469   8.555
 7338POPC   C2B24896   2.502   4.395   8.255
 7338POPC   C3B24897   2.542   4.402   7.955
 7338POPC   C4B24898   2.561   4.382   7.655
 7339POPC   NC324899  19.046  26.037   9.455
 7339POPC   PO424900  19.083  26.066   9.155
 7339POPC   GL124901  19.060  26.018   8.855
 7339POPC   GL224902  19.098  25.896   8.855
 7339POPC   C1A24903  19.091  26.043   8.555
 7339POPC   D2A24904  19.036  26.033   8.255
 7339POPC   C3A24905  19.046  26.051   7.955
 7339POPC   C4A24906  19.080  26.023   7.655
 7339POPC   C1B24907  19.194  25.813   8.555
 7339POPC   C2B24908  19.204  25.831   8.255
 7339POPC   C3B24909  19.150  25.833   7.955
 7339POPC   C4B24910  19.171  25.812   7.655
 7340POPC   NC324911  15.227   7.457   9.455
 7340POPC   PO424912  15.193   7.467   9.155
 7340POPC   GL124913  15.191   7.439   8.855
 7340POPC   GL224914  15.023   7.394   8.855
 7340POPC   C1A24915  15.163   7.457   8.555
 7340POPC   D2A24916  15.201   7.456   8.255
 7340POPC   C3A24917  15.171   7.430   7.955
 7340POPC   C4A24918  15.186   7.394   7.655
 7340POPC   C1B24919  14.975   7.308   8.555
 7340POPC   C2B24920  14.970   7.359   8.255
 7340POPC   C3B24921  14.899   7.371   7.955
 7340POPC   C4B24922  14.967   7.356   7.655
 7341POPC   NC324923  29.903  19.086   9.455
 7341POPC   PO424924  29.924  19.107   9.155
 7341POPC   GL124925  29.889  19.068   8.855
 7341POPC   GL224926  29.854  19.015   8.855
 7341POPC   C1A24927  29.885  19.022   8.555
 7341POPC   D2A24928  29.965  19.054   8.255
 7341POPC   C3A24929  29.909  19.066   7.955
 7341POPC   C4A24930  29.924  19.094   7.655
 7341POPC   C1B24931  29.769  18.952   8.555
 7341POPC   C2B24932  29.718  18.950   8.255
 7341POPC   C3B24933  29.744  18.882   7.955
 7341POPC   C4B24934  29.712  18.878   7.655
 7342POPC   NC324935  43.085  16.773   9.455
 7342POPC   PO424936  43.061  16.719   9.155
 7342POPC   GL124937  43.118  16.763   8.855
 7342POPC   GL224938  43.075  16.853   8.855
 7342POPC   C1A24939  43.063  16.722   8.555
 7342POPC   D2A24940  43.113  16.741   8.255
 7342POPC   C3A24941  43.156  16.760   7.955
 7342POPC   C4A24942  43.073  16.725   7.655
 7342POPC   C1B24943  43.042  17.002   8.555
 7342POPC   C2B24944  43.068  17.018   8.255
 7342POPC   C3B24945  43.088  17.025   7.955
 7342POPC   C4B24946  43.056  17.020   7.655
 7343POPC   NC324947   0.457  10.546   9.455
 7343POPC   PO424948   0.472  10.562   9.155
 7343POPC   GL124949   0.470  10.499   8.855
 7343POPC   GL224950   0.591  10.564   8.855
 7343POPC   C1A24951   0.432  10.518   8.555
 7343POPC   D2A24952   0.430  10.538   8.255
 7343POPC   C3A24953   0.471  10.515   7.955
 7343POPC   C4A24954   0.451  10.536   7.655
 7343POPC   C1B24955   0.656  10.552   8.555
 7343POPC   C2B24956   0.698  10.495   8.255
 7343POPC   C3B24957   0.689  10.529   7.955
 7343POPC   C4B24958   0.653  10.469   7.655
 7344POPC   NC324959  16.728  41.574   9.455
 7344POPC   PO424960  16.749  41.545   9.155
 7344POPC   GL124961  16.765  41.545   8.855
 7344POPC   GL224962  16.709  41.436   8.855
 7344POPC   C1A24963  16.736  41.607   8.555
 7344POPC   D2A24964  16.709  41.555   8.255
 7344POPC   C3A24965  16.734  41.581   7.955
 7344POPC   C4A24966  16.704  41.565   7.655
 7344POPC   C1B24967  16.774  41.324   8.555
 7344POPC   C2B24968  16.722  41.302   8.255
 7344POPC   C3B24969  16.769  41.289   7.955
 7344POPC   C4B24970  16.776  41.295   7.655
 7345POPC   NC324971  29.878   1.205   9.455
 7345POPC   PO424972  29.921   1.187   9.155
 7345POPC   GL124973  29.937   1.249   8.855
 7345POPC   GL224974  30.050   1.287   8.855
 7345POPC   C1A24975  29.899   1.259   8.555
 7345POPC   D2A24976  29.933   1.224   8.255
 7345POPC   C3A24977  29.939   1.240   7.955
 7345POPC   C4A24978  29.871   1.204   7.655
 7345POPC   C1B24979  30.129   1.277   8.555
 7345POPC   C2B24980  30.189   1.285   8.255
 7345POPC   C3B24981  30.132   1.268   7.955
 7345POPC   C4B24982  30.125   1.279   7.655
 7346POPC   NC324983  44.617  27.583   9.455
 7346POPC   PO424984  44.708  27.557   9.155
 7346POPC   GL124985  44.622  27.575   8.855
 7346POPC   GL224986  44.796  27.658   8.855
 7346POPC   C1A24987  44.645  27.594   8.555
 7346POPC   D2A24988  44.640  27.600   8.255
 7346POPC   C3A24989  44.689  27.567   7.955
 7346POPC   C4A24990  44.676  27.614   7.655
 7346POPC   C1B24991  44.936  27.662   8.555
 7346POPC   C2B24992  44.849  27.728   8.255
 7346POPC   C3B24993  44.869  27.715   7.955
 7346POPC   C4B24994  44.907  27.673   7.655
 7347POPC   NC324995  12.866  17.528   9.455
 7347POPC   PO424996  12.865  17.490   9.155
 7347POPC   GL124997  12.829  17.520   8.855
 7347POPC   GL224998  12.808  17.605   8.855
 7347POPC   C1A24999  12.838  17.472   8.555
 7347POPC   D2A25000  12.876  17.485   8.255
 7347POPC   C3A25001  12.819  17.503   7.955
 7347POPC   C4A25002  12.812  17.475   7.655
 7347POPC   C1B25003  12.758  17.740   8.555
 7347POPC   C2B25004  12.801  17.707   8.255
 7347POPC   C3B25005  12.819  17.744   7.955
 7347POPC   C4B25006  12.819  17.743   7.655
 7348POPC   NC325007  20.618  20.615   9.455
 7348POPC   PO425008  20.648  20.570   9.155
 7348POPC   GL125009  20.587  20.563   8.855
 7348POPC   GL225010  20.522  20.613   8.855
 7348POPC   C1A25011  20.658  20.596   8.555
 7348POPC   D2A25012  20.593  20.605   8.255
 7348POPC   C3A25013  20.576  20.636   7.955
 7348POPC   C4A25014  20.654  20.580   7.655
 7348POPC   C1B25015  20.379  20.562   8.555
 7348POPC   C2B25016  20.326  20.558   8.255
 7348POPC   C3B25017  20.343  20.527   7.955
 7348POPC   C4B25018  20.328  20.621   7.655
 7349POPC   NC325019  20.635  41.601   9.455
 7349POPC   PO425020  20.587  41.577   9.155
 7349POPC   GL125021  20.591  41.529   8.855
 7349POPC   GL225022  20.622  41.707   8.855
 7349POPC   C1A25023  20.623  41.578   8.555
 7349POPC   D2A25024  20.612  41.562   8.255
 7349POPC   C3A25025  20.590  41.582   7.955
 7349POPC   C4A25026  20.642  41.587   7.655
 7349POPC   C1B25027  20.585  41.817   8.555
 7349POPC   C2B25028  20.639  41.809   8.255
 7349POPC   C3B25029  20.643  41.783   7.955
 7349POPC   C4B25030  20.612  41.773   7.655
 7350POPC   NC325031  26.019  25.999   9.455
 7350POPC   PO425032  26.038  26.087   9.155
 7350POPC   GL125033  26.039  26.050   8.855
 7350POPC   GL225034  26.035  25.944   8.855
 7350POPC   C1A25035  26.028  26.088   8.555
 7350POPC   D2A25036  26.030  26.055   8.255
 7350POPC   C3A25037  26.003  26.074   7.955
 7350POPC   C4A25038  26.079  26.050   7.655
 7350POPC   C1B25039  26.040  25.755   8.555
 7350POPC   C2B25040  26.017  25.829   8.255
 7350POPC   C3B25041  26.078  25.809   7.955
 7350POPC   C4B25042  26.013  25.803   7.655
 7351POPC   NC325043  16.740  30.685   9.455
 7351POPC   PO425044  16.723  30.723   9.155
 7351POPC   GL125045  16.699  30.664   8.855
 7351POPC   GL225046  16.852  30.808   8.855
 7351POPC   C1A25047  16.726  30.726   8.555
 7351POPC   D2A25048  16.703  30.665   8.255
 7351POPC   C3A25049  16.697  30.653   7.955
 7351POPC   C4A25050  16.774  30.694   7.655
 7351POPC   C1B25051  16.882  30.878   8.555
 7351POPC   C2B25052  16.922  30.917   8.255
 7351POPC   C3B25053  16.883  30.935   7.955
 7351POPC   C4B25054  16.874  30.911   7.655
 7352POPC   NC325055   8.929  43.098   9.455
 7352POPC   PO425056   9.010  43.127   9.155
 7352POPC   GL125057   8.975  43.110   8.855
 7352POPC   GL225058   9.009  43.186   8.855
 7352POPC   C1A25059   8.970  43.122   8.555
 7352POPC   D2A25060   8.944  43.101   8.255
 7352POPC   C3A25061   8.978  43.142   7.955
 7352POPC   C4A25062   9.017  43.103   7.655
 7352POPC   C1B25063   8.989  43.358   8.555
 7352POPC   C2B25064   8.948  43.324   8.255
 7352POPC   C3B25065   9.037  43.402   7.955
 7352POPC   C4B25066   8.978  43.330   7.655
 7353POPC   NC325067  32.989  15.204   9.455
 7353POPC   PO425068  33.021  15.216   9.155
 7353POPC   GL125069  33.005  15.198   8.855
 7353POPC   GL225070  32.890  15.291   8.855
 7353POPC   C1A25071  33.063  15.175   8.555
 7353POPC   D2A25072  33.054  15.145   8.255
 7353POPC   C3A25073  33.005  15.184   7.955
 7353POPC   C4A25074  32.990  15.220   7.655
 7353POPC   C1B25075  32.842  15.326   8.555
 7353POPC   C2B25076  32.810  15.352   8.255
 7353POPC   C3B25077  32.870  15.303   7.955
 7353POPC   C4B25078  32.840  15.364   7.655
 7354POPC   NC325079   7.374  36.105   9.455
 7354POPC   PO425080   7.406  36.162   9.155
 7354POPC   GL125081   7.463  36.164   8.855
 7354POPC   GL225082   7.388  36.208   8.855
 7354POPC   C1A25083   7.463  36.124   8.555
 7354POPC   D2A25084   7.431  36.162   8.255
 7354POPC   C3A25085   7.442  36.167   7.955
 7354POPC   C4A25086   7.441  36.122   7.655
 7354POPC   C1B25087   7.361  36.381   8.555
 7354POPC   C2B25088   7.375  36.389   8.255
 7354POPC   C3B25089   7.346  36.313   7.955
 7354POPC   C4B25090   7.338  36.408   7.655
 7355POPC   NC325091  10.525  40.795   9.455
 7355POPC   PO425092  10.568  40.774   9.155
 7355POPC   GL125093  10.490  40.817   8.855
 7355POPC   GL225094  10.628  40.688   8.855
 7355POPC   C1A25095  10.503  40.825   8.555
 7355POPC   D2A25096  10.573  40.756   8.255
 7355POPC   C3A25097  10.564  40.754   7.955
 7355POPC   C4A25098  10.507  40.791   7.655
 7355POPC   C1B25099  10.696  40.595   8.555
 7355POPC   C2B25100  10.693  40.630   8.255
 7355POPC   C3B25101  10.737  40.569   7.955
 7355POPC   C4B25102  10.683  40.558   7.655
 7356POPC   NC325103  20.660  44.666   9.455
 7356POPC   PO425104  20.643  44.654   9.155
 7356POPC   GL125105  20.632  44.672   8.855
 7356POPC   GL225106  20.558  44.624   8.855
 7356POPC   C1A25107  20.605  44.657   8.555
 7356POPC   D2A25108  20.579  44.633   8.255
 7356POPC   C3A25109  20.647  44.625   7.955
 7356POPC   C4A25110  20.626  44.676   7.655
 7356POPC   C1B25111  20.421  44.511   8.555
 7356POPC   C2B25112  20.380  44.490   8.255
 7356POPC   C3B25113  20.411  44.492   7.955
 7356POPC   C4B25114  20.365  44.511   7.655
 7357POPC   NC325115  25.232  26.828   9.455
 7357POPC   PO425116  25.222  26.795   9.155
 7357POPC   GL125117  25.313  26.792   8.855
 7357POPC   GL225118  25.126  26.927   8.855
 7357POPC   C1A25119  25.299  26.831   8.555
 7357POPC   D2A25120  25.262  26.834   8.255
 7357POPC   C3A25121  25.259  26.838   7.955
 7357POPC   C4A25122  25.273  26.789   7.655
 7357POPC   C1B25123  25.070  26.955   8.555
 7357POPC   C2B25124  25.077  27.009   8.255
 7357POPC   C3B25125  25.072  26.933   7.955
 7357POPC   C4B25126  25.101  27.006   7.655
 7358POPC   NC325127  13.656  12.859   9.455
 7358POPC   PO425128  13.665  12.883   9.155
 7358POPC   GL125129  13.640  12.850   8.855
 7358POPC   GL225130  13.642  12.743   8.855
 7358POPC   C1A25131  13.588  12.890   8.555
 7358POPC   D2A25132  13.634  12.832   8.255
 7358POPC   C3A25133  13.595  12.901   7.955
 7358POPC   C4A25134  13.668  12.867   7.655
 7358POPC   C1B25135  13.708  12.587   8.555
 7358POPC   C2B25136  13.735  12.622   8.255
 7358POPC   C3B25137  13.719  12.631   7.955
 7358POPC   C4B25138  13.751  12.581   7.655
 7359POPC   NC325139  11.319   5.090   9.455
 7359POPC   PO425140  11.300   5.094   9.155
 7359POPC   GL125141  11.252   5.083   8.855
 7359POPC   GL225142  11.287   5.207   8.855
 7359POPC   C1A25143  11.251   5.060   8.555
 7359POPC   D2A25144  11.270   5.106   8.255
 7359POPC   C3A25145  11.256   5.061   7.955
 7359POPC   C4A25146  11.302   5.107   7.655
 7359POPC   C1B25147  11.198   5.338   8.555
 7359POPC   C2B25148  11.207   5.323   8.255
 7359POPC   C3B25149  11.156   5.282   7.955
 7359POPC   C4B25150  11.216   5.343   7.655
 7360POPC   NC325151  32.282   4.345   9.455
 7360POPC   PO425152  32.249   4.318   9.155
 7360POPC   GL125153  32.230   4.321   8.855
 7360POPC   GL225154  32.224   4.478   8.855
 7360POPC   C1A25155  32.235   4.342   8.555
 7360POPC   D2A25156  32.242   4.320   8.255
 7360POPC   C3A25157  32.272   4.325   7.955
 7360POPC   C4A25158  32.234   4.336   7.655
 7360POPC   C1B25159  32.137   4.532   8.555
 7360POPC   C2B25160  32.128   4.521   8.255
 7360POPC   C3B25161  32.186   4.558   7.955
 7360POPC   C4B25162  32.098   4.570   7.655
 7361POPC   NC325163  13.648  33.029   9.455
 7361POPC   PO425164  13.611  33.013   9.155
 7361POPC   GL125165  13.659  32.983   8.855
 7361POPC   GL225166  13.679  33.130   8.855
 7361POPC   C1A25167  13.605  33.040   8.555
 7361POPC   D2A25168  13.626  33.014   8.255
 7361POPC   C3A25169  13.617  33.062   7.955
 7361POPC   C4A25170  13.583  33.021   7.655
 7361POPC   C1B25171  13.687  33.215   8.555
 7361POPC   C2B25172  13.676  33.248   8.255
 7361POPC   C3B25173  13.743  33.294   7.955
 7361POPC   C4B25174  13.717  33.267   7.655
 7362POPC   NC325175  19.817  23.671   9.455
 7362POPC   PO425176  19.844  23.714   9.155
 7362POPC   GL125177  19.834  23.678   8.855
 7362POPC   GL225178  20.000  23.733   8.855
 7362POPC   C1A25179  19.801  23.751   8.555
 7362POPC   D2A25180  19.802  23.733   8.255
 7362POPC   C3A25181  19.871  23.681   7.955
 7362POPC   C4A25182  19.787  23.682   7.655
 7362POPC   C1B25183  20.122  23.783   8.555
 7362POPC   C2B25184  20.050  23.724   8.255
 7362POPC   C3B25185  20.107  23.720   7.955
 7362POPC   C4B25186  20.040  23.813   7.655
 7363POPC   NC325187  19.057   0.465   9.455
 7363POPC   PO425188  19.030   0.452   9.155
 7363POPC   GL125189  19.093   0.430   8.855
 7363POPC   GL225190  19.012   0.505   8.855
 7363POPC   C1A25191  19.030   0.414   8.555
 7363POPC   D2A25192  19.095   0.416   8.255
 7363POPC   C3A25193  19.037   0.425   7.955
 7363POPC   C4A25194  19.022   0.421   7.655
 7363POPC   C1B25195  18.879   0.617   8.555
 7363POPC   C2B25196  18.871   0.673   8.255
 7363POPC   C3B25197  18.940   0.587   7.955
 7363POPC   C4B25198  18.877   0.608   7.655
 7364POPC   NC325199  43.124  38.435   9.455
 7364POPC   PO425200  43.129  38.427   9.155
 7364POPC   GL125201  43.096  38.480   8.855
 7364POPC   GL225202  43.185  38.556   8.855
 7364POPC   C1A25203  43.101  38.500   8.555
 7364POPC   D2A25204  43.107  38.491   8.255
 7364POPC   C3A25205  43.110  38.421   7.955
 7364POPC   C4A25206  43.155  38.497   7.655
 7364POPC   C1B25207  43.260  38.655   8.555
 7364POPC   C2B25208  43.244  38.646   8.255
 7364POPC   C3B25209  43.255  38.685   7.955
 7364POPC   C4B25210  43.235  38.688   7.655
 7365POPC   NC325211   3.581  32.212   9.455
 7365POPC   PO425212   3.566  32.289   9.155
 7365POPC   GL125213   3.544  32.249   8.855
 7365POPC   GL225214   3.419  32.272   8.855
 7365POPC   C1A25215   3.498  32.227   8.555
 7365POPC   D2A25216   3.507  32.232   8.255
 7365POPC   C3A25217   3.523  32.226   7.955
 7365POPC   C4A25218   3.566  32.242   7.655
 7365POPC   C1B25219   3.310  32.227   8.555
 7365POPC   C2B25220   3.290  32.218   8.255
 7365POPC   C3B25221   3.316  32.288   7.955
 7365POPC   C4B25222   3.293  32.240   7.655
 7366POPC   NC325223  28.366  10.515   9.455
 7366POPC   PO425224  28.350  10.487   9.155
 7366POPC   GL125225  28.387  10.556   8.855
 7366POPC   GL225226  28.461  10.365   8.855
 7366POPC   C1A25227  28.361  10.514   8.555
 7366POPC   D2A25228  28.357  10.506   8.255
 7366POPC   C3A25229  28.338  10.543   7.955
 7366POPC   C4A25230  28.417  10.516   7.655
 7366POPC   C1B25231  28.505  10.312   8.555
 7366POPC   C2B25232  28.440  10.350   8.255
 7366POPC   C3B25233  28.522  10.343   7.955
 7366POPC   C4B25234  28.525  10.266   7.655
 7367POPC   NC325235   9.726  14.452   9.455
 7367POPC   PO425236   9.791  14.368   9.155
 7367POPC   GL125237   9.776  14.419   8.855
 7367POPC   GL225238   9.700  14.317   8.855
 7367POPC   C1A25239   9.760  14.432   8.555
 7367POPC   D2A25240   9.750  14.416   8.255
 7367POPC   C3A25241   9.706  14.413   7.955
 7367POPC   C4A25242   9.707  14.415   7.655
 7367POPC   C1B25243   9.673  14.109   8.555
 7367POPC   C2B25244   9.709  14.110   8.255
 7367POPC   C3B25245   9.693  14.181   7.955
 7367POPC   C4B25246   9.745  14.163   7.655
 7368POPC   NC325247  12.064  39.961   9.455
 7368POPC   PO425248  12.098  40.026   9.155
 7368POPC   GL125249  12.027  40.047   8.855
 7368POPC   GL225250  12.133  40.070   8.855
 7368POPC   C1A25251  12.043  40.022   8.555
 7368POPC   D2A25252  12.027  40.034   8.255
 7368POPC   C3A25253  12.070  39.997   7.955
 7368POPC   C4A25254  12.100  40.011   7.655
 7368POPC   C1B25255  12.250  40.210   8.555
 7368POPC   C2B25256  12.270  40.187   8.255
 7368POPC   C3B25257  12.313  40.118   7.955
 7368POPC   C4B25258  12.319  40.149   7.655
 7369POPC   NC325259  15.183  14.370   9.455
 7369POPC   PO425260  15.199  14.450   9.155
 7369POPC   GL125261  15.163  14.370   8.855
 7369POPC   GL225262  15.116  14.282   8.855
 7369POPC   C1A25263  15.136  14.379   8.555
 7369POPC   D2A25264  15.203  14.386   8.255
 7369POPC   C3A25265  15.170  14.405   7.955
 7369POPC   C4A25266  15.159  14.377   7.655
 7369POPC   C1B25267  15.043  14.194   8.555
 7369POPC   C2B25268  15.013  14.198   8.255
 7369POPC   C3B25269  15.018  14.188   7.955
 7369POPC   C4B25270  15.030  14.180   7.655
 7370POPC   NC325271   8.965   3.531   9.455
 7370POPC   PO425272   8.983   3.523   9.155
 7370POPC   GL125273   8.959   3.579   8.855
 7370POPC   GL225274   8.931   3.641   8.855
 7370POPC   C1A25275   8.974   3.534   8.555
 7370POPC   D2A25276   9.004   3.528   8.255
 7370POPC   C3A25277   8.968   3.571   7.955
 7370POPC   C4A25278   8.969   3.507   7.655
 7370POPC   C1B25279   8.851   3.745   8.555
 7370POPC   C2B25280   8.815   3.791   8.255
 7370POPC   C3B25281   8.821   3.787   7.955
 7370POPC   C4B25282   8.811   3.714   7.655
 7371POPC   NC325283  34.603  39.981   9.455
 7371POPC   PO425284  34.592  40.031   9.155
 7371POPC   GL125285  34.580  39.979   8.855
 7371POPC   GL225286  34.744  40.058   8.855
 7371POPC   C1A25287  34.602  39.992   8.555
 7371POPC   D2A25288  34.571  39.975   8.255
 7371POPC   C3A25289  34.555  40.005   7.955
 7371POPC   C4A25290  34.535  40.000   7.655
 7371POPC   C1B25291  34.872  40.025   8.555
 7371POPC   C2B25292  34.839  40.068   8.255
 7371POPC   C3B25293  34.828  40.052   7.955
 7371POPC   C4B25294  34.825  40.055   7.655
 7372POPC   NC325295  37.715  40.037   9.455
 7372POPC   PO425296  37.692  40.016   9.155
 7372POPC   GL125297  37.640  40.014   8.855
 7372POPC   GL225298  37.541  40.084   8.855
 7372POPC   C1A25299  37.635  39.967   8.555
 7372POPC   D2A25300  37.707  40.037   8.255
 7372POPC   C3A25301  37.647  40.010   7.955
 7372POPC   C4A25302  37.634  39.980   7.655
 7372POPC   C1B25303  37.475  40.161   8.555
 7372POPC   C2B25304  37.500  40.102   8.255
 7372POPC   C3B25305  37.450  40.105   7.955
 7372POPC   C4B25306  37.420  40.176   7.655
 7373POPC   NC325307  22.920   3.555   9.455
 7373POPC   PO425308  22.961   3.575   9.155
 7373POPC   GL125309  22.962   3.578   8.855
 7373POPC   GL225310  22.924   3.466   8.855
 7373POPC   C1A25311  22.893   3.589   8.555
 7373POPC   D2A25312  22.922   3.588   8.255
 7373POPC   C3A25313  22.953   3.554   7.955
 7373POPC   C4A25314  22.939   3.521   7.655
 7373POPC   C1B25315  22.933   3.263   8.555
 7373POPC   C2B25316  22.879   3.330   8.255
 7373POPC   C3B25317  22.899   3.284   7.955
 7373POPC   C4B25318  22.858   3.307   7.655
 7374POPC   NC325319  11.282   9.717   9.455
 7374POPC   PO425320  11.283   9.739   9.155
 7374POPC   GL125321  11.334   9.796   8.855
 7374POPC   GL225322  11.361   9.828   8.855
 7374POPC   C1A25323  11.342   9.728   8.555
 7374POPC   D2A25324  11.306   9.775   8.255
 7374POPC   C3A25325  11.284   9.790   7.955
 7374POPC   C4A25326  11.294   9.795   7.655
 7374POPC   C1B25327  11.372   9.987   8.555
 7374POPC   C2B25328  11.399  10.000   8.255
 7374POPC   C3B25329  11.325  10.034   7.955
 7374POPC   C4B25330  11.412  10.029   7.655
 7375POPC   NC325331   0.444  25.220   9.455
 7375POPC   PO425332   0.436  25.256   9.155
 7375POPC   GL125333   0.417  25.216   8.855
 7375POPC   GL225334   0.270  25.266   8.855
 7375POPC   C1A25335   0.424  25.278   8.555
 7375POPC   D2A25336   0.431  25.294   8.255
 7375POPC   C3A25337   0.454  25.305   7.955
 7375POPC   C4A25338   0.471  25.294   7.655
 7375POPC   C1B25339   0.230  25.263   8.555
 7375POPC   C2B25340   0.179  25.192   8.255
 7375POPC   C3B25341   0.180  25.191   7.955
 7375POPC   C4B25342   0.148  25.240   7.655
 7376POPC   NC325343  43.073  28.343   9.455
 7376POPC   PO425344  43.093  28.387   9.155
 7376POPC   GL125345  43.071  28.379   8.855
 7376POPC   GL225346  42.958  28.396   8.855
 7376POPC   C1A25347  43.092  28.347   8.555
 7376POPC   D2A25348  43.127  28.401   8.255
 7376POPC   C3A25349  43.091  28.353   7.955
 7376POPC   C4A25350  43.091  28.403   7.655
 7376POPC   C1B25351  42.899  28.304   8.555
 7376POPC   C2B25352  42.889  28.357   8.255
 7376POPC   C3B25353  42.903  28.303   7.955
 7376POPC   C4B25354  42.882  28.369   7.655
 7377POPC   NC325355  15.941  37.705   9.455
 7377POPC   PO425356  15.986  37.641   9.155
 7377POPC   GL125357  15.996  37.648   8.855
 7377POPC   GL225358  15.836  37.768   8.855
 7377POPC   C1A25359  15.971  37.728   8.555
 7377POPC   D2A25360  15.940  37.683   8.255
 7377POPC   C3A25361  15.923  37.671   7.955
 7377POPC   C4A25362  15.935  37.715   7.655
 7377POPC   C1B25363  15.783  37.851   8.555
 7377POPC   C2B25364  15.754  37.794   8.255
 7377POPC   C3B25365  15.767  37.839   7.955
 7377POPC   C4B25366  15.799  37.800   7.655
 7378POPC   NC325367  19.029  30.735   9.455
 7378POPC   PO425368  19.068  30.681   9.155
 7378POPC   GL125369  19.013  30.733   8.855
 7378POPC   GL225370  18.889  30.672   8.855
 7378POPC   C1A25371  19.038  30.660   8.555
 7378POPC   D2A25372  19.044  30.654   8.255
 7378POPC   C3A25373  19.054  30.653   7.955
 7378POPC   C4A25374  19.029  30.716   7.655
 7378POPC   C1B25375  18.857  30.652   8.555
 7378POPC   C2B25376  18.798  30.656   8.255
 7378POPC   C3B25377  18.837  30.661   7.955
 7378POPC   C4B25378  18.857  30.672   7.655
 7379POPC   NC325379  40.808  42.365   9.455
 7379POPC   PO425380  40.775  42.297   9.155
 7379POPC   GL125381  40.740  42.285   8.855
 7379POPC   GL225382  40.905  42.375   8.855
 7379POPC   C1A25383  40.741  42.336   8.555
 7379POPC   D2A25384  40.772  42.334   8.255
 7379POPC   C3A25385  40.779  42.329   7.955
 7379POPC   C4A25386  40.813  42.353   7.655
 7379POPC   C1B25387  40.993  42.540   8.555
 7379POPC   C2B25388  40.972  42.502   8.255
 7379POPC   C3B25389  40.970  42.451   7.955
 7379POPC   C4B25390  40.983  42.467   7.655
 7380POPC   NC325391  21.388  36.865   9.455
 7380POPC   PO425392  21.427  36.935   9.155
 7380POPC   GL125393  21.405  36.934   8.855
 7380POPC   GL225394  21.474  36.927   8.855
 7380POPC   C1A25395  21.358  36.900   8.555
 7380POPC   D2A25396  21.396  36.880   8.255
 7380POPC   C3A25397  21.409  36.912   7.955
 7380POPC   C4A25398  21.414  36.861   7.655
 7380POPC   C1B25399  21.641  37.026   8.555
 7380POPC   C2B25400  21.621  36.999   8.255
 7380POPC   C3B25401  21.596  36.983   7.955
 7380POPC   C4B25402  21.637  36.989   7.655
 7381POPC   NC325403   7.432  27.611   9.455
 7381POPC   PO425404   7.417  27.615   9.155
 7381POPC   GL125405   7.465  27.609   8.855
 7381POPC   GL225406   7.453  27.510   8.855
 7381POPC   C1A25407   7.415  27.563   8.555
 7381POPC   D2A25408   7.435  27.562   8.255
 7381POPC   C3A25409   7.452  27.630   7.955
 7381POPC   C4A25410   7.407  27.563   7.655
 7381POPC   C1B25411   7.450  27.336   8.555
 7381POPC   C2B25412   7.521  27.386   8.255
 7381POPC   C3B25413   7.487  27.367   7.955
 7381POPC   C4B25414   7.511  27.318   7.655
 7382POPC   NC325415   9.774  39.999   9.455
 7382POPC   PO425416   9.725  39.960   9.155
 7382POPC   GL125417   9.722  40.004   8.855
 7382POPC   GL225418   9.706  40.083   8.855
 7382POPC   C1A25419   9.754  40.053   8.555
 7382POPC   D2A25420   9.709  40.011   8.255
 7382POPC   C3A25421   9.711  40.040   7.955
 7382POPC   C4A25422   9.776  39.978   7.655
 7382POPC   C1B25423   9.699  40.238   8.555
 7382POPC   C2B25424   9.682  40.271   8.255
 7382POPC   C3B25425   9.691  40.276   7.955
 7382POPC   C4B25426   9.628  40.266   7.655
 7383POPC   NC325427   2.732  43.139   9.455
 7383POPC   PO425428   2.760  43.147   9.155
 7383POPC   GL125429   2.748  43.116   8.855
 7383POPC   GL225430   2.671  42.975   8.855
 7383POPC   C1A25431   2.753  43.064   8.555
 7383POPC   D2A25432   2.718  43.141   8.255
 7383POPC   C3A25433   2.745  43.097   7.955
 7383POPC   C4A25434   2.794  43.146   7.655
 7383POPC   C1B25435   2.696  42.886   8.555
 7383POPC   C2B25436   2.651  42.903   8.255
 7383POPC   C3B25437   2.694  42.829   7.955
 7383POPC   C4B25438   2.624  42.898   7.655
 7384POPC   NC325439  38.458  14.396   9.455
 7384POPC   PO425440  38.421  14.434   9.155
 7384POPC   GL125441  38.497  14.414   8.855
 7384POPC   GL225442  38.477  14.516   8.855
 7384POPC   C1A25443  38.428  14.405   8.555
 7384POPC   D2A25444  38.430  14.431   8.255
 7384POPC   C3A25445  38.474  14.355   7.955
 7384POPC   C4A25446  38.495  14.407   7.655
 7384POPC   C1B25447  38.603  14.597   8.555
 7384POPC   C2B25448  38.542  14.620   8.255
 7384POPC   C3B25449  38.518  14.660   7.955
 7384POPC   C4B25450  38.581  14.660   7.655
 7385POPC   NC325451  15.228  26.073   9.455
 7385POPC   PO425452  15.227  26.049   9.155
 7385POPC   GL125453  15.145  26.003   8.855
 7385POPC   GL225454  15.304  26.029   8.855
 7385POPC   C1A25455  15.182  26.075   8.555
 7385POPC   D2A25456  15.159  26.069   8.255
 7385POPC   C3A25457  15.165  26.036   7.955
 7385POPC   C4A25458  15.139  26.051   7.655
 7385POPC   C1B25459  15.465  25.988   8.555
 7385POPC   C2B25460  15.435  26.013   8.255
 7385POPC   C3B25461  15.428  25.955   7.955
 7385POPC   C4B25462  15.424  25.987   7.655
 7386POPC   NC325463  34.602  29.135   9.455
 7386POPC   PO425464  34.601  29.187   9.155
 7386POPC   GL125465  34.587  29.156   8.855
 7386POPC   GL225466  34.448  29.041   8.855
 7386POPC   C1A25467  34.577  29.101   8.555
 7386POPC   D2A25468  34.549  29.096   8.255
 7386POPC   C3A25469  34.605  29.101   7.955
 7386POPC   C4A25470  34.621  29.167   7.655
 7386POPC   C1B25471  34.403  28.962   8.555
 7386POPC   C2B25472  34.404  28.992   8.255
 7386POPC   C3B25473  34.338  28.986   7.955
 7386POPC   C4B25474  34.374  29.026   7.655
 7387POPC   NC325475  26.033  19.085   9.455
 7387POPC   PO425476  26.048  19.013   9.155
 7387POPC   GL125477  26.002  19.024   8.855
 7387POPC   GL225478  25.962  18.930   8.855
 7387POPC   C1A25479  26.015  19.050   8.555
 7387POPC   D2A25480  26.057  19.098   8.255
 7387POPC   C3A25481  26.053  19.079   7.955
 7387POPC   C4A25482  26.021  19.069   7.655
 7387POPC   C1B25483  25.872  18.912   8.555
 7387POPC   C2B25484  25.873  18.886   8.255
 7387POPC   C3B25485  25.895  18.872   7.955
 7387POPC   C4B25486  25.915  18.914   7.655
 7388POPC   NC325487  28.355   9.004   9.455
 7388POPC   PO425488  28.356   9.015   9.155
 7388POPC   GL125489  28.368   8.928   8.855
 7388POPC   GL225490  28.309   8.850   8.855
 7388POPC   C1A25491  28.340   8.977   8.555
 7388POPC   D2A25492  28.370   8.994   8.255
 7388POPC   C3A25493  28.387   8.985   7.955
 7388POPC   C4A25494  28.370   8.948   7.655
 7388POPC   C1B25495  28.366   8.681   8.555
 7388POPC   C2B25496  28.369   8.688   8.255
 7388POPC   C3B25497  28.379   8.678   7.955
 7388POPC   C4B25498  28.298   8.722   7.655
 7389POPC   NC325499  21.405  28.399   9.455
 7389POPC   PO425500  21.407  28.372   9.155
 7389POPC   GL125501  21.407  28.371   8.855
 7389POPC   GL225502  21.506  28.343   8.855
 7389POPC   C1A25503  21.429  28.388   8.555
 7389POPC   D2A25504  21.358  28.370   8.255
 7389POPC   C3A25505  21.428  28.323   7.955
 7389POPC   C4A25506  21.436  28.359   7.655
 7389POPC   C1B25507  21.663  28.413   8.555
 7389POPC   C2B25508  21.621  28.391   8.255
 7389POPC   C3B25509  21.630  28.378   7.955
 7389POPC   C4B25510  21.629  28.355   7.655
 7390POPC   NC325511  19.790   3.492   9.455
 7390POPC   PO425512  19.846   3.492   9.155
 7390POPC   GL125513  19.842   3.580   8.855
 7390POPC   GL225514  19.943   3.548   8.855
 7390POPC   C1A25515  19.795   3.554   8.555
 7390POPC   D2A25516  19.805   3.587   8.255
 7390POPC   C3A25517  19.872   3.507   7.955
 7390POPC   C4A25518  19.800   3.539   7.655
 7390POPC   C1B25519  20.040   3.588   8.555
 7390POPC   C2B25520  20.119   3.589   8.255
 7390POPC   C3B25521  20.044   3.577   7.955
 7390POPC   C4B25522  20.048   3.625   7.655
 7391POPC   NC325523  14.363  29.931   9.455
 7391POPC   PO425524  14.379  29.881   9.155
 7391POPC   GL125525  14.432  29.956   8.855
 7391POPC   GL225526  14.462  29.831   8.855
 7391POPC   C1A25527  14.443  29.886   8.555
 7391POPC   D2A25528  14.383  29.920   8.255
 7391POPC   C3A25529  14.441  29.886   7.955
 7391POPC   C4A25530  14.416  29.947   7.655
 7391POPC   C1B25531  14.581  29.722   8.555
 7391POPC   C2B25532  14.589  29.713   8.255
 7391POPC   C3B25533  14.571  29.799   7.955
 7391POPC   C4B25534  14.605  29.777   7.655
 7392POPC   NC325535  39.250  29.891   9.455
 7392POPC   PO425536  39.278  29.928   9.155
 7392POPC   GL125537  39.247  29.873   8.855
 7392POPC   GL225538  39.209  30.011   8.855
 7392POPC   C1A25539  39.274  29.955   8.555
 7392POPC   D2A25540  39.228  29.881   8.255
 7392POPC   C3A25541  39.280  29.879   7.955
 7392POPC   C4A25542  39.228  29.928   7.655
 7392POPC   C1B25543  39.136  30.111   8.555
 7392POPC   C2B25544  39.090  30.155   8.255
 7392POPC   C3B25545  39.071  30.104   7.955
 7392POPC   C4B25546  39.123  30.103   7.655
 7393POPC   NC325547  23.687   0.478   9.455
 7393POPC   PO425548  23.664   0.412   9.155
 7393POPC   GL125549  23.669   0.402   8.855
 7393POPC   GL225550  23.665   0.353   8.855
 7393POPC   C1A25551  23.724   0.475   8.555
 7393POPC   D2A25552  23.757   0.415   8.255
 7393POPC   C3A25553  23.744   0.462   7.955
 7393POPC   C4A25554  23.762   0.415   7.655
 7393POPC   C1B25555  23.594   0.225   8.555
 7393POPC   C2B25556  23.628   0.181   8.255
 7393POPC   C3B25557  23.545   0.197   7.955
 7393POPC   C4B25558  23.598   0.222   7.655
 7394POPC   NC325559   1.957  18.286   9.455
 7394POPC   PO425560   2.017  18.255   9.155
 7394POPC   GL125561   1.987  18.296   8.855
 7394POPC   GL225562   2.058  18.192   8.855
 7394POPC   C1A25563   1.993  18.284   8.555
 7394POPC   D2A25564   1.961  18.294   8.255
 7394POPC   C3A25565   1.999  18.264   7.955
 7394POPC   C4A25566   2.003  18.260   7.655
 7394POPC   C1B25567   2.128  18.012   8.555
 7394POPC   C2B25568   2.050  18.024   8.255
 7394POPC   C3B25569   2.088  18.037   7.955
 7394POPC   C4B25570   2.112  18.021   7.655
 7395POPC   NC325571  43.090   8.147   9.455
 7395POPC   PO425572  43.129   8.178   9.155
 7395POPC   GL125573  43.103   8.239   8.855
 7395POPC   GL225574  43.209   8.292   8.855
 7395POPC   C1A25575  43.123   8.219   8.555
 7395POPC   D2A25576  43.138   8.198   8.255
 7395POPC   C3A25577  43.106   8.173   7.955
 7395POPC   C4A25578  43.097   8.239   7.655
 7395POPC   C1B25579  43.387   8.264   8.555
 7395POPC   C2B25580  43.297   8.318   8.255
 7395POPC   C3B25581  43.361   8.286   7.955
 7395POPC   C4B25582  43.334   8.278   7.655
 7396POPC   NC325583  32.990  43.093   9.455
 7396POPC   PO425584  33.067  43.132   9.155
 7396POPC   GL125585  33.066  43.151   8.855
 7396POPC   GL225586  33.033  43.220   8.855
 7396POPC   C1A25587  33.054  43.136   8.555
 7396POPC   D2A25588  32.984  43.148   8.255
 7396POPC   C3A25589  33.053  43.095   7.955
 7396POPC   C4A25590  33.066  43.106   7.655
 7396POPC   C1B25591  32.993  43.390   8.555
 7396POPC   C2B25592  33.084  43.331   8.255
 7396POPC   C3B25593  33.016  43.352   7.955
 7396POPC   C4B25594  33.008  43.362   7.655
 7397POPC   NC325595  28.331   4.362   9.455
 7397POPC   PO425596  28.363   4.366   9.155
 7397POPC   GL125597  28.327   4.319   8.855
 7397POPC   GL225598  28.274   4.357   8.855
 7397POPC   C1A25599  28.344   4.367   8.555
 7397POPC   D2A25600  28.352   4.270   8.255
 7397POPC   C3A25601  28.325   4.296   7.955
 7397POPC   C4A25602  28.391   4.360   7.655
 7397POPC   C1B25603  28.115   4.400   8.555
 7397POPC   C2B25604  28.099   4.376   8.255
 7397POPC   C3B25605  28.139   4.385   7.955
 7397POPC   C4B25606  28.110   4.395   7.655
 7398POPC   NC325607   2.031  25.309   9.455
 7398POPC   PO425608   1.955  25.269   9.155
 7398POPC   GL125609   1.954  25.260   8.855
 7398POPC   GL225610   1.919  25.295   8.855
 7398POPC   C1A25611   1.956  25.284   8.555
 7398POPC   D2A25612   2.009  25.217   8.255
 7398POPC   C3A25613   2.006  25.221   7.955
 7398POPC   C4A25614   1.962  25.248   7.655
 7398POPC   C1B25615   1.807  25.426   8.555
 7398POPC   C2B25616   1.809  25.365   8.255
 7398POPC   C3B25617   1.792  25.339   7.955
 7398POPC   C4B25618   1.801  25.436   7.655
 7399POPC   NC325619  43.088  29.115   9.455
 7399POPC   PO425620  43.103  29.133   9.155
 7399POPC   GL125621  43.116  29.193   8.855
 7399POPC   GL225622  43.025  29.085   8.855
 7399POPC   C1A25623  43.118  29.162   8.555
 7399POPC   D2A25624  43.098  29.139   8.255
 7399POPC   C3A25625  43.101  29.108   7.955
 7399POPC   C4A25626  43.104  29.102   7.655
 7399POPC   C1B25627  42.895  28.989   8.555
 7399POPC   C2B25628  42.908  29.047   8.255
 7399POPC   C3B25629  42.871  28.982   7.955
 7399POPC   C4B25630  42.902  29.050   7.655
 7400POPC   NC325631  30.746   8.243   9.455
 7400POPC   PO425632  30.726   8.195   9.155
 7400POPC   GL125633  30.697   8.232   8.855
 7400POPC   GL225634  30.598   8.104   8.855
 7400POPC   C1A25635  30.661   8.209   8.555
 7400POPC   D2A25636  30.687   8.227   8.255
 7400POPC   C3A25637  30.738   8.228   7.955
 7400POPC   C4A25638  30.686   8.201   7.655
 7400POPC   C1B25639  30.549   7.992   8.555
 7400POPC   C2B25640  30.576   8.034   8.255
 7400POPC   C3B25641  30.523   7.991   7.955
 7400POPC   C4B25642  30.544   7.957   7.655
 7401POPC   NC325643  41.555  18.261   9.455
 7401POPC   PO425644  41.545  18.331   9.155
 7401POPC   GL125645  41.608  18.269   8.855
 7401POPC   GL225646  41.648  18.222   8.855
 7401POPC   C1A25647  41.539  18.250   8.555
 7401POPC   D2A25648  41.556  18.267   8.255
 7401POPC   C3A25649  41.526  18.268   7.955
 7401POPC   C4A25650  41.523  18.315   7.655
 7401POPC   C1B25651  41.762  18.099   8.555
 7401POPC   C2B25652  41.725  18.180   8.255
 7401POPC   C3B25653  41.755  18.119   7.955
 7401POPC   C4B25654  41.746  18.157   7.655
 7402POPC   NC325655   4.277  33.004   9.455
 7402POPC   PO425656   4.315  33.012   9.155
 7402POPC   GL125657   4.350  33.029   8.855
 7402POPC   GL225658   4.385  33.138   8.855
 7402POPC   C1A25659   4.286  33.002   8.555
 7402POPC   D2A25660   4.358  33.016   8.255
 7402POPC   C3A25661   4.342  33.044   7.955
 7402POPC   C4A25662   4.353  33.004   7.655
 7402POPC   C1B25663   4.498  33.183   8.555
 7402POPC   C2B25664   4.511  33.217   8.255
 7402POPC   C3B25665   4.417  33.260   7.955
 7402POPC   C4B25666   4.422  33.232   7.655
 7403POPC   NC325667  40.008  43.077   9.455
 7403POPC   PO425668  40.049  43.138   9.155
 7403POPC   GL125669  39.984  43.126   8.855
 7403POPC   GL225670  39.939  43.196   8.855
 7403POPC   C1A25671  39.990  43.086   8.555
 7403POPC   D2A25672  40.016  43.142   8.255
 7403POPC   C3A25673  40.043  43.112   7.955
 7403POPC   C4A25674  40.055  43.157   7.655
 7403POPC   C1B25675  39.954  43.344   8.555
 7403POPC   C2B25676  39.887  43.376   8.255
 7403POPC   C3B25677  39.902  43.361   7.955
 7403POPC   C4B25678  39.963  43.306   7.655
 7404POPC   NC325679  15.966   7.394   9.455
 7404POPC   PO425680  15.933   7.378   9.155
 7404POPC   GL125681  15.935   7.388   8.855
 7404POPC   GL225682  16.053   7.431   8.855
 7404POPC   C1A25683  15.907   7.386   8.555
 7404POPC   D2A25684  15.957   7.461   8.255
 7404POPC   C3A25685  15.919   7.387   7.955
 7404POPC   C4A25686  15.964   7.464   7.655
 7404POPC   C1B25687  16.182   7.435   8.555
 7404POPC   C2B25688  16.231   7.487   8.255
 7404POPC   C3B25689  16.164   7.520   7.955
 7404POPC   C4B25690  16.198   7.454   7.655
 7405POPC   NC325691  15.937  44.691   9.455
 7405POPC   PO425692  15.930  44.712   9.155
 7405POPC   GL125693  15.955  44.635   8.855
 7405POPC   GL225694  16.016  44.769   8.855
 7405POPC   C1A25695  15.948  44.706   8.555
 7405POPC   D2A25696  15.991  44.693   8.255
 7405POPC   C3A25697  15.922  44.672   7.955
 7405POPC   C4A25698  15.963  44.673   7.655
 7405POPC   C1B25699  15.995  44.882   8.555
 7405POPC   C2B25700  15.997  44.867   8.255
 7405POPC   C3B25701  15.986  44.938   7.955
 7405POPC   C4B25702  15.980  44.944   7.655
 7406POPC   NC325703  36.165  21.408   9.455
 7406POPC   PO425704  36.098  21.427   9.155
 7406POPC   GL125705  36.168  21.431   8.855
 7406POPC   GL225706  36.041  21.445   8.855
 7406POPC   C1A25707  36.174  21.403   8.555
 7406POPC   D2A25708  36.177  21.417   8.255
 7406POPC   C3A25709  36.151  21.366   7.955
 7406POPC   C4A25710  36.113  21.408   7.655
 7406POPC   C1B25711  35.914  21.499   8.555
 7406POPC   C2B25712  35.926  21.520   8.255
 7406POPC   C3B25713  35.895  21.554   7.955
 7406POPC   C4B25714  35.888  21.524   7.655
 7407POPC   NC325715  36.892  14.411   9.455
 7407POPC   PO425716  36.876  14.442   9.155
 7407POPC   GL125717  36.881  14.423   8.855
 7407POPC   GL225718  37.038  14.348   8.855
 7407POPC   C1A25719  36.889  14.416   8.555
 7407POPC   D2A25720  36.904  14.412   8.255
 7407POPC   C3A25721  36.935  14.447   7.955
 7407POPC   C4A25722  36.915  14.452   7.655
 7407POPC   C1B25723  37.168  14.313   8.555
 7407POPC   C2B25724  37.149  14.297   8.255
 7407POPC   C3B25725  37.149  14.310   7.955
 7407POPC   C4B25726  37.165  14.256   7.655
 7408POPC   NC325727  26.826  22.987   9.455
 7408POPC   PO425728  26.857  22.975   9.155
 7408POPC   GL125729  26.792  22.912   8.855
 7408POPC   GL225730  26.835  22.864   8.855
 7408POPC   C1A25731  26.796  22.922   8.555
 7408POPC   D2A25732  26.863  22.940   8.255
 7408POPC   C3A25733  26.790  22.985   7.955
 7408POPC   C4A25734  26.777  22.919   7.655
 7408POPC   C1B25735  26.735  22.670   8.555
 7408POPC   C2B25736  26.792  22.649   8.255
 7408POPC   C3B25737  26.817  22.647   7.955
 7408POPC   C4B25738  26.736  22.718   7.655
 7409POPC   NC325739  10.489  37.715   9.455
 7409POPC   PO425740  10.481  37.674   9.155
 7409POPC   GL125741  10.571  37.665   8.855
 7409POPC   GL225742  10.654  37.730   8.855
 7409POPC   C1A25743  10.553  37.637   8.555
 7409POPC   D2A25744  10.564  37.658   8.255
 7409POPC   C3A25745  10.486  37.676   7.955
 7409POPC   C4A25746  10.531  37.690   7.655
 7409POPC   C1B25747  10.743  37.739   8.555
 7409POPC   C2B25748  10.732  37.751   8.255
 7409POPC   C3B25749  10.797  37.732   7.955
 7409POPC   C4B25750  10.741  37.769   7.655
 7410POPC   NC325751  44.684  24.498   9.455
 7410POPC   PO425752  44.688  24.498   9.155
 7410POPC   GL125753  44.697  24.537   8.855
 7410POPC   GL225754  44.694  24.333   8.855
 7410POPC   C1A25755  44.650  24.539   8.555
 7410POPC   D2A25756  44.666  24.472   8.255
 7410POPC   C3A25757  44.693  24.501   7.955
 7410POPC   C4A25758  44.651  24.467   7.655
 7410POPC   C1B25759  44.615  24.196   8.555
 7410POPC   C2B25760  44.642  24.265   8.255
 7410POPC   C3B25761  44.693  24.202   7.955
 7410POPC   C4B25762  44.649  24.208   7.655
 7411POPC   NC325763  32.199   0.406   9.455
 7411POPC   PO425764  32.224   0.481   9.155
 7411POPC   GL125765  32.233   0.423   8.855
 7411POPC   GL225766  32.238   0.299   8.855
 7411POPC   C1A25767  32.263   0.487   8.555
 7411POPC   D2A25768  32.269   0.469   8.255
 7411POPC   C3A25769  32.215   0.477   7.955
 7411POPC   C4A25770  32.208   0.456   7.655
 7411POPC   C1B25771  32.316   0.245   8.555
 7411POPC   C2B25772  32.318   0.247   8.255
 7411POPC   C3B25773  32.324   0.155   7.955
 7411POPC   C4B25774  32.366   0.199   7.655
 7412POPC   NC325775  35.311  39.189   9.455
 7412POPC   PO425776  35.310  39.191   9.155
 7412POPC   GL125777  35.304  39.247   8.855
 7412POPC   GL225778  35.382  39.344   8.855
 7412POPC   C1A25779  35.339  39.236   8.555
 7412POPC   D2A25780  35.387  39.220   8.255
 7412POPC   C3A25781  35.394  39.196   7.955
 7412POPC   C4A25782  35.341  39.208   7.655
 7412POPC   C1B25783  35.499  39.419   8.555
 7412POPC   C2B25784  35.509  39.382   8.255
 7412POPC   C3B25785  35.523  39.443   7.955
 7412POPC   C4B25786  35.471  39.423   7.655
 7413POPC   NC325787   2.764  43.875   9.455
 7413POPC   PO425788   2.793  43.898   9.155
 7413POPC   GL125789   2.760  43.881   8.855
 7413POPC   GL225790   2.651  43.841   8.855
 7413POPC   C1A25791   2.789  43.879   8.555
 7413POPC   D2A25792   2.796  43.925   8.255
 7413POPC   C3A25793   2.778  43.894   7.955
 7413POPC   C4A25794   2.763  43.882   7.655
 7413POPC   C1B25795   2.568  43.756   8.555
 7413POPC   C2B25796   2.580  43.706   8.255
 7413POPC   C3B25797   2.595  43.728   7.955
 7413POPC   C4B25798   2.594  43.753   7.655
 7414POPC   NC325799  28.394  30.682   9.455
 7414POPC   PO425800  28.370  30.726   9.155
 7414POPC   GL125801  28.403  30.711   8.855
 7414POPC   GL225802  28.522  30.774   8.855
 7414POPC   C1A25803  28.348  30.726   8.555
 7414POPC   D2A25804  28.389  30.673   8.255
 7414POPC   C3A25805  28.377  30.721   7.955
 7414POPC   C4A25806  28.328  30.710   7.655
 7414POPC   C1B25807  28.554  30.845   8.555
 7414POPC   C2B25808  28.572  30.807   8.255
 7414POPC   C3B25809  28.556  30.796   7.955
 7414POPC   C4B25810  28.618  30.834   7.655
 7415POPC   NC325811  12.088   3.550   9.455
 7415POPC   PO425812  12.041   3.516   9.155
 7415POPC   GL125813  12.101   3.564   8.855
 7415POPC   GL225814  12.203   3.427   8.855
 7415POPC   C1A25815  12.028   3.586   8.555
 7415POPC   D2A25816  12.118   3.549   8.255
 7415POPC   C3A25817  12.029   3.586   7.955
 7415POPC   C4A25818  12.080   3.590   7.655
 7415POPC   C1B25819  12.227   3.403   8.555
 7415POPC   C2B25820  12.314   3.409   8.255
 7415POPC   C3B25821  12.240   3.333   7.955
 7415POPC   C4B25822  12.238   3.400   7.655
 7416POPC   NC325823  12.841  35.358   9.455
 7416POPC   PO425824  12.819  35.367   9.155
 7416POPC   GL125825  12.871  35.390   8.855
 7416POPC   GL225826  12.769  35.322   8.855
 7416POPC   C1A25827  12.882  35.390   8.555
 7416POPC   D2A25828  12.809  35.370   8.255
 7416POPC   C3A25829  12.878  35.344   7.955
 7416POPC   C4A25830  12.804  35.374   7.655
 7416POPC   C1B25831  12.609  35.272   8.555
 7416POPC   C2B25832  12.603  35.289   8.255
 7416POPC   C3B25833  12.645  35.300   7.955
 7416POPC   C4B25834  12.581  35.311   7.655
 7417POPC   NC325835  37.721   8.185   9.455
 7417POPC   PO425836  37.632   8.211   9.155
 7417POPC   GL125837  37.683   8.147   8.855
 7417POPC   GL225838  37.774   8.059   8.855
 7417POPC   C1A25839  37.685   8.243   8.555
 7417POPC   D2A25840  37.698   8.229   8.255
 7417POPC   C3A25841  37.714   8.167   7.955
 7417POPC   C4A25842  37.680   8.148   7.655
 7417POPC   C1B25843  37.831   7.939   8.555
 7417POPC   C2B25844  37.772   8.000   8.255
 7417POPC   C3B25845  37.791   7.942   7.955
 7417POPC   C4B25846  37.831   7.997   7.655
 7418POPC   NC325847  13.586  30.673   9.455
 7418POPC   PO425848  13.667  30.728   9.155
 7418POPC   GL125849  13.663  30.687   8.855
 7418POPC   GL225850  13.712  30.750   8.855
 7418POPC   C1A25851  13.671  30.684   8.555
 7418POPC   D2A25852  13.589  30.709   8.255
 7418POPC   C3A25853  13.637  30.725   7.955
 7418POPC   C4A25854  13.633  30.745   7.655
 7418POPC   C1B25855  13.846  30.748   8.555
 7418POPC   C2B25856  13.894  30.761   8.255
 7418POPC   C3B25857  13.819  30.790   7.955
 7418POPC   C4B25858  13.825  30.782   7.655
 7419POPC   NC325859  26.804   6.619   9.455
 7419POPC   PO425860  26.861   6.657   9.155
 7419POPC   GL125861  26.858   6.684   8.855
 7419POPC   GL225862  26.968   6.640   8.855
 7419POPC   C1A25863  26.846   6.600   8.555
 7419POPC   D2A25864  26.830   6.596   8.255
 7419POPC   C3A25865  26.814   6.666   7.955
 7419POPC   C4A25866  26.816   6.681   7.655
 7419POPC   C1B25867  27.093   6.571   8.555
 7419POPC   C2B25868  27.052   6.561   8.255
 7419POPC   C3B25869  27.097   6.632   7.955
 7419POPC   C4B25870  27.083   6.627   7.655
 7420POPC   NC325871  15.173  23.683   9.455
 7420POPC   PO425872  15.132  23.756   9.155
 7420POPC   GL125873  15.181  23.722   8.855
 7420POPC   GL225874  15.282  23.611   8.855
 7420POPC   C1A25875  15.195  23.743   8.555
 7420POPC   D2A25876  15.165  23.711   8.255
 7420POPC   C3A25877  15.228  23.757   7.955
 7420POPC   C4A25878  15.151  23.755   7.655
 7420POPC   C1B25879  15.396  23.584   8.555
 7420POPC   C2B25880  15.395  23.561   8.255
 7420POPC   C3B25881  15.359  23.584   7.955
 7420POPC   C4B25882  15.391  23.526   7.655
 7421POPC   NC325883  21.427  41.551   9.455
 7421POPC   PO425884  21.430  41.517   9.155
 7421POPC   GL125885  21.407  41.556   8.855
 7421POPC   GL225886  21.347  41.687   8.855
 7421POPC   C1A25887  21.404  41.551   8.555
 7421POPC   D2A25888  21.392  41.583   8.255
 7421POPC   C3A25889  21.421  41.523   7.955
 7421POPC   C4A25890  21.425  41.513   7.655
 7421POPC   C1B25891  21.401  41.815   8.555
 7421POPC   C2B25892  21.379  41.806   8.255
 7421POPC   C3B25893  21.345  41.771   7.955
 7421POPC   C4B25894  21.422  41.779   7.655
 7422POPC   NC325895   4.338   2.779   9.455
 7422POPC   PO425896   4.354   2.768   9.155
 7422POPC   GL125897   4.316   2.770   8.855
 7422POPC   GL225898   4.361   2.629   8.855
 7422POPC   C1A25899   4.301   2.746   8.555
 7422POPC   D2A25900   4.357   2.725   8.255
 7422POPC   C3A25901   4.320   2.799   7.955
 7422POPC   C4A25902   4.305   2.723   7.655
 7422POPC   C1B25903   4.367   2.546   8.555
 7422POPC   C2B25904   4.348   2.525   8.255
 7422POPC   C3B25905   4.383   2.568   7.955
 7422POPC   C4B25906   4.310   2.554   7.655
 7423POPC   NC325907  42.352  15.168   9.455
 7423POPC   PO425908  42.318  15.143   9.155
 7423POPC   GL125909  42.363  15.166   8.855
 7423POPC   GL225910  42.363  15.059   8.855
 7423POPC   C1A25911  42.332  15.170   8.555
 7423POPC   D2A25912  42.302  15.179   8.255
 7423POPC   C3A25913  42.382  15.148   7.955
 7423POPC   C4A25914  42.285  15.168   7.655
 7423POPC   C1B25915  42.482  14.937   8.555
 7423POPC   C2B25916  42.509  14.983   8.255
 7423POPC   C3B25917  42.442  14.999   7.955
 7423POPC   C4B25918  42.449  14.974   7.655
 7424POPC   NC325919  23.756  41.573   9.455
 7424POPC   PO425920  23.682  41.580   9.155
 7424POPC   GL125921  23.703  41.544   8.855
 7424POPC   GL225922  23.761  41.481   8.855
 7424POPC   C1A25923  23.722  41.563   8.555
 7424POPC   D2A25924  23.709  41.554   8.255
 7424POPC   C3A25925  23.755  41.528   7.955
 7424POPC   C4A25926  23.703  41.512   7.655
 7424POPC   C1B25927  23.923  41.407   8.555
 7424POPC   C2B25928  23.909  41.344   8.255
 7424POPC   C3B25929  23.874  41.380   7.955
 7424POPC   C4B25930  23.885  41.411   7.655
 7425POPC   NC325931  44.622  32.279   9.455
 7425POPC   PO425932  44.628  32.295   9.155
 7425POPC   GL125933  44.629  32.282   8.855
 7425POPC   GL225934  44.502  32.254   8.855
 7425POPC   C1A25935  44.659  32.279   8.555
 7425POPC   D2A25936  44.708  32.220   8.255
 7425POPC   C3A25937  44.616  32.209   7.955
 7425POPC   C4A25938  44.692  32.211   7.655
 7425POPC   C1B25939  44.456  32.383   8.555
 7425POPC   C2B25940  44.475  32.309   8.255
 7425POPC   C3B25941  44.466  32.377   7.955
 7425POPC   C4B25942  44.439  32.337   7.655
 7426POPC   NC325943  22.152   1.969   9.455
 7426POPC   PO425944  22.209   2.027   9.155
 7426POPC   GL125945  22.196   1.946   8.855
 7426POPC   GL225946  22.125   2.075   8.855
 7426POPC   C1A25947  22.162   2.037   8.555
 7426POPC   D2A25948  22.199   2.011   8.255
 7426POPC   C3A25949  22.120   1.980   7.955
 7426POPC   C4A25950  22.118   1.962   7.655
 7426POPC   C1B25951  21.959   2.154   8.555
 7426POPC   C2B25952  22.046   2.232   8.255
 7426POPC   C3B25953  22.034   2.190   7.955
 7426POPC   C4B25954  22.030   2.149   7.655
 7427POPC   NC325955  15.198  28.353   9.455
 7427POPC   PO425956  15.166  28.397   9.155
 7427POPC   GL125957  15.194  28.383   8.855
 7427POPC   GL225958  15.135  28.213   8.855
 7427POPC   C1A25959  15.141  28.417   8.555
 7427POPC   D2A25960  15.200  28.417   8.255
 7427POPC   C3A25961  15.195  28.366   7.955
 7427POPC   C4A25962  15.182  28.362   7.655
 7427POPC   C1B25963  15.037  28.145   8.555
 7427POPC   C2B25964  15.059  28.139   8.255
 7427POPC   C3B25965  15.029  28.182   7.955
 7427POPC   C4B25966  15.040  28.134   7.655
 7428POPC   NC325967  32.987   1.261   9.455
 7428POPC   PO425968  32.978   1.196   9.155
 7428POPC   GL125969  33.001   1.237   8.855
 7428POPC   GL225970  33.107   1.078   8.855
 7428POPC   C1A25971  33.023   1.200   8.555
 7428POPC   D2A25972  32.980   1.256   8.255
 7428POPC   C3A25973  33.024   1.195   7.955
 7428POPC   C4A25974  33.065   1.256   7.655
 7428POPC   C1B25975  33.129   0.998   8.555
 7428POPC   C2B25976  33.121   1.030   8.255
 7428POPC   C3B25977  33.138   1.015   7.955
 7428POPC   C4B25978  33.198   1.035   7.655
 7429POPC   NC325979  36.894  29.132   9.455
 7429POPC   PO425980  36.899  29.115   9.155
 7429POPC   GL125981  36.915  29.109   8.855
 7429POPC   GL225982  36.816  29.141   8.855
 7429POPC   C1A25983  36.928  29.177   8.555
 7429POPC   D2A25984  36.866  29.106   8.255
 7429POPC   C3A25985  36.859  29.183   7.955
 7429POPC   C4A25986  36.854  29.141   7.655
 7429POPC   C1B25987  36.682  29.195   8.555
 7429POPC   C2B25988  36.650  29.200   8.255
 7429POPC   C3B25989  36.641  29.159   7.955
 7429POPC   C4B25990  36.613  29.178   7.655
 7430POPC   NC325991   5.058  39.231   9.455
 7430POPC   PO425992   5.141  39.263   9.155
 7430POPC   GL125993   5.109  39.234   8.855
 7430POPC   GL225994   5.126  39.109   8.855
 7430POPC   C1A25995   5.129  39.246   8.555
 7430POPC   D2A25996   5.124  39.266   8.255
 7430POPC   C3A25997   5.073  39.254   7.955
 7430POPC   C4A25998   5.120  39.185   7.655
 7430POPC   C1B25999   5.050  38.965   8.555
 7430POPC   C2B26000   5.125  38.939   8.255
 7430POPC   C3B26001   5.066  38.932   7.955
 7430POPC   C4B26002   5.105  39.015   7.655
 7431POPC   NC326003  39.203  12.844   9.455
 7431POPC   PO426004  39.206  12.870   9.155
 7431POPC   GL126005  39.192  12.805   8.855
 7431POPC   GL226006  39.089  12.847   8.855
 7431POPC   C1A26007  39.265  12.887   8.555
 7431POPC   D2A26008  39.216  12.887   8.255
 7431POPC   C3A26009  39.246  12.813   7.955
 7431POPC   C4A26010  39.213  12.804   7.655
 7431POPC   C1B26011  38.951  12.773   8.555
 7431POPC   C2B26012  38.985  12.770   8.255
 7431POPC   C3B26013  39.031  12.804   7.955
 7431POPC   C4B26014  38.944  12.793   7.655
 7432POPC   NC326015   6.673  10.479   9.455
 7432POPC   PO426016   6.693  10.527   9.155
 7432POPC   GL126017   6.601  10.494   8.855
 7432POPC   GL226018   6.557  10.505   8.855
 7432POPC   C1A26019   6.667  10.544   8.555
 7432POPC   D2A26020   6.620  10.528   8.255
 7432POPC   C3A26021   6.623  10.572   7.955
 7432POPC   C4A26022   6.664  10.534   7.655
 7432POPC   C1B26023   6.442  10.366   8.555
 7432POPC   C2B26024   6.415  10.383   8.255
 7432POPC   C3B26025   6.437  10.399   7.955
 7432POPC   C4B26026   6.462  10.379   7.655
 7433POPC   NC326027   3.520   5.083   9.455
 7433POPC   PO426028   3.580   5.095   9.155
 7433POPC   GL126029   3.566   5.045   8.855
 7433POPC   GL226030   3.548   5.004   8.855
 7433POPC   C1A26031   3.562   5.134   8.555
 7433POPC   D2A26032   3.556   5.074   8.255
 7433POPC   C3A26033   3.514   5.114   7.955
 7433POPC   C4A26034   3.570   5.091   7.655
 7433POPC   C1B26035   3.503   4.866   8.555
 7433POPC   C2B26036   3.440   4.846   8.255
 7433POPC   C3B26037   3.419   4.860   7.955
 7433POPC   C4B26038   3.508   4.874   7.655
 7434POPC   NC326039  40.806  15.973   9.455
 7434POPC   PO426040  40.786  15.966   9.155
 7434POPC   GL126041  40.784  15.959   8.855
 7434POPC   GL226042  40.648  15.842   8.855
 7434POPC   C1A26043  40.747  16.004   8.555
 7434POPC   D2A26044  40.782  15.915   8.255
 7434POPC   C3A26045  40.767  15.942   7.955
 7434POPC   C4A26046  40.810  15.959   7.655
 7434POPC   C1B26047  40.603  15.812   8.555
 7434POPC   C2B26048  40.539  15.823   8.255
 7434POPC   C3B26049  40.597  15.830   7.955
 7434POPC   C4B26050  40.587  15.842   7.655
 7435POPC   NC326051  33.058  31.465   9.455
 7435POPC   PO426052  33.019  31.450   9.155
 7435POPC   GL126053  32.989  31.444   8.855
 7435POPC   GL226054  33.070  31.573   8.855
 7435POPC   C1A26055  32.996  31.501   8.555
 7435POPC   D2A26056  33.046  31.429   8.255
 7435POPC   C3A26057  32.977  31.468   7.955
 7435POPC   C4A26058  32.979  31.519   7.655
 7435POPC   C1B26059  33.162  31.670   8.555
 7435POPC   C2B26060  33.181  31.676   8.255
 7435POPC   C3B26061  33.139  31.661   7.955
 7435POPC   C4B26062  33.200  31.672   7.655
 7436POPC   NC326063  22.918  12.828   9.455
 7436POPC   PO426064  22.911  12.836   9.155
 7436POPC   GL126065  22.940  12.803   8.855
 7436POPC   GL226066  22.824  12.914   8.855
 7436POPC   C1A26067  22.904  12.836   8.555
 7436POPC   D2A26068  22.890  12.882   8.255
 7436POPC   C3A26069  22.931  12.858   7.955
 7436POPC   C4A26070  22.958  12.856   7.655
 7436POPC   C1B26071  22.706  13.063   8.555
 7436POPC   C2B26072  22.772  13.016   8.255
 7436POPC   C3B26073  22.729  12.975   7.955
 7436POPC   C4B26074  22.792  13.017   7.655
 7437POPC   NC326075  19.855  22.946   9.455
 7437POPC   PO426076  19.801  22.891   9.155
 7437POPC   GL126077  19.785  22.938   8.855
 7437POPC   GL226078  19.770  23.023   8.855
 7437POPC   C1A26079  19.788  22.907   8.555
 7437POPC   D2A26080  19.810  22.912   8.255
 7437POPC   C3A26081  19.788  22.961   7.955
 7437POPC   C4A26082  19.884  22.941   7.655
 7437POPC   C1B26083  19.700  23.157   8.555
 7437POPC   C2B26084  19.762  23.144   8.255
 7437POPC   C3B26085  19.719  23.183   7.955
 7437POPC   C4B26086  19.767  23.163   7.655
 7438POPC   NC326087  30.715  30.671   9.455
 7438POPC   PO426088  30.668  30.666   9.155
 7438POPC   GL126089  30.708  30.733   8.855
 7438POPC   GL226090  30.617  30.665   8.855
 7438POPC   C1A26091  30.718  30.690   8.555
 7438POPC   D2A26092  30.714  30.653   8.255
 7438POPC   C3A26093  30.725  30.672   7.955
 7438POPC   C4A26094  30.733  30.705   7.655
 7438POPC   C1B26095  30.407  30.767   8.555
 7438POPC   C2B26096  30.402  30.676   8.255
 7438POPC   C3B26097  30.423  30.719   7.955
 7438POPC   C4B26098  30.468  30.754   7.655
 7439POPC   NC326099  19.843  36.154   9.455
 7439POPC   PO426100  19.867  36.105   9.155
 7439POPC   GL126101  19.787  36.084   8.855
 7439POPC   GL226102  19.963  36.015   8.855
 7439POPC   C1A26103  19.803  36.168   8.555
 7439POPC   D2A26104  19.867  36.160   8.255
 7439POPC   C3A26105  19.785  36.107   7.955
 7439POPC   C4A26106  19.846  36.175   7.655
 7439POPC   C1B26107  20.091  35.953   8.555
 7439POPC   C2B26108  20.007  35.981   8.255
 7439POPC   C3B26109  20.092  36.040   7.955
 7439POPC   C4B26110  20.077  35.976   7.655
 7440POPC   NC326111   8.213  35.343   9.455
 7440POPC   PO426112   8.206  35.328   9.155
 7440POPC   GL126113   8.242  35.390   8.855
 7440POPC   GL226114   8.144  35.220   8.855
 7440POPC   C1A26115   8.239  35.356   8.555
 7440POPC   D2A26116   8.245  35.308   8.255
 7440POPC   C3A26117   8.160  35.352   7.955
 7440POPC   C4A26118   8.160  35.327   7.655
 7440POPC   C1B26119   8.109  35.176   8.555
 7440POPC   C2B26120   8.112  35.104   8.255
 7440POPC   C3B26121   8.088  35.144   7.955
 7440POPC   C4B26122   8.104  35.141   7.655
 7441POPC   NC326123   0.467  19.047   9.455
 7441POPC   PO426124   0.451  19.029   9.155
 7441POPC   GL126125   0.413  19.054   8.855
 7441POPC   GL226126   0.575  19.081   8.855
 7441POPC   C1A26127   0.403  19.018   8.555
 7441POPC   D2A26128   0.415  19.011   8.255
 7441POPC   C3A26129   0.391  19.045   7.955
 7441POPC   C4A26130   0.396  19.027   7.655
 7441POPC   C1B26131   0.669  19.211   8.555
 7441POPC   C2B26132   0.608  19.155   8.255
 7441POPC   C3B26133   0.643  19.139   7.955
 7441POPC   C4B26134   0.675  19.205   7.655
 7442POPC   NC326135  12.878  16.733   9.455
 7442POPC   PO426136  12.831  16.773   9.155
 7442POPC   GL126137  12.863  16.700   8.855
 7442POPC   GL226138  12.769  16.606   8.855
 7442POPC   C1A26139  12.827  16.766   8.555
 7442POPC   D2A26140  12.878  16.736   8.255
 7442POPC   C3A26141  12.834  16.721   7.955
 7442POPC   C4A26142  12.862  16.723   7.655
 7442POPC   C1B26143  12.818  16.497   8.555
 7442POPC   C2B26144  12.794  16.505   8.255
 7442POPC   C3B26145  12.767  16.477   7.955
 7442POPC   C4B26146  12.815  16.514   7.655
 7443POPC   NC326147  26.793  16.693   9.455
 7443POPC   PO426148  26.865  16.745   9.155
 7443POPC   GL126149  26.800  16.687   8.855
 7443POPC   GL226150  26.868  16.638   8.855
 7443POPC   C1A26151  26.854  16.693   8.555
 7443POPC   D2A26152  26.863  16.752   8.255
 7443POPC   C3A26153  26.856  16.713   7.955
 7443POPC   C4A26154  26.809  16.738   7.655
 7443POPC   C1B26155  26.811  16.474   8.555
 7443POPC   C2B26156  26.847  16.521   8.255
 7443POPC   C3B26157  26.787  16.473   7.955
 7443POPC   C4B26158  26.849  16.530   7.655
 7444POPC   NC326159  34.601  28.321   9.455
 7444POPC   PO426160  34.565  28.369   9.155
 7444POPC   GL126161  34.528  28.345   8.855
 7444POPC   GL226162  34.488  28.332   8.855
 7444POPC   C1A26163  34.592  28.383   8.555
 7444POPC   D2A26164  34.616  28.396   8.255
 7444POPC   C3A26165  34.574  28.325   7.955
 7444POPC   C4A26166  34.624  28.354   7.655
 7444POPC   C1B26167  34.359  28.373   8.555
 7444POPC   C2B26168  34.336  28.400   8.255
 7444POPC   C3B26169  34.293  28.346   7.955
 7444POPC   C4B26170  34.338  28.359   7.655
 7445POPC   NC326171   7.417  13.592   9.455
 7445POPC   PO426172   7.442  13.666   9.155
 7445POPC   GL126173   7.453  13.642   8.855
 7445POPC   GL226174   7.405  13.739   8.855
 7445POPC   C1A26175   7.376  13.612   8.555
 7445POPC   D2A26176   7.383  13.607   8.255
 7445POPC   C3A26177   7.414  13.630   7.955
 7445POPC   C4A26178   7.371  13.596   7.655
 7445POPC   C1B26179   7.415  13.886   8.555
 7445POPC   C2B26180   7.425  13.925   8.255
 7445POPC   C3B26181   7.406  13.837   7.955
 7445POPC   C4B26182   7.442  13.876   7.655
 7446POPC   NC326183  26.078  21.375   9.455
 7446POPC   PO426184  26.013  21.374   9.155
 7446POPC   GL126185  25.992  21.391   8.855
 7446POPC   GL226186  26.058  21.261   8.855
 7446POPC   C1A26187  26.053  21.363   8.555
 7446POPC   D2A26188  26.039  21.387   8.255
 7446POPC   C3A26189  26.000  21.354   7.955
 7446POPC   C4A26190  26.053  21.349   7.655
 7446POPC   C1B26191  26.005  21.146   8.555
 7446POPC   C2B26192  25.994  21.143   8.255
 7446POPC   C3B26193  26.034  21.106   7.955
 7446POPC   C4B26194  26.052  21.152   7.655
 7447POPC   NC326195  21.388   3.546   9.455
 7447POPC   PO426196  21.362   3.539   9.155
 7447POPC   GL126197  21.378   3.509   8.855
 7447POPC   GL226198  21.377   3.714   8.855
 7447POPC   C1A26199  21.389   3.587   8.555
 7447POPC   D2A26200  21.355   3.528   8.255
 7447POPC   C3A26201  21.414   3.517   7.955
 7447POPC   C4A26202  21.354   3.536   7.655
 7447POPC   C1B26203  21.346   3.781   8.555
 7447POPC   C2B26204  21.353   3.824   8.255
 7447POPC   C3B26205  21.353   3.790   7.955
 7447POPC   C4B26206  21.442   3.832   7.655
 7448POPC   NC326207   5.851  36.927   9.455
 7448POPC   PO426208   5.847  36.871   9.155
 7448POPC   GL126209   5.836  36.947   8.855
 7448POPC   GL226210   5.741  36.902   8.855
 7448POPC   C1A26211   5.856  36.894   8.555
 7448POPC   D2A26212   5.855  36.875   8.255
 7448POPC   C3A26213   5.828  36.921   7.955
 7448POPC   C4A26214   5.901  36.876   7.655
 7448POPC   C1B26215   5.576  36.940   8.555
 7448POPC   C2B26216   5.578  36.964   8.255
 7448POPC   C3B26217   5.610  36.894   7.955
 7448POPC   C4B26218   5.616  36.922   7.655
 7449POPC   NC326219  29.932  17.498   9.455
 7449POPC   PO426220  29.919  17.543   9.155
 7449POPC   GL126221  29.901  17.481   8.855
 7449POPC   GL226222  29.998  17.422   8.855
 7449POPC   C1A26223  29.928  17.537   8.555
 7449POPC   D2A26224  29.927  17.474   8.255
 7449POPC   C3A26225  29.956  17.495   7.955
 7449POPC   C4A26226  29.947  17.505   7.655
 7449POPC   C1B26227  30.192  17.451   8.555
 7449POPC   C2B26228  30.123  17.380   8.255
 7449POPC   C3B26229  30.139  17.444   7.955
 7449POPC   C4B26230  30.189  17.438   7.655
 7450POPC   NC326231  44.695  38.420   9.455
 7450POPC   PO426232  44.672  38.426   9.155
 7450POPC   GL126233  44.698  38.441   8.855
 7450POPC   GL226234  44.764  38.571   8.855
 7450POPC   C1A26235  44.639  38.440   8.555
 7450POPC   D2A26236  44.701  38.435   8.255
 7450POPC   C3A26237  44.640  38.445   7.955
 7450POPC   C4A26238  44.640  38.499   7.655
 7450POPC   C1B26239  44.818  38.661   8.555
 7450POPC   C2B26240  44.795  38.668   8.255
 7450POPC   C3B26241  44.812  38.605   7.955
 7450POPC   C4B26242  44.781  38.663   7.655
 7451POPC   NC326243  33.767  34.547   9.455
 7451POPC   PO426244  33.814  34.572   9.155
 7451POPC   GL126245  33.807  34.614   8.855
 7451POPC   GL226246  33.744  34.703   8.855
 7451POPC   C1A26247  33.801  34.554   8.555
 7451POPC   D2A26248  33.843  34.528   8.255
 7451POPC   C3A26249  33.843  34.623   7.955
 7451POPC   C4A26250  33.837  34.604   7.655
 7451POPC   C1B26251  33.668  34.822   8.555
 7451POPC   C2B26252  33.641  34.742   8.255
 7451POPC   C3B26253  33.653  34.800   7.955
 7451POPC   C4B26254  33.679  34.763   7.655
 7452POPC   NC326255  43.887  39.261   9.455
 7452POPC   PO426256  43.905  39.244   9.155
 7452POPC   GL126257  43.883  39.198   8.855
 7452POPC   GL226258  43.844  39.358   8.855
 7452POPC   C1A26259  43.927  39.193   8.555
 7452POPC   D2A26260  43.879  39.264   8.255
 7452POPC   C3A26261  43.932  39.226   7.955
 7452POPC   C4A26262  43.854  39.253   7.655
 7452POPC   C1B26263  43.877  39.509   8.555
 7452POPC   C2B26264  43.818  39.515   8.255
 7452POPC   C3B26265  43.898  39.443   7.955
 7452POPC   C4B26266  43.841  39.528   7.655
 7453POPC   NC326267   5.884  40.017   9.455
 7453POPC   PO426268   5.916  39.995   9.155
 7453POPC   GL126269   5.845  40.007   8.855
 7453POPC   GL226270   5.769  39.953   8.855
 7453POPC   C1A26271   5.825  39.997   8.555
 7453POPC   D2A26272   5.845  40.043   8.255
 7453POPC   C3A26273   5.899  39.983   7.955
 7453POPC   C4A26274   5.861  39.997   7.655
 7453POPC   C1B26275   5.666  39.921   8.555
 7453POPC   C2B26276   5.614  39.862   8.255
 7453POPC   C3B26277   5.636  39.883   7.955
 7453POPC   C4B26278   5.687  39.890   7.655
 7454POPC   NC326279  32.214   8.938   9.455
 7454POPC   PO426280  32.228   8.961   9.155
 7454POPC   GL126281  32.278   8.985   8.855
 7454POPC   GL226282  32.296   9.057   8.855
 7454POPC   C1A26283  32.239   8.993   8.555
 7454POPC   D2A26284  32.234   8.928   8.255
 7454POPC   C3A26285  32.256   8.984   7.955
 7454POPC   C4A26286  32.233   8.994   7.655
 7454POPC   C1B26287  32.273   9.236   8.555
 7454POPC   C2B26288  32.278   9.270   8.255
 7454POPC   C3B26289  32.254   9.233   7.955
 7454POPC   C4B26290  32.219   9.208   7.655
 7455POPC   NC326291  27.597   0.397   9.455
 7455POPC   PO426292  27.632   0.473   9.155
 7455POPC   GL126293  27.552   0.460   8.855
 7455POPC   GL226294  27.450   0.483   8.855
 7455POPC   C1A26295  27.600   0.440   8.555
 7455POPC   D2A26296  27.605   0.465   8.255
 7455POPC   C3A26297  27.613   0.466   7.955
 7455POPC   C4A26298  27.552   0.408   7.655
 7455POPC   C1B26299  27.330   0.433   8.555
 7455POPC   C2B26300  27.365   0.468   8.255
 7455POPC   C3B26301  27.366   0.446   7.955
 7455POPC   C4B26302  27.385   0.421   7.655
 7456POPC   NC326303  26.769  43.905   9.455
 7456POPC   PO426304  26.864  43.884   9.155
 7456POPC   GL126305  26.802  43.866   8.855
 7456POPC   GL226306  26.936  43.819   8.855
 7456POPC   C1A26307  26.820  43.913   8.555
 7456POPC   D2A26308  26.840  43.920   8.255
 7456POPC   C3A26309  26.772  43.854   7.955
 7456POPC   C4A26310  26.838  43.840   7.655
 7456POPC   C1B26311  26.971  43.676   8.555
 7456POPC   C2B26312  26.948  43.675   8.255
 7456POPC   C3B26313  26.972  43.744   7.955
 7456POPC   C4B26314  27.000  43.680   7.655
 7457POPC   NC326315  31.521  28.365   9.455
 7457POPC   PO426316  31.455  28.334   9.155
 7457POPC   GL126317  31.514  28.410   8.855
 7457POPC   GL226318  31.420  28.265   8.855
 7457POPC   C1A26319  31.477  28.392   8.555
 7457POPC   D2A26320  31.514  28.384   8.255
 7457POPC   C3A26321  31.424  28.324   7.955
 7457POPC   C4A26322  31.446  28.325   7.655
 7457POPC   C1B26323  31.381  28.114   8.555
 7457POPC   C2B26324  31.363  28.093   8.255
 7457POPC   C3B26325  31.422  28.132   7.955
 7457POPC   C4B26326  31.408  28.125   7.655
 7458POPC   NC326327  32.979  40.018   9.455
 7458POPC   PO426328  33.036  40.006   9.155
 7458POPC   GL126329  32.980  40.019   8.855
 7458POPC   GL226330  32.974  39.872   8.855
 7458POPC   C1A26331  33.033  40.050   8.555
 7458POPC   D2A26332  33.038  40.021   8.255
 7458POPC   C3A26333  33.072  39.980   7.955
 7458POPC   C4A26334  32.984  39.999   7.655
 7458POPC   C1B26335  33.065  39.761   8.555
 7458POPC   C2B26336  33.009  39.772   8.255
 7458POPC   C3B26337  33.032  39.763   7.955
 7458POPC   C4B26338  33.031  39.747   7.655
 7459POPC   NC326339  19.851  29.149   9.455
 7459POPC   PO426340  19.845  29.164   9.155
 7459POPC   GL126341  19.853  29.148   8.855
 7459POPC   GL226342  19.987  29.091   8.855
 7459POPC   C1A26343  19.787  29.165   8.555
 7459POPC   D2A26344  19.879  29.172   8.255
 7459POPC   C3A26345  19.849  29.136   7.955
 7459POPC   C4A26346  19.802  29.125   7.655
 7459POPC   C1B26347  20.032  29.024   8.555
 7459POPC   C2B26348  20.091  29.098   8.255
 7459POPC   C3B26349  20.113  29.064   7.955
 7459POPC   C4B26350  20.082  29.035   7.655
 7460POPC   NC326351  20.642  13.614   9.455
 7460POPC   PO426352  20.579  13.672   9.155
 7460POPC   GL126353  20.631  13.585   8.855
 7460POPC   GL226354  20.728  13.602   8.855
 7460POPC   C1A26355  20.631  13.643   8.555
 7460POPC   D2A26356  20.606  13.622   8.255
 7460POPC   C3A26357  20.604  13.579   7.955
 7460POPC   C4A26358  20.603  13.585   7.655
 7460POPC   C1B26359  20.878  13.604   8.555
 7460POPC   C2B26360  20.847  13.591   8.255
 7460POPC   C3B26361  20.819  13.563   7.955
 7460POPC   C4B26362  20.873  13.626   7.655
 7461POPC   NC326363  43.090  39.261   9.455
 7461POPC   PO426364  43.096  39.204   9.155
 7461POPC   GL126365  43.081  39.189   8.855
 7461POPC   GL226366  43.098  39.112   8.855
 7461POPC   C1A26367  43.086  39.224   8.555
 7461POPC   D2A26368  43.132  39.265   8.255
 7461POPC   C3A26369  43.098  39.258   7.955
 7461POPC   C4A26370  43.132  39.186   7.655
 7461POPC   C1B26371  43.078  39.012   8.555
 7461POPC   C2B26372  43.101  39.002   8.255
 7461POPC   C3B26373  43.129  38.999   7.955
 7461POPC   C4B26374  43.051  38.988   7.655
 7462POPC   NC326375  31.481  11.278   9.455
 7462POPC   PO426376  31.473  11.271   9.155
 7462POPC   GL126377  31.433  11.309   8.855
 7462POPC   GL226378  31.538  11.465   8.855
 7462POPC   C1A26379  31.479  11.317   8.555
 7462POPC   D2A26380  31.502  11.287   8.255
 7462POPC   C3A26381  31.467  11.275   7.955
 7462POPC   C4A26382  31.489  11.271   7.655
 7462POPC   C1B26383  31.585  11.504   8.555
 7462POPC   C2B26384  31.573  11.559   8.255
 7462POPC   C3B26385  31.522  11.550   7.955
 7462POPC   C4B26386  31.576  11.525   7.655
 7463POPC   NC326387   5.110   4.277   9.455
 7463POPC   PO426388   5.142   4.278   9.155
 7463POPC   GL126389   5.048   4.301   8.855
 7463POPC   GL226390   5.211   4.269   8.855
 7463POPC   C1A26391   5.122   4.268   8.555
 7463POPC   D2A26392   5.044   4.299   8.255
 7463POPC   C3A26393   5.126   4.318   7.955
 7463POPC   C4A26394   5.099   4.338   7.655
 7463POPC   C1B26395   5.353   4.224   8.555
 7463POPC   C2B26396   5.357   4.162   8.255
 7463POPC   C3B26397   5.328   4.154   7.955
 7463POPC   C4B26398   5.329   4.228   7.655
 7464POPC   NC326399   8.944  26.078   9.455
 7464POPC   PO426400   8.934  25.992   9.155
 7464POPC   GL126401   8.969  26.085   8.855
 7464POPC   GL226402   9.057  26.154   8.855
 7464POPC   C1A26403   8.971  26.046   8.555
 7464POPC   D2A26404   9.022  26.005   8.255
 7464POPC   C3A26405   8.992  25.998   7.955
 7464POPC   C4A26406   8.964  25.998   7.655
 7464POPC   C1B26407   9.001  26.318   8.555
 7464POPC   C2B26408   9.030  26.235   8.255
 7464POPC   C3B26409   9.080  26.257   7.955
 7464POPC   C4B26410   9.035  26.262   7.655
 7465POPC   NC326411  35.314  40.746   9.455
 7465POPC   PO426412  35.331  40.733   9.155
 7465POPC   GL126413  35.343  40.754   8.855
 7465POPC   GL226414  35.250  40.878   8.855
 7465POPC   C1A26415  35.369  40.753   8.555
 7465POPC   D2A26416  35.367  40.794   8.255
 7465POPC   C3A26417  35.370  40.775   7.955
 7465POPC   C4A26418  35.313  40.766   7.655
 7465POPC   C1B26419  35.116  40.892   8.555
 7465POPC   C2B26420  35.103  40.954   8.255
 7465POPC   C3B26421  35.129  40.949   7.955
 7465POPC   C4B26422  35.119  40.871   7.655
 7466POPC   NC326423   5.829  13.656   9.455
 7466POPC   PO426424   5.840  13.647   9.155
 7466POPC   GL126425   5.871  13.633   8.855
 7466POPC   GL226426   5.837  13.775   8.855
 7466POPC   C1A26427   5.849  13.674   8.555
 7466POPC   D2A26428   5.871  13.593   8.255
 7466POPC   C3A26429   5.908  13.673   7.955
 7466POPC   C4A26430   5.889  13.604   7.655
 7466POPC   C1B26431   5.760  13.855   8.555
 7466POPC   C2B26432   5.791  13.882   8.255
 7466POPC   C3B26433   5.816  13.858   7.955
 7466POPC   C4B26434   5.753  13.860   7.655
 7467POPC   NC326435  24.493  21.363   9.455
 7467POPC   PO426436  24.534  21.373   9.155
 7467POPC   GL126437  24.501  21.350   8.855
 7467POPC   GL226438  24.407  21.259   8.855
 7467POPC   C1A26439  24.515  21.419   8.555
 7467POPC   D2A26440  24.456  21.412   8.255
 7467POPC   C3A26441  24.489  21.373   7.955
 7467POPC   C4A26442  24.535  21.346   7.655
 7467POPC   C1B26443  24.288  21.233   8.555
 7467POPC   C2B26444  24.322  21.207   8.255
 7467POPC   C3B26445  24.294  21.233   7.955
 7467POPC   C4B26446  24.344  21.178   7.655
 7468POPC   NC326447   5.047  43.118   9.455
 7468POPC   PO426448   5.079  43.147   9.155
 7468POPC   GL126449   5.139  43.148   8.855
 7468POPC   GL226450   5.003  43.196   8.855
 7468POPC   C1A26451   5.127  43.129   8.555
 7468POPC   D2A26452   5.131  43.145   8.255
 7468POPC   C3A26453   5.111  43.108   7.955
 7468POPC   C4A26454   5.120  43.061   7.655
 7468POPC   C1B26455   4.821  43.199   8.555
 7468POPC   C2B26456   4.871  43.249   8.255
 7468POPC   C3B26457   4.849  43.217   7.955
 7468POPC   C4B26458   4.816  43.220   7.655
 7469POPC   NC326459  21.367  25.998   9.455
 7469POPC   PO426460  21.368  26.026   9.155
 7469POPC   GL126461  21.417  26.091   8.855
 7469POPC   GL226462  21.363  25.925   8.855
 7469POPC   C1A26463  21.428  26.010   8.555
 7469POPC   D2A26464  21.411  26.006   8.255
 7469POPC   C3A26465  21.417  26.055   7.955
 7469POPC   C4A26466  21.360  26.042   7.655
 7469POPC   C1B26467  21.369  25.796   8.555
 7469POPC   C2B26468  21.356  25.818   8.255
 7469POPC   C3B26469  21.363  25.796   7.955
 7469POPC   C4B26470  21.374  25.781   7.655
 7470POPC   NC326471  21.352  44.649   9.455
 7470POPC   PO426472  21.346  44.620   9.155
 7470POPC   GL126473  21.338  44.699   8.855
 7470POPC   GL226474  21.520  44.739   8.855
 7470POPC   C1A26475  21.351  44.622   8.555
 7470POPC   D2A26476  21.385  44.693   8.255
 7470POPC   C3A26477  21.338  44.647   7.955
 7470POPC   C4A26478  21.430  44.643   7.655
 7470POPC   C1B26479  21.608  44.719   8.555
 7470POPC   C2B26480  21.667  44.742   8.255
 7470POPC   C3B26481  21.591  44.715   7.955
 7470POPC   C4B26482  21.640  44.772   7.655
 7471POPC   NC326483   6.646   4.291   9.455
 7471POPC   PO426484   6.625   4.289   9.155
 7471POPC   GL126485   6.645   4.303   8.855
 7471POPC   GL226486   6.782   4.362   8.855
 7471POPC   C1A26487   6.614   4.360   8.555
 7471POPC   D2A26488   6.630   4.288   8.255
 7471POPC   C3A26489   6.665   4.359   7.955
 7471POPC   C4A26490   6.617   4.274   7.655
 7471POPC   C1B26491   6.907   4.394   8.555
 7471POPC   C2B26492   6.860   4.405   8.255
 7471POPC   C3B26493   6.849   4.349   7.955
 7471POPC   C4B26494   6.920   4.398   7.655
 7472POPC   NC326495  30.667   0.459   9.455
 7472POPC   PO426496  30.720   0.454   9.155
 7472POPC   GL126497  30.728   0.400   8.855
 7472POPC   GL226498  30.800   0.400   8.855
 7472POPC   C1A26499  30.693   0.449   8.555
 7472POPC   D2A26500  30.716   0.423   8.255
 7472POPC   C3A26501  30.664   0.395   7.955
 7472POPC   C4A26502  30.740   0.425   7.655
 7472POPC   C1B26503  30.918   0.438   8.555
 7472POPC   C2B26504  30.936   0.474   8.255
 7472POPC   C3B26505  30.923   0.399   7.955
 7472POPC   C4B26506  30.899   0.419   7.655
 7473POPC   NC326507  30.648  26.796   9.455
 7473POPC   PO426508  30.715  26.866   9.155
 7473POPC   GL126509  30.685  26.827   8.855
 7473POPC   GL226510  30.790  26.701   8.855
 7473POPC   C1A26511  30.695  26.786   8.555
 7473POPC   D2A26512  30.731  26.860   8.255
 7473POPC   C3A26513  30.669  26.779   7.955
 7473POPC   C4A26514  30.673  26.781   7.655
 7473POPC   C1B26515  30.747  26.595   8.555
 7473POPC   C2B26516  30.742  26.555   8.255
 7473POPC   C3B26517  30.779  26.632   7.955
 7473POPC   C4B26518  30.756  26.578   7.655
 7474POPC   NC326519  24.452  14.366   9.455
 7474POPC   PO426520  24.457  14.380   9.155
 7474POPC   GL126521  24.445  14.427   8.855
 7474POPC   GL226522  24.520  14.511   8.855
 7474POPC   C1A26523  24.532  14.387   8.555
 7474POPC   D2A26524  24.482  14.442   8.255
 7474POPC   C3A26525  24.509  14.436   7.955
 7474POPC   C4A26526  24.469  14.359   7.655
 7474POPC   C1B26527  24.524  14.634   8.555
 7474POPC   C2B26528  24.497  14.654   8.255
 7474POPC   C3B26529  24.571  14.689   7.955
 7474POPC   C4B26530  24.523  14.610   7.655
 7475POPC   NC326531  40.042  39.964   9.455
 7475POPC   PO426532  39.975  40.020   9.155
 7475POPC   GL126533  40.029  39.976   8.855
 7475POPC   GL226534  39.890  40.112   8.855
 7475POPC   C1A26535  39.985  40.045   8.555
 7475POPC   D2A26536  39.968  40.012   8.255
 7475POPC   C3A26537  39.963  39.976   7.955
 7475POPC   C4A26538  39.997  40.044   7.655
 7475POPC   C1B26539  39.829  40.187   8.555
 7475POPC   C2B26540  39.793  40.178   8.255
 7475POPC   C3B26541  39.852  40.223   7.955
 7475POPC   C4B26542  39.781  40.185   7.655
 7476POPC   NC326543  20.637  12.088   9.455
 7476POPC   PO426544  20.640  12.058   9.155
 7476POPC   GL126545  20.578  12.064   8.855
 7476POPC   GL226546  20.718  11.990   8.855
 7476POPC   C1A26547  20.648  12.103   8.555
 7476POPC   D2A26548  20.603  12.032   8.255
 7476POPC   C3A26549  20.589  12.118   7.955
 7476POPC   C4A26550  20.607  12.055   7.655
 7476POPC   C1B26551  20.724  11.821   8.555
 7476POPC   C2B26552  20.761  11.828   8.255
 7476POPC   C3B26553  20.704  11.867   7.955
 7476POPC   C4B26554  20.745  11.828   7.655
 7477POPC   NC326555   4.303  30.746   9.455
 7477POPC   PO426556   4.305  30.680   9.155
 7477POPC   GL126557   4.282  30.648   8.855
 7477POPC   GL226558   4.421  30.640   8.855
 7477POPC   C1A26559   4.346  30.723   8.555
 7477POPC   D2A26560   4.301  30.738   8.255
 7477POPC   C3A26561   4.358  30.650   7.955
 7477POPC   C4A26562   4.354  30.705   7.655
 7477POPC   C1B26563   4.492  30.506   8.555
 7477POPC   C2B26564   4.538  30.537   8.255
 7477POPC   C3B26565   4.477  30.487   7.955
 7477POPC   C4B26566   4.545  30.513   7.655
 7478POPC   NC326567  16.740  26.053   9.455
 7478POPC   PO426568  16.718  26.090   9.155
 7478POPC   GL126569  16.754  26.037   8.855
 7478POPC   GL226570  16.815  26.081   8.855
 7478POPC   C1A26571  16.764  26.089   8.555
 7478POPC   D2A26572  16.741  26.072   8.255
 7478POPC   C3A26573  16.743  26.080   7.955
 7478POPC   C4A26574  16.745  26.026   7.655
 7478POPC   C1B26575  17.026  26.061   8.555
 7478POPC   C2B26576  17.022  26.043   8.255
 7478POPC   C3B26577  16.996  26.029   7.955
 7478POPC   C4B26578  16.957  26.025   7.655
 7479POPC   NC326579  12.886   8.963   9.455
 7479POPC   PO426580  12.842   8.942   9.155
 7479POPC   GL126581  12.842   8.982   8.855
 7479POPC   GL226582  12.829   8.846   8.855
 7479POPC   C1A26583  12.850   9.013   8.555
 7479POPC   D2A26584  12.882   8.992   8.255
 7479POPC   C3A26585  12.892   8.975   7.955
 7479POPC   C4A26586  12.802   9.017   7.655
 7479POPC   C1B26587  12.683   8.718   8.555
 7479POPC   C2B26588  12.716   8.799   8.255
 7479POPC   C3B26589  12.766   8.771   7.955
 7479POPC   C4B26590  12.745   8.737   7.655
 7480POPC   NC326591  14.413  36.106   9.455
 7480POPC   PO426592  14.386  36.079   9.155
 7480POPC   GL126593  14.404  36.093   8.855
 7480POPC   GL226594  14.303  36.278   8.855
 7480POPC   C1A26595  14.436  36.088   8.555
 7480POPC   D2A26596  14.394  36.083   8.255
 7480POPC   C3A26597  14.389  36.155   7.955
 7480POPC   C4A26598  14.392  36.148   7.655
 7480POPC   C1B26599  14.319  36.307   8.555
 7480POPC   C2B26600  14.319  36.323   8.255
 7480POPC   C3B26601  14.245  36.345   7.955
 7480POPC   C4B26602  14.277  36.300   7.655
 7481POPC   NC326603  36.946  12.845   9.455
 7481POPC   PO426604  36.927  12.851   9.155
 7481POPC   GL126605  36.871  12.851   8.855
 7481POPC   GL226606  36.957  12.762   8.855
 7481POPC   C1A26607  36.936  12.815   8.555
 7481POPC   D2A26608  36.926  12.840   8.255
 7481POPC   C3A26609  36.862  12.829   7.955
 7481POPC   C4A26610  36.873  12.856   7.655
 7481POPC   C1B26611  37.103  12.680   8.555
 7481POPC   C2B26612  37.100  12.667   8.255
 7481POPC   C3B26613  37.105  12.688   7.955
 7481POPC   C4B26614  37.055  12.692   7.655
 7482POPC   NC326615   9.792   6.678   9.455
 7482POPC   PO426616   9.771   6.626   9.155
 7482POPC   GL126617   9.768   6.615   8.855
 7482POPC   GL226618   9.707   6.583   8.855
 7482POPC   C1A26619   9.742   6.621   8.555
 7482POPC   D2A26620   9.730   6.686   8.255
 7482POPC   C3A26621   9.790   6.675   7.955
 7482POPC   C4A26622   9.739   6.623   7.655
 7482POPC   C1B26623   9.569   6.467   8.555
 7482POPC   C2B26624   9.579   6.473   8.255
 7482POPC   C3B26625   9.613   6.474   7.955
 7482POPC   C4B26626   9.597   6.445   7.655
 7483POPC   NC326627   6.680  34.598   9.455
 7483POPC   PO426628   6.607  34.563   9.155
 7483POPC   GL126629   6.631  34.625   8.855
 7483POPC   GL226630   6.554  34.576   8.855
 7483POPC   C1A26631   6.646  34.595   8.555
 7483POPC   D2A26632   6.617  34.598   8.255
 7483POPC   C3A26633   6.631  34.570   7.955
 7483POPC   C4A26634   6.646  34.575   7.655
 7483POPC   C1B26635   6.393  34.513   8.555
 7483POPC   C2B26636   6.387  34.537   8.255
 7483POPC   C3B26637   6.389  34.517   7.955
 7483POPC   C4B26638   6.420  34.479   7.655
 7484POPC   NC326639   5.117  39.964   9.455
 7484POPC   PO426640   5.090  40.000   9.155
 7484POPC   GL126641   5.107  40.006   8.855
 7484POPC   GL226642   5.135  40.121   8.855
 7484POPC   C1A26643   5.074  40.021   8.555
 7484POPC   D2A26644   5.068  40.003   8.255
 7484POPC   C3A26645   5.068  39.969   7.955
 7484POPC   C4A26646   5.074  40.017   7.655
 7484POPC   C1B26647   5.211  40.260   8.555
 7484POPC   C2B26648   5.115  40.246   8.255
 7484POPC   C3B26649   5.117  40.204   7.955
 7484POPC   C4B26650   5.195  40.293   7.655
 7485POPC   NC326651  36.142   3.570   9.455
 7485POPC   PO426652  36.143   3.554   9.155
 7485POPC   GL126653  36.176   3.507   8.855
 7485POPC   GL226654  36.164   3.446   8.855
 7485POPC   C1A26655  36.081   3.565   8.555
 7485POPC   D2A26656  36.090   3.546   8.255
 7485POPC   C3A26657  36.134   3.495   7.955
 7485POPC   C4A26658  36.108   3.529   7.655
 7485POPC   C1B26659  36.175   3.260   8.555
 7485POPC   C2B26660  36.182   3.255   8.255
 7485POPC   C3B26661  36.213   3.262   7.955
 7485POPC   C4B26662  36.189   3.295   7.655
 7486POPC   NC326663  40.783  22.120   9.455
 7486POPC   PO426664  40.760  22.187   9.155
 7486POPC   GL126665  40.810  22.129   8.855
 7486POPC   GL226666  40.699  22.285   8.855
 7486POPC   C1A26667  40.809  22.124   8.555
 7486POPC   D2A26668  40.762  22.131   8.255
 7486POPC   C3A26669  40.821  22.129   7.955
 7486POPC   C4A26670  40.822  22.124   7.655
 7486POPC   C1B26671  40.685  22.377   8.555
 7486POPC   C2B26672  40.623  22.421   8.255
 7486POPC   C3B26673  40.634  22.368   7.955
 7486POPC   C4B26674  40.653  22.400   7.655
 7487POPC   NC326675  22.909  13.605   9.455
 7487POPC   PO426676  22.947  13.634   9.155
 7487POPC   GL126677  22.932  13.583   8.855
 7487POPC   GL226678  22.846  13.525   8.855
 7487POPC   C1A26679  22.925  13.662   8.555
 7487POPC   D2A26680  22.946  13.645   8.255
 7487POPC   C3A26681  22.968  13.612   7.955
 7487POPC   C4A26682  22.939  13.668   7.655
 7487POPC   C1B26683  22.710  13.516   8.555
 7487POPC   C2B26684  22.703  13.513   8.255
 7487POPC   C3B26685  22.740  13.527   7.955
 7487POPC   C4B26686  22.740  13.513   7.655
 7488POPC   NC326687  20.601   2.736   9.455
 7488POPC   PO426688  20.596   2.733   9.155
 7488POPC   GL126689  20.594   2.759   8.855
 7488POPC   GL226690  20.726   2.660   8.855
 7488POPC   C1A26691  20.584   2.743   8.555
 7488POPC   D2A26692  20.584   2.755   8.255
 7488POPC   C3A26693  20.574   2.767   7.955
 7488POPC   C4A26694  20.604   2.763   7.655
 7488POPC   C1B26695  20.772   2.627   8.555
 7488POPC   C2B26696  20.801   2.572   8.255
 7488POPC   C3B26697  20.832   2.576   7.955
 7488POPC   C4B26698  20.778   2.638   7.655
 7489POPC   NC326699  44.650  31.452   9.455
 7489POPC   PO426700  44.685  31.468   9.155
 7489POPC   GL126701  44.708  31.511   8.855
 7489POPC   GL226702  44.546  31.446   8.855
 7489POPC   C1A26703  44.623  31.463   8.555
 7489POPC   D2A26704  44.620  31.465   8.255
 7489POPC   C3A26705  44.656  31.439   7.955
 7489POPC   C4A26706  44.643  31.446   7.655
 7489POPC   C1B26707  44.440  31.470   8.555
 7489POPC   C2B26708  44.420  31.509   8.255
 7489POPC   C3B26709  44.385  31.527   7.955
 7489POPC   C4B26710  44.393  31.467   7.655
 7490POPC   NC326711   9.022  15.988   9.455
 7490POPC   PO426712   8.924  15.995   9.155
 7490POPC   GL126713   8.992  15.948   8.855
 7490POPC   GL226714   8.979  16.075   8.855
 7490POPC   C1A26715   9.020  15.980   8.555
 7490POPC   D2A26716   8.971  15.959   8.255
 7490POPC   C3A26717   8.983  15.922   7.955
 7490POPC   C4A26718   8.946  15.939   7.655
 7490POPC   C1B26719   9.027  16.219   8.555
 7490POPC   C2B26720   8.976  16.178   8.255
 7490POPC   C3B26721   8.952  16.252   7.955
 7490POPC   C4B26722   8.963  16.167   7.655
 7491POPC   NC326723  22.133  15.997   9.455
 7491POPC   PO426724  22.155  16.004   9.155
 7491POPC   GL126725  22.116  15.958   8.855
 7491POPC   GL226726  22.070  15.887   8.855
 7491POPC   C1A26727  22.195  15.924   8.555
 7491POPC   D2A26728  22.139  15.970   8.255
 7491POPC   C3A26729  22.194  15.932   7.955
 7491POPC   C4A26730  22.121  15.972   7.655
 7491POPC   C1B26731  21.951  15.759   8.555
 7491POPC   C2B26732  21.996  15.821   8.255
 7491POPC   C3B26733  22.024  15.837   7.955
 7491POPC   C4B26734  21.963  15.779   7.655
 7492POPC   NC326735  20.587   8.965   9.455
 7492POPC   PO426736  20.650   9.019   9.155
 7492POPC   GL126737  20.605   8.935   8.855
 7492POPC   GL226738  20.698   8.977   8.855
 7492POPC   C1A26739  20.572   8.989   8.555
 7492POPC   D2A26740  20.565   9.007   8.255
 7492POPC   C3A26741  20.631   8.958   7.955
 7492POPC   C4A26742  20.584   8.998   7.655
 7492POPC   C1B26743  20.841   8.866   8.555
 7492POPC   C2B26744  20.856   8.856   8.255
 7492POPC   C3B26745  20.897   8.851   7.955
 7492POPC   C4B26746  20.850   8.849   7.655
 7493POPC   NC326747   8.147   6.620   9.455
 7493POPC   PO426748   8.182   6.660   9.155
 7493POPC   GL126749   8.173   6.673   8.855
 7493POPC   GL226750   8.099   6.789   8.855
 7493POPC   C1A26751   8.231   6.648   8.555
 7493POPC   D2A26752   8.165   6.607   8.255
 7493POPC   C3A26753   8.174   6.603   7.955
 7493POPC   C4A26754   8.229   6.649   7.655
 7493POPC   C1B26755   8.067   6.871   8.555
 7493POPC   C2B26756   8.066   6.842   8.255
 7493POPC   C3B26757   8.039   6.862   7.955
 7493POPC   C4B26758   8.078   6.807   7.655
 7494POPC   NC326759   5.053   9.750   9.455
 7494POPC   PO426760   5.116   9.775   9.155
 7494POPC   GL126761   5.138   9.739   8.855
 7494POPC   GL226762   5.092   9.870   8.855
 7494POPC   C1A26763   5.116   9.744   8.555
 7494POPC   D2A26764   5.107   9.738   8.255
 7494POPC   C3A26765   5.050   9.727   7.955
 7494POPC   C4A26766   5.118   9.767   7.655
 7494POPC   C1B26767   5.070  10.002   8.555
 7494POPC   C2B26768   5.035   9.963   8.255
 7494POPC   C3B26769   5.077  10.034   7.955
 7494POPC   C4B26770   5.090   9.973   7.655
 7495POPC   NC326771  13.643   3.496   9.455
 7495POPC   PO426772  13.669   3.578   9.155
 7495POPC   GL126773  13.655   3.579   8.855
 7495POPC   GL226774  13.673   3.596   8.855
 7495POPC   C1A26775  13.636   3.540   8.555
 7495POPC   D2A26776  13.578   3.521   8.255
 7495POPC   C3A26777  13.618   3.536   7.955
 7495POPC   C4A26778  13.625   3.585   7.655
 7495POPC   C1B26779  13.797   3.746   8.555
 7495POPC   C2B26780  13.789   3.748   8.255
 7495POPC   C3B26781  13.834   3.778   7.955
 7495POPC   C4B26782  13.796   3.720   7.655
 7496POPC   NC326783  19.067  17.515   9.455
 7496POPC   PO426784  19.071  17.467   9.155
 7496POPC   GL126785  19.015  17.477   8.855
 7496POPC   GL226786  19.075  17.630   8.855
 7496POPC   C1A26787  19.021  17.481   8.555
 7496POPC   D2A26788  19.050  17.492   8.255
 7496POPC   C3A26789  19.048  17.507   7.955
 7496POPC   C4A26790  19.013  17.531   7.655
 7496POPC   C1B26791  19.023  17.740   8.555
 7496POPC   C2B26792  19.025  17.754   8.255
 7496POPC   C3B26793  19.019  17.715   7.955
 7496POPC   C4B26794  19.032  17.789   7.655
 7497POPC   NC326795  25.992  44.652   9.455
 7497POPC   PO426796  26.073  44.688   9.155
 7497POPC   GL126797  26.045  44.661   8.855
 7497POPC   GL226798  25.979  44.517   8.855
 7497POPC   C1A26799  26.081  44.706   8.555
 7497POPC   D2A26800  26.088  44.666   8.255
 7497POPC   C3A26801  26.004  44.674   7.955
 7497POPC   C4A26802  26.001  44.702   7.655
 7497POPC   C1B26803  25.924  44.440   8.555
 7497POPC   C2B26804  25.887  44.436   8.255
 7497POPC   C3B26805  25.901  44.472   7.955
 7497POPC   C4B26806  25.873  44.482   7.655
 7498POPC   NC326807  31.484  43.878   9.455
 7498POPC   PO426808  31.476  43.856   9.155
 7498POPC   GL126809  31.466  43.935   8.855
 7498POPC   GL226810  31.588  43.921   8.855
 7498POPC   C1A26811  31.510  43.900   8.555
 7498POPC   D2A26812  31.451  43.847   8.255
 7498POPC   C3A26813  31.442  43.920   7.955
 7498POPC   C4A26814  31.497  43.857   7.655
 7498POPC   C1B26815  31.679  44.043   8.555
 7498POPC   C2B26816  31.692  43.969   8.255
 7498POPC   C3B26817  31.656  44.032   7.955
 7498POPC   C4B26818  31.661  44.024   7.655
 7499POPC   NC326819  32.223  30.659   9.455
 7499POPC   PO426820  32.256  30.656   9.155
 7499POPC   GL126821  32.295  30.747   8.855
 7499POPC   GL226822  32.283  30.540   8.855
 7499POPC   C1A26823  32.268  30.714   8.555
 7499POPC   D2A26824  32.230  30.737   8.255
 7499POPC   C3A26825  32.260  30.673   7.955
 7499POPC   C4A26826  32.264  30.651   7.655
 7499POPC   C1B26827  32.341  30.497   8.555
 7499POPC   C2B26828  32.300  30.480   8.255
 7499POPC   C3B26829  32.294  30.428   7.955
 7499POPC   C4B26830  32.352  30.421   7.655
 7500POPC   NC326831  27.574  15.174   9.455
 7500POPC   PO426832  27.545  15.149   9.155
 7500POPC   GL126833  27.576  15.219   8.855
 7500POPC   GL226834  27.556  15.271   8.855
 7500POPC   C1A26835  27.588  15.212   8.555
 7500POPC   D2A26836  27.638  15.130   8.255
 7500POPC   C3A26837  27.627  15.175   7.955
 7500POPC   C4A26838  27.576  15.220   7.655
 7500POPC   C1B26839  27.433  15.425   8.555
 7500POPC   C2B26840  27.496  15.392   8.255
 7500POPC   C3B26841  27.473  15.427   7.955
 7500POPC   C4B26842  27.494  15.434   7.655
 7501POPC   NC326843  24.452  16.710   9.455
 7501POPC   PO426844  24.524  16.732   9.155
 7501POPC   GL126845  24.508  16.748   8.855
 7501POPC   GL226846  24.467  16.868   8.855
 7501POPC   C1A26847  24.471  16.769   8.555
 7501POPC   D2A26848  24.484  16.755   8.255
 7501POPC   C3A26849  24.527  16.770   7.955
 7501POPC   C4A26850  24.477  16.777   7.655
 7501POPC   C1B26851  24.503  16.956   8.555
 7501POPC   C2B26852  24.484  17.026   8.255
 7501POPC   C3B26853  24.553  17.012   7.955
 7501POPC   C4B26854  24.512  16.965   7.655
 7502POPC   NC326855   4.321  28.348   9.455
 7502POPC   PO426856   4.311  28.411   9.155
 7502POPC   GL126857   4.353  28.418   8.855
 7502POPC   GL226858   4.445  28.324   8.855
 7502POPC   C1A26859   4.328  28.383   8.555
 7502POPC   D2A26860   4.303  28.394   8.255
 7502POPC   C3A26861   4.285  28.383   7.955
 7502POPC   C4A26862   4.276  28.378   7.655
 7502POPC   C1B26863   4.585  28.269   8.555
 7502POPC   C2B26864   4.526  28.331   8.255
 7502POPC   C3B26865   4.525  28.280   7.955
 7502POPC   C4B26866   4.609  28.271   7.655
 7503POPC   NC326867  24.475  15.167   9.455
 7503POPC   PO426868  24.497  15.163   9.155
 7503POPC   GL126869  24.476  15.225   8.855
 7503POPC   GL226870  24.394  15.230   8.855
 7503POPC   C1A26871  24.451  15.218   8.555
 7503POPC   D2A26872  24.485  15.168   8.255
 7503POPC   C3A26873  24.454  15.139   7.955
 7503POPC   C4A26874  24.509  15.168   7.655
 7503POPC   C1B26875  24.346  15.399   8.555
 7503POPC   C2B26876  24.321  15.339   8.255
 7503POPC   C3B26877  24.322  15.334   7.955
 7503POPC   C4B26878  24.312  15.388   7.655
 7504POPC   NC326879  32.250  32.240   9.455
 7504POPC   PO426880  32.275  32.223   9.155
 7504POPC   GL126881  32.273  32.260   8.855
 7504POPC   GL226882  32.168  32.174   8.855
 7504POPC   C1A26883  32.237  32.221   8.555
 7504POPC   D2A26884  32.273  32.218   8.255
 7504POPC   C3A26885  32.275  32.275   7.955
 7504POPC   C4A26886  32.286  32.241   7.655
 7504POPC   C1B26887  32.212  32.004   8.555
 7504POPC   C2B26888  32.131  32.059   8.255
 7504POPC   C3B26889  32.204  32.025   7.955
 7504POPC   C4B26890  32.200  31.970   7.655
 7505POPC   NC326891   7.404   9.727   9.455
 7505POPC   PO426892   7.441   9.727   9.155
 7505POPC   GL126893   7.416   9.719   8.855
 7505POPC   GL226894   7.350   9.779   8.855
 7505POPC   C1A26895   7.451   9.753   8.555
 7505POPC   D2A26896   7.451   9.768   8.255
 7505POPC   C3A26897   7.459   9.704   7.955
 7505POPC   C4A26898   7.423   9.792   7.655
 7505POPC   C1B26899   7.229   9.839   8.555
 7505POPC   C2B26900   7.177   9.869   8.255
 7505POPC   C3B26901   7.211   9.833   7.955
 7505POPC   C4B26902   7.205   9.783   7.655
 7506POPC   NC326903   9.792   5.081   9.455
 7506POPC   PO426904   9.724   5.106   9.155
 7506POPC   GL126905   9.762   5.136   8.855
 7506POPC   GL226906   9.752   5.004   8.855
 7506POPC   C1A26907   9.749   5.104   8.555
 7506POPC   D2A26908   9.789   5.092   8.255
 7506POPC   C3A26909   9.761   5.133   7.955
 7506POPC   C4A26910   9.795   5.062   7.655
 7506POPC   C1B26911   9.871   4.820   8.555
 7506POPC   C2B26912   9.826   4.867   8.255
 7506POPC   C3B26913   9.871   4.890   7.955
 7506POPC   C4B26914   9.790   4.872   7.655
 7507POPC   NC326915  32.207  43.881   9.455
 7507POPC   PO426916  32.254  43.909   9.155
 7507POPC   GL126917  32.211  43.921   8.855
 7507POPC   GL226918  32.369  43.980   8.855
 7507POPC   C1A26919  32.285  43.881   8.555
 7507POPC   D2A26920  32.211  43.919   8.255
 7507POPC   C3A26921  32.270  43.902   7.955
 7507POPC   C4A26922  32.256  43.877   7.655
 7507POPC   C1B26923  32.483  44.022   8.555
 7507POPC   C2B26924  32.495  43.989   8.255
 7507POPC   C3B26925  32.448  43.983   7.955
 7507POPC   C4B26926  32.451  43.977   7.655
 7508POPC   NC326927  22.177  26.842   9.455
 7508POPC   PO426928  22.164  26.795   9.155
 7508POPC   GL126929  22.169  26.861   8.855
 7508POPC   GL226930  22.233  26.855   8.855
 7508POPC   C1A26931  22.146  26.774   8.555
 7508POPC   D2A26932  22.137  26.773   8.255
 7508POPC   C3A26933  22.124  26.854   7.955
 7508POPC   C4A26934  22.209  26.862   7.655
 7508POPC   C1B26935  22.439  26.904   8.555
 7508POPC   C2B26936  22.379  26.882   8.255
 7508POPC   C3B26937  22.368  26.878   7.955
 7508POPC   C4B26938  22.436  26.876   7.655
 7509POPC   NC326939   1.215  28.363   9.455
 7509POPC   PO426940   1.215  28.393   9.155
 7509POPC   GL126941   1.165  28.339   8.855
 7509POPC   GL226942   1.252  28.239   8.855
 7509POPC   C1A26943   1.248  28.352   8.555
 7509POPC   D2A26944   1.236  28.403   8.255
 7509POPC   C3A26945   1.186  28.376   7.955
 7509POPC   C4A26946   1.209  28.376   7.655
 7509POPC   C1B26947   1.364  28.135   8.555
 7509POPC   C2B26948   1.387  28.179   8.255
 7509POPC   C3B26949   1.425  28.199   7.955
 7509POPC   C4B26950   1.344  28.132   7.655
 7510POPC   NC326951  40.046  22.907   9.455
 7510POPC   PO426952  40.030  22.932   9.155
 7510POPC   GL126953  40.041  22.941   8.855
 7510POPC   GL226954  40.034  22.856   8.855
 7510POPC   C1A26955  39.998  22.939   8.555
 7510POPC   D2A26956  39.994  22.945   8.255
 7510POPC   C3A26957  40.003  22.979   7.955
 7510POPC   C4A26958  39.979  22.964   7.655
 7510POPC   C1B26959  40.081  22.697   8.555
 7510POPC   C2B26960  40.155  22.709   8.255
 7510POPC   C3B26961  40.134  22.757   7.955
 7510POPC   C4B26962  40.116  22.691   7.655
 7511POPC   NC326963  37.670  15.202   9.455
 7511POPC   PO426964  37.645  15.209   9.155
 7511POPC   GL126965  37.706  15.146   8.855
 7511POPC   GL226966  37.744  15.115   8.855
 7511POPC   C1A26967  37.709  15.229   8.555
 7511POPC   D2A26968  37.667  15.198   8.255
 7511POPC   C3A26969  37.663  15.165   7.955
 7511POPC   C4A26970  37.667  15.141   7.655
 7511POPC   C1B26971  37.855  15.023   8.555
 7511POPC   C2B26972  37.793  14.936   8.255
 7511POPC   C3B26973  37.867  14.995   7.955
 7511POPC   C4B26974  37.863  14.973   7.655
 7512POPC   NC326975  33.790  37.724   9.455
 7512POPC   PO426976  33.770  37.645   9.155
 7512POPC   GL126977  33.757  37.674   8.855
 7512POPC   GL226978  33.881  37.564   8.855
 7512POPC   C1A26979  33.816  37.664   8.555
 7512POPC   D2A26980  33.769  37.673   8.255
 7512POPC   C3A26981  33.753  37.637   7.955
 7512POPC   C4A26982  33.828  37.724   7.655
 7512POPC   C1B26983  33.998  37.476   8.555
 7512POPC   C2B26984  33.922  37.479   8.255
 7512POPC   C3B26985  33.965  37.519   7.955
 7512POPC   C4B26986  33.938  37.529   7.655
 7513POPC   NC326987   9.777  18.235   9.455
 7513POPC   PO426988   9.784  18.301   9.155
 7513POPC   GL126989   9.719  18.307   8.855
 7513POPC   GL226990   9.800  18.367   8.855
 7513POPC   C1A26991   9.714  18.240   8.555
 7513POPC   D2A26992   9.737  18.286   8.255
 7513POPC   C3A26993   9.744  18.247   7.955
 7513POPC   C4A26994   9.773  18.300   7.655
 7513POPC   C1B26995   9.885  18.462   8.555
 7513POPC   C2B26996   9.961  18.455   8.255
 7513POPC   C3B26997   9.968  18.422   7.955
 7513POPC   C4B26998   9.889  18.498   7.655
 7514POPC   NC326999  35.379  29.907   9.455
 7514POPC   PO427000  35.316  29.945   9.155
 7514POPC   GL127001  35.342  29.971   8.855
 7514POPC   GL227002  35.357  30.063   8.855
 7514POPC   C1A27003  35.344  29.956   8.555
 7514POPC   D2A27004  35.370  29.944   8.255
 7514POPC   C3A27005  35.320  29.922   7.955
 7514POPC   C4A27006  35.314  29.897   7.655
 7514POPC   C1B27007  35.443  30.135   8.555
 7514POPC   C2B27008  35.410  30.155   8.255
 7514POPC   C3B27009  35.430  30.185   7.955
 7514POPC   C4B27010  35.400  30.165   7.655
 7515POPC   NC327011  23.684  24.451   9.455
 7515POPC   PO427012  23.678  24.520   9.155
 7515POPC   GL127013  23.715  24.446   8.855
 7515POPC   GL227014  23.722  24.612   8.855
 7515POPC   C1A27015  23.715  24.534   8.555
 7515POPC   D2A27016  23.754  24.466   8.255
 7515POPC   C3A27017  23.723  24.456   7.955
 7515POPC   C4A27018  23.719  24.505   7.655
 7515POPC   C1B27019  23.679  24.690   8.555
 7515POPC   C2B27020  23.638  24.720   8.255
 7515POPC   C3B27021  23.651  24.705   7.955
 7515POPC   C4B27022  23.625  24.724   7.655
 7516POPC   NC327023  39.221   1.228   9.455
 7516POPC   PO427024  39.185   1.208   9.155
 7516POPC   GL127025  39.225   1.179   8.855
 7516POPC   GL227026  39.113   1.215   8.855
 7516POPC   C1A27027  39.205   1.178   8.555
 7516POPC   D2A27028  39.254   1.223   8.255
 7516POPC   C3A27029  39.230   1.253   7.955
 7516POPC   C4A27030  39.248   1.248   7.655
 7516POPC   C1B27031  39.043   1.126   8.555
 7516POPC   C2B27032  39.034   1.074   8.255
 7516POPC   C3B27033  39.045   1.110   7.955
 7516POPC   C4B27034  38.959   1.148   7.655
 7517POPC   NC327035  42.383  39.255   9.455
 7517POPC   PO427036  42.383  39.191   9.155
 7517POPC   GL127037  42.316  39.188   8.855
 7517POPC   GL227038  42.344  39.364   8.855
 7517POPC   C1A27039  42.297  39.247   8.555
 7517POPC   D2A27040  42.347  39.205   8.255
 7517POPC   C3A27041  42.358  39.268   7.955
 7517POPC   C4A27042  42.366  39.242   7.655
 7517POPC   C1B27043  42.272  39.429   8.555
 7517POPC   C2B27044  42.296  39.487   8.255
 7517POPC   C3B27045  42.291  39.453   7.955
 7517POPC   C4B27046  42.252  39.493   7.655
 7518POPC   NC327047  26.823  33.030   9.455
 7518POPC   PO427048  26.799  33.049   9.155
 7518POPC   GL127049  26.866  32.994   8.855
 7518POPC   GL227050  26.661  33.041   8.855
 7518POPC   C1A27051  26.812  33.065   8.555
 7518POPC   D2A27052  26.829  33.016   8.255
 7518POPC   C3A27053  26.821  32.980   7.955
 7518POPC   C4A27054  26.840  33.019   7.655
 7518POPC   C1B27055  26.600  33.042   8.555
 7518POPC   C2B27056  26.545  32.992   8.255
 7518POPC   C3B27057  26.613  32.993   7.955
 7518POPC   C4B27058  26.572  33.028   7.655
 7519POPC   NC327059   7.457  43.123   9.455
 7519POPC   PO427060   7.373  43.083   9.155
 7519POPC   GL127061   7.423  43.107   8.855
 7519POPC   GL227062   7.535  43.041   8.855
 7519POPC   C1A27063   7.437  43.083   8.555
 7519POPC   D2A27064   7.426  43.083   8.255
 7519POPC   C3A27065   7.388  43.079   7.955
 7519POPC   C4A27066   7.430  43.113   7.655
 7519POPC   C1B27067   7.578  42.937   8.555
 7519POPC   C2B27068   7.625  42.886   8.255
 7519POPC   C3B27069   7.607  42.936   7.955
 7519POPC   C4B27070   7.576  42.916   7.655
 7520POPC   NC327071  11.325  18.318   9.455
 7520POPC   PO427072  11.318  18.266   9.155
 7520POPC   GL127073  11.323  18.307   8.855
 7520POPC   GL227074  11.447  18.374   8.855
 7520POPC   C1A27075  11.281  18.323   8.555
 7520POPC   D2A27076  11.338  18.236   8.255
 7520POPC   C3A27077  11.328  18.311   7.955
 7520POPC   C4A27078  11.331  18.248   7.655
 7520POPC   C1B27079  11.500  18.427   8.555
 7520POPC   C2B27080  11.540  18.356   8.255
 7520POPC   C3B27081  11.568  18.432   7.955
 7520POPC   C4B27082  11.486  18.401   7.655
 7521POPC   NC327083  36.920  26.811   9.455
 7521POPC   PO427084  36.871  26.774   9.155
 7521POPC   GL127085  36.928  26.815   8.855
 7521POPC   GL227086  36.926  26.903   8.855
 7521POPC   C1A27087  36.951  26.840   8.555
 7521POPC   D2A27088  36.917  26.856   8.255
 7521POPC   C3A27089  36.857  26.842   7.955
 7521POPC   C4A27090  36.890  26.777   7.655
 7521POPC   C1B27091  36.851  27.084   8.555
 7521POPC   C2B27092  36.902  27.112   8.255
 7521POPC   C3B27093  36.827  27.053   7.955
 7521POPC   C4B27094  36.858  27.066   7.655
 7522POPC   NC327095  33.786  19.786   9.455
 7522POPC   PO427096  33.768  19.841   9.155
 7522POPC   GL127097  33.833  19.821   8.855
 7522POPC   GL227098  33.726  19.947   8.855
 7522POPC   C1A27099  33.751  19.798   8.555
 7522POPC   D2A27100  33.771  19.828   8.255
 7522POPC   C3A27101  33.754  19.857   7.955
 7522POPC   C4A27102  33.817  19.826   7.655
 7522POPC   C1B27103  33.635  20.049   8.555
 7522POPC   C2B27104  33.619  20.053   8.255
 7522POPC   C3B27105  33.606  20.022   7.955
 7522POPC   C4B27106  33.574  20.016   7.655
 7523POPC   NC327107  36.151  41.589   9.455
 7523POPC   PO427108  36.135  41.567   9.155
 7523POPC   GL127109  36.102  41.515   8.855
 7523POPC   GL227110  36.025  41.488   8.855
 7523POPC   C1A27111  36.163  41.562   8.555
 7523POPC   D2A27112  36.150  41.552   8.255
 7523POPC   C3A27113  36.080  41.548   7.955
 7523POPC   C4A27114  36.161  41.554   7.655
 7523POPC   C1B27115  35.973  41.446   8.555
 7523POPC   C2B27116  35.904  41.456   8.255
 7523POPC   C3B27117  35.881  41.439   7.955
 7523POPC   C4B27118  35.896  41.412   7.655
 7524POPC   NC327119   8.219  24.464   9.455
 7524POPC   PO427120   8.201  24.508   9.155
 7524POPC   GL127121   8.194  24.470   8.855
 7524POPC   GL227122   8.169  24.329   8.855
 7524POPC   C1A27123   8.224  24.470   8.555
 7524POPC   D2A27124   8.147  24.447   8.255
 7524POPC   C3A27125   8.176  24.531   7.955
 7524POPC   C4A27126   8.189  24.446   7.655
 7524POPC   C1B27127   8.224  24.253   8.555
 7524POPC   C2B27128   8.252  24.197   8.255
 7524POPC   C3B27129   8.223  24.266   7.955
 7524POPC   C4B27130   8.242  24.226   7.655
 7525POPC   NC327131   9.729  36.108   9.455
 7525POPC   PO427132   9.771  36.082   9.155
 7525POPC   GL127133   9.757  36.137   8.855
 7525POPC   GL227134   9.807  36.042   8.855
 7525POPC   C1A27135   9.796  36.126   8.555
 7525POPC   D2A27136   9.773  36.102   8.255
 7525POPC   C3A27137   9.740  36.133   7.955
 7525POPC   C4A27138   9.793  36.115   7.655
 7525POPC   C1B27139   9.915  35.993   8.555
 7525POPC   C2B27140   9.981  35.956   8.255
 7525POPC   C3B27141   9.933  36.001   7.955
 7525POPC   C4B27142   9.915  35.989   7.655
 7526POPC   NC327143  30.732  10.556   9.455
 7526POPC   PO427144  30.742  10.515   9.155
 7526POPC   GL127145  30.730  10.477   8.855
 7526POPC   GL227146  30.604  10.519   8.855
 7526POPC   C1A27147  30.718  10.548   8.555
 7526POPC   D2A27148  30.725  10.540   8.255
 7526POPC   C3A27149  30.652  10.511   7.955
 7526POPC   C4A27150  30.723  10.560   7.655
 7526POPC   C1B27151  30.478  10.430   8.555
 7526POPC   C2B27152  30.405  10.430   8.255
 7526POPC   C3B27153  30.463  10.511   7.955
 7526POPC   C4B27154  30.447  10.455   7.655
 7527POPC   NC327155  13.668  29.106   9.455
 7527POPC   PO427156  13.671  29.135   9.155
 7527POPC   GL127157  13.588  29.154   8.855
 7527POPC   GL227158  13.514  29.106   8.855
 7527POPC   C1A27159  13.589  29.127   8.555
 7527POPC   D2A27160  13.628  29.161   8.255
 7527POPC   C3A27161  13.672  29.188   7.955
 7527POPC   C4A27162  13.584  29.169   7.655
 7527POPC   C1B27163  13.411  29.000   8.555
 7527POPC   C2B27164  13.385  29.047   8.255
 7527POPC   C3B27165  13.414  29.051   7.955
 7527POPC   C4B27166  13.403  28.982   7.655
 7528POPC   NC327167  10.549  38.435   9.455
 7528POPC   PO427168  10.566  38.452   9.155
 7528POPC   GL127169  10.509  38.419   8.855
 7528POPC   GL227170  10.597  38.329   8.855
 7528POPC   C1A27171  10.553  38.462   8.555
 7528POPC   D2A27172  10.496  38.441   8.255
 7528POPC   C3A27173  10.569  38.415   7.955
 7528POPC   C4A27174  10.479  38.497   7.655
 7528POPC   C1B27175  10.563  38.256   8.555
 7528POPC   C2B27176  10.564  38.260   8.255
 7528POPC   C3B27177  10.575  38.187   7.955
 7528POPC   C4B27178  10.563  38.263   7.655
 7529POPC   NC327179  32.977   4.339   9.455
 7529POPC   PO427180  33.040   4.340   9.155
 7529POPC   GL127181  32.998   4.339   8.855
 7529POPC   GL227182  33.147   4.395   8.855
 7529POPC   C1A27183  32.985   4.305   8.555
 7529POPC   D2A27184  33.001   4.347   8.255
 7529POPC   C3A27185  32.999   4.284   7.955
 7529POPC   C4A27186  33.047   4.304   7.655
 7529POPC   C1B27187  33.169   4.530   8.555
 7529POPC   C2B27188  33.255   4.488   8.255
 7529POPC   C3B27189  33.186   4.532   7.955
 7529POPC   C4B27190  33.200   4.514   7.655
 7530POPC   NC327191  13.656  43.839   9.455
 7530POPC   PO427192  13.632  43.921   9.155
 7530POPC   GL127193  13.655  43.860   8.855
 7530POPC   GL227194  13.704  43.964   8.855
 7530POPC   C1A27195  13.602  43.905   8.555
 7530POPC   D2A27196  13.589  43.850   8.255
 7530POPC   C3A27197  13.583  43.869   7.955
 7530POPC   C4A27198  13.618  43.843   7.655
 7530POPC   C1B27199  13.808  44.062   8.555
 7530POPC   C2B27200  13.781  44.127   8.255
 7530POPC   C3B27201  13.817  44.111   7.955
 7530POPC   C4B27202  13.744  44.040   7.655
 7531POPC   NC327203  10.570  27.552   9.455
 7531POPC   PO427204  10.548  27.573   9.155
 7531POPC   GL127205  10.538  27.560   8.855
 7531POPC   GL227206  10.554  27.478   8.855
 7531POPC   C1A27207  10.479  27.606   8.555
 7531POPC   D2A27208  10.519  27.620   8.255
 7531POPC   C3A27209  10.568  27.616   7.955
 7531POPC   C4A27210  10.535  27.635   7.655
 7531POPC   C1B27211  10.516  27.393   8.555
 7531POPC   C2B27212  10.607  27.362   8.255
 7531POPC   C3B27213  10.534  27.313   7.955
 7531POPC   C4B27214  10.541  27.372   7.655
 7532POPC   NC327215  43.921  10.500   9.455
 7532POPC   PO427216  43.915  10.553   9.155
 7532POPC   GL127217  43.930  10.568   8.855
 7532POPC   GL227218  44.020  10.568   8.855
 7532POPC   C1A27219  43.909  10.492   8.555
 7532POPC   D2A27220  43.843  10.571   8.255
 7532POPC   C3A27221  43.883  10.501   7.955
 7532POPC   C4A27222  43.911  10.506   7.655
 7532POPC   C1B27223  44.125  10.665   8.555
 7532POPC   C2B27224  44.087  10.706   8.255
 7532POPC   C3B27225  44.110  10.638   7.955
 7532POPC   C4B27226  44.055  10.642   7.655
 7533POPC   NC327227  44.693   7.393   9.455
 7533POPC   PO427228  44.667   7.386   9.155
 7533POPC   GL127229  44.654   7.417   8.855
 7533POPC   GL227230  44.652   7.577   8.855
 7533POPC   C1A27231  44.612   7.405   8.555
 7533POPC   D2A27232  44.660   7.420   8.255
 7533POPC   C3A27233  44.689   7.390   7.955
 7533POPC   C4A27234  44.620   7.417   7.655
 7533POPC   C1B27235  44.610   7.655   8.555
 7533POPC   C2B27236  44.643   7.707   8.255
 7533POPC   C3B27237  44.620   7.617   7.955
 7533POPC   C4B27238  44.646   7.679   7.655
 7534POPC   NC327239  21.402  12.879   9.455
 7534POPC   PO427240  21.367  12.828   9.155
 7534POPC   GL127241  21.402  12.844   8.855
 7534POPC   GL227242  21.400  13.025   8.855
 7534POPC   C1A27243  21.373  12.829   8.555
 7534POPC   D2A27244  21.425  12.880   8.255
 7534POPC   C3A27245  21.367  12.861   7.955
 7534POPC   C4A27246  21.349  12.884   7.655
 7534POPC   C1B27247  21.445  13.087   8.555
 7534POPC   C2B27248  21.378  13.068   8.255
 7534POPC   C3B27249  21.387  13.057   7.955
 7534POPC   C4B27250  21.386  13.068   7.655
 7535POPC   NC327251  41.563  22.177   9.455
 7535POPC   PO427252  41.562  22.123   9.155
 7535POPC   GL127253  41.597  22.150   8.855
 7535POPC   GL227254  41.665  22.156   8.855
 7535POPC   C1A27255  41.531  22.118   8.555
 7535POPC   D2A27256  41.533  22.165   8.255
 7535POPC   C3A27257  41.599  22.126   7.955
 7535POPC   C4A27258  41.512  22.139   7.655
 7535POPC   C1B27259  41.844  22.147   8.555
 7535POPC   C2B27260  41.826  22.193   8.255
 7535POPC   C3B27261  41.763  22.132   7.955
 7535POPC   C4B27262  41.802  22.159   7.655
 7536POPC   NC327263  12.035   1.991   9.455
 7536POPC   PO427264  12.085   1.952   9.155
 7536POPC   GL127265  12.110   1.967   8.855
 7536POPC   GL227266  12.210   1.936   8.855
 7536POPC   C1A27267  12.033   1.950   8.555
 7536POPC   D2A27268  12.087   1.958   8.255
 7536POPC   C3A27269  12.041   1.982   7.955
 7536POPC   C4A27270  12.044   1.976   7.655
 7536POPC   C1B27271  12.318   1.953   8.555
 7536POPC   C2B27272  12.304   1.940   8.255
 7536POPC   C3B27273  12.348   1.944   7.955
 7536POPC   C4B27274  12.276   2.012   7.655
 7537POPC   NC327275  40.826  43.906   9.455
 7537POPC   PO427276  40.742  43.909   9.155
 7537POPC   GL127277  40.739  43.891   8.855
 7537POPC   GL227278  40.942  43.910   8.855
 7537POPC   C1A27279  40.787  43.896   8.555
 7537POPC   D2A27280  40.810  43.873   8.255
 7537POPC   C3A27281  40.800  43.883   7.955
 7537POPC   C4A27282  40.752  43.896   7.655
 7537POPC   C1B27283  40.973  43.964   8.555
 7537POPC   C2B27284  41.057  43.995   8.255
 7537POPC   C3B27285  40.978  44.022   7.955
 7537POPC   C4B27286  41.011  44.006   7.655
 7538POPC   NC327287  27.612  43.106   9.455
 7538POPC   PO427288  27.615  43.078   9.155
 7538POPC   GL127289  27.623  43.135   8.855
 7538POPC   GL227290  27.493  43.245   8.855
 7538POPC   C1A27291  27.619  43.082   8.555
 7538POPC   D2A27292  27.568  43.093   8.255
 7538POPC   C3A27293  27.584  43.106   7.955
 7538POPC   C4A27294  27.577  43.135   7.655
 7538POPC   C1B27295  27.497  43.298   8.555
 7538POPC   C2B27296  27.513  43.292   8.255
 7538POPC   C3B27297  27.473  43.332   7.955
 7538POPC   C4B27298  27.434  43.359   7.655
 7539POPC   NC327299  14.403  36.918   9.455
 7539POPC   PO427300  14.409  36.914   9.155
 7539POPC   GL127301  14.378  36.914   8.855
 7539POPC   GL227302  14.422  36.751   8.855
 7539POPC   C1A27303  14.412  36.932   8.555
 7539POPC   D2A27304  14.399  36.940   8.255
 7539POPC   C3A27305  14.393  36.872   7.955
 7539POPC   C4A27306  14.419  36.918   7.655
 7539POPC   C1B27307  14.364  36.639   8.555
 7539POPC   C2B27308  14.343  36.690   8.255
 7539POPC   C3B27309  14.369  36.626   7.955
 7539POPC   C4B27310  14.382  36.631   7.655
 7540POPC   NC327311  37.664  29.127   9.455
 7540POPC   PO427312  37.688  29.131   9.155
 7540POPC   GL127313  37.685  29.127   8.855
 7540POPC   GL227314  37.635  29.031   8.855
 7540POPC   C1A27315  37.694  29.171   8.555
 7540POPC   D2A27316  37.681  29.127   8.255
 7540POPC   C3A27317  37.729  29.115   7.955
 7540POPC   C4A27318  37.688  29.103   7.655
 7540POPC   C1B27319  37.526  28.967   8.555
 7540POPC   C2B27320  37.559  28.905   8.255
 7540POPC   C3B27321  37.567  28.891   7.955
 7540POPC   C4B27322  37.550  28.947   7.655
 7541POPC   NC327323  31.470  25.296   9.455
 7541POPC   PO427324  31.455  25.229   9.155
 7541POPC   GL127325  31.428  25.243   8.855
 7541POPC   GL227326  31.489  25.415   8.855
 7541POPC   C1A27327  31.477  25.267   8.555
 7541POPC   D2A27328  31.491  25.298   8.255
 7541POPC   C3A27329  31.459  25.289   7.955
 7541POPC   C4A27330  31.515  25.246   7.655
 7541POPC   C1B27331  31.457  25.468   8.555
 7541POPC   C2B27332  31.530  25.521   8.255
 7541POPC   C3B27333  31.462  25.555   7.955
 7541POPC   C4B27334  31.483  25.558   7.655
 7542POPC   NC327335  42.378  33.061   9.455
 7542POPC   PO427336  42.353  33.039   9.155
 7542POPC   GL127337  42.321  32.998   8.855
 7542POPC   GL227338  42.466  32.934   8.855
 7542POPC   C1A27339  42.293  33.009   8.555
 7542POPC   D2A27340  42.383  33.024   8.255
 7542POPC   C3A27341  42.305  33.066   7.955
 7542POPC   C4A27342  42.319  33.000   7.655
 7542POPC   C1B27343  42.565  32.968   8.555
 7542POPC   C2B27344  42.537  32.883   8.255
 7542POPC   C3B27345  42.605  32.929   7.955
 7542POPC   C4B27346  42.564  32.933   7.655
 7543POPC   NC327347  41.576  39.191   9.455
 7543POPC   PO427348  41.583  39.270   9.155
 7543POPC   GL127349  41.531  39.212   8.855
 7543POPC   GL227350  41.632  39.250   8.855
 7543POPC   C1A27351  41.594  39.195   8.555
 7543POPC   D2A27352  41.548  39.190   8.255
 7543POPC   C3A27353  41.511  39.278   7.955
 7543POPC   C4A27354  41.599  39.258   7.655
 7543POPC   C1B27355  41.821  39.273   8.555
 7543POPC   C2B27356  41.807  39.339   8.255
 7543POPC   C3B27357  41.747  39.287   7.955
 7543POPC   C4B27358  41.747  39.304   7.655
 7544POPC   NC327359  32.288  36.860   9.455
 7544POPC   PO427360  32.283  36.952   9.155
 7544POPC   GL127361  32.211  36.910   8.855
 7544POPC   GL227362  32.155  36.859   8.855
 7544POPC   C1A27363  32.250  36.901   8.555
 7544POPC   D2A27364  32.238  36.865   8.255
 7544POPC   C3A27365  32.249  36.947   7.955
 7544POPC   C4A27366  32.209  36.943   7.655
 7544POPC   C1B27367  32.008  36.801   8.555
 7544POPC   C2B27368  32.003  36.840   8.255
 7544POPC   C3B27369  32.035  36.853   7.955
 7544POPC   C4B27370  31.996  36.795   7.655
 7545POPC   NC327371   4.355  43.905   9.455
 7545POPC   PO427372   4.281  43.842   9.155
 7545POPC   GL127373   4.335  43.897   8.855
 7545POPC   GL227374   4.201  44.018   8.855
 7545POPC   C1A27375   4.286  43.878   8.555
 7545POPC   D2A27376   4.328  43.899   8.255
 7545POPC   C3A27377   4.321  43.923   7.955
 7545POPC   C4A27378   4.329  43.858   7.655
 7545POPC   C1B27379   4.153  44.076   8.555
 7545POPC   C2B27380   4.145  44.096   8.255
 7545POPC   C3B27381   4.084  44.080   7.955
 7545POPC   C4B27382   4.139  44.015   7.655
 7546POPC   NC327383  43.902  36.102   9.455
 7546POPC   PO427384  43.895  36.107   9.155
 7546POPC   GL127385  43.900  36.138   8.855
 7546POPC   GL227386  43.932  36.008   8.855
 7546POPC   C1A27387  43.906  36.132   8.555
 7546POPC   D2A27388  43.930  36.106   8.255
 7546POPC   C3A27389  43.873  36.170   7.955
 7546POPC   C4A27390  43.868  36.116   7.655
 7546POPC   C1B27391  43.997  35.920   8.555
 7546POPC   C2B27392  44.040  35.868   8.255
 7546POPC   C3B27393  44.063  35.879   7.955
 7546POPC   C4B27394  43.990  35.913   7.655
 7547POPC   NC327395  43.869   5.832   9.455
 7547POPC   PO427396  43.919   5.895   9.155
 7547POPC   GL127397  43.862   5.827   8.855
 7547POPC   GL227398  43.941   5.945   8.855
 7547POPC   C1A27399  43.924   5.866   8.555
 7547POPC   D2A27400  43.919   5.900   8.255
 7547POPC   C3A27401  43.872   5.856   7.955
 7547POPC   C4A27402  43.851   5.875   7.655
 7547POPC   C1B27403  43.887   6.071   8.555
 7547POPC   C2B27404  43.886   6.087   8.255
 7547POPC   C3B27405  43.883   6.072   7.955
 7547POPC   C4B27406  43.920   6.097   7.655
 7548POPC   NC327407   0.458  12.046   9.455
 7548POPC   PO427408   0.397  12.119   9.155
 7548POPC   GL127409   0.457  12.096   8.855
 7548POPC   GL227410   0.486  12.034   8.855
 7548POPC   C1A27411   0.414  12.042   8.555
 7548POPC   D2A27412   0.449  12.115   8.255
 7548POPC   C3A27413   0.452  12.047   7.955
 7548POPC   C4A27414   0.388  12.110   7.655
 7548POPC   C1B27415   0.602  11.925   8.555
 7548POPC   C2B27416   0.657  11.942   8.255
 7548POPC   C3B27417   0.658  11.867   7.955
 7548POPC   C4B27418   0.649  11.887   7.655
 7549POPC   NC327419   3.556  32.996   9.455
 7549POPC   PO427420   3.545  33.008   9.155
 7549POPC   GL127421   3.522  33.055   8.855
 7549POPC   GL227422   3.620  32.939   8.855
 7549POPC   C1A27423   3.554  33.048   8.555
 7549POPC   D2A27424   3.561  32.974   8.255
 7549POPC   C3A27425   3.539  33.064   7.955
 7549POPC   C4A27426   3.505  33.035   7.655
 7549POPC   C1B27427   3.595  32.807   8.555
 7549POPC   C2B27428   3.644  32.802   8.255
 7549POPC   C3B27429   3.578  32.799   7.955
 7549POPC   C4B27430   3.622  32.824   7.655
 7550POPC   NC327431  13.629  39.214   9.455
 7550POPC   PO427432  13.648  39.210   9.155
 7550POPC   GL127433  13.620  39.251   8.855
 7550POPC   GL227434  13.550  39.127   8.855
 7550POPC   C1A27435  13.630  39.253   8.555
 7550POPC   D2A27436  13.619  39.245   8.255
 7550POPC   C3A27437  13.607  39.204   7.955
 7550POPC   C4A27438  13.627  39.205   7.655
 7550POPC   C1B27439  13.451  39.095   8.555
 7550POPC   C2B27440  13.493  39.017   8.255
 7550POPC   C3B27441  13.435  39.076   7.955
 7550POPC   C4B27442  13.469  39.059   7.655
 7551POPC   NC327443   8.935  40.755   9.455
 7551POPC   PO427444   8.922  40.776   9.155
 7551POPC   GL127445   9.000  40.772   8.855
 7551POPC   GL227446   8.841  40.850   8.855
 7551POPC   C1A27447   8.996  40.800   8.555
 7551POPC   D2A27448   8.982  40.776   8.255
 7551POPC   C3A27449   8.962  40.767   7.955
 7551POPC   C4A27450   8.993  40.823   7.655
 7551POPC   C1B27451   8.712  40.874   8.555
 7551POPC   C2B27452   8.758  40.785   8.255
 7551POPC   C3B27453   8.753  40.809   7.955
 7551POPC   C4B27454   8.701  40.805   7.655
 7552POPC   NC327455  20.602  39.972   9.455
 7552POPC   PO427456  20.601  40.012   9.155
 7552POPC   GL127457  20.615  40.030   8.855
 7552POPC   GL227458  20.520  39.971   8.855
 7552POPC   C1A27459  20.611  40.038   8.555
 7552POPC   D2A27460  20.625  40.009   8.255
 7552POPC   C3A27461  20.596  40.017   7.955
 7552POPC   C4A27462  20.609  40.004   7.655
 7552POPC   C1B27463  20.352  39.949   8.555
 7552POPC   C2B27464  20.372  39.980   8.255
 7552POPC   C3B27465  20.384  39.906   7.955
 7552POPC   C4B27466  20.367  39.905   7.655
 7553POPC   NC327467   6.678  13.607   9.455
 7553POPC   PO427468   6.672  13.674   9.155
 7553POPC   GL127469   6.637  13.605   8.855
 7553POPC   GL227470   6.570  13.671   8.855
 7553POPC   C1A27471   6.670  13.666   8.555
 7553POPC   D2A27472   6.645  13.654   8.255
 7553POPC   C3A27473   6.693  13.671   7.955
 7553POPC   C4A27474   6.645  13.655   7.655
 7553POPC   C1B27475   6.427  13.650   8.555
 7553POPC   C2B27476   6.430  13.586   8.255
 7553POPC   C3B27477   6.431  13.678   7.955
 7553POPC   C4B27478   6.350  13.623   7.655
 7554POPC   NC327479   9.010  16.707   9.455
 7554POPC   PO427480   8.949  16.748   9.155
 7554POPC   GL127481   8.941  16.734   8.855
 7554POPC   GL227482   9.024  16.612   8.855
 7554POPC   C1A27483   9.013  16.695   8.555
 7554POPC   D2A27484   8.962  16.730   8.255
 7554POPC   C3A27485   8.932  16.747   7.955
 7554POPC   C4A27486   8.993  16.762   7.655
 7554POPC   C1B27487   9.020  16.538   8.555
 7554POPC   C2B27488   9.000  16.448   8.255
 7554POPC   C3B27489   9.007  16.475   7.955
 7554POPC   C4B27490   9.066  16.528   7.655
 7555POPC   NC327491   2.781  16.736   9.455
 7555POPC   PO427492   2.739  16.712   9.155
 7555POPC   GL127493   2.764  16.709   8.855
 7555POPC   GL227494   2.837  16.657   8.855
 7555POPC   C1A27495   2.753  16.753   8.555
 7555POPC   D2A27496   2.806  16.748   8.255
 7555POPC   C3A27497   2.723  16.771   7.955
 7555POPC   C4A27498   2.788  16.695   7.655
 7555POPC   C1B27499   2.971  16.690   8.555
 7555POPC   C2B27500   2.972  16.616   8.255
 7555POPC   C3B27501   3.027  16.614   7.955
 7555POPC   C4B27502   2.959  16.604   7.655
 7556POPC   NC327503  19.053  43.884   9.455
 7556POPC   PO427504  19.054  43.846   9.155
 7556POPC   GL127505  19.070  43.891   8.855
 7556POPC   GL227506  19.127  43.987   8.855
 7556POPC   C1A27507  19.014  43.912   8.555
 7556POPC   D2A27508  19.082  43.902   8.255
 7556POPC   C3A27509  19.067  43.908   7.955
 7556POPC   C4A27510  19.092  43.925   7.655
 7556POPC   C1B27511  19.257  44.040   8.555
 7556POPC   C2B27512  19.304  44.026   8.255
 7556POPC   C3B27513  19.291  44.042   7.955
 7556POPC   C4B27514  19.307  44.031   7.655
 7557POPC   NC327515  40.779   1.952   9.455
 7557POPC   PO427516  40.791   1.968   9.155
 7557POPC   GL127517  40.775   2.019   8.855
 7557POPC   GL227518  40.795   2.096   8.855
 7557POPC   C1A27519  40.798   2.016   8.555
 7557POPC   D2A27520  40.744   1.968   8.255
 7557POPC   C3A27521  40.809   1.986   7.955
 7557POPC   C4A27522  40.825   1.974   7.655
 7557POPC   C1B27523  40.863   2.256   8.555
 7557POPC   C2B27524  40.797   2.216   8.255
 7557POPC   C3B27525  40.805   2.217   7.955
 7557POPC   C4B27526  40.854   2.223   7.655
 7558POPC   NC327527  22.965  35.392   9.455
 7558POPC   PO427528  22.911  35.383   9.155
 7558POPC   GL127529  22.963  35.348   8.855
 7558POPC   GL227530  23.052  35.327   8.855
 7558POPC   C1A27531  22.941  35.308   8.555
 7558POPC   D2A27532  22.912  35.304   8.255
 7558POPC   C3A27533  22.906  35.395   7.955
 7558POPC   C4A27534  22.953  35.401   7.655
 7558POPC   C1B27535  23.142  35.218   8.555
 7558POPC   C2B27536  23.126  35.198   8.255
 7558POPC   C3B27537  23.185  35.292   7.955
 7558POPC   C4B27538  23.197  35.285   7.655
 7559POPC   NC327539  40.736  39.262   9.455
 7559POPC   PO427540  40.733  39.226   9.155
 7559POPC   GL127541  40.779  39.192   8.855
 7559POPC   GL227542  40.724  39.324   8.855
 7559POPC   C1A27543  40.764  39.184   8.555
 7559POPC   D2A27544  40.755  39.261   8.255
 7559POPC   C3A27545  40.832  39.232   7.955
 7559POPC   C4A27546  40.805  39.213   7.655
 7559POPC   C1B27547  40.655  39.450   8.555
 7559POPC   C2B27548  40.704  39.426   8.255
 7559POPC   C3B27549  40.665  39.438   7.955
 7559POPC   C4B27550  40.660  39.484   7.655
 7560POPC   NC327551  28.335  28.365   9.455
 7560POPC   PO427552  28.405  28.415   9.155
 7560POPC   GL127553  28.388  28.395   8.855
 7560POPC   GL227554  28.367  28.255   8.855
 7560POPC   C1A27555  28.339  28.409   8.555
 7560POPC   D2A27556  28.350  28.343   8.255
 7560POPC   C3A27557  28.416  28.323   7.955
 7560POPC   C4A27558  28.342  28.376   7.655
 7560POPC   C1B27559  28.285  28.181   8.555
 7560POPC   C2B27560  28.303  28.182   8.255
 7560POPC   C3B27561  28.261  28.178   7.955
 7560POPC   C4B27562  28.263  28.180   7.655
 7561POPC   NC327563  33.769  43.124   9.455
 7561POPC   PO427564  33.808  43.145   9.155
 7561POPC   GL127565  33.827  43.143   8.855
 7561POPC   GL227566  33.747  42.967   8.855
 7561POPC   C1A27567  33.811  43.078   8.555
 7561POPC   D2A27568  33.765  43.063   8.255
 7561POPC   C3A27569  33.782  43.133   7.955
 7561POPC   C4A27570  33.754  43.141   7.655
 7561POPC   C1B27571  33.691  42.835   8.555
 7561POPC   C2B27572  33.700  42.872   8.255
 7561POPC   C3B27573  33.666  42.926   7.955
 7561POPC   C4B27574  33.697  42.878   7.655
 7562POPC   NC327575  40.817  21.397   9.455
 7562POPC   PO427576  40.739  21.373   9.155
 7562POPC   GL127577  40.793  21.368   8.855
 7562POPC   GL227578  40.877  21.301   8.855
 7562POPC   C1A27579  40.819  21.350   8.555
 7562POPC   D2A27580  40.813  21.427   8.255
 7562POPC   C3A27581  40.779  21.345   7.955
 7562POPC   C4A27582  40.829  21.422   7.655
 7562POPC   C1B27583  40.948  21.144   8.555
 7562POPC   C2B27584  40.946  21.183   8.255
 7562POPC   C3B27585  40.973  21.214   7.955
 7562POPC   C4B27586  40.929  21.197   7.655
 7563POPC   NC327587  35.372  16.703   9.455
 7563POPC   PO427588  35.336  16.714   9.155
 7563POPC   GL127589  35.356  16.683   8.855
 7563POPC   GL227590  35.513  16.730   8.855
 7563POPC   C1A27591  35.360  16.743   8.555
 7563POPC   D2A27592  35.336  16.764   8.255
 7563POPC   C3A27593  35.312  16.697   7.955
 7563POPC   C4A27594  35.307  16.777   7.655
 7563POPC   C1B27595  35.546  16.768   8.555
 7563POPC   C2B27596  35.602  16.839   8.255
 7563POPC   C3B27597  35.578  16.847   7.955
 7563POPC   C4B27598  35.620  16.837   7.655
 7564POPC   NC327599  23.672  37.673   9.455
 7564POPC   PO427600  23.737  37.719   9.155
 7564POPC   GL127601  23.757  37.724   8.855
 7564POPC   GL227602  23.672  37.747   8.855
 7564POPC   C1A27603  23.701  37.681   8.555
 7564POPC   D2A27604  23.713  37.702   8.255
 7564POPC   C3A27605  23.741  37.683   7.955
 7564POPC   C4A27606  23.685  37.702   7.655
 7564POPC   C1B27607  23.610  37.864   8.555
 7564POPC   C2B27608  23.651  37.874   8.255
 7564POPC   C3B27609  23.600  37.916   7.955
 7564POPC   C4B27610  23.612  37.964   7.655
 7565POPC   NC327611  43.864  31.474   9.455
 7565POPC   PO427612  43.858  31.512   9.155
 7565POPC   GL127613  43.891  31.443   8.855
 7565POPC   GL227614  43.795  31.314   8.855
 7565POPC   C1A27615  43.889  31.514   8.555
 7565POPC   D2A27616  43.850  31.499   8.255
 7565POPC   C3A27617  43.886  31.502   7.955
 7565POPC   C4A27618  43.872  31.454   7.655
 7565POPC   C1B27619  43.772  31.255   8.555
 7565POPC   C2B27620  43.837  31.289   8.255
 7565POPC   C3B27621  43.832  31.222   7.955
 7565POPC   C4B27622  43.778  31.261   7.655
 7566POPC   NC327623  43.070  15.224   9.455
 7566POPC   PO427624  43.150  15.226   9.155
 7566POPC   GL127625  43.131  15.158   8.855
 7566POPC   GL227626  43.074  15.298   8.855
 7566POPC   C1A27627  43.141  15.185   8.555
 7566POPC   D2A27628  43.135  15.219   8.255
 7566POPC   C3A27629  43.122  15.203   7.955
 7566POPC   C4A27630  43.150  15.132   7.655
 7566POPC   C1B27631  42.986  15.446   8.555
 7566POPC   C2B27632  43.049  15.412   8.255
 7566POPC   C3B27633  42.998  15.397   7.955
 7566POPC   C4B27634  43.029  15.402   7.655
 7567POPC   NC327635  20.645   1.213   9.455
 7567POPC   PO427636  20.660   1.186   9.155
 7567POPC   GL127637  20.601   1.217   8.855
 7567POPC   GL227638  20.505   1.370   8.855
 7567POPC   C1A27639  20.574   1.228   8.555
 7567POPC   D2A27640  20.615   1.199   8.255
 7567POPC   C3A27641  20.652   1.201   7.955
 7567POPC   C4A27642  20.596   1.213   7.655
 7567POPC   C1B27643  20.533   1.443   8.555
 7567POPC   C2B27644  20.477   1.429   8.255
 7567POPC   C3B27645  20.472   1.382   7.955
 7567POPC   C4B27646  20.520   1.463   7.655
 7568POPC   NC327647   6.658  36.922   9.455
 7568POPC   PO427648   6.654  36.877   9.155
 7568POPC   GL127649   6.611  36.928   8.855
 7568POPC   GL227650   6.562  36.989   8.855
 7568POPC   C1A27651   6.626  36.920   8.555
 7568POPC   D2A27652   6.598  36.876   8.255
 7568POPC   C3A27653   6.604  36.888   7.955
 7568POPC   C4A27654   6.597  36.905   7.655
 7568POPC   C1B27655   6.592  37.159   8.555
 7568POPC   C2B27656   6.594  37.189   8.255
 7568POPC   C3B27657   6.613  37.130   7.955
 7568POPC   C4B27658   6.573  37.165   7.655
 7569POPC   NC327659  25.313  28.384   9.455
 7569POPC   PO427660  25.308  28.320   9.155
 7569POPC   GL127661  25.283  28.324   8.855
 7569POPC   GL227662  25.230  28.257   8.855
 7569POPC   C1A27663  25.302  28.386   8.555
 7569POPC   D2A27664  25.268  28.335   8.255
 7569POPC   C3A27665  25.255  28.362   7.955
 7569POPC   C4A27666  25.266  28.376   7.655
 7569POPC   C1B27667  25.192  28.148   8.555
 7569POPC   C2B27668  25.130  28.114   8.255
 7569POPC   C3B27669  25.132  28.125   7.955
 7569POPC   C4B27670  25.194  28.172   7.655
 7570POPC   NC327671   0.463  29.142   9.455
 7570POPC   PO427672   0.488  29.130   9.155
 7570POPC   GL127673   0.458  29.145   8.855
 7570POPC   GL227674   0.375  29.220   8.855
 7570POPC   C1A27675   0.444  29.158   8.555
 7570POPC   D2A27676   0.454  29.161   8.255
 7570POPC   C3A27677   0.431  29.120   7.955
 7570POPC   C4A27678   0.478  29.161   7.655
 7570POPC   C1B27679   0.231  29.272   8.555
 7570POPC   C2B27680   0.238  29.326   8.255
 7570POPC   C3B27681   0.256  29.322   7.955
 7570POPC   C4B27682   0.231  29.268   7.655
 7571POPC   NC327683   3.535  29.896   9.455
 7571POPC   PO427684   3.565  29.875   9.155
 7571POPC   GL127685   3.565  29.903   8.855
 7571POPC   GL227686   3.415  29.985   8.855
 7571POPC   C1A27687   3.492  29.931   8.555
 7571POPC   D2A27688   3.513  29.954   8.255
 7571POPC   C3A27689   3.529  29.909   7.955
 7571POPC   C4A27690   3.553  29.920   7.655
 7571POPC   C1B27691   3.282  29.992   8.555
 7571POPC   C2B27692   3.344  30.062   8.255
 7571POPC   C3B27693   3.347  30.056   7.955
 7571POPC   C4B27694   3.319  30.046   7.655
 7572POPC   NC327695  22.944  44.641   9.455
 7572POPC   PO427696  22.964  44.695   9.155
 7572POPC   GL127697  22.957  44.664   8.855
 7572POPC   GL227698  22.799  44.664   8.855
 7572POPC   C1A27699  22.962  44.633   8.555
 7572POPC   D2A27700  22.907  44.614   8.255
 7572POPC   C3A27701  22.930  44.705   7.955
 7572POPC   C4A27702  22.961  44.689   7.655
 7572POPC   C1B27703  22.736  44.759   8.555
 7572POPC   C2B27704  22.727  44.707   8.255
 7572POPC   C3B27705  22.661  44.728   7.955
 7572POPC   C4B27706  22.739  44.768   7.655
 7573POPC   NC327707  43.843  40.053   9.455
 7573POPC   PO427708  43.920  39.995   9.155
 7573POPC   GL127709  43.879  40.044   8.855
 7573POPC   GL227710  44.026  40.044   8.855
 7573POPC   C1A27711  43.923  40.046   8.555
 7573POPC   D2A27712  43.889  39.979   8.255
 7573POPC   C3A27713  43.892  40.035   7.955
 7573POPC   C4A27714  43.859  40.023   7.655
 7573POPC   C1B27715  44.114  40.017   8.555
 7573POPC   C2B27716  44.122  40.040   8.255
 7573POPC   C3B27717  44.103  39.979   7.955
 7573POPC   C4B27718  44.091  39.991   7.655
 7574POPC   NC327719  21.344   9.736   9.455
 7574POPC   PO427720  21.352   9.760   9.155
 7574POPC   GL127721  21.369   9.750   8.855
 7574POPC   GL227722  21.302   9.887   8.855
 7574POPC   C1A27723  21.337   9.792   8.555
 7574POPC   D2A27724  21.359   9.766   8.255
 7574POPC   C3A27725  21.389   9.720   7.955
 7574POPC   C4A27726  21.418   9.754   7.655
 7574POPC   C1B27727  21.298   9.940   8.555
 7574POPC   C2B27728  21.276   9.943   8.255
 7574POPC   C3B27729  21.228   9.916   7.955
 7574POPC   C4B27730  21.259   9.983   7.655
 7575POPC   NC327731  18.280   2.791   9.455
 7575POPC   PO427732  18.255   2.784   9.155
 7575POPC   GL127733  18.270   2.748   8.855
 7575POPC   GL227734  18.196   2.707   8.855
 7575POPC   C1A27735  18.257   2.758   8.555
 7575POPC   D2A27736  18.254   2.748   8.255
 7575POPC   C3A27737  18.242   2.737   7.955
 7575POPC   C4A27738  18.294   2.772   7.655
 7575POPC   C1B27739  18.054   2.633   8.555
 7575POPC   C2B27740  18.103   2.567   8.255
 7575POPC   C3B27741  18.043   2.657   7.955
 7575POPC   C4B27742  18.072   2.637   7.655
 7576POPC   NC327743  13.584  36.857   9.455
 7576POPC   PO427744  13.609  36.952   9.155
 7576POPC   GL127745  13.605  36.866   8.855
 7576POPC   GL227746  13.645  36.772   8.855
 7576POPC   C1A27747  13.588  36.923   8.555
 7576POPC   D2A27748  13.637  36.922   8.255
 7576POPC   C3A27749  13.659  36.859   7.955
 7576POPC   C4A27750  13.658  36.914   7.655
 7576POPC   C1B27751  13.606  36.634   8.555
 7576POPC   C2B27752  13.537  36.687   8.255
 7576POPC   C3B27753  13.605  36.647   7.955
 7576POPC   C4B27754  13.604  36.673   7.655
 7577POPC   NC327755  24.519  31.466   9.455
 7577POPC   PO427756  24.468  31.470   9.155
 7577POPC   GL127757  24.448  31.507   8.855
 7577POPC   GL227758  24.335  31.509   8.855
 7577POPC   C1A27759  24.537  31.476   8.555
 7577POPC   D2A27760  24.524  31.452   8.255
 7577POPC   C3A27761  24.476  31.522   7.955
 7577POPC   C4A27762  24.477  31.483   7.655
 7577POPC   C1B27763  24.231  31.639   8.555
 7577POPC   C2B27764  24.286  31.611   8.255
 7577POPC   C3B27765  24.306  31.606   7.955
 7577POPC   C4B27766  24.294  31.577   7.655
 7578POPC   NC327767  39.235  17.463   9.455
 7578POPC   PO427768  39.270  17.513   9.155
 7578POPC   GL127769  39.202  17.457   8.855
 7578POPC   GL227770  39.288  17.628   8.855
 7578POPC   C1A27771  39.182  17.520   8.555
 7578POPC   D2A27772  39.222  17.464   8.255
 7578POPC   C3A27773  39.257  17.468   7.955
 7578POPC   C4A27774  39.274  17.557   7.655
 7578POPC   C1B27775  39.372  17.733   8.555
 7578POPC   C2B27776  39.412  17.647   8.255
 7578POPC   C3B27777  39.434  17.690   7.955
 7578POPC   C4B27778  39.449  17.705   7.655
 7579POPC   NC327779  24.471  19.081   9.455
 7579POPC   PO427780  24.441  19.077   9.155
 7579POPC   GL127781  24.503  19.010   8.855
 7579POPC   GL227782  24.567  19.134   8.855
 7579POPC   C1A27783  24.484  19.070   8.555
 7579POPC   D2A27784  24.513  19.029   8.255
 7579POPC   C3A27785  24.493  19.060   7.955
 7579POPC   C4A27786  24.486  19.079   7.655
 7579POPC   C1B27787  24.585  19.262   8.555
 7579POPC   C2B27788  24.591  19.267   8.255
 7579POPC   C3B27789  24.602  19.262   7.955
 7579POPC   C4B27790  24.587  19.279   7.655
 7580POPC   NC327791  34.552   4.282   9.455
 7580POPC   PO427792  34.612   4.281   9.155
 7580POPC   GL127793  34.587   4.279   8.855
 7580POPC   GL227794  34.629   4.417   8.855
 7580POPC   C1A27795  34.610   4.347   8.555
 7580POPC   D2A27796  34.564   4.268   8.255
 7580POPC   C3A27797  34.590   4.326   7.955
 7580POPC   C4A27798  34.608   4.269   7.655
 7580POPC   C1B27799  34.738   4.484   8.555
 7580POPC   C2B27800  34.784   4.539   8.255
 7580POPC   C3B27801  34.755   4.489   7.955
 7580POPC   C4B27802  34.713   4.533   7.655
 7581POPC   NC327803  33.028  35.334   9.455
 7581POPC   PO427804  33.034  35.307   9.155
 7581POPC   GL127805  33.026  35.330   8.855
 7581POPC   GL227806  33.103  35.433   8.855
 7581POPC   C1A27807  33.040  35.332   8.555
 7581POPC   D2A27808  33.045  35.397   8.255
 7581POPC   C3A27809  32.983  35.358   7.955
 7581POPC   C4A27810  33.028  35.317   7.655
 7581POPC   C1B27811  33.164  35.477   8.555
 7581POPC   C2B27812  33.181  35.471   8.255
 7581POPC   C3B27813  33.255  35.509   7.955
 7581POPC   C4B27814  33.256  35.468   7.655
 7582POPC   NC327815  40.795  30.670   9.455
 7582POPC   PO427816  40.733  30.651   9.155
 7582POPC   GL127817  40.833  30.710   8.855
 7582POPC   GL227818  40.821  30.813   8.855
 7582POPC   C1A27819  40.809  30.731   8.555
 7582POPC   D2A27820  40.789  30.733   8.255
 7582POPC   C3A27821  40.794  30.696   7.955
 7582POPC   C4A27822  40.825  30.688   7.655
 7582POPC   C1B27823  40.878  30.913   8.555
 7582POPC   C2B27824  40.883  30.902   8.255
 7582POPC   C3B27825  40.872  30.911   7.955
 7582POPC   C4B27826  40.809  30.980   7.655
 7583POPC   NC327827   2.755  29.904   9.455
 7583POPC   PO427828   2.771  29.930   9.155
 7583POPC   GL127829   2.791  29.957   8.855
 7583POPC   GL227830   2.830  29.876   8.855
 7583POPC   C1A27831   2.813  29.926   8.555
 7583POPC   D2A27832   2.814  29.931   8.255
 7583POPC   C3A27833   2.760  29.961   7.955
 7583POPC   C4A27834   2.787  29.961   7.655
 7583POPC   C1B27835   2.931  29.796   8.555
 7583POPC   C2B27836   2.938  29.766   8.255
 7583POPC   C3B27837   2.999  29.795   7.955
 7583POPC   C4B27838   2.924  29.733   7.655
 7584POPC   NC327839   2.769  38.467   9.455
 7584POPC   PO427840   2.807  38.423   9.155
 7584POPC   GL127841   2.732  38.452   8.855
 7584POPC   GL227842   2.781  38.603   8.855
 7584POPC   C1A27843   2.761  38.417   8.555
 7584POPC   D2A27844   2.811  38.425   8.255
 7584POPC   C3A27845   2.804  38.413   7.955
 7584POPC   C4A27846   2.718  38.440   7.655
 7584POPC   C1B27847   2.735  38.703   8.555
 7584POPC   C2B27848   2.747  38.678   8.255
 7584POPC   C3B27849   2.710  38.669   7.955
 7584POPC   C4B27850   2.674  38.711   7.655
 7585POPC   NC327851   5.058  16.682   9.455
 7585POPC   PO427852   5.107  16.759   9.155
 7585POPC   GL127853   5.089  16.720   8.855
 7585POPC   GL227854   4.985  16.709   8.855
 7585POPC   C1A27855   5.093  16.735   8.555
 7585POPC   D2A27856   5.108  16.723   8.255
 7585POPC   C3A27857   5.136  16.751   7.955
 7585POPC   C4A27858   5.069  16.691   7.655
 7585POPC   C1B27859   4.803  16.826   8.555
 7585POPC   C2B27860   4.816  16.760   8.255
 7585POPC   C3B27861   4.883  16.824   7.955
 7585POPC   C4B27862   4.840  16.777   7.655
 7586POPC   NC327863  36.165  17.462   9.455
 7586POPC   PO427864  36.155  17.505   9.155
 7586POPC   GL127865  36.102  17.497   8.855
 7586POPC   GL227866  36.108  17.618   8.855
 7586POPC   C1A27867  36.115  17.525   8.555
 7586POPC   D2A27868  36.169  17.502   8.255
 7586POPC   C3A27869  36.127  17.459   7.955
 7586POPC   C4A27870  36.175  17.533   7.655
 7586POPC   C1B27871  36.028  17.772   8.555
 7586POPC   C2B27872  36.001  17.702   8.255
 7586POPC   C3B27873  36.019  17.789   7.955
 7586POPC   C4B27874  36.091  17.784   7.655
 7587POPC   NC327875   8.152  15.940   9.455
 7587POPC   PO427876   8.234  15.947   9.155
 7587POPC   GL127877   8.165  15.939   8.855
 7587POPC   GL227878   8.280  15.860   8.855
 7587POPC   C1A27879   8.237  15.936   8.555
 7587POPC   D2A27880   8.216  15.975   8.255
 7587POPC   C3A27881   8.232  15.998   7.955
 7587POPC   C4A27882   8.164  15.957   7.655
 7587POPC   C1B27883   8.369  15.747   8.555
 7587POPC   C2B27884   8.325  15.808   8.255
 7587POPC   C3B27885   8.407  15.754   7.955
 7587POPC   C4B27886   8.314  15.801   7.655
 7588POPC   NC327887  26.086  22.122   9.455
 7588POPC   PO427888  26.081  22.116   9.155
 7588POPC   GL127889  26.076  22.204   8.855
 7588POPC   GL227890  25.939  22.255   8.855
 7588POPC   C1A27891  26.057  22.186   8.555
 7588POPC   D2A27892  26.027  22.211   8.255
 7588POPC   C3A27893  25.994  22.129   7.955
 7588POPC   C4A27894  26.009  22.154   7.655
 7588POPC   C1B27895  25.861  22.354   8.555
 7588POPC   C2B27896  25.885  22.387   8.255
 7588POPC   C3B27897  25.881  22.366   7.955
 7588POPC   C4B27898  25.849  22.346   7.655
 7589POPC   NC327899  15.133   5.871   9.455
 7589POPC   PO427900  15.199   5.871   9.155
 7589POPC   GL127901  15.175   5.823   8.855
 7589POPC   GL227902  15.185   6.025   8.855
 7589POPC   C1A27903  15.166   5.869   8.555
 7589POPC   D2A27904  15.132   5.845   8.255
 7589POPC   C3A27905  15.199   5.841   7.955
 7589POPC   C4A27906  15.171   5.867   7.655
 7589POPC   C1B27907  15.315   6.142   8.555
 7589POPC   C2B27908  15.249   6.075   8.255
 7589POPC   C3B27909  15.250   6.104   7.955
 7589POPC   C4B27910  15.300   6.099   7.655
 7590POPC   NC327911  39.263   5.126   9.455
 7590POPC   PO427912  39.267   5.088   9.155
 7590POPC   GL127913  39.275   5.136   8.855
 7590POPC   GL227914  39.295   5.202   8.855
 7590POPC   C1A27915  39.232   5.117   8.555
 7590POPC   D2A27916  39.230   5.128   8.255
 7590POPC   C3A27917  39.218   5.105   7.955
 7590POPC   C4A27918  39.222   5.065   7.655
 7590POPC   C1B27919  39.496   5.250   8.555
 7590POPC   C2B27920  39.494   5.235   8.255
 7590POPC   C3B27921  39.420   5.242   7.955
 7590POPC   C4B27922  39.432   5.233   7.655
 7591POPC   NC327923   4.283  13.671   9.455
 7591POPC   PO427924   4.325  13.645   9.155
 7591POPC   GL127925   4.292  13.584   8.855
 7591POPC   GL227926   4.301  13.764   8.855
 7591POPC   C1A27927   4.341  13.669   8.555
 7591POPC   D2A27928   4.338  13.598   8.255
 7591POPC   C3A27929   4.341  13.580   7.955
 7591POPC   C4A27930   4.328  13.621   7.655
 7591POPC   C1B27931   4.202  13.858   8.555
 7591POPC   C2B27932   4.180  13.868   8.255
 7591POPC   C3B27933   4.177  13.867   7.955
 7591POPC   C4B27934   4.168  13.878   7.655
 7592POPC   NC327935  21.388  43.858   9.455
 7592POPC   PO427936  21.436  43.886   9.155
 7592POPC   GL127937  21.365  43.911   8.855
 7592POPC   GL227938  21.287  43.969   8.855
 7592POPC   C1A27939  21.365  43.858   8.555
 7592POPC   D2A27940  21.427  43.866   8.255
 7592POPC   C3A27941  21.405  43.900   7.955
 7592POPC   C4A27942  21.422  43.862   7.655
 7592POPC   C1B27943  21.233  43.994   8.555
 7592POPC   C2B27944  21.220  43.997   8.255
 7592POPC   C3B27945  21.168  44.003   7.955
 7592POPC   C4B27946  21.230  44.067   7.655
 7593POPC   NC327947  23.742  25.217   9.455
 7593POPC   PO427948  23.667  25.264   9.155
 7593POPC   GL127949  23.673  25.302   8.855
 7593POPC   GL227950  23.552  25.246   8.855
 7593POPC   C1A27951  23.737  25.241   8.555
 7593POPC   D2A27952  23.666  25.264   8.255
 7593POPC   C3A27953  23.749  25.281   7.955
 7593POPC   C4A27954  23.667  25.303   7.655
 7593POPC   C1B27955  23.436  25.348   8.555
 7593POPC   C2B27956  23.423  25.284   8.255
 7593POPC   C3B27957  23.450  25.274   7.955
 7593POPC   C4B27958  23.498  25.361   7.655
 7594POPC   NC327959  26.059   1.225   9.455
 7594POPC   PO427960  25.993   1.210   9.155
 7594POPC   GL127961  26.033   1.165   8.855
 7594POPC   GL227962  26.072   1.090   8.855
 7594POPC   C1A27963  26.058   1.200   8.555
 7594POPC   D2A27964  26.069   1.167   8.255
 7594POPC   C3A27965  26.065   1.182   7.955
 7594POPC   C4A27966  26.039   1.247   7.655
 7594POPC   C1B27967  26.072   1.012   8.555
 7594POPC   C2B27968  26.068   1.005   8.255
 7594POPC   C3B27969  26.113   0.956   7.955
 7594POPC   C4B27970  26.080   0.972   7.655
 7595POPC   NC327971  31.501  19.842   9.455
 7595POPC   PO427972  31.491  19.857   9.155
 7595POPC   GL127973  31.502  19.872   8.855
 7595POPC   GL227974  31.346  19.801   8.855
 7595POPC   C1A27975  31.494  19.882   8.555
 7595POPC   D2A27976  31.495  19.821   8.255
 7595POPC   C3A27977  31.434  19.811   7.955
 7595POPC   C4A27978  31.453  19.837   7.655
 7595POPC   C1B27979  31.223  19.850   8.555
 7595POPC   C2B27980  31.268  19.835   8.255
 7595POPC   C3B27981  31.215  19.825   7.955
 7595POPC   C4B27982  31.227  19.782   7.655
 7596POPC   NC327983  16.005  43.924   9.455
 7596POPC   PO427984  15.912  43.879   9.155
 7596POPC   GL127985  15.982  43.869   8.855
 7596POPC   GL227986  16.019  43.808   8.855
 7596POPC   C1A27987  15.927  43.899   8.555
 7596POPC   D2A27988  15.950  43.863   8.255
 7596POPC   C3A27989  15.922  43.875   7.955
 7596POPC   C4A27990  15.978  43.935   7.655
 7596POPC   C1B27991  16.146  43.755   8.555
 7596POPC   C2B27992  16.149  43.811   8.255
 7596POPC   C3B27993  16.200  43.770   7.955
 7596POPC   C4B27994  16.211  43.753   7.655
 7597POPC   NC327995  36.887   1.263   9.455
 7597POPC   PO427996  36.878   1.184   9.155
 7597POPC   GL127997  36.939   1.255   8.855
 7597POPC   GL227998  36.751   1.254   8.855
 7597POPC   C1A27999  36.935   1.242   8.555
 7597POPC   D2A28000  36.915   1.181   8.255
 7597POPC   C3A28001  36.889   1.229   7.955
 7597POPC   C4A28002  36.869   1.237   7.655
 7597POPC   C1B28003  36.692   1.348   8.555
 7597POPC   C2B28004  36.657   1.297   8.255
 7597POPC   C3B28005  36.677   1.308   7.955
 7597POPC   C4B28006  36.729   1.311   7.655
 7598POPC   NC328007  42.340  12.882   9.455
 7598POPC   PO428008  42.306  12.826   9.155
 7598POPC   GL128009  42.358  12.881   8.855
 7598POPC   GL228010  42.307  12.794   8.855
 7598POPC   C1A28011  42.317  12.873   8.555
 7598POPC   D2A28012  42.364  12.820   8.255
 7598POPC   C3A28013  42.292  12.883   7.955
 7598POPC   C4A28014  42.354  12.846   7.655
 7598POPC   C1B28015  42.200  12.601   8.555
 7598POPC   C2B28016  42.237  12.647   8.255
 7598POPC   C3B28017  42.239  12.615   7.955
 7598POPC   C4B28018  42.193  12.593   7.655
 7599POPC   NC328019   1.176  36.916   9.455
 7599POPC   PO428020   1.179  36.928   9.155
 7599POPC   GL128021   1.199  36.922   8.855
 7599POPC   GL228022   1.241  36.790   8.855
 7599POPC   C1A28023   1.215  36.946   8.555
 7599POPC   D2A28024   1.219  36.947   8.255
 7599POPC   C3A28025   1.176  36.936   7.955
 7599POPC   C4A28026   1.182  36.857   7.655
 7599POPC   C1B28027   1.219  36.662   8.555
 7599POPC   C2B28028   1.214  36.688   8.255
 7599POPC   C3B28029   1.160  36.673   7.955
 7599POPC   C4B28030   1.147  36.651   7.655
 7600POPC   NC328031  29.170  17.490   9.455
 7600POPC   PO428032  29.151  17.498   9.155
 7600POPC   GL128033  29.095  17.486   8.855
 7600POPC   GL228034  29.182  17.388   8.855
 7600POPC   C1A28035  29.193  17.551   8.555
 7600POPC   D2A28036  29.113  17.500   8.255
 7600POPC   C3A28037  29.117  17.523   7.955
 7600POPC   C4A28038  29.186  17.500   7.655
 7600POPC   C1B28039  29.159  17.304   8.555
 7600POPC   C2B28040  29.157  17.271   8.255
 7600POPC   C3B28041  29.177  17.215   7.955
 7600POPC   C4B28042  29.154  17.307   7.655
 7601POPC   NC328043  31.431   5.903   9.455
 7601POPC   PO428044  31.423   5.850   9.155
 7601POPC   GL128045  31.515   5.898   8.855
 7601POPC   GL228046  31.438   6.021   8.855
 7601POPC   C1A28047  31.476   5.853   8.555
 7601POPC   D2A28048  31.496   5.877   8.255
 7601POPC   C3A28049  31.433   5.872   7.955
 7601POPC   C4A28050  31.453   5.831   7.655
 7601POPC   C1B28051  31.432   6.092   8.555
 7601POPC   C2B28052  31.522   6.113   8.255
 7601POPC   C3B28053  31.474   6.105   7.955
 7601POPC   C4B28054  31.491   6.133   7.655
 7602POPC   NC328055   5.907  28.340   9.455
 7602POPC   PO428056   5.916  28.403   9.155
 7602POPC   GL128057   5.895  28.359   8.855
 7602POPC   GL228058   5.896  28.210   8.855
 7602POPC   C1A28059   5.823  28.331   8.555
 7602POPC   D2A28060   5.869  28.374   8.255
 7602POPC   C3A28061   5.915  28.408   7.955
 7602POPC   C4A28062   5.900  28.415   7.655
 7602POPC   C1B28063   5.919  28.139   8.555
 7602POPC   C2B28064   5.908  28.136   8.255
 7602POPC   C3B28065   5.978  28.155   7.955
 7602POPC   C4B28066   5.954  28.117   7.655
 7603POPC   NC328067   6.630   3.535   9.455
 7603POPC   PO428068   6.619   3.566   9.155
 7603POPC   GL128069   6.659   3.561   8.855
 7603POPC   GL228070   6.535   3.604   8.855
 7603POPC   C1A28071   6.628   3.541   8.555
 7603POPC   D2A28072   6.597   3.510   8.255
 7603POPC   C3A28073   6.618   3.531   7.955
 7603POPC   C4A28074   6.641   3.501   7.655
 7603POPC   C1B28075   6.446   3.633   8.555
 7603POPC   C2B28076   6.393   3.617   8.255
 7603POPC   C3B28077   6.362   3.606   7.955
 7603POPC   C4B28078   6.376   3.650   7.655
 7604POPC   NC328079  11.316  19.835   9.455
 7604POPC   PO428080  11.263  19.823   9.155
 7604POPC   GL128081  11.324  19.844   8.855
 7604POPC   GL228082  11.169  19.825   8.855
 7604POPC   C1A28083  11.271  19.818   8.555
 7604POPC   D2A28084  11.316  19.830   8.255
 7604POPC   C3A28085  11.328  19.843   7.955
 7604POPC   C4A28086  11.335  19.872   7.655
 7604POPC   C1B28087  11.067  19.787   8.555
 7604POPC   C2B28088  11.023  19.796   8.255
 7604POPC   C3B28089  11.044  19.740   7.955
 7604POPC   C4B28090  11.081  19.716   7.655
 7605POPC   NC328091  31.459   3.512   9.455
 7605POPC   PO428092  31.493   3.559   9.155
 7605POPC   GL128093  31.489   3.521   8.855
 7605POPC   GL228094  31.581   3.644   8.855
 7605POPC   C1A28095  31.434   3.590   8.555
 7605POPC   D2A28096  31.481   3.552   8.255
 7605POPC   C3A28097  31.501   3.580   7.955
 7605POPC   C4A28098  31.503   3.554   7.655
 7605POPC   C1B28099  31.609   3.744   8.555
 7605POPC   C2B28100  31.589   3.743   8.255
 7605POPC   C3B28101  31.560   3.761   7.955
 7605POPC   C4B28102  31.588   3.747   7.655
 7606POPC   NC328103  44.664  20.614   9.455
 7606POPC   PO428104  44.640  20.561   9.155
 7606POPC   GL128105  44.664  20.640   8.855
 7606POPC   GL228106  44.544  20.615   8.855
 7606POPC   C1A28107  44.631  20.599   8.555
 7606POPC   D2A28108  44.671  20.657   8.255
 7606POPC   C3A28109  44.635  20.615   7.955
 7606POPC   C4A28110  44.664  20.570   7.655
 7606POPC   C1B28111  44.390  20.664   8.555
 7606POPC   C2B28112  44.439  20.663   8.255
 7606POPC   C3B28113  44.412  20.698   7.955
 7606POPC   C4B28114  44.439  20.637   7.655
 7607POPC   NC328115  12.104  26.041   9.455
 7607POPC   PO428116  12.029  26.000   9.155
 7607POPC   GL128117  12.067  26.024   8.855
 7607POPC   GL228118  12.072  25.938   8.855
 7607POPC   C1A28119  12.093  26.001   8.555
 7607POPC   D2A28120  12.046  26.009   8.255
 7607POPC   C3A28121  12.089  26.042   7.955
 7607POPC   C4A28122  12.118  26.064   7.655
 7607POPC   C1B28123  12.161  25.763   8.555
 7607POPC   C2B28124  12.109  25.784   8.255
 7607POPC   C3B28125  12.095  25.775   7.955
 7607POPC   C4B28126  12.181  25.769   7.655
 7608POPC   NC328127  36.910  17.543   9.455
 7608POPC   PO428128  36.873  17.460   9.155
 7608POPC   GL128129  36.906  17.530   8.855
 7608POPC   GL228130  36.878  17.610   8.855
 7608POPC   C1A28131  36.855  17.556   8.555
 7608POPC   D2A28132  36.945  17.472   8.255
 7608POPC   C3A28133  36.950  17.515   7.955
 7608POPC   C4A28134  36.858  17.477   7.655
 7608POPC   C1B28135  36.776  17.755   8.555
 7608POPC   C2B28136  36.770  17.740   8.255
 7608POPC   C3B28137  36.811  17.677   7.955
 7608POPC   C4B28138  36.728  17.689   7.655
 7609POPC   NC328139  10.545  25.222   9.455
 7609POPC   PO428140  10.477  25.230   9.155
 7609POPC   GL128141  10.520  25.282   8.855
 7609POPC   GL228142  10.521  25.374   8.855
 7609POPC   C1A28143  10.500  25.224   8.555
 7609POPC   D2A28144  10.514  25.224   8.255
 7609POPC   C3A28145  10.535  25.303   7.955
 7609POPC   C4A28146  10.501  25.278   7.655
 7609POPC   C1B28147  10.484  25.507   8.555
 7609POPC   C2B28148  10.479  25.505   8.255
 7609POPC   C3B28149  10.466  25.552   7.955
 7609POPC   C4B28150  10.499  25.485   7.655
 7610POPC   NC328151  22.943  27.623   9.455
 7610POPC   PO428152  22.934  27.617   9.155
 7610POPC   GL128153  22.948  27.590   8.855
 7610POPC   GL228154  22.995  27.690   8.855
 7610POPC   C1A28155  22.917  27.605   8.555
 7610POPC   D2A28156  22.974  27.555   8.255
 7610POPC   C3A28157  22.946  27.587   7.955
 7610POPC   C4A28158  22.967  27.609   7.655
 7610POPC   C1B28159  23.180  27.769   8.555
 7610POPC   C2B28160  23.163  27.780   8.255
 7610POPC   C3B28161  23.118  27.753   7.955
 7610POPC   C4B28162  23.122  27.738   7.655
 7611POPC   NC328163   0.392  28.350   9.455
 7611POPC   PO428164   0.486  28.393   9.155
 7611POPC   GL128165   0.459  28.406   8.855
 7611POPC   GL228166   0.512  28.260   8.855
 7611POPC   C1A28167   0.397  28.368   8.555
 7611POPC   D2A28168   0.449  28.326   8.255
 7611POPC   C3A28169   0.416  28.401   7.955
 7611POPC   C4A28170   0.410  28.400   7.655
 7611POPC   C1B28171   0.577  28.127   8.555
 7611POPC   C2B28172   0.492  28.144   8.255
 7611POPC   C3B28173   0.545  28.136   7.955
 7611POPC   C4B28174   0.546  28.126   7.655
 7612POPC   NC328175   1.984  33.820   9.455
 7612POPC   PO428176   2.030  33.776   9.155
 7612POPC   GL128177   2.030  33.801   8.855
 7612POPC   GL228178   1.869  33.918   8.855
 7612POPC   C1A28179   2.001  33.816   8.555
 7612POPC   D2A28180   1.978  33.804   8.255
 7612POPC   C3A28181   2.005  33.754   7.955
 7612POPC   C4A28182   1.953  33.772   7.655
 7612POPC   C1B28183   1.836  33.970   8.555
 7612POPC   C2B28184   1.845  33.980   8.255
 7612POPC   C3B28185   1.759  33.925   7.955
 7612POPC   C4B28186   1.786  33.957   7.655
 7613POPC   NC328187   3.524  12.066   9.455
 7613POPC   PO428188   3.508  12.035   9.155
 7613POPC   GL128189   3.521  12.120   8.855
 7613POPC   GL228190   3.417  12.139   8.855
 7613POPC   C1A28191   3.511  12.114   8.555
 7613POPC   D2A28192   3.569  12.057   8.255
 7613POPC   C3A28193   3.503  12.045   7.955
 7613POPC   C4A28194   3.536  12.046   7.655
 7613POPC   C1B28195   3.275  12.107   8.555
 7613POPC   C2B28196   3.249  12.114   8.255
 7613POPC   C3B28197   3.287  12.090   7.955
 7613POPC   C4B28198   3.315  12.121   7.655
 7614POPC   NC328199   1.987  19.859   9.455
 7614POPC   PO428200   1.968  19.857   9.155
 7614POPC   GL128201   2.026  19.854   8.855
 7614POPC   GL228202   2.138  19.756   8.855
 7614POPC   C1A28203   1.997  19.858   8.555
 7614POPC   D2A28204   2.033  19.803   8.255
 7614POPC   C3A28205   1.992  19.793   7.955
 7614POPC   C4A28206   1.946  19.844   7.655
 7614POPC   C1B28207   2.249  19.809   8.555
 7614POPC   C2B28208   2.193  19.785   8.255
 7614POPC   C3B28209   2.243  19.783   7.955
 7614POPC   C4B28210   2.239  19.743   7.655
 7615POPC   NC328211  14.425  42.360   9.455
 7615POPC   PO428212  14.368  42.384   9.155
 7615POPC   GL128213  14.394  42.319   8.855
 7615POPC   GL228214  14.235  42.341   8.855
 7615POPC   C1A28215  14.409  42.377   8.555
 7615POPC   D2A28216  14.360  42.345   8.255
 7615POPC   C3A28217  14.420  42.305   7.955
 7615POPC   C4A28218  14.394  42.338   7.655
 7615POPC   C1B28219  14.165  42.381   8.555
 7615POPC   C2B28220  14.207  42.429   8.255
 7615POPC   C3B28221  14.165  42.371   7.955
 7615POPC   C4B28222  14.165  42.443   7.655
 7616POPC   NC328223  16.738   9.700   9.455
 7616POPC   PO428224  16.707   9.699   9.155
 7616POPC   GL128225  16.718   9.776   8.855
 7616POPC   GL228226  16.763   9.607   8.855
 7616POPC   C1A28227  16.745   9.766   8.555
 7616POPC   D2A28228  16.724   9.784   8.255
 7616POPC   C3A28229  16.706   9.703   7.955
 7616POPC   C4A28230  16.705   9.785   7.655
 7616POPC   C1B28231  16.760   9.468   8.555
 7616POPC   C2B28232  16.796   9.455   8.255
 7616POPC   C3B28233  16.796   9.455   7.955
 7616POPC   C4B28234  16.769   9.502   7.655
 7617POPC   NC328235  44.662  34.600   9.455
 7617POPC   PO428236  44.712  34.611   9.155
 7617POPC   GL128237  44.629  34.530   8.855
 7617POPC   GL228238  44.749  34.518   8.855
 7617POPC   C1A28239  44.658  34.613   8.555
 7617POPC   D2A28240  44.674  34.535   8.255
 7617POPC   C3A28241  44.711  34.591   7.955
 7617POPC   C4A28242  44.681  34.533   7.655
 7617POPC   C1B28243  44.926  34.476   8.555
 7617POPC   C2B28244  44.857  34.439   8.255
 7617POPC   C3B28245  44.909  34.459   7.955
 7617POPC   C4B28246  44.922  34.474   7.655
 7618POPC   NC328247  43.156   5.845   9.455
 7618POPC   PO428248  43.119   5.852   9.155
 7618POPC   GL128249  43.076   5.877   8.855
 7618POPC   GL228250  43.181   5.742   8.855
 7618POPC   C1A28251  43.113   5.858   8.555
 7618POPC   D2A28252  43.075   5.907   8.255
 7618POPC   C3A28253  43.134   5.908   7.955
 7618POPC   C4A28254  43.154   5.871   7.655
 7618POPC   C1B28255  43.318   5.738   8.555
 7618POPC   C2B28256  43.333   5.726   8.255
 7618POPC   C3B28257  43.265   5.724   7.955
 7618POPC   C4B28258  43.318   5.707   7.655
 7619POPC   NC328259  31.442  13.607   9.455
 7619POPC   PO428260  31.482  13.583   9.155
 7619POPC   GL128261  31.499  13.580   8.855
 7619POPC   GL228262  31.309  13.551   8.855
 7619POPC   C1A28263  31.495  13.609   8.555
 7619POPC   D2A28264  31.507  13.656   8.255
 7619POPC   C3A28265  31.463  13.592   7.955
 7619POPC   C4A28266  31.439  13.602   7.655
 7619POPC   C1B28267  31.291  13.556   8.555
 7619POPC   C2B28268  31.290  13.508   8.255
 7619POPC   C3B28269  31.247  13.488   7.955
 7619POPC   C4B28270  31.238  13.482   7.655
 7620POPC   NC328271   3.519  40.057   9.455
 7620POPC   PO428272   3.520  40.022   9.155
 7620POPC   GL128273   3.539  40.042   8.855
 7620POPC   GL228274   3.601  40.120   8.855
 7620POPC   C1A28275   3.493  39.991   8.555
 7620POPC   D2A28276   3.512  40.053   8.255
 7620POPC   C3A28277   3.589  40.029   7.955
 7620POPC   C4A28278   3.499  40.053   7.655
 7620POPC   C1B28279   3.570  40.239   8.555
 7620POPC   C2B28280   3.635  40.286   8.255
 7620POPC   C3B28281   3.584  40.300   7.955
 7620POPC   C4B28282   3.579  40.231   7.655
 7621POPC   NC328283  24.454  41.522   9.455
 7621POPC   PO428284  24.490  41.540   9.155
 7621POPC   GL128285  24.527  41.583   8.855
 7621POPC   GL228286  24.492  41.699   8.855
 7621POPC   C1A28287  24.538  41.605   8.555
 7621POPC   D2A28288  24.525  41.570   8.255
 7621POPC   C3A28289  24.510  41.547   7.955
 7621POPC   C4A28290  24.471  41.552   7.655
 7621POPC   C1B28291  24.432  41.768   8.555
 7621POPC   C2B28292  24.462  41.766   8.255
 7621POPC   C3B28293  24.491  41.818   7.955
 7621POPC   C4B28294  24.474  41.801   7.655
 7622POPC   NC328295   5.121  42.344   9.455
 7622POPC   PO428296   5.109  42.287   9.155
 7622POPC   GL128297   5.129  42.297   8.855
 7622POPC   GL228298   5.214  42.245   8.855
 7622POPC   C1A28299   5.080  42.312   8.555
 7622POPC   D2A28300   5.095  42.302   8.255
 7622POPC   C3A28301   5.115  42.318   7.955
 7622POPC   C4A28302   5.130  42.351   7.655
 7622POPC   C1B28303   5.354  42.174   8.555
 7622POPC   C2B28304   5.276  42.218   8.255
 7622POPC   C3B28305   5.296  42.242   7.955
 7622POPC   C4B28306   5.334  42.205   7.655
 7623POPC   NC328307  22.193  18.282   9.455
 7623POPC   PO428308  22.165  18.243   9.155
 7623POPC   GL128309  22.206  18.308   8.855
 7623POPC   GL228310  22.279  18.408   8.855
 7623POPC   C1A28311  22.129  18.260   8.555
 7623POPC   D2A28312  22.203  18.325   8.255
 7623POPC   C3A28313  22.160  18.264   7.955
 7623POPC   C4A28314  22.186  18.287   7.655
 7623POPC   C1B28315  22.371  18.437   8.555
 7623POPC   C2B28316  22.357  18.409   8.255
 7623POPC   C3B28317  22.316  18.440   7.955
 7623POPC   C4B28318  22.325  18.412   7.655
 7624POPC   NC328319  27.567  26.789   9.455
 7624POPC   PO428320  27.557  26.816   9.155
 7624POPC   GL128321  27.608  26.805   8.855
 7624POPC   GL228322  27.556  26.917   8.855
 7624POPC   C1A28323  27.550  26.796   8.555
 7624POPC   D2A28324  27.642  26.830   8.255
 7624POPC   C3A28325  27.598  26.812   7.955
 7624POPC   C4A28326  27.613  26.841   7.655
 7624POPC   C1B28327  27.568  27.038   8.555
 7624POPC   C2B28328  27.589  27.106   8.255
 7624POPC   C3B28329  27.614  27.025   7.955
 7624POPC   C4B28330  27.533  27.044   7.655
 7625POPC   NC328331  11.273  39.216   9.455
 7625POPC   PO428332  11.272  39.264   9.155
 7625POPC   GL128333  11.275  39.219   8.855
 7625POPC   GL228334  11.237  39.168   8.855
 7625POPC   C1A28335  11.254  39.277   8.555
 7625POPC   D2A28336  11.324  39.210   8.255
 7625POPC   C3A28337  11.278  39.232   7.955
 7625POPC   C4A28338  11.259  39.274   7.655
 7625POPC   C1B28339  11.042  39.111   8.555
 7625POPC   C2B28340  11.077  39.143   8.255
 7625POPC   C3B28341  11.036  39.115   7.955
 7625POPC   C4B28342  11.072  39.062   7.655
 7626POPC   NC328343  27.557  25.258   9.455
 7626POPC   PO428344  27.568  25.252   9.155
 7626POPC   GL128345  27.560  25.279   8.855
 7626POPC   GL228346  27.647  25.158   8.855
 7626POPC   C1A28347  27.597  25.230   8.555
 7626POPC   D2A28348  27.570  25.312   8.255
 7626POPC   C3A28349  27.607  25.270   7.955
 7626POPC   C4A28350  27.603  25.219   7.655
 7626POPC   C1B28351  27.666  25.080   8.555
 7626POPC   C2B28352  27.734  25.050   8.255
 7626POPC   C3B28353  27.698  25.065   7.955
 7626POPC   C4B28354  27.664  25.017   7.655
 7627POPC   NC328355  27.550  19.883   9.455
 7627POPC   PO428356  27.614  19.878   9.155
 7627POPC   GL128357  27.634  19.841   8.855
 7627POPC   GL228358  27.600  19.944   8.855
 7627POPC   C1A28359  27.551  19.873   8.555
 7627POPC   D2A28360  27.574  19.820   8.255
 7627POPC   C3A28361  27.637  19.859   7.955
 7627POPC   C4A28362  27.621  19.791   7.655
 7627POPC   C1B28363  27.543  20.035   8.555
 7627POPC   C2B28364  27.580  20.092   8.255
 7627POPC   C3B28365  27.533  20.044   7.955
 7627POPC   C4B28366  27.535  20.105   7.655
 7628POPC   NC328367  31.466   0.469   9.455
 7628POPC   PO428368  31.472   0.390   9.155
 7628POPC   GL128369  31.478   0.463   8.855
 7628POPC   GL228370  31.427   0.537   8.855
 7628POPC   C1A28371  31.475   0.403   8.555
 7628POPC   D2A28372  31.510   0.431   8.255
 7628POPC   C3A28373  31.495   0.464   7.955
 7628POPC   C4A28374  31.448   0.412   7.655
 7628POPC   C1B28375  31.345   0.609   8.555
 7628POPC   C2B28376  31.283   0.687   8.255
 7628POPC   C3B28377  31.333   0.616   7.955
 7628POPC   C4B28378  31.324   0.637   7.655
 7629POPC   NC328379  23.675  16.753   9.455
 7629POPC   PO428380  23.742  16.719   9.155
 7629POPC   GL128381  23.733  16.718   8.855
 7629POPC   GL228382  23.753  16.572   8.855
 7629POPC   C1A28383  23.681  16.772   8.555
 7629POPC   D2A28384  23.700  16.773   8.255
 7629POPC   C3A28385  23.761  16.688   7.955
 7629POPC   C4A28386  23.667  16.738   7.655
 7629POPC   C1B28387  23.785  16.508   8.555
 7629POPC   C2B28388  23.745  16.511   8.255
 7629POPC   C3B28389  23.784  16.484   7.955
 7629POPC   C4B28390  23.806  16.511   7.655
 7630POPC   NC328391   6.673  15.959   9.455
 7630POPC   PO428392   6.640  15.973   9.155
 7630POPC   GL128393   6.616  15.927   8.855
 7630POPC   GL228394   6.520  15.967   8.855
 7630POPC   C1A28395   6.600  15.990   8.555
 7630POPC   D2A28396   6.675  16.005   8.255
 7630POPC   C3A28397   6.610  15.993   7.955
 7630POPC   C4A28398   6.620  15.957   7.655
 7630POPC   C1B28399   6.431  15.922   8.555
 7630POPC   C2B28400   6.429  15.945   8.255
 7630POPC   C3B28401   6.422  15.958   7.955
 7630POPC   C4B28402   6.417  15.948   7.655
 7631POPC   NC328403  28.390   2.729   9.455
 7631POPC   PO428404  28.355   2.737   9.155
 7631POPC   GL128405  28.357   2.750   8.855
 7631POPC   GL228406  28.383   2.634   8.855
 7631POPC   C1A28407  28.410   2.801   8.555
 7631POPC   D2A28408  28.341   2.724   8.255
 7631POPC   C3A28409  28.332   2.774   7.955
 7631POPC   C4A28410  28.403   2.771   7.655
 7631POPC   C1B28411  28.392   2.564   8.555
 7631POPC   C2B28412  28.338   2.565   8.255
 7631POPC   C3B28413  28.371   2.470   7.955
 7631POPC   C4B28414  28.412   2.508   7.655
 7632POPC   NC328415  31.478  20.639   9.455
 7632POPC   PO428416  31.513  20.596   9.155
 7632POPC   GL128417  31.437  20.596   8.855
 7632POPC   GL228418  31.381  20.698   8.855
 7632POPC   C1A28419  31.502  20.655   8.555
 7632POPC   D2A28420  31.428  20.585   8.255
 7632POPC   C3A28421  31.479  20.567   7.955
 7632POPC   C4A28422  31.493  20.593   7.655
 7632POPC   C1B28423  31.342  20.848   8.555
 7632POPC   C2B28424  31.374  20.871   8.255
 7632POPC   C3B28425  31.329  20.814   7.955
 7632POPC   C4B28426  31.389  20.850   7.655
 7633POPC   NC328427  15.137  33.032   9.455
 7633POPC   PO428428  15.219  33.006   9.155
 7633POPC   GL128429  15.166  33.015   8.855
 7633POPC   GL228430  15.278  32.902   8.855
 7633POPC   C1A28431  15.182  33.042   8.555
 7633POPC   D2A28432  15.226  32.989   8.255
 7633POPC   C3A28433  15.205  33.020   7.955
 7633POPC   C4A28434  15.144  32.995   7.655
 7633POPC   C1B28435  15.357  32.848   8.555
 7633POPC   C2B28436  15.393  32.903   8.255
 7633POPC   C3B28437  15.370  32.837   7.955
 7633POPC   C4B28438  15.371  32.820   7.655
 7634POPC   NC328439  24.447  40.013   9.455
 7634POPC   PO428440  24.517  39.987   9.155
 7634POPC   GL128441  24.465  40.050   8.855
 7634POPC   GL228442  24.350  40.130   8.855
 7634POPC   C1A28443  24.530  40.020   8.555
 7634POPC   D2A28444  24.475  39.982   8.255
 7634POPC   C3A28445  24.513  40.013   7.955
 7634POPC   C4A28446  24.455  40.004   7.655
 7634POPC   C1B28447  24.258  40.203   8.555
 7634POPC   C2B28448  24.261  40.128   8.255
 7634POPC   C3B28449  24.270  40.202   7.955
 7634POPC   C4B28450  24.307  40.218   7.655
 7635POPC   NC328451  37.652   1.177   9.455
 7635POPC   PO428452  37.631   1.256   9.155
 7635POPC   GL128453  37.660   1.173   8.855
 7635POPC   GL228454  37.850   1.192   8.855
 7635POPC   C1A28455  37.675   1.191   8.555
 7635POPC   D2A28456  37.704   1.188   8.255
 7635POPC   C3A28457  37.677   1.251   7.955
 7635POPC   C4A28458  37.662   1.242   7.655
 7635POPC   C1B28459  37.971   1.199   8.555
 7635POPC   C2B28460  37.970   1.200   8.255
 7635POPC   C3B28461  37.947   1.188   7.955
 7635POPC   C4B28462  37.908   1.171   7.655
 7636POPC   NC328463  24.452  22.917   9.455
 7636POPC   PO428464  24.490  22.906   9.155
 7636POPC   GL128465  24.464  22.912   8.855
 7636POPC   GL228466  24.377  22.895   8.855
 7636POPC   C1A28467  24.524  22.956   8.555
 7636POPC   D2A28468  24.496  22.950   8.255
 7636POPC   C3A28469  24.479  22.908   7.955
 7636POPC   C4A28470  24.440  22.938   7.655
 7636POPC   C1B28471  24.286  22.892   8.555
 7636POPC   C2B28472  24.227  22.838   8.255
 7636POPC   C3B28473  24.214  22.893   7.955
 7636POPC   C4B28474  24.259  22.864   7.655
 7637POPC   NC328475  22.143  13.636   9.455
 7637POPC   PO428476  22.131  13.610   9.155
 7637POPC   GL128477  22.202  13.596   8.855
 7637POPC   GL228478  22.043  13.519   8.855
 7637POPC   C1A28479  22.212  13.667   8.555
 7637POPC   D2A28480  22.185  13.598   8.255
 7637POPC   C3A28481  22.184  13.586   7.955
 7637POPC   C4A28482  22.141  13.592   7.655
 7637POPC   C1B28483  21.962  13.454   8.555
 7637POPC   C2B28484  21.966  13.416   8.255
 7637POPC   C3B28485  21.959  13.430   7.955
 7637POPC   C4B28486  21.946  13.443   7.655
 7638POPC   NC328487  29.099  43.875   9.455
 7638POPC   PO428488  29.131  43.902   9.155
 7638POPC   GL128489  29.167  43.860   8.855
 7638POPC   GL228490  29.084  43.762   8.855
 7638POPC   C1A28491  29.104  43.892   8.555
 7638POPC   D2A28492  29.116  43.867   8.255
 7638POPC   C3A28493  29.190  43.887   7.955
 7638POPC   C4A28494  29.161  43.894   7.655
 7638POPC   C1B28495  29.095  43.653   8.555
 7638POPC   C2B28496  29.103  43.677   8.255
 7638POPC   C3B28497  29.124  43.662   7.955
 7638POPC   C4B28498  29.142  43.620   7.655
 7639POPC   NC328499  36.157  30.720   9.455
 7639POPC   PO428500  36.101  30.726   9.155
 7639POPC   GL128501  36.131  30.666   8.855
 7639POPC   GL228502  36.261  30.715   8.855
 7639POPC   C1A28503  36.085  30.689   8.555
 7639POPC   D2A28504  36.139  30.702   8.255
 7639POPC   C3A28505  36.169  30.688   7.955
 7639POPC   C4A28506  36.110  30.677   7.655
 7639POPC   C1B28507  36.385  30.788   8.555
 7639POPC   C2B28508  36.319  30.756   8.255
 7639POPC   C3B28509  36.357  30.759   7.955
 7639POPC   C4B28510  36.345  30.764   7.655
 7640POPC   NC328511   2.031  27.544   9.455
 7640POPC   PO428512   1.983  27.634   9.155
 7640POPC   GL128513   1.958  27.549   8.855
 7640POPC   GL228514   1.835  27.557   8.855
 7640POPC   C1A28515   2.025  27.596   8.555
 7640POPC   D2A28516   1.989  27.615   8.255
 7640POPC   C3A28517   2.036  27.558   7.955
 7640POPC   C4A28518   2.030  27.602   7.655
 7640POPC   C1B28519   1.751  27.525   8.555
 7640POPC   C2B28520   1.807  27.479   8.255
 7640POPC   C3B28521   1.716  27.484   7.955
 7640POPC   C4B28522   1.810  27.454   7.655
 7641POPC   NC328523  15.945  39.183   9.455
 7641POPC   PO428524  15.919  39.206   9.155
 7641POPC   GL128525  15.952  39.210   8.855
 7641POPC   GL228526  16.029  39.183   8.855
 7641POPC   C1A28527  15.992  39.218   8.555
 7641POPC   D2A28528  15.916  39.275   8.255
 7641POPC   C3A28529  15.914  39.259   7.955
 7641POPC   C4A28530  15.981  39.243   7.655
 7641POPC   C1B28531  16.178  39.105   8.555
 7641POPC   C2B28532  16.112  39.118   8.255
 7641POPC   C3B28533  16.117  39.064   7.955
 7641POPC   C4B28534  16.174  39.076   7.655
 7642POPC   NC328535   1.170  33.815   9.455
 7642POPC   PO428536   1.260  33.758   9.155
 7642POPC   GL128537   1.185  33.778   8.855
 7642POPC   GL228538   1.289  33.866   8.855
 7642POPC   C1A28539   1.250  33.841   8.555
 7642POPC   D2A28540   1.176  33.792   8.255
 7642POPC   C3A28541   1.180  33.848   7.955
 7642POPC   C4A28542   1.172  33.753   7.655
 7642POPC   C1B28543   1.435  33.933   8.555
 7642POPC   C2B28544   1.449  33.897   8.255
 7642POPC   C3B28545   1.443  33.903   7.955
 7642POPC   C4B28546   1.473  33.915   7.655
 7643POPC   NC328547  29.961  12.827   9.455
 7643POPC   PO428548  29.896  12.885   9.155
 7643POPC   GL128549  29.912  12.867   8.855
 7643POPC   GL228550  30.001  12.794   8.855
 7643POPC   C1A28551  29.897  12.879   8.555
 7643POPC   D2A28552  29.889  12.892   8.255
 7643POPC   C3A28553  29.935  12.869   7.955
 7643POPC   C4A28554  29.956  12.901   7.655
 7643POPC   C1B28555  30.139  12.757   8.555
 7643POPC   C2B28556  30.193  12.749   8.255
 7643POPC   C3B28557  30.145  12.725   7.955
 7643POPC   C4B28558  30.142  12.751   7.655
 7644POPC   NC328559  11.320   2.735   9.455
 7644POPC   PO428560  11.338   2.806   9.155
 7644POPC   GL128561  11.335   2.797   8.855
 7644POPC   GL228562  11.377   2.788   8.855
 7644POPC   C1A28563  11.311   2.809   8.555
 7644POPC   D2A28564  11.264   2.807   8.255
 7644POPC   C3A28565  11.271   2.718   7.955
 7644POPC   C4A28566  11.329   2.792   7.655
 7644POPC   C1B28567  11.594   2.754   8.555
 7644POPC   C2B28568  11.567   2.772   8.255
 7644POPC   C3B28569  11.564   2.723   7.955
 7644POPC   C4B28570  11.579   2.719   7.655
 7645POPC   NC328571  36.907   4.336   9.455
 7645POPC   PO428572  36.923   4.347   9.155
 7645POPC   GL128573  36.944   4.346   8.855
 7645POPC   GL228574  36.811   4.185   8.855
 7645POPC   C1A28575  36.925   4.318   8.555
 7645POPC   D2A28576  36.908   4.302   8.255
 7645POPC   C3A28577  36.907   4.332   7.955
 7645POPC   C4A28578  36.890   4.365   7.655
 7645POPC   C1B28579  36.736   4.196   8.555
 7645POPC   C2B28580  36.736   4.142   8.255
 7645POPC   C3B28581  36.690   4.147   7.955
 7645POPC   C4B28582  36.754   4.120   7.655
 7646POPC   NC328583   9.733  23.707   9.455
 7646POPC   PO428584   9.727  23.706   9.155
 7646POPC   GL128585   9.756  23.740   8.855
 7646POPC   GL228586   9.584  23.753   8.855
 7646POPC   C1A28587   9.781  23.671   8.555
 7646POPC   D2A28588   9.787  23.723   8.255
 7646POPC   C3A28589   9.729  23.705   7.955
 7646POPC   C4A28590   9.735  23.723   7.655
 7646POPC   C1B28591   9.512  23.699   8.555
 7646POPC   C2B28592   9.507  23.689   8.255
 7646POPC   C3B28593   9.492  23.749   7.955
 7646POPC   C4B28594   9.518  23.696   7.655
 7647POPC   NC328595  31.492   8.985   9.455
 7647POPC   PO428596  31.508   8.995   9.155
 7647POPC   GL128597  31.425   9.010   8.855
 7647POPC   GL228598  31.409   9.075   8.855
 7647POPC   C1A28599  31.480   8.962   8.555
 7647POPC   D2A28600  31.506   9.007   8.255
 7647POPC   C3A28601  31.501   8.947   7.955
 7647POPC   C4A28602  31.484   8.927   7.655
 7647POPC   C1B28603  31.286   9.161   8.555
 7647POPC   C2B28604  31.299   9.171   8.255
 7647POPC   C3B28605  31.328   9.133   7.955
 7647POPC   C4B28606  31.268   9.102   7.655
 7648POPC   NC328607   1.961  29.960   9.455
 7648POPC   PO428608   1.983  29.919   9.155
 7648POPC   GL128609   1.997  29.917   8.855
 7648POPC   GL228610   1.985  29.810   8.855
 7648POPC   C1A28611   1.987  29.962   8.555
 7648POPC   D2A28612   1.970  29.907   8.255
 7648POPC   C3A28613   1.944  29.886   7.955
 7648POPC   C4A28614   1.965  29.930   7.655
 7648POPC   C1B28615   1.872  29.727   8.555
 7648POPC   C2B28616   1.912  29.702   8.255
 7648POPC   C3B28617   1.905  29.666   7.955
 7648POPC   C4B28618   1.926  29.720   7.655
 7649POPC   NC328619  22.897  12.107   9.455
 7649POPC   PO428620  22.901  12.120   9.155
 7649POPC   GL128621  22.941  12.039   8.855
 7649POPC   GL228622  22.949  11.981   8.855
 7649POPC   C1A28623  22.978  12.028   8.555
 7649POPC   D2A28624  22.962  12.064   8.255
 7649POPC   C3A28625  22.935  12.053   7.955
 7649POPC   C4A28626  22.979  12.070   7.655
 7649POPC   C1B28627  23.019  11.874   8.555
 7649POPC   C2B28628  23.023  11.881   8.255
 7649POPC   C3B28629  23.072  11.818   7.955
 7649POPC   C4B28630  23.058  11.819   7.655
 7650POPC   NC328631   1.943  31.484   9.455
 7650POPC   PO428632   1.944  31.449   9.155
 7650POPC   GL128633   1.958  31.521   8.855
 7650POPC   GL228634   2.097  31.555   8.855
 7650POPC   C1A28635   2.036  31.508   8.555
 7650POPC   D2A28636   2.022  31.491   8.255
 7650POPC   C3A28637   1.987  31.498   7.955
 7650POPC   C4A28638   1.957  31.457   7.655
 7650POPC   C1B28639   2.184  31.656   8.555
 7650POPC   C2B28640   2.158  31.679   8.255
 7650POPC   C3B28641   2.199  31.622   7.955
 7650POPC   C4B28642   2.108  31.682   7.655
 7651POPC   NC328643  19.062   5.094   9.455
 7651POPC   PO428644  19.080   5.107   9.155
 7651POPC   GL128645  19.080   5.102   8.855
 7651POPC   GL228646  19.032   5.180   8.855
 7651POPC   C1A28647  19.037   5.123   8.555
 7651POPC   D2A28648  19.108   5.133   8.255
 7651POPC   C3A28649  19.106   5.057   7.955
 7651POPC   C4A28650  19.070   5.126   7.655
 7651POPC   C1B28651  19.002   5.309   8.555
 7651POPC   C2B28652  19.027   5.311   8.255
 7651POPC   C3B28653  19.050   5.312   7.955
 7651POPC   C4B28654  19.014   5.304   7.655
 7652POPC   NC328655   3.506  36.952   9.455
 7652POPC   PO428656   3.555  36.896   9.155
 7652POPC   GL128657   3.576  36.928   8.855
 7652POPC   GL228658   3.664  36.981   8.855
 7652POPC   C1A28659   3.557  36.929   8.555
 7652POPC   D2A28660   3.505  36.949   8.255
 7652POPC   C3A28661   3.542  36.928   7.955
 7652POPC   C4A28662   3.556  36.887   7.655
 7652POPC   C1B28663   3.700  37.032   8.555
 7652POPC   C2B28664   3.697  37.084   8.255
 7652POPC   C3B28665   3.714  37.083   7.955
 7652POPC   C4B28666   3.739  37.032   7.655
 7653POPC   NC328667  19.867  43.138   9.455
 7653POPC   PO428668  19.856  43.076   9.155
 7653POPC   GL128669  19.858  43.133   8.855
 7653POPC   GL228670  19.715  43.037   8.855
 7653POPC   C1A28671  19.860  43.125   8.555
 7653POPC   D2A28672  19.853  43.129   8.255
 7653POPC   C3A28673  19.834  43.105   7.955
 7653POPC   C4A28674  19.818  43.071   7.655
 7653POPC   C1B28675  19.584  43.063   8.555
 7653POPC   C2B28676  19.551  42.987   8.255
 7653POPC   C3B28677  19.548  43.007   7.955
 7653POPC   C4B28678  19.577  43.041   7.655
 7654POPC   NC328679   8.984   5.862   9.455
 7654POPC   PO428680   8.948   5.873   9.155
 7654POPC   GL128681   8.929   5.852   8.855
 7654POPC   GL228682   8.920   5.760   8.855
 7654POPC   C1A28683   8.997   5.874   8.555
 7654POPC   D2A28684   8.962   5.903   8.255
 7654POPC   C3A28685   8.995   5.824   7.955
 7654POPC   C4A28686   9.013   5.911   7.655
 7654POPC   C1B28687   8.945   5.581   8.555
 7654POPC   C2B28688   9.002   5.649   8.255
 7654POPC   C3B28689   8.914   5.592   7.955
 7654POPC   C4B28690   8.918   5.583   7.655
 7655POPC   NC328691   2.771  37.632   9.455
 7655POPC   PO428692   2.780  37.675   9.155
 7655POPC   GL128693   2.788  37.653   8.855
 7655POPC   GL228694   2.630  37.632   8.855
 7655POPC   C1A28695   2.792  37.637   8.555
 7655POPC   D2A28696   2.764  37.648   8.255
 7655POPC   C3A28697   2.789  37.673   7.955
 7655POPC   C4A28698   2.760  37.683   7.655
 7655POPC   C1B28699   2.584  37.615   8.555
 7655POPC   C2B28700   2.570  37.599   8.255
 7655POPC   C3B28701   2.538  37.602   7.955
 7655POPC   C4B28702   2.546  37.597   7.655
 7656POPC   NC328703  26.769  36.172   9.455
 7656POPC   PO428704  26.807  36.132   9.155
 7656POPC   GL128705  26.792  36.158   8.855
 7656POPC   GL228706  26.804  36.215   8.855
 7656POPC   C1A28707  26.851  36.107   8.555
 7656POPC   D2A28708  26.794  36.124   8.255
 7656POPC   C3A28709  26.767  36.093   7.955
 7656POPC   C4A28710  26.817  36.147   7.655
 7656POPC   C1B28711  26.801  36.349   8.555
 7656POPC   C2B28712  26.791  36.382   8.255
 7656POPC   C3B28713  26.737  36.422   7.955
 7656POPC   C4B28714  26.791  36.344   7.655
 7657POPC   NC328715   4.282  18.330   9.455
 7657POPC   PO428716   4.334  18.241   9.155
 7657POPC   GL128717   4.336  18.275   8.855
 7657POPC   GL228718   4.299  18.436   8.855
 7657POPC   C1A28719   4.342  18.266   8.555
 7657POPC   D2A28720   4.297  18.290   8.255
 7657POPC   C3A28721   4.307  18.244   7.955
 7657POPC   C4A28722   4.309  18.302   7.655
 7657POPC   C1B28723   4.142  18.538   8.555
 7657POPC   C2B28724   4.196  18.464   8.255
 7657POPC   C3B28725   4.147  18.451   7.955
 7657POPC   C4B28726   4.158  18.475   7.655
 7658POPC   NC328727  15.201  40.767   9.455
 7658POPC   PO428728  15.200  40.753   9.155
 7658POPC   GL128729  15.154  40.799   8.855
 7658POPC   GL228730  15.018  40.823   8.855
 7658POPC   C1A28731  15.190  40.802   8.555
 7658POPC   D2A28732  15.208  40.747   8.255
 7658POPC   C3A28733  15.180  40.798   7.955
 7658POPC   C4A28734  15.212  40.761   7.655
 7658POPC   C1B28735  14.939  40.734   8.555
 7658POPC   C2B28736  14.883  40.805   8.255
 7658POPC   C3B28737  14.929  40.811   7.955
 7658POPC   C4B28738  14.971  40.731   7.655
 7659POPC   NC328739  43.934   7.469   9.455
 7659POPC   PO428740  43.901   7.455   9.155
 7659POPC   GL128741  43.919   7.454   8.855
 7659POPC   GL228742  43.822   7.539   8.855
 7659POPC   C1A28743  43.896   7.409   8.555
 7659POPC   D2A28744  43.886   7.464   8.255
 7659POPC   C3A28745  43.891   7.387   7.955
 7659POPC   C4A28746  43.911   7.379   7.655
 7659POPC   C1B28747  43.761   7.598   8.555
 7659POPC   C2B28748  43.768   7.640   8.255
 7659POPC   C3B28749  43.701   7.633   7.955
 7659POPC   C4B28750  43.778   7.652   7.655
 7660POPC   NC328751  23.690  26.064   9.455
 7660POPC   PO428752  23.761  26.062   9.155
 7660POPC   GL128753  23.703  26.086   8.855
 7660POPC   GL228754  23.651  25.924   8.855
 7660POPC   C1A28755  23.705  25.995   8.555
 7660POPC   D2A28756  23.699  26.026   8.255
 7660POPC   C3A28757  23.736  26.061   7.955
 7660POPC   C4A28758  23.697  26.021   7.655
 7660POPC   C1B28759  23.542  25.836   8.555
 7660POPC   C2B28760  23.605  25.800   8.255
 7660POPC   C3B28761  23.606  25.807   7.955
 7660POPC   C4B28762  23.607  25.790   7.655
 7661POPC   NC328763  12.118  24.481   9.455
 7661POPC   PO428764  12.118  24.492   9.155
 7661POPC   GL128765  12.107  24.508   8.855
 7661POPC   GL228766  11.994  24.505   8.855
 7661POPC   C1A28767  12.032  24.451   8.555
 7661POPC   D2A28768  12.126  24.476   8.255
 7661POPC   C3A28769  12.079  24.442   7.955
 7661POPC   C4A28770  12.100  24.469   7.655
 7661POPC   C1B28771  11.791  24.417   8.555
 7661POPC   C2B28772  11.835  24.483   8.255
 7661POPC   C3B28773  11.782  24.472   7.955
 7661POPC   C4B28774  11.807  24.423   7.655
 7662POPC   NC328775  32.266  44.651   9.455
 7662POPC   PO428776  32.203  44.631   9.155
 7662POPC   GL128777  32.220  44.680   8.855
 7662POPC   GL228778  32.245  44.772   8.855
 7662POPC   C1A28779  32.201  44.634   8.555
 7662POPC   D2A28780  32.214  44.653   8.255
 7662POPC   C3A28781  32.217  44.664   7.955
 7662POPC   C4A28782  32.267  44.629   7.655
 7662POPC   C1B28783  32.231  44.932   8.555
 7662POPC   C2B28784  32.310  44.886   8.255
 7662POPC   C3B28785  32.278  44.958   7.955
 7662POPC   C4B28786  32.270  44.927   7.655
 7663POPC   NC328787  32.233   5.063   9.455
 7663POPC   PO428788  32.247   5.084   9.155
 7663POPC   GL128789  32.286   5.106   8.855
 7663POPC   GL228790  32.160   5.118   8.855
 7663POPC   C1A28791  32.281   5.106   8.555
 7663POPC   D2A28792  32.209   5.124   8.255
 7663POPC   C3A28793  32.264   5.109   7.955
 7663POPC   C4A28794  32.254   5.066   7.655
 7663POPC   C1B28795  32.045   5.168   8.555
 7663POPC   C2B28796  31.983   5.191   8.255
 7663POPC   C3B28797  32.033   5.213   7.955
 7663POPC   C4B28798  32.058   5.174   7.655
 7664POPC   NC328799  21.425  33.012   9.455
 7664POPC   PO428800  21.407  33.032   9.155
 7664POPC   GL128801  21.348  33.062   8.855
 7664POPC   GL228802  21.285  33.087   8.855
 7664POPC   C1A28803  21.428  32.992   8.555
 7664POPC   D2A28804  21.379  33.036   8.255
 7664POPC   C3A28805  21.365  32.974   7.955
 7664POPC   C4A28806  21.392  32.989   7.655
 7664POPC   C1B28807  21.302  33.233   8.555
 7664POPC   C2B28808  21.235  33.247   8.255
 7664POPC   C3B28809  21.266  33.257   7.955
 7664POPC   C4B28810  21.249  33.225   7.655
 7665POPC   NC328811  41.512  16.725   9.455
 7665POPC   PO428812  41.582  16.712   9.155
 7665POPC   GL128813  41.520  16.705   8.855
 7665POPC   GL228814  41.685  16.614   8.855
 7665POPC   C1A28815  41.535  16.763   8.555
 7665POPC   D2A28816  41.587  16.748   8.255
 7665POPC   C3A28817  41.564  16.712   7.955
 7665POPC   C4A28818  41.602  16.700   7.655
 7665POPC   C1B28819  41.725  16.591   8.555
 7665POPC   C2B28820  41.749  16.540   8.255
 7665POPC   C3B28821  41.795  16.535   7.955
 7665POPC   C4B28822  41.790  16.546   7.655
 7666POPC   NC328823  36.907  27.616   9.455
 7666POPC   PO428824  36.934  27.548   9.155
 7666POPC   GL128825  36.930  27.587   8.855
 7666POPC   GL228826  36.848  27.755   8.855
 7666POPC   C1A28827  36.858  27.641   8.555
 7666POPC   D2A28828  36.861  27.560   8.255
 7666POPC   C3A28829  36.949  27.621   7.955
 7666POPC   C4A28830  36.887  27.637   7.655
 7666POPC   C1B28831  36.771  27.805   8.555
 7666POPC   C2B28832  36.774  27.830   8.255
 7666POPC   C3B28833  36.815  27.816   7.955
 7666POPC   C4B28834  36.846  27.858   7.655
 7667POPC   NC328835  41.571  23.736   9.455
 7667POPC   PO428836  41.597  23.739   9.155
 7667POPC   GL128837  41.601  23.734   8.855
 7667POPC   GL228838  41.584  23.618   8.855
 7667POPC   C1A28839  41.580  23.670   8.555
 7667POPC   D2A28840  41.520  23.704   8.255
 7667POPC   C3A28841  41.595  23.701   7.955
 7667POPC   C4A28842  41.515  23.668   7.655
 7667POPC   C1B28843  41.599  23.476   8.555
 7667POPC   C2B28844  41.674  23.511   8.255
 7667POPC   C3B28845  41.655  23.513   7.955
 7667POPC   C4B28846  41.677  23.507   7.655
 7668POPC   NC328847  22.902   5.075   9.455
 7668POPC   PO428848  22.892   5.115   9.155
 7668POPC   GL128849  22.963   5.053   8.855
 7668POPC   GL228850  23.053   4.990   8.855
 7668POPC   C1A28851  22.894   5.049   8.555
 7668POPC   D2A28852  22.917   5.123   8.255
 7668POPC   C3A28853  22.917   5.086   7.955
 7668POPC   C4A28854  22.967   5.108   7.655
 7668POPC   C1B28855  23.071   4.916   8.555
 7668POPC   C2B28856  23.102   4.878   8.255
 7668POPC   C3B28857  23.126   4.935   7.955
 7668POPC   C4B28858  23.115   4.868   7.655
 7669POPC   NC328859  24.452  22.171   9.455
 7669POPC   PO428860  24.508  22.164   9.155
 7669POPC   GL128861  24.534  22.211   8.855
 7669POPC   GL228862  24.596  22.233   8.855
 7669POPC   C1A28863  24.459  22.189   8.555
 7669POPC   D2A28864  24.469  22.198   8.255
 7669POPC   C3A28865  24.512  22.185   7.955
 7669POPC   C4A28866  24.479  22.177   7.655
 7669POPC   C1B28867  24.666  22.265   8.555
 7669POPC   C2B28868  24.668  22.242   8.255
 7669POPC   C3B28869  24.746  22.305   7.955
 7669POPC   C4B28870  24.738  22.300   7.655
 7670POPC   NC328871   5.062  26.043   9.455
 7670POPC   PO428872   5.095  26.063   9.155
 7670POPC   GL128873   5.070  26.048   8.855
 7670POPC   GL228874   5.008  26.003   8.855
 7670POPC   C1A28875   5.093  26.028   8.555
 7670POPC   D2A28876   5.137  26.004   8.255
 7670POPC   C3A28877   5.120  25.995   7.955
 7670POPC   C4A28878   5.121  26.082   7.655
 7670POPC   C1B28879   4.894  25.917   8.555
 7670POPC   C2B28880   4.864  25.955   8.255
 7670POPC   C3B28881   4.827  25.871   7.955
 7670POPC   C4B28882   4.850  25.882   7.655
 7671POPC   NC328883   5.827  40.766   9.455
 7671POPC   PO428884   5.823  40.810   9.155
 7671POPC   GL128885   5.852  40.789   8.855
 7671POPC   GL228886   5.799  40.845   8.855
 7671POPC   C1A28887   5.822  40.799   8.555
 7671POPC   D2A28888   5.867  40.786   8.255
 7671POPC   C3A28889   5.918  40.756   7.955
 7671POPC   C4A28890   5.824  40.775   7.655
 7671POPC   C1B28891   5.646  40.925   8.555
 7671POPC   C2B28892   5.637  40.890   8.255
 7671POPC   C3B28893   5.685  40.899   7.955
 7671POPC   C4B28894   5.621  40.919   7.655
 7672POPC   NC328895   0.452  32.225   9.455
 7672POPC   PO428896   0.487  32.282   9.155
 7672POPC   GL128897   0.474  32.199   8.855
 7672POPC   GL228898   0.413  32.317   8.855
 7672POPC   C1A28899   0.465  32.218   8.555
 7672POPC   D2A28900   0.391  32.261   8.255
 7672POPC   C3A28901   0.462  32.233   7.955
 7672POPC   C4A28902   0.395  32.267   7.655
 7672POPC   C1B28903   0.337  32.423   8.555
 7672POPC   C2B28904   0.281  32.445   8.255
 7672POPC   C3B28905   0.329  32.469   7.955
 7672POPC   C4B28906   0.291  32.426   7.655
 7673POPC   NC328907  15.143  44.711   9.455
 7673POPC   PO428908  15.198  44.627   9.155
 7673POPC   GL128909  15.202  44.701   8.855
 7673POPC   GL228910  15.093  44.685   8.855
 7673POPC   C1A28911  15.154  44.659   8.555
 7673POPC   D2A28912  15.141  44.684   8.255
 7673POPC   C3A28913  15.162  44.695   7.955
 7673POPC   C4A28914  15.227  44.620   7.655
 7673POPC   C1B28915  14.911  44.628   8.555
 7673POPC   C2B28916  14.883  44.596   8.255
 7673POPC   C3B28917  14.930  44.610   7.955
 7673POPC   C4B28918  14.973  44.638   7.655
 7674POPC   NC328919   2.717  24.487   9.455
 7674POPC   PO428920   2.718  24.483   9.155
 7674POPC   GL128921   2.719  24.505   8.855
 7674POPC   GL228922   2.634  24.414   8.855
 7674POPC   C1A28923   2.729  24.483   8.555
 7674POPC   D2A28924   2.790  24.506   8.255
 7674POPC   C3A28925   2.737  24.444   7.955
 7674POPC   C4A28926   2.771  24.475   7.655
 7674POPC   C1B28927   2.516  24.375   8.555
 7674POPC   C2B28928   2.573  24.394   8.255
 7674POPC   C3B28929   2.495  24.425   7.955
 7674POPC   C4B28930   2.581  24.390   7.655
 7675POPC   NC328931  29.894   5.079   9.455
 7675POPC   PO428932  29.877   5.139   9.155
 7675POPC   GL128933  29.969   5.135   8.855
 7675POPC   GL228934  29.786   5.183   8.855
 7675POPC   C1A28935  29.959   5.051   8.555
 7675POPC   D2A28936  29.966   5.063   8.255
 7675POPC   C3A28937  29.961   5.122   7.955
 7675POPC   C4A28938  29.873   5.128   7.655
 7675POPC   C1B28939  29.724   5.255   8.555
 7675POPC   C2B28940  29.728   5.284   8.255
 7675POPC   C3B28941  29.762   5.276   7.955
 7675POPC   C4B28942  29.773   5.222   7.655
 7676POPC   NC328943  19.881  44.709   9.455
 7676POPC   PO428944  19.791  44.678   9.155
 7676POPC   GL128945  19.850  44.664   8.855
 7676POPC   GL228946  19.723  44.742   8.855
 7676POPC   C1A28947  19.860  44.640   8.555
 7676POPC   D2A28948  19.854  44.704   8.255
 7676POPC   C3A28949  19.803  44.686   7.955
 7676POPC   C4A28950  19.818  44.631   7.655
 7676POPC   C1B28951  19.734  44.858   8.555
 7676POPC   C2B28952  19.694  44.835   8.255
 7676POPC   C3B28953  19.696  44.910   7.955
 7676POPC   C4B28954  19.679  44.889   7.655
 7677POPC   NC328955  21.374   5.131   9.455
 7677POPC   PO428956  21.402   5.085   9.155
 7677POPC   GL128957  21.349   5.111   8.855
 7677POPC   GL228958  21.437   4.959   8.855
 7677POPC   C1A28959  21.376   5.071   8.555
 7677POPC   D2A28960  21.366   5.091   8.255
 7677POPC   C3A28961  21.411   5.078   7.955
 7677POPC   C4A28962  21.428   5.110   7.655
 7677POPC   C1B28963  21.480   4.913   8.555
 7677POPC   C2B28964  21.504   4.921   8.255
 7677POPC   C3B28965  21.546   4.832   7.955
 7677POPC   C4B28966  21.506   4.902   7.655
 7678POPC   NC328967  39.275   3.519   9.455
 7678POPC   PO428968  39.205   3.574   9.155
 7678POPC   GL128969  39.238   3.560   8.855
 7678POPC   GL228970  39.272   3.387   8.855
 7678POPC   C1A28971  39.203   3.553   8.555
 7678POPC   D2A28972  39.229   3.590   8.255
 7678POPC   C3A28973  39.273   3.528   7.955
 7678POPC   C4A28974  39.222   3.516   7.655
 7678POPC   C1B28975  39.247   3.320   8.555
 7678POPC   C2B28976  39.263   3.248   8.255
 7678POPC   C3B28977  39.252   3.254   7.955
 7678POPC   C4B28978  39.242   3.297   7.655
 7679POPC   NC328979   8.947  24.512   9.455
 7679POPC   PO428980   8.947  24.486   9.155
 7679POPC   GL128981   9.012  24.529   8.855
 7679POPC   GL228982   9.110  24.472   8.855
 7679POPC   C1A28983   9.006  24.476   8.555
 7679POPC   D2A28984   8.961  24.456   8.255
 7679POPC   C3A28985   8.941  24.531   7.955
 7679POPC   C4A28986   8.980  24.482   7.655
 7679POPC   C1B28987   9.213  24.524   8.555
 7679POPC   C2B28988   9.165  24.566   8.255
 7679POPC   C3B28989   9.237  24.581   7.955
 7679POPC   C4B28990   9.200  24.557   7.655
 7680POPC   NC328991  33.018   3.540   9.455
 7680POPC   PO428992  33.044   3.509   9.155
 7680POPC   GL128993  33.062   3.556   8.855
 7680POPC   GL228994  33.157   3.410   8.855
 7680POPC   C1A28995  33.033   3.585   8.555
 7680POPC   D2A28996  33.004   3.571   8.255
 7680POPC   C3A28997  33.073   3.510   7.955
 7680POPC   C4A28998  32.987   3.538   7.655
 7680POPC   C1B28999  33.149   3.309   8.555
 7680POPC   C2B29000  33.160   3.336   8.255
 7680POPC   C3B29001  33.151   3.378   7.955
 7680POPC   C4B29002  33.197   3.331   7.655
 7681POPC   NC329003  40.755  26.011   9.455
 7681POPC   PO429004  40.819  26.013   9.155
 7681POPC   GL129005  40.761  26.060   8.855
 7681POPC   GL229006  40.803  26.155   8.855
 7681POPC   C1A29007  40.765  26.066   8.555
 7681POPC   D2A29008  40.758  26.021   8.255
 7681POPC   C3A29009  40.750  25.997   7.955
 7681POPC   C4A29010  40.763  26.081   7.655
 7681POPC   C1B29011  40.800  26.305   8.555
 7681POPC   C2B29012  40.800  26.332   8.255
 7681POPC   C3B29013  40.841  26.321   7.955
 7681POPC   C4B29014  40.799  26.336   7.655
 7682POPC   NC329015  18.242  29.893   9.455
 7682POPC   PO429016  18.295  29.899   9.155
 7682POPC   GL129017  18.281  29.935   8.855
 7682POPC   GL229018  18.244  30.013   8.855
 7682POPC   C1A29019  18.295  29.950   8.555
 7682POPC   D2A29020  18.317  29.929   8.255
 7682POPC   C3A29021  18.239  29.926   7.955
 7682POPC   C4A29022  18.253  29.915   7.655
 7682POPC   C1B29023  18.245  30.203   8.555
 7682POPC   C2B29024  18.257  30.126   8.255
 7682POPC   C3B29025  18.211  30.117   7.955
 7682POPC   C4B29026  18.199  30.208   7.655
 7683POPC   NC329027  30.700  12.089   9.455
 7683POPC   PO429028  30.740  12.119   9.155
 7683POPC   GL129029  30.708  12.033   8.855
 7683POPC   GL229030  30.680  12.163   8.855
 7683POPC   C1A29031  30.670  12.072   8.555
 7683POPC   D2A29032  30.674  12.103   8.255
 7683POPC   C3A29033  30.721  12.032   7.955
 7683POPC   C4A29034  30.724  12.116   7.655
 7683POPC   C1B29035  30.624  12.359   8.555
 7683POPC   C2B29036  30.654  12.296   8.255
 7683POPC   C3B29037  30.631  12.284   7.955
 7683POPC   C4B29038  30.589  12.359   7.655
 7684POPC   NC329039   9.715  43.078   9.455
 7684POPC   PO429040   9.699  43.156   9.155
 7684POPC   GL129041   9.741  43.149   8.855
 7684POPC   GL229042   9.678  43.250   8.855
 7684POPC   C1A29043   9.753  43.128   8.555
 7684POPC   D2A29044   9.762  43.076   8.255
 7684POPC   C3A29045   9.700  43.123   7.955
 7684POPC   C4A29046   9.735  43.108   7.655
 7684POPC   C1B29047   9.611  43.387   8.555
 7684POPC   C2B29048   9.665  43.344   8.255
 7684POPC   C3B29049   9.609  43.331   7.955
 7684POPC   C4B29050   9.613  43.374   7.655
 7685POPC   NC329051  30.723  44.648   9.455
 7685POPC   PO429052  30.658  44.690   9.155
 7685POPC   GL129053  30.737  44.701   8.855
 7685POPC   GL229054  30.612  44.752   8.855
 7685POPC   C1A29055  30.690  44.669   8.555
 7685POPC   D2A29056  30.716  44.708   8.255
 7685POPC   C3A29057  30.733  44.617   7.955
 7685POPC   C4A29058  30.745  44.654   7.655
 7685POPC   C1B29059  30.548  44.826   8.555
 7685POPC   C2B29060  30.510  44.782   8.255
 7685POPC   C3B29061  30.540  44.845   7.955
 7685POPC   C4B29062  30.466  44.858   7.655
 7686POPC   NC329063  14.390  33.070   9.455
 7686POPC   PO429064  14.430  32.976   9.155
 7686POPC   GL129065  14.390  33.003   8.855
 7686POPC   GL229066  14.348  32.897   8.855
 7686POPC   C1A29067  14.384  33.068   8.555
 7686POPC   D2A29068  14.385  33.072   8.255
 7686POPC   C3A29069  14.376  32.999   7.955
 7686POPC   C4A29070  14.440  33.053   7.655
 7686POPC   C1B29071  14.329  32.842   8.555
 7686POPC   C2B29072  14.272  32.846   8.255
 7686POPC   C3B29073  14.313  32.799   7.955
 7686POPC   C4B29074  14.269  32.847   7.655
 7687POPC   NC329075  28.320   6.611   9.455
 7687POPC   PO429076  28.417   6.636   9.155
 7687POPC   GL129077  28.339   6.617   8.855
 7687POPC   GL229078  28.493   6.704   8.855
 7687POPC   C1A29079  28.392   6.642   8.555
 7687POPC   D2A29080  28.372   6.672   8.255
 7687POPC   C3A29081  28.403   6.689   7.955
 7687POPC   C4A29082  28.347   6.625   7.655
 7687POPC   C1B29083  28.534   6.801   8.555
 7687POPC   C2B29084  28.519   6.846   8.255
 7687POPC   C3B29085  28.517   6.878   7.955
 7687POPC   C4B29086  28.579   6.836   7.655
 7688POPC   NC329087  26.821  35.331   9.455
 7688POPC   PO429088  26.794  35.385   9.155
 7688POPC   GL129089  26.777  35.306   8.855
 7688POPC   GL229090  26.827  35.230   8.855
 7688POPC   C1A29091  26.774  35.325   8.555
 7688POPC   D2A29092  26.818  35.397   8.255
 7688POPC   C3A29093  26.805  35.369   7.955
 7688POPC   C4A29094  26.771  35.396   7.655
 7688POPC   C1B29095  26.873  35.098   8.555
 7688POPC   C2B29096  26.902  35.126   8.255
 7688POPC   C3B29097  26.926  35.105   7.955
 7688POPC   C4B29098  26.897  35.149   7.655
 7689POPC   NC329099   2.013  39.967   9.455
 7689POPC   PO429100   2.008  40.035   9.155
 7689POPC   GL129101   2.014  40.047   8.855
 7689POPC   GL229102   2.051  39.838   8.855
 7689POPC   C1A29103   1.977  40.018   8.555
 7689POPC   D2A29104   1.965  39.998   8.255
 7689POPC   C3A29105   2.035  39.958   7.955
 7689POPC   C4A29106   2.020  39.988   7.655
 7689POPC   C1B29107   2.052  39.794   8.555
 7689POPC   C2B29108   1.994  39.745   8.255
 7689POPC   C3B29109   1.999  39.763   7.955
 7689POPC   C4B29110   2.039  39.774   7.655
 7690POPC   NC329111  35.331   0.443   9.455
 7690POPC   PO429112  35.315   0.414   9.155
 7690POPC   GL129113  35.366   0.392   8.855
 7690POPC   GL229114  35.245   0.520   8.855
 7690POPC   C1A29115  35.395   0.471   8.555
 7690POPC   D2A29116  35.362   0.396   8.255
 7690POPC   C3A29117  35.349   0.484   7.955
 7690POPC   C4A29118  35.372   0.402   7.655
 7690POPC   C1B29119  35.215   0.682   8.555
 7690POPC   C2B29120  35.160   0.684   8.255
 7690POPC   C3B29121  35.199   0.605   7.955
 7690POPC   C4B29122  35.203   0.593   7.655
 7691POPC   NC329123   8.174  42.374   9.455
 7691POPC   PO429124   8.192  42.362   9.155
 7691POPC   GL129125   8.207  42.293   8.855
 7691POPC   GL229126   8.142  42.205   8.855
 7691POPC   C1A29127   8.198  42.320   8.555
 7691POPC   D2A29128   8.199  42.321   8.255
 7691POPC   C3A29129   8.246  42.307   7.955
 7691POPC   C4A29130   8.147  42.350   7.655
 7691POPC   C1B29131   8.082  42.145   8.555
 7691POPC   C2B29132   8.052  42.136   8.255
 7691POPC   C3B29133   8.074  42.120   7.955
 7691POPC   C4B29134   8.079  42.084   7.655
 7692POPC   NC329135  33.829  33.024   9.455
 7692POPC   PO429136  33.791  33.068   9.155
 7692POPC   GL129137  33.835  33.011   8.855
 7692POPC   GL229138  33.880  32.937   8.855
 7692POPC   C1A29139  33.842  32.982   8.555
 7692POPC   D2A29140  33.797  33.044   8.255
 7692POPC   C3A29141  33.772  32.994   7.955
 7692POPC   C4A29142  33.764  33.039   7.655
 7692POPC   C1B29143  33.986  32.826   8.555
 7692POPC   C2B29144  34.024  32.861   8.255
 7692POPC   C3B29145  33.969  32.916   7.955
 7692POPC   C4B29146  33.997  32.833   7.655
 7693POPC   NC329147  15.934   5.865   9.455
 7693POPC   PO429148  15.927   5.857   9.155
 7693POPC   GL129149  15.928   5.842   8.855
 7693POPC   GL229150  16.126   5.872   8.855
 7693POPC   C1A29151  15.954   5.844   8.555
 7693POPC   D2A29152  15.960   5.887   8.255
 7693POPC   C3A29153  15.926   5.845   7.955
 7693POPC   C4A29154  15.981   5.895   7.655
 7693POPC   C1B29155  16.161   5.883   8.555
 7693POPC   C2B29156  16.234   5.906   8.255
 7693POPC   C3B29157  16.188   5.889   7.955
 7693POPC   C4B29158  16.195   5.944   7.655
 7694POPC   NC329159  40.015  19.815   9.455
 7694POPC   PO429160  40.046  19.819   9.155
 7694POPC   GL129161  40.002  19.828   8.855
 7694POPC   GL229162  39.926  19.894   8.855
 7694POPC   C1A29163  40.026  19.787   8.555
 7694POPC   D2A29164  40.011  19.880   8.255
 7694POPC   C3A29165  40.002  19.788   7.955
 7694POPC   C4A29166  39.989  19.830   7.655
 7694POPC   C1B29167  39.792  19.850   8.555
 7694POPC   C2B29168  39.735  19.854   8.255
 7694POPC   C3B29169  39.718  19.872   7.955
 7694POPC   C4B29170  39.789  19.911   7.655
 7695POPC   NC329171  12.070  44.697   9.455
 7695POPC   PO429172  12.034  44.642   9.155
 7695POPC   GL129173  12.110  44.708   8.855
 7695POPC   GL229174  12.179  44.698   8.855
 7695POPC   C1A29175  12.098  44.708   8.555
 7695POPC   D2A29176  12.059  44.645   8.255
 7695POPC   C3A29177  12.026  44.654   7.955
 7695POPC   C4A29178  12.112  44.653   7.655
 7695POPC   C1B29179  12.329  44.756   8.555
 7695POPC   C2B29180  12.298  44.666   8.255
 7695POPC   C3B29181  12.320  44.678   7.955
 7695POPC   C4B29182  12.357  44.751   7.655
 7696POPC   NC329183   5.914  23.747   9.455
 7696POPC   PO429184   5.880  23.674   9.155
 7696POPC   GL129185   5.891  23.706   8.855
 7696POPC   GL229186   5.963  23.833   8.855
 7696POPC   C1A29187   5.862  23.743   8.555
 7696POPC   D2A29188   5.892  23.718   8.255
 7696POPC   C3A29189   5.894  23.721   7.955
 7696POPC   C4A29190   5.904  23.673   7.655
 7696POPC   C1B29191   6.020  23.927   8.555
 7696POPC   C2B29192   6.016  23.937   8.255
 7696POPC   C3B29193   5.974  23.885   7.955
 7696POPC   C4B29194   5.980  23.897   7.655
 7697POPC   NC329195   8.199  39.207   9.455
 7697POPC   PO429196   8.209  39.261   9.155
 7697POPC   GL129197   8.220  39.248   8.855
 7697POPC   GL229198   8.306  39.303   8.855
 7697POPC   C1A29199   8.228  39.261   8.555
 7697POPC   D2A29200   8.150  39.233   8.255
 7697POPC   C3A29201   8.154  39.220   7.955
 7697POPC   C4A29202   8.169  39.266   7.655
 7697POPC   C1B29203   8.314  39.416   8.555
 7697POPC   C2B29204   8.364  39.470   8.255
 7697POPC   C3B29205   8.342  39.453   7.955
 7697POPC   C4B29206   8.317  39.468   7.655
 7698POPC   NC329207  15.914  36.946   9.455
 7698POPC   PO429208  15.921  36.866   9.155
 7698POPC   GL129209  15.961  36.910   8.855
 7698POPC   GL229210  15.897  36.767   8.855
 7698POPC   C1A29211  15.917  36.942   8.555
 7698POPC   D2A29212  15.923  36.930   8.255
 7698POPC   C3A29213  15.923  36.949   7.955
 7698POPC   C4A29214  15.906  36.922   7.655
 7698POPC   C1B29215  15.894  36.640   8.555
 7698POPC   C2B29216  15.862  36.705   8.255
 7698POPC   C3B29217  15.822  36.715   7.955
 7698POPC   C4B29218  15.816  36.646   7.655
 7699POPC   NC329219   2.765  12.865   9.455
 7699POPC   PO429220   2.752  12.889   9.155
 7699POPC   GL129221   2.719  12.885   8.855
 7699POPC   GL229222   2.634  12.770   8.855
 7699POPC   C1A29223   2.800  12.812   8.555
 7699POPC   D2A29224   2.798  12.872   8.255
 7699POPC   C3A29225   2.769  12.808   7.955
 7699POPC   C4A29226   2.790  12.807   7.655
 7699POPC   C1B29227   2.556  12.689   8.555
 7699POPC   C2B29228   2.580  12.710   8.255
 7699POPC   C3B29229   2.613  12.683   7.955
 7699POPC   C4B29230   2.589  12.692   7.655
 7700POPC   NC329231  32.233   3.558   9.455
 7700POPC   PO429232  32.235   3.586   9.155
 7700POPC   GL129233  32.262   3.563   8.855
 7700POPC   GL229234  32.333   3.705   8.855
 7700POPC   C1A29235  32.223   3.532   8.555
 7700POPC   D2A29236  32.231   3.581   8.255
 7700POPC   C3A29237  32.215   3.515   7.955
 7700POPC   C4A29238  32.217   3.562   7.655
 7700POPC   C1B29239  32.319   3.801   8.555
 7700POPC   C2B29240  32.368   3.791   8.255
 7700POPC   C3B29241  32.372   3.813   7.955
 7700POPC   C4B29242  32.328   3.746   7.655
 7701POPC   NC329243  17.532  44.661   9.455
 7701POPC   PO429244  17.497  44.696   9.155
 7701POPC   GL129245  17.489  44.692   8.855
 7701POPC   GL229246  17.465  44.769   8.855
 7701POPC   C1A29247  17.480  44.708   8.555
 7701POPC   D2A29248  17.495  44.621   8.255
 7701POPC   C3A29249  17.540  44.683   7.955
 7701POPC   C4A29250  17.540  44.704   7.655
 7701POPC   C1B29251  17.368  44.899   8.555
 7701POPC   C2B29252  17.437  44.939   8.255
 7701POPC   C3B29253  17.392  44.907   7.955
 7701POPC   C4B29254  17.390  44.931   7.655
 7702POPC   NC329255  43.888  15.203   9.455
 7702POPC   PO429256  43.855  15.213   9.155
 7702POPC   GL129257  43.850  15.169   8.855
 7702POPC   GL229258  43.799  15.218   8.855
 7702POPC   C1A29259  43.837  15.216   8.555
 7702POPC   D2A29260  43.865  15.190   8.255
 7702POPC   C3A29261  43.904  15.182   7.955
 7702POPC   C4A29262  43.905  15.186   7.655
 7702POPC   C1B29263  43.597  15.266   8.555
 7702POPC   C2B29264  43.601  15.177   8.255
 7702POPC   C3B29265  43.663  15.207   7.955
 7702POPC   C4B29266  43.680  15.259   7.655
 7703POPC   NC329267  18.285  15.923   9.455
 7703POPC   PO429268  18.263  15.988   9.155
 7703POPC   GL129269  18.308  15.957   8.855
 7703POPC   GL229270  18.139  15.997   8.855
 7703POPC   C1A29271  18.319  15.964   8.555
 7703POPC   D2A29272  18.264  15.935   8.255
 7703POPC   C3A29273  18.255  15.965   7.955
 7703POPC   C4A29274  18.262  15.989   7.655
 7703POPC   C1B29275  18.067  16.131   8.555
 7703POPC   C2B29276  18.040  16.124   8.255
 7703POPC   C3B29277  18.092  16.062   7.955
 7703POPC   C4B29278  18.122  16.145   7.655
 7704POPC   NC329279  39.236  30.655   9.455
 7704POPC   PO429280  39.275  30.717   9.155
 7704POPC   GL129281  39.249  30.659   8.855
 7704POPC   GL229282  39.320  30.574   8.855
 7704POPC   C1A29283  39.253  30.704   8.555
 7704POPC   D2A29284  39.225  30.743   8.255
 7704POPC   C3A29285  39.197  30.717   7.955
 7704POPC   C4A29286  39.273  30.650   7.655
 7704POPC   C1B29287  39.332  30.419   8.555
 7704POPC   C2B29288  39.315  30.500   8.255
 7704POPC   C3B29289  39.317  30.428   7.955
 7704POPC   C4B29290  39.332  30.426   7.655
 7705POPC   NC329291   8.158  26.041   9.455
 7705POPC   PO429292   8.154  26.003   9.155
 7705POPC   GL129293   8.223  26.033   8.855
 7705POPC   GL229294   8.069  26.019   8.855
 7705POPC   C1A29295   8.165  26.014   8.555
 7705POPC   D2A29296   8.234  26.031   8.255
 7705POPC   C3A29297   8.167  26.076   7.955
 7705POPC   C4A29298   8.165  26.074   7.655
 7705POPC   C1B29299   7.931  25.968   8.555
 7705POPC   C2B29300   7.986  26.008   8.255
 7705POPC   C3B29301   7.995  25.992   7.955
 7705POPC   C4B29302   8.004  25.935   7.655
 7706POPC   NC329303  39.192  26.078   9.455
 7706POPC   PO429304  39.256  26.075   9.155
 7706POPC   GL129305  39.207  26.088   8.855
 7706POPC   GL229306  39.098  26.041   8.855
 7706POPC   C1A29307  39.182  26.083   8.555
 7706POPC   D2A29308  39.252  26.068   8.255
 7706POPC   C3A29309  39.268  26.032   7.955
 7706POPC   C4A29310  39.215  26.044   7.655
 7706POPC   C1B29311  39.013  26.077   8.555
 7706POPC   C2B29312  38.960  26.099   8.255
 7706POPC   C3B29313  38.934  26.036   7.955
 7706POPC   C4B29314  38.999  26.034   7.655
 7707POPC   NC329315  30.670  15.162   9.455
 7707POPC   PO429316  30.711  15.191   9.155
 7707POPC   GL129317  30.655  15.225   8.855
 7707POPC   GL229318  30.613  15.168   8.855
 7707POPC   C1A29319  30.726  15.156   8.555
 7707POPC   D2A29320  30.733  15.167   8.255
 7707POPC   C3A29321  30.709  15.184   7.955
 7707POPC   C4A29322  30.738  15.163   7.655
 7707POPC   C1B29323  30.445  15.154   8.555
 7707POPC   C2B29324  30.407  15.120   8.255
 7707POPC   C3B29325  30.439  15.205   7.955
 7707POPC   C4B29326  30.469  15.112   7.655
 7708POPC   NC329327  11.269  12.893   9.455
 7708POPC   PO429328  11.287  12.842   9.155
 7708POPC   GL129329  11.312  12.855   8.855
 7708POPC   GL229330  11.429  12.792   8.855
 7708POPC   C1A29331  11.305  12.839   8.555
 7708POPC   D2A29332  11.310  12.821   8.255
 7708POPC   C3A29333  11.328  12.846   7.955
 7708POPC   C4A29334  11.327  12.808   7.655
 7708POPC   C1B29335  11.484  12.682   8.555
 7708POPC   C2B29336  11.503  12.693   8.255
 7708POPC   C3B29337  11.515  12.643   7.955
 7708POPC   C4B29338  11.460  12.693   7.655
 7709POPC   NC329339  16.004  33.808   9.455
 7709POPC   PO429340  15.981  33.750   9.155
 7709POPC   GL129341  15.946  33.805   8.855
 7709POPC   GL229342  16.056  33.739   8.855
 7709POPC   C1A29343  15.985  33.847   8.555
 7709POPC   D2A29344  15.992  33.785   8.255
 7709POPC   C3A29345  15.924  33.799   7.955
 7709POPC   C4A29346  15.971  33.767   7.655
 7709POPC   C1B29347  16.120  33.614   8.555
 7709POPC   C2B29348  16.085  33.572   8.255
 7709POPC   C3B29349  16.094  33.562   7.955
 7709POPC   C4B29350  16.116  33.639   7.655
 7710POPC   NC329351   8.174  26.852   9.455
 7710POPC   PO429352   8.230  26.787   9.155
 7710POPC   GL129353   8.228  26.790   8.855
 7710POPC   GL229354   8.309  26.777   8.855
 7710POPC   C1A29355   8.213  26.858   8.555
 7710POPC   D2A29356   8.198  26.808   8.255
 7710POPC   C3A29357   8.213  26.816   7.955
 7710POPC   C4A29358   8.179  26.813   7.655
 7710POPC   C1B29359   8.406  26.653   8.555
 7710POPC   C2B29360   8.377  26.658   8.255
 7710POPC   C3B29361   8.398  26.680   7.955
 7710POPC   C4B29362   8.443  26.669   7.655
 7711POPC   NC329363  43.087  16.001   9.455
 7711POPC   PO429364  43.120  15.936   9.155
 7711POPC   GL129365  43.101  15.924   8.855
 7711POPC   GL229366  43.013  15.905   8.855
 7711POPC   C1A29367  43.092  15.914   8.555
 7711POPC   D2A29368  43.069  15.967   8.255
 7711POPC   C3A29369  43.123  15.918   7.955
 7711POPC   C4A29370  43.078  15.961   7.655
 7711POPC   C1B29371  42.912  15.747   8.555
 7711POPC   C2B29372  42.904  15.725   8.255
 7711POPC   C3B29373  42.943  15.766   7.955
 7711POPC   C4B29374  42.900  15.816   7.655
 7712POPC   NC329375  14.382  29.183   9.455
 7712POPC   PO429376  14.354  29.180   9.155
 7712POPC   GL129377  14.413  29.141   8.855
 7712POPC   GL229378  14.278  29.087   8.855
 7712POPC   C1A29379  14.431  29.111   8.555
 7712POPC   D2A29380  14.399  29.147   8.255
 7712POPC   C3A29381  14.436  29.191   7.955
 7712POPC   C4A29382  14.373  29.178   7.655
 7712POPC   C1B29383  14.147  29.098   8.555
 7712POPC   C2B29384  14.146  29.077   8.255
 7712POPC   C3B29385  14.163  29.106   7.955
 7712POPC   C4B29386  14.129  29.150   7.655
 7713POPC   NC329387   6.630  11.278   9.455
 7713POPC   PO429388   6.639  11.274   9.155
 7713POPC   GL129389   6.597  11.267   8.855
 7713POPC   GL229390   6.648  11.404   8.855
 7713POPC   C1A29391   6.690  11.282   8.555
 7713POPC   D2A29392   6.607  11.268   8.255
 7713POPC   C3A29393   6.650  11.319   7.955
 7713POPC   C4A29394   6.645  11.306   7.655
 7713POPC   C1B29395   6.771  11.541   8.555
 7713POPC   C2B29396   6.709  11.576   8.255
 7713POPC   C3B29397   6.720  11.548   7.955
 7713POPC   C4B29398   6.740  11.502   7.655
 7714POPC   NC329399  13.614  43.159   9.455
 7714POPC   PO429400  13.613  43.112   9.155
 7714POPC   GL129401  13.589  43.072   8.855
 7714POPC   GL229402  13.761  43.043   8.855
 7714POPC   C1A29403  13.607  43.132   8.555
 7714POPC   D2A29404  13.629  43.127   8.255
 7714POPC   C3A29405  13.674  43.097   7.955
 7714POPC   C4A29406  13.671  43.157   7.655
 7714POPC   C1B29407  13.878  43.042   8.555
 7714POPC   C2B29408  13.869  43.005   8.255
 7714POPC   C3B29409  13.827  43.075   7.955
 7714POPC   C4B29410  13.907  43.053   7.655
 7715POPC   NC329411  36.121  23.683   9.455
 7715POPC   PO429412  36.173  23.682   9.155
 7715POPC   GL129413  36.102  23.754   8.855
 7715POPC   GL229414  36.092  23.778   8.855
 7715POPC   C1A29415  36.168  23.714   8.555
 7715POPC   D2A29416  36.098  23.664   8.255
 7715POPC   C3A29417  36.130  23.666   7.955
 7715POPC   C4A29418  36.096  23.675   7.655
 7715POPC   C1B29419  35.977  23.941   8.555
 7715POPC   C2B29420  36.056  23.920   8.255
 7715POPC   C3B29421  35.977  23.957   7.955
 7715POPC   C4B29422  35.963  23.974   7.655
 7716POPC   NC329423   3.525  27.622   9.455
 7716POPC   PO429424   3.565  27.616   9.155
 7716POPC   GL129425   3.574  27.581   8.855
 7716POPC   GL229426   3.528  27.734   8.855
 7716POPC   C1A29427   3.564  27.635   8.555
 7716POPC   D2A29428   3.543  27.619   8.255
 7716POPC   C3A29429   3.527  27.624   7.955
 7716POPC   C4A29430   3.506  27.547   7.655
 7716POPC   C1B29431   3.527  27.879   8.555
 7716POPC   C2B29432   3.536  27.800   8.255
 7716POPC   C3B29433   3.571  27.831   7.955
 7716POPC   C4B29434   3.577  27.814   7.655
 7717POPC   NC329435  26.081   5.063   9.455
 7717POPC   PO429436  26.009   5.094   9.155
 7717POPC   GL129437  26.020   5.129   8.855
 7717POPC   GL229438  25.917   5.206   8.855
 7717POPC   C1A29439  26.029   5.092   8.555
 7717POPC   D2A29440  26.045   5.099   8.255
 7717POPC   C3A29441  26.048   5.119   7.955
 7717POPC   C4A29442  26.005   5.052   7.655
 7717POPC   C1B29443  25.868   5.337   8.555
 7717POPC   C2B29444  25.917   5.298   8.255
 7717POPC   C3B29445  25.926   5.250   7.955
 7717POPC   C4B29446  25.869   5.331   7.655
 7718POPC   NC329447   2.738  13.581   9.455
 7718POPC   PO429448   2.784  13.639   9.155
 7718POPC   GL129449   2.735  13.584   8.855
 7718POPC   GL229450   2.650  13.641   8.855
 7718POPC   C1A29451   2.786  13.661   8.555
 7718POPC   D2A29452   2.755  13.645   8.255
 7718POPC   C3A29453   2.747  13.608   7.955
 7718POPC   C4A29454   2.793  13.589   7.655
 7718POPC   C1B29455   2.541  13.720   8.555
 7718POPC   C2B29456   2.541  13.758   8.255
 7718POPC   C3B29457   2.550  13.718   7.955
 7718POPC   C4B29458   2.566  13.725   7.655
 7719POPC   NC329459  37.689  26.823   9.455
 7719POPC   PO429460  37.715  26.797   9.155
 7719POPC   GL129461  37.640  26.816   8.855
 7719POPC   GL229462  37.572  26.752   8.855
 7719POPC   C1A29463  37.658  26.845   8.555
 7719POPC   D2A29464  37.725  26.826   8.255
 7719POPC   C3A29465  37.708  26.795   7.955
 7719POPC   C4A29466  37.677  26.828   7.655
 7719POPC   C1B29467  37.578  26.636   8.555
 7719POPC   C2B29468  37.494  26.657   8.255
 7719POPC   C3B29469  37.545  26.597   7.955
 7719POPC   C4B29470  37.571  26.601   7.655
 7720POPC   NC329471  21.379  30.679   9.455
 7720POPC   PO429472  21.401  30.654   9.155
 7720POPC   GL129473  21.435  30.717   8.855
 7720POPC   GL229474  21.344  30.556   8.855
 7720POPC   C1A29475  21.413  30.702   8.555
 7720POPC   D2A29476  21.420  30.676   8.255
 7720POPC   C3A29477  21.410  30.682   7.955
 7720POPC   C4A29478  21.429  30.738   7.655
 7720POPC   C1B29479  21.322  30.435   8.555
 7720POPC   C2B29480  21.311  30.422   8.255
 7720POPC   C3B29481  21.264  30.520   7.955
 7720POPC   C4B29482  21.245  30.509   7.655
 7721POPC   NC329483  29.147  21.378   9.455
 7721POPC   PO429484  29.191  21.436   9.155
 7721POPC   GL129485  29.159  21.358   8.855
 7721POPC   GL229486  29.112  21.473   8.855
 7721POPC   C1A29487  29.108  21.390   8.555
 7721POPC   D2A29488  29.168  21.353   8.255
 7721POPC   C3A29489  29.169  21.350   7.955
 7721POPC   C4A29490  29.124  21.346   7.655
 7721POPC   C1B29491  29.111  21.630   8.555
 7721POPC   C2B29492  29.135  21.671   8.255
 7721POPC   C3B29493  29.162  21.601   7.955
 7721POPC   C4B29494  29.121  21.599   7.655
 7722POPC   NC329495  21.343  22.941   9.455
 7722POPC   PO429496  21.379  22.915   9.155
 7722POPC   GL129497  21.340  22.933   8.855
 7722POPC   GL229498  21.456  22.835   8.855
 7722POPC   C1A29499  21.435  22.985   8.555
 7722POPC   D2A29500  21.402  22.912   8.255
 7722POPC   C3A29501  21.373  22.901   7.955
 7722POPC   C4A29502  21.435  22.957   7.655
 7722POPC   C1B29503  21.517  22.752   8.555
 7722POPC   C2B29504  21.606  22.778   8.255
 7722POPC   C3B29505  21.539  22.754   7.955
 7722POPC   C4B29506  21.567  22.793   7.655
 7723POPC   NC329507  33.847  41.553   9.455
 7723POPC   PO429508  33.845  41.601   9.155
 7723POPC   GL129509  33.788  41.607   8.855
 7723POPC   GL229510  33.844  41.413   8.855
 7723POPC   C1A29511  33.751  41.570   8.555
 7723POPC   D2A29512  33.809  41.599   8.255
 7723POPC   C3A29513  33.807  41.543   7.955
 7723POPC   C4A29514  33.761  41.541   7.655
 7723POPC   C1B29515  33.961  41.362   8.555
 7723POPC   C2B29516  33.928  41.337   8.255
 7723POPC   C3B29517  33.949  41.370   7.955
 7723POPC   C4B29518  33.964  41.394   7.655
 7724POPC   NC329519  32.222  21.407   9.455
 7724POPC   PO429520  32.232  21.433   9.155
 7724POPC   GL129521  32.270  21.365   8.855
 7724POPC   GL229522  32.207  21.501   8.855
 7724POPC   C1A29523  32.248  21.429   8.555
 7724POPC   D2A29524  32.290  21.342   8.255
 7724POPC   C3A29525  32.208  21.371   7.955
 7724POPC   C4A29526  32.289  21.356   7.655
 7724POPC   C1B29527  32.078  21.535   8.555
 7724POPC   C2B29528  32.098  21.581   8.255
 7724POPC   C3B29529  32.027  21.572   7.955
 7724POPC   C4B29530  32.080  21.591   7.655
 7725POPC   NC329531  22.183  27.637   9.455
 7725POPC   PO429532  22.167  27.552   9.155
 7725POPC   GL129533  22.172  27.586   8.855
 7725POPC   GL229534  22.298  27.555   8.855
 7725POPC   C1A29535  22.190  27.593   8.555
 7725POPC   D2A29536  22.135  27.597   8.255
 7725POPC   C3A29537  22.145  27.615   7.955
 7725POPC   C4A29538  22.165  27.607   7.655
 7725POPC   C1B29539  22.438  27.647   8.555
 7725POPC   C2B29540  22.452  27.652   8.255
 7725POPC   C3B29541  22.368  27.573   7.955
 7725POPC   C4B29542  22.398  27.622   7.655
 7726POPC   NC329543  29.958   9.783   9.455
 7726POPC   PO429544  29.895   9.764   9.155
 7726POPC   GL129545  29.910   9.760   8.855
 7726POPC   GL229546  29.793   9.854   8.855
 7726POPC   C1A29547  29.914   9.712   8.555
 7726POPC   D2A29548  29.876   9.716   8.255
 7726POPC   C3A29549  29.881   9.751   7.955
 7726POPC   C4A29550  29.891   9.731   7.655
 7726POPC   C1B29551  29.735   9.886   8.555
 7726POPC   C2B29552  29.735   9.891   8.255
 7726POPC   C3B29553  29.707   9.858   7.955
 7726POPC   C4B29554  29.712   9.874   7.655
 7727POPC   NC329555  29.906  27.577   9.455
 7727POPC   PO429556  29.923  27.566   9.155
 7727POPC   GL129557  29.910  27.564   8.855
 7727POPC   GL229558  29.824  27.572   8.855
 7727POPC   C1A29559  29.968  27.583   8.555
 7727POPC   D2A29560  29.900  27.549   8.255
 7727POPC   C3A29561  29.960  27.554   7.955
 7727POPC   C4A29562  29.963  27.615   7.655
 7727POPC   C1B29563  29.649  27.515   8.555
 7727POPC   C2B29564  29.726  27.453   8.255
 7727POPC   C3B29565  29.662  27.471   7.955
 7727POPC   C4B29566  29.709  27.449   7.655
 7728POPC   NC329567  11.303   7.463   9.455
 7728POPC   PO429568  11.278   7.437   9.155
 7728POPC   GL129569  11.264   7.406   8.855
 7728POPC   GL229570  11.169   7.439   8.855
 7728POPC   C1A29571  11.344   7.451   8.555
 7728POPC   D2A29572  11.341   7.470   8.255
 7728POPC   C3A29573  11.263   7.435   7.955
 7728POPC   C4A29574  11.282   7.454   7.655
 7728POPC   C1B29575  11.081   7.531   8.555
 7728POPC   C2B29576  11.028   7.505   8.255
 7728POPC   C3B29577  11.039   7.511   7.955
 7728POPC   C4B29578  11.113   7.488   7.655
 7729POPC   NC329579  10.528  28.419   9.455
 7729POPC   PO429580  10.490  28.360   9.155
 7729POPC   GL129581  10.477  28.386   8.855
 7729POPC   GL229582  10.661  28.368   8.855
 7729POPC   C1A29583  10.486  28.338   8.555
 7729POPC   D2A29584  10.541  28.360   8.255
 7729POPC   C3A29585  10.555  28.379   7.955
 7729POPC   C4A29586  10.565  28.382   7.655
 7729POPC   C1B29587  10.803  28.260   8.555
 7729POPC   C2B29588  10.761  28.230   8.255
 7729POPC   C3B29589  10.804  28.292   7.955
 7729POPC   C4B29590  10.769  28.323   7.655
 7730POPC   NC329591   7.438  14.446   9.455
 7730POPC   PO429592   7.438  14.372   9.155
 7730POPC   GL129593   7.414  14.430   8.855
 7730POPC   GL229594   7.300  14.308   8.855
 7730POPC   C1A29595   7.435  14.362   8.555
 7730POPC   D2A29596   7.400  14.424   8.255
 7730POPC   C3A29597   7.432  14.429   7.955
 7730POPC   C4A29598   7.465  14.391   7.655
 7730POPC   C1B29599   7.193  14.278   8.555
 7730POPC   C2B29600   7.217  14.335   8.255
 7730POPC   C3B29601   7.147  14.289   7.955
 7730POPC   C4B29602   7.182  14.355   7.655
 7731POPC   NC329603  33.751  16.769   9.455
 7731POPC   PO429604  33.753  16.711   9.155
 7731POPC   GL129605  33.760  16.720   8.855
 7731POPC   GL229606  33.820  16.651   8.855
 7731POPC   C1A29607  33.821  16.686   8.555
 7731POPC   D2A29608  33.780  16.767   8.255
 7731POPC   C3A29609  33.826  16.762   7.955
 7731POPC   C4A29610  33.845  16.693   7.655
 7731POPC   C1B29611  33.870  16.494   8.555
 7731POPC   C2B29612  33.786  16.482   8.255
 7731POPC   C3B29613  33.832  16.529   7.955
 7731POPC   C4B29614  33.776  16.461   7.655
 7732POPC   NC329615  10.518   8.215   9.455
 7732POPC   PO429616  10.491   8.195   9.155
 7732POPC   GL129617  10.500   8.232   8.855
 7732POPC   GL229618  10.528   8.284   8.855
 7732POPC   C1A29619  10.475   8.243   8.555
 7732POPC   D2A29620  10.518   8.175   8.255
 7732POPC   C3A29621  10.574   8.198   7.955
 7732POPC   C4A29622  10.515   8.173   7.655
 7732POPC   C1B29623  10.617   8.475   8.555
 7732POPC   C2B29624  10.593   8.484   8.255
 7732POPC   C3B29625  10.571   8.452   7.955
 7732POPC   C4B29626  10.596   8.398   7.655
 7733POPC   NC329627  16.775   0.449   9.455
 7733POPC   PO429628  16.749   0.410   9.155
 7733POPC   GL129629  16.748   0.394   8.855
 7733POPC   GL229630  16.817   0.523   8.855
 7733POPC   C1A29631  16.747   0.450   8.555
 7733POPC   D2A29632  16.681   0.468   8.255
 7733POPC   C3A29633  16.742   0.427   7.955
 7733POPC   C4A29634  16.739   0.422   7.655
 7733POPC   C1B29635  16.923   0.519   8.555
 7733POPC   C2B29636  16.946   0.561   8.255
 7733POPC   C3B29637  16.966   0.516   7.955
 7733POPC   C4B29638  16.933   0.500   7.655
 7734POPC   NC329639  36.947  29.891   9.455
 7734POPC   PO429640  36.898  29.902   9.155
 7734POPC   GL129641  36.885  29.907   8.855
 7734POPC   GL229642  36.859  30.053   8.855
 7734POPC   C1A29643  36.935  29.909   8.555
 7734POPC   D2A29644  36.924  29.968   8.255
 7734POPC   C3A29645  36.932  29.933   7.955
 7734POPC   C4A29646  36.869  29.954   7.655
 7734POPC   C1B29647  36.874  30.136   8.555
 7734POPC   C2B29648  36.843  30.180   8.255
 7734POPC   C3B29649  36.873  30.146   7.955
 7734POPC   C4B29650  36.879  30.149   7.655
 7735POPC   NC329651   9.728  40.822   9.455
 7735POPC   PO429652   9.726  40.830   9.155
 7735POPC   GL129653   9.735  40.748   8.855
 7735POPC   GL229654   9.641  40.769   8.855
 7735POPC   C1A29655   9.724  40.816   8.555
 7735POPC   D2A29656   9.699  40.733   8.255
 7735POPC   C3A29657   9.719  40.767   7.955
 7735POPC   C4A29658   9.711  40.775   7.655
 7735POPC   C1B29659   9.458  40.761   8.555
 7735POPC   C2B29660   9.468  40.762   8.255
 7735POPC   C3B29661   9.521  40.748   7.955
 7735POPC   C4B29662   9.505  40.696   7.655
 7736POPC   NC329663  30.653  18.235   9.455
 7736POPC   PO429664  30.709  18.303   9.155
 7736POPC   GL129665  30.707  18.265   8.855
 7736POPC   GL229666  30.604  18.253   8.855
 7736POPC   C1A29667  30.718  18.250   8.555
 7736POPC   D2A29668  30.739  18.331   8.255
 7736POPC   C3A29669  30.683  18.263   7.955
 7736POPC   C4A29670  30.700  18.253   7.655
 7736POPC   C1B29671  30.446  18.199   8.555
 7736POPC   C2B29672  30.476  18.251   8.255
 7736POPC   C3B29673  30.423  18.234   7.955
 7736POPC   C4B29674  30.502  18.271   7.655
 7737POPC   NC329675  29.132  15.148   9.455
 7737POPC   PO429676  29.103  15.202   9.155
 7737POPC   GL129677  29.136  15.171   8.855
 7737POPC   GL229678  29.098  15.050   8.855
 7737POPC   C1A29679  29.153  15.195   8.555
 7737POPC   D2A29680  29.189  15.205   8.255
 7737POPC   C3A29681  29.097  15.159   7.955
 7737POPC   C4A29682  29.128  15.146   7.655
 7737POPC   C1B29683  29.049  14.936   8.555
 7737POPC   C2B29684  29.047  14.984   8.255
 7737POPC   C3B29685  29.015  14.935   7.955
 7737POPC   C4B29686  28.994  15.002   7.655
 7738POPC   NC329687  43.877  16.761   9.455
 7738POPC   PO429688  43.893  16.728   9.155
 7738POPC   GL129689  43.869  16.759   8.855
 7738POPC   GL229690  43.977  16.722   8.855
 7738POPC   C1A29691  43.840  16.755   8.555
 7738POPC   D2A29692  43.908  16.688   8.255
 7738POPC   C3A29693  43.857  16.716   7.955
 7738POPC   C4A29694  43.850  16.700   7.655
 7738POPC   C1B29695  44.094  16.631   8.555
 7738POPC   C2B29696  44.086  16.691   8.255
 7738POPC   C3B29697  44.130  16.678   7.955
 7738POPC   C4B29698  44.126  16.668   7.655
 7739POPC   NC329699  16.717  34.596   9.455
 7739POPC   PO429700  16.711  34.583   9.155
 7739POPC   GL129701  16.695  34.531   8.855
 7739POPC   GL229702  16.800  34.494   8.855
 7739POPC   C1A29703  16.684  34.603   8.555
 7739POPC   D2A29704  16.735  34.560   8.255
 7739POPC   C3A29705  16.732  34.602   7.955
 7739POPC   C4A29706  16.758  34.590   7.655
 7739POPC   C1B29707  16.902  34.465   8.555
 7739POPC   C2B29708  16.925  34.387   8.255
 7739POPC   C3B29709  16.956  34.394   7.955
 7739POPC   C4B29710  16.975  34.380   7.655
 7740POPC   NC329711  11.250  40.830   9.455
 7740POPC   PO429712  11.251  40.786   9.155
 7740POPC   GL129713  11.280  40.764   8.855
 7740POPC   GL229714  11.392  40.716   8.855
 7740POPC   C1A29715  11.323  40.737   8.555
 7740POPC   D2A29716  11.281  40.741   8.255
 7740POPC   C3A29717  11.256  40.771   7.955
 7740POPC   C4A29718  11.325  40.829   7.655
 7740POPC   C1B29719  11.467  40.671   8.555
 7740POPC   C2B29720  11.474  40.614   8.255
 7740POPC   C3B29721  11.529  40.693   7.955
 7740POPC   C4B29722  11.498  40.693   7.655
 7741POPC   NC329723   8.156  13.625   9.455
 7741POPC   PO429724   8.201  13.590   9.155
 7741POPC   GL129725   8.196  13.642   8.855
 7741POPC   GL229726   8.338  13.701   8.855
 7741POPC   C1A29727   8.236  13.657   8.555
 7741POPC   D2A29728   8.156  13.669   8.255
 7741POPC   C3A29729   8.225  13.605   7.955
 7741POPC   C4A29730   8.193  13.633   7.655
 7741POPC   C1B29731   8.384  13.809   8.555
 7741POPC   C2B29732   8.388  13.744   8.255
 7741POPC   C3B29733   8.389  13.773   7.955
 7741POPC   C4B29734   8.400  13.749   7.655
 7742POPC   NC329735   1.941   8.944   9.455
 7742POPC   PO429736   2.036   9.013   9.155
 7742POPC   GL129737   2.020   8.977   8.855
 7742POPC   GL229738   1.967   9.056   8.855
 7742POPC   C1A29739   1.996   8.934   8.555
 7742POPC   D2A29740   2.011   8.953   8.255
 7742POPC   C3A29741   2.009   8.927   7.955
 7742POPC   C4A29742   1.945   9.018   7.655
 7742POPC   C1B29743   2.040   9.250   8.555
 7742POPC   C2B29744   2.055   9.178   8.255
 7742POPC   C3B29745   2.079   9.189   7.955
 7742POPC   C4B29746   2.030   9.170   7.655
 7743POPC   NC329747  19.881   0.467   9.455
 7743POPC   PO429748  19.836   0.488   9.155
 7743POPC   GL129749  19.789   0.411   8.855
 7743POPC   GL229750  19.772   0.587   8.855
 7743POPC   C1A29751  19.800   0.400   8.555
 7743POPC   D2A29752  19.817   0.466   8.255
 7743POPC   C3A29753  19.807   0.400   7.955
 7743POPC   C4A29754  19.882   0.476   7.655
 7743POPC   C1B29755  19.772   0.650   8.555
 7743POPC   C2B29756  19.841   0.678   8.255
 7743POPC   C3B29757  19.761   0.678   7.955
 7743POPC   C4B29758  19.783   0.673   7.655
 7744POPC   NC329759   5.046  24.471   9.455
 7744POPC   PO429760   5.051  24.501   9.155
 7744POPC   GL129761   5.139  24.513   8.855
 7744POPC   GL229762   4.926  24.567   8.855
 7744POPC   C1A29763   5.112  24.505   8.555
 7744POPC   D2A29764   5.045  24.463   8.255
 7744POPC   C3A29765   5.072  24.473   7.955
 7744POPC   C4A29766   5.124  24.539   7.655
 7744POPC   C1B29767   4.852  24.561   8.555
 7744POPC   C2B29768   4.833  24.533   8.255
 7744POPC   C3B29769   4.810  24.564   7.955
 7744POPC   C4B29770   4.804  24.556   7.655
 7745POPC   NC329771  41.511  40.020   9.455
 7745POPC   PO429772  41.550  40.036   9.155
 7745POPC   GL129773  41.599  40.040   8.855
 7745POPC   GL229774  41.587  40.089   8.855
 7745POPC   C1A29775  41.529  40.028   8.555
 7745POPC   D2A29776  41.558  40.015   8.255
 7745POPC   C3A29777  41.560  40.018   7.955
 7745POPC   C4A29778  41.540  39.997   7.655
 7745POPC   C1B29779  41.578  40.258   8.555
 7745POPC   C2B29780  41.648  40.238   8.255
 7745POPC   C3B29781  41.553  40.252   7.955
 7745POPC   C4B29782  41.592  40.225   7.655
 7746POPC   NC329783  37.708   1.969   9.455
 7746POPC   PO429784  37.655   2.003   9.155
 7746POPC   GL129785  37.711   1.959   8.855
 7746POPC   GL229786  37.739   1.941   8.855
 7746POPC   C1A29787  37.692   1.974   8.555
 7746POPC   D2A29788  37.709   2.039   8.255
 7746POPC   C3A29789  37.629   1.960   7.955
 7746POPC   C4A29790  37.703   1.945   7.655
 7746POPC   C1B29791  37.820   1.786   8.555
 7746POPC   C2B29792  37.876   1.770   8.255
 7746POPC   C3B29793  37.812   1.773   7.955
 7746POPC   C4B29794  37.820   1.785   7.655
 7747POPC   NC329795  35.372  31.473   9.455
 7747POPC   PO429796  35.383  31.496   9.155
 7747POPC   GL129797  35.355  31.475   8.855
 7747POPC   GL229798  35.475  31.417   8.855
 7747POPC   C1A29799  35.333  31.483   8.555
 7747POPC   D2A29800  35.305  31.433   8.255
 7747POPC   C3A29801  35.348  31.430   7.955
 7747POPC   C4A29802  35.345  31.511   7.655
 7747POPC   C1B29803  35.618  31.425   8.555
 7747POPC   C2B29804  35.556  31.389   8.255
 7747POPC   C3B29805  35.625  31.405   7.955
 7747POPC   C4B29806  35.578  31.400   7.655
 7748POPC   NC329807   9.717  11.269   9.455
 7748POPC   PO429808   9.792  11.299   9.155
 7748POPC   GL129809   9.760  11.343   8.855
 7748POPC   GL229810   9.712  11.452   8.855
 7748POPC   C1A29811   9.732  11.335   8.555
 7748POPC   D2A29812   9.723  11.308   8.255
 7748POPC   C3A29813   9.731  11.316   7.955
 7748POPC   C4A29814   9.754  11.313   7.655
 7748POPC   C1B29815   9.690  11.480   8.555
 7748POPC   C2B29816   9.655  11.543   8.255
 7748POPC   C3B29817   9.680  11.512   7.955
 7748POPC   C4B29818   9.654  11.499   7.655
 7749POPC   NC329819  39.958   4.277   9.455
 7749POPC   PO429820  39.985   4.305   9.155
 7749POPC   GL129821  40.005   4.284   8.855
 7749POPC   GL229822  39.956   4.419   8.855
 7749POPC   C1A29823  40.021   4.309   8.555
 7749POPC   D2A29824  40.024   4.333   8.255
 7749POPC   C3A29825  40.053   4.320   7.955
 7749POPC   C4A29826  40.025   4.331   7.655
 7749POPC   C1B29827  39.902   4.485   8.555
 7749POPC   C2B29828  39.854   4.488   8.255
 7749POPC   C3B29829  39.871   4.551   7.955
 7749POPC   C4B29830  39.825   4.502   7.655
 7750POPC   NC329831   5.072   5.068   9.455
 7750POPC   PO429832   5.085   5.082   9.155
 7750POPC   GL129833   5.053   5.104   8.855
 7750POPC   GL229834   5.184   5.071   8.855
 7750POPC   C1A29835   5.097   5.079   8.555
 7750POPC   D2A29836   5.098   5.113   8.255
 7750POPC   C3A29837   5.084   5.107   7.955
 7750POPC   C4A29838   5.115   5.120   7.655
 7750POPC   C1B29839   5.333   5.002   8.555
 7750POPC   C2B29840   5.358   5.010   8.255
 7750POPC   C3B29841   5.368   5.058   7.955
 7750POPC   C4B29842   5.360   4.989   7.655
 7751POPC   NC329843  12.042  26.849   9.455
 7751POPC   PO429844  12.039  26.804   9.155
 7751POPC   GL129845  12.067  26.842   8.855
 7751POPC   GL229846  11.980  26.778   8.855
 7751POPC   C1A29847  12.092  26.821   8.555
 7751POPC   D2A29848  12.108  26.816   8.255
 7751POPC   C3A29849  12.112  26.859   7.955
 7751POPC   C4A29850  12.084  26.813   7.655
 7751POPC   C1B29851  11.865  26.774   8.555
 7751POPC   C2B29852  11.864  26.747   8.255
 7751POPC   C3B29853  11.811  26.790   7.955
 7751POPC   C4B29854  11.809  26.747   7.655
 7752POPC   NC329855   2.768  15.919   9.455
 7752POPC   PO429856   2.793  15.944   9.155
 7752POPC   GL129857   2.810  15.971   8.855
 7752POPC   GL229858   2.679  15.863   8.855
 7752POPC   C1A29859   2.802  15.929   8.555
 7752POPC   D2A29860   2.809  15.920   8.255
 7752POPC   C3A29861   2.778  15.955   7.955
 7752POPC   C4A29862   2.765  15.957   7.655
 7752POPC   C1B29863   2.663  15.767   8.555
 7752POPC   C2B29864   2.641  15.752   8.255
 7752POPC   C3B29865   2.639  15.736   7.955
 7752POPC   C4B29866   2.591  15.774   7.655
 7753POPC   NC329867   5.915  10.491   9.455
 7753POPC   PO429868   5.901  10.566   9.155
 7753POPC   GL129869   5.833  10.570   8.855
 7753POPC   GL229870   5.815  10.641   8.855
 7753POPC   C1A29871   5.864  10.563   8.555
 7753POPC   D2A29872   5.851  10.564   8.255
 7753POPC   C3A29873   5.897  10.538   7.955
 7753POPC   C4A29874   5.833  10.533   7.655
 7753POPC   C1B29875   5.703  10.639   8.555
 7753POPC   C2B29876   5.693  10.705   8.255
 7753POPC   C3B29877   5.694  10.674   7.955
 7753POPC   C4B29878   5.706  10.664   7.655
 7754POPC   NC329879  34.577  43.081   9.455
 7754POPC   PO429880  34.533  43.154   9.155
 7754POPC   GL129881  34.623  43.074   8.855
 7754POPC   GL229882  34.497  43.090   8.855
 7754POPC   C1A29883  34.533  43.116   8.555
 7754POPC   D2A29884  34.596  43.141   8.255
 7754POPC   C3A29885  34.538  43.064   7.955
 7754POPC   C4A29886  34.613  43.105   7.655
 7754POPC   C1B29887  34.305  43.055   8.555
 7754POPC   C2B29888  34.359  43.103   8.255
 7754POPC   C3B29889  34.367  43.079   7.955
 7754POPC   C4B29890  34.350  43.081   7.655
 7755POPC   NC329891  27.640  28.370   9.455
 7755POPC   PO429892  27.615  28.398   9.155
 7755POPC   GL129893  27.627  28.404   8.855
 7755POPC   GL229894  27.629  28.466   8.855
 7755POPC   C1A29895  27.550  28.363   8.555
 7755POPC   D2A29896  27.577  28.330   8.255
 7755POPC   C3A29897  27.607  28.337   7.955
 7755POPC   C4A29898  27.584  28.397   7.655
 7755POPC   C1B29899  27.524  28.571   8.555
 7755POPC   C2B29900  27.561  28.644   8.255
 7755POPC   C3B29901  27.534  28.618   7.955
 7755POPC   C4B29902  27.580  28.638   7.655
 7756POPC   NC329903  24.487  24.517   9.455
 7756POPC   PO429904  24.537  24.458   9.155
 7756POPC   GL129905  24.525  24.479   8.855
 7756POPC   GL229906  24.471  24.403   8.855
 7756POPC   C1A29907  24.536  24.466   8.555
 7756POPC   D2A29908  24.508  24.442   8.255
 7756POPC   C3A29909  24.477  24.476   7.955
 7756POPC   C4A29910  24.484  24.503   7.655
 7756POPC   C1B29911  24.456  24.271   8.555
 7756POPC   C2B29912  24.470  24.223   8.255
 7756POPC   C3B29913  24.418  24.263   7.955
 7756POPC   C4B29914  24.480  24.274   7.655
 7757POPC   NC329915  27.583  33.845   9.455
 7757POPC   PO429916  27.565  33.830   9.155
 7757POPC   GL129917  27.627  33.845   8.855
 7757POPC   GL229918  27.575  33.650   8.855
 7757POPC   C1A29919  27.615  33.827   8.555
 7757POPC   D2A29920  27.564  33.836   8.255
 7757POPC   C3A29921  27.630  33.840   7.955
 7757POPC   C4A29922  27.628  33.808   7.655
 7757POPC   C1B29923  27.661  33.523   8.555
 7757POPC   C2B29924  27.618  33.509   8.255
 7757POPC   C3B29925  27.681  33.516   7.955
 7757POPC   C4B29926  27.605  33.580   7.655
 7758POPC   NC329927  25.287  40.044   9.455
 7758POPC   PO429928  25.269  40.018   9.155
 7758POPC   GL129929  25.298  39.979   8.855
 7758POPC   GL229930  25.153  40.045   8.855
 7758POPC   C1A29931  25.223  40.044   8.555
 7758POPC   D2A29932  25.312  40.001   8.255
 7758POPC   C3A29933  25.247  40.018   7.955
 7758POPC   C4A29934  25.280  40.028   7.655
 7758POPC   C1B29935  25.010  40.037   8.555
 7758POPC   C2B29936  25.053  39.982   8.255
 7758POPC   C3B29937  25.004  39.966   7.955
 7758POPC   C4B29938  25.062  39.958   7.655
 7759POPC   NC329939   4.289   9.780   9.455
 7759POPC   PO429940   4.308   9.778   9.155
 7759POPC   GL129941   4.309   9.728   8.855
 7759POPC   GL229942   4.309   9.868   8.855
 7759POPC   C1A29943   4.271   9.797   8.555
 7759POPC   D2A29944   4.273   9.775   8.255
 7759POPC   C3A29945   4.290   9.740   7.955
 7759POPC   C4A29946   4.344   9.764   7.655
 7759POPC   C1B29947   4.336  10.033   8.555
 7759POPC   C2B29948   4.256  10.002   8.255
 7759POPC   C3B29949   4.311  10.030   7.955
 7759POPC   C4B29950   4.344   9.999   7.655
 7760POPC   NC329951  14.399  32.216   9.455
 7760POPC   PO429952  14.407  32.292   9.155
 7760POPC   GL129953  14.386  32.235   8.855
 7760POPC   GL229954  14.360  32.143   8.855
 7760POPC   C1A29955  14.428  32.217   8.555
 7760POPC   D2A29956  14.359  32.218   8.255
 7760POPC   C3A29957  14.406  32.234   7.955
 7760POPC   C4A29958  14.371  32.250   7.655
 7760POPC   C1B29959  14.447  32.037   8.555
 7760POPC   C2B29960  14.374  32.023   8.255
 7760POPC   C3B29961  14.383  32.008   7.955
 7760POPC   C4B29962  14.371  31.988   7.655
 7761POPC   NC329963   2.786  34.622   9.455
 7761POPC   PO429964   2.797  34.584   9.155
 7761POPC   GL129965   2.779  34.567   8.855
 7761POPC   GL229966   2.682  34.444   8.855
 7761POPC   C1A29967   2.724  34.616   8.555
 7761POPC   D2A29968   2.730  34.556   8.255
 7761POPC   C3A29969   2.752  34.556   7.955
 7761POPC   C4A29970   2.805  34.613   7.655
 7761POPC   C1B29971   2.641  34.321   8.555
 7761POPC   C2B29972   2.661  34.311   8.255
 7761POPC   C3B29973   2.666  34.404   7.955
 7761POPC   C4B29974   2.593  34.348   7.655
 7762POPC   NC329975  43.876  30.719   9.455
 7762POPC   PO429976  43.847  30.671   9.155
 7762POPC   GL129977  43.917  30.739   8.855
 7762POPC   GL229978  43.743  30.643   8.855
 7762POPC   C1A29979  43.928  30.744   8.555
 7762POPC   D2A29980  43.885  30.647   8.255
 7762POPC   C3A29981  43.859  30.719   7.955
 7762POPC   C4A29982  43.850  30.673   7.655
 7762POPC   C1B29983  43.658  30.590   8.555
 7762POPC   C2B29984  43.686  30.589   8.255
 7762POPC   C3B29985  43.640  30.607   7.955
 7762POPC   C4B29986  43.678  30.558   7.655
 7763POPC   NC329987   1.173  23.716   9.455
 7763POPC   PO429988   1.194  23.730   9.155
 7763POPC   GL129989   1.194  23.732   8.855
 7763POPC   GL229990   1.293  23.657   8.855
 7763POPC   C1A29991   1.238  23.707   8.555
 7763POPC   D2A29992   1.226  23.740   8.255
 7763POPC   C3A29993   1.188  23.719   7.955
 7763POPC   C4A29994   1.236  23.763   7.655
 7763POPC   C1B29995   1.348  23.575   8.555
 7763POPC   C2B29996   1.385  23.538   8.255
 7763POPC   C3B29997   1.409  23.540   7.955
 7763POPC   C4B29998   1.353  23.570   7.655
 7764POPC   NC329999  26.020  15.228   9.455
 7764POPC   PO430000  26.067  15.171   9.155
 7764POPC   GL130001  26.040  15.131   8.855
 7764POPC   GL230002  26.199  15.181   8.855
 7764POPC   C1A30003  26.018  15.203   8.555
 7764POPC   D2A30004  26.067  15.220   8.255
 7764POPC   C3A30005  26.053  15.173   7.955
 7764POPC   C4A30006  26.020  15.187   7.655
 7764POPC   C1B30007  26.278  15.166   8.555
 7764POPC   C2B30008  26.277  15.091   8.255
 7764POPC   C3B30009  26.334  15.124   7.955
 7764POPC   C4B30010  26.278  15.175   7.655
 7765POPC   NC330011  16.718  42.380   9.455
 7765POPC   PO430012  16.757  42.378   9.155
 7765POPC   GL130013  16.699  42.343   8.855
 7765POPC   GL230014  16.816  42.220   8.855
 7765POPC   C1A30015  16.720  42.335   8.555
 7765POPC   D2A30016  16.716  42.346   8.255
 7765POPC   C3A30017  16.728  42.288   7.955
 7765POPC   C4A30018  16.751  42.315   7.655
 7765POPC   C1B30019  16.796  42.102   8.555
 7765POPC   C2B30020  16.813  42.116   8.255
 7765POPC   C3B30021  16.849  42.094   7.955
 7765POPC   C4B30022  16.862  42.119   7.655
 7766POPC   NC330023   8.962   5.067   9.455
 7766POPC   PO430024   8.962   5.121   9.155
 7766POPC   GL130025   8.994   5.073   8.855
 7766POPC   GL230026   8.876   5.073   8.855
 7766POPC   C1A30027   8.928   5.137   8.555
 7766POPC   D2A30028   8.966   5.141   8.255
 7766POPC   C3A30029   8.952   5.101   7.955
 7766POPC   C4A30030   9.002   5.117   7.655
 7766POPC   C1B30031   8.715   5.058   8.555
 7766POPC   C2B30032   8.724   5.105   8.255
 7766POPC   C3B30033   8.679   5.135   7.955
 7766POPC   C4B30034   8.712   5.074   7.655
 7767POPC   NC330035  36.112  29.179   9.455
 7767POPC   PO430036  36.163  29.148   9.155
 7767POPC   GL130037  36.178  29.144   8.855
 7767POPC   GL230038  36.080  29.053   8.855
 7767POPC   C1A30039  36.116  29.119   8.555
 7767POPC   D2A30040  36.170  29.109   8.255
 7767POPC   C3A30041  36.155  29.143   7.955
 7767POPC   C4A30042  36.145  29.160   7.655
 7767POPC   C1B30043  35.992  28.941   8.555
 7767POPC   C2B30044  35.948  29.009   8.255
 7767POPC   C3B30045  35.901  28.932   7.955
 7767POPC   C4B30046  35.972  28.973   7.655
 7768POPC   NC330047  32.267  29.111   9.455
 7768POPC   PO430048  32.242  29.163   9.155
 7768POPC   GL130049  32.272  29.144   8.855
 7768POPC   GL230050  32.186  28.997   8.855
 7768POPC   C1A30051  32.282  29.121   8.555
 7768POPC   D2A30052  32.262  29.159   8.255
 7768POPC   C3A30053  32.210  29.132   7.955
 7768POPC   C4A30054  32.235  29.156   7.655
 7768POPC   C1B30055  32.123  28.897   8.555
 7768POPC   C2B30056  32.141  28.893   8.255
 7768POPC   C3B30057  32.077  28.935   7.955
 7768POPC   C4B30058  32.116  28.957   7.655
 7769POPC   NC330059  12.837  31.477   9.455
 7769POPC   PO430060  12.845  31.450   9.155
 7769POPC   GL130061  12.870  31.441   8.855
 7769POPC   GL230062  12.844  31.368   8.855
 7769POPC   C1A30063  12.882  31.444   8.555
 7769POPC   D2A30064  12.841  31.463   8.255
 7769POPC   C3A30065  12.836  31.519   7.955
 7769POPC   C4A30066  12.843  31.466   7.655
 7769POPC   C1B30067  12.903  31.235   8.555
 7769POPC   C2B30068  12.939  31.230   8.255
 7769POPC   C3B30069  12.926  31.242   7.955
 7769POPC   C4B30070  12.925  31.194   7.655
 7770POPC   NC330071  11.262   8.189   9.455
 7770POPC   PO430072  11.300   8.150   9.155
 7770POPC   GL130073  11.331   8.230   8.855
 7770POPC   GL230074  11.251   8.151   8.855
 7770POPC   C1A30075  11.324   8.244   8.555
 7770POPC   D2A30076  11.326   8.165   8.255
 7770POPC   C3A30077  11.277   8.218   7.955
 7770POPC   C4A30078  11.348   8.166   7.655
 7770POPC   C1B30079  11.145   8.020   8.555
 7770POPC   C2B30080  11.128   8.005   8.255
 7770POPC   C3B30081  11.111   8.058   7.955
 7770POPC   C4B30082  11.161   8.006   7.655
 7771POPC   NC330083  38.425   5.826   9.455
 7771POPC   PO430084  38.500   5.908   9.155
 7771POPC   GL130085  38.405   5.913   8.855
 7771POPC   GL230086  38.552   5.871   8.855
 7771POPC   C1A30087  38.466   5.860   8.555
 7771POPC   D2A30088  38.420   5.822   8.255
 7771POPC   C3A30089  38.461   5.891   7.955
 7771POPC   C4A30090  38.433   5.823   7.655
 7771POPC   C1B30091  38.723   5.799   8.555
 7771POPC   C2B30092  38.736   5.793   8.255
 7771POPC   C3B30093  38.696   5.825   7.955
 7771POPC   C4B30094  38.706   5.872   7.655
 7772POPC   NC330095  17.501   0.444   9.455
 7772POPC   PO430096  17.500   0.439   9.155
 7772POPC   GL130097  17.473   0.445   8.855
 7772POPC   GL230098  17.553   0.289   8.855
 7772POPC   C1A30099  17.557   0.392   8.555
 7772POPC   D2A30100  17.509   0.393   8.255
 7772POPC   C3A30101  17.556   0.466   7.955
 7772POPC   C4A30102  17.494   0.397   7.655
 7772POPC   C1B30103  17.601   0.248   8.555
 7772POPC   C2B30104  17.594   0.171   8.255
 7772POPC   C3B30105  17.629   0.178   7.955
 7772POPC   C4B30106  17.612   0.228   7.655
 7773POPC   NC330107  12.030  42.326   9.455
 7773POPC   PO430108  12.095  42.369   9.155
 7773POPC   GL130109  12.045  42.291   8.855
 7773POPC   GL230110  12.171  42.355   8.855
 7773POPC   C1A30111  12.047  42.313   8.555
 7773POPC   D2A30112  12.075  42.344   8.255
 7773POPC   C3A30113  12.117  42.334   7.955
 7773POPC   C4A30114  12.051  42.330   7.655
 7773POPC   C1B30115  12.318  42.330   8.555
 7773POPC   C2B30116  12.324  42.321   8.255
 7773POPC   C3B30117  12.360  42.312   7.955
 7773POPC   C4B30118  12.287  42.344   7.655
 7774POPC   NC330119  17.536  28.363   9.455
 7774POPC   PO430120  17.504  28.383   9.155
 7774POPC   GL130121  17.548  28.369   8.855
 7774POPC   GL230122  17.556  28.276   8.855
 7774POPC   C1A30123  17.505  28.322   8.555
 7774POPC   D2A30124  17.517  28.319   8.255
 7774POPC   C3A30125  17.522  28.389   7.955
 7774POPC   C4A30126  17.515  28.389   7.655
 7774POPC   C1B30127  17.539  28.121   8.555
 7774POPC   C2B30128  17.545  28.154   8.255
 7774POPC   C3B30129  17.519  28.121   7.955
 7774POPC   C4B30130  17.577  28.149   7.655
 7775POPC   NC330131  16.708  36.102   9.455
 7775POPC   PO430132  16.770  36.110   9.155
 7775POPC   GL130133  16.727  36.089   8.855
 7775POPC   GL230134  16.822  36.001   8.855
 7775POPC   C1A30135  16.752  36.102   8.555
 7775POPC   D2A30136  16.722  36.126   8.255
 7775POPC   C3A30137  16.758  36.124   7.955
 7775POPC   C4A30138  16.778  36.099   7.655
 7775POPC   C1B30139  16.969  36.001   8.555
 7775POPC   C2B30140  16.969  35.995   8.255
 7775POPC   C3B30141  16.909  35.993   7.955
 7775POPC   C4B30142  16.896  35.999   7.655
 7776POPC   NC330143  42.308   9.772   9.455
 7776POPC   PO430144  42.305   9.749   9.155
 7776POPC   GL130145  42.312   9.713   8.855
 7776POPC   GL230146  42.388   9.822   8.855
 7776POPC   C1A30147  42.358   9.736   8.555
 7776POPC   D2A30148  42.371   9.731   8.255
 7776POPC   C3A30149  42.375   9.711   7.955
 7776POPC   C4A30150  42.378   9.755   7.655
 7776POPC   C1B30151  42.407   9.997   8.555
 7776POPC   C2B30152  42.485  10.015   8.255
 7776POPC   C3B30153  42.431   9.954   7.955
 7776POPC   C4B30154  42.488   9.951   7.655
 7777POPC   NC330155  36.171  15.155   9.455
 7777POPC   PO430156  36.113  15.201   9.155
 7777POPC   GL130157  36.088  15.132   8.855
 7777POPC   GL230158  35.994  15.084   8.855
 7777POPC   C1A30159  36.099  15.175   8.555
 7777POPC   D2A30160  36.122  15.185   8.255
 7777POPC   C3A30161  36.096  15.223   7.955
 7777POPC   C4A30162  36.168  15.224   7.655
 7777POPC   C1B30163  35.864  15.041   8.555
 7777POPC   C2B30164  35.876  15.047   8.255
 7777POPC   C3B30165  35.923  15.054   7.955
 7777POPC   C4B30166  35.925  15.054   7.655
 7778POPC   NC330167  35.331  38.443   9.455
 7778POPC   PO430168  35.325  38.443   9.155
 7778POPC   GL130169  35.380  38.486   8.855
 7778POPC   GL230170  35.217  38.379   8.855
 7778POPC   C1A30171  35.331  38.416   8.555
 7778POPC   D2A30172  35.332  38.459   8.255
 7778POPC   C3A30173  35.339  38.462   7.955
 7778POPC   C4A30174  35.328  38.420   7.655
 7778POPC   C1B30175  35.135  38.332   8.555
 7778POPC   C2B30176  35.162  38.352   8.255
 7778POPC   C3B30177  35.168  38.333   7.955
 7778POPC   C4B30178  35.117  38.377   7.655
 7779POPC   NC330179  23.706  19.877   9.455
 7779POPC   PO430180  23.729  19.848   9.155
 7779POPC   GL130181  23.691  19.853   8.855
 7779POPC   GL230182  23.661  20.005   8.855
 7779POPC   C1A30183  23.732  19.800   8.555
 7779POPC   D2A30184  23.681  19.841   8.255
 7779POPC   C3A30185  23.759  19.845   7.955
 7779POPC   C4A30186  23.715  19.838   7.655
 7779POPC   C1B30187  23.667  20.106   8.555
 7779POPC   C2B30188  23.624  20.068   8.255
 7779POPC   C3B30189  23.686  20.055   7.955
 7779POPC   C4B30190  23.696  20.084   7.655
 7780POPC   NC330191  35.371   1.205   9.455
 7780POPC   PO430192  35.342   1.166   9.155
 7780POPC   GL130193  35.314   1.200   8.855
 7780POPC   GL230194  35.372   1.336   8.855
 7780POPC   C1A30195  35.381   1.204   8.555
 7780POPC   D2A30196  35.392   1.242   8.255
 7780POPC   C3A30197  35.391   1.180   7.955
 7780POPC   C4A30198  35.384   1.176   7.655
 7780POPC   C1B30199  35.358   1.509   8.555
 7780POPC   C2B30200  35.438   1.507   8.255
 7780POPC   C3B30201  35.419   1.429   7.955
 7780POPC   C4B30202  35.388   1.473   7.655
 7781POPC   NC330203  44.642  10.492   9.455
 7781POPC   PO430204  44.627  10.555   9.155
 7781POPC   GL130205  44.710  10.565   8.855
 7781POPC   GL230206  44.726  10.418   8.855
 7781POPC   C1A30207  44.629  10.517   8.555
 7781POPC   D2A30208  44.665  10.511   8.255
 7781POPC   C3A30209  44.700  10.491   7.955
 7781POPC   C4A30210  44.642  10.558   7.655
 7781POPC   C1B30211  44.730  10.285   8.555
 7781POPC   C2B30212  44.805  10.289   8.255
 7781POPC   C3B30213  44.757  10.304   7.955
 7781POPC   C4B30214  44.735  10.301   7.655
 7782POPC   NC330215  12.119  30.701   9.455
 7782POPC   PO430216  12.093  30.695   9.155
 7782POPC   GL130217  12.098  30.663   8.855
 7782POPC   GL230218  12.214  30.808   8.855
 7782POPC   C1A30219  12.059  30.677   8.555
 7782POPC   D2A30220  12.056  30.707   8.255
 7782POPC   C3A30221  12.105  30.705   7.955
 7782POPC   C4A30222  12.112  30.648   7.655
 7782POPC   C1B30223  12.252  30.868   8.555
 7782POPC   C2B30224  12.295  30.846   8.255
 7782POPC   C3B30225  12.278  30.910   7.955
 7782POPC   C4B30226  12.219  30.814   7.655
 7783POPC   NC330227  27.600  10.498   9.455
 7783POPC   PO430228  27.598  10.561   9.155
 7783POPC   GL130229  27.583  10.493   8.855
 7783POPC   GL230230  27.579  10.606   8.855
 7783POPC   C1A30231  27.638  10.498   8.555
 7783POPC   D2A30232  27.617  10.515   8.255
 7783POPC   C3A30233  27.619  10.564   7.955
 7783POPC   C4A30234  27.576  10.508   7.655
 7783POPC   C1B30235  27.603  10.803   8.555
 7783POPC   C2B30236  27.565  10.806   8.255
 7783POPC   C3B30237  27.537  10.795   7.955
 7783POPC   C4B30238  27.571  10.803   7.655
 7784POPC   NC330239  42.343  36.108   9.455
 7784POPC   PO430240  42.323  36.094   9.155
 7784POPC   GL130241  42.325  36.143   8.855
 7784POPC   GL230242  42.275  36.238   8.855
 7784POPC   C1A30243  42.289  36.155   8.555
 7784POPC   D2A30244  42.350  36.123   8.255
 7784POPC   C3A30245  42.364  36.132   7.955
 7784POPC   C4A30246  42.306  36.172   7.655
 7784POPC   C1B30247  42.311  36.375   8.555
 7784POPC   C2B30248  42.301  36.418   8.255
 7784POPC   C3B30249  42.316  36.387   7.955
 7784POPC   C4B30250  42.276  36.359   7.655
 7785POPC   NC330251  22.987  40.791   9.455
 7785POPC   PO430252  22.978  40.751   9.155
 7785POPC   GL130253  22.987  40.744   8.855
 7785POPC   GL230254  22.951  40.954   8.855
 7785POPC   C1A30255  22.905  40.807   8.555
 7785POPC   D2A30256  22.979  40.796   8.255
 7785POPC   C3A30257  22.890  40.739   7.955
 7785POPC   C4A30258  22.969  40.795   7.655
 7785POPC   C1B30259  23.004  41.049   8.555
 7785POPC   C2B30260  22.978  40.992   8.255
 7785POPC   C3B30261  22.939  41.058   7.955
 7785POPC   C4B30262  22.999  41.003   7.655
 7786POPC   NC330263  26.771   3.562   9.455
 7786POPC   PO430264  26.855   3.506   9.155
 7786POPC   GL130265  26.852   3.587   8.855
 7786POPC   GL230266  26.863   3.617   8.855
 7786POPC   C1A30267  26.854   3.555   8.555
 7786POPC   D2A30268  26.771   3.517   8.255
 7786POPC   C3A30269  26.833   3.577   7.955
 7786POPC   C4A30270  26.820   3.526   7.655
 7786POPC   C1B30271  26.936   3.780   8.555
 7786POPC   C2B30272  26.910   3.800   8.255
 7786POPC   C3B30273  26.936   3.804   7.955
 7786POPC   C4B30274  26.929   3.787   7.655
 7787POPC   NC330275   5.066  26.815   9.455
 7787POPC   PO430276   5.096  26.859   9.155
 7787POPC   GL130277   5.045  26.865   8.855
 7787POPC   GL230278   5.221  26.941   8.855
 7787POPC   C1A30279   5.138  26.793   8.555
 7787POPC   D2A30280   5.129  26.839   8.255
 7787POPC   C3A30281   5.097  26.774   7.955
 7787POPC   C4A30282   5.105  26.802   7.655
 7787POPC   C1B30283   5.222  26.978   8.555
 7787POPC   C2B30284   5.245  26.990   8.255
 7787POPC   C3B30285   5.274  27.011   7.955
 7787POPC   C4B30286   5.285  27.024   7.655
 7788POPC   NC330287  35.373  14.442   9.455
 7788POPC   PO430288  35.391  14.372   9.155
 7788POPC   GL130289  35.380  14.404   8.855
 7788POPC   GL230290  35.442  14.450   8.855
 7788POPC   C1A30291  35.313  14.355   8.555
 7788POPC   D2A30292  35.331  14.366   8.255
 7788POPC   C3A30293  35.315  14.373   7.955
 7788POPC   C4A30294  35.344  14.442   7.655
 7788POPC   C1B30295  35.609  14.559   8.555
 7788POPC   C2B30296  35.573  14.480   8.255
 7788POPC   C3B30297  35.532  14.531   7.955
 7788POPC   C4B30298  35.578  14.469   7.655
 7789POPC   NC330299  29.108  35.401   9.455
 7789POPC   PO430300  29.146  35.336   9.155
 7789POPC   GL130301  29.181  35.311   8.855
 7789POPC   GL230302  29.075  35.308   8.855
 7789POPC   C1A30303  29.126  35.311   8.555
 7789POPC   D2A30304  29.131  35.400   8.255
 7789POPC   C3A30305  29.134  35.356   7.955
 7789POPC   C4A30306  29.179  35.357   7.655
 7789POPC   C1B30307  28.930  35.204   8.555
 7789POPC   C2B30308  28.882  35.247   8.255
 7789POPC   C3B30309  28.941  35.241   7.955
 7789POPC   C4B30310  28.925  35.224   7.655
 7790POPC   NC330311  40.000  37.712   9.455
 7790POPC   PO430312  40.031  37.637   9.155
 7790POPC   GL130313  40.047  37.678   8.855
 7790POPC   GL230314  39.988  37.607   8.855
 7790POPC   C1A30315  40.041  37.656   8.555
 7790POPC   D2A30316  40.013  37.691   8.255
 7790POPC   C3A30317  40.030  37.698   7.955
 7790POPC   C4A30318  40.044  37.723   7.655
 7790POPC   C1B30319  39.880  37.439   8.555
 7790POPC   C2B30320  39.876  37.427   8.255
 7790POPC   C3B30321  39.912  37.482   7.955
 7790POPC   C4B30322  39.903  37.419   7.655
 7791POPC   NC330323   5.054  15.947   9.455
 7791POPC   PO430324   5.096  15.977   9.155
 7791POPC   GL130325   5.096  15.976   8.855
 7791POPC   GL230326   5.185  15.897   8.855
 7791POPC   C1A30327   5.074  15.994   8.555
 7791POPC   D2A30328   5.136  15.929   8.255
 7791POPC   C3A30329   5.114  15.932   7.955
 7791POPC   C4A30330   5.058  16.003   7.655
 7791POPC   C1B30331   5.240  15.750   8.555
 7791POPC   C2B30332   5.221  15.712   8.255
 7791POPC   C3B30333   5.249  15.776   7.955
 7791POPC   C4B30334   5.214  15.796   7.655
 7792POPC   NC330335  32.278   2.738   9.455
 7792POPC   PO430336  32.201   2.767   9.155
 7792POPC   GL130337  32.223   2.802   8.855
 7792POPC   GL230338  32.167   2.898   8.855
 7792POPC   C1A30339  32.285   2.762   8.555
 7792POPC   D2A30340  32.223   2.719   8.255
 7792POPC   C3A30341  32.263   2.718   7.955
 7792POPC   C4A30342  32.221   2.778   7.655
 7792POPC   C1B30343  32.135   2.933   8.555
 7792POPC   C2B30344  32.129   2.984   8.255
 7792POPC   C3B30345  32.075   2.926   7.955
 7792POPC   C4B30346  32.149   3.000   7.655
 7793POPC   NC330347  10.570  39.986   9.455
 7793POPC   PO430348  10.570  39.997   9.155
 7793POPC   GL130349  10.474  39.992   8.855
 7793POPC   GL230350  10.548  39.911   8.855
 7793POPC   C1A30351  10.566  39.993   8.555
 7793POPC   D2A30352  10.502  40.010   8.255
 7793POPC   C3A30353  10.503  40.034   7.955
 7793POPC   C4A30354  10.553  39.989   7.655
 7793POPC   C1B30355  10.448  39.782   8.555
 7793POPC   C2B30356  10.509  39.807   8.255
 7793POPC   C3B30357  10.464  39.779   7.955
 7793POPC   C4B30358  10.524  39.761   7.655
 7794POPC   NC330359  39.276  23.674   9.455
 7794POPC   PO430360  39.232  23.759   9.155
 7794POPC   GL130361  39.193  23.761   8.855
 7794POPC   GL230362  39.118  23.620   8.855
 7794POPC   C1A30363  39.201  23.685   8.555
 7794POPC   D2A30364  39.201  23.754   8.255
 7794POPC   C3A30365  39.252  23.745   7.955
 7794POPC   C4A30366  39.214  23.683   7.655
 7794POPC   C1B30367  39.011  23.637   8.555
 7794POPC   C2B30368  39.006  23.547   8.255
 7794POPC   C3B30369  39.008  23.618   7.955
 7794POPC   C4B30370  38.984  23.605   7.655
 7795POPC   NC330371  19.012  38.407   9.455
 7795POPC   PO430372  19.009  38.474   9.155
 7795POPC   GL130373  19.034  38.408   8.855
 7795POPC   GL230374  19.021  38.561   8.855
 7795POPC   C1A30375  19.101  38.412   8.555
 7795POPC   D2A30376  19.095  38.408   8.255
 7795POPC   C3A30377  19.089  38.411   7.955
 7795POPC   C4A30378  19.095  38.455   7.655
 7795POPC   C1B30379  18.905  38.721   8.555
 7795POPC   C2B30380  18.988  38.705   8.255
 7795POPC   C3B30381  18.942  38.679   7.955
 7795POPC   C4B30382  18.941  38.715   7.655
 7796POPC   NC330383  26.054  36.094   9.455
 7796POPC   PO430384  26.021  36.152   9.155
 7796POPC   GL130385  26.024  36.164   8.855
 7796POPC   GL230386  26.135  36.209   8.855
 7796POPC   C1A30387  25.994  36.174   8.555
 7796POPC   D2A30388  26.066  36.138   8.255
 7796POPC   C3A30389  26.011  36.162   7.955
 7796POPC   C4A30390  26.066  36.093   7.655
 7796POPC   C1B30391  26.268  36.259   8.555
 7796POPC   C2B30392  26.306  36.229   8.255
 7796POPC   C3B30393  26.264  36.249   7.955
 7796POPC   C4B30394  26.285  36.227   7.655
 7797POPC   NC330395   7.435  35.311   9.455
 7797POPC   PO430396   7.413  35.305   9.155
 7797POPC   GL130397   7.449  35.324   8.855
 7797POPC   GL230398   7.421  35.212   8.855
 7797POPC   C1A30399   7.467  35.392   8.555
 7797POPC   D2A30400   7.393  35.317   8.255
 7797POPC   C3A30401   7.393  35.327   7.955
 7797POPC   C4A30402   7.462  35.344   7.655
 7797POPC   C1B30403   7.356  35.151   8.555
 7797POPC   C2B30404   7.339  35.094   8.255
 7797POPC   C3B30405   7.323  35.079   7.955
 7797POPC   C4B30406   7.313  35.136   7.655
 7798POPC   NC330407  28.322  32.236   9.455
 7798POPC   PO430408  28.392  32.203   9.155
 7798POPC   GL130409  28.399  32.230   8.855
 7798POPC   GL230410  28.487  32.233   8.855
 7798POPC   C1A30411  28.353  32.254   8.555
 7798POPC   D2A30412  28.386  32.248   8.255
 7798POPC   C3A30413  28.396  32.259   7.955
 7798POPC   C4A30414  28.383  32.288   7.655
 7798POPC   C1B30415  28.568  32.174   8.555
 7798POPC   C2B30416  28.634  32.213   8.255
 7798POPC   C3B30417  28.635  32.218   7.955
 7798POPC   C4B30418  28.621  32.194   7.655
 7799POPC   NC330419  16.757  29.926   9.455
 7799POPC   PO430420  16.712  29.941   9.155
 7799POPC   GL130421  16.693  29.882   8.855
 7799POPC   GL230422  16.613  30.036   8.855
 7799POPC   C1A30423  16.697  29.941   8.555
 7799POPC   D2A30424  16.752  29.914   8.255
 7799POPC   C3A30425  16.742  29.876   7.955
 7799POPC   C4A30426  16.710  29.933   7.655
 7799POPC   C1B30427  16.545  30.163   8.555
 7799POPC   C2B30428  16.539  30.152   8.255
 7799POPC   C3B30429  16.636  30.085   7.955
 7799POPC   C4B30430  16.579  30.127   7.655
 7800POPC   NC330431  33.001   2.718   9.455
 7800POPC   PO430432  32.983   2.759   9.155
 7800POPC   GL130433  32.987   2.735   8.855
 7800POPC   GL230434  33.076   2.694   8.855
 7800POPC   C1A30435  33.039   2.724   8.555
 7800POPC   D2A30436  33.002   2.733   8.255
 7800POPC   C3A30437  33.059   2.799   7.955
 7800POPC   C4A30438  32.992   2.718   7.655
 7800POPC   C1B30439  33.089   2.504   8.555
 7800POPC   C2B30440  33.147   2.575   8.255
 7800POPC   C3B30441  33.156   2.547   7.955
 7800POPC   C4B30442  33.158   2.519   7.655
 7801POPC   NC330443  33.020  17.467   9.455
 7801POPC   PO430444  33.018  17.534   9.155
 7801POPC   GL130445  33.069  17.538   8.855
 7801POPC   GL230446  33.023  17.374   8.855
 7801POPC   C1A30447  33.001  17.499   8.555
 7801POPC   D2A30448  33.071  17.547   8.255
 7801POPC   C3A30449  33.072  17.460   7.955
 7801POPC   C4A30450  33.035  17.546   7.655
 7801POPC   C1B30451  33.100  17.227   8.555
 7801POPC   C2B30452  33.072  17.299   8.255
 7801POPC   C3B30453  33.104  17.269   7.955
 7801POPC   C4B30454  33.139  17.271   7.655
 7802POPC   NC330455   9.778  37.647   9.455
 7802POPC   PO430456   9.762  37.713   9.155
 7802POPC   GL130457   9.723  37.712   8.855
 7802POPC   GL230458   9.796  37.547   8.855
 7802POPC   C1A30459   9.780  37.680   8.555
 7802POPC   D2A30460   9.701  37.721   8.255
 7802POPC   C3A30461   9.700  37.678   7.955
 7802POPC   C4A30462   9.781  37.658   7.655
 7802POPC   C1B30463   9.906  37.533   8.555
 7802POPC   C2B30464   9.887  37.487   8.255
 7802POPC   C3B30465   9.892  37.508   7.955
 7802POPC   C4B30466   9.960  37.531   7.655
 7803POPC   NC330467  20.623  37.650   9.455
 7803POPC   PO430468  20.628  37.724   9.155
 7803POPC   GL130469  20.589  37.721   8.855
 7803POPC   GL230470  20.685  37.778   8.855
 7803POPC   C1A30471  20.646  37.661   8.555
 7803POPC   D2A30472  20.625  37.643   8.255
 7803POPC   C3A30473  20.612  37.726   7.955
 7803POPC   C4A30474  20.659  37.664   7.655
 7803POPC   C1B30475  20.739  37.880   8.555
 7803POPC   C2B30476  20.796  37.920   8.255
 7803POPC   C3B30477  20.735  37.876   7.955
 7803POPC   C4B30478  20.780  37.895   7.655
 7804POPC   NC330479  35.364   2.036   9.455
 7804POPC   PO430480  35.338   2.021   9.155
 7804POPC   GL130481  35.308   2.025   8.855
 7804POPC   GL230482  35.234   1.941   8.855
 7804POPC   C1A30483  35.349   1.954   8.555
 7804POPC   D2A30484  35.343   2.039   8.255
 7804POPC   C3A30485  35.338   1.995   7.955
 7804POPC   C4A30486  35.359   1.996   7.655
 7804POPC   C1B30487  35.069   1.998   8.555
 7804POPC   C2B30488  35.087   1.971   8.255
 7804POPC   C3B30489  35.136   1.996   7.955
 7804POPC   C4B30490  35.085   1.910   7.655
 7805POPC   NC330491  34.534  26.083   9.455
 7805POPC   PO430492  34.563  26.001   9.155
 7805POPC   GL130493  34.570  26.018   8.855
 7805POPC   GL230494  34.655  26.065   8.855
 7805POPC   C1A30495  34.589  26.038   8.555
 7805POPC   D2A30496  34.616  26.068   8.255
 7805POPC   C3A30497  34.606  25.994   7.955
 7805POPC   C4A30498  34.619  26.013   7.655
 7805POPC   C1B30499  34.821  26.008   8.555
 7805POPC   C2B30500  34.844  26.000   8.255
 7805POPC   C3B30501  34.873  26.004   7.955
 7805POPC   C4B30502  34.833  26.034   7.655
 7806POPC   NC330503  25.996  35.308   9.455
 7806POPC   PO430504  26.075  35.349   9.155
 7806POPC   GL130505  26.000  35.303   8.855
 7806POPC   GL230506  25.998  35.197   8.855
 7806POPC   C1A30507  26.041  35.341   8.555
 7806POPC   D2A30508  26.068  35.399   8.255
 7806POPC   C3A30509  25.992  35.356   7.955
 7806POPC   C4A30510  25.995  35.386   7.655
 7806POPC   C1B30511  25.923  35.117   8.555
 7806POPC   C2B30512  25.923  35.072   8.255
 7806POPC   C3B30513  26.013  35.099   7.955
 7806POPC   C4B30514  25.992  35.070   7.655
 7807POPC   NC330515  29.133   8.161   9.455
 7807POPC   PO430516  29.190   8.163   9.155
 7807POPC   GL130517  29.142   8.229   8.855
 7807POPC   GL230518  29.259   8.319   8.855
 7807POPC   C1A30519  29.173   8.207   8.555
 7807POPC   D2A30520  29.114   8.211   8.255
 7807POPC   C3A30521  29.178   8.195   7.955
 7807POPC   C4A30522  29.133   8.245   7.655
 7807POPC   C1B30523  29.337   8.359   8.555
 7807POPC   C2B30524  29.351   8.428   8.255
 7807POPC   C3B30525  29.264   8.408   7.955
 7807POPC   C4B30526  29.296   8.353   7.655
 7808POPC   NC330527  41.542  34.537   9.455
 7808POPC   PO430528  41.519  34.607   9.155
 7808POPC   GL130529  41.540  34.547   8.855
 7808POPC   GL230530  41.654  34.728   8.855
 7808POPC   C1A30531  41.604  34.535   8.555
 7808POPC   D2A30532  41.533  34.553   8.255
 7808POPC   C3A30533  41.569  34.586   7.955
 7808POPC   C4A30534  41.539  34.569   7.655
 7808POPC   C1B30535  41.674  34.844   8.555
 7808POPC   C2B30536  41.614  34.766   8.255
 7808POPC   C3B30537  41.680  34.846   7.955
 7808POPC   C4B30538  41.656  34.764   7.655
 7809POPC   NC330539  14.447   4.338   9.455
 7809POPC   PO430540  14.437   4.347   9.155
 7809POPC   GL130541  14.424   4.321   8.855
 7809POPC   GL230542  14.243   4.367   8.855
 7809POPC   C1A30543  14.394   4.272   8.555
 7809POPC   D2A30544  14.443   4.364   8.255
 7809POPC   C3A30545  14.368   4.316   7.955
 7809POPC   C4A30546  14.428   4.339   7.655
 7809POPC   C1B30547  14.157   4.407   8.555
 7809POPC   C2B30548  14.177   4.366   8.255
 7809POPC   C3B30549  14.181   4.414   7.955
 7809POPC   C4B30550  14.207   4.388   7.655
 7810POPC   NC330551   5.824   5.857   9.455
 7810POPC   PO430552   5.877   5.905   9.155
 7810POPC   GL130553   5.861   5.865   8.855
 7810POPC   GL230554   5.946   5.863   8.855
 7810POPC   C1A30555   5.909   5.827   8.555
 7810POPC   D2A30556   5.877   5.876   8.255
 7810POPC   C3A30557   5.895   5.825   7.955
 7810POPC   C4A30558   5.825   5.834   7.655
 7810POPC   C1B30559   6.114   5.824   8.555
 7810POPC   C2B30560   6.149   5.798   8.255
 7810POPC   C3B30561   6.093   5.811   7.955
 7810POPC   C4B30562   6.096   5.819   7.655
 7811POPC   NC330563  34.612  42.343   9.455
 7811POPC   PO430564  34.531  42.335   9.155
 7811POPC   GL130565  34.534  42.333   8.855
 7811POPC   GL230566  34.671  42.428   8.855
 7811POPC   C1A30567  34.561  42.340   8.555
 7811POPC   D2A30568  34.605  42.312   8.255
 7811POPC   C3A30569  34.527  42.327   7.955
 7811POPC   C4A30570  34.544  42.371   7.655
 7811POPC   C1B30571  34.785  42.512   8.555
 7811POPC   C2B30572  34.750  42.514   8.255
 7811POPC   C3B30573  34.748  42.503   7.955
 7811POPC   C4B30574  34.756  42.544   7.655
 7812POPC   NC330575  12.122   4.304   9.455
 7812POPC   PO430576  12.075   4.312   9.155
 7812POPC   GL130577  12.031   4.332   8.855
 7812POPC   GL230578  12.121   4.210   8.855
 7812POPC   C1A30579  12.065   4.305   8.555
 7812POPC   D2A30580  12.046   4.335   8.255
 7812POPC   C3A30581  12.122   4.315   7.955
 7812POPC   C4A30582  12.098   4.271   7.655
 7812POPC   C1B30583  12.149   4.142   8.555
 7812POPC   C2B30584  12.164   4.074   8.255
 7812POPC   C3B30585  12.142   4.079   7.955
 7812POPC   C4B30586  12.171   4.071   7.655
 7813POPC   NC330587  12.874  19.076   9.455
 7813POPC   PO430588  12.841  19.071   9.155
 7813POPC   GL130589  12.901  19.011   8.855
 7813POPC   GL230590  12.889  19.223   8.855
 7813POPC   C1A30591  12.831  19.052   8.555
 7813POPC   D2A30592  12.879  19.029   8.255
 7813POPC   C3A30593  12.845  19.091   7.955
 7813POPC   C4A30594  12.895  19.052   7.655
 7813POPC   C1B30595  12.881  19.329   8.555
 7813POPC   C2B30596  12.843  19.327   8.255
 7813POPC   C3B30597  12.826  19.287   7.955
 7813POPC   C4B30598  12.849  19.271   7.655
 7814POPC   NC330599  33.839  30.742   9.455
 7814POPC   PO430600  33.841  30.660   9.155
 7814POPC   GL130601  33.847  30.722   8.855
 7814POPC   GL230602  33.720  30.595   8.855
 7814POPC   C1A30603  33.785  30.746   8.555
 7814POPC   D2A30604  33.814  30.745   8.255
 7814POPC   C3A30605  33.759  30.729   7.955
 7814POPC   C4A30606  33.822  30.712   7.655
 7814POPC   C1B30607  33.673  30.440   8.555
 7814POPC   C2B30608  33.744  30.416   8.255
 7814POPC   C3B30609  33.745  30.485   7.955
 7814POPC   C4B30610  33.747  30.461   7.655
 7815POPC   NC330611   0.468  24.449   9.455
 7815POPC   PO430612   0.388  24.523   9.155
 7815POPC   GL130613   0.408  24.526   8.855
 7815POPC   GL230614   0.557  24.482   8.855
 7815POPC   C1A30615   0.392  24.517   8.555
 7815POPC   D2A30616   0.447  24.448   8.255
 7815POPC   C3A30617   0.485  24.488   7.955
 7815POPC   C4A30618   0.440  24.462   7.655
 7815POPC   C1B30619   0.722  24.410   8.555
 7815POPC   C2B30620   0.683  24.397   8.255
 7815POPC   C3B30621   0.724  24.393   7.955
 7815POPC   C4B30622   0.720  24.441   7.655
 7816POPC   NC330623   0.480  31.498   9.455
 7816POPC   PO430624   0.409  31.442   9.155
 7816POPC   GL130625   0.437  31.502   8.855
 7816POPC   GL230626   0.409  31.327   8.855
 7816POPC   C1A30627   0.423  31.465   8.555
 7816POPC   D2A30628   0.398  31.428   8.255
 7816POPC   C3A30629   0.445  31.497   7.955
 7816POPC   C4A30630   0.487  31.425   7.655
 7816POPC   C1B30631   0.347  31.199   8.555
 7816POPC   C2B30632   0.307  31.205   8.255
 7816POPC   C3B30633   0.319  31.271   7.955
 7816POPC   C4B30634   0.379  31.287   7.655
 7817POPC   NC330635   0.413  13.626   9.455
 7817POPC   PO430636   0.418  13.653   9.155
 7817POPC   GL130637   0.474  13.599   8.855
 7817POPC   GL230638   0.348  13.633   8.855
 7817POPC   C1A30639   0.391  13.582   8.555
 7817POPC   D2A30640   0.412  13.591   8.255
 7817POPC   C3A30641   0.417  13.639   7.955
 7817POPC   C4A30642   0.464  13.674   7.655
 7817POPC   C1B30643   0.163  13.718   8.555
 7817POPC   C2B30644   0.241  13.721   8.255
 7817POPC   C3B30645   0.245  13.712   7.955
 7817POPC   C4B30646   0.159  13.751   7.655
 7818POPC   NC330647  29.176  29.186   9.455
 7818POPC   PO430648  29.190  29.158   9.155
 7818POPC   GL130649  29.106  29.171   8.855
 7818POPC   GL230650  29.194  29.268   8.855
 7818POPC   C1A30651  29.132  29.098   8.555
 7818POPC   D2A30652  29.169  29.160   8.255
 7818POPC   C3A30653  29.101  29.100   7.955
 7818POPC   C4A30654  29.129  29.099   7.655
 7818POPC   C1B30655  29.282  29.388   8.555
 7818POPC   C2B30656  29.282  29.329   8.255
 7818POPC   C3B30657  29.310  29.394   7.955
 7818POPC   C4B30658  29.293  29.409   7.655
 7819POPC   NC330659  39.975  12.868   9.455
 7819POPC   PO430660  40.011  12.875   9.155
 7819POPC   GL130661  40.032  12.812   8.855
 7819POPC   GL230662  39.923  12.730   8.855
 7819POPC   C1A30663  39.973  12.835   8.555
 7819POPC   D2A30664  39.990  12.849   8.255
 7819POPC   C3A30665  39.962  12.871   7.955
 7819POPC   C4A30666  40.054  12.841   7.655
 7819POPC   C1B30667  39.807  12.644   8.555
 7819POPC   C2B30668  39.825  12.727   8.255
 7819POPC   C3B30669  39.855  12.663   7.955
 7819POPC   C4B30670  39.821  12.683   7.655
 7820POPC   NC330671  14.385  43.924   9.455
 7820POPC   PO430672  14.394  43.870   9.155
 7820POPC   GL130673  14.372  43.895   8.855
 7820POPC   GL230674  14.295  43.786   8.855
 7820POPC   C1A30675  14.447  43.850   8.555
 7820POPC   D2A30676  14.376  43.931   8.255
 7820POPC   C3A30677  14.356  43.849   7.955
 7820POPC   C4A30678  14.451  43.922   7.655
 7820POPC   C1B30679  14.264  43.689   8.555
 7820POPC   C2B30680  14.313  43.682   8.255
 7820POPC   C3B30681  14.267  43.651   7.955
 7820POPC   C4B30682  14.308  43.718   7.655
 7821POPC   NC330683  19.822   1.241   9.455
 7821POPC   PO430684  19.791   1.172   9.155
 7821POPC   GL130685  19.873   1.242   8.855
 7821POPC   GL230686  19.847   1.074   8.855
 7821POPC   C1A30687  19.850   1.214   8.555
 7821POPC   D2A30688  19.881   1.249   8.255
 7821POPC   C3A30689  19.854   1.231   7.955
 7821POPC   C4A30690  19.837   1.218   7.655
 7821POPC   C1B30691  19.774   0.963   8.555
 7821POPC   C2B30692  19.812   0.974   8.255
 7821POPC   C3B30693  19.738   1.020   7.955
 7821POPC   C4B30694  19.736   0.941   7.655
 7822POPC   NC330695  37.634  29.894   9.455
 7822POPC   PO430696  37.701  29.897   9.155
 7822POPC   GL130697  37.640  29.947   8.855
 7822POPC   GL230698  37.749  29.893   8.855
 7822POPC   C1A30699  37.660  29.925   8.555
 7822POPC   D2A30700  37.652  29.937   8.255
 7822POPC   C3A30701  37.642  29.932   7.955
 7822POPC   C4A30702  37.670  29.896   7.655
 7822POPC   C1B30703  37.862  29.805   8.555
 7822POPC   C2B30704  37.889  29.831   8.255
 7822POPC   C3B30705  37.912  29.794   7.955
 7822POPC   C4B30706  37.875  29.779   7.655
 7823POPC   NC330707  29.098  25.278   9.455
 7823POPC   PO430708  29.164  25.256   9.155
 7823POPC   GL130709  29.169  25.278   8.855
 7823POPC   GL230710  29.208  25.351   8.855
 7823POPC   C1A30711  29.192  25.276   8.555
 7823POPC   D2A30712  29.140  25.253   8.255
 7823POPC   C3A30713  29.176  25.262   7.955
 7823POPC   C4A30714  29.173  25.306   7.655
 7823POPC   C1B30715  29.300  25.476   8.555
 7823POPC   C2B30716  29.363  25.431   8.255
 7823POPC   C3B30717  29.378  25.392   7.955
 7823POPC   C4B30718  29.375  25.476   7.655
 7824POPC   NC330719   5.061  11.332   9.455
 7824POPC   PO430720   5.060  11.287   9.155
 7824POPC   GL130721   5.104  11.345   8.855
 7824POPC   GL230722   4.949  11.336   8.855
 7824POPC   C1A30723   5.115  11.328   8.555
 7824POPC   D2A30724   5.140  11.298   8.255
 7824POPC   C3A30725   5.121  11.276   7.955
 7824POPC   C4A30726   5.117  11.295   7.655
 7824POPC   C1B30727   4.860  11.248   8.555
 7824POPC   C2B30728   4.863  11.294   8.255
 7824POPC   C3B30729   4.877  11.318   7.955
 7824POPC   C4B30730   4.863  11.309   7.655
 7825POPC   NC330731  15.956   4.277   9.455
 7825POPC   PO430732  15.953   4.314   9.155
 7825POPC   GL130733  16.003   4.314   8.855
 7825POPC   GL230734  15.988   4.439   8.855
 7825POPC   C1A30735  15.924   4.323   8.555
 7825POPC   D2A30736  15.942   4.289   8.255
 7825POPC   C3A30737  15.936   4.356   7.955
 7825POPC   C4A30738  15.907   4.367   7.655
 7825POPC   C1B30739  16.123   4.558   8.555
 7825POPC   C2B30740  16.070   4.524   8.255
 7825POPC   C3B30741  16.033   4.559   7.955
 7825POPC   C4B30742  16.102   4.583   7.655
 7826POPC   NC330743  22.137  12.894   9.455
 7826POPC   PO430744  22.133  12.827   9.155
 7826POPC   GL130745  22.151  12.865   8.855
 7826POPC   GL230746  22.228  12.783   8.855
 7826POPC   C1A30747  22.189  12.812   8.555
 7826POPC   D2A30748  22.207  12.840   8.255
 7826POPC   C3A30749  22.147  12.809   7.955
 7826POPC   C4A30750  22.154  12.899   7.655
 7826POPC   C1B30751  22.233  12.581   8.555
 7826POPC   C2B30752  22.247  12.584   8.255
 7826POPC   C3B30753  22.294  12.667   7.955
 7826POPC   C4B30754  22.212  12.581   7.655
 7827POPC   NC330755  12.068   0.414   9.455
 7827POPC   PO430756  12.111   0.396   9.155
 7827POPC   GL130757  12.124   0.445   8.855
 7827POPC   GL230758  11.953   0.488   8.855
 7827POPC   C1A30759  12.031   0.485   8.555
 7827POPC   D2A30760  12.044   0.399   8.255
 7827POPC   C3A30761  12.120   0.410   7.955
 7827POPC   C4A30762  12.091   0.481   7.655
 7827POPC   C1B30763  11.877   0.609   8.555
 7827POPC   C2B30764  11.827   0.608   8.255
 7827POPC   C3B30765  11.860   0.626   7.955
 7827POPC   C4B30766  11.835   0.600   7.655
 7828POPC   NC330767  10.493  26.026   9.455
 7828POPC   PO430768  10.485  26.009   9.155
 7828POPC   GL130769  10.486  26.035   8.855
 7828POPC   GL230770  10.357  25.984   8.855
 7828POPC   C1A30771  10.516  26.068   8.555
 7828POPC   D2A30772  10.565  26.086   8.255
 7828POPC   C3A30773  10.534  26.024   7.955
 7828POPC   C4A30774  10.499  26.019   7.655
 7828POPC   C1B30775  10.286  25.918   8.555
 7828POPC   C2B30776  10.257  25.946   8.255
 7828POPC   C3B30777  10.251  26.014   7.955
 7828POPC   C4B30778  10.327  25.939   7.655
 7829POPC   NC330779  11.296  14.388   9.455
 7829POPC   PO430780  11.349  14.409   9.155
 7829POPC   GL130781  11.311  14.363   8.855
 7829POPC   GL230782  11.302  14.493   8.855
 7829POPC   C1A30783  11.309  14.384   8.555
 7829POPC   D2A30784  11.306  14.396   8.255
 7829POPC   C3A30785  11.323  14.366   7.955
 7829POPC   C4A30786  11.300  14.444   7.655
 7829POPC   C1B30787  11.348  14.698   8.555
 7829POPC   C2B30788  11.331  14.634   8.255
 7829POPC   C3B30789  11.307  14.646   7.955
 7829POPC   C4B30790  11.341  14.604   7.655
 7830POPC   NC330791  22.916  16.003   9.455
 7830POPC   PO430792  22.952  15.989   9.155
 7830POPC   GL130793  22.950  15.967   8.855
 7830POPC   GL230794  23.026  15.859   8.855
 7830POPC   C1A30795  22.973  15.919   8.555
 7830POPC   D2A30796  22.895  15.964   8.255
 7830POPC   C3A30797  22.927  15.953   7.955
 7830POPC   C4A30798  22.945  15.960   7.655
 7830POPC   C1B30799  23.106  15.768   8.555
 7830POPC   C2B30800  23.156  15.787   8.255
 7830POPC   C3B30801  23.073  15.812   7.955
 7830POPC   C4B30802  23.156  15.738   7.655
 7831POPC   NC330803  22.951  16.726   9.455
 7831POPC   PO430804  22.980  16.710   9.155
 7831POPC   GL130805  22.970  16.693   8.855
 7831POPC   GL230806  23.011  16.840   8.855
 7831POPC   C1A30807  22.967  16.713   8.555
 7831POPC   D2A30808  22.966  16.723   8.255
 7831POPC   C3A30809  22.920  16.773   7.955
 7831POPC   C4A30810  22.967  16.752   7.655
 7831POPC   C1B30811  23.089  16.873   8.555
 7831POPC   C2B30812  23.088  16.877   8.255
 7831POPC   C3B30813  23.122  16.893   7.955
 7831POPC   C4B30814  23.098  16.881   7.655
 7832POPC   NC330815   0.446  19.836   9.455
 7832POPC   PO430816   0.473  19.852   9.155
 7832POPC   GL130817   0.395  19.835   8.855
 7832POPC   GL230818   0.358  19.903   8.855
 7832POPC   C1A30819   0.420  19.882   8.555
 7832POPC   D2A30820   0.456  19.854   8.255
 7832POPC   C3A30821   0.444  19.880   7.955
 7832POPC   C4A30822   0.479  19.817   7.655
 7832POPC   C1B30823   0.283  20.013   8.555
 7832POPC   C2B30824   0.235  20.020   8.255
 7832POPC   C3B30825   0.239  20.040   7.955
 7832POPC   C4B30826   0.276  19.998   7.655
 7833POPC   NC330827   4.269  27.585   9.455
 7833POPC   PO430828   4.279  27.570   9.155
 7833POPC   GL130829   4.363  27.624   8.855
 7833POPC   GL230830   4.321  27.748   8.855
 7833POPC   C1A30831   4.286  27.576   8.555
 7833POPC   D2A30832   4.285  27.581   8.255
 7833POPC   C3A30833   4.274  27.579   7.955
 7833POPC   C4A30834   4.286  27.549   7.655
 7833POPC   C1B30835   4.242  27.826   8.555
 7833POPC   C2B30836   4.224  27.793   8.255
 7833POPC   C3B30837   4.279  27.875   7.955
 7833POPC   C4B30838   4.221  27.821   7.655
 7834POPC   NC330839  40.831   6.599   9.455
 7834POPC   PO430840  40.827   6.638   9.155
 7834POPC   GL130841  40.733   6.692   8.855
 7834POPC   GL230842  40.658   6.596   8.855
 7834POPC   C1A30843  40.748   6.617   8.555
 7834POPC   D2A30844  40.765   6.656   8.255
 7834POPC   C3A30845  40.746   6.606   7.955
 7834POPC   C4A30846  40.810   6.646   7.655
 7834POPC   C1B30847  40.571   6.553   8.555
 7834POPC   C2B30848  40.546   6.519   8.255
 7834POPC   C3B30849  40.604   6.555   7.955
 7834POPC   C4B30850  40.578   6.542   7.655
 7835POPC   NC330851  37.631  13.633   9.455
 7835POPC   PO430852  37.676  13.610   9.155
 7835POPC   GL130853  37.657  13.609   8.855
 7835POPC   GL230854  37.547  13.623   8.855
 7835POPC   C1A30855  37.672  13.592   8.555
 7835POPC   D2A30856  37.667  13.596   8.255
 7835POPC   C3A30857  37.640  13.609   7.955
 7835POPC   C4A30858  37.660  13.621   7.655
 7835POPC   C1B30859  37.478  13.655   8.555
 7835POPC   C2B30860  37.391  13.710   8.255
 7835POPC   C3B30861  37.455  13.661   7.955
 7835POPC   C4B30862  37.483  13.663   7.655
 7836POPC   NC330863  44.642  35.376   9.455
 7836POPC   PO430864  44.626  35.365   9.155
 7836POPC   GL130865  44.662  35.398   8.855
 7836POPC   GL230866  44.575  35.225   8.855
 7836POPC   C1A30867  44.617  35.345   8.555
 7836POPC   D2A30868  44.634  35.360   8.255
 7836POPC   C3A30869  44.639  35.322   7.955
 7836POPC   C4A30870  44.629  35.383   7.655
 7836POPC   C1B30871  44.509  35.141   8.555
 7836POPC   C2B30872  44.483  35.139   8.255
 7836POPC   C3B30873  44.501  35.102   7.955
 7836POPC   C4B30874  44.497  35.128   7.655
 7837POPC   NC330875  19.016  27.581   9.455
 7837POPC   PO430876  19.081  27.588   9.155
 7837POPC   GL130877  19.108  27.610   8.855
 7837POPC   GL230878  18.901  27.518   8.855
 7837POPC   C1A30879  19.043  27.564   8.555
 7837POPC   D2A30880  19.089  27.627   8.255
 7837POPC   C3A30881  19.070  27.596   7.955
 7837POPC   C4A30882  19.023  27.604   7.655
 7837POPC   C1B30883  18.825  27.478   8.555
 7837POPC   C2B30884  18.845  27.540   8.255
 7837POPC   C3B30885  18.811  27.484   7.955
 7837POPC   C4B30886  18.832  27.494   7.655
 7838POPC   NC330887   5.881   9.734   9.455
 7838POPC   PO430888   5.877   9.766   9.155
 7838POPC   GL130889   5.898   9.758   8.855
 7838POPC   GL230890   5.922   9.842   8.855
 7838POPC   C1A30891   5.887   9.787   8.555
 7838POPC   D2A30892   5.877   9.768   8.255
 7838POPC   C3A30893   5.876   9.741   7.955
 7838POPC   C4A30894   5.842   9.723   7.655
 7838POPC   C1B30895   5.948   9.951   8.555
 7838POPC   C2B30896   5.918   9.955   8.255
 7838POPC   C3B30897   5.982  10.004   7.955
 7838POPC   C4B30898   5.938   9.981   7.655
 7839POPC   NC330899  18.288   4.274   9.455
 7839POPC   PO430900  18.285   4.349   9.155
 7839POPC   GL130901  18.254   4.271   8.855
 7839POPC   GL230902  18.297   4.201   8.855
 7839POPC   C1A30903  18.305   4.342   8.555
 7839POPC   D2A30904  18.257   4.273   8.255
 7839POPC   C3A30905  18.271   4.354   7.955
 7839POPC   C4A30906  18.277   4.275   7.655
 7839POPC   C1B30907  18.348   4.049   8.555
 7839POPC   C2B30908  18.355   4.121   8.255
 7839POPC   C3B30909  18.339   4.040   7.955
 7839POPC   C4B30910  18.324   4.062   7.655
 7840POPC   NC330911  27.583  23.718   9.455
 7840POPC   PO430912  27.579  23.730   9.155
 7840POPC   GL130913  27.572  23.756   8.855
 7840POPC   GL230914  27.713  23.808   8.855
 7840POPC   C1A30915  27.552  23.731   8.555
 7840POPC   D2A30916  27.585  23.686   8.255
 7840POPC   C3A30917  27.576  23.734   7.955
 7840POPC   C4A30918  27.634  23.710   7.655
 7840POPC   C1B30919  27.727  23.878   8.555
 7840POPC   C2B30920  27.722  23.860   8.255
 7840POPC   C3B30921  27.763  23.896   7.955
 7840POPC   C4B30922  27.721  23.926   7.655
 7841POPC   NC330923   2.788   7.420   9.455
 7841POPC   PO430924   2.766   7.389   9.155
 7841POPC   GL130925   2.741   7.466   8.855
 7841POPC   GL230926   2.789   7.270   8.855
 7841POPC   C1A30927   2.716   7.400   8.555
 7841POPC   D2A30928   2.734   7.448   8.255
 7841POPC   C3A30929   2.729   7.420   7.955
 7841POPC   C4A30930   2.806   7.410   7.655
 7841POPC   C1B30931   2.907   7.240   8.555
 7841POPC   C2B30932   2.839   7.241   8.255
 7841POPC   C3B30933   2.897   7.159   7.955
 7841POPC   C4B30934   2.890   7.201   7.655
 7842POPC   NC330935  10.543  14.416   9.455
 7842POPC   PO430936  10.525  14.426   9.155
 7842POPC   GL130937  10.555  14.432   8.855
 7842POPC   GL230938  10.655  14.464   8.855
 7842POPC   C1A30939  10.504  14.379   8.555
 7842POPC   D2A30940  10.504  14.366   8.255
 7842POPC   C3A30941  10.512  14.405   7.955
 7842POPC   C4A30942  10.494  14.371   7.655
 7842POPC   C1B30943  10.691  14.546   8.555
 7842POPC   C2B30944  10.713  14.568   8.255
 7842POPC   C3B30945  10.743  14.589   7.955
 7842POPC   C4B30946  10.732  14.523   7.655
 7843POPC   NC330947  12.870  20.585   9.455
 7843POPC   PO430948  12.831  20.634   9.155
 7843POPC   GL130949  12.822  20.566   8.855
 7843POPC   GL230950  12.830  20.486   8.855
 7843POPC   C1A30951  12.890  20.607   8.555
 7843POPC   D2A30952  12.845  20.616   8.255
 7843POPC   C3A30953  12.889  20.653   7.955
 7843POPC   C4A30954  12.894  20.560   7.655
 7843POPC   C1B30955  12.776  20.414   8.555
 7843POPC   C2B30956  12.797  20.365   8.255
 7843POPC   C3B30957  12.736  20.404   7.955
 7843POPC   C4B30958  12.791  20.388   7.655
 7844POPC   NC330959  10.489   9.762   9.455
 7844POPC   PO430960  10.539   9.759   9.155
 7844POPC   GL130961  10.476   9.788   8.855
 7844POPC   GL230962  10.413   9.787   8.855
 7844POPC   C1A30963  10.479   9.744   8.555
 7844POPC   D2A30964  10.516   9.768   8.255
 7844POPC   C3A30965  10.507   9.750   7.955
 7844POPC   C4A30966  10.510   9.753   7.655
 7844POPC   C1B30967  10.339   9.913   8.555
 7844POPC   C2B30968  10.357   9.910   8.255
 7844POPC   C3B30969  10.292   9.913   7.955
 7844POPC   C4B30970  10.291   9.911   7.655
 7845POPC   NC330971   1.209  29.969   9.455
 7845POPC   PO430972   1.233  29.934   9.155
 7845POPC   GL130973   1.253  29.958   8.855
 7845POPC   GL230974   1.229  29.829   8.855
 7845POPC   C1A30975   1.229  29.941   8.555
 7845POPC   D2A30976   1.180  29.951   8.255
 7845POPC   C3A30977   1.195  29.923   7.955
 7845POPC   C4A30978   1.188  29.960   7.655
 7845POPC   C1B30979   1.207  29.704   8.555
 7845POPC   C2B30980   1.292  29.659   8.255
 7845POPC   C3B30981   1.228  29.683   7.955
 7845POPC   C4B30982   1.247  29.718   7.655
 7846POPC   NC330983  12.092  40.751   9.455
 7846POPC   PO430984  12.092  40.815   9.155
 7846POPC   GL130985  12.078  40.736   8.855
 7846POPC   GL230986  11.941  40.868   8.855
 7846POPC   C1A30987  12.111  40.769   8.555
 7846POPC   D2A30988  12.038  40.813   8.255
 7846POPC   C3A30989  12.054  40.769   7.955
 7846POPC   C4A30990  12.075  40.784   7.655
 7846POPC   C1B30991  11.859  40.899   8.555
 7846POPC   C2B30992  11.844  40.849   8.255
 7846POPC   C3B30993  11.848  40.887   7.955
 7846POPC   C4B30994  11.823  40.895   7.655
 7847POPC   NC330995   1.179  15.184   9.455
 7847POPC   PO430996   1.254  15.175   9.155
 7847POPC   GL130997   1.251  15.150   8.855
 7847POPC   GL230998   1.229  15.273   8.855
 7847POPC   C1A30999   1.165  15.210   8.555
 7847POPC   D2A31000   1.166  15.140   8.255
 7847POPC   C3A31001   1.231  15.164   7.955
 7847POPC   C4A31002   1.203  15.187   7.655
 7847POPC   C1B31003   1.270  15.434   8.555
 7847POPC   C2B31004   1.245  15.403   8.255
 7847POPC   C3B31005   1.317  15.454   7.955
 7847POPC   C4B31006   1.250  15.386   7.655
 7848POPC   NC331007  18.332   1.961   9.455
 7848POPC   PO431008  18.332   1.990   9.155
 7848POPC   GL131009  18.311   1.980   8.855
 7848POPC   GL231010  18.312   1.836   8.855
 7848POPC   C1A31011  18.300   1.959   8.555
 7848POPC   D2A31012  18.284   2.037   8.255
 7848POPC   C3A31013  18.332   1.998   7.955
 7848POPC   C4A31014  18.332   1.981   7.655
 7848POPC   C1B31015  18.406   1.811   8.555
 7848POPC   C2B31016  18.429   1.784   8.255
 7848POPC   C3B31017  18.421   1.712   7.955
 7848POPC   C4B31018  18.344   1.711   7.655
 7849POPC   NC331019  10.481  20.564   9.455
 7849POPC   PO431020  10.526  20.564   9.155
 7849POPC   GL131021  10.545  20.648   8.855
 7849POPC   GL231022  10.493  20.489   8.855
 7849POPC   C1A31023  10.573  20.625   8.555
 7849POPC   D2A31024  10.541  20.640   8.255
 7849POPC   C3A31025  10.500  20.569   7.955
 7849POPC   C4A31026  10.572  20.616   7.655
 7849POPC   C1B31027  10.464  20.398   8.555
 7849POPC   C2B31028  10.465  20.387   8.255
 7849POPC   C3B31029  10.480  20.342   7.955
 7849POPC   C4B31030  10.513  20.395   7.655
 7850POPC   NC331031  37.653   2.777   9.455
 7850POPC   PO431032  37.633   2.780   9.155
 7850POPC   GL131033  37.686   2.806   8.855
 7850POPC   GL231034  37.773   2.793   8.855
 7850POPC   C1A31035  37.696   2.757   8.555
 7850POPC   D2A31036  37.704   2.749   8.255
 7850POPC   C3A31037  37.697   2.719   7.955
 7850POPC   C4A31038  37.659   2.811   7.655
 7850POPC   C1B31039  37.881   2.893   8.555
 7850POPC   C2B31040  37.928   2.859   8.255
 7850POPC   C3B31041  37.884   2.854   7.955
 7850POPC   C4B31042  37.873   2.915   7.655
 7851POPC   NC331043  16.004  26.005   9.455
 7851POPC   PO431044  15.940  26.042   9.155
 7851POPC   GL131045  15.981  26.021   8.855
 7851POPC   GL231046  16.027  25.963   8.855
 7851POPC   C1A31047  15.909  26.088   8.555
 7851POPC   D2A31048  15.919  26.041   8.255
 7851POPC   C3A31049  15.954  26.067   7.955
 7851POPC   C4A31050  15.922  26.012   7.655
 7851POPC   C1B31051  15.988  25.836   8.555
 7851POPC   C2B31052  16.000  25.756   8.255
 7851POPC   C3B31053  16.018  25.792   7.955
 7851POPC   C4B31054  16.016  25.767   7.655
 7852POPC   NC331055  13.589  24.450   9.455
 7852POPC   PO431056  13.642  24.446   9.155
 7852POPC   GL131057  13.631  24.518   8.855
 7852POPC   GL231058  13.580  24.405   8.855
 7852POPC   C1A31059  13.636  24.534   8.555
 7852POPC   D2A31060  13.646  24.459   8.255
 7852POPC   C3A31061  13.628  24.482   7.955
 7852POPC   C4A31062  13.668  24.509   7.655
 7852POPC   C1B31063  13.586  24.207   8.555
 7852POPC   C2B31064  13.526  24.234   8.255
 7852POPC   C3B31065  13.599  24.264   7.955
 7852POPC   C4B31066  13.542  24.252   7.655
 7853POPC   NC331067  19.056  15.921   9.455
 7853POPC   PO431068  19.013  15.995   9.155
 7853POPC   GL131069  19.096  15.969   8.855
 7853POPC   GL231070  18.903  16.002   8.855
 7853POPC   C1A31071  19.024  15.905   8.555
 7853POPC   D2A31072  19.081  15.931   8.255
 7853POPC   C3A31073  19.028  15.912   7.955
 7853POPC   C4A31074  19.082  15.953   7.655
 7853POPC   C1B31075  18.805  16.047   8.555
 7853POPC   C2B31076  18.800  16.090   8.255
 7853POPC   C3B31077  18.859  16.044   7.955
 7853POPC   C4B31078  18.863  16.024   7.655
 7854POPC   NC331079  11.255  26.811   9.455
 7854POPC   PO431080  11.337  26.798   9.155
 7854POPC   GL131081  11.291  26.772   8.855
 7854POPC   GL231082  11.356  26.973   8.855
 7854POPC   C1A31083  11.303  26.852   8.555
 7854POPC   D2A31084  11.265  26.832   8.255
 7854POPC   C3A31085  11.297  26.814   7.955
 7854POPC   C4A31086  11.350  26.821   7.655
 7854POPC   C1B31087  11.368  27.083   8.555
 7854POPC   C2B31088  11.409  27.076   8.255
 7854POPC   C3B31089  11.359  27.054   7.955
 7854POPC   C4B31090  11.351  27.086   7.655
 7855POPC   NC331091  36.130  18.314   9.455
 7855POPC   PO431092  36.100  18.264   9.155
 7855POPC   GL131093  36.137  18.279   8.855
 7855POPC   GL231094  36.229  18.347   8.855
 7855POPC   C1A31095  36.160  18.270   8.555
 7855POPC   D2A31096  36.128  18.309   8.255
 7855POPC   C3A31097  36.148  18.306   7.955
 7855POPC   C4A31098  36.111  18.313   7.655
 7855POPC   C1B31099  36.268  18.526   8.555
 7855POPC   C2B31100  36.233  18.467   8.255
 7855POPC   C3B31101  36.260  18.505   7.955
 7855POPC   C4B31102  36.288  18.522   7.655
 7856POPC   NC331103  25.261  43.099   9.455
 7856POPC   PO431104  25.305  43.064   9.155
 7856POPC   GL131105  25.263  43.100   8.855
 7856POPC   GL231106  25.378  43.191   8.855
 7856POPC   C1A31107  25.273  43.153   8.555
 7856POPC   D2A31108  25.283  43.143   8.255
 7856POPC   C3A31109  25.266  43.099   7.955
 7856POPC   C4A31110  25.227  43.084   7.655
 7856POPC   C1B31111  25.487  43.164   8.555
 7856POPC   C2B31112  25.533  43.227   8.255
 7856POPC   C3B31113  25.480  43.146   7.955
 7856POPC   C4B31114  25.546  43.227   7.655
 7857POPC   NC331115  31.438  39.217   9.455
 7857POPC   PO431116  31.441  39.219   9.155
 7857POPC   GL131117  31.473  39.196   8.855
 7857POPC   GL231118  31.550  39.183   8.855
 7857POPC   C1A31119  31.488  39.251   8.555
 7857POPC   D2A31120  31.425  39.270   8.255
 7857POPC   C3A31121  31.489  39.224   7.955
 7857POPC   C4A31122  31.441  39.209   7.655
 7857POPC   C1B31123  31.705  39.168   8.555
 7857POPC   C2B31124  31.718  39.187   8.255
 7857POPC   C3B31125  31.675  39.193   7.955
 7857POPC   C4B31126  31.752  39.181   7.655
 7858POPC   NC331127   5.904  15.137   9.455
 7858POPC   PO431128   5.883  15.184   9.155
 7858POPC   GL131129   5.873  15.199   8.855
 7858POPC   GL231130   5.951  15.178   8.855
 7858POPC   C1A31131   5.840  15.194   8.555
 7858POPC   D2A31132   5.858  15.218   8.255
 7858POPC   C3A31133   5.916  15.155   7.955
 7858POPC   C4A31134   5.909  15.202   7.655
 7858POPC   C1B31135   6.132  15.243   8.555
 7858POPC   C2B31136   6.164  15.180   8.255
 7858POPC   C3B31137   6.098  15.231   7.955
 7858POPC   C4B31138   6.120  15.222   7.655
 7859POPC   NC331139  24.441  36.138   9.455
 7859POPC   PO431140  24.472  36.086   9.155
 7859POPC   GL131141  24.478  36.124   8.855
 7859POPC   GL231142  24.546  36.231   8.855
 7859POPC   C1A31143  24.508  36.138   8.555
 7859POPC   D2A31144  24.485  36.120   8.255
 7859POPC   C3A31145  24.505  36.170   7.955
 7859POPC   C4A31146  24.529  36.100   7.655
 7859POPC   C1B31147  24.701  36.340   8.555
 7859POPC   C2B31148  24.643  36.268   8.255
 7859POPC   C3B31149  24.647  36.304   7.955
 7859POPC   C4B31150  24.689  36.263   7.655
 7860POPC   NC331151  29.909  33.031   9.455
 7860POPC   PO431152  29.969  33.060   9.155
 7860POPC   GL131153  29.911  33.037   8.855
 7860POPC   GL231154  29.766  33.100   8.855
 7860POPC   C1A31155  29.900  33.049   8.555
 7860POPC   D2A31156  29.940  33.045   8.255
 7860POPC   C3A31157  29.942  33.040   7.955
 7860POPC   C4A31158  29.941  33.016   7.655
 7860POPC   C1B31159  29.678  33.072   8.555
 7860POPC   C2B31160  29.634  33.062   8.255
 7860POPC   C3B31161  29.668  33.133   7.955
 7860POPC   C4B31162  29.714  33.104   7.655
 7861POPC   NC331163  11.280  35.355   9.455
 7861POPC   PO431164  11.281  35.329   9.155
 7861POPC   GL131165  11.317  35.382   8.855
 7861POPC   GL231166  11.443  35.324   8.855
 7861POPC   C1A31167  11.298  35.341   8.555
 7861POPC   D2A31168  11.255  35.316   8.255
 7861POPC   C3A31169  11.287  35.314   7.955
 7861POPC   C4A31170  11.318  35.371   7.655
 7861POPC   C1B31171  11.552  35.387   8.555
 7861POPC   C2B31172  11.508  35.398   8.255
 7861POPC   C3B31173  11.526  35.316   7.955
 7861POPC   C4B31174  11.545  35.309   7.655
 7862POPC   NC331175  19.810  15.964   9.455
 7862POPC   PO431176  19.840  15.964   9.155
 7862POPC   GL131177  19.811  15.919   8.855
 7862POPC   GL231178  19.715  15.916   8.855
 7862POPC   C1A31179  19.800  15.922   8.555
 7862POPC   D2A31180  19.877  15.983   8.255
 7862POPC   C3A31181  19.790  15.999   7.955
 7862POPC   C4A31182  19.828  15.913   7.655
 7862POPC   C1B31183  19.623  15.904   8.555
 7862POPC   C2B31184  19.546  15.862   8.255
 7862POPC   C3B31185  19.546  15.928   7.955
 7862POPC   C4B31186  19.587  15.957   7.655
 7863POPC   NC331187   5.101  38.492   9.455
 7863POPC   PO431188   5.071  38.481   9.155
 7863POPC   GL131189   5.122  38.436   8.855
 7863POPC   GL231190   5.159  38.353   8.855
 7863POPC   C1A31191   5.078  38.453   8.555
 7863POPC   D2A31192   5.080  38.421   8.255
 7863POPC   C3A31193   5.103  38.449   7.955
 7863POPC   C4A31194   5.062  38.418   7.655
 7863POPC   C1B31195   5.244  38.306   8.555
 7863POPC   C2B31196   5.205  38.259   8.255
 7863POPC   C3B31197   5.210  38.236   7.955
 7863POPC   C4B31198   5.202  38.271   7.655
 7864POPC   NC331199  17.492   1.220   9.455
 7864POPC   PO431200  17.491   1.209   9.155
 7864POPC   GL131201  17.498   1.228   8.855
 7864POPC   GL231202  17.593   1.178   8.855
 7864POPC   C1A31203  17.481   1.183   8.555
 7864POPC   D2A31204  17.550   1.166   8.255
 7864POPC   C3A31205  17.484   1.246   7.955
 7864POPC   C4A31206  17.542   1.181   7.655
 7864POPC   C1B31207  17.743   1.063   8.555
 7864POPC   C2B31208  17.706   1.051   8.255
 7864POPC   C3B31209  17.747   1.089   7.955
 7864POPC   C4B31210  17.694   1.086   7.655
 7865POPC   NC331211  26.851  39.973   9.455
 7865POPC   PO431212  26.835  40.022   9.155
 7865POPC   GL131213  26.803  40.053   8.855
 7865POPC   GL231214  26.906  40.046   8.855
 7865POPC   C1A31215  26.788  39.989   8.555
 7865POPC   D2A31216  26.860  39.971   8.255
 7865POPC   C3A31217  26.818  40.023   7.955
 7865POPC   C4A31218  26.806  40.033   7.655
 7865POPC   C1B31219  27.022  40.091   8.555
 7865POPC   C2B31220  27.070  40.130   8.255
 7865POPC   C3B31221  27.086  40.152   7.955
 7865POPC   C4B31222  27.078  40.108   7.655
 7866POPC   NC331223  39.967  10.504   9.455
 7866POPC   PO431224  39.989  10.564   9.155
 7866POPC   GL131225  39.963  10.536   8.855
 7866POPC   GL231226  39.982  10.622   8.855
 7866POPC   C1A31227  40.016  10.568   8.555
 7866POPC   D2A31228  39.999  10.533   8.255
 7866POPC   C3A31229  39.980  10.486   7.955
 7866POPC   C4A31230  39.991  10.568   7.655
 7866POPC   C1B31231  39.971  10.761   8.555
 7866POPC   C2B31232  40.007  10.733   8.255
 7866POPC   C3B31233  39.942  10.796   7.955
 7866POPC   C4B31234  40.028  10.792   7.655
 7867POPC   NC331235  32.210  42.374   9.455
 7867POPC   PO431236  32.242  42.304   9.155
 7867POPC   GL131237  32.275  42.346   8.855
 7867POPC   GL231238  32.099  42.292   8.855
 7867POPC   C1A31239  32.262  42.365   8.555
 7867POPC   D2A31240  32.204  42.367   8.255
 7867POPC   C3A31241  32.224  42.289   7.955
 7867POPC   C4A31242  32.199  42.363   7.655
 7867POPC   C1B31243  32.009  42.274   8.555
 7867POPC   C2B31244  32.014  42.259   8.255
 7867POPC   C3B31245  32.041  42.331   7.955
 7867POPC   C4B31246  32.001  42.297   7.655
 7868POPC   NC331247  35.308  43.918   9.455
 7868POPC   PO431248  35.379  43.910   9.155
 7868POPC   GL131249  35.400  43.882   8.855
 7868POPC   GL231250  35.350  43.808   8.855
 7868POPC   C1A31251  35.372  43.885   8.555
 7868POPC   D2A31252  35.305  43.873   8.255
 7868POPC   C3A31253  35.376  43.919   7.955
 7868POPC   C4A31254  35.309  43.910   7.655
 7868POPC   C1B31255  35.313  43.648   8.555
 7868POPC   C2B31256  35.289  43.648   8.255
 7868POPC   C3B31257  35.287  43.659   7.955
 7868POPC   C4B31258  35.381  43.626   7.655
 7869POPC   NC331259  27.609   3.535   9.455
 7869POPC   PO431260  27.618   3.509   9.155
 7869POPC   GL131261  27.551   3.517   8.855
 7869POPC   GL231262  27.700   3.470   8.855
 7869POPC   C1A31263  27.555   3.492   8.555
 7869POPC   D2A31264  27.558   3.556   8.255
 7869POPC   C3A31265  27.553   3.568   7.955
 7869POPC   C4A31266  27.564   3.530   7.655
 7869POPC   C1B31267  27.876   3.494   8.555
 7869POPC   C2B31268  27.874   3.447   8.255
 7869POPC   C3B31269  27.837   3.480   7.955
 7869POPC   C4B31270  27.870   3.517   7.655
 7870POPC   NC331271   5.861  16.778   9.455
 7870POPC   PO431272   5.897  16.724   9.155
 7870POPC   GL131273   5.918  16.770   8.855
 7870POPC   GL231274   5.766  16.854   8.855
 7870POPC   C1A31275   5.895  16.754   8.555
 7870POPC   D2A31276   5.850  16.704   8.255
 7870POPC   C3A31277   5.903  16.700   7.955
 7870POPC   C4A31278   5.869  16.737   7.655
 7870POPC   C1B31279   5.763  16.907   8.555
 7870POPC   C2B31280   5.777  16.948   8.255
 7870POPC   C3B31281   5.739  16.981   7.955
 7870POPC   C4B31282   5.777  16.973   7.655
 7871POPC   NC331283  29.898   0.453   9.455
 7871POPC   PO431284  29.962   0.427   9.155
 7871POPC   GL131285  29.943   0.443   8.855
 7871POPC   GL231286  29.817   0.449   8.855
 7871POPC   C1A31287  29.943   0.452   8.555
 7871POPC   D2A31288  29.953   0.443   8.255
 7871POPC   C3A31289  29.880   0.441   7.955
 7871POPC   C4A31290  29.934   0.442   7.655
 7871POPC   C1B31291  29.705   0.412   8.555
 7871POPC   C2B31292  29.633   0.400   8.255
 7871POPC   C3B31293  29.702   0.374   7.955
 7871POPC   C4B31294  29.703   0.377   7.655
 7872POPC   NC331295  38.434  12.122   9.455
 7872POPC   PO431296  38.429  12.098   9.155
 7872POPC   GL131297  38.452  12.052   8.855
 7872POPC   GL231298  38.371  12.056   8.855
 7872POPC   C1A31299  38.490  12.107   8.555
 7872POPC   D2A31300  38.416  12.121   8.255
 7872POPC   C3A31301  38.486  12.117   7.955
 7872POPC   C4A31302  38.443  12.030   7.655
 7872POPC   C1B31303  38.225  12.105   8.555
 7872POPC   C2B31304  38.248  12.138   8.255
 7872POPC   C3B31305  38.184  12.106   7.955
 7872POPC   C4B31306  38.197  12.072   7.655
 7873POPC   NC331307  38.447  41.554   9.455
 7873POPC   PO431308  38.430  41.566   9.155
 7873POPC   GL131309  38.460  41.559   8.855
 7873POPC   GL231310  38.550  41.695   8.855
 7873POPC   C1A31311  38.484  41.545   8.555
 7873POPC   D2A31312  38.480  41.537   8.255
 7873POPC   C3A31313  38.499  41.597   7.955
 7873POPC   C4A31314  38.452  41.552   7.655
 7873POPC   C1B31315  38.602  41.760   8.555
 7873POPC   C2B31316  38.580  41.792   8.255
 7873POPC   C3B31317  38.544  41.816   7.955
 7873POPC   C4B31318  38.544  41.743   7.655
 7874POPC   NC331319  26.071  30.670   9.455
 7874POPC   PO431320  26.087  30.679   9.155
 7874POPC   GL131321  26.000  30.731   8.855
 7874POPC   GL231322  25.932  30.759   8.855
 7874POPC   C1A31323  26.055  30.680   8.555
 7874POPC   D2A31324  26.078  30.693   8.255
 7874POPC   C3A31325  26.042  30.683   7.955
 7874POPC   C4A31326  26.073  30.668   7.655
 7874POPC   C1B31327  25.881  30.873   8.555
 7874POPC   C2B31328  25.886  30.874   8.255
 7874POPC   C3B31329  25.908  30.954   7.955
 7874POPC   C4B31330  25.920  30.913   7.655
 7875POPC   NC331331  42.315  41.531   9.455
 7875POPC   PO431332  42.301  41.568   9.155
 7875POPC   GL131333  42.316  41.541   8.855
 7875POPC   GL231334  42.194  41.597   8.855
 7875POPC   C1A31335  42.304  41.550   8.555
 7875POPC   D2A31336  42.308  41.578   8.255
 7875POPC   C3A31337  42.368  41.601   7.955
 7875POPC   C4A31338  42.295  41.591   7.655
 7875POPC   C1B31339  42.104  41.634   8.555
 7875POPC   C2B31340  42.094  41.645   8.255
 7875POPC   C3B31341  42.043  41.645   7.955
 7875POPC   C4B31342  42.044  41.634   7.655
 7876POPC   NC331343   2.762  40.807   9.455
 7876POPC   PO431344   2.761  40.759   9.155
 7876POPC   GL131345   2.774  40.831   8.855
 7876POPC   GL231346   2.780  40.659   8.855
 7876POPC   C1A31347   2.716  40.780   8.555
 7876POPC   D2A31348   2.775  40.735   8.255
 7876POPC   C3A31349   2.743  40.770   7.955
 7876POPC   C4A31350   2.757  40.742   7.655
 7876POPC   C1B31351   2.695  40.524   8.555
 7876POPC   C2B31352   2.747  40.491   8.255
 7876POPC   C3B31353   2.660  40.585   7.955
 7876POPC   C4B31354   2.754  40.520   7.655
 7877POPC   NC331355  40.016  25.231   9.455
 7877POPC   PO431356  39.992  25.251   9.155
 7877POPC   GL131357  39.996  25.255   8.855
 7877POPC   GL231358  39.944  25.175   8.855
 7877POPC   C1A31359  39.990  25.218   8.555
 7877POPC   D2A31360  40.040  25.309   8.255
 7877POPC   C3A31361  40.020  25.291   7.955
 7877POPC   C4A31362  40.006  25.309   7.655
 7877POPC   C1B31363  39.842  25.083   8.555
 7877POPC   C2B31364  39.758  25.154   8.255
 7877POPC   C3B31365  39.814  25.074   7.955
 7877POPC   C4B31366  39.754  25.086   7.655
 7878POPC   NC331367   6.647   6.637   9.455
 7878POPC   PO431368   6.672   6.691   9.155
 7878POPC   GL131369   6.642   6.669   8.855
 7878POPC   GL231370   6.679   6.536   8.855
 7878POPC   C1A31371   6.640   6.607   8.555
 7878POPC   D2A31372   6.612   6.650   8.255
 7878POPC   C3A31373   6.633   6.678   7.955
 7878POPC   C4A31374   6.662   6.638   7.655
 7878POPC   C1B31375   6.585   6.364   8.555
 7878POPC   C2B31376   6.669   6.402   8.255
 7878POPC   C3B31377   6.654   6.427   7.955
 7878POPC   C4B31378   6.584   6.373   7.655
 7879POPC   NC331379  43.096  11.314   9.455
 7879POPC   PO431380  43.079  11.342   9.155
 7879POPC   GL131381  43.148  11.293   8.855
 7879POPC   GL231382  43.027  11.217   8.855
 7879POPC   C1A31383  43.131  11.326   8.555
 7879POPC   D2A31384  43.127  11.348   8.255
 7879POPC   C3A31385  43.103  11.320   7.955
 7879POPC   C4A31386  43.073  11.284   7.655
 7879POPC   C1B31387  42.925  11.142   8.555
 7879POPC   C2B31388  42.938  11.126   8.255
 7879POPC   C3B31389  42.915  11.129   7.955
 7879POPC   C4B31390  42.902  11.120   7.655
 7880POPC   NC331391  38.495  17.492   9.455
 7880POPC   PO431392  38.427  17.466   9.155
 7880POPC   GL131393  38.483  17.491   8.855
 7880POPC   GL231394  38.510  17.589   8.855
 7880POPC   C1A31395  38.410  17.458   8.555
 7880POPC   D2A31396  38.408  17.491   8.255
 7880POPC   C3A31397  38.426  17.529   7.955
 7880POPC   C4A31398  38.413  17.538   7.655
 7880POPC   C1B31399  38.656  17.692   8.555
 7880POPC   C2B31400  38.686  17.705   8.255
 7880POPC   C3B31401  38.671  17.639   7.955
 7880POPC   C4B31402  38.660  17.639   7.655
 7881POPC   NC331403  19.023  26.769   9.455
 7881POPC   PO431404  19.025  26.867   9.155
 7881POPC   GL131405  19.056  26.781   8.855
 7881POPC   GL231406  19.143  26.904   8.855
 7881POPC   C1A31407  19.094  26.803   8.555
 7881POPC   D2A31408  19.096  26.822   8.255
 7881POPC   C3A31409  19.100  26.814   7.955
 7881POPC   C4A31410  19.016  26.770   7.655
 7881POPC   C1B31411  19.200  26.954   8.555
 7881POPC   C2B31412  19.262  27.026   8.255
 7881POPC   C3B31413  19.291  27.013   7.955
 7881POPC   C4B31414  19.203  26.967   7.655
 7882POPC   NC331415   1.186  21.401   9.455
 7882POPC   PO431416   1.204  21.371   9.155
 7882POPC   GL131417   1.191  21.413   8.855
 7882POPC   GL231418   1.165  21.269   8.855
 7882POPC   C1A31419   1.211  21.363   8.555
 7882POPC   D2A31420   1.246  21.430   8.255
 7882POPC   C3A31421   1.228  21.413   7.955
 7882POPC   C4A31422   1.223  21.386   7.655
 7882POPC   C1B31423   1.107  21.132   8.555
 7882POPC   C2B31424   1.104  21.136   8.255
 7882POPC   C3B31425   1.064  21.131   7.955
 7882POPC   C4B31426   1.087  21.146   7.655
 7883POPC   NC331427  38.424  24.452   9.455
 7883POPC   PO431428  38.427  24.479   9.155
 7883POPC   GL131429  38.434  24.520   8.855
 7883POPC   GL231430  38.423  24.644   8.855
 7883POPC   C1A31431  38.437  24.499   8.555
 7883POPC   D2A31432  38.496  24.525   8.255
 7883POPC   C3A31433  38.477  24.440   7.955
 7883POPC   C4A31434  38.471  24.532   7.655
 7883POPC   C1B31435  38.376  24.728   8.555
 7883POPC   C2B31436  38.382  24.679   8.255
 7883POPC   C3B31437  38.302  24.666   7.955
 7883POPC   C4B31438  38.359  24.728   7.655
 7884POPC   NC331439  12.805  36.160   9.455
 7884POPC   PO431440  12.884  36.128   9.155
 7884POPC   GL131441  12.859  36.134   8.855
 7884POPC   GL231442  12.792  36.271   8.855
 7884POPC   C1A31443  12.845  36.095   8.555
 7884POPC   D2A31444  12.880  36.138   8.255
 7884POPC   C3A31445  12.888  36.121   7.955
 7884POPC   C4A31446  12.845  36.157   7.655
 7884POPC   C1B31447  12.748  36.359   8.555
 7884POPC   C2B31448  12.796  36.345   8.255
 7884POPC   C3B31449  12.762  36.329   7.955
 7884POPC   C4B31450  12.777  36.382   7.655
 7885POPC   NC331451  41.543  43.070   9.455
 7885POPC   PO431452  41.589  43.129   9.155
 7885POPC   GL131453  41.560  43.148   8.855
 7885POPC   GL231454  41.666  42.990   8.855
 7885POPC   C1A31455  41.602  43.136   8.555
 7885POPC   D2A31456  41.596  43.129   8.255
 7885POPC   C3A31457  41.554  43.144   7.955
 7885POPC   C4A31458  41.575  43.117   7.655
 7885POPC   C1B31459  41.762  42.933   8.555
 7885POPC   C2B31460  41.718  42.954   8.255
 7885POPC   C3B31461  41.711  42.899   7.955
 7885POPC   C4B31462  41.663  42.923   7.655
 7886POPC   NC331463   9.727  26.044   9.455
 7886POPC   PO431464   9.760  26.014   9.155
 7886POPC   GL131465   9.720  25.999   8.855
 7886POPC   GL231466   9.644  26.068   8.855
 7886POPC   C1A31467   9.711  26.056   8.555
 7886POPC   D2A31468   9.753  26.044   8.255
 7886POPC   C3A31469   9.768  25.993   7.955
 7886POPC   C4A31470   9.746  26.045   7.655
 7886POPC   C1B31471   9.507  26.119   8.555
 7886POPC   C2B31472   9.526  26.143   8.255
 7886POPC   C3B31473   9.494  26.100   7.955
 7886POPC   C4B31474   9.555  26.147   7.655
 7887POPC   NC331475  11.282  21.339   9.455
 7887POPC   PO431476  11.264  21.419   9.155
 7887POPC   GL131477  11.266  21.371   8.855
 7887POPC   GL231478  11.357  21.537   8.855
 7887POPC   C1A31479  11.334  21.371   8.555
 7887POPC   D2A31480  11.329  21.391   8.255
 7887POPC   C3A31481  11.301  21.400   7.955
 7887POPC   C4A31482  11.285  21.433   7.655
 7887POPC   C1B31483  11.351  21.583   8.555
 7887POPC   C2B31484  11.325  21.666   8.255
 7887POPC   C3B31485  11.363  21.587   7.955
 7887POPC   C4B31486  11.294  21.624   7.655
 7888POPC   NC331487   4.328  11.318   9.455
 7888POPC   PO431488   4.338  11.334   9.155
 7888POPC   GL131489   4.342  11.322   8.855
 7888POPC   GL231490   4.367  11.212   8.855
 7888POPC   C1A31491   4.289  11.318   8.555
 7888POPC   D2A31492   4.362  11.330   8.255
 7888POPC   C3A31493   4.295  11.349   7.955
 7888POPC   C4A31494   4.311  11.320   7.655
 7888POPC   C1B31495   4.465  11.111   8.555
 7888POPC   C2B31496   4.491  11.069   8.255
 7888POPC   C3B31497   4.420  11.075   7.955
 7888POPC   C4B31498   4.421  11.061   7.655
 7889POPC   NC331499  34.599  36.952   9.455
 7889POPC   PO431500  34.532  36.861   9.155
 7889POPC   GL131501  34.567  36.897   8.855
 7889POPC   GL231502  34.667  37.009   8.855
 7889POPC   C1A31503  34.533  36.933   8.555
 7889POPC   D2A31504  34.584  36.873   8.255
 7889POPC   C3A31505  34.590  36.882   7.955
 7889POPC   C4A31506  34.550  36.863   7.655
 7889POPC   C1B31507  34.815  37.083   8.555
 7889POPC   C2B31508  34.740  37.057   8.255
 7889POPC   C3B31509  34.818  37.091   7.955
 7889POPC   C4B31510  34.730  37.078   7.655
 7890POPC   NC331511  14.444  15.946   9.455
 7890POPC   PO431512  14.378  15.979   9.155
 7890POPC   GL131513  14.444  15.934   8.855
 7890POPC   GL231514  14.550  15.870   8.855
 7890POPC   C1A31515  14.370  15.942   8.555
 7890POPC   D2A31516  14.385  16.003   8.255
 7890POPC   C3A31517  14.453  15.969   7.955
 7890POPC   C4A31518  14.424  15.957   7.655
 7890POPC   C1B31519  14.653  15.917   8.555
 7890POPC   C2B31520  14.689  15.827   8.255
 7890POPC   C3B31521  14.669  15.842   7.955
 7890POPC   C4B31522  14.677  15.884   7.655
 7891POPC   NC331523   5.910  29.100   9.455
 7891POPC   PO431524   5.901  29.167   9.155
 7891POPC   GL131525   5.819  29.193   8.855
 7891POPC   GL231526   5.771  29.290   8.855
 7891POPC   C1A31527   5.903  29.120   8.555
 7891POPC   D2A31528   5.851  29.160   8.255
 7891POPC   C3A31529   5.902  29.107   7.955
 7891POPC   C4A31530   5.844  29.145   7.655
 7891POPC   C1B31531   5.715  29.352   8.555
 7891POPC   C2B31532   5.777  29.355   8.255
 7891POPC   C3B31533   5.788  29.366   7.955
 7891POPC   C4B31534   5.707  29.310   7.655
 7892POPC   NC331535  18.278  41.509   9.455
 7892POPC   PO431536  18.248  41.531   9.155
 7892POPC   GL131537  18.239  41.572   8.855
 7892POPC   GL231538  18.345  41.389   8.855
 7892POPC   C1A31539  18.288  41.528   8.555
 7892POPC   D2A31540  18.289  41.524   8.255
 7892POPC   C3A31541  18.322  41.607   7.955
 7892POPC   C4A31542  18.257  41.580   7.655
 7892POPC   C1B31543  18.384  41.327   8.555
 7892POPC   C2B31544  18.394  41.347   8.255
 7892POPC   C3B31545  18.319  41.342   7.955
 7892POPC   C4B31546  18.366  41.349   7.655
 7893POPC   NC331547  42.331   4.334   9.455
 7893POPC   PO431548  42.380   4.301   9.155
 7893POPC   GL131549  42.327   4.283   8.855
 7893POPC   GL231550  42.176   4.363   8.855
 7893POPC   C1A31551  42.299   4.343   8.555
 7893POPC   D2A31552  42.305   4.295   8.255
 7893POPC   C3A31553  42.357   4.354   7.955
 7893POPC   C4A31554  42.286   4.289   7.655
 7893POPC   C1B31555  42.141   4.373   8.555
 7893POPC   C2B31556  42.112   4.428   8.255
 7893POPC   C3B31557  42.117   4.434   7.955
 7893POPC   C4B31558  42.083   4.424   7.655
 7894POPC   NC331559  21.361  27.576   9.455
 7894POPC   PO431560  21.389  27.627   9.155
 7894POPC   GL131561  21.357  27.625   8.855
 7894POPC   GL231562  21.338  27.514   8.855
 7894POPC   C1A31563  21.348  27.603   8.555
 7894POPC   D2A31564  21.425  27.642   8.255
 7894POPC   C3A31565  21.384  27.572   7.955
 7894POPC   C4A31566  21.432  27.588   7.655
 7894POPC   C1B31567  21.201  27.399   8.555
 7894POPC   C2B31568  21.257  27.372   8.255
 7894POPC   C3B31569  21.283  27.390   7.955
 7894POPC   C4B31570  21.260  27.365   7.655
 7895POPC   NC331571  40.748  26.828   9.455
 7895POPC   PO431572  40.822  26.841   9.155
 7895POPC   GL131573  40.777  26.865   8.855
 7895POPC   GL231574  40.848  26.722   8.855
 7895POPC   C1A31575  40.829  26.848   8.555
 7895POPC   D2A31576  40.776  26.851   8.255
 7895POPC   C3A31577  40.828  26.835   7.955
 7895POPC   C4A31578  40.789  26.802   7.655
 7895POPC   C1B31579  40.909  26.671   8.555
 7895POPC   C2B31580  40.979  26.578   8.255
 7895POPC   C3B31581  40.917  26.591   7.955
 7895POPC   C4B31582  40.926  26.602   7.655
 7896POPC   NC331583  44.630  29.938   9.455
 7896POPC   PO431584  44.701  29.925   9.155
 7896POPC   GL131585  44.660  29.877   8.855
 7896POPC   GL231586  44.489  29.910   8.855
 7896POPC   C1A31587  44.693  29.947   8.555
 7896POPC   D2A31588  44.681  29.969   8.255
 7896POPC   C3A31589  44.620  29.955   7.955
 7896POPC   C4A31590  44.683  29.932   7.655
 7896POPC   C1B31591  44.368  29.939   8.555
 7896POPC   C2B31592  44.383  29.897   8.255
 7896POPC   C3B31593  44.388  29.960   7.955
 7896POPC   C4B31594  44.411  29.987   7.655
 7897POPC   NC331595  40.804  18.265   9.455
 7897POPC   PO431596  40.782  18.246   9.155
 7897POPC   GL131597  40.782  18.275   8.855
 7897POPC   GL231598  40.687  18.174   8.855
 7897POPC   C1A31599  40.800  18.235   8.555
 7897POPC   D2A31600  40.818  18.321   8.255
 7897POPC   C3A31601  40.757  18.328   7.955
 7897POPC   C4A31602  40.780  18.289   7.655
 7897POPC   C1B31603  40.622  18.133   8.555
 7897POPC   C2B31604  40.645  18.121   8.255
 7897POPC   C3B31605  40.665  18.082   7.955
 7897POPC   C4B31606  40.606  18.091   7.655
 7898POPC   NC331607  18.243  26.038   9.455
 7898POPC   PO431608  18.304  26.035   9.155
 7898POPC   GL131609  18.264  26.070   8.855
 7898POPC   GL231610  18.425  26.077   8.855
 7898POPC   C1A31611  18.236  26.086   8.555
 7898POPC   D2A31612  18.329  26.067   8.255
 7898POPC   C3A31613  18.313  26.073   7.955
 7898POPC   C4A31614  18.332  25.996   7.655
 7898POPC   C1B31615  18.550  26.062   8.555
 7898POPC   C2B31616  18.546  26.065   8.255
 7898POPC   C3B31617  18.563  26.006   7.955
 7898POPC   C4B31618  18.500  26.002   7.655
 7899POPC   NC331619  39.221  43.895   9.455
 7899POPC   PO431620  39.214  43.885   9.155
 7899POPC   GL131621  39.231  43.932   8.855
 7899POPC   GL231622  39.259  44.018   8.855
 7899POPC   C1A31623  39.198  43.911   8.555
 7899POPC   D2A31624  39.266  43.859   8.255
 7899POPC   C3A31625  39.217  43.933   7.955
 7899POPC   C4A31626  39.227  43.892   7.655
 7899POPC   C1B31627  39.397  44.081   8.555
 7899POPC   C2B31628  39.337  44.069   8.255
 7899POPC   C3B31629  39.360  44.089   7.955
 7899POPC   C4B31630  39.302  44.081   7.655
 7900POPC   NC331631   6.689  16.713   9.455
 7900POPC   PO431632   6.682  16.765   9.155
 7900POPC   GL131633   6.673  16.719   8.855
 7900POPC   GL231634   6.645  16.582   8.855
 7900POPC   C1A31635   6.615  16.726   8.555
 7900POPC   D2A31636   6.673  16.765   8.255
 7900POPC   C3A31637   6.658  16.699   7.955
 7900POPC   C4A31638   6.602  16.692   7.655
 7900POPC   C1B31639   6.567  16.490   8.555
 7900POPC   C2B31640   6.627  16.526   8.255
 7900POPC   C3B31641   6.594  16.532   7.955
 7900POPC   C4B31642   6.588  16.494   7.655
 7901POPC   NC331643  33.798  24.502   9.455
 7901POPC   PO431644  33.843  24.483   9.155
 7901POPC   GL131645  33.764  24.464   8.855
 7901POPC   GL231646  33.858  24.583   8.855
 7901POPC   C1A31647  33.846  24.463   8.555
 7901POPC   D2A31648  33.762  24.448   8.255
 7901POPC   C3A31649  33.760  24.487   7.955
 7901POPC   C4A31650  33.821  24.498   7.655
 7901POPC   C1B31651  34.001  24.734   8.555
 7901POPC   C2B31652  33.951  24.720   8.255
 7901POPC   C3B31653  33.947  24.722   7.955
 7901POPC   C4B31654  33.941  24.647   7.655
 7902POPC   NC331655  40.814   5.841   9.455
 7902POPC   PO431656  40.785   5.852   9.155
 7902POPC   GL131657  40.827   5.838   8.855
 7902POPC   GL231658  40.859   5.864   8.855
 7902POPC   C1A31659  40.734   5.900   8.555
 7902POPC   D2A31660  40.766   5.826   8.255
 7902POPC   C3A31661  40.795   5.840   7.955
 7902POPC   C4A31662  40.823   5.845   7.655
 7902POPC   C1B31663  40.984   5.855   8.555
 7902POPC   C2B31664  41.038   5.895   8.255
 7902POPC   C3B31665  41.049   5.915   7.955
 7902POPC   C4B31666  41.054   5.885   7.655
 7903POPC   NC331667  37.647  44.647   9.455
 7903POPC   PO431668  37.677  44.662   9.155
 7903POPC   GL131669  37.668  44.675   8.855
 7903POPC   GL231670  37.731  44.555   8.855
 7903POPC   C1A31671  37.706  44.626   8.555
 7903POPC   D2A31672  37.710  44.641   8.255
 7903POPC   C3A31673  37.652  44.710   7.955
 7903POPC   C4A31674  37.630  44.648   7.655
 7903POPC   C1B31675  37.677  44.411   8.555
 7903POPC   C2B31676  37.654  44.400   8.255
 7903POPC   C3B31677  37.667  44.452   7.955
 7903POPC   C4B31678  37.693  44.420   7.655
 7904POPC   NC331679  42.367  26.082   9.455
 7904POPC   PO431680  42.331  26.011   9.155
 7904POPC   GL131681  42.328  25.992   8.855
 7904POPC   GL231682  42.440  26.147   8.855
 7904POPC   C1A31683  42.363  26.033   8.555
 7904POPC   D2A31684  42.341  26.059   8.255
 7904POPC   C3A31685  42.333  26.063   7.955
 7904POPC   C4A31686  42.301  26.056   7.655
 7904POPC   C1B31687  42.486  26.164   8.555
 7904POPC   C2B31688  42.539  26.188   8.255
 7904POPC   C3B31689  42.549  26.219   7.955
 7904POPC   C4B31690  42.539  26.176   7.655
 7905POPC   NC331691  34.617  13.654   9.455
 7905POPC   PO431692  34.566  13.619   9.155
 7905POPC   GL131693  34.534  13.625   8.855
 7905POPC   GL231694  34.437  13.634   8.855
 7905POPC   C1A31695  34.599  13.606   8.555
 7905POPC   D2A31696  34.611  13.596   8.255
 7905POPC   C3A31697  34.570  13.598   7.955
 7905POPC   C4A31698  34.541  13.664   7.655
 7905POPC   C1B31699  34.373  13.734   8.555
 7905POPC   C2B31700  34.293  13.682   8.255
 7905POPC   C3B31701  34.320  13.737   7.955
 7905POPC   C4B31702  34.336  13.702   7.655
 7906POPC   NC331703   4.328   6.619   9.455
 7906POPC   PO431704   4.272   6.694   9.155
 7906POPC   GL131705   4.279   6.662   8.855
 7906POPC   GL231706   4.339   6.718   8.855
 7906POPC   C1A31707   4.268   6.664   8.555
 7906POPC   D2A31708   4.274   6.608   8.255
 7906POPC   C3A31709   4.297   6.693   7.955
 7906POPC   C4A31710   4.272   6.688   7.655
 7906POPC   C1B31711   4.418   6.827   8.555
 7906POPC   C2B31712   4.480   6.815   8.255
 7906POPC   C3B31713   4.405   6.849   7.955
 7906POPC   C4B31714   4.464   6.826   7.655
 7907POPC   NC331715   3.508  19.106   9.455
 7907POPC   PO431716   3.565  19.057   9.155
 7907POPC   GL131717   3.518  19.075   8.855
 7907POPC   GL231718   3.555  19.198   8.855
 7907POPC   C1A31719   3.500  19.051   8.555
 7907POPC   D2A31720   3.541  19.066   8.255
 7907POPC   C3A31721   3.522  19.033   7.955
 7907POPC   C4A31722   3.551  19.045   7.655
 7907POPC   C1B31723   3.502  19.307   8.555
 7907POPC   C2B31724   3.498  19.315   8.255
 7907POPC   C3B31725   3.493  19.317   7.955
 7907POPC   C4B31726   3.466  19.297   7.655
 7908POPC   NC331727   1.208  26.004   9.455
 7908POPC   PO431728   1.231  26.056   9.155
 7908POPC   GL131729   1.244  26.036   8.855
 7908POPC   GL231730   1.298  26.145   8.855
 7908POPC   C1A31731   1.204  26.015   8.555
 7908POPC   D2A31732   1.217  26.044   8.255
 7908POPC   C3A31733   1.168  26.003   7.955
 7908POPC   C4A31734   1.261  26.029   7.655
 7908POPC   C1B31735   1.426  26.248   8.555
 7908POPC   C2B31736   1.347  26.176   8.255
 7908POPC   C3B31737   1.411  26.182   7.955
 7908POPC   C4B31738   1.406  26.199   7.655
 7909POPC   NC331739  14.370  25.264   9.455
 7909POPC   PO431740  14.369  25.293   9.155
 7909POPC   GL131741  14.394  25.298   8.855
 7909POPC   GL231742  14.367  25.092   8.855
 7909POPC   C1A31743  14.442  25.304   8.555
 7909POPC   D2A31744  14.406  25.309   8.255
 7909POPC   C3A31745  14.360  25.245   7.955
 7909POPC   C4A31746  14.413  25.290   7.655
 7909POPC   C1B31747  14.428  25.024   8.555
 7909POPC   C2B31748  14.406  25.030   8.255
 7909POPC   C3B31749  14.372  24.973   7.955
 7909POPC   C4B31750  14.424  24.972   7.655
 7910POPC   NC331751   6.691  41.569   9.455
 7910POPC   PO431752   6.635  41.596   9.155
 7910POPC   GL131753   6.622  41.580   8.855
 7910POPC   GL231754   6.742  41.598   8.855
 7910POPC   C1A31755   6.666  41.529   8.555
 7910POPC   D2A31756   6.634  41.601   8.255
 7910POPC   C3A31757   6.612  41.529   7.955
 7910POPC   C4A31758   6.625  41.579   7.655
 7910POPC   C1B31759   6.855  41.633   8.555
 7910POPC   C2B31760   6.879  41.639   8.255
 7910POPC   C3B31761   6.852  41.594   7.955
 7910POPC   C4B31762   6.870  41.573   7.655
 7911POPC   NC331763  24.459  37.697   9.455
 7911POPC   PO431764  24.441  37.677   9.155
 7911POPC   GL131765  24.510  37.656   8.855
 7911POPC   GL231766  24.401  37.698   8.855
 7911POPC   C1A31767  24.522  37.648   8.555
 7911POPC   D2A31768  24.441  37.656   8.255
 7911POPC   C3A31769  24.539  37.642   7.955
 7911POPC   C4A31770  24.498  37.721   7.655
 7911POPC   C1B31771  24.209  37.623   8.555
 7911POPC   C2B31772  24.199  37.625   8.255
 7911POPC   C3B31773  24.229  37.588   7.955
 7911POPC   C4B31774  24.261  37.599   7.655
 7912POPC   NC331775   3.581  38.426   9.455
 7912POPC   PO431776   3.540  38.427   9.155
 7912POPC   GL131777   3.581  38.463   8.855
 7912POPC   GL231778   3.589  38.614   8.855
 7912POPC   C1A31779   3.575  38.456   8.555
 7912POPC   D2A31780   3.557  38.479   8.255
 7912POPC   C3A31781   3.555  38.478   7.955
 7912POPC   C4A31782   3.527  38.459   7.655
 7912POPC   C1B31783   3.568  38.746   8.555
 7912POPC   C2B31784   3.627  38.674   8.255
 7912POPC   C3B31785   3.611  38.696   7.955
 7912POPC   C4B31786   3.582  38.748   7.655
 7913POPC   NC331787   1.241  38.460   9.455
 7913POPC   PO431788   1.173  38.420   9.155
 7913POPC   GL131789   1.198  38.470   8.855
 7913POPC   GL231790   1.074  38.436   8.855
 7913POPC   C1A31791   1.176  38.478   8.555
 7913POPC   D2A31792   1.173  38.454   8.255
 7913POPC   C3A31793   1.253  38.481   7.955
 7913POPC   C4A31794   1.169  38.421   7.655
 7913POPC   C1B31795   0.965  38.414   8.555
 7913POPC   C2B31796   0.933  38.438   8.255
 7913POPC   C3B31797   0.947  38.487   7.955
 7913POPC   C4B31798   0.997  38.431   7.655
 7914POPC   NC331799  27.594  13.593   9.455
 7914POPC   PO431800  27.608  13.660   9.155
 7914POPC   GL131801  27.569  13.624   8.855
 7914POPC   GL231802  27.433  13.622   8.855
 7914POPC   C1A31803  27.570  13.602   8.555
 7914POPC   D2A31804  27.642  13.584   8.255
 7914POPC   C3A31805  27.627  13.651   7.955
 7914POPC   C4A31806  27.626  13.630   7.655
 7914POPC   C1B31807  27.300  13.705   8.555
 7914POPC   C2B31808  27.314  13.645   8.255
 7914POPC   C3B31809  27.389  13.703   7.955
 7914POPC   C4B31810  27.310  13.653   7.655
 7915POPC   NC331811  22.182  23.690   9.455
 7915POPC   PO431812  22.177  23.728   9.155
 7915POPC   GL131813  22.179  23.666   8.855
 7915POPC   GL231814  22.211  23.851   8.855
 7915POPC   C1A31815  22.212  23.683   8.555
 7915POPC   D2A31816  22.203  23.669   8.255
 7915POPC   C3A31817  22.182  23.762   7.955
 7915POPC   C4A31818  22.120  23.686   7.655
 7915POPC   C1B31819  22.135  23.997   8.555
 7915POPC   C2B31820  22.216  23.915   8.255
 7915POPC   C3B31821  22.206  23.976   7.955
 7915POPC   C4B31822  22.169  24.002   7.655
 7916POPC   NC331823  29.959  26.019   9.455
 7916POPC   PO431824  29.944  26.070   9.155
 7916POPC   GL131825  29.913  26.017   8.855
 7916POPC   GL231826  29.944  26.168   8.855
 7916POPC   C1A31827  29.948  26.025   8.555
 7916POPC   D2A31828  29.918  26.051   8.255
 7916POPC   C3A31829  29.913  26.023   7.955
 7916POPC   C4A31830  29.886  26.004   7.655
 7916POPC   C1B31831  29.967  26.258   8.555
 7916POPC   C2B31832  30.015  26.256   8.255
 7916POPC   C3B31833  29.922  26.332   7.955
 7916POPC   C4B31834  30.010  26.247   7.655
 7917POPC   NC331835  16.704   2.752   9.455
 7917POPC   PO431836  16.742   2.769   9.155
 7917POPC   GL131837  16.737   2.724   8.855
 7917POPC   GL231838  16.809   2.642   8.855
 7917POPC   C1A31839  16.714   2.808   8.555
 7917POPC   D2A31840  16.686   2.763   8.255
 7917POPC   C3A31841  16.739   2.730   7.955
 7917POPC   C4A31842  16.777   2.779   7.655
 7917POPC   C1B31843  16.893   2.606   8.555
 7917POPC   C2B31844  16.895   2.561   8.255
 7917POPC   C3B31845  16.907   2.547   7.955
 7917POPC   C4B31846  16.862   2.524   7.655
 7918POPC   NC331847  44.622  15.146   9.455
 7918POPC   PO431848  44.629  15.209   9.155
 7918POPC   GL131849  44.700  15.217   8.855
 7918POPC   GL231850  44.554  15.234   8.855
 7918POPC   C1A31851  44.653  15.216   8.555
 7918POPC   D2A31852  44.637  15.172   8.255
 7918POPC   C3A31853  44.707  15.145   7.955
 7918POPC   C4A31854  44.700  15.154   7.655
 7918POPC   C1B31855  44.511  15.393   8.555
 7918POPC   C2B31856  44.471  15.387   8.255
 7918POPC   C3B31857  44.458  15.328   7.955
 7918POPC   C4B31858  44.524  15.401   7.655
 7919POPC   NC331859  26.036  13.643   9.455
 7919POPC   PO431860  26.025  13.653   9.155
 7919POPC   GL131861  26.045  13.601   8.855
 7919POPC   GL231862  25.946  13.529   8.855
 7919POPC   C1A31863  26.000  13.597   8.555
 7919POPC   D2A31864  26.087  13.640   8.255
 7919POPC   C3A31865  26.039  13.598   7.955
 7919POPC   C4A31866  26.068  13.604   7.655
 7919POPC   C1B31867  25.925  13.404   8.555
 7919POPC   C2B31868  25.901  13.352   8.255
 7919POPC   C3B31869  25.938  13.400   7.955
 7919POPC   C4B31870  25.905  13.421   7.655
 7920POPC   NC331871  33.014  12.031   9.455
 7920POPC   PO431872  33.044  12.066   9.155
 7920POPC   GL131873  32.989  12.122   8.855
 7920POPC   GL231874  33.176  12.086   8.855
 7920POPC   C1A31875  33.014  12.097   8.555
 7920POPC   D2A31876  33.046  12.086   8.255
 7920POPC   C3A31877  33.048  12.038   7.955
 7920POPC   C4A31878  33.043  12.105   7.655
 7920POPC   C1B31879  33.297  12.159   8.555
 7920POPC   C2B31880  33.256  12.208   8.255
 7920POPC   C3B31881  33.304  12.183   7.955
 7920POPC   C4B31882  33.225  12.178   7.655
 7921POPC   NC331883   4.312  12.095   9.455
 7921POPC   PO431884   4.289  12.067   9.155
 7921POPC   GL131885   4.337  12.101   8.855
 7921POPC   GL231886   4.203  12.173   8.855
 7921POPC   C1A31887   4.349  12.054   8.555
 7921POPC   D2A31888   4.318  12.100   8.255
 7921POPC   C3A31889   4.336  12.042   7.955
 7921POPC   C4A31890   4.312  12.104   7.655
 7921POPC   C1B31891   4.177  12.230   8.555
 7921POPC   C2B31892   4.095  12.280   8.255
 7921POPC   C3B31893   4.173  12.284   7.955
 7921POPC   C4B31894   4.121  12.233   7.655
 7922POPC   NC331895  29.122  15.976   9.455
 7922POPC   PO431896  29.121  15.939   9.155
 7922POPC   GL131897  29.129  15.934   8.855
 7922POPC   GL231898  29.166  15.804   8.855
 7922POPC   C1A31899  29.168  16.005   8.555
 7922POPC   D2A31900  29.136  15.974   8.255
 7922POPC   C3A31901  29.118  15.988   7.955
 7922POPC   C4A31902  29.128  15.907   7.655
 7922POPC   C1B31903  29.294  15.731   8.555
 7922POPC   C2B31904  29.276  15.696   8.255
 7922POPC   C3B31905  29.223  15.729   7.955
 7922POPC   C4B31906  29.308  15.762   7.655
 7923POPC   NC331907  40.782  22.933   9.455
 7923POPC   PO431908  40.775  22.939   9.155
 7923POPC   GL131909  40.797  22.943   8.855
 7923POPC   GL231910  40.899  22.945   8.855
 7923POPC   C1A31911  40.809  22.919   8.555
 7923POPC   D2A31912  40.784  22.925   8.255
 7923POPC   C3A31913  40.780  22.935   7.955
 7923POPC   C4A31914  40.751  22.977   7.655
 7923POPC   C1B31915  40.974  22.895   8.555
 7923POPC   C2B31916  41.047  22.863   8.255
 7923POPC   C3B31917  40.999  22.917   7.955
 7923POPC   C4B31918  40.981  22.880   7.655
 7924POPC   NC331919  33.062  22.115   9.455
 7924POPC   PO431920  33.018  22.191   9.155
 7924POPC   GL131921  33.055  22.117   8.855
 7924POPC   GL231922  33.023  22.008   8.855
 7924POPC   C1A31923  32.978  22.162   8.555
 7924POPC   D2A31924  33.018  22.175   8.255
 7924POPC   C3A31925  33.007  22.134   7.955
 7924POPC   C4A31926  33.058  22.192   7.655
 7924POPC   C1B31927  32.929  21.876   8.555
 7924POPC   C2B31928  32.975  21.925   8.255
 7924POPC   C3B31929  32.982  21.876   7.955
 7924POPC   C4B31930  32.992  21.941   7.655
 7925POPC   NC331931  29.180  26.860   9.455
 7925POPC   PO431932  29.119  26.810   9.155
 7925POPC   GL131933  29.131  26.797   8.855
 7925POPC   GL231934  29.076  26.970   8.855
 7925POPC   C1A31935  29.183  26.815   8.555
 7925POPC   D2A31936  29.162  26.810   8.255
 7925POPC   C3A31937  29.130  26.772   7.955
 7925POPC   C4A31938  29.134  26.832   7.655
 7925POPC   C1B31939  29.027  27.046   8.555
 7925POPC   C2B31940  29.110  27.079   8.255
 7925POPC   C3B31941  29.047  27.050   7.955
 7925POPC   C4B31942  29.020  27.052   7.655
 7926POPC   NC331943   2.796  33.018   9.455
 7926POPC   PO431944   2.794  32.981   9.155
 7926POPC   GL131945   2.722  33.058   8.855
 7926POPC   GL231946   2.697  32.947   8.855
 7926POPC   C1A31947   2.798  33.057   8.555
 7926POPC   D2A31948   2.812  32.978   8.255
 7926POPC   C3A31949   2.735  32.978   7.955
 7926POPC   C4A31950   2.720  33.006   7.655
 7926POPC   C1B31951   2.555  32.951   8.555
 7926POPC   C2B31952   2.520  32.956   8.255
 7926POPC   C3B31953   2.528  32.876   7.955
 7926POPC   C4B31954   2.499  32.916   7.655
 7927POPC   NC331955  12.044   7.383   9.455
 7927POPC   PO431956  12.062   7.383   9.155
 7927POPC   GL131957  12.083   7.432   8.855
 7927POPC   GL231958  12.099   7.488   8.855
 7927POPC   C1A31959  12.090   7.453   8.555
 7927POPC   D2A31960  12.054   7.414   8.255
 7927POPC   C3A31961  12.044   7.453   7.955
 7927POPC   C4A31962  12.036   7.371   7.655
 7927POPC   C1B31963  12.201   7.607   8.555
 7927POPC   C2B31964  12.143   7.654   8.255
 7927POPC   C3B31965  12.183   7.635   7.955
 7927POPC   C4B31966  12.183   7.701   7.655
 7928POPC   NC331967  27.633  18.304   9.455
 7928POPC   PO431968  27.607  18.301   9.155
 7928POPC   GL131969  27.612  18.309   8.855
 7928POPC   GL231970  27.470  18.331   8.855
 7928POPC   C1A31971  27.613  18.306   8.555
 7928POPC   D2A31972  27.623  18.329   8.255
 7928POPC   C3A31973  27.623  18.256   7.955
 7928POPC   C4A31974  27.605  18.250   7.655
 7928POPC   C1B31975  27.321  18.331   8.555
 7928POPC   C2B31976  27.358  18.334   8.255
 7928POPC   C3B31977  27.377  18.342   7.955
 7928POPC   C4B31978  27.351  18.418   7.655
 7929POPC   NC331979  12.081  36.079   9.455
 7929POPC   PO431980  12.070  36.122   9.155
 7929POPC   GL131981  12.032  36.175   8.855
 7929POPC   GL231982  12.204  36.101   8.855
 7929POPC   C1A31983  12.119  36.096   8.555
 7929POPC   D2A31984  12.090  36.121   8.255
 7929POPC   C3A31985  12.073  36.135   7.955
 7929POPC   C4A31986  12.122  36.167   7.655
 7929POPC   C1B31987  12.281  36.059   8.555
 7929POPC   C2B31988  12.337  36.071   8.255
 7929POPC   C3B31989  12.289  36.047   7.955
 7929POPC   C4B31990  12.327  36.107   7.655
 7930POPC   NC331991  29.147   2.779   9.455
 7930POPC   PO431992  29.132   2.788   9.155
 7930POPC   GL131993  29.103   2.750   8.855
 7930POPC   GL231994  29.231   2.666   8.855
 7930POPC   C1A31995  29.155   2.745   8.555
 7930POPC   D2A31996  29.152   2.735   8.255
 7930POPC   C3A31997  29.117   2.767   7.955
 7930POPC   C4A31998  29.186   2.788   7.655
 7930POPC   C1B31999  29.309   2.583   8.555
 7930POPC   C2B32000  29.317   2.602   8.255
 7930POPC   C3B32001  29.296   2.524   7.955
 7930POPC   C4B32002  29.288   2.598   7.655
 7931POPC   NC332003  11.273   8.980   9.455
 7931POPC   PO432004  11.334   8.954   9.155
 7931POPC   GL132005  11.308   9.019   8.855
 7931POPC   GL232006  11.261   8.899   8.855
 7931POPC   C1A32007  11.323   8.931   8.555
 7931POPC   D2A32008  11.324   8.937   8.255
 7931POPC   C3A32009  11.331   8.934   7.955
 7931POPC   C4A32010  11.306   8.991   7.655
 7931POPC   C1B32011  11.151   8.778   8.555
 7931POPC   C2B32012  11.198   8.748   8.255
 7931POPC   C3B32013  11.126   8.707   7.955
 7931POPC   C4B32014  11.219   8.734   7.655
 7932POPC   NC332015  12.059  27.626   9.455
 7932POPC   PO432016  12.125  27.593   9.155
 7932POPC   GL132017  12.097  27.631   8.855
 7932POPC   GL232018  12.188  27.489   8.855
 7932POPC   C1A32019  12.055  27.634   8.555
 7932POPC   D2A32020  12.113  27.579   8.255
 7932POPC   C3A32021  12.068  27.629   7.955
 7932POPC   C4A32022  12.080  27.634   7.655
 7932POPC   C1B32023  12.293  27.442   8.555
 7932POPC   C2B32024  12.268  27.475   8.255
 7932POPC   C3B32025  12.296  27.493   7.955
 7932POPC   C4B32026  12.259  27.467   7.655
 7933POPC   NC332027  14.423  33.814   9.455
 7933POPC   PO432028  14.417  33.847   9.155
 7933POPC   GL132029  14.434  33.819   8.855
 7933POPC   GL232030  14.260  33.708   8.855
 7933POPC   C1A32031  14.370  33.817   8.555
 7933POPC   D2A32032  14.418  33.812   8.255
 7933POPC   C3A32033  14.452  33.808   7.955
 7933POPC   C4A32034  14.437  33.836   7.655
 7933POPC   C1B32035  14.158  33.636   8.555
 7933POPC   C2B32036  14.152  33.623   8.255
 7933POPC   C3B32037  14.163  33.613   7.955
 7933POPC   C4B32038  14.220  33.657   7.655
 7934POPC   NC332039  33.763  18.278   9.455
 7934POPC   PO432040  33.807  18.298   9.155
 7934POPC   GL132041  33.788  18.242   8.855
 7934POPC   GL232042  33.843  18.197   8.855
 7934POPC   C1A32043  33.825  18.332   8.555
 7934POPC   D2A32044  33.762  18.285   8.255
 7934POPC   C3A32045  33.799  18.251   7.955
 7934POPC   C4A32046  33.781  18.294   7.655
 7934POPC   C1B32047  33.925  18.015   8.555
 7934POPC   C2B32048  33.850  17.998   8.255
 7934POPC   C3B32049  33.894  17.997   7.955
 7934POPC   C4B32050  33.907  18.005   7.655
 7935POPC   NC332051   4.309  17.517   9.455
 7935POPC   PO432052   4.333  17.502   9.155
 7935POPC   GL132053   4.269  17.462   8.855
 7935POPC   GL232054   4.274  17.569   8.855
 7935POPC   C1A32055   4.319  17.541   8.555
 7935POPC   D2A32056   4.305  17.500   8.255
 7935POPC   C3A32057   4.309  17.527   7.955
 7935POPC   C4A32058   4.367  17.482   7.655
 7935POPC   C1B32059   4.112  17.662   8.555
 7935POPC   C2B32060   4.135  17.713   8.255
 7935POPC   C3B32061   4.127  17.653   7.955
 7935POPC   C4B32062   4.140  17.648   7.655
 7936POPC   NC332063  30.731  31.498   9.455
 7936POPC   PO432064  30.655  31.496   9.155
 7936POPC   GL132065  30.745  31.475   8.855
 7936POPC   GL232066  30.781  31.526   8.855
 7936POPC   C1A32067  30.711  31.430   8.555
 7936POPC   D2A32068  30.732  31.487   8.255
 7936POPC   C3A32069  30.709  31.435   7.955
 7936POPC   C4A32070  30.679  31.449   7.655
 7936POPC   C1B32071  30.962  31.552   8.555
 7936POPC   C2B32072  30.930  31.534   8.255
 7936POPC   C3B32073  30.871  31.537   7.955
 7936POPC   C4B32074  30.916  31.587   7.655
 7937POPC   NC332075  13.608   8.158   9.455
 7937POPC   PO432076  13.670   8.175   9.155
 7937POPC   GL132077  13.605   8.159   8.855
 7937POPC   GL232078  13.739   8.292   8.855
 7937POPC   C1A32079  13.582   8.226   8.555
 7937POPC   D2A32080  13.646   8.223   8.255
 7937POPC   C3A32081  13.643   8.201   7.955
 7937POPC   C4A32082  13.619   8.236   7.655
 7937POPC   C1B32083  13.814   8.385   8.555
 7937POPC   C2B32084  13.791   8.357   8.255
 7937POPC   C3B32085  13.783   8.347   7.955
 7937POPC   C4B32086  13.794   8.378   7.655
 7938POPC   NC332087  36.858  41.527   9.455
 7938POPC   PO432088  36.938  41.528   9.155
 7938POPC   GL132089  36.940  41.606   8.855
 7938POPC   GL232090  36.992  41.550   8.855
 7938POPC   C1A32091  36.860  41.519   8.555
 7938POPC   D2A32092  36.927  41.527   8.255
 7938POPC   C3A32093  36.867  41.540   7.955
 7938POPC   C4A32094  36.889  41.591   7.655
 7938POPC   C1B32095  37.175  41.593   8.555
 7938POPC   C2B32096  37.139  41.587   8.255
 7938POPC   C3B32097  37.152  41.541   7.955
 7938POPC   C4B32098  37.172  41.620   7.655
 7939POPC   NC332099  29.963  15.929   9.455
 7939POPC   PO432100  29.915  15.932   9.155
 7939POPC   GL132101  29.949  15.967   8.855
 7939POPC   GL232102  29.834  15.897   8.855
 7939POPC   C1A32103  29.924  15.992   8.555
 7939POPC   D2A32104  29.955  15.950   8.255
 7939POPC   C3A32105  29.971  15.924   7.955
 7939POPC   C4A32106  29.919  15.977   7.655
 7939POPC   C1B32107  29.683  15.948   8.555
 7939POPC   C2B32108  29.705  15.935   8.255
 7939POPC   C3B32109  29.712  15.935   7.955
 7939POPC   C4B32110  29.682  15.934   7.655
 7940POPC   NC332111  13.606  41.529   9.455
 7940POPC   PO432112  13.645  41.548   9.155
 7940POPC   GL132113  13.652  41.524   8.855
 7940POPC   GL232114  13.484  41.630   8.855
 7940POPC   C1A32115  13.596  41.526   8.555
 7940POPC   D2A32116  13.598  41.532   8.255
 7940POPC   C3A32117  13.608  41.563   7.955
 7940POPC   C4A32118  13.606  41.523   7.655
 7940POPC   C1B32119  13.342  41.634   8.555
 7940POPC   C2B32120  13.413  41.628   8.255
 7940POPC   C3B32121  13.363  41.626   7.955
 7940POPC   C4B32122  13.352  41.561   7.655
 7941POPC   NC332123  10.548  13.620   9.455
 7941POPC   PO432124  10.503  13.617   9.155
 7941POPC   GL132125  10.506  13.590   8.855
 7941POPC   GL232126  10.526  13.733   8.855
 7941POPC   C1A32127  10.546  13.629   8.555
 7941POPC   D2A32128  10.503  13.666   8.255
 7941POPC   C3A32129  10.502  13.628   7.955
 7941POPC   C4A32130  10.479  13.656   7.655
 7941POPC   C1B32131  10.500  13.836   8.555
 7941POPC   C2B32132  10.501  13.862   8.255
 7941POPC   C3B32133  10.536  13.842   7.955
 7941POPC   C4B32134  10.517  13.867   7.655
 7942POPC   NC332135  24.493  35.310   9.455
 7942POPC   PO432136  24.443  35.317   9.155
 7942POPC   GL132137  24.452  35.388   8.855
 7942POPC   GL232138  24.499  35.278   8.855
 7942POPC   C1A32139  24.492  35.326   8.555
 7942POPC   D2A32140  24.536  35.352   8.255
 7942POPC   C3A32141  24.488  35.400   7.955
 7942POPC   C4A32142  24.534  35.362   7.655
 7942POPC   C1B32143  24.592  35.080   8.555
 7942POPC   C2B32144  24.547  35.143   8.255
 7942POPC   C3B32145  24.558  35.065   7.955
 7942POPC   C4B32146  24.525  35.076   7.655
 7943POPC   NC332147  23.667  40.007   9.455
 7943POPC   PO432148  23.713  40.001   9.155
 7943POPC   GL132149  23.704  39.985   8.855
 7943POPC   GL232150  23.822  40.111   8.855
 7943POPC   C1A32151  23.718  40.043   8.555
 7943POPC   D2A32152  23.739  40.053   8.255
 7943POPC   C3A32153  23.760  40.042   7.955
 7943POPC   C4A32154  23.754  39.990   7.655
 7943POPC   C1B32155  23.833  40.235   8.555
 7943POPC   C2B32156  23.855  40.194   8.255
 7943POPC   C3B32157  23.848  40.224   7.955
 7943POPC   C4B32158  23.805  40.228   7.655
 7944POPC   NC332159  13.647   6.613   9.455
 7944POPC   PO432160  13.590   6.663   9.155
 7944POPC   GL132161  13.604   6.629   8.855
 7944POPC   GL232162  13.749   6.621   8.855
 7944POPC   C1A32163  13.588   6.648   8.555
 7944POPC   D2A32164  13.586   6.607   8.255
 7944POPC   C3A32165  13.670   6.627   7.955
 7944POPC   C4A32166  13.595   6.619   7.655
 7944POPC   C1B32167  13.830   6.547   8.555
 7944POPC   C2B32168  13.790   6.527   8.255
 7944POPC   C3B32169  13.852   6.451   7.955
 7944POPC   C4B32170  13.816   6.455   7.655
 7945POPC   NC332171  20.640  17.526   9.455
 7945POPC   PO432172  20.654  17.471   9.155
 7945POPC   GL132173  20.631  17.543   8.855
 7945POPC   GL232174  20.592  17.411   8.855
 7945POPC   C1A32175  20.616  17.513   8.555
 7945POPC   D2A32176  20.656  17.548   8.255
 7945POPC   C3A32177  20.628  17.491   7.955
 7945POPC   C4A32178  20.635  17.538   7.655
 7945POPC   C1B32179  20.553  17.259   8.555
 7945POPC   C2B32180  20.539  17.260   8.255
 7945POPC   C3B32181  20.610  17.247   7.955
 7945POPC   C4B32182  20.578  17.301   7.655
 7946POPC   NC332183  36.140  40.822   9.455
 7946POPC   PO432184  36.131  40.756   9.155
 7946POPC   GL132185  36.129  40.797   8.855
 7946POPC   GL232186  36.030  40.749   8.855
 7946POPC   C1A32187  36.108  40.800   8.555
 7946POPC   D2A32188  36.121  40.817   8.255
 7946POPC   C3A32189  36.095  40.783   7.955
 7946POPC   C4A32190  36.131  40.774   7.655
 7946POPC   C1B32191  35.863  40.791   8.555
 7946POPC   C2B32192  35.877  40.841   8.255
 7946POPC   C3B32193  35.890  40.851   7.955
 7946POPC   C4B32194  35.902  40.843   7.655
 7947POPC   NC332195   1.184  12.851   9.455
 7947POPC   PO432196   1.178  12.871   9.155
 7947POPC   GL132197   1.249  12.862   8.855
 7947POPC   GL232198   1.349  12.840   8.855
 7947POPC   C1A32199   1.191  12.850   8.555
 7947POPC   D2A32200   1.259  12.885   8.255
 7947POPC   C3A32201   1.246  12.890   7.955
 7947POPC   C4A32202   1.205  12.848   7.655
 7947POPC   C1B32203   1.454  12.849   8.555
 7947POPC   C2B32204   1.417  12.910   8.255
 7947POPC   C3B32205   1.447  12.896   7.955
 7947POPC   C4B32206   1.494  12.861   7.655
 7948POPC   NC332207  18.271  33.837   9.455
 7948POPC   PO432208  18.302  33.811   9.155
 7948POPC   GL132209  18.279  33.801   8.855
 7948POPC   GL232210  18.198  33.789   8.855
 7948POPC   C1A32211  18.279  33.833   8.555
 7948POPC   D2A32212  18.301  33.777   8.255
 7948POPC   C3A32213  18.267  33.842   7.955
 7948POPC   C4A32214  18.320  33.818   7.655
 7948POPC   C1B32215  18.106  33.704   8.555
 7948POPC   C2B32216  18.097  33.653   8.255
 7948POPC   C3B32217  18.069  33.690   7.955
 7948POPC   C4B32218  18.086  33.659   7.655
 7949POPC   NC332219  27.561  19.075   9.455
 7949POPC   PO432220  27.584  19.085   9.155
 7949POPC   GL132221  27.594  19.095   8.855
 7949POPC   GL232222  27.607  19.196   8.855
 7949POPC   C1A32223  27.629  19.038   8.555
 7949POPC   D2A32224  27.629  19.078   8.255
 7949POPC   C3A32225  27.575  19.074   7.955
 7949POPC   C4A32226  27.611  19.069   7.655
 7949POPC   C1B32227  27.655  19.351   8.555
 7949POPC   C2B32228  27.643  19.326   8.255
 7949POPC   C3B32229  27.667  19.254   7.955
 7949POPC   C4B32230  27.686  19.300   7.655
 7950POPC   NC332231  37.647  19.098   9.455
 7950POPC   PO432232  37.694  19.102   9.155
 7950POPC   GL132233  37.687  19.034   8.855
 7950POPC   GL232234  37.552  18.998   8.855
 7950POPC   C1A32235  37.707  19.098   8.555
 7950POPC   D2A32236  37.633  19.059   8.255
 7950POPC   C3A32237  37.661  19.107   7.955
 7950POPC   C4A32238  37.680  19.059   7.655
 7950POPC   C1B32239  37.459  19.035   8.555
 7950POPC   C2B32240  37.465  18.983   8.255
 7950POPC   C3B32241  37.403  19.022   7.955
 7950POPC   C4B32242  37.469  19.065   7.655
 7951POPC   NC332243  26.824  27.584   9.455
 7951POPC   PO432244  26.790  27.588   9.155
 7951POPC   GL132245  26.798  27.622   8.855
 7951POPC   GL232246  26.705  27.599   8.855
 7951POPC   C1A32247  26.845  27.615   8.555
 7951POPC   D2A32248  26.818  27.583   8.255
 7951POPC   C3A32249  26.805  27.585   7.955
 7951POPC   C4A32250  26.789  27.586   7.655
 7951POPC   C1B32251  26.558  27.666   8.555
 7951POPC   C2B32252  26.603  27.702   8.255
 7951POPC   C3B32253  26.611  27.636   7.955
 7951POPC   C4B32254  26.533  27.696   7.655
 7952POPC   NC332255  11.317   4.362   9.455
 7952POPC   PO432256  11.319   4.318   9.155
 7952POPC   GL132257  11.265   4.366   8.855
 7952POPC   GL232258  11.392   4.388   8.855
 7952POPC   C1A32259  11.265   4.344   8.555
 7952POPC   D2A32260  11.262   4.317   8.255
 7952POPC   C3A32261  11.269   4.297   7.955
 7952POPC   C4A32262  11.309   4.278   7.655
 7952POPC   C1B32263  11.558   4.373   8.555
 7952POPC   C2B32264  11.542   4.355   8.255
 7952POPC   C3B32265  11.566   4.375   7.955
 7952POPC   C4B32266  11.585   4.403   7.655
 7953POPC   NC332267  28.403  34.613   9.455
 7953POPC   PO432268  28.353  34.568   9.155
 7953POPC   GL132269  28.353  34.567   8.855
 7953POPC   GL232270  28.231  34.678   8.855
 7953POPC   C1A32271  28.419  34.593   8.555
 7953POPC   D2A32272  28.378  34.563   8.255
 7953POPC   C3A32273  28.324  34.566   7.955
 7953POPC   C4A32274  28.403  34.595   7.655
 7953POPC   C1B32275  28.199  34.754   8.555
 7953POPC   C2B32276  28.155  34.687   8.255
 7953POPC   C3B32277  28.204  34.743   7.955
 7953POPC   C4B32278  28.158  34.746   7.655
 7954POPC   NC332279  15.907  27.629   9.455
 7954POPC   PO432280  15.982  27.622   9.155
 7954POPC   GL132281  15.911  27.547   8.855
 7954POPC   GL232282  15.860  27.673   8.855
 7954POPC   C1A32283  15.935  27.561   8.555
 7954POPC   D2A32284  15.978  27.628   8.255
 7954POPC   C3A32285  15.911  27.596   7.955
 7954POPC   C4A32286  15.924  27.585   7.655
 7954POPC   C1B32287  15.807  27.753   8.555
 7954POPC   C2B32288  15.792  27.759   8.255
 7954POPC   C3B32289  15.821  27.817   7.955
 7954POPC   C4B32290  15.824  27.787   7.655
 7955POPC   NC332291  36.930  16.705   9.455
 7955POPC   PO432292  36.889  16.750   9.155
 7955POPC   GL132293  36.881  16.776   8.855
 7955POPC   GL232294  36.816  16.700   8.855
 7955POPC   C1A32295  36.864  16.691   8.555
 7955POPC   D2A32296  36.860  16.758   8.255
 7955POPC   C3A32297  36.951  16.687   7.955
 7955POPC   C4A32298  36.874  16.699   7.655
 7955POPC   C1B32299  36.648  16.552   8.555
 7955POPC   C2B32300  36.649  16.557   8.255
 7955POPC   C3B32301  36.715  16.581   7.955
 7955POPC   C4B32302  36.655  16.588   7.655
 7956POPC   NC332303   5.124  23.669   9.455
 7956POPC   PO432304   5.134  23.741   9.155
 7956POPC   GL132305   5.065  23.695   8.855
 7956POPC   GL232306   5.173  23.676   8.855
 7956POPC   C1A32307   5.074  23.677   8.555
 7956POPC   D2A32308   5.055  23.758   8.255
 7956POPC   C3A32309   5.091  23.755   7.955
 7956POPC   C4A32310   5.090  23.743   7.655
 7956POPC   C1B32311   5.363  23.651   8.555
 7956POPC   C2B32312   5.304  23.617   8.255
 7956POPC   C3B32313   5.330  23.635   7.955
 7956POPC   C4B32314   5.320  23.624   7.655
 7957POPC   NC332315  28.353  22.904   9.455
 7957POPC   PO432316  28.372  22.968   9.155
 7957POPC   GL132317  28.380  22.898   8.855
 7957POPC   GL232318  28.239  22.893   8.855
 7957POPC   C1A32319  28.370  22.941   8.555
 7957POPC   D2A32320  28.330  22.948   8.255
 7957POPC   C3A32321  28.368  22.937   7.955
 7957POPC   C4A32322  28.398  22.954   7.655
 7957POPC   C1B32323  28.114  22.903   8.555
 7957POPC   C2B32324  28.100  22.877   8.255
 7957POPC   C3B32325  28.075  22.921   7.955
 7957POPC   C4B32326  28.079  22.920   7.655
 7958POPC   NC332327  39.205  18.327   9.455
 7958POPC   PO432328  39.254  18.270   9.155
 7958POPC   GL132329  39.192  18.243   8.855
 7958POPC   GL232330  39.185  18.209   8.855
 7958POPC   C1A32331  39.273  18.282   8.555
 7958POPC   D2A32332  39.265  18.249   8.255
 7958POPC   C3A32333  39.231  18.295   7.955
 7958POPC   C4A32334  39.214  18.312   7.655
 7958POPC   C1B32335  39.111  18.036   8.555
 7958POPC   C2B32336  39.110  18.052   8.255
 7958POPC   C3B32337  39.164  18.010   7.955
 7958POPC   C4B32338  39.162  18.065   7.655
 7959POPC   NC332339  18.269  37.658   9.455
 7959POPC   PO432340  18.283  37.690   9.155
 7959POPC   GL132341  18.287  37.699   8.855
 7959POPC   GL232342  18.139  37.666   8.855
 7959POPC   C1A32343  18.306  37.671   8.555
 7959POPC   D2A32344  18.279  37.658   8.255
 7959POPC   C3A32345  18.278  37.668   7.955
 7959POPC   C4A32346  18.325  37.694   7.655
 7959POPC   C1B32347  18.037  37.532   8.555
 7959POPC   C2B32348  18.042  37.590   8.255
 7959POPC   C3B32349  18.050  37.593   7.955
 7959POPC   C4B32350  18.060  37.546   7.655
 7960POPC   NC332351  31.450  29.876   9.455
 7960POPC   PO432352  31.448  29.898   9.155
 7960POPC   GL132353  31.495  29.920   8.855
 7960POPC   GL232354  31.490  30.010   8.855
 7960POPC   C1A32355  31.501  29.934   8.555
 7960POPC   D2A32356  31.513  29.921   8.255
 7960POPC   C3A32357  31.508  29.962   7.955
 7960POPC   C4A32358  31.508  29.945   7.655
 7960POPC   C1B32359  31.470  30.145   8.555
 7960POPC   C2B32360  31.445  30.204   8.255
 7960POPC   C3B32361  31.464  30.146   7.955
 7960POPC   C4B32362  31.472  30.139   7.655
 7961POPC   NC332363  36.117  32.231   9.455
 7961POPC   PO432364  36.099  32.255   9.155
 7961POPC   GL132365  36.131  32.278   8.855
 7961POPC   GL232366  36.045  32.229   8.855
 7961POPC   C1A32367  36.141  32.244   8.555
 7961POPC   D2A32368  36.171  32.295   8.255
 7961POPC   C3A32369  36.135  32.279   7.955
 7961POPC   C4A32370  36.159  32.246   7.655
 7961POPC   C1B32371  35.902  32.187   8.555
 7961POPC   C2B32372  35.917  32.163   8.255
 7961POPC   C3B32373  35.866  32.194   7.955
 7961POPC   C4B32374  35.893  32.169   7.655
 7962POPC   NC332375  19.098   7.409   9.455
 7962POPC   PO432376  19.018   7.451   9.155
 7962POPC   GL132377  19.013   7.411   8.855
 7962POPC   GL232378  19.176   7.364   8.855
 7962POPC   C1A32379  19.100   7.390   8.555
 7962POPC   D2A32380  19.102   7.377   8.255
 7962POPC   C3A32381  19.028   7.395   7.955
 7962POPC   C4A32382  19.080   7.408   7.655
 7962POPC   C1B32383  19.248   7.251   8.555
 7962POPC   C2B32384  19.291   7.276   8.255
 7962POPC   C3B32385  19.281   7.313   7.955
 7962POPC   C4B32386  19.310   7.252   7.655
 7963POPC   NC332387   3.514  26.083   9.455
 7963POPC   PO432388   3.530  26.005   9.155
 7963POPC   GL132389   3.532  26.083   8.855
 7963POPC   GL232390   3.676  26.046   8.855
 7963POPC   C1A32391   3.531  26.054   8.555
 7963POPC   D2A32392   3.498  26.025   8.255
 7963POPC   C3A32393   3.563  26.091   7.955
 7963POPC   C4A32394   3.493  26.007   7.655
 7963POPC   C1B32395   3.779  26.019   8.555
 7963POPC   C2B32396   3.759  26.025   8.255
 7963POPC   C3B32397   3.832  26.081   7.955
 7963POPC   C4B32398   3.777  26.045   7.655
 7964POPC   NC332399  32.288  19.102   9.455
 7964POPC   PO432400  32.287  19.098   9.155
 7964POPC   GL132401  32.273  19.052   8.855
 7964POPC   GL232402  32.161  19.167   8.855
 7964POPC   C1A32403  32.254  19.075   8.555
 7964POPC   D2A32404  32.243  19.077   8.255
 7964POPC   C3A32405  32.255  19.105   7.955
 7964POPC   C4A32406  32.265  19.040   7.655
 7964POPC   C1B32407  32.029  19.176   8.555
 7964POPC   C2B32408  32.019  19.153   8.255
 7964POPC   C3B32409  32.072  19.227   7.955
 7964POPC   C4B32410  32.081  19.185   7.655
 7965POPC   NC332411   8.964   6.622   9.455
 7965POPC   PO432412   8.942   6.649   9.155
 7965POPC   GL132413   8.944   6.693   8.855
 7965POPC   GL232414   8.809   6.647   8.855
 7965POPC   C1A32415   8.968   6.615   8.555
 7965POPC   D2A32416   8.940   6.683   8.255
 7965POPC   C3A32417   8.925   6.627   7.955
 7965POPC   C4A32418   8.978   6.598   7.655
 7965POPC   C1B32419   8.711   6.741   8.555
 7965POPC   C2B32420   8.779   6.711   8.255
 7965POPC   C3B32421   8.704   6.692   7.955
 7965POPC   C4B32422   8.784   6.778   7.655
 7966POPC   NC332423  10.531  26.864   9.455
 7966POPC   PO432424  10.497  26.774   9.155
 7966POPC   GL132425  10.534  26.780   8.855
 7966POPC   GL232426  10.527  26.733   8.855
 7966POPC   C1A32427  10.516  26.836   8.555
 7966POPC   D2A32428  10.507  26.799   8.255
 7966POPC   C3A32429  10.506  26.809   7.955
 7966POPC   C4A32430  10.554  26.782   7.655
 7966POPC   C1B32431  10.451  26.537   8.555
 7966POPC   C2B32432  10.516  26.596   8.255
 7966POPC   C3B32433  10.502  26.538   7.955
 7966POPC   C4B32434  10.489  26.599   7.655
 7967POPC   NC332435  17.505   2.780   9.455
 7967POPC   PO432436  17.458   2.811   9.155
 7967POPC   GL132437  17.534   2.768   8.855
 7967POPC   GL232438  17.531   2.633   8.855
 7967POPC   C1A32439  17.492   2.787   8.555
 7967POPC   D2A32440  17.528   2.721   8.255
 7967POPC   C3A32441  17.536   2.808   7.955
 7967POPC   C4A32442  17.556   2.778   7.655
 7967POPC   C1B32443  17.452   2.532   8.555
 7967POPC   C2B32444  17.448   2.469   8.255
 7967POPC   C3B32445  17.460   2.520   7.955
 7967POPC   C4B32446  17.503   2.510   7.655
 7968POPC   NC332447  34.571  19.851   9.455
 7968POPC   PO432448  34.546  19.832   9.155
 7968POPC   GL132449  34.608  19.805   8.855
 7968POPC   GL232450  34.649  19.710   8.855
 7968POPC   C1A32451  34.538  19.828   8.555
 7968POPC   D2A32452  34.558  19.836   8.255
 7968POPC   C3A32453  34.555  19.864   7.955
 7968POPC   C4A32454  34.534  19.842   7.655
 7968POPC   C1B32455  34.746  19.622   8.555
 7968POPC   C2B32456  34.715  19.626   8.255
 7968POPC   C3B32457  34.661  19.601   7.955
 7968POPC   C4B32458  34.727  19.569   7.655
 7969POPC   NC332459  15.972  26.837   9.455
 7969POPC   PO432460  15.963  26.859   9.155
 7969POPC   GL132461  15.970  26.816   8.855
 7969POPC   GL232462  16.089  26.878   8.855
 7969POPC   C1A32463  15.995  26.835   8.555
 7969POPC   D2A32464  15.911  26.838   8.255
 7969POPC   C3A32465  15.912  26.833   7.955
 7969POPC   C4A32466  15.936  26.823   7.655
 7969POPC   C1B32467  16.159  26.904   8.555
 7969POPC   C2B32468  16.234  26.912   8.255
 7969POPC   C3B32469  16.209  26.954   7.955
 7969POPC   C4B32470  16.213  26.917   7.655
 7970POPC   NC332471  42.372  12.037   9.455
 7970POPC   PO432472  42.304  12.113   9.155
 7970POPC   GL132473  42.309  12.039   8.855
 7970POPC   GL232474  42.414  11.969   8.855
 7970POPC   C1A32475  42.352  12.110   8.555
 7970POPC   D2A32476  42.373  12.084   8.255
 7970POPC   C3A32477  42.332  12.113   7.955
 7970POPC   C4A32478  42.310  12.047   7.655
 7970POPC   C1B32479  42.402  11.864   8.555
 7970POPC   C2B32480  42.406  11.802   8.255
 7970POPC   C3B32481  42.427  11.863   7.955
 7970POPC   C4B32482  42.456  11.811   7.655
 7971POPC   NC332483   6.664  25.222   9.455
 7971POPC   PO432484   6.686  25.251   9.155
 7971POPC   GL132485   6.683  25.263   8.855
 7971POPC   GL232486   6.754  25.390   8.855
 7971POPC   C1A32487   6.663  25.301   8.555
 7971POPC   D2A32488   6.657  25.230   8.255
 7971POPC   C3A32489   6.692  25.304   7.955
 7971POPC   C4A32490   6.610  25.245   7.655
 7971POPC   C1B32491   6.813  25.400   8.555
 7971POPC   C2B32492   6.853  25.456   8.255
 7971POPC   C3B32493   6.808  25.446   7.955
 7971POPC   C4B32494   6.874  25.425   7.655
 7972POPC   NC332495  15.931  36.121   9.455
 7972POPC   PO432496  15.928  36.144   9.155
 7972POPC   GL132497  15.910  36.175   8.855
 7972POPC   GL232498  16.037  36.198   8.855
 7972POPC   C1A32499  15.976  36.174   8.555
 7972POPC   D2A32500  15.976  36.080   8.255
 7972POPC   C3A32501  15.907  36.089   7.955
 7972POPC   C4A32502  15.962  36.175   7.655
 7972POPC   C1B32503  16.191  36.248   8.555
 7972POPC   C2B32504  16.099  36.324   8.255
 7972POPC   C3B32505  16.191  36.295   7.955
 7972POPC   C4B32506  16.141  36.256   7.655
 7973POPC   NC332507  34.609  14.357   9.455
 7973POPC   PO432508  34.608  14.418   9.155
 7973POPC   GL132509  34.602  14.430   8.855
 7973POPC   GL232510  34.498  14.530   8.855
 7973POPC   C1A32511  34.624  14.397   8.555
 7973POPC   D2A32512  34.624  14.361   8.255
 7973POPC   C3A32513  34.616  14.381   7.955
 7973POPC   C4A32514  34.615  14.392   7.655
 7973POPC   C1B32515  34.404  14.631   8.555
 7973POPC   C2B32516  34.390  14.589   8.255
 7973POPC   C3B32517  34.384  14.623   7.955
 7973POPC   C4B32518  34.443  14.655   7.655
 7974POPC   NC332519  38.431   4.357   9.455
 7974POPC   PO432520  38.444   4.328   9.155
 7974POPC   GL132521  38.503   4.302   8.855
 7974POPC   GL232522  38.397   4.168   8.855
 7974POPC   C1A32523  38.461   4.310   8.555
 7974POPC   D2A32524  38.451   4.348   8.255
 7974POPC   C3A32525  38.470   4.288   7.955
 7974POPC   C4A32526  38.449   4.307   7.655
 7974POPC   C1B32527  38.412   4.049   8.555
 7974POPC   C2B32528  38.368   4.098   8.255
 7974POPC   C3B32529  38.370   4.119   7.955
 7974POPC   C4B32530  38.381   4.079   7.655
 7975POPC   NC332531  29.931  19.807   9.455
 7975POPC   PO432532  29.923  19.835   9.155
 7975POPC   GL132533  29.935  19.813   8.855
 7975POPC   GL232534  30.036  19.906   8.855
 7975POPC   C1A32535  29.874  19.868   8.555
 7975POPC   D2A32536  29.895  19.865   8.255
 7975POPC   C3A32537  29.946  19.819   7.955
 7975POPC   C4A32538  29.969  19.860   7.655
 7975POPC   C1B32539  30.180  19.935   8.555
 7975POPC   C2B32540  30.170  19.928   8.255
 7975POPC   C3B32541  30.172  19.934   7.955
 7975POPC   C4B32542  30.163  19.850   7.655
 7976POPC   NC332543  24.488   2.729   9.455
 7976POPC   PO432544  24.502   2.757   9.155
 7976POPC   GL132545  24.452   2.805   8.855
 7976POPC   GL232546  24.430   2.835   8.855
 7976POPC   C1A32547  24.487   2.717   8.555
 7976POPC   D2A32548  24.530   2.807   8.255
 7976POPC   C3A32549  24.477   2.734   7.955
 7976POPC   C4A32550  24.484   2.771   7.655
 7976POPC   C1B32551  24.358   3.013   8.555
 7976POPC   C2B32552  24.423   3.018   8.255
 7976POPC   C3B32553  24.412   2.948   7.955
 7976POPC   C4B32554  24.410   3.012   7.655
 7977POPC   NC332555  36.926   2.775   9.455
 7977POPC   PO432556  36.872   2.729   9.155
 7977POPC   GL132557  36.891   2.786   8.855
 7977POPC   GL232558  36.815   2.658   8.855
 7977POPC   C1A32559  36.921   2.742   8.555
 7977POPC   D2A32560  36.900   2.800   8.255
 7977POPC   C3A32561  36.861   2.726   7.955
 7977POPC   C4A32562  36.857   2.743   7.655
 7977POPC   C1B32563  36.745   2.646   8.555
 7977POPC   C2B32564  36.676   2.659   8.255
 7977POPC   C3B32565  36.683   2.661   7.955
 7977POPC   C4B32566  36.703   2.606   7.655
 7978POPC   NC332567  33.821  20.621   9.455
 7978POPC   PO432568  33.847  20.639   9.155
 7978POPC   GL132569  33.770  20.660   8.855
 7978POPC   GL232570  33.656  20.594   8.855
 7978POPC   C1A32571  33.765  20.598   8.555
 7978POPC   D2A32572  33.829  20.561   8.255
 7978POPC   C3A32573  33.768  20.650   7.955
 7978POPC   C4A32574  33.765  20.642   7.655
 7978POPC   C1B32575  33.582  20.577   8.555
 7978POPC   C2B32576  33.504  20.606   8.255
 7978POPC   C3B32577  33.558  20.609   7.955
 7978POPC   C4B32578  33.545  20.626   7.655
 7979POPC   NC332579   7.389   5.903   9.455
 7979POPC   PO432580   7.381   5.826   9.155
 7979POPC   GL132581   7.465   5.823   8.855
 7979POPC   GL232582   7.439   5.966   8.855
 7979POPC   C1A32583   7.422   5.906   8.555
 7979POPC   D2A32584   7.440   5.897   8.255
 7979POPC   C3A32585   7.468   5.836   7.955
 7979POPC   C4A32586   7.465   5.892   7.655
 7979POPC   C1B32587   7.469   6.151   8.555
 7979POPC   C2B32588   7.477   6.127   8.255
 7979POPC   C3B32589   7.477   6.065   7.955
 7979POPC   C4B32590   7.547   6.155   7.655
 7980POPC   NC332591  26.865  33.773   9.455
 7980POPC   PO432592  26.834  33.764   9.155
 7980POPC   GL132593  26.779  33.779   8.855
 7980POPC   GL232594  26.772  33.653   8.855
 7980POPC   C1A32595  26.806  33.782   8.555
 7980POPC   D2A32596  26.832  33.830   8.255
 7980POPC   C3A32597  26.855  33.775   7.955
 7980POPC   C4A32598  26.768  33.817   7.655
 7980POPC   C1B32599  26.795  33.511   8.555
 7980POPC   C2B32600  26.856  33.575   8.255
 7980POPC   C3B32601  26.824  33.515   7.955
 7980POPC   C4B32602  26.856  33.547   7.655
 7981POPC   NC332603  42.324  43.126   9.455
 7981POPC   PO432604  42.320  43.157   9.155
 7981POPC   GL132605  42.335  43.112   8.855
 7981POPC   GL232606  42.211  43.190   8.855
 7981POPC   C1A32607  42.347  43.106   8.555
 7981POPC   D2A32608  42.355  43.073   8.255
 7981POPC   C3A32609  42.380  43.133   7.955
 7981POPC   C4A32610  42.321  43.074   7.655
 7981POPC   C1B32611  42.205  43.259   8.555
 7981POPC   C2B32612  42.183  43.282   8.255
 7981POPC   C3B32613  42.168  43.293   7.955
 7981POPC   C4B32614  42.127  43.348   7.655
 7982POPC   NC332615  12.847  34.538   9.455
 7982POPC   PO432616  12.822  34.549   9.155
 7982POPC   GL132617  12.839  34.625   8.855
 7982POPC   GL232618  12.907  34.501   8.855
 7982POPC   C1A32619  12.890  34.593   8.555
 7982POPC   D2A32620  12.814  34.614   8.255
 7982POPC   C3A32621  12.821  34.534   7.955
 7982POPC   C4A32622  12.875  34.587   7.655
 7982POPC   C1B32623  12.973  34.360   8.555
 7982POPC   C2B32624  12.988  34.344   8.255
 7982POPC   C3B32625  13.065  34.412   7.955
 7982POPC   C4B32626  13.034  34.382   7.655
 7983POPC   NC332627  24.469  28.385   9.455
 7983POPC   PO432628  24.441  28.347   9.155
 7983POPC   GL132629  24.495  28.392   8.855
 7983POPC   GL232630  24.498  28.273   8.855
 7983POPC   C1A32631  24.463  28.349   8.555
 7983POPC   D2A32632  24.458  28.373   8.255
 7983POPC   C3A32633  24.472  28.325   7.955
 7983POPC   C4A32634  24.531  28.413   7.655
 7983POPC   C1B32635  24.404  28.161   8.555
 7983POPC   C2B32636  24.418  28.118   8.255
 7983POPC   C3B32637  24.432  28.138   7.955
 7983POPC   C4B32638  24.470  28.153   7.655
 7984POPC   NC332639  44.623  19.058   9.455
 7984POPC   PO432640  44.674  19.037   9.155
 7984POPC   GL132641  44.625  19.055   8.855
 7984POPC   GL232642  44.510  19.052   8.855
 7984POPC   C1A32643  44.613  19.041   8.555
 7984POPC   D2A32644  44.659  19.107   8.255
 7984POPC   C3A32645  44.661  19.078   7.955
 7984POPC   C4A32646  44.705  19.028   7.655
 7984POPC   C1B32647  44.381  18.985   8.555
 7984POPC   C2B32648  44.445  19.008   8.255
 7984POPC   C3B32649  44.390  19.011   7.955
 7984POPC   C4B32650  44.434  19.046   7.655
 7985POPC   NC332651  39.267  31.432   9.455
 7985POPC   PO432652  39.213  31.442   9.155
 7985POPC   GL132653  39.207  31.521   8.855
 7985POPC   GL232654  39.365  31.480   8.855
 7985POPC   C1A32655  39.186  31.436   8.555
 7985POPC   D2A32656  39.230  31.484   8.255
 7985POPC   C3A32657  39.230  31.509   7.955
 7985POPC   C4A32658  39.201  31.488   7.655
 7985POPC   C1B32659  39.484  31.539   8.555
 7985POPC   C2B32660  39.460  31.601   8.255
 7985POPC   C3B32661  39.420  31.568   7.955
 7985POPC   C4B32662  39.432  31.615   7.655
 7986POPC   NC332663  19.099  35.395   9.455
 7986POPC   PO432664  19.094  35.313   9.155
 7986POPC   GL132665  19.056  35.398   8.855
 7986POPC   GL232666  19.106  35.246   8.855
 7986POPC   C1A32667  19.045  35.389   8.555
 7986POPC   D2A32668  19.042  35.343   8.255
 7986POPC   C3A32669  19.098  35.352   7.955
 7986POPC   C4A32670  19.078  35.350   7.655
 7986POPC   C1B32671  19.154  35.160   8.555
 7986POPC   C2B32672  19.209  35.106   8.255
 7986POPC   C3B32673  19.167  35.133   7.955
 7986POPC   C4B32674  19.220  35.132   7.655
 7987POPC   NC332675   2.806  26.797   9.455
 7987POPC   PO432676   2.757  26.801   9.155
 7987POPC   GL132677   2.774  26.791   8.855
 7987POPC   GL232678   2.631  26.692   8.855
 7987POPC   C1A32679   2.785  26.800   8.555
 7987POPC   D2A32680   2.773  26.858   8.255
 7987POPC   C3A32681   2.733  26.787   7.955
 7987POPC   C4A32682   2.717  26.827   7.655
 7987POPC   C1B32683   2.614  26.656   8.555
 7987POPC   C2B32684   2.583  26.608   8.255
 7987POPC   C3B32685   2.575  26.621   7.955
 7987POPC   C4B32686   2.551  26.683   7.655
 7988POPC   NC332687  17.523  32.281   9.455
 7988POPC   PO432688  17.482  32.214   9.155
 7988POPC   GL132689  17.468  32.235   8.855
 7988POPC   GL232690  17.561  32.420   8.855
 7988POPC   C1A32691  17.465  32.288   8.555
 7988POPC   D2A32692  17.477  32.237   8.255
 7988POPC   C3A32693  17.534  32.243   7.955
 7988POPC   C4A32694  17.490  32.273   7.655
 7988POPC   C1B32695  17.527  32.543   8.555
 7988POPC   C2B32696  17.534  32.517   8.255
 7988POPC   C3B32697  17.530  32.459   7.955
 7988POPC   C4B32698  17.546  32.479   7.655
 7989POPC   NC332699   0.396  38.405   9.455
 7989POPC   PO432700   0.389  38.436   9.155
 7989POPC   GL132701   0.444  38.412   8.855
 7989POPC   GL232702   0.377  38.294   8.855
 7989POPC   C1A32703   0.407  38.500   8.555
 7989POPC   D2A32704   0.449  38.421   8.255
 7989POPC   C3A32705   0.419  38.424   7.955
 7989POPC   C4A32706   0.396  38.492   7.655
 7989POPC   C1B32707   0.416  38.206   8.555
 7989POPC   C2B32708   0.344  38.236   8.255
 7989POPC   C3B32709   0.364  38.247   7.955
 7989POPC   C4B32710   0.367  38.222   7.655
 7990POPC   NC332711   5.848  22.965   9.455
 7990POPC   PO432712   5.863  22.938   9.155
 7990POPC   GL132713   5.838  22.905   8.855
 7990POPC   GL232714   5.916  22.783   8.855
 7990POPC   C1A32715   5.848  22.970   8.555
 7990POPC   D2A32716   5.908  22.969   8.255
 7990POPC   C3A32717   5.913  22.923   7.955
 7990POPC   C4A32718   5.857  22.900   7.655
 7990POPC   C1B32719   5.929  22.690   8.555
 7990POPC   C2B32720   5.857  22.657   8.255
 7990POPC   C3B32721   5.890  22.662   7.955
 7990POPC   C4B32722   5.892  22.672   7.655
 7991POPC   NC332723  43.156  32.227   9.455
 7991POPC   PO432724  43.079  32.250   9.155
 7991POPC   GL132725  43.157  32.281   8.855
 7991POPC   GL232726  43.241  32.275   8.855
 7991POPC   C1A32727  43.129  32.224   8.555
 7991POPC   D2A32728  43.156  32.217   8.255
 7991POPC   C3A32729  43.155  32.238   7.955
 7991POPC   C4A32730  43.064  32.262   7.655
 7991POPC   C1B32731  43.311  32.245   8.555
 7991POPC   C2B32732  43.324  32.248   8.255
 7991POPC   C3B32733  43.367  32.303   7.955
 7991POPC   C4B32734  43.393  32.296   7.655
 7992POPC   NC332735   7.424  41.543   9.455
 7992POPC   PO432736   7.372  41.543   9.155
 7992POPC   GL132737   7.392  41.564   8.855
 7992POPC   GL232738   7.451  41.635   8.855
 7992POPC   C1A32739   7.376  41.541   8.555
 7992POPC   D2A32740   7.376  41.599   8.255
 7992POPC   C3A32741   7.413  41.519   7.955
 7992POPC   C4A32742   7.416  41.511   7.655
 7992POPC   C1B32743   7.428  41.847   8.555
 7992POPC   C2B32744   7.433  41.794   8.255
 7992POPC   C3B32745   7.436  41.793   7.955
 7992POPC   C4B32746   7.432  41.776   7.655
 7993POPC   NC332747  34.578  40.784   9.455
 7993POPC   PO432748  34.585  40.745   9.155
 7993POPC   GL132749  34.552  40.820   8.855
 7993POPC   GL232750  34.563  40.859   8.855
 7993POPC   C1A32751  34.562  40.748   8.555
 7993POPC   D2A32752  34.535  40.742   8.255
 7993POPC   C3A32753  34.536  40.780   7.955
 7993POPC   C4A32754  34.615  40.778   7.655
 7993POPC   C1B32755  34.559  41.050   8.555
 7993POPC   C2B32756  34.557  40.988   8.255
 7993POPC   C3B32757  34.528  41.030   7.955
 7993POPC   C4B32758  34.541  41.031   7.655
 7994POPC   NC332759   2.029   1.164   9.455
 7994POPC   PO432760   1.955   1.193   9.155
 7994POPC   GL132761   2.010   1.259   8.855
 7994POPC   GL232762   1.848   1.269   8.855
 7994POPC   C1A32763   1.990   1.252   8.555
 7994POPC   D2A32764   2.031   1.243   8.255
 7994POPC   C3A32765   2.006   1.185   7.955
 7994POPC   C4A32766   1.954   1.227   7.655
 7994POPC   C1B32767   1.753   1.370   8.555
 7994POPC   C2B32768   1.777   1.395   8.255
 7994POPC   C3B32769   1.837   1.357   7.955
 7994POPC   C4B32770   1.762   1.379   7.655
 7995POPC   NC332771   9.732  35.365   9.455
 7995POPC   PO432772   9.741  35.393   9.155
 7995POPC   GL132773   9.759  35.378   8.855
 7995POPC   GL232774   9.806  35.198   8.855
 7995POPC   C1A32775   9.760  35.378   8.555
 7995POPC   D2A32776   9.787  35.337   8.255
 7995POPC   C3A32777   9.731  35.316   7.955
 7995POPC   C4A32778   9.777  35.366   7.655
 7995POPC   C1B32779   9.854  35.084   8.555
 7995POPC   C2B32780   9.787  35.124   8.255
 7995POPC   C3B32781   9.847  35.144   7.955
 7995POPC   C4B32782   9.804  35.114   7.655
 7996POPC   NC332783  29.152  36.884   9.455
 7996POPC   PO432784  29.193  36.858   9.155
 7996POPC   GL132785  29.137  36.944   8.855
 7996POPC   GL232786  29.124  36.766   8.855
 7996POPC   C1A32787  29.097  36.918   8.555
 7996POPC   D2A32788  29.099  36.917   8.255
 7996POPC   C3A32789  29.111  36.932   7.955
 7996POPC   C4A32790  29.116  36.882   7.655
 7996POPC   C1B32791  29.020  36.682   8.555
 7996POPC   C2B32792  29.066  36.684   8.255
 7996POPC   C3B32793  29.019  36.659   7.955
 7996POPC   C4B32794  28.997  36.687   7.655
 7997POPC   NC332795   9.734  42.330   9.455
 7997POPC   PO432796   9.717  42.318   9.155
 7997POPC   GL132797   9.701  42.323   8.855
 7997POPC   GL232798   9.665  42.246   8.855
 7997POPC   C1A32799   9.779  42.357   8.555
 7997POPC   D2A32800   9.753  42.317   8.255
 7997POPC   C3A32801   9.784  42.346   7.955
 7997POPC   C4A32802   9.717  42.325   7.655
 7997POPC   C1B32803   9.685  42.094   8.555
 7997POPC   C2B32804   9.667  42.056   8.255
 7997POPC   C3B32805   9.682  42.067   7.955
 7997POPC   C4B32806   9.682  42.069   7.655
 7998POPC   NC332807  36.932  39.209   9.455
 7998POPC   PO432808  36.941  39.266   9.155
 7998POPC   GL132809  36.883  39.256   8.855
 7998POPC   GL232810  36.856  39.309   8.855
 7998POPC   C1A32811  36.933  39.263   8.555
 7998POPC   D2A32812  36.931  39.204   8.255
 7998POPC   C3A32813  36.947  39.278   7.955
 7998POPC   C4A32814  36.883  39.210   7.655
 7998POPC   C1B32815  36.820  39.473   8.555
 7998POPC   C2B32816  36.768  39.457   8.255
 7998POPC   C3B32817  36.817  39.435   7.955
 7998POPC   C4B32818  36.752  39.496   7.655
 7999POPC   NC332819  31.497  33.022   9.455
 7999POPC   PO432820  31.503  32.987   9.155
 7999POPC   GL132821  31.436  33.005   8.855
 7999POPC   GL232822  31.329  33.078   8.855
 7999POPC   C1A32823  31.490  33.001   8.555
 7999POPC   D2A32824  31.433  32.993   8.255
 7999POPC   C3A32825  31.432  33.033   7.955
 7999POPC   C4A32826  31.480  32.980   7.655
 7999POPC   C1B32827  31.281  33.136   8.555
 7999POPC   C2B32828  31.236  33.151   8.255
 7999POPC   C3B32829  31.260  33.062   7.955
 7999POPC   C4B32830  31.226  33.092   7.655
 8000POPC   NC332831   0.391  22.964   9.455
 8000POPC   PO432832   0.480  22.901   9.155
 8000POPC   GL132833   0.465  22.977   8.855
 8000POPC   GL232834   0.504  23.073   8.855
 8000POPC   C1A32835   0.452  22.915   8.555
 8000POPC   D2A32836   0.445  22.917   8.255
 8000POPC   C3A32837   0.476  22.942   7.955
 8000POPC   C4A32838   0.456  22.967   7.655
 8000POPC   C1B32839   0.531  23.142   8.555
 8000POPC   C2B32840   0.531  23.166   8.255
 8000POPC   C3B32841   0.555  23.147   7.955
 8000POPC   C4B32842   0.494  23.178   7.655
 8001POPC   NC332843  25.237   2.738   9.455
 8001POPC   PO432844  25.250   2.811   9.155
 8001POPC   GL132845  25.256   2.755   8.855
 8001POPC   GL232846  25.303   2.692   8.855
 8001POPC   C1A32847  25.275   2.747   8.555
 8001POPC   D2A32848  25.252   2.727   8.255
 8001POPC   C3A32849  25.302   2.729   7.955
 8001POPC   C4A32850  25.287   2.746   7.655
 8001POPC   C1B32851  25.313   2.490   8.555
 8001POPC   C2B32852  25.370   2.473   8.255
 8001POPC   C3B32853  25.320   2.524   7.955
 8001POPC   C4B32854  25.311   2.555   7.655
 8002POPC   NC332855  22.123  21.352   9.455
 8002POPC   PO432856  22.172  21.358   9.155
 8002POPC   GL132857  22.167  21.374   8.855
 8002POPC   GL232858  22.179  21.251   8.855
 8002POPC   C1A32859  22.144  21.364   8.555
 8002POPC   D2A32860  22.117  21.340   8.255
 8002POPC   C3A32861  22.171  21.409   7.955
 8002POPC   C4A32862  22.113  21.382   7.655
 8002POPC   C1B32863  22.069  21.182   8.555
 8002POPC   C2B32864  22.082  21.154   8.255
 8002POPC   C3B32865  22.101  21.128   7.955
 8002POPC   C4B32866  22.150  21.161   7.655
 8003POPC   NC332867  30.653  43.146   9.455
 8003POPC   PO432868  30.651  43.132   9.155
 8003POPC   GL132869  30.678  43.067   8.855
 8003POPC   GL232870  30.826  43.112   8.855
 8003POPC   C1A32871  30.666  43.107   8.555
 8003POPC   D2A32872  30.696  43.082   8.255
 8003POPC   C3A32873  30.656  43.114   7.955
 8003POPC   C4A32874  30.702  43.131   7.655
 8003POPC   C1B32875  30.954  43.155   8.555
 8003POPC   C2B32876  30.978  43.176   8.255
 8003POPC   C3B32877  30.910  43.132   7.955
 8003POPC   C4B32878  30.901  43.147   7.655
 8004POPC   NC332879  36.888  22.141   9.455
 8004POPC   PO432880  36.946  22.123   9.155
 8004POPC   GL132881  36.930  22.210   8.855
 8004POPC   GL232882  36.896  22.055   8.855
 8004POPC   C1A32883  36.876  22.200   8.555
 8004POPC   D2A32884  36.909  22.169   8.255
 8004POPC   C3A32885  36.896  22.174   7.955
 8004POPC   C4A32886  36.890  22.178   7.655
 8004POPC   C1B32887  36.799  21.891   8.555
 8004POPC   C2B32888  36.781  21.956   8.255
 8004POPC   C3B32889  36.782  21.908   7.955
 8004POPC   C4B32890  36.807  21.948   7.655
 8005POPC   NC332891   8.970  40.003   9.455
 8005POPC   PO432892   8.957  39.979   9.155
 8005POPC   GL132893   8.995  39.971   8.855
 8005POPC   GL232894   9.087  39.996   8.855
 8005POPC   C1A32895   9.022  39.971   8.555
 8005POPC   D2A32896   8.944  40.010   8.255
 8005POPC   C3A32897   9.000  39.962   7.955
 8005POPC   C4A32898   8.926  39.976   7.655
 8005POPC   C1B32899   9.267  39.956   8.555
 8005POPC   C2B32900   9.225  39.983   8.255
 8005POPC   C3B32901   9.180  40.032   7.955
 8005POPC   C4B32902   9.189  39.977   7.655
 8006POPC   NC332903  13.657  32.262   9.455
 8006POPC   PO432904  13.584  32.254   9.155
 8006POPC   GL132905  13.666  32.296   8.855
 8006POPC   GL232906  13.692  32.382   8.855
 8006POPC   C1A32907  13.584  32.207   8.555
 8006POPC   D2A32908  13.669  32.211   8.255
 8006POPC   C3A32909  13.613  32.289   7.955
 8006POPC   C4A32910  13.580  32.236   7.655
 8006POPC   C1B32911  13.701  32.490   8.555
 8006POPC   C2B32912  13.682  32.454   8.255
 8006POPC   C3B32913  13.690  32.467   7.955
 8006POPC   C4B32914  13.660  32.507   7.655
 8007POPC   NC332915  12.043   1.211   9.455
 8007POPC   PO432916  12.053   1.258   9.155
 8007POPC   GL132917  12.042   1.217   8.855
 8007POPC   GL232918  12.048   1.049   8.855
 8007POPC   C1A32919  12.100   1.219   8.555
 8007POPC   D2A32920  12.125   1.256   8.255
 8007POPC   C3A32921  12.116   1.165   7.955
 8007POPC   C4A32922  12.105   1.260   7.655
 8007POPC   C1B32923  12.009   0.934   8.555
 8007POPC   C2B32924  12.055   1.010   8.255
 8007POPC   C3B32925  12.059   0.937   7.955
 8007POPC   C4B32926  12.066   0.929   7.655
 8008POPC   NC332927  37.665  12.890   9.455
 8008POPC   PO432928  37.687  12.877   9.155
 8008POPC   GL132929  37.667  12.898   8.855
 8008POPC   GL232930  37.595  12.888   8.855
 8008POPC   C1A32931  37.691  12.859   8.555
 8008POPC   D2A32932  37.681  12.840   8.255
 8008POPC   C3A32933  37.648  12.808   7.955
 8008POPC   C4A32934  37.682  12.851   7.655
 8008POPC   C1B32935  37.506  12.984   8.555
 8008POPC   C2B32936  37.446  13.065   8.255
 8008POPC   C3B32937  37.530  13.052   7.955
 8008POPC   C4B32938  37.461  13.025   7.655
 8009POPC   NC332939   0.451  39.967   9.455
 8009POPC   PO432940   0.424  40.053   9.155
 8009POPC   GL132941   0.474  39.979   8.855
 8009POPC   GL232942   0.414  40.088   8.855
 8009POPC   C1A32943   0.478  40.042   8.555
 8009POPC   D2A32944   0.388  39.992   8.255
 8009POPC   C3A32945   0.428  40.002   7.955
 8009POPC   C4A32946   0.471  40.039   7.655
 8009POPC   C1B32947   0.296  40.218   8.555
 8009POPC   C2B32948   0.291  40.185   8.255
 8009POPC   C3B32949   0.251  40.218   7.955
 8009POPC   C4B32950   0.277  40.183   7.655
 8010POPC   NC332951   0.406  16.761   9.455
 8010POPC   PO432952   0.484  16.754   9.155
 8010POPC   GL132953   0.466  16.756   8.855
 8010POPC   GL232954   0.552  16.807   8.855
 8010POPC   C1A32955   0.445  16.696   8.555
 8010POPC   D2A32956   0.452  16.779   8.255
 8010POPC   C3A32957   0.404  16.725   7.955
 8010POPC   C4A32958   0.460  16.733   7.655
 8010POPC   C1B32959   0.667  16.866   8.555
 8010POPC   C2B32960   0.669  16.858   8.255
 8010POPC   C3B32961   0.590  16.847   7.955
 8010POPC   C4B32962   0.587  16.849   7.655
 8011POPC   NC332963  42.322  27.635   9.455
 8011POPC   PO432964  42.384  27.621   9.155
 8011POPC   GL132965  42.380  27.641   8.855
 8011POPC   GL232966  42.452  27.613   8.855
 8011POPC   C1A32967  42.319  27.622   8.555
 8011POPC   D2A32968  42.345  27.545   8.255
 8011POPC   C3A32969  42.358  27.626   7.955
 8011POPC   C4A32970  42.356  27.573   7.655
 8011POPC   C1B32971  42.544  27.694   8.555
 8011POPC   C2B32972  42.559  27.672   8.255
 8011POPC   C3B32973  42.562  27.716   7.955
 8011POPC   C4B32974  42.541  27.719   7.655
 8012POPC   NC332975   1.189  10.554   9.455
 8012POPC   PO432976   1.199  10.540   9.155
 8012POPC   GL132977   1.176  10.548   8.855
 8012POPC   GL232978   1.075  10.621   8.855
 8012POPC   C1A32979   1.212  10.485   8.555
 8012POPC   D2A32980   1.172  10.481   8.255
 8012POPC   C3A32981   1.216  10.527   7.955
 8012POPC   C4A32982   1.186  10.551   7.655
 8012POPC   C1B32983   1.018  10.704   8.555
 8012POPC   C2B32984   1.057  10.676   8.255
 8012POPC   C3B32985   1.058  10.634   7.955
 8012POPC   C4B32986   0.988  10.654   7.655
 8013POPC   NC332987  32.199  12.828   9.455
 8013POPC   PO432988  32.216  12.807   9.155
 8013POPC   GL132989  32.227  12.897   8.855
 8013POPC   GL232990  32.261  12.991   8.855
 8013POPC   C1A32991  32.206  12.842   8.555
 8013POPC   D2A32992  32.259  12.810   8.255
 8013POPC   C3A32993  32.249  12.824   7.955
 8013POPC   C4A32994  32.286  12.891   7.655
 8013POPC   C1B32995  32.367  13.052   8.555
 8013POPC   C2B32996  32.391  13.030   8.255
 8013POPC   C3B32997  32.374  13.104   7.955
 8013POPC   C4B32998  32.325  13.043   7.655
 8014POPC   NC332999  32.199  39.252   9.455
 8014POPC   PO433000  32.214  39.278   9.155
 8014POPC   GL133001  32.203  39.230   8.855
 8014POPC   GL233002  32.308  39.306   8.855
 8014POPC   C1A33003  32.279  39.232   8.555
 8014POPC   D2A33004  32.202  39.264   8.255
 8014POPC   C3A33005  32.292  39.211   7.955
 8014POPC   C4A33006  32.226  39.241   7.655
 8014POPC   C1B33007  32.499  39.352   8.555
 8014POPC   C2B33008  32.473  39.402   8.255
 8014POPC   C3B33009  32.434  39.392   7.955
 8014POPC   C4B33010  32.468  39.401   7.655
 8015POPC   NC333011  31.463   2.730   9.455
 8015POPC   PO433012  31.517   2.790   9.155
 8015POPC   GL133013  31.426   2.798   8.855
 8015POPC   GL233014  31.415   2.839   8.855
 8015POPC   C1A33015  31.480   2.717   8.555
 8015POPC   D2A33016  31.512   2.730   8.255
 8015POPC   C3A33017  31.501   2.768   7.955
 8015POPC   C4A33018  31.498   2.759   7.655
 8015POPC   C1B33019  31.372   3.011   8.555
 8015POPC   C2B33020  31.300   2.921   8.255
 8015POPC   C3B33021  31.303   2.965   7.955
 8015POPC   C4B33022  31.318   2.971   7.655
 8016POPC   NC333023  20.563   0.421   9.455
 8016POPC   PO433024  20.574   0.425   9.155
 8016POPC   GL133025  20.595   0.445   8.855
 8016POPC   GL233026  20.559   0.375   8.855
 8016POPC   C1A33027  20.629   0.424   8.555
 8016POPC   D2A33028  20.648   0.470   8.255
 8016POPC   C3A33029  20.637   0.419   7.955
 8016POPC   C4A33030  20.654   0.406   7.655
 8016POPC   C1B33031  20.523   0.255   8.555
 8016POPC   C2B33032  20.443   0.247   8.255
 8016POPC   C3B33033  20.515   0.272   7.955
 8016POPC   C4B33034  20.523   0.271   7.655
 8017POPC   NC333035  22.928  20.576   9.455
 8017POPC   PO433036  22.912  20.642   9.155
 8017POPC   GL133037  22.926  20.640   8.855
 8017POPC   GL233038  23.051  20.520   8.855
 8017POPC   C1A33039  22.984  20.612   8.555
 8017POPC   D2A33040  22.949  20.578   8.255
 8017POPC   C3A33041  22.970  20.623   7.955
 8017POPC   C4A33042  22.964  20.599   7.655
 8017POPC   C1B33043  23.037  20.431   8.555
 8017POPC   C2B33044  23.083  20.377   8.255
 8017POPC   C3B33045  23.089  20.386   7.955
 8017POPC   C4B33046  23.030  20.384   7.655
 8018POPC   NC333047  11.251  44.696   9.455
 8018POPC   PO433048  11.331  44.632   9.155
 8018POPC   GL133049  11.338  44.697   8.855
 8018POPC   GL233050  11.431  44.601   8.855
 8018POPC   C1A33051  11.350  44.705   8.555
 8018POPC   D2A33052  11.312  44.613   8.255
 8018POPC   C3A33053  11.268  44.673   7.955
 8018POPC   C4A33054  11.350  44.657   7.655
 8018POPC   C1B33055  11.512  44.603   8.555
 8018POPC   C2B33056  11.583  44.662   8.255
 8018POPC   C3B33057  11.596  44.591   7.955
 8018POPC   C4B33058  11.591  44.618   7.655
 8019POPC   NC333059  29.128   7.391   9.455
 8019POPC   PO433060  29.167   7.373   9.155
 8019POPC   GL133061  29.152   7.393   8.855
 8019POPC   GL233062  29.249   7.340   8.855
 8019POPC   C1A33063  29.126   7.393   8.555
 8019POPC   D2A33064  29.110   7.380   8.255
 8019POPC   C3A33065  29.139   7.375   7.955
 8019POPC   C4A33066  29.124   7.459   7.655
 8019POPC   C1B33067  29.286   7.161   8.555
 8019POPC   C2B33068  29.239   7.200   8.255
 8019POPC   C3B33069  29.237   7.182   7.955
 8019POPC   C4B33070  29.291   7.150   7.655
 8020POPC   NC333071  24.459  39.232   9.455
 8020POPC   PO433072  24.537  39.272   9.155
 8020POPC   GL133073  24.514  39.261   8.855
 8020POPC   GL233074  24.386  39.333   8.855
 8020POPC   C1A33075  24.519  39.258   8.555
 8020POPC   D2A33076  24.474  39.228   8.255
 8020POPC   C3A33077  24.529  39.191   7.955
 8020POPC   C4A33078  24.456  39.277   7.655
 8020POPC   C1B33079  24.328  39.323   8.555
 8020POPC   C2B33080  24.271  39.393   8.255
 8020POPC   C3B33081  24.293  39.358   7.955
 8020POPC   C4B33082  24.247  39.338   7.655
 8021POPC   NC333083  22.926  23.667   9.455
 8021POPC   PO433084  22.977  23.677   9.155
 8021POPC   GL133085  22.912  23.759   8.855
 8021POPC   GL233086  23.070  23.698   8.855
 8021POPC   C1A33087  22.918  23.675   8.555
 8021POPC   D2A33088  22.935  23.665   8.255
 8021POPC   C3A33089  22.983  23.739   7.955
 8021POPC   C4A33090  22.967  23.673   7.655
 8021POPC   C1B33091  23.197  23.794   8.555
 8021POPC   C2B33092  23.195  23.775   8.255
 8021POPC   C3B33093  23.228  23.711   7.955
 8021POPC   C4B33094  23.147  23.789   7.655
 8022POPC   NC333095   7.416  42.296   9.455
 8022POPC   PO433096   7.410  42.321   9.155
 8022POPC   GL133097   7.390  42.371   8.855
 8022POPC   GL233098   7.256  42.271   8.855
 8022POPC   C1A33099   7.371  42.361   8.555
 8022POPC   D2A33100   7.395  42.345   8.255
 8022POPC   C3A33101   7.434  42.334   7.955
 8022POPC   C4A33102   7.389  42.380   7.655
 8022POPC   C1B33103   7.206  42.242   8.555
 8022POPC   C2B33104   7.214  42.248   8.255
 8022POPC   C3B33105   7.228  42.280   7.955
 8022POPC   C4B33106   7.211  42.201   7.655
 8023POPC   NC333107  29.879  34.528   9.455
 8023POPC   PO433108  29.874  34.537   9.155
 8023POPC   GL133109  29.967  34.565   8.855
 8023POPC   GL233110  30.046  34.608   8.855
 8023POPC   C1A33111  29.940  34.538   8.555
 8023POPC   D2A33112  29.935  34.528   8.255
 8023POPC   C3A33113  29.873  34.555   7.955
 8023POPC   C4A33114  29.871  34.541   7.655
 8023POPC   C1B33115  30.196  34.608   8.555
 8023POPC   C2B33116  30.191  34.624   8.255
 8023POPC   C3B33117  30.150  34.638   7.955
 8023POPC   C4B33118  30.212  34.586   7.655
 8024POPC   NC333119  28.341  23.722   9.455
 8024POPC   PO433120  28.323  23.672   9.155
 8024POPC   GL133121  28.341  23.666   8.855
 8024POPC   GL233122  28.465  23.588   8.855
 8024POPC   C1A33123  28.400  23.749   8.555
 8024POPC   D2A33124  28.343  23.759   8.255
 8024POPC   C3A33125  28.392  23.709   7.955
 8024POPC   C4A33126  28.403  23.728   7.655
 8024POPC   C1B33127  28.543  23.462   8.555
 8024POPC   C2B33128  28.471  23.527   8.255
 8024POPC   C3B33129  28.552  23.540   7.955
 8024POPC   C4B33130  28.562  23.552   7.655
 8025POPC   NC333131  16.681  33.067   9.455
 8025POPC   PO433132  16.728  33.037   9.155
 8025POPC   GL133133  16.758  33.031   8.855
 8025POPC   GL233134  16.639  32.942   8.855
 8025POPC   C1A33135  16.685  32.979   8.555
 8025POPC   D2A33136  16.693  33.037   8.255
 8025POPC   C3A33137  16.695  33.072   7.955
 8025POPC   C4A33138  16.758  32.996   7.655
 8025POPC   C1B33139  16.529  32.859   8.555
 8025POPC   C2B33140  16.550  32.888   8.255
 8025POPC   C3B33141  16.574  32.866   7.955
 8025POPC   C4B33142  16.558  32.869   7.655
 8026POPC   NC333143  25.274  26.065   9.455
 8026POPC   PO433144  25.258  26.079   9.155
 8026POPC   GL133145  25.234  26.010   8.855
 8026POPC   GL233146  25.270  26.119   8.855
 8026POPC   C1A33147  25.309  26.018   8.555
 8026POPC   D2A33148  25.272  26.009   8.255
 8026POPC   C3A33149  25.233  26.049   7.955
 8026POPC   C4A33150  25.265  25.995   7.655
 8026POPC   C1B33151  25.326  26.252   8.555
 8026POPC   C2B33152  25.406  26.297   8.255
 8026POPC   C3B33153  25.411  26.269   7.955
 8026POPC   C4B33154  25.348  26.288   7.655
 8027POPC   NC333155  44.675   6.614   9.455
 8027POPC   PO433156  44.683   6.625   9.155
 8027POPC   GL133157  44.645   6.626   8.855
 8027POPC   GL233158  44.565   6.654   8.855
 8027POPC   C1A33159  44.676   6.679   8.555
 8027POPC   D2A33160  44.667   6.672   8.255
 8027POPC   C3A33161  44.614   6.628   7.955
 8027POPC   C4A33162  44.704   6.615   7.655
 8027POPC   C1B33163  44.390   6.585   8.555
 8027POPC   C2B33164  44.454   6.615   8.255
 8027POPC   C3B33165  44.415   6.566   7.955
 8027POPC   C4B33166  44.410   6.630   7.655
 8028POPC   NC333167   6.674  12.112   9.455
 8028POPC   PO433168   6.639  12.043   9.155
 8028POPC   GL133169   6.665  12.107   8.855
 8028POPC   GL233170   6.576  12.130   8.855
 8028POPC   C1A33171   6.663  12.112   8.555
 8028POPC   D2A33172   6.600  12.049   8.255
 8028POPC   C3A33173   6.693  12.049   7.955
 8028POPC   C4A33174   6.653  12.030   7.655
 8028POPC   C1B33175   6.387  12.219   8.555
 8028POPC   C2B33176   6.406  12.233   8.255
 8028POPC   C3B33177   6.391  12.205   7.955
 8028POPC   C4B33178   6.463  12.194   7.655
 8029POPC   NC333179  21.417  39.260   9.455
 8029POPC   PO433180  21.411  39.275   9.155
 8029POPC   GL133181  21.378  39.234   8.855
 8029POPC   GL233182  21.502  39.356   8.855
 8029POPC   C1A33183  21.394  39.182   8.555
 8029POPC   D2A33184  21.341  39.223   8.255
 8029POPC   C3A33185  21.338  39.280   7.955
 8029POPC   C4A33186  21.435  39.204   7.655
 8029POPC   C1B33187  21.592  39.407   8.555
 8029POPC   C2B33188  21.577  39.369   8.255
 8029POPC   C3B33189  21.607  39.446   7.955
 8029POPC   C4B33190  21.575  39.433   7.655
 8030POPC   NC333191  28.392  31.469   9.455
 8030POPC   PO433192  28.373  31.430   9.155
 8030POPC   GL133193  28.384  31.500   8.855
 8030POPC   GL233194  28.225  31.469   8.855
 8030POPC   C1A33195  28.368  31.518   8.555
 8030POPC   D2A33196  28.323  31.480   8.255
 8030POPC   C3A33197  28.347  31.457   7.955
 8030POPC   C4A33198  28.333  31.517   7.655
 8030POPC   C1B33199  28.095  31.439   8.555
 8030POPC   C2B33200  28.070  31.491   8.255
 8030POPC   C3B33201  28.134  31.525   7.955
 8030POPC   C4B33202  28.079  31.532   7.655
 8031POPC   NC333203  31.453   6.672   9.455
 8031POPC   PO433204  31.436   6.680   9.155
 8031POPC   GL133205  31.428   6.619   8.855
 8031POPC   GL233206  31.581   6.515   8.855
 8031POPC   C1A33207  31.494   6.627   8.555
 8031POPC   D2A33208  31.478   6.692   8.255
 8031POPC   C3A33209  31.452   6.645   7.955
 8031POPC   C4A33210  31.492   6.688   7.655
 8031POPC   C1B33211  31.683   6.442   8.555
 8031POPC   C2B33212  31.617   6.485   8.255
 8031POPC   C3B33213  31.656   6.480   7.955
 8031POPC   C4B33214  31.608   6.496   7.655
 8032POPC   NC333215  22.166  35.322   9.455
 8032POPC   PO433216  22.120  35.340   9.155
 8032POPC   GL133217  22.120  35.366   8.855
 8032POPC   GL233218  22.106  35.286   8.855
 8032POPC   C1A33219  22.117  35.372   8.555
 8032POPC   D2A33220  22.172  35.346   8.255
 8032POPC   C3A33221  22.148  35.340   7.955
 8032POPC   C4A33222  22.192  35.367   7.655
 8032POPC   C1B33223  21.953  35.139   8.555
 8032POPC   C2B33224  22.006  35.184   8.255
 8032POPC   C3B33225  21.998  35.169   7.955
 8032POPC   C4B33226  21.952  35.180   7.655
 8033POPC   NC333227  40.776  17.520   9.455
 8033POPC   PO433228  40.828  17.495   9.155
 8033POPC   GL133229  40.757  17.480   8.855
 8033POPC   GL233230  40.646  17.497   8.855
 8033POPC   C1A33231  40.784  17.524   8.555
 8033POPC   D2A33232  40.820  17.531   8.255
 8033POPC   C3A33233  40.771  17.493   7.955
 8033POPC   C4A33234  40.733  17.478   7.655
 8033POPC   C1B33235  40.500  17.550   8.555
 8033POPC   C2B33236  40.538  17.468   8.255
 8033POPC   C3B33237  40.516  17.478   7.955
 8033POPC   C4B33238  40.582  17.482   7.655
 8034POPC   NC333239  33.823   5.070   9.455
 8034POPC   PO433240  33.792   5.087   9.155
 8034POPC   GL133241  33.759   5.128   8.855
 8034POPC   GL233242  33.762   4.987   8.855
 8034POPC   C1A33243  33.822   5.069   8.555
 8034POPC   D2A33244  33.768   5.060   8.255
 8034POPC   C3A33245  33.828   5.102   7.955
 8034POPC   C4A33246  33.757   5.071   7.655
 8034POPC   C1B33247  33.645   4.905   8.555
 8034POPC   C2B33248  33.655   4.876   8.255
 8034POPC   C3B33249  33.677   4.897   7.955
 8034POPC   C4B33250  33.621   4.956   7.655
 8035POPC   NC333251  22.195  16.684   9.455
 8035POPC   PO433252  22.151  16.687   9.155
 8035POPC   GL133253  22.179  16.700   8.855
 8035POPC   GL233254  22.099  16.853   8.855
 8035POPC   C1A33255  22.206  16.698   8.555
 8035POPC   D2A33256  22.155  16.771   8.255
 8035POPC   C3A33257  22.168  16.715   7.955
 8035POPC   C4A33258  22.210  16.692   7.655
 8035POPC   C1B33259  22.043  16.906   8.555
 8035POPC   C2B33260  21.987  16.915   8.255
 8035POPC   C3B33261  22.033  16.895   7.955
 8035POPC   C4B33262  21.973  16.940   7.655
 8036POPC   NC333263  36.136  42.352   9.455
 8036POPC   PO433264  36.175  42.376   9.155
 8036POPC   GL133265  36.131  42.368   8.855
 8036POPC   GL233266  36.282  42.396   8.855
 8036POPC   C1A33267  36.140  42.308   8.555
 8036POPC   D2A33268  36.119  42.379   8.255
 8036POPC   C3A33269  36.112  42.319   7.955
 8036POPC   C4A33270  36.170  42.376   7.655
 8036POPC   C1B33271  36.364  42.320   8.555
 8036POPC   C2B33272  36.335  42.350   8.255
 8036POPC   C3B33273  36.375  42.388   7.955
 8036POPC   C4B33274  36.327  42.323   7.655
 8037POPC   NC333275  25.998  20.583   9.455
 8037POPC   PO433276  26.089  20.653   9.155
 8037POPC   GL133277  25.995  20.608   8.855
 8037POPC   GL233278  26.171  20.588   8.855
 8037POPC   C1A33279  26.089  20.616   8.555
 8037POPC   D2A33280  26.032  20.595   8.255
 8037POPC   C3A33281  26.073  20.591   7.955
 8037POPC   C4A33282  26.085  20.576   7.655
 8037POPC   C1B33283  26.265  20.434   8.555
 8037POPC   C2B33284  26.246  20.513   8.255
 8037POPC   C3B33285  26.278  20.510   7.955
 8037POPC   C4B33286  26.243  20.528   7.655
 8038POPC   NC333287  21.419  35.346   9.455
 8038POPC   PO433288  21.433  35.302   9.155
 8038POPC   GL133289  21.346  35.381   8.855
 8038POPC   GL233290  21.416  35.479   8.855
 8038POPC   C1A33291  21.414  35.309   8.555
 8038POPC   D2A33292  21.375  35.362   8.255
 8038POPC   C3A33293  21.346  35.349   7.955
 8038POPC   C4A33294  21.429  35.302   7.655
 8038POPC   C1B33295  21.447  35.573   8.555
 8038POPC   C2B33296  21.476  35.592   8.255
 8038POPC   C3B33297  21.480  35.544   7.955
 8038POPC   C4B33298  21.431  35.554   7.655
 8039POPC   NC333299  12.809   9.750   9.455
 8039POPC   PO433300  12.850   9.716   9.155
 8039POPC   GL133301  12.814   9.732   8.855
 8039POPC   GL233302  12.726   9.798   8.855
 8039POPC   C1A33303  12.873   9.750   8.555
 8039POPC   D2A33304  12.860   9.788   8.255
 8039POPC   C3A33305  12.839   9.721   7.955
 8039POPC   C4A33306  12.853   9.739   7.655
 8039POPC   C1B33307  12.646   9.776   8.555
 8039POPC   C2B33308  12.569   9.736   8.255
 8039POPC   C3B33309  12.603   9.763   7.955
 8039POPC   C4B33310  12.554   9.773   7.655
 8040POPC   NC333311  32.992  44.686   9.455
 8040POPC   PO433312  33.009  44.685   9.155
 8040POPC   GL133313  32.994  44.702   8.855
 8040POPC   GL233314  33.015  44.797   8.855
 8040POPC   C1A33315  33.044  44.706   8.555
 8040POPC   D2A33316  33.066  44.652   8.255
 8040POPC   C3A33317  33.048  44.616   7.955
 8040POPC   C4A33318  32.975  44.664   7.655
 8040POPC   C1B33319  32.941  44.868   8.555
 8040POPC   C2B33320  33.021  44.863   8.255
 8040POPC   C3B33321  32.930  44.938   7.955
 8040POPC   C4B33322  32.997  44.906   7.655
 8041POPC   NC333323  27.583  17.550   9.455
 8041POPC   PO433324  27.593  17.521   9.155
 8041POPC   GL133325  27.573  17.470   8.855
 8041POPC   GL233326  27.623  17.363   8.855
 8041POPC   C1A33327  27.582  17.483   8.555
 8041POPC   D2A33328  27.630  17.473   8.255
 8041POPC   C3A33329  27.633  17.486   7.955
 8041POPC   C4A33330  27.581  17.552   7.655
 8041POPC   C1B33331  27.788  17.269   8.555
 8041POPC   C2B33332  27.775  17.324   8.255
 8041POPC   C3B33333  27.714  17.273   7.955
 8041POPC   C4B33334  27.720  17.327   7.655
 8042POPC   NC333335  44.694  36.878   9.455
 8042POPC   PO433336  44.627  36.919   9.155
 8042POPC   GL133337  44.671  36.856   8.855
 8042POPC   GL233338  44.632  36.997   8.855
 8042POPC   C1A33339  44.636  36.854   8.555
 8042POPC   D2A33340  44.651  36.891   8.255
 8042POPC   C3A33341  44.692  36.890   7.955
 8042POPC   C4A33342  44.656  36.895   7.655
 8042POPC   C1B33343  44.572  37.143   8.555
 8042POPC   C2B33344  44.638  37.185   8.255
 8042POPC   C3B33345  44.626  37.184   7.955
 8042POPC   C4B33346  44.618  37.131   7.655
 8043POPC   NC333347   4.347   8.208   9.455
 8043POPC   PO433348   4.303   8.219   9.155
 8043POPC   GL133349   4.277   8.185   8.855
 8043POPC   GL233350   4.337   8.356   8.855
 8043POPC   C1A33351   4.270   8.171   8.555
 8043POPC   D2A33352   4.271   8.215   8.255
 8043POPC   C3A33353   4.337   8.170   7.955
 8043POPC   C4A33354   4.362   8.229   7.655
 8043POPC   C1B33355   4.278   8.437   8.555
 8043POPC   C2B33356   4.335   8.410   8.255
 8043POPC   C3B33357   4.308   8.432   7.955
 8043POPC   C4B33358   4.272   8.487   7.655
 8044POPC   NC333359  18.320  25.314   9.455
 8044POPC   PO433360  18.294  25.278   9.155
 8044POPC   GL133361  18.235  25.244   8.855
 8044POPC   GL233362  18.168  25.222   8.855
 8044POPC   C1A33363  18.324  25.229   8.555
 8044POPC   D2A33364  18.252  25.242   8.255
 8044POPC   C3A33365  18.325  25.276   7.955
 8044POPC   C4A33366  18.282  25.290   7.655
 8044POPC   C1B33367  18.028  25.272   8.555
 8044POPC   C2B33368  18.012  25.269   8.255
 8044POPC   C3B33369  18.073  25.232   7.955
 8044POPC   C4B33370  18.049  25.267   7.655
 8045POPC   NC333371  15.934   0.443   9.455
 8045POPC   PO433372  15.907   0.479   9.155
 8045POPC   GL133373  15.980   0.449   8.855
 8045POPC   GL233374  16.043   0.451   8.855
 8045POPC   C1A33375  15.993   0.465   8.555
 8045POPC   D2A33376  15.974   0.466   8.255
 8045POPC   C3A33377  15.910   0.485   7.955
 8045POPC   C4A33378  15.984   0.447   7.655
 8045POPC   C1B33379  16.156   0.394   8.555
 8045POPC   C2B33380  16.221   0.381   8.255
 8045POPC   C3B33381  16.176   0.414   7.955
 8045POPC   C4B33382  16.226   0.427   7.655
 8046POPC   NC333383  24.529  29.111   9.455
 8046POPC   PO433384  24.470  29.165   9.155
 8046POPC   GL133385  24.451  29.116   8.855
 8046POPC   GL233386  24.334  29.164   8.855
 8046POPC   C1A33387  24.536  29.134   8.555
 8046POPC   D2A33388  24.529  29.138   8.255
 8046POPC   C3A33389  24.530  29.124   7.955
 8046POPC   C4A33390  24.514  29.106   7.655
 8046POPC   C1B33391  24.292  29.227   8.555
 8046POPC   C2B33392  24.242  29.222   8.255
 8046POPC   C3B33393  24.236  29.236   7.955
 8046POPC   C4B33394  24.254  29.253   7.655
 8047POPC   NC333395   1.171  13.649   9.455
 8047POPC   PO433396   1.223  13.579   9.155
 8047POPC   GL133397   1.259  13.613   8.855
 8047POPC   GL233398   1.119  13.526   8.855
 8047POPC   C1A33399   1.258  13.663   8.555
 8047POPC   D2A33400   1.225  13.668   8.255
 8047POPC   C3A33401   1.226  13.583   7.955
 8047POPC   C4A33402   1.258  13.588   7.655
 8047POPC   C1B33403   0.969  13.516   8.555
 8047POPC   C2B33404   0.996  13.507   8.255
 8047POPC   C3B33405   0.997  13.476   7.955
 8047POPC   C4B33406   0.955  13.535   7.655
 8048POPC   NC333407  28.322  44.648   9.455
 8048POPC   PO433408  28.398  44.708   9.155
 8048POPC   GL133409  28.334  44.638   8.855
 8048POPC   GL233410  28.442  44.613   8.855
 8048POPC   C1A33411  28.401  44.645   8.555
 8048POPC   D2A33412  28.402  44.705   8.255
 8048POPC   C3A33413  28.335  44.711   7.955
 8048POPC   C4A33414  28.328  44.648   7.655
 8048POPC   C1B33415  28.589  44.476   8.555
 8048POPC   C2B33416  28.604  44.468   8.255
 8048POPC   C3B33417  28.535  44.506   7.955
 8048POPC   C4B33418  28.578  44.517   7.655
 8049POPC   NC333419   4.359  15.974   9.455
 8049POPC   PO433420   4.279  15.940   9.155
 8049POPC   GL133421   4.363  15.936   8.855
 8049POPC   GL233422   4.239  16.070   8.855
 8049POPC   C1A33423   4.285  15.928   8.555
 8049POPC   D2A33424   4.326  15.950   8.255
 8049POPC   C3A33425   4.268  15.934   7.955
 8049POPC   C4A33426   4.334  15.924   7.655
 8049POPC   C1B33427   4.118  16.144   8.555
 8049POPC   C2B33428   4.195  16.151   8.255
 8049POPC   C3B33429   4.138  16.118   7.955
 8049POPC   C4B33430   4.197  16.140   7.655
 8050POPC   NC333431  33.044  42.333   9.455
 8050POPC   PO433432  33.008  42.367   9.155
 8050POPC   GL133433  33.036  42.354   8.855
 8050POPC   GL233434  33.168  42.280   8.855
 8050POPC   C1A33435  33.074  42.358   8.555
 8050POPC   D2A33436  32.984  42.375   8.255
 8050POPC   C3A33437  33.071  42.378   7.955
 8050POPC   C4A33438  33.014  42.364   7.655
 8050POPC   C1B33439  33.237  42.223   8.555
 8050POPC   C2B33440  33.280  42.286   8.255
 8050POPC   C3B33441  33.305  42.297   7.955
 8050POPC   C4B33442  33.252  42.299   7.655
 8051POPC   NC333443  19.078  25.313   9.455
 8051POPC   PO433444  19.074  25.220   9.155
 8051POPC   GL133445  19.012  25.309   8.855
 8051POPC   GL233446  19.176  25.350   8.855
 8051POPC   C1A33447  19.052  25.259   8.555
 8051POPC   D2A33448  19.077  25.231   8.255
 8051POPC   C3A33449  19.064  25.299   7.955
 8051POPC   C4A33450  19.104  25.289   7.655
 8051POPC   C1B33451  19.302  25.312   8.555
 8051POPC   C2B33452  19.345  25.366   8.255
 8051POPC   C3B33453  19.326  25.333   7.955
 8051POPC   C4B33454  19.281  25.363   7.655
 8052POPC   NC333455   2.780   6.638   9.455
 8052POPC   PO433456   2.787   6.646   9.155
 8052POPC   GL133457   2.738   6.616   8.855
 8052POPC   GL233458   2.674   6.740   8.855
 8052POPC   C1A33459   2.731   6.672   8.555
 8052POPC   D2A33460   2.809   6.644   8.255
 8052POPC   C3A33461   2.767   6.612   7.955
 8052POPC   C4A33462   2.782   6.608   7.655
 8052POPC   C1B33463   2.680   6.853   8.555
 8052POPC   C2B33464   2.623   6.852   8.255
 8052POPC   C3B33465   2.677   6.909   7.955
 8052POPC   C4B33466   2.642   6.880   7.655
 8053POPC   NC333467  15.920   2.032   9.455
 8053POPC   PO433468  15.955   1.974   9.155
 8053POPC   GL133469  15.927   2.003   8.855
 8053POPC   GL233470  16.094   1.912   8.855
 8053POPC   C1A33471  15.943   1.966   8.555
 8053POPC   D2A33472  15.955   1.986   8.255
 8053POPC   C3A33473  15.931   1.964   7.955
 8053POPC   C4A33474  15.922   2.009   7.655
 8053POPC   C1B33475  16.163   1.878   8.555
 8053POPC   C2B33476  16.219   1.872   8.255
 8053POPC   C3B33477  16.210   1.936   7.955
 8053POPC   C4B33478  16.171   1.921   7.655
 8054POPC   NC333479  14.435  41.510   9.455
 8054POPC   PO433480  14.433  41.510   9.155
 8054POPC   GL133481  14.359  41.565   8.855
 8054POPC   GL233482  14.317  41.654   8.855
 8054POPC   C1A33483  14.391  41.517   8.555
 8054POPC   D2A33484  14.404  41.547   8.255
 8054POPC   C3A33485  14.419  41.549   7.955
 8054POPC   C4A33486  14.438  41.546   7.655
 8054POPC   C1B33487  14.196  41.658   8.555
 8054POPC   C2B33488  14.155  41.708   8.255
 8054POPC   C3B33489  14.174  41.711   7.955
 8054POPC   C4B33490  14.237  41.663   7.655
 8055POPC   NC333491  23.697  32.218   9.455
 8055POPC   PO433492  23.716  32.229   9.155
 8055POPC   GL133493  23.751  32.201   8.855
 8055POPC   GL233494  23.783  32.110   8.855
 8055POPC   C1A33495  23.726  32.201   8.555
 8055POPC   D2A33496  23.666  32.295   8.255
 8055POPC   C3A33497  23.712  32.273   7.955
 8055POPC   C4A33498  23.746  32.264   7.655
 8055POPC   C1B33499  23.787  32.031   8.555
 8055POPC   C2B33500  23.840  32.033   8.255
 8055POPC   C3B33501  23.830  32.054   7.955
 8055POPC   C4B33502  23.795  32.050   7.655
 8056POPC   NC333503  33.782  29.183   9.455
 8056POPC   PO433504  33.778  29.162   9.155
 8056POPC   GL133505  33.763  29.095   8.855
 8056POPC   GL233506  33.696  29.205   8.855
 8056POPC   C1A33507  33.787  29.173   8.555
 8056POPC   D2A33508  33.759  29.109   8.255
 8056POPC   C3A33509  33.758  29.104   7.955
 8056POPC   C4A33510  33.848  29.123   7.655
 8056POPC   C1B33511  33.579  29.267   8.555
 8056POPC   C2B33512  33.645  29.257   8.255
 8056POPC   C3B33513  33.646  29.269   7.955
 8056POPC   C4B33514  33.583  29.330   7.655
 8057POPC   NC333515   9.750  26.777   9.455
 8057POPC   PO433516   9.724  26.867   9.155
 8057POPC   GL133517   9.785  26.768   8.855
 8057POPC   GL233518   9.676  26.931   8.855
 8057POPC   C1A33519   9.746  26.797   8.555
 8057POPC   D2A33520   9.747  26.777   8.255
 8057POPC   C3A33521   9.721  26.830   7.955
 8057POPC   C4A33522   9.741  26.815   7.655
 8057POPC   C1B33523   9.557  27.005   8.555
 8057POPC   C2B33524   9.574  27.045   8.255
 8057POPC   C3B33525   9.596  26.973   7.955
 8057POPC   C4B33526   9.606  26.991   7.655
 8058POPC   NC333527  10.538  15.997   9.455
 8058POPC   PO433528  10.485  15.994   9.155
 8058POPC   GL133529  10.506  15.931   8.855
 8058POPC   GL233530  10.359  16.047   8.855
 8058POPC   C1A33531  10.521  15.999   8.555
 8058POPC   D2A33532  10.495  16.004   8.255
 8058POPC   C3A33533  10.546  15.920   7.955
 8058POPC   C4A33534  10.563  15.976   7.655
 8058POPC   C1B33535  10.247  16.057   8.555
 8058POPC   C2B33536  10.308  16.093   8.255
 8058POPC   C3B33537  10.264  16.071   7.955
 8058POPC   C4B33538  10.257  16.043   7.655
 8059POPC   NC333539   9.722  20.630   9.455
 8059POPC   PO433540   9.760  20.615   9.155
 8059POPC   GL133541   9.702  20.596   8.855
 8059POPC   GL233542   9.624  20.529   8.855
 8059POPC   C1A33543   9.711  20.567   8.555
 8059POPC   D2A33544   9.775  20.609   8.255
 8059POPC   C3A33545   9.770  20.619   7.955
 8059POPC   C4A33546   9.794  20.588   7.655
 8059POPC   C1B33547   9.514  20.559   8.555
 8059POPC   C2B33548   9.488  20.468   8.255
 8059POPC   C3B33549   9.503  20.525   7.955
 8059POPC   C4B33550   9.553  20.540   7.655
 8060POPC   NC333551  43.926  21.433   9.455
 8060POPC   PO433552  43.934  21.355   9.155
 8060POPC   GL133553  43.862  21.380   8.855
 8060POPC   GL233554  43.741  21.414   8.855
 8060POPC   C1A33555  43.846  21.352   8.555
 8060POPC   D2A33556  43.837  21.368   8.255
 8060POPC   C3A33557  43.929  21.398   7.955
 8060POPC   C4A33558  43.864  21.349   7.655
 8060POPC   C1B33559  43.688  21.486   8.555
 8060POPC   C2B33560  43.688  21.483   8.255
 8060POPC   C3B33561  43.679  21.566   7.955
 8060POPC   C4B33562  43.670  21.504   7.655
 8061POPC   NC333563  36.914  37.651   9.455
 8061POPC   PO433564  36.947  37.640   9.155
 8061POPC   GL133565  36.926  37.672   8.855
 8061POPC   GL233566  36.790  37.615   8.855
 8061POPC   C1A33567  36.953  37.686   8.555
 8061POPC   D2A33568  36.921  37.726   8.255
 8061POPC   C3A33569  36.921  37.704   7.955
 8061POPC   C4A33570  36.941  37.696   7.655
 8061POPC   C1B33571  36.659  37.523   8.555
 8061POPC   C2B33572  36.672  37.573   8.255
 8061POPC   C3B33573  36.728  37.489   7.955
 8061POPC   C4B33574  36.731  37.513   7.655
 8062POPC   NC333575  25.258  32.222   9.455
 8062POPC   PO433576  25.287  32.285   9.155
 8062POPC   GL133577  25.228  32.249   8.855
 8062POPC   GL233578  25.249  32.149   8.855
 8062POPC   C1A33579  25.242  32.294   8.555
 8062POPC   D2A33580  25.307  32.218   8.255
 8062POPC   C3A33581  25.252  32.229   7.955
 8062POPC   C4A33582  25.217  32.280   7.655
 8062POPC   C1B33583  25.162  32.003   8.555
 8062POPC   C2B33584  25.156  32.045   8.255
 8062POPC   C3B33585  25.095  32.083   7.955
 8062POPC   C4B33586  25.176  31.995   7.655
 8063POPC   NC333587  15.939  32.295   9.455
 8063POPC   PO433588  15.961  32.269   9.155
 8063POPC   GL133589  15.935  32.264   8.855
 8063POPC   GL233590  16.082  32.184   8.855
 8063POPC   C1A33591  15.925  32.261   8.555
 8063POPC   D2A33592  15.921  32.215   8.255
 8063POPC   C3A33593  15.940  32.266   7.955
 8063POPC   C4A33594  15.970  32.222   7.655
 8063POPC   C1B33595  16.148  32.173   8.555
 8063POPC   C2B33596  16.201  32.150   8.255
 8063POPC   C3B33597  16.235  32.198   7.955
 8063POPC   C4B33598  16.148  32.140   7.655
 8064POPC   NC333599  36.142  43.906   9.455
 8064POPC   PO433600  36.177  43.925   9.155
 8064POPC   GL133601  36.106  43.864   8.855
 8064POPC   GL233602  36.225  43.984   8.855
 8064POPC   C1A33603  36.104  43.917   8.555
 8064POPC   D2A33604  36.127  43.904   8.255
 8064POPC   C3A33605  36.088  43.865   7.955
 8064POPC   C4A33606  36.111  43.909   7.655
 8064POPC   C1B33607  36.230  44.131   8.555
 8064POPC   C2B33608  36.190  44.145   8.255
 8064POPC   C3B33609  36.260  44.084   7.955
 8064POPC   C4B33610  36.243  44.136   7.655
 8065POPC   NC333611  39.984  13.668   9.455
 8065POPC   PO433612  39.995  13.650   9.155
 8065POPC   GL133613  39.961  13.677   8.855
 8065POPC   GL233614  39.835  13.599   8.855
 8065POPC   C1A33615  40.039  13.595   8.555
 8065POPC   D2A33616  40.019  13.639   8.255
 8065POPC   C3A33617  40.009  13.642   7.955
 8065POPC   C4A33618  40.011  13.631   7.655
 8065POPC   C1B33619  39.802  13.608   8.555
 8065POPC   C2B33620  39.806  13.619   8.255
 8065POPC   C3B33621  39.757  13.538   7.955
 8065POPC   C4B33622  39.737  13.568   7.655
 8066POPC   NC333623  36.882  25.230   9.455
 8066POPC   PO433624  36.871  25.293   9.155
 8066POPC   GL133625  36.905  25.291   8.855
 8066POPC   GL233626  36.783  25.205   8.855
 8066POPC   C1A33627  36.946  25.260   8.555
 8066POPC   D2A33628  36.912  25.304   8.255
 8066POPC   C3A33629  36.884  25.246   7.955
 8066POPC   C4A33630  36.869  25.255   7.655
 8066POPC   C1B33631  36.653  25.234   8.555
 8066POPC   C2B33632  36.698  25.265   8.255
 8066POPC   C3B33633  36.687  25.180   7.955
 8066POPC   C4B33634  36.640  25.251   7.655
 8067POPC   NC333635  30.726  36.149   9.455
 8067POPC   PO433636  30.739  36.102   9.155
 8067POPC   GL133637  30.704  36.104   8.855
 8067POPC   GL233638  30.783  36.201   8.855
 8067POPC   C1A33639  30.688  36.082   8.555
 8067POPC   D2A33640  30.736  36.162   8.255
 8067POPC   C3A33641  30.739  36.079   7.955
 8067POPC   C4A33642  30.744  36.134   7.655
 8067POPC   C1B33643  30.809  36.356   8.555
 8067POPC   C2B33644  30.880  36.351   8.255
 8067POPC   C3B33645  30.797  36.335   7.955
 8067POPC   C4B33646  30.843  36.340   7.655
 8068POPC   NC333647  34.573  12.868   9.455
 8068POPC   PO433648  34.544  12.826   9.155
 8068POPC   GL133649  34.601  12.814   8.855
 8068POPC   GL233650  34.646  12.698   8.855
 8068POPC   C1A33651  34.531  12.816   8.555
 8068POPC   D2A33652  34.593  12.826   8.255
 8068POPC   C3A33653  34.560  12.844   7.955
 8068POPC   C4A33654  34.558  12.900   7.655
 8068POPC   C1B33655  34.623  12.589   8.555
 8068POPC   C2B33656  34.632  12.653   8.255
 8068POPC   C3B33657  34.688  12.630   7.955
 8068POPC   C4B33658  34.667  12.661   7.655
 8069POPC   NC333659  19.837  28.368   9.455
 8069POPC   PO433660  19.860  28.335   9.155
 8069POPC   GL133661  19.879  28.366   8.855
 8069POPC   GL233662  19.801  28.471   8.855
 8069POPC   C1A33663  19.881  28.360   8.555
 8069POPC   D2A33664  19.842  28.351   8.255
 8069POPC   C3A33665  19.845  28.341   7.955
 8069POPC   C4A33666  19.835  28.378   7.655
 8069POPC   C1B33667  19.717  28.591   8.555
 8069POPC   C2B33668  19.783  28.585   8.255
 8069POPC   C3B33669  19.783  28.643   7.955
 8069POPC   C4B33670  19.779  28.599   7.655
 8070POPC   NC333671  31.442  30.668   9.455
 8070POPC   PO433672  31.472  30.668   9.155
 8070POPC   GL133673  31.483  30.665   8.855
 8070POPC   GL233674  31.399  30.789   8.855
 8070POPC   C1A33675  31.435  30.683   8.555
 8070POPC   D2A33676  31.449  30.650   8.255
 8070POPC   C3A33677  31.457  30.663   7.955
 8070POPC   C4A33678  31.518  30.665   7.655
 8070POPC   C1B33679  31.341  30.908   8.555
 8070POPC   C2B33680  31.422  30.953   8.255
 8070POPC   C3B33681  31.355  30.916   7.955
 8070POPC   C4B33682  31.428  30.881   7.655
 8071POPC   NC333683  33.046  29.124   9.455
 8071POPC   PO433684  33.064  29.174   9.155
 8071POPC   GL133685  32.992  29.107   8.855
 8071POPC   GL233686  33.058  29.088   8.855
 8071POPC   C1A33687  33.057  29.097   8.555
 8071POPC   D2A33688  33.050  29.152   8.255
 8071POPC   C3A33689  32.999  29.166   7.955
 8071POPC   C4A33690  33.055  29.108   7.655
 8071POPC   C1B33691  33.176  28.928   8.555
 8071POPC   C2B33692  33.191  28.915   8.255
 8071POPC   C3B33693  33.143  28.959   7.955
 8071POPC   C4B33694  33.148  29.000   7.655
 8072POPC   NC333695  40.011  14.398   9.455
 8072POPC   PO433696  39.983  14.449   9.155
 8072POPC   GL133697  40.024  14.424   8.855
 8072POPC   GL233698  40.169  14.332   8.855
 8072POPC   C1A33699  39.975  14.435   8.555
 8072POPC   D2A33700  39.992  14.369   8.255
 8072POPC   C3A33701  39.976  14.405   7.955
 8072POPC   C4A33702  39.988  14.394   7.655
 8072POPC   C1B33703  40.251  14.340   8.555
 8072POPC   C2B33704  40.219  14.278   8.255
 8072POPC   C3B33705  40.223  14.352   7.955
 8072POPC   C4B33706  40.201  14.285   7.655
 8073POPC   NC333707  34.551  23.665   9.455
 8073POPC   PO433708  34.572  23.730   9.155
 8073POPC   GL133709  34.589  23.733   8.855
 8073POPC   GL233710  34.659  23.700   8.855
 8073POPC   C1A33711  34.552  23.722   8.555
 8073POPC   D2A33712  34.541  23.682   8.255
 8073POPC   C3A33713  34.535  23.757   7.955
 8073POPC   C4A33714  34.596  23.689   7.655
 8073POPC   C1B33715  34.842  23.684   8.555
 8073POPC   C2B33716  34.812  23.752   8.255
 8073POPC   C3B33717  34.834  23.749   7.955
 8073POPC   C4B33718  34.875  23.653   7.655
 8074POPC   NC333719  40.824  23.702   9.455
 8074POPC   PO433720  40.765  23.732   9.155
 8074POPC   GL133721  40.775  23.737   8.855
 8074POPC   GL233722  40.749  23.580   8.855
 8074POPC   C1A33723  40.743  23.705   8.555
 8074POPC   D2A33724  40.813  23.715   8.255
 8074POPC   C3A33725  40.751  23.706   7.955
 8074POPC   C4A33726  40.805  23.680   7.655
 8074POPC   C1B33727  40.737  23.473   8.555
 8074POPC   C2B33728  40.727  23.466   8.255
 8074POPC   C3B33729  40.744  23.490   7.955
 8074POPC   C4B33730  40.716  23.430   7.655
 8075POPC   NC333731  34.555  44.688   9.455
 8075POPC   PO433732  34.526  44.702   9.155
 8075POPC   GL133733  34.623  44.702   8.855
 8075POPC   GL233734  34.653  44.533   8.855
 8075POPC   C1A33735  34.581  44.664   8.555
 8075POPC   D2A33736  34.549  44.652   8.255
 8075POPC   C3A33737  34.611  44.631   7.955
 8075POPC   C4A33738  34.563  44.711   7.655
 8075POPC   C1B33739  34.739  44.499   8.555
 8075POPC   C2B33740  34.733  44.504   8.255
 8075POPC   C3B33741  34.780  44.471   7.955
 8075POPC   C4B33742  34.762  44.432   7.655
 8076POPC   NC333743  32.293  20.637   9.455
 8076POPC   PO433744  32.294  20.599   9.155
 8076POPC   GL133745  32.263  20.621   8.855
 8076POPC   GL233746  32.343  20.620   8.855
 8076POPC   C1A33747  32.296  20.615   8.555
 8076POPC   D2A33748  32.236  20.650   8.255
 8076POPC   C3A33749  32.287  20.568   7.955
 8076POPC   C4A33750  32.227  20.563   7.655
 8076POPC   C1B33751  32.455  20.652   8.555
 8076POPC   C2B33752  32.493  20.630   8.255
 8076POPC   C3B33753  32.463  20.647   7.955
 8076POPC   C4B33754  32.509  20.679   7.655
 8077POPC   NC333755  44.617  36.174   9.455
 8077POPC   PO433756  44.667  36.116   9.155
 8077POPC   GL133757  44.649  36.135   8.855
 8077POPC   GL233758  44.736  36.215   8.855
 8077POPC   C1A33759  44.670  36.177   8.555
 8077POPC   D2A33760  44.659  36.172   8.255
 8077POPC   C3A33761  44.688  36.108   7.955
 8077POPC   C4A33762  44.619  36.162   7.655
 8077POPC   C1B33763  44.921  36.208   8.555
 8077POPC   C2B33764  44.884  36.269   8.255
 8077POPC   C3B33765  44.925  36.265   7.955
 8077POPC   C4B33766  44.859  36.259   7.655
 8078POPC   NC333767  42.364   5.819   9.455
 8078POPC   PO433768  42.343   5.901   9.155
 8078POPC   GL133769  42.298   5.897   8.855
 8078POPC   GL233770  42.470   5.920   8.855
 8078POPC   C1A33771  42.325   5.893   8.555
 8078POPC   D2A33772  42.347   5.884   8.255
 8078POPC   C3A33773  42.366   5.904   7.955
 8078POPC   C4A33774  42.305   5.893   7.655
 8078POPC   C1B33775  42.591   6.005   8.555
 8078POPC   C2B33776  42.512   6.019   8.255
 8078POPC   C3B33777  42.557   6.005   7.955
 8078POPC   C4B33778  42.536   6.003   7.655
 8079POPC   NC333779  36.876  13.602   9.455
 8079POPC   PO433780  36.880  13.674   9.155
 8079POPC   GL133781  36.866  13.640   8.855
 8079POPC   GL233782  36.854  13.750   8.855
 8079POPC   C1A33783  36.923  13.647   8.555
 8079POPC   D2A33784  36.929  13.667   8.255
 8079POPC   C3A33785  36.951  13.630   7.955
 8079POPC   C4A33786  36.936  13.609   7.655
 8079POPC   C1B33787  36.927  13.850   8.555
 8079POPC   C2B33788  36.945  13.923   8.255
 8079POPC   C3B33789  36.857  13.917   7.955
 8079POPC   C4B33790  36.905  13.916   7.655
 8080POPC   NC333791   0.418  20.587   9.455
 8080POPC   PO433792   0.455  20.656   9.155
 8080POPC   GL133793   0.454  20.599   8.855
 8080POPC   GL233794   0.535  20.497   8.855
 8080POPC   C1A33795   0.448  20.587   8.555
 8080POPC   D2A33796   0.409  20.655   8.255
 8080POPC   C3A33797   0.452  20.600   7.955
 8080POPC   C4A33798   0.467  20.618   7.655
 8080POPC   C1B33799   0.588  20.391   8.555
 8080POPC   C2B33800   0.578  20.396   8.255
 8080POPC   C3B33801   0.623  20.441   7.955
 8080POPC   C4B33802   0.643  20.405   7.655
 8081POPC   NC333803   7.462  15.912   9.455
 8081POPC   PO433804   7.450  15.930   9.155
 8081POPC   GL133805   7.384  15.953   8.855
 8081POPC   GL233806   7.269  16.061   8.855
 8081POPC   C1A33807   7.383  15.973   8.555
 8081POPC   D2A33808   7.441  15.916   8.255
 8081POPC   C3A33809   7.470  15.942   7.955
 8081POPC   C4A33810   7.455  15.915   7.655
 8081POPC   C1B33811   7.172  16.066   8.555
 8081POPC   C2B33812   7.190  16.084   8.255
 8081POPC   C3B33813   7.225  16.135   7.955
 8081POPC   C4B33814   7.189  16.108   7.655
 8082POPC   NC333815  36.950   0.394   9.455
 8082POPC   PO433816  36.883   0.431   9.155
 8082POPC   GL133817  36.895   0.473   8.855
 8082POPC   GL233818  36.826   0.504   8.855
 8082POPC   C1A33819  36.917   0.401   8.555
 8082POPC   D2A33820  36.948   0.425   8.255
 8082POPC   C3A33821  36.921   0.458   7.955
 8082POPC   C4A33822  36.916   0.426   7.655
 8082POPC   C1B33823  36.663   0.456   8.555
 8082POPC   C2B33824  36.657   0.532   8.255
 8082POPC   C3B33825  36.623   0.497   7.955
 8082POPC   C4B33826  36.678   0.506   7.655
 8083POPC   NC333827  43.911   9.004   9.455
 8083POPC   PO433828  43.846   8.960   9.155
 8083POPC   GL133829  43.936   8.957   8.855
 8083POPC   GL233830  43.769   8.929   8.855
 8083POPC   C1A33831  43.889   8.963   8.555
 8083POPC   D2A33832  43.913   8.945   8.255
 8083POPC   C3A33833  43.933   8.965   7.955
 8083POPC   C4A33834  43.887   8.998   7.655
 8083POPC   C1B33835  43.680   8.902   8.555
 8083POPC   C2B33836  43.662   8.938   8.255
 8083POPC   C3B33837  43.654   8.899   7.955
 8083POPC   C4B33838  43.593   8.916   7.655
 8084POPC   NC333839  36.165  22.184   9.455
 8084POPC   PO433840  36.132  22.150   9.155
 8084POPC   GL133841  36.159  22.148   8.855
 8084POPC   GL233842  36.044  22.122   8.855
 8084POPC   C1A33843  36.098  22.177   8.555
 8084POPC   D2A33844  36.099  22.149   8.255
 8084POPC   C3A33845  36.155  22.178   7.955
 8084POPC   C4A33846  36.081  22.115   7.655
 8084POPC   C1B33847  35.843  22.099   8.555
 8084POPC   C2B33848  35.916  22.085   8.255
 8084POPC   C3B33849  35.867  22.127   7.955
 8084POPC   C4B33850  35.836  22.080   7.655
 8085POPC   NC333851  26.778  21.430   9.455
 8085POPC   PO433852  26.849  21.398   9.155
 8085POPC   GL133853  26.808  21.394   8.855
 8085POPC   GL233854  26.873  21.283   8.855
 8085POPC   C1A33855  26.846  21.412   8.555
 8085POPC   D2A33856  26.860  21.396   8.255
 8085POPC   C3A33857  26.813  21.406   7.955
 8085POPC   C4A33858  26.820  21.373   7.655
 8085POPC   C1B33859  26.977  21.183   8.555
 8085POPC   C2B33860  26.985  21.176   8.255
 8085POPC   C3B33861  26.932  21.206   7.955
 8085POPC   C4B33862  26.911  21.156   7.655
 8086POPC   NC333863   2.777  15.169   9.455
 8086POPC   PO433864   2.732  15.154   9.155
 8086POPC   GL133865   2.776  15.206   8.855
 8086POPC   GL233866   2.660  15.086   8.855
 8086POPC   C1A33867   2.783  15.183   8.555
 8086POPC   D2A33868   2.747  15.187   8.255
 8086POPC   C3A33869   2.797  15.228   7.955
 8086POPC   C4A33870   2.720  15.143   7.655
 8086POPC   C1B33871   2.594  15.045   8.555
 8086POPC   C2B33872   2.590  15.101   8.255
 8086POPC   C3B33873   2.516  15.112   7.955
 8086POPC   C4B33874   2.503  15.096   7.655
 8087POPC   NC333875  12.822  44.641   9.455
 8087POPC   PO433876  12.807  44.705   9.155
 8087POPC   GL133877  12.894  44.679   8.855
 8087POPC   GL233878  12.902  44.796   8.855
 8087POPC   C1A33879  12.866  44.711   8.555
 8087POPC   D2A33880  12.855  44.696   8.255
 8087POPC   C3A33881  12.858  44.712   7.955
 8087POPC   C4A33882  12.814  44.690   7.655
 8087POPC   C1B33883  12.964  44.864   8.555
 8087POPC   C2B33884  13.030  44.901   8.255
 8087POPC   C3B33885  13.024  44.853   7.955
 8087POPC   C4B33886  13.041  44.823   7.655
 8088POPC   NC333887   1.233   8.958   9.455
 8088POPC   PO433888   1.217   8.990   9.155
 8088POPC   GL133889   1.244   8.959   8.855
 8088POPC   GL233890   1.313   8.913   8.855
 8088POPC   C1A33891   1.196   9.009   8.555
 8088POPC   D2A33892   1.215   8.937   8.255
 8088POPC   C3A33893   1.246   9.018   7.955
 8088POPC   C4A33894   1.213   9.006   7.655
 8088POPC   C1B33895   1.328   8.769   8.555
 8088POPC   C2B33896   1.391   8.770   8.255
 8088POPC   C3B33897   1.375   8.741   7.955
 8088POPC   C4B33898   1.381   8.722   7.655
 8089POPC   NC333899  23.675  15.974   9.455
 8089POPC   PO433900  23.752  15.936   9.155
 8089POPC   GL133901  23.739  15.936   8.855
 8089POPC   GL233902  23.714  16.092   8.855
 8089POPC   C1A33903  23.668  15.940   8.555
 8089POPC   D2A33904  23.692  15.924   8.255
 8089POPC   C3A33905  23.757  15.990   7.955
 8089POPC   C4A33906  23.709  15.960   7.655
 8089POPC   C1B33907  23.623  16.169   8.555
 8089POPC   C2B33908  23.678  16.240   8.255
 8089POPC   C3B33909  23.692  16.203   7.955
 8089POPC   C4B33910  23.612  16.235   7.655
 8090POPC   NC333911   2.037  24.474   9.455
 8090POPC   PO433912   2.007  24.450   9.155
 8090POPC   GL133913   1.972  24.478   8.855
 8090POPC   GL233914   1.868  24.424   8.855
 8090POPC   C1A33915   1.992  24.501   8.555
 8090POPC   D2A33916   1.991  24.509   8.255
 8090POPC   C3A33917   1.954  24.485   7.955
 8090POPC   C4A33918   2.033  24.539   7.655
 8090POPC   C1B33919   1.755  24.461   8.555
 8090POPC   C2B33920   1.764  24.416   8.255
 8090POPC   C3B33921   1.777  24.491   7.955
 8090POPC   C4B33922   1.702  24.421   7.655
 8091POPC   NC333923  12.069  39.258   9.455
 8091POPC   PO433924  12.066  39.259   9.155
 8091POPC   GL133925  12.034  39.197   8.855
 8091POPC   GL233926  11.950  39.323   8.855
 8091POPC   C1A33927  12.052  39.201   8.555
 8091POPC   D2A33928  12.038  39.230   8.255
 8091POPC   C3A33929  12.116  39.197   7.955
 8091POPC   C4A33930  12.091  39.194   7.655
 8091POPC   C1B33931  11.816  39.335   8.555
 8091POPC   C2B33932  11.874  39.344   8.255
 8091POPC   C3B33933  11.800  39.354   7.955
 8091POPC   C4B33934  11.887  39.306   7.655
 8092POPC   NC333935  16.729   1.241   9.455
 8092POPC   PO433936  16.756   1.218   9.155
 8092POPC   GL133937  16.733   1.254   8.855
 8092POPC   GL233938  16.622   1.225   8.855
 8092POPC   C1A33939  16.684   1.165   8.555
 8092POPC   D2A33940  16.693   1.197   8.255
 8092POPC   C3A33941  16.689   1.257   7.955
 8092POPC   C4A33942  16.700   1.244   7.655
 8092POPC   C1B33943  16.444   1.168   8.555
 8092POPC   C2B33944  16.458   1.180   8.255
 8092POPC   C3B33945  16.514   1.099   7.955
 8092POPC   C4B33946  16.509   1.152   7.655
 8093POPC   NC333947  14.388  39.224   9.455
 8093POPC   PO433948  14.399  39.184   9.155
 8093POPC   GL133949  14.383  39.238   8.855
 8093POPC   GL233950  14.529  39.258   8.855
 8093POPC   C1A33951  14.430  39.251   8.555
 8093POPC   D2A33952  14.426  39.204   8.255
 8093POPC   C3A33953  14.436  39.197   7.955
 8093POPC   C4A33954  14.405  39.250   7.655
 8093POPC   C1B33955  14.684  39.248   8.555
 8093POPC   C2B33956  14.624  39.247   8.255
 8093POPC   C3B33957  14.670  39.244   7.955
 8093POPC   C4B33958  14.627  39.219   7.655
 8094POPC   NC333959  15.970  24.523   9.455
 8094POPC   PO433960  15.974  24.501   9.155
 8094POPC   GL133961  15.909  24.452   8.855
 8094POPC   GL233962  16.014  24.414   8.855
 8094POPC   C1A33963  15.988  24.441   8.555
 8094POPC   D2A33964  15.916  24.540   8.255
 8094POPC   C3A33965  15.905  24.461   7.955
 8094POPC   C4A33966  15.933  24.539   7.655
 8094POPC   C1B33967  16.197  24.364   8.555
 8094POPC   C2B33968  16.125  24.335   8.255
 8094POPC   C3B33969  16.195  24.413   7.955
 8094POPC   C4B33970  16.183  24.323   7.655
 8095POPC   NC333971  12.869  43.884   9.455
 8095POPC   PO433972  12.880  43.864   9.155
 8095POPC   GL133973  12.842  43.870   8.855
 8095POPC   GL233974  12.764  43.956   8.855
 8095POPC   C1A33975  12.805  43.875   8.555
 8095POPC   D2A33976  12.887  43.931   8.255
 8095POPC   C3A33977  12.854  43.935   7.955
 8095POPC   C4A33978  12.872  43.853   7.655
 8095POPC   C1B33979  12.706  44.056   8.555
 8095POPC   C2B33980  12.714  44.049   8.255
 8095POPC   C3B33981  12.690  44.088   7.955
 8095POPC   C4B33982  12.678  44.104   7.655
 8096POPC   NC333983  26.831  29.894   9.455
 8096POPC   PO433984  26.799  29.909   9.155
 8096POPC   GL133985  26.823  29.907   8.855
 8096POPC   GL233986  26.731  29.997   8.855
 8096POPC   C1A33987  26.783  29.952   8.555
 8096POPC   D2A33988  26.807  29.893   8.255
 8096POPC   C3A33989  26.825  29.906   7.955
 8096POPC   C4A33990  26.815  29.957   7.655
 8096POPC   C1B33991  26.572  29.987   8.555
 8096POPC   C2B33992  26.603  30.012   8.255
 8096POPC   C3B33993  26.606  30.012   7.955
 8096POPC   C4B33994  26.545  29.958   7.655
 8097POPC   NC333995  44.668  37.691   9.455
 8097POPC   PO433996  44.687  37.640   9.155
 8097POPC   GL133997  44.658  37.723   8.855
 8097POPC   GL233998  44.582  37.684   8.855
 8097POPC   C1A33999  44.700  37.698   8.555
 8097POPC   D2A34000  44.690  37.692   8.255
 8097POPC   C3A34001  44.700  37.675   7.955
 8097POPC   C4A34002  44.648  37.680   7.655
 8097POPC   C1B34003  44.389  37.721   8.555
 8097POPC   C2B34004  44.377  37.747   8.255
 8097POPC   C3B34005  44.453  37.689   7.955
 8097POPC   C4B34006  44.436  37.718   7.655
 8098POPC   NC334007   1.959  44.664   9.455
 8098POPC   PO434008   1.959  44.700   9.155
 8098POPC   GL134009   1.954  44.684   8.855
 8098POPC   GL234010   2.013  44.800   8.855
 8098POPC   C1A34011   1.989  44.693   8.555
 8098POPC   D2A34012   1.958  44.648   8.255
 8098POPC   C3A34013   1.964  44.650   7.955
 8098POPC   C4A34014   2.003  44.688   7.655
 8098POPC   C1B34015   1.982  44.906   8.555
 8098POPC   C2B34016   2.003  44.939   8.255
 8098POPC   C3B34017   1.982  44.945   7.955
 8098POPC   C4B34018   2.034  44.947   7.655
 8099POPC   NC334019  23.748  35.373   9.455
 8099POPC   PO434020  23.672  35.372   9.155
 8099POPC   GL134021  23.690  35.337   8.855
 8099POPC   GL234022  23.796  35.245   8.855
 8099POPC   C1A34023  23.664  35.376   8.555
 8099POPC   D2A34024  23.684  35.379   8.255
 8099POPC   C3A34025  23.682  35.384   7.955
 8099POPC   C4A34026  23.712  35.355   7.655
 8099POPC   C1B34027  23.887  35.188   8.555
 8099POPC   C2B34028  23.860  35.197   8.255
 8099POPC   C3B34029  23.854  35.195   7.955
 8099POPC   C4B34030  23.858  35.169   7.655
 8100POPC   NC334031  15.204  32.230   9.455
 8100POPC   PO434032  15.201  32.219   9.155
 8100POPC   GL134033  15.148  32.292   8.855
 8100POPC   GL234034  15.084  32.204   8.855
 8100POPC   C1A34035  15.176  32.212   8.555
 8100POPC   D2A34036  15.192  32.205   8.255
 8100POPC   C3A34037  15.135  32.278   7.955
 8100POPC   C4A34038  15.130  32.227   7.655
 8100POPC   C1B34039  14.946  32.107   8.555
 8100POPC   C2B34040  14.982  32.100   8.255
 8100POPC   C3B34041  14.944  32.081   7.955
 8100POPC   C4B34042  14.975  32.105   7.655
 8101POPC   NC334043  39.253  26.790   9.455
 8101POPC   PO434044  39.255  26.797   9.155
 8101POPC   GL134045  39.278  26.786   8.855
 8101POPC   GL234046  39.336  26.829   8.855
 8101POPC   C1A34047  39.226  26.770   8.555
 8101POPC   D2A34048  39.192  26.845   8.255
 8101POPC   C3A34049  39.220  26.795   7.955
 8101POPC   C4A34050  39.274  26.819   7.655
 8101POPC   C1B34051  39.470  26.900   8.555
 8101POPC   C2B34052  39.508  26.858   8.255
 8101POPC   C3B34053  39.435  26.826   7.955
 8101POPC   C4B34054  39.511  26.834   7.655
 8102POPC   NC334055  12.874  25.240   9.455
 8102POPC   PO434056  12.841  25.264   9.155
 8102POPC   GL134057  12.820  25.292   8.855
 8102POPC   GL234058  12.804  25.149   8.855
 8102POPC   C1A34059  12.883  25.312   8.555
 8102POPC   D2A34060  12.847  25.314   8.255
 8102POPC   C3A34061  12.819  25.255   7.955
 8102POPC   C4A34062  12.807  25.255   7.655
 8102POPC   C1B34063  12.735  24.994   8.555
 8102POPC   C2B34064  12.803  24.991   8.255
 8102POPC   C3B34065  12.781  24.987   7.955
 8102POPC   C4B34066  12.724  25.069   7.655
 8103POPC   NC334067   1.176   9.762   9.455
 8103POPC   PO434068   1.243   9.748   9.155
 8103POPC   GL134069   1.190   9.720   8.855
 8103POPC   GL234070   1.279   9.870   8.855
 8103POPC   C1A34071   1.219   9.736   8.555
 8103POPC   D2A34072   1.243   9.739   8.255
 8103POPC   C3A34073   1.167   9.764   7.955
 8103POPC   C4A34074   1.232   9.754   7.655
 8103POPC   C1B34075   1.230  10.014   8.555
 8103POPC   C2B34076   1.233  10.015   8.255
 8103POPC   C3B34077   1.259  10.041   7.955
 8103POPC   C4B34078   1.253   9.980   7.655
 8104POPC   NC334079  23.734  27.567   9.455
 8104POPC   PO434080  23.736  27.550   9.155
 8104POPC   GL134081  23.759  27.546   8.855
 8104POPC   GL234082  23.790  27.538   8.855
 8104POPC   C1A34083  23.756  27.619   8.555
 8104POPC   D2A34084  23.692  27.612   8.255
 8104POPC   C3A34085  23.665  27.601   7.955
 8104POPC   C4A34086  23.744  27.599   7.655
 8104POPC   C1B34087  23.940  27.503   8.555
 8104POPC   C2B34088  23.935  27.488   8.255
 8104POPC   C3B34089  23.940  27.503   7.955
 8104POPC   C4B34090  23.950  27.416   7.655
 8105POPC   NC334091  19.093  40.047   9.455
 8105POPC   PO434092  19.076  40.045   9.155
 8105POPC   GL134093  19.096  39.988   8.855
 8105POPC   GL234094  18.983  40.070   8.855
 8105POPC   C1A34095  19.059  40.032   8.555
 8105POPC   D2A34096  19.027  40.007   8.255
 8105POPC   C3A34097  19.050  39.999   7.955
 8105POPC   C4A34098  19.019  39.966   7.655
 8105POPC   C1B34099  18.865  40.162   8.555
 8105POPC   C2B34100  18.879  40.193   8.255
 8105POPC   C3B34101  18.910  40.236   7.955
 8105POPC   C4B34102  18.923  40.238   7.655
 8106POPC   NC334103  26.022  14.358   9.455
 8106POPC   PO434104  26.079  14.371   9.155
 8106POPC   GL134105  26.019  14.434   8.855
 8106POPC   GL234106  26.087  14.250   8.855
 8106POPC   C1A34107  26.058  14.408   8.555
 8106POPC   D2A34108  26.056  14.370   8.255
 8106POPC   C3A34109  26.086  14.360   7.955
 8106POPC   C4A34110  26.064  14.402   7.655
 8106POPC   C1B34111  26.081  14.134   8.555
 8106POPC   C2B34112  26.093  14.180   8.255
 8106POPC   C3B34113  26.016  14.109   7.955
 8106POPC   C4B34114  26.078  14.169   7.655
 8107POPC   NC334115  26.041  29.185   9.455
 8107POPC   PO434116  26.023  29.145   9.155
 8107POPC   GL134117  26.012  29.132   8.855
 8107POPC   GL234118  26.035  29.288   8.855
 8107POPC   C1A34119  25.994  29.101   8.555
 8107POPC   D2A34120  26.062  29.175   8.255
 8107POPC   C3A34121  26.000  29.116   7.955
 8107POPC   C4A34122  26.055  29.194   7.655
 8107POPC   C1B34123  26.027  29.431   8.555
 8107POPC   C2B34124  26.032  29.343   8.255
 8107POPC   C3B34125  26.021  29.378   7.955
 8107POPC   C4B34126  25.995  29.411   7.655
 8108POPC   NC334127  38.479  13.588   9.455
 8108POPC   PO434128  38.440  13.580   9.155
 8108POPC   GL134129  38.453  13.648   8.855
 8108POPC   GL234130  38.439  13.704   8.855
 8108POPC   C1A34131  38.459  13.654   8.555
 8108POPC   D2A34132  38.466  13.582   8.255
 8108POPC   C3A34133  38.465  13.665   7.955
 8108POPC   C4A34134  38.448  13.639   7.655
 8108POPC   C1B34135  38.393  13.855   8.555
 8108POPC   C2B34136  38.434  13.840   8.255
 8108POPC   C3B34137  38.410  13.850   7.955
 8108POPC   C4B34138  38.407  13.890   7.655
 8109POPC   NC334139   5.111   5.820   9.455
 8109POPC   PO434140   5.058   5.895   9.155
 8109POPC   GL134141   5.083   5.907   8.855
 8109POPC   GL234142   5.167   5.738   8.855
 8109POPC   C1A34143   5.054   5.872   8.555
 8109POPC   D2A34144   5.064   5.846   8.255
 8109POPC   C3A34145   5.054   5.865   7.955
 8109POPC   C4A34146   5.104   5.878   7.655
 8109POPC   C1B34147   5.171   5.620   8.555
 8109POPC   C2B34148   5.203   5.617   8.255
 8109POPC   C3B34149   5.175   5.582   7.955
 8109POPC   C4B34150   5.144   5.586   7.655
 8110POPC   NC334151  15.910   1.233   9.455
 8110POPC   PO434152  15.942   1.211   9.155
 8110POPC   GL134153  15.918   1.262   8.855
 8110POPC   GL234154  15.952   1.053   8.855
 8110POPC   C1A34155  15.993   1.206   8.555
 8110POPC   D2A34156  16.000   1.219   8.255
 8110POPC   C3A34157  15.969   1.207   7.955
 8110POPC   C4A34158  15.941   1.212   7.655
 8110POPC   C1B34159  15.869   1.024   8.555
 8110POPC   C2B34160  15.852   0.991   8.255
 8110POPC   C3B34161  15.868   0.941   7.955
 8110POPC   C4B34162  15.902   0.974   7.655
 8111POPC   NC334163   5.116  37.662   9.455
 8111POPC   PO434164   5.095  37.638   9.155
 8111POPC   GL134165   5.063  37.670   8.855
 8111POPC   GL234166   5.003  37.659   8.855
 8111POPC   C1A34167   5.131  37.630   8.555
 8111POPC   D2A34168   5.046  37.671   8.255
 8111POPC   C3A34169   5.073  37.696   7.955
 8111POPC   C4A34170   5.063  37.713   7.655
 8111POPC   C1B34171   4.873  37.708   8.555
 8111POPC   C2B34172   4.891  37.680   8.255
 8111POPC   C3B34173   4.863  37.628   7.955
 8111POPC   C4B34174   4.862  37.640   7.655
 8112POPC   NC334175  20.571  31.512   9.455
 8112POPC   PO434176  20.576  31.501   9.155
 8112POPC   GL134177  20.609  31.423   8.855
 8112POPC   GL234178  20.692  31.332   8.855
 8112POPC   C1A34179  20.641  31.509   8.555
 8112POPC   D2A34180  20.624  31.462   8.255
 8112POPC   C3A34181  20.630  31.435   7.955
 8112POPC   C4A34182  20.625  31.470   7.655
 8112POPC   C1B34183  20.754  31.211   8.555
 8112POPC   C2B34184  20.661  31.273   8.255
 8112POPC   C3B34185  20.695  31.262   7.955
 8112POPC   C4B34186  20.757  31.234   7.655
 8113POPC   NC334187  39.988  38.464   9.455
 8113POPC   PO434188  40.017  38.505   9.155
 8113POPC   GL134189  39.959  38.486   8.855
 8113POPC   GL234190  39.969  38.340   8.855
 8113POPC   C1A34191  40.054  38.416   8.555
 8113POPC   D2A34192  39.993  38.482   8.255
 8113POPC   C3A34193  40.041  38.456   7.955
 8113POPC   C4A34194  40.035  38.438   7.655
 8113POPC   C1B34195  39.975  38.171   8.555
 8113POPC   C2B34196  39.918  38.250   8.255
 8113POPC   C3B34197  39.921  38.257   7.955
 8113POPC   C4B34198  39.886  38.170   7.655
 8114POPC   NC334199  17.539   4.355   9.455
 8114POPC   PO434200  17.555   4.280   9.155
 8114POPC   GL134201  17.551   4.290   8.855
 8114POPC   GL234202  17.426   4.390   8.855
 8114POPC   C1A34203  17.461   4.360   8.555
 8114POPC   D2A34204  17.514   4.360   8.255
 8114POPC   C3A34205  17.480   4.341   7.955
 8114POPC   C4A34206  17.553   4.285   7.655
 8114POPC   C1B34207  17.351   4.513   8.555
 8114POPC   C2B34208  17.369   4.555   8.255
 8114POPC   C3B34209  17.393   4.517   7.955
 8114POPC   C4B34210  17.364   4.559   7.655
 8115POPC   NC334211  33.767  15.917   9.455
 8115POPC   PO434212  33.758  15.960   9.155
 8115POPC   GL134213  33.791  15.957   8.855
 8115POPC   GL234214  33.884  16.001   8.855
 8115POPC   C1A34215  33.819  15.960   8.555
 8115POPC   D2A34216  33.811  15.926   8.255
 8115POPC   C3A34217  33.825  15.941   7.955
 8115POPC   C4A34218  33.847  15.990   7.655
 8115POPC   C1B34219  33.994  16.023   8.555
 8115POPC   C2B34220  34.065  16.044   8.255
 8115POPC   C3B34221  34.068  16.083   7.955
 8115POPC   C4B34222  34.032  16.006   7.655
 8116POPC   NC334223  35.347  22.981   9.455
 8116POPC   PO434224  35.338  22.986   9.155
 8116POPC   GL134225  35.364  22.961   8.855
 8116POPC   GL234226  35.358  22.789   8.855
 8116POPC   C1A34227  35.336  22.981   8.555
 8116POPC   D2A34228  35.364  22.985   8.255
 8116POPC   C3A34229  35.333  22.930   7.955
 8116POPC   C4A34230  35.331  22.908   7.655
 8116POPC   C1B34231  35.371  22.721   8.555
 8116POPC   C2B34232  35.396  22.702   8.255
 8116POPC   C3B34233  35.380  22.660   7.955
 8116POPC   C4B34234  35.450  22.665   7.655
 8117POPC   NC334235  18.245  32.974   9.455
 8117POPC   PO434236  18.329  32.984   9.155
 8117POPC   GL134237  18.272  32.996   8.855
 8117POPC   GL234238  18.268  33.163   8.855
 8117POPC   C1A34239  18.305  32.990   8.555
 8117POPC   D2A34240  18.277  33.020   8.255
 8117POPC   C3A34241  18.276  32.978   7.955
 8117POPC   C4A34242  18.319  33.044   7.655
 8117POPC   C1B34243  18.189  33.278   8.555
 8117POPC   C2B34244  18.193  33.257   8.255
 8117POPC   C3B34245  18.240  33.266   7.955
 8117POPC   C4B34246  18.245  33.223   7.655
 8118POPC   NC334247   7.466   7.465   9.455
 8118POPC   PO434248   7.423   7.448   9.155
 8118POPC   GL134249   7.411   7.438   8.855
 8118POPC   GL234250   7.290   7.444   8.855
 8118POPC   C1A34251   7.431   7.377   8.555
 8118POPC   D2A34252   7.436   7.384   8.255
 8118POPC   C3A34253   7.467   7.454   7.955
 8118POPC   C4A34254   7.422   7.397   7.655
 8118POPC   C1B34255   7.174   7.376   8.555
 8118POPC   C2B34256   7.189   7.348   8.255
 8118POPC   C3B34257   7.171   7.354   7.955
 8118POPC   C4B34258   7.180   7.425   7.655
 8119POPC   NC334259  15.957  28.355   9.455
 8119POPC   PO434260  15.935  28.392   9.155
 8119POPC   GL134261  15.931  28.387   8.855
 8119POPC   GL234262  15.941  28.457   8.855
 8119POPC   C1A34263  15.941  28.415   8.555
 8119POPC   D2A34264  15.991  28.402   8.255
 8119POPC   C3A34265  15.960  28.333   7.955
 8119POPC   C4A34266  15.972  28.361   7.655
 8119POPC   C1B34267  15.884  28.558   8.555
 8119POPC   C2B34268  15.850  28.600   8.255
 8119POPC   C3B34269  15.857  28.577   7.955
 8119POPC   C4B34270  15.806  28.592   7.655
 8120POPC   NC334271   0.466  26.089   9.455
 8120POPC   PO434272   0.480  26.054   9.155
 8120POPC   GL134273   0.465  26.022   8.855
 8120POPC   GL234274   0.394  25.939   8.855
 8120POPC   C1A34275   0.484  25.998   8.555
 8120POPC   D2A34276   0.480  26.085   8.255
 8120POPC   C3A34277   0.467  26.088   7.955
 8120POPC   C4A34278   0.447  26.075   7.655
 8120POPC   C1B34279   0.362  25.783   8.555
 8120POPC   C2B34280   0.269  25.861   8.255
 8120POPC   C3B34281   0.292  25.864   7.955
 8120POPC   C4B34282   0.324  25.851   7.655
 8121POPC   NC334283   8.163  37.686   9.455
 8121POPC   PO434284   8.205  37.660   9.155
 8121POPC   GL134285   8.203  37.701   8.855
 8121POPC   GL234286   8.073  37.681   8.855
 8121POPC   C1A34287   8.178  37.706   8.555
 8121POPC   D2A34288   8.232  37.728   8.255
 8121POPC   C3A34289   8.198  37.715   7.955
 8121POPC   C4A34290   8.205  37.714   7.655
 8121POPC   C1B34291   7.898  37.676   8.555
 8121POPC   C2B34292   7.989  37.698   8.255
 8121POPC   C3B34293   7.924  37.664   7.955
 8121POPC   C4B34294   7.963  37.718   7.655
 8122POPC   NC334295  42.317  29.170   9.455
 8122POPC   PO434296  42.377  29.127   9.155
 8122POPC   GL134297  42.345  29.120   8.855
 8122POPC   GL234298  42.279  29.241   8.855
 8122POPC   C1A34299  42.365  29.105   8.555
 8122POPC   D2A34300  42.303  29.097   8.255
 8122POPC   C3A34301  42.321  29.191   7.955
 8122POPC   C4A34302  42.358  29.104   7.655
 8122POPC   C1B34303  42.097  29.351   8.555
 8122POPC   C2B34304  42.111  29.341   8.255
 8122POPC   C3B34305  42.196  29.334   7.955
 8122POPC   C4B34306  42.156  29.316   7.655
 8123POPC   NC334307  40.024  27.578   9.455
 8123POPC   PO434308  40.045  27.632   9.155
 8123POPC   GL134309  40.031  27.588   8.855
 8123POPC   GL234310  40.017  27.743   8.855
 8123POPC   C1A34311  39.982  27.557   8.555
 8123POPC   D2A34312  39.959  27.628   8.255
 8123POPC   C3A34313  40.035  27.626   7.955
 8123POPC   C4A34314  39.999  27.548   7.655
 8123POPC   C1B34315  39.994  27.880   8.555
 8123POPC   C2B34316  39.951  27.827   8.255
 8123POPC   C3B34317  39.964  27.883   7.955
 8123POPC   C4B34318  39.986  27.831   7.655
 8124POPC   NC334319  33.756  31.499   9.455
 8124POPC   PO434320  33.811  31.437   9.155
 8124POPC   GL134321  33.818  31.445   8.855
 8124POPC   GL234322  33.763  31.573   8.855
 8124POPC   C1A34323  33.844  31.465   8.555
 8124POPC   D2A34324  33.782  31.440   8.255
 8124POPC   C3A34325  33.791  31.489   7.955
 8124POPC   C4A34326  33.819  31.485   7.655
 8124POPC   C1B34327  33.667  31.704   8.555
 8124POPC   C2B34328  33.655  31.658   8.255
 8124POPC   C3B34329  33.724  31.736   7.955
 8124POPC   C4B34330  33.692  31.662   7.655
 8125POPC   NC334331  40.740  39.987   9.455
 8125POPC   PO434332  40.757  39.960   9.155
 8125POPC   GL134333  40.747  39.969   8.855
 8125POPC   GL234334  40.771  39.862   8.855
 8125POPC   C1A34335  40.787  40.043   8.555
 8125POPC   D2A34336  40.819  39.966   8.255
 8125POPC   C3A34337  40.760  40.024   7.955
 8125POPC   C4A34338  40.795  40.052   7.655
 8125POPC   C1B34339  40.668  39.795   8.555
 8125POPC   C2B34340  40.650  39.781   8.255
 8125POPC   C3B34341  40.721  39.796   7.955
 8125POPC   C4B34342  40.649  39.747   7.655
 8126POPC   NC334343  20.615  16.718   9.455
 8126POPC   PO434344  20.642  16.706   9.155
 8126POPC   GL134345  20.574  16.690   8.855
 8126POPC   GL234346  20.463  16.669   8.855
 8126POPC   C1A34347  20.562  16.714   8.555
 8126POPC   D2A34348  20.627  16.739   8.255
 8126POPC   C3A34349  20.629  16.759   7.955
 8126POPC   C4A34350  20.619  16.687   7.655
 8126POPC   C1B34351  20.366  16.662   8.555
 8126POPC   C2B34352  20.338  16.709   8.255
 8126POPC   C3B34353  20.344  16.669   7.955
 8126POPC   C4B34354  20.364  16.747   7.655
 8127POPC   NC334355  40.825  43.065   9.455
 8127POPC   PO434356  40.826  43.062   9.155
 8127POPC   GL134357  40.754  43.136   8.855
 8127POPC   GL234358  40.819  43.001   8.855
 8127POPC   C1A34359  40.735  43.132   8.555
 8127POPC   D2A34360  40.797  43.139   8.255
 8127POPC   C3A34361  40.790  43.112   7.955
 8127POPC   C4A34362  40.775  43.100   7.655
 8127POPC   C1B34363  40.857  42.850   8.555
 8127POPC   C2B34364  40.832  42.876   8.255
 8127POPC   C3B34365  40.863  42.883   7.955
 8127POPC   C4B34366  40.831  42.826   7.655
 8128POPC   NC334367  22.121   2.743   9.455
 8128POPC   PO434368  22.137   2.725   9.155
 8128POPC   GL134369  22.154   2.807   8.855
 8128POPC   GL234370  22.234   2.699   8.855
 8128POPC   C1A34371  22.211   2.767   8.555
 8128POPC   D2A34372  22.154   2.761   8.255
 8128POPC   C3A34373  22.164   2.747   7.955
 8128POPC   C4A34374  22.120   2.787   7.655
 8128POPC   C1B34375  22.327   2.557   8.555
 8128POPC   C2B34376  22.293   2.580   8.255
 8128POPC   C3B34377  22.258   2.521   7.955
 8128POPC   C4B34378  22.290   2.574   7.655
 8129POPC   NC334379  22.210  25.315   9.455
 8129POPC   PO434380  22.165  25.259   9.155
 8129POPC   GL134381  22.151  25.274   8.855
 8129POPC   GL234382  22.020  25.306   8.855
 8129POPC   C1A34383  22.165  25.256   8.555
 8129POPC   D2A34384  22.186  25.273   8.255
 8129POPC   C3A34385  22.157  25.304   7.955
 8129POPC   C4A34386  22.124  25.302   7.655
 8129POPC   C1B34387  21.913  25.276   8.555
 8129POPC   C2B34388  21.930  25.218   8.255
 8129POPC   C3B34389  21.899  25.299   7.955
 8129POPC   C4B34390  21.922  25.265   7.655
 8130POPC   NC334391  22.186  43.103   9.455
 8130POPC   PO434392  22.180  43.075   9.155
 8130POPC   GL134393  22.147  43.130   8.855
 8130POPC   GL234394  22.262  43.168   8.855
 8130POPC   C1A34395  22.209  43.099   8.555
 8130POPC   D2A34396  22.147  43.154   8.255
 8130POPC   C3A34397  22.146  43.073   7.955
 8130POPC   C4A34398  22.173  43.111   7.655
 8130POPC   C1B34399  22.414  43.259   8.555
 8130POPC   C2B34400  22.368  43.254   8.255
 8130POPC   C3B34401  22.355  43.245   7.955
 8130POPC   C4B34402  22.412  43.209   7.655
 8131POPC   NC334403  21.402  13.586   9.455
 8131POPC   PO434404  21.369  13.676   9.155
 8131POPC   GL134405  21.398  13.605   8.855
 8131POPC   GL234406  21.302  13.467   8.855
 8131POPC   C1A34407  21.421  13.641   8.555
 8131POPC   D2A34408  21.345  13.627   8.255
 8131POPC   C3A34409  21.372  13.656   7.955
 8131POPC   C4A34410  21.349  13.591   7.655
 8131POPC   C1B34411  21.338  13.420   8.555
 8131POPC   C2B34412  21.263  13.397   8.255
 8131POPC   C3B34413  21.323  13.348   7.955
 8131POPC   C4B34414  21.280  13.370   7.655
 8132POPC   NC334415  43.067  20.571   9.455
 8132POPC   PO434416  43.131  20.624   9.155
 8132POPC   GL134417  43.110  20.649   8.855
 8132POPC   GL234418  43.124  20.691   8.855
 8132POPC   C1A34419  43.113  20.650   8.555
 8132POPC   D2A34420  43.070  20.636   8.255
 8132POPC   C3A34421  43.104  20.611   7.955
 8132POPC   C4A34422  43.157  20.649   7.655
 8132POPC   C1B34423  43.200  20.866   8.555
 8132POPC   C2B34424  43.206  20.838   8.255
 8132POPC   C3B34425  43.186  20.821   7.955
 8132POPC   C4B34426  43.257  20.827   7.655
 8133POPC   NC334427  30.710  24.481   9.455
 8133POPC   PO434428  30.729  24.470   9.155
 8133POPC   GL134429  30.719  24.450   8.855
 8133POPC   GL234430  30.595  24.430   8.855
 8133POPC   C1A34431  30.726  24.466   8.555
 8133POPC   D2A34432  30.722  24.506   8.255
 8133POPC   C3A34433  30.687  24.526   7.955
 8133POPC   C4A34434  30.736  24.495   7.655
 8133POPC   C1B34435  30.555  24.308   8.555
 8133POPC   C2B34436  30.525  24.234   8.255
 8133POPC   C3B34437  30.536  24.261   7.955
 8133POPC   C4B34438  30.536  24.307   7.655
 8134POPC   NC334439  43.876  37.696   9.455
 8134POPC   PO434440  43.856  37.642   9.155
 8134POPC   GL134441  43.840  37.646   8.855
 8134POPC   GL234442  43.878  37.554   8.855
 8134POPC   C1A34443  43.892  37.670   8.555
 8134POPC   D2A34444  43.882  37.641   8.255
 8134POPC   C3A34445  43.863  37.672   7.955
 8134POPC   C4A34446  43.903  37.647   7.655
 8134POPC   C1B34447  43.891  37.444   8.555
 8134POPC   C2B34448  43.886  37.445   8.255
 8134POPC   C3B34449  43.839  37.392   7.955
 8134POPC   C4B34450  43.879  37.424   7.655
 8135POPC   NC334451  44.655  39.961   9.455
 8135POPC   PO434452  44.630  40.002   9.155
 8135POPC   GL134453  44.710  40.008   8.855
 8135POPC   GL234454  44.573  39.872   8.855
 8135POPC   C1A34455  44.629  39.987   8.555
 8135POPC   D2A34456  44.678  40.049   8.255
 8135POPC   C3A34457  44.680  39.990   7.955
 8135POPC   C4A34458  44.620  39.976   7.655
 8135POPC   C1B34459  44.484  39.819   8.555
 8135POPC   C2B34460  44.467  39.861   8.255
 8135POPC   C3B34461  44.446  39.867   7.955
 8135POPC   C4B34462  44.462  39.808   7.655
 8136POPC   NC334463  25.269   0.393   9.455
 8136POPC   PO434464  25.269   0.401   9.155
 8136POPC   GL134465  25.274   0.466   8.855
 8136POPC   GL234466  25.261   0.612   8.855
 8136POPC   C1A34467  25.266   0.398   8.555
 8136POPC   D2A34468  25.244   0.467   8.255
 8136POPC   C3A34469  25.294   0.403   7.955
 8136POPC   C4A34470  25.283   0.481   7.655
 8136POPC   C1B34471  25.274   0.660   8.555
 8136POPC   C2B34472  25.234   0.731   8.255
 8136POPC   C3B34473  25.246   0.675   7.955
 8136POPC   C4B34474  25.276   0.735   7.655
 8137POPC   NC334475  25.295   1.950   9.455
 8137POPC   PO434476  25.228   1.971   9.155
 8137POPC   GL134477  25.279   1.969   8.855
 8137POPC   GL234478  25.236   2.161   8.855
 8137POPC   C1A34479  25.284   2.038   8.555
 8137POPC   D2A34480  25.265   1.941   8.255
 8137POPC   C3A34481  25.312   1.945   7.955
 8137POPC   C4A34482  25.288   2.020   7.655
 8137POPC   C1B34483  25.241   2.247   8.555
 8137POPC   C2B34484  25.261   2.203   8.255
 8137POPC   C3B34485  25.257   2.274   7.955
 8137POPC   C4B34486  25.292   2.262   7.655
 8138POPC   NC334487  32.203  33.810   9.455
 8138POPC   PO434488  32.223  33.821   9.155
 8138POPC   GL134489  32.258  33.826   8.855
 8138POPC   GL234490  32.175  33.831   8.855
 8138POPC   C1A34491  32.286  33.781   8.555
 8138POPC   D2A34492  32.230  33.827   8.255
 8138POPC   C3A34493  32.242  33.778   7.955
 8138POPC   C4A34494  32.200  33.786   7.655
 8138POPC   C1B34495  32.077  33.905   8.555
 8138POPC   C2B34496  32.034  33.933   8.255
 8138POPC   C3B34497  32.034  33.920   7.955
 8138POPC   C4B34498  32.008  33.900   7.655
 8139POPC   NC334499  43.120  40.756   9.455
 8139POPC   PO434500  43.114  40.820   9.155
 8139POPC   GL134501  43.062  40.802   8.855
 8139POPC   GL234502  43.098  40.617   8.855
 8139POPC   C1A34503  43.114  40.784   8.555
 8139POPC   D2A34504  43.094  40.786   8.255
 8139POPC   C3A34505  43.149  40.750   7.955
 8139POPC   C4A34506  43.131  40.764   7.655
 8139POPC   C1B34507  43.138  40.535   8.555
 8139POPC   C2B34508  43.166  40.492   8.255
 8139POPC   C3B34509  43.185  40.522   7.955
 8139POPC   C4B34510  43.124  40.491   7.655
 8140POPC   NC334511  24.517   6.693   9.455
 8140POPC   PO434512  24.537   6.641   9.155
 8140POPC   GL134513  24.528   6.606   8.855
 8140POPC   GL234514  24.346   6.731   8.855
 8140POPC   C1A34515  24.512   6.655   8.555
 8140POPC   D2A34516  24.533   6.659   8.255
 8140POPC   C3A34517  24.498   6.639   7.955
 8140POPC   C4A34518  24.484   6.637   7.655
 8140POPC   C1B34519  24.268   6.755   8.555
 8140POPC   C2B34520  24.323   6.755   8.255
 8140POPC   C3B34521  24.307   6.769   7.955
 8140POPC   C4B34522  24.326   6.833   7.655
 8141POPC   NC334523  19.021  40.772   9.455
 8141POPC   PO434524  19.009  40.781   9.155
 8141POPC   GL134525  19.030  40.769   8.855
 8141POPC   GL234526  18.961  40.715   8.855
 8141POPC   C1A34527  19.016  40.739   8.555
 8141POPC   D2A34528  19.047  40.735   8.255
 8141POPC   C3A34529  19.039  40.790   7.955
 8141POPC   C4A34530  19.095  40.786   7.655
 8141POPC   C1B34531  18.937  40.596   8.555
 8141POPC   C2B34532  18.898  40.600   8.255
 8141POPC   C3B34533  18.919  40.628   7.955
 8141POPC   C4B34534  18.900  40.579   7.655
 8142POPC   NC334535  36.940  38.475   9.455
 8142POPC   PO434536  36.944  38.463   9.155
 8142POPC   GL134537  36.903  38.462   8.855
 8142POPC   GL234538  36.992  38.599   8.855
 8142POPC   C1A34539  36.866  38.499   8.555
 8142POPC   D2A34540  36.878  38.496   8.255
 8142POPC   C3A34541  36.907  38.470   7.955
 8142POPC   C4A34542  36.930  38.445   7.655
 8142POPC   C1B34543  36.972  38.719   8.555
 8142POPC   C2B34544  36.998  38.682   8.255
 8142POPC   C3B34545  37.029  38.677   7.955
 8142POPC   C4B34546  36.990  38.659   7.655
 8143POPC   NC334547  25.238  15.947   9.455
 8143POPC   PO434548  25.288  15.921   9.155
 8143POPC   GL134549  25.245  15.967   8.855
 8143POPC   GL234550  25.233  16.092   8.855
 8143POPC   C1A34551  25.263  15.990   8.555
 8143POPC   D2A34552  25.231  15.965   8.255
 8143POPC   C3A34553  25.312  16.004   7.955
 8143POPC   C4A34554  25.257  15.913   7.655
 8143POPC   C1B34555  25.261  16.236   8.555
 8143POPC   C2B34556  25.277  16.167   8.255
 8143POPC   C3B34557  25.194  16.185   7.955
 8143POPC   C4B34558  25.268  16.167   7.655
 8144POPC   NC334559  40.747  14.448   9.455
 8144POPC   PO434560  40.820  14.441   9.155
 8144POPC   GL134561  40.808  14.412   8.855
 8144POPC   GL234562  40.899  14.385   8.855
 8144POPC   C1A34563  40.736  14.374   8.555
 8144POPC   D2A34564  40.738  14.383   8.255
 8144POPC   C3A34565  40.825  14.412   7.955
 8144POPC   C4A34566  40.735  14.431   7.655
 8144POPC   C1B34567  41.043  14.334   8.555
 8144POPC   C2B34568  41.038  14.404   8.255
 8144POPC   C3B34569  41.012  14.349   7.955
 8144POPC   C4B34570  41.024  14.326   7.655
 8145POPC   NC334571  26.035  43.917   9.455
 8145POPC   PO434572  26.003  43.872   9.155
 8145POPC   GL134573  26.084  43.857   8.855
 8145POPC   GL234574  25.924  43.901   8.855
 8145POPC   C1A34575  26.004  43.875   8.555
 8145POPC   D2A34576  26.047  43.852   8.255
 8145POPC   C3A34577  26.036  43.872   7.955
 8145POPC   C4A34578  26.086  43.923   7.655
 8145POPC   C1B34579  25.780  43.918   8.555
 8145POPC   C2B34580  25.793  43.988   8.255
 8145POPC   C3B34581  25.819  43.911   7.955
 8145POPC   C4B34582  25.785  43.956   7.655
 8146POPC   NC334583  32.277  34.575   9.455
 8146POPC   PO434584  32.298  34.532   9.155
 8146POPC   GL134585  32.287  34.597   8.855
 8146POPC   GL234586  32.304  34.711   8.855
 8146POPC   C1A34587  32.233  34.546   8.555
 8146POPC   D2A34588  32.293  34.618   8.255
 8146POPC   C3A34589  32.204  34.538   7.955
 8146POPC   C4A34590  32.209  34.597   7.655
 8146POPC   C1B34591  32.332  34.815   8.555
 8146POPC   C2B34592  32.296  34.823   8.255
 8146POPC   C3B34593  32.322  34.792   7.955
 8146POPC   C4B34594  32.250  34.844   7.655
 8147POPC   NC334595  26.009  24.449   9.455
 8147POPC   PO434596  26.040  24.496   9.155
 8147POPC   GL134597  26.024  24.452   8.855
 8147POPC   GL234598  25.956  24.368   8.855
 8147POPC   C1A34599  26.076  24.529   8.555
 8147POPC   D2A34600  26.007  24.475   8.255
 8147POPC   C3A34601  26.081  24.480   7.955
 8147POPC   C4A34602  26.014  24.482   7.655
 8147POPC   C1B34603  25.925  24.204   8.555
 8147POPC   C2B34604  25.983  24.267   8.255
 8147POPC   C3B34605  25.934  24.282   7.955
 8147POPC   C4B34606  26.004  24.229   7.655
 8148POPC   NC334607  44.616   5.911   9.455
 8148POPC   PO434608  44.692   5.840   9.155
 8148POPC   GL134609  44.697   5.858   8.855
 8148POPC   GL234610  44.564   5.825   8.855
 8148POPC   C1A34611  44.618   5.836   8.555
 8148POPC   D2A34612  44.632   5.909   8.255
 8148POPC   C3A34613  44.686   5.886   7.955
 8148POPC   C4A34614  44.660   5.858   7.655
 8148POPC   C1B34615  44.465   5.803   8.555
 8148POPC   C2B34616  44.393   5.834   8.255
 8148POPC   C3B34617  44.377   5.833   7.955
 8148POPC   C4B34618  44.473   5.821   7.655
 8149POPC   NC334619  28.354  12.836   9.455
 8149POPC   PO434620  28.386  12.872   9.155
 8149POPC   GL134621  28.329  12.860   8.855
 8149POPC   GL234622  28.289  12.912   8.855
 8149POPC   C1A34623  28.343  12.878   8.555
 8149POPC   D2A34624  28.400  12.895   8.255
 8149POPC   C3A34625  28.414  12.854   7.955
 8149POPC   C4A34626  28.323  12.809   7.655
 8149POPC   C1B34627  28.118  12.932   8.555
 8149POPC   C2B34628  28.136  12.946   8.255
 8149POPC   C3B34629  28.111  12.867   7.955
 8149POPC   C4B34630  28.132  12.880   7.655
 8150POPC   NC334631  36.873  28.347   9.455
 8150POPC   PO434632  36.917  28.388   9.155
 8150POPC   GL134633  36.913  28.395   8.855
 8150POPC   GL234634  36.946  28.197   8.855
 8150POPC   C1A34635  36.888  28.381   8.555
 8150POPC   D2A34636  36.864  28.386   8.255
 8150POPC   C3A34637  36.923  28.413   7.955
 8150POPC   C4A34638  36.857  28.361   7.655
 8150POPC   C1B34639  36.893  28.083   8.555
 8150POPC   C2B34640  36.953  28.081   8.255
 8150POPC   C3B34641  36.884  28.167   7.955
 8150POPC   C4B34642  36.855  28.101   7.655
 8151POPC   NC334643  20.569  18.272   9.455
 8151POPC   PO434644  20.612  18.274   9.155
 8151POPC   GL134645  20.631  18.306   8.855
 8151POPC   GL234646  20.634  18.407   8.855
 8151POPC   C1A34647  20.568  18.285   8.555
 8151POPC   D2A34648  20.617  18.287   8.255
 8151POPC   C3A34649  20.655  18.331   7.955
 8151POPC   C4A34650  20.623  18.275   7.655
 8151POPC   C1B34651  20.563  18.552   8.555
 8151POPC   C2B34652  20.638  18.564   8.255
 8151POPC   C3B34653  20.611  18.502   7.955
 8151POPC   C4B34654  20.619  18.522   7.655
 8152POPC   NC334655  44.710  21.379   9.455
 8152POPC   PO434656  44.659  21.414   9.155
 8152POPC   GL134657  44.689  21.406   8.855
 8152POPC   GL234658  44.687  21.235   8.855
 8152POPC   C1A34659  44.692  21.373   8.555
 8152POPC   D2A34660  44.686  21.359   8.255
 8152POPC   C3A34661  44.623  21.339   7.955
 8152POPC   C4A34662  44.667  21.431   7.655
 8152POPC   C1B34663  44.777  21.134   8.555
 8152POPC   C2B34664  44.801  21.134   8.255
 8152POPC   C3B34665  44.775  21.188   7.955
 8152POPC   C4B34666  44.784  21.166   7.655
 8153POPC   NC334667  27.601  29.159   9.455
 8153POPC   PO434668  27.638  29.104   9.155
 8153POPC   GL134669  27.549  29.150   8.855
 8153POPC   GL234670  27.549  29.033   8.855
 8153POPC   C1A34671  27.600  29.116   8.555
 8153POPC   D2A34672  27.627  29.149   8.255
 8153POPC   C3A34673  27.566  29.136   7.955
 8153POPC   C4A34674  27.626  29.157   7.655
 8153POPC   C1B34675  27.602  28.880   8.555
 8153POPC   C2B34676  27.558  28.888   8.255
 8153POPC   C3B34677  27.524  28.889   7.955
 8153POPC   C4B34678  27.543  28.874   7.655
 8154POPC   NC334679   6.655  12.804   9.455
 8154POPC   PO434680   6.624  12.890   9.155
 8154POPC   GL134681   6.660  12.899   8.855
 8154POPC   GL234682   6.734  12.835   8.855
 8154POPC   C1A34683   6.632  12.857   8.555
 8154POPC   D2A34684   6.605  12.821   8.255
 8154POPC   C3A34685   6.610  12.806   7.955
 8154POPC   C4A34686   6.630  12.835   7.655
 8154POPC   C1B34687   6.846  12.862   8.555
 8154POPC   C2B34688   6.884  12.843   8.255
 8154POPC   C3B34689   6.897  12.885   7.955
 8154POPC   C4B34690   6.932  12.929   7.655
 8155POPC   NC334691  17.466   3.530   9.455
 8155POPC   PO434692  17.474   3.544   9.155
 8155POPC   GL134693  17.534   3.499   8.855
 8155POPC   GL234694  17.514   3.631   8.855
 8155POPC   C1A34695  17.470   3.586   8.555
 8155POPC   D2A34696  17.507   3.525   8.255
 8155POPC   C3A34697  17.463   3.564   7.955
 8155POPC   C4A34698  17.473   3.494   7.655
 8155POPC   C1B34699  17.445   3.772   8.555
 8155POPC   C2B34700  17.435   3.750   8.255
 8155POPC   C3B34701  17.419   3.767   7.955
 8155POPC   C4B34702  17.420   3.766   7.655
 8156POPC   NC334703  44.648  43.100   9.455
 8156POPC   PO434704  44.672  43.100   9.155
 8156POPC   GL134705  44.663  43.148   8.855
 8156POPC   GL234706  44.832  43.057   8.855
 8156POPC   C1A34707  44.631  43.065   8.555
 8156POPC   D2A34708  44.614  43.131   8.255
 8156POPC   C3A34709  44.712  43.075   7.955
 8156POPC   C4A34710  44.673  43.145   7.655
 8156POPC   C1B34711  44.890  43.011   8.555
 8156POPC   C2B34712  44.858  43.042   8.255
 8156POPC   C3B34713  44.921  43.026   7.955
 8156POPC   C4B34714  44.910  43.041   7.655
 8157POPC   NC334715  41.586  30.727   9.455
 8157POPC   PO434716  41.547  30.743   9.155
 8157POPC   GL134717  41.535  30.720   8.855
 8157POPC   GL234718  41.431  30.672   8.855
 8157POPC   C1A34719  41.573  30.722   8.555
 8157POPC   D2A34720  41.591  30.679   8.255
 8157POPC   C3A34721  41.606  30.699   7.955
 8157POPC   C4A34722  41.520  30.670   7.655
 8157POPC   C1B34723  41.381  30.583   8.555
 8157POPC   C2B34724  41.311  30.613   8.255
 8157POPC   C3B34725  41.365  30.555   7.955
 8157POPC   C4B34726  41.304  30.547   7.655
 8158POPC   NC334727  23.709  40.832   9.455
 8158POPC   PO434728  23.759  40.788   9.155
 8158POPC   GL134729  23.693  40.796   8.855
 8158POPC   GL234730  23.871  40.761   8.855
 8158POPC   C1A34731  23.665  40.818   8.555
 8158POPC   D2A34732  23.761  40.771   8.255
 8158POPC   C3A34733  23.677  40.817   7.955
 8158POPC   C4A34734  23.721  40.766   7.655
 8158POPC   C1B34735  23.922  40.780   8.555
 8158POPC   C2B34736  24.010  40.773   8.255
 8158POPC   C3B34737  23.933  40.753   7.955
 8158POPC   C4B34738  23.933  40.806   7.655
 8159POPC   NC334739  23.684  15.184   9.455
 8159POPC   PO434740  23.709  15.178   9.155
 8159POPC   GL134741  23.692  15.216   8.855
 8159POPC   GL234742  23.742  15.067   8.855
 8159POPC   C1A34743  23.762  15.155   8.555
 8159POPC   D2A34744  23.691  15.198   8.255
 8159POPC   C3A34745  23.675  15.206   7.955
 8159POPC   C4A34746  23.755  15.152   7.655
 8159POPC   C1B34747  23.816  14.969   8.555
 8159POPC   C2B34748  23.778  14.969   8.255
 8159POPC   C3B34749  23.775  14.997   7.955
 8159POPC   C4B34750  23.849  14.946   7.655
 8160POPC   NC334751  30.731  34.621   9.455
 8160POPC   PO434752  30.653  34.604   9.155
 8160POPC   GL134753  30.742  34.569   8.855
 8160POPC   GL234754  30.579  34.516   8.855
 8160POPC   C1A34755  30.703  34.562   8.555
 8160POPC   D2A34756  30.710  34.622   8.255
 8160POPC   C3A34757  30.681  34.530   7.955
 8160POPC   C4A34758  30.696  34.607   7.655
 8160POPC   C1B34759  30.529  34.417   8.555
 8160POPC   C2B34760  30.518  34.432   8.255
 8160POPC   C3B34761  30.490  34.482   7.955
 8160POPC   C4B34762  30.498  34.450   7.655
 8161POPC   NC334763  22.935  24.519   9.455
 8161POPC   PO434764  22.910  24.499   9.155
 8161POPC   GL134765  22.964  24.480   8.855
 8161POPC   GL234766  22.885  24.572   8.855
 8161POPC   C1A34767  22.908  24.501   8.555
 8161POPC   D2A34768  22.927  24.451   8.255
 8161POPC   C3A34769  22.979  24.456   7.955
 8161POPC   C4A34770  22.980  24.481   7.655
 8161POPC   C1B34771  22.822  24.684   8.555
 8161POPC   C2B34772  22.786  24.661   8.255
 8161POPC   C3B34773  22.780  24.676   7.955
 8161POPC   C4B34774  22.793  24.682   7.655
 8162POPC   NC334775   8.994   9.723   9.455
 8162POPC   PO434776   8.945   9.741   9.155
 8162POPC   GL134777   8.928   9.783   8.855
 8162POPC   GL234778   8.907   9.886   8.855
 8162POPC   C1A34779   8.929   9.720   8.555
 8162POPC   D2A34780   8.931   9.729   8.255
 8162POPC   C3A34781   8.983   9.788   7.955
 8162POPC   C4A34782   9.011   9.775   7.655
 8162POPC   C1B34783   8.943  10.029   8.555
 8162POPC   C2B34784   8.977   9.977   8.255
 8162POPC   C3B34785   8.941   9.970   7.955
 8162POPC   C4B34786   8.910   9.947   7.655
 8163POPC   NC334787  32.997  25.238   9.455
 8163POPC   PO434788  33.013  25.264   9.155
 8163POPC   GL134789  33.021  25.240   8.855
 8163POPC   GL234790  33.028  25.349   8.855
 8163POPC   C1A34791  32.978  25.249   8.555
 8163POPC   D2A34792  32.997  25.276   8.255
 8163POPC   C3A34793  33.035  25.221   7.955
 8163POPC   C4A34794  33.040  25.237   7.655
 8163POPC   C1B34795  33.013  25.547   8.555
 8163POPC   C2B34796  33.017  25.513   8.255
 8163POPC   C3B34797  33.072  25.545   7.955
 8163POPC   C4B34798  33.031  25.540   7.655
 8164POPC   NC334799  43.876  19.879   9.455
 8164POPC   PO434800  43.871  19.835   9.155
 8164POPC   GL134801  43.888  19.848   8.855
 8164POPC   GL234802  43.785  19.765   8.855
 8164POPC   C1A34803  43.928  19.807   8.555
 8164POPC   D2A34804  43.927  19.859   8.255
 8164POPC   C3A34805  43.903  19.837   7.955
 8164POPC   C4A34806  43.842  19.841   7.655
 8164POPC   C1B34807  43.662  19.636   8.555
 8164POPC   C2B34808  43.646  19.667   8.255
 8164POPC   C3B34809  43.693  19.629   7.955
 8164POPC   C4B34810  43.718  19.633   7.655
 8165POPC   NC334811  30.671  13.651   9.455
 8165POPC   PO434812  30.716  13.669   9.155
 8165POPC   GL134813  30.682  13.586   8.855
 8165POPC   GL234814  30.605  13.506   8.855
 8165POPC   C1A34815  30.701  13.591   8.555
 8165POPC   D2A34816  30.711  13.621   8.255
 8165POPC   C3A34817  30.690  13.596   7.955
 8165POPC   C4A34818  30.710  13.608   7.655
 8165POPC   C1B34819  30.581  13.385   8.555
 8165POPC   C2B34820  30.611  13.400   8.255
 8165POPC   C3B34821  30.600  13.397   7.955
 8165POPC   C4B34822  30.579  13.408   7.655
 8166POPC   NC334823  18.248  36.898   9.455
 8166POPC   PO434824  18.240  36.915   9.155
 8166POPC   GL134825  18.329  36.857   8.855
 8166POPC   GL234826  18.378  36.819   8.855
 8166POPC   C1A34827  18.238  36.934   8.555
 8166POPC   D2A34828  18.248  36.946   8.255
 8166POPC   C3A34829  18.233  36.902   7.955
 8166POPC   C4A34830  18.236  36.950   7.655
 8166POPC   C1B34831  18.383  36.729   8.555
 8166POPC   C2B34832  18.440  36.704   8.255
 8166POPC   C3B34833  18.417  36.731   7.955
 8166POPC   C4B34834  18.441  36.718   7.655
 8167POPC   NC334835  30.712   4.306   9.455
 8167POPC   PO434836  30.722   4.320   9.155
 8167POPC   GL134837  30.661   4.270   8.855
 8167POPC   GL234838  30.738   4.459   8.855
 8167POPC   C1A34839  30.688   4.316   8.555
 8167POPC   D2A34840  30.708   4.271   8.255
 8167POPC   C3A34841  30.675   4.351   7.955
 8167POPC   C4A34842  30.724   4.277   7.655
 8167POPC   C1B34843  30.817   4.538   8.555
 8167POPC   C2B34844  30.840   4.527   8.255
 8167POPC   C3B34845  30.886   4.528   7.955
 8167POPC   C4B34846  30.872   4.507   7.655
 8168POPC   NC334847   3.522  15.987   9.455
 8168POPC   PO434848   3.503  15.926   9.155
 8168POPC   GL134849   3.525  15.982   8.855
 8168POPC   GL234850   3.498  15.823   8.855
 8168POPC   C1A34851   3.510  15.963   8.555
 8168POPC   D2A34852   3.573  15.913   8.255
 8168POPC   C3A34853   3.589  15.955   7.955
 8168POPC   C4A34854   3.523  15.937   7.655
 8168POPC   C1B34855   3.526  15.692   8.555
 8168POPC   C2B34856   3.499  15.719   8.255
 8168POPC   C3B34857   3.534  15.683   7.955
 8168POPC   C4B34858   3.525  15.674   7.655
 8169POPC   NC334859  20.639   6.680   9.455
 8169POPC   PO434860  20.593   6.669   9.155
 8169POPC   GL134861  20.660   6.634   8.855
 8169POPC   GL234862  20.548   6.511   8.855
 8169POPC   C1A34863  20.593   6.624   8.555
 8169POPC   D2A34864  20.589   6.653   8.255
 8169POPC   C3A34865  20.613   6.607   7.955
 8169POPC   C4A34866  20.651   6.629   7.655
 8169POPC   C1B34867  20.441   6.486   8.555
 8169POPC   C2B34868  20.456   6.412   8.255
 8169POPC   C3B34869  20.441   6.443   7.955
 8169POPC   C4B34870  20.462   6.478   7.655
 8170POPC   NC334871  17.474  36.913   9.455
 8170POPC   PO434872  17.515  36.923   9.155
 8170POPC   GL134873  17.545  36.873   8.855
 8170POPC   GL234874  17.540  36.982   8.855
 8170POPC   C1A34875  17.515  36.900   8.555
 8170POPC   D2A34876  17.520  36.910   8.255
 8170POPC   C3A34877  17.462  36.900   7.955
 8170POPC   C4A34878  17.533  36.908   7.655
 8170POPC   C1B34879  17.477  37.183   8.555
 8170POPC   C2B34880  17.498  37.141   8.255
 8170POPC   C3B34881  17.527  37.195   7.955
 8170POPC   C4B34882  17.490  37.108   7.655
 8171POPC   NC334883  11.268  10.526   9.455
 8171POPC   PO434884  11.263  10.542   9.155
 8171POPC   GL134885  11.345  10.573   8.855
 8171POPC   GL234886  11.260  10.626   8.855
 8171POPC   C1A34887  11.338  10.517   8.555
 8171POPC   D2A34888  11.300  10.558   8.255
 8171POPC   C3A34889  11.271  10.509   7.955
 8171POPC   C4A34890  11.285  10.535   7.655
 8171POPC   C1B34891  11.340  10.747   8.555
 8171POPC   C2B34892  11.342  10.733   8.255
 8171POPC   C3B34893  11.330  10.764   7.955
 8171POPC   C4B34894  11.353  10.779   7.655
 8172POPC   NC334895  16.774  29.117   9.455
 8172POPC   PO434896  16.698  29.149   9.155
 8172POPC   GL134897  16.721  29.133   8.855
 8172POPC   GL234898  16.836  29.167   8.855
 8172POPC   C1A34899  16.747  29.144   8.555
 8172POPC   D2A34900  16.732  29.130   8.255
 8172POPC   C3A34901  16.758  29.125   7.955
 8172POPC   C4A34902  16.756  29.135   7.655
 8172POPC   C1B34903  16.966  29.184   8.555
 8172POPC   C2B34904  16.948  29.195   8.255
 8172POPC   C3B34905  16.937  29.261   7.955
 8172POPC   C4B34906  16.995  29.234   7.655
 8173POPC   NC334907  20.583   9.749   9.455
 8173POPC   PO434908  20.590   9.759   9.155
 8173POPC   GL134909  20.622   9.784   8.855
 8173POPC   GL234910  20.765   9.793   8.855
 8173POPC   C1A34911  20.589   9.791   8.555
 8173POPC   D2A34912  20.586   9.701   8.255
 8173POPC   C3A34913  20.656   9.708   7.955
 8173POPC   C4A34914  20.630   9.731   7.655
 8173POPC   C1B34915  20.823   9.832   8.555
 8173POPC   C2B34916  20.851   9.814   8.255
 8173POPC   C3B34917  20.826   9.768   7.955
 8173POPC   C4B34918  20.863   9.865   7.655
 8174POPC   NC334919  42.376   7.396   9.455
 8174POPC   PO434920  42.311   7.390   9.155
 8174POPC   GL134921  42.342   7.414   8.855
 8174POPC   GL234922  42.424   7.314   8.855
 8174POPC   C1A34923  42.308   7.430   8.555
 8174POPC   D2A34924  42.351   7.406   8.255
 8174POPC   C3A34925  42.326   7.405   7.955
 8174POPC   C4A34926  42.369   7.394   7.655
 8174POPC   C1B34927  42.475   7.168   8.555
 8174POPC   C2B34928  42.449   7.172   8.255
 8174POPC   C3B34929  42.479   7.148   7.955
 8174POPC   C4B34930  42.455   7.194   7.655
 8175POPC   NC334931  28.381  15.191   9.455
 8175POPC   PO434932  28.330  15.162   9.155
 8175POPC   GL134933  28.322  15.203   8.855
 8175POPC   GL234934  28.406  15.076   8.855
 8175POPC   C1A34935  28.329  15.176   8.555
 8175POPC   D2A34936  28.348  15.187   8.255
 8175POPC   C3A34937  28.376  15.161   7.955
 8175POPC   C4A34938  28.388  15.222   7.655
 8175POPC   C1B34939  28.492  14.917   8.555
 8175POPC   C2B34940  28.488  14.980   8.255
 8175POPC   C3B34941  28.471  14.994   7.955
 8175POPC   C4B34942  28.501  14.991   7.655
 8176POPC   NC334943   0.422  17.546   9.455
 8176POPC   PO434944   0.457  17.505   9.155
 8176POPC   GL134945   0.447  17.525   8.855
 8176POPC   GL234946   0.512  17.432   8.855
 8176POPC   C1A34947   0.392  17.523   8.555
 8176POPC   D2A34948   0.462  17.549   8.255
 8176POPC   C3A34949   0.444  17.537   7.955
 8176POPC   C4A34950   0.411  17.538   7.655
 8176POPC   C1B34951   0.668  17.393   8.555
 8176POPC   C2B34952   0.723  17.469   8.255
 8176POPC   C3B34953   0.648  17.411   7.955
 8176POPC   C4B34954   0.656  17.411   7.655
 8177POPC   NC334955   1.183  16.755   9.455
 8177POPC   PO434956   1.256  16.710   9.155
 8177POPC   GL134957   1.201  16.687   8.855
 8177POPC   GL234958   1.076  16.837   8.855
 8177POPC   C1A34959   1.175  16.686   8.555
 8177POPC   D2A34960   1.217  16.726   8.255
 8177POPC   C3A34961   1.206  16.716   7.955
 8177POPC   C4A34962   1.248  16.771   7.655
 8177POPC   C1B34963   1.063  16.938   8.555
 8177POPC   C2B34964   1.073  16.926   8.255
 8177POPC   C3B34965   1.043  16.940   7.955
 8177POPC   C4B34966   1.074  16.922   7.655
 8178POPC   NC334967  26.052  17.518   9.455
 8178POPC   PO434968  26.031  17.533   9.155
 8178POPC   GL134969  26.017  17.554   8.855
 8178POPC   GL234970  26.166  17.475   8.855
 8178POPC   C1A34971  26.072  17.527   8.555
 8178POPC   D2A34972  26.021  17.528   8.255
 8178POPC   C3A34973  26.017  17.471   7.955
 8178POPC   C4A34974  26.014  17.528   7.655
 8178POPC   C1B34975  26.251  17.498   8.555
 8178POPC   C2B34976  26.297  17.557   8.255
 8178POPC   C3B34977  26.280  17.474   7.955
 8178POPC   C4B34978  26.277  17.521   7.655
 8179POPC   NC334979  17.548  17.473   9.455
 8179POPC   PO434980  17.525  17.541   9.155
 8179POPC   GL134981  17.520  17.544   8.855
 8179POPC   GL234982  17.512  17.659   8.855
 8179POPC   C1A34983  17.475  17.472   8.555
 8179POPC   D2A34984  17.513  17.541   8.255
 8179POPC   C3A34985  17.548  17.476   7.955
 8179POPC   C4A34986  17.467  17.536   7.655
 8179POPC   C1B34987  17.493  17.782   8.555
 8179POPC   C2B34988  17.500  17.779   8.255
 8179POPC   C3B34989  17.555  17.761   7.955
 8179POPC   C4B34990  17.502  17.782   7.655
 8180POPC   NC334991  38.452   8.184   9.455
 8180POPC   PO434992  38.430   8.197   9.155
 8180POPC   GL134993  38.442   8.190   8.855
 8180POPC   GL234994  38.324   8.234   8.855
 8180POPC   C1A34995  38.478   8.156   8.555
 8180POPC   D2A34996  38.481   8.178   8.255
 8180POPC   C3A34997  38.483   8.152   7.955
 8180POPC   C4A34998  38.435   8.189   7.655
 8180POPC   C1B34999  38.260   8.291   8.555
 8180POPC   C2B35000  38.231   8.326   8.255
 8180POPC   C3B35001  38.261   8.289   7.955
 8180POPC   C4B35002  38.215   8.250   7.655
 8181POPC   NC335003  40.054  19.084   9.455
 8181POPC   PO435004  39.991  19.069   9.155
 8181POPC   GL135005  40.046  19.101   8.855
 8181POPC   GL235006  39.877  19.051   8.855
 8181POPC   C1A35007  40.002  19.055   8.555
 8181POPC   D2A35008  40.038  19.069   8.255
 8181POPC   C3A35009  40.042  19.079   7.955
 8181POPC   C4A35010  39.963  19.097   7.655
 8181POPC   C1B35011  39.788  19.029   8.555
 8181POPC   C2B35012  39.730  19.027   8.255
 8181POPC   C3B35013  39.787  18.993   7.955
 8181POPC   C4B35014  39.762  19.012   7.655
 8182POPC   NC335015  25.280  12.892   9.455
 8182POPC   PO435016  25.236  12.843   9.155
 8182POPC   GL135017  25.224  12.895   8.855
 8182POPC   GL235018  25.293  12.770   8.855
 8182POPC   C1A35019  25.273  12.855   8.555
 8182POPC   D2A35020  25.304  12.880   8.255
 8182POPC   C3A35021  25.286  12.823   7.955
 8182POPC   C4A35022  25.276  12.898   7.655
 8182POPC   C1B35023  25.281  12.607   8.555
 8182POPC   C2B35024  25.231  12.595   8.255
 8182POPC   C3B35025  25.308  12.560   7.955
 8182POPC   C4B35026  25.259  12.556   7.655
 8183POPC   NC335027   4.297  29.184   9.455
 8183POPC   PO435028   4.339  29.099   9.155
 8183POPC   GL135029   4.320  29.149   8.855
 8183POPC   GL235030   4.347  29.003   8.855
 8183POPC   C1A35031   4.346  29.147   8.555
 8183POPC   D2A35032   4.343  29.169   8.255
 8183POPC   C3A35033   4.270  29.146   7.955
 8183POPC   C4A35034   4.315  29.114   7.655
 8183POPC   C1B35035   4.391  28.895   8.555
 8183POPC   C2B35036   4.384  28.902   8.255
 8183POPC   C3B35037   4.345  28.942   7.955
 8183POPC   C4B35038   4.357  28.926   7.655
 8184POPC   NC335039   1.209   7.432   9.455
 8184POPC   PO435040   1.242   7.401   9.155
 8184POPC   GL135041   1.250   7.435   8.855
 8184POPC   GL235042   1.252   7.286   8.855
 8184POPC   C1A35043   1.244   7.464   8.555
 8184POPC   D2A35044   1.222   7.433   8.255
 8184POPC   C3A35045   1.187   7.372   7.955
 8184POPC   C4A35046   1.167   7.390   7.655
 8184POPC   C1B35047   1.321   7.144   8.555
 8184POPC   C2B35048   1.289   7.203   8.255
 8184POPC   C3B35049   1.290   7.201   7.955
 8184POPC   C4B35050   1.278   7.170   7.655
 8185POPC   NC335051   3.539  12.901   9.455
 8185POPC   PO435052   3.532  12.855   9.155
 8185POPC   GL135053   3.556  12.874   8.855
 8185POPC   GL235054   3.502  12.938   8.855
 8185POPC   C1A35055   3.547  12.826   8.555
 8185POPC   D2A35056   3.508  12.862   8.255
 8185POPC   C3A35057   3.582  12.881   7.955
 8185POPC   C4A35058   3.500  12.844   7.655
 8185POPC   C1B35059   3.392  13.070   8.555
 8185POPC   C2B35060   3.420  13.023   8.255
 8185POPC   C3B35061   3.398  13.062   7.955
 8185POPC   C4B35062   3.431  13.028   7.655
 8186POPC   NC335063  21.404  19.827   9.455
 8186POPC   PO435064  21.395  19.863   9.155
 8186POPC   GL135065  21.430  19.825   8.855
 8186POPC   GL235066  21.427  19.683   8.855
 8186POPC   C1A35067  21.369  19.872   8.555
 8186POPC   D2A35068  21.398  19.853   8.255
 8186POPC   C3A35069  21.380  19.853   7.955
 8186POPC   C4A35070  21.374  19.797   7.655
 8186POPC   C1B35071  21.478  19.573   8.555
 8186POPC   C2B35072  21.492  19.564   8.255
 8186POPC   C3B35073  21.458  19.616   7.955
 8186POPC   C4B35074  21.471  19.602   7.655
 8187POPC   NC335075  21.390  40.821   9.455
 8187POPC   PO435076  21.384  40.790   9.155
 8187POPC   GL135077  21.401  40.788   8.855
 8187POPC   GL235078  21.334  40.658   8.855
 8187POPC   C1A35079  21.358  40.743   8.555
 8187POPC   D2A35080  21.425  40.751   8.255
 8187POPC   C3A35081  21.424  40.783   7.955
 8187POPC   C4A35082  21.408  40.799   7.655
 8187POPC   C1B35083  21.394  40.515   8.555
 8187POPC   C2B35084  21.326  40.543   8.255
 8187POPC   C3B35085  21.377  40.521   7.955
 8187POPC   C4B35086  21.388  40.562   7.655
 8188POPC   NC335087  25.299  16.743   9.455
 8188POPC   PO435088  25.307  16.729   9.155
 8188POPC   GL135089  25.244  16.688   8.855
 8188POPC   GL235090  25.260  16.809   8.855
 8188POPC   C1A35091  25.276  16.682   8.555
 8188POPC   D2A35092  25.228  16.770   8.255
 8188POPC   C3A35093  25.252  16.775   7.955
 8188POPC   C4A35094  25.309  16.725   7.655
 8188POPC   C1B35095  25.190  17.005   8.555
 8188POPC   C2B35096  25.168  16.929   8.255
 8188POPC   C3B35097  25.142  16.991   7.955
 8188POPC   C4B35098  25.144  16.924   7.655
 8189POPC   NC335099  29.887  12.058   9.455
 8189POPC   PO435100  29.952  12.071   9.155
 8189POPC   GL135101  29.935  12.102   8.855
 8189POPC   GL235102  29.793  12.030   8.855
 8189POPC   C1A35103  29.958  12.099   8.555
 8189POPC   D2A35104  29.923  12.070   8.255
 8189POPC   C3A35105  29.962  12.043   7.955
 8189POPC   C4A35106  29.891  12.070   7.655
 8189POPC   C1B35107  29.750  11.964   8.555
 8189POPC   C2B35108  29.697  11.966   8.255
 8189POPC   C3B35109  29.669  11.887   7.955
 8189POPC   C4B35110  29.716  11.925   7.655
 8190POPC   NC335111   3.511  41.547   9.455
 8190POPC   PO435112   3.512  41.510   9.155
 8190POPC   GL135113   3.546  41.583   8.855
 8190POPC   GL235114   3.588  41.448   8.855
 8190POPC   C1A35115   3.567  41.598   8.555
 8190POPC   D2A35116   3.572  41.572   8.255
 8190POPC   C3A35117   3.532  41.596   7.955
 8190POPC   C4A35118   3.552  41.512   7.655
 8190POPC   C1B35119   3.559  41.362   8.555
 8190POPC   C2B35120   3.563  41.331   8.255
 8190POPC   C3B35121   3.618  41.272   7.955
 8190POPC   C4B35122   3.577  41.292   7.655
 8191POPC   NC335123  40.738  15.132   9.455
 8191POPC   PO435124  40.781  15.169   9.155
 8191POPC   GL135125  40.738  15.201   8.855
 8191POPC   GL235126  40.627  15.211   8.855
 8191POPC   C1A35127  40.823  15.218   8.555
 8191POPC   D2A35128  40.771  15.200   8.255
 8191POPC   C3A35129  40.744  15.228   7.955
 8191POPC   C4A35130  40.818  15.146   7.655
 8191POPC   C1B35131  40.556  15.123   8.555
 8191POPC   C2B35132  40.527  15.104   8.255
 8191POPC   C3B35133  40.523  15.132   7.955
 8191POPC   C4B35134  40.531  15.200   7.655
 8192POPC   NC335135   5.875  43.847   9.455
 8192POPC   PO435136   5.851  43.878   9.155
 8192POPC   GL135137   5.845  43.908   8.855
 8192POPC   GL235138   5.732  43.852   8.855
 8192POPC   C1A35139   5.854  43.880   8.555
 8192POPC   D2A35140   5.875  43.852   8.255
 8192POPC   C3A35141   5.889  43.916   7.955
 8192POPC   C4A35142   5.822  43.863   7.655
 8192POPC   C1B35143   5.603  43.938   8.555
 8192POPC   C2B35144   5.664  43.850   8.255
 8192POPC   C3B35145   5.655  43.880   7.955
 8192POPC   C4B35146   5.605  43.877   7.655
 8193POPC   NC335147  21.373   2.793   9.455
 8193POPC   PO435148  21.377   2.759   9.155
 8193POPC   GL135149  21.399   2.725   8.855
 8193POPC   GL235150  21.434   2.667   8.855
 8193POPC   C1A35151  21.405   2.770   8.555
 8193POPC   D2A35152  21.361   2.742   8.255
 8193POPC   C3A35153  21.407   2.740   7.955
 8193POPC   C4A35154  21.409   2.814   7.655
 8193POPC   C1B35155  21.359   2.466   8.555
 8193POPC   C2B35156  21.428   2.493   8.255
 8193POPC   C3B35157  21.437   2.486   7.955
 8193POPC   C4B35158  21.400   2.493   7.655
 8194POPC   NC335159  10.548  12.101   9.455
 8194POPC   PO435160  10.559  12.116   9.155
 8194POPC   GL135161  10.491  12.067   8.855
 8194POPC   GL235162  10.653  12.132   8.855
 8194POPC   C1A35163  10.517  12.047   8.555
 8194POPC   D2A35164  10.541  12.099   8.255
 8194POPC   C3A35165  10.482  12.041   7.955
 8194POPC   C4A35166  10.536  12.106   7.655
 8194POPC   C1B35167  10.715  12.217   8.555
 8194POPC   C2B35168  10.671  12.231   8.255
 8194POPC   C3B35169  10.735  12.226   7.955
 8194POPC   C4B35170  10.697  12.292   7.655
 8195POPC   NC335171  19.823  38.456   9.455
 8195POPC   PO435172  19.871  38.478   9.155
 8195POPC   GL135173  19.881  38.410   8.855
 8195POPC   GL235174  19.813  38.362   8.855
 8195POPC   C1A35175  19.869  38.438   8.555
 8195POPC   D2A35176  19.792  38.447   8.255
 8195POPC   C3A35177  19.827  38.444   7.955
 8195POPC   C4A35178  19.792  38.484   7.655
 8195POPC   C1B35179  19.680  38.196   8.555
 8195POPC   C2B35180  19.687  38.196   8.255
 8195POPC   C3B35181  19.760  38.236   7.955
 8195POPC   C4B35182  19.746  38.223   7.655
 8196POPC   NC335183   8.932  15.167   9.455
 8196POPC   PO435184   9.017  15.181   9.155
 8196POPC   GL135185   8.951  15.164   8.855
 8196POPC   GL235186   9.088  15.129   8.855
 8196POPC   C1A35187   8.952  15.198   8.555
 8196POPC   D2A35188   8.970  15.228   8.255
 8196POPC   C3A35189   8.953  15.167   7.955
 8196POPC   C4A35190   8.979  15.166   7.655
 8196POPC   C1B35191   9.175  15.064   8.555
 8196POPC   C2B35192   9.146  15.022   8.255
 8196POPC   C3B35193   9.225  15.103   7.955
 8196POPC   C4B35194   9.155  15.110   7.655
 8197POPC   NC335195  13.635  21.367   9.455
 8197POPC   PO435196  13.591  21.409   9.155
 8197POPC   GL135197  13.663  21.365   8.855
 8197POPC   GL235198  13.566  21.332   8.855
 8197POPC   C1A35199  13.617  21.354   8.555
 8197POPC   D2A35200  13.666  21.415   8.255
 8197POPC   C3A35201  13.585  21.436   7.955
 8197POPC   C4A35202  13.671  21.359   7.655
 8197POPC   C1B35203  13.419  21.199   8.555
 8197POPC   C2B35204  13.432  21.158   8.255
 8197POPC   C3B35205  13.437  21.237   7.955
 8197POPC   C4B35206  13.426  21.187   7.655
 8198POPC   NC335207   1.251  20.579   9.455
 8198POPC   PO435208   1.229  20.643   9.155
 8198POPC   GL135209   1.199  20.589   8.855
 8198POPC   GL235210   1.307  20.457   8.855
 8198POPC   C1A35211   1.178  20.620   8.555
 8198POPC   D2A35212   1.190  20.623   8.255
 8198POPC   C3A35213   1.200  20.569   7.955
 8198POPC   C4A35214   1.192  20.610   7.655
 8198POPC   C1B35215   1.338  20.446   8.555
 8198POPC   C2B35216   1.330  20.442   8.255
 8198POPC   C3B35217   1.317  20.422   7.955
 8198POPC   C4B35218   1.312  20.354   7.655
 8199POPC   NC335219   8.933  36.880   9.455
 8199POPC   PO435220   8.949  36.920   9.155
 8199POPC   GL135221   8.923  36.928   8.855
 8199POPC   GL235222   9.002  36.980   8.855
 8199POPC   C1A35223   9.021  36.869   8.555
 8199POPC   D2A35224   9.005  36.947   8.255
 8199POPC   C3A35225   8.998  36.890   7.955
 8199POPC   C4A35226   9.013  36.857   7.655
 8199POPC   C1B35227   9.032  37.183   8.555
 8199POPC   C2B35228   8.961  37.139   8.255
 8199POPC   C3B35229   9.008  37.117   7.955
 8199POPC   C4B35230   9.016  37.170   7.655
 8200POPC   NC335231   1.999  29.158   9.455
 8200POPC   PO435232   1.984  29.115   9.155
 8200POPC   GL135233   2.000  29.118   8.855
 8200POPC   GL235234   2.038  29.067   8.855
 8200POPC   C1A35235   1.991  29.121   8.555
 8200POPC   D2A35236   1.984  29.182   8.255
 8200POPC   C3A35237   1.984  29.114   7.955
 8200POPC   C4A35238   1.971  29.189   7.655
 8200POPC   C1B35239   2.052  28.889   8.555
 8200POPC   C2B35240   2.095  28.917   8.255
 8200POPC   C3B35241   2.122  28.955   7.955
 8200POPC   C4B35242   2.044  28.923   7.655
 8201POPC   NC335243  13.648   5.135   9.455
 8201POPC   PO435244  13.666   5.077   9.155
 8201POPC   GL135245  13.658   5.068   8.855
 8201POPC   GL235246  13.608   5.214   8.855
 8201POPC   C1A35247  13.676   5.097   8.555
 8201POPC   D2A35248  13.673   5.077   8.255
 8201POPC   C3A35249  13.626   5.133   7.955
 8201POPC   C4A35250  13.588   5.083   7.655
 8201POPC   C1B35251  13.647   5.304   8.555
 8201POPC   C2B35252  13.601   5.392   8.255
 8201POPC   C3B35253  13.640   5.334   7.955
 8201POPC   C4B35254  13.651   5.296   7.655
 8202POPC   NC335255  40.045  15.169   9.455
 8202POPC   PO435256  39.968  15.159   9.155
 8202POPC   GL135257  40.012  15.133   8.855
 8202POPC   GL235258  40.074  15.243   8.855
 8202POPC   C1A35259  39.988  15.172   8.555
 8202POPC   D2A35260  39.968  15.221   8.255
 8202POPC   C3A35261  39.996  15.193   7.955
 8202POPC   C4A35262  40.056  15.160   7.655
 8202POPC   C1B35263  40.142  15.401   8.555
 8202POPC   C2B35264  40.187  15.353   8.255
 8202POPC   C3B35265  40.159  15.356   7.955
 8202POPC   C4B35266  40.141  15.355   7.655
 8203POPC   NC335267  22.978  41.554   9.455
 8203POPC   PO435268  22.920  41.557   9.155
 8203POPC   GL135269  22.942  41.552   8.855
 8203POPC   GL235270  23.034  41.464   8.855
 8203POPC   C1A35271  22.912  41.581   8.555
 8203POPC   D2A35272  22.928  41.528   8.255
 8203POPC   C3A35273  22.908  41.604   7.955
 8203POPC   C4A35274  22.901  41.512   7.655
 8203POPC   C1B35275  23.210  41.462   8.555
 8203POPC   C2B35276  23.185  41.441   8.255
 8203POPC   C3B35277  23.204  41.492   7.955
 8203POPC   C4B35278  23.144  41.494   7.655
 8204POPC   NC335279  34.555   3.500   9.455
 8204POPC   PO435280  34.617   3.549   9.155
 8204POPC   GL135281  34.606   3.590   8.855
 8204POPC   GL235282  34.603   3.615   8.855
 8204POPC   C1A35283  34.569   3.506   8.555
 8204POPC   D2A35284  34.567   3.585   8.255
 8204POPC   C3A35285  34.546   3.548   7.955
 8204POPC   C4A35286  34.553   3.577   7.655
 8204POPC   C1B35287  34.709   3.761   8.555
 8204POPC   C2B35288  34.672   3.800   8.255
 8204POPC   C3B35289  34.709   3.809   7.955
 8204POPC   C4B35290  34.732   3.716   7.655
 8205POPC   NC335291  32.209  31.481   9.455
 8205POPC   PO435292  32.271  31.517   9.155
 8205POPC   GL135293  32.270  31.466   8.855
 8205POPC   GL235294  32.111  31.529   8.855
 8205POPC   C1A35295  32.220  31.498   8.555
 8205POPC   D2A35296  32.281  31.486   8.255
 8205POPC   C3A35297  32.203  31.512   7.955
 8205POPC   C4A35298  32.216  31.503   7.655
 8205POPC   C1B35299  32.105  31.604   8.555
 8205POPC   C2B35300  32.068  31.692   8.255
 8205POPC   C3B35301  32.113  31.652   7.955
 8205POPC   C4B35302  32.044  31.678   7.655
 8206POPC   NC335303  39.256  40.047   9.455
 8206POPC   PO435304  39.223  40.016   9.155
 8206POPC   GL135305  39.275  39.972   8.855
 8206POPC   GL235306  39.127  40.121   8.855
 8206POPC   C1A35307  39.190  40.023   8.555
 8206POPC   D2A35308  39.264  39.987   8.255
 8206POPC   C3A35309  39.204  40.032   7.955
 8206POPC   C4A35310  39.220  40.053   7.655
 8206POPC   C1B35311  39.076  40.122   8.555
 8206POPC   C2B35312  39.050  40.172   8.255
 8206POPC   C3B35313  39.019  40.184   7.955
 8206POPC   C4B35314  39.062  40.190   7.655
 8207POPC   NC335315  28.360   1.176   9.455
 8207POPC   PO435316  28.330   1.202   9.155
 8207POPC   GL135317  28.395   1.264   8.855
 8207POPC   GL235318  28.477   1.239   8.855
 8207POPC   C1A35319  28.328   1.176   8.555
 8207POPC   D2A35320  28.409   1.253   8.255
 8207POPC   C3A35321  28.343   1.244   7.955
 8207POPC   C4A35322  28.361   1.245   7.655
 8207POPC   C1B35323  28.565   1.275   8.555
 8207POPC   C2B35324  28.644   1.214   8.255
 8207POPC   C3B35325  28.599   1.214   7.955
 8207POPC   C4B35326  28.613   1.268   7.655
 8208POPC   NC335327  43.160  27.608   9.455
 8208POPC   PO435328  43.104  27.630   9.155
 8208POPC   GL135329  43.126  27.616   8.855
 8208POPC   GL235330  42.970  27.565   8.855
 8208POPC   C1A35331  43.087  27.617   8.555
 8208POPC   D2A35332  43.140  27.636   8.255
 8208POPC   C3A35333  43.141  27.581   7.955
 8208POPC   C4A35334  43.150  27.607   7.655
 8208POPC   C1B35335  42.850  27.620   8.555
 8208POPC   C2B35336  42.818  27.600   8.255
 8208POPC   C3B35337  42.855  27.662   7.955
 8208POPC   C4B35338  42.892  27.573   7.655
 8209POPC   NC335339  27.614  15.909   9.455
 8209POPC   PO435340  27.575  16.001   9.155
 8209POPC   GL135341  27.594  16.003   8.855
 8209POPC   GL235342  27.613  16.060   8.855
 8209POPC   C1A35343  27.640  15.999   8.555
 8209POPC   D2A35344  27.594  15.979   8.255
 8209POPC   C3A35345  27.632  15.967   7.955
 8209POPC   C4A35346  27.639  15.960   7.655
 8209POPC   C1B35347  27.692  16.177   8.555
 8209POPC   C2B35348  27.681  16.161   8.255
 8209POPC   C3B35349  27.675  16.158   7.955
 8209POPC   C4B35350  27.718  16.180   7.655
 8210POPC   NC335351   4.337  16.776   9.455
 8210POPC   PO435352   4.308  16.731   9.155
 8210POPC   GL135353   4.285  16.754   8.855
 8210POPC   GL235354   4.226  16.734   8.855
 8210POPC   C1A35355   4.293  16.706   8.555
 8210POPC   D2A35356   4.354  16.768   8.255
 8210POPC   C3A35357   4.289  16.777   7.955
 8210POPC   C4A35358   4.299  16.730   7.655
 8210POPC   C1B35359   4.113  16.832   8.555
 8210POPC   C2B35360   4.038  16.862   8.255
 8210POPC   C3B35361   4.065  16.804   7.955
 8210POPC   C4B35362   4.073  16.869   7.655
 8211POPC   NC335363  17.488   8.994   9.455
 8211POPC   PO435364  17.506   8.980   9.155
 8211POPC   GL135365  17.492   8.984   8.855
 8211POPC   GL235366  17.610   8.936   8.855
 8211POPC   C1A35367  17.507   8.962   8.555
 8211POPC   D2A35368  17.493   8.954   8.255
 8211POPC   C3A35369  17.521   8.940   7.955
 8211POPC   C4A35370  17.494   8.986   7.655
 8211POPC   C1B35371  17.700   8.821   8.555
 8211POPC   C2B35372  17.699   8.831   8.255
 8211POPC   C3B35373  17.682   8.833   7.955
 8211POPC   C4B35374  17.682   8.767   7.655
 8212POPC   NC335375  12.125  18.327   9.455
 8212POPC   PO435376  12.027  18.317   9.155
 8212POPC   GL135377  12.097  18.279   8.855
 8212POPC   GL235378  12.182  18.321   8.855
 8212POPC   C1A35379  12.043  18.318   8.555
 8212POPC   D2A35380  12.123  18.278   8.255
 8212POPC   C3A35381  12.103  18.283   7.955
 8212POPC   C4A35382  12.053  18.237   7.655
 8212POPC   C1B35383  12.295  18.369   8.555
 8212POPC   C2B35384  12.325  18.311   8.255
 8212POPC   C3B35385  12.268  18.389   7.955
 8212POPC   C4B35386  12.339  18.400   7.655
 8213POPC   NC335387  43.117  33.781   9.455
 8213POPC   PO435388  43.150  33.831   9.155
 8213POPC   GL135389  43.070  33.789   8.855
 8213POPC   GL235390  43.065  33.715   8.855
 8213POPC   C1A35391  43.104  33.844   8.555
 8213POPC   D2A35392  43.111  33.820   8.255
 8213POPC   C3A35393  43.076  33.811   7.955
 8213POPC   C4A35394  43.084  33.773   7.655
 8213POPC   C1B35395  43.088  33.540   8.555
 8213POPC   C2B35396  43.099  33.542   8.255
 8213POPC   C3B35397  43.096  33.600   7.955
 8213POPC   C4B35398  43.139  33.599   7.655
 8214POPC   NC335399  15.168   3.516   9.455
 8214POPC   PO435400  15.140   3.495   9.155
 8214POPC   GL135401  15.196   3.510   8.855
 8214POPC   GL235402  15.141   3.617   8.855
 8214POPC   C1A35403  15.145   3.496   8.555
 8214POPC   D2A35404  15.208   3.527   8.255
 8214POPC   C3A35405  15.157   3.581   7.955
 8214POPC   C4A35406  15.218   3.501   7.655
 8214POPC   C1B35407  15.039   3.803   8.555
 8214POPC   C2B35408  15.082   3.741   8.255
 8214POPC   C3B35409  15.085   3.727   7.955
 8214POPC   C4B35410  15.129   3.799   7.655
 8215POPC   NC335411  16.778  35.369   9.455
 8215POPC   PO435412  16.764  35.338   9.155
 8215POPC   GL135413  16.759  35.393   8.855
 8215POPC   GL235414  16.670  35.506   8.855
 8215POPC   C1A35415  16.746  35.330   8.555
 8215POPC   D2A35416  16.734  35.395   8.255
 8215POPC   C3A35417  16.754  35.357   7.955
 8215POPC   C4A35418  16.745  35.315   7.655
 8215POPC   C1B35419  16.684  35.579   8.555
 8215POPC   C2B35420  16.713  35.649   8.255
 8215POPC   C3B35421  16.720  35.565   7.955
 8215POPC   C4B35422  16.748  35.646   7.655
 8216POPC   NC335423  16.720  43.103   9.455
 8216POPC   PO435424  16.701  43.139   9.155
 8216POPC   GL135425  16.713  43.151   8.855
 8216POPC   GL235426  16.717  43.007   8.855
 8216POPC   C1A35427  16.777  43.129   8.555
 8216POPC   D2A35428  16.723  43.131   8.255
 8216POPC   C3A35429  16.734  43.132   7.955
 8216POPC   C4A35430  16.736  43.118   7.655
 8216POPC   C1B35431  16.839  42.873   8.555
 8216POPC   C2B35432  16.829  42.912   8.255
 8216POPC   C3B35433  16.764  42.828   7.955
 8216POPC   C4B35434  16.755  42.899   7.655
 8217POPC   NC335435  12.814  28.379   9.455
 8217POPC   PO435436  12.852  28.414   9.155
 8217POPC   GL135437  12.892  28.347   8.855
 8217POPC   GL235438  12.824  28.220   8.855
 8217POPC   C1A35439  12.869  28.340   8.555
 8217POPC   D2A35440  12.832  28.352   8.255
 8217POPC   C3A35441  12.866  28.322   7.955
 8217POPC   C4A35442  12.837  28.395   7.655
 8217POPC   C1B35443  12.735  28.118   8.555
 8217POPC   C2B35444  12.681  28.163   8.255
 8217POPC   C3B35445  12.742  28.140   7.955
 8217POPC   C4B35446  12.679  28.110   7.655
 8218POPC   NC335447  29.145  16.684   9.455
 8218POPC   PO435448  29.137  16.692   9.155
 8218POPC   GL135449  29.135  16.736   8.855
 8218POPC   GL235450  29.031  16.825   8.855
 8218POPC   C1A35451  29.128  16.711   8.555
 8218POPC   D2A35452  29.158  16.744   8.255
 8218POPC   C3A35453  29.130  16.747   7.955
 8218POPC   C4A35454  29.189  16.738   7.655
 8218POPC   C1B35455  29.055  16.934   8.555
 8218POPC   C2B35456  28.956  16.950   8.255
 8218POPC   C3B35457  28.986  16.973   7.955
 8218POPC   C4B35458  29.000  16.983   7.655
 8219POPC   NC335459  15.193  29.872   9.455
 8219POPC   PO435460  15.177  29.882   9.155
 8219POPC   GL135461  15.215  29.939   8.855
 8219POPC   GL235462  15.033  29.956   8.855
 8219POPC   C1A35463  15.187  29.966   8.555
 8219POPC   D2A35464  15.151  29.926   8.255
 8219POPC   C3A35465  15.208  29.917   7.955
 8219POPC   C4A35466  15.180  29.914   7.655
 8219POPC   C1B35467  14.904  29.920   8.555
 8219POPC   C2B35468  14.888  29.935   8.255
 8219POPC   C3B35469  14.937  29.895   7.955
 8219POPC   C4B35470  14.883  29.907   7.655
 8220POPC   NC335471  18.260  36.117   9.455
 8220POPC   PO435472  18.303  36.107   9.155
 8220POPC   GL135473  18.322  36.106   8.855
 8220POPC   GL235474  18.344  35.964   8.855
 8220POPC   C1A35475  18.266  36.089   8.555
 8220POPC   D2A35476  18.283  36.121   8.255
 8220POPC   C3A35477  18.323  36.139   7.955
 8220POPC   C4A35478  18.266  36.112   7.655
 8220POPC   C1B35479  18.372  35.856   8.555
 8220POPC   C2B35480  18.340  35.941   8.255
 8220POPC   C3B35481  18.383  35.889   7.955
 8220POPC   C4B35482  18.350  35.879   7.655
 8221POPC   NC335483   4.349  10.494   9.455
 8221POPC   PO435484   4.311  10.559   9.155
 8221POPC   GL135485   4.338  10.497   8.855
 8221POPC   GL235486   4.164  10.484   8.855
 8221POPC   C1A35487   4.338  10.527   8.555
 8221POPC   D2A35488   4.357  10.574   8.255
 8221POPC   C3A35489   4.337  10.508   7.955
 8221POPC   C4A35490   4.344  10.475   7.655
 8221POPC   C1B35491   4.083  10.503   8.555
 8221POPC   C2B35492   4.029  10.490   8.255
 8221POPC   C3B35493   4.117  10.421   7.955
 8221POPC   C4B35494   4.049  10.422   7.655
 8222POPC   NC335495  23.730  26.827   9.455
 8222POPC   PO435496  23.688  26.856   9.155
 8222POPC   GL135497  23.670  26.851   8.855
 8222POPC   GL235498  23.584  26.881   8.855
 8222POPC   C1A35499  23.699  26.809   8.555
 8222POPC   D2A35500  23.695  26.835   8.255
 8222POPC   C3A35501  23.760  26.793   7.955
 8222POPC   C4A35502  23.685  26.851   7.655
 8222POPC   C1B35503  23.561  27.015   8.555
 8222POPC   C2B35504  23.557  27.023   8.255
 8222POPC   C3B35505  23.591  26.997   7.955
 8222POPC   C4B35506  23.582  26.959   7.655
 8223POPC   NC335507  29.115  33.044   9.455
 8223POPC   PO435508  29.132  33.038   9.155
 8223POPC   GL135509  29.117  32.981   8.855
 8223POPC   GL235510  29.006  33.026   8.855
 8223POPC   C1A35511  29.144  32.997   8.555
 8223POPC   D2A35512  29.114  33.059   8.255
 8223POPC   C3A35513  29.106  32.975   7.955
 8223POPC   C4A35514  29.145  33.005   7.655
 8223POPC   C1B35515  28.944  32.951   8.555
 8223POPC   C2B35516  28.926  32.924   8.255
 8223POPC   C3B35517  28.935  32.976   7.955
 8223POPC   C4B35518  28.917  32.907   7.655
 8224POPC   NC335519  11.265  22.186   9.455
 8224POPC   PO435520  11.318  22.197   9.155
 8224POPC   GL135521  11.262  22.165   8.855
 8224POPC   GL235522  11.450  22.165   8.855
 8224POPC   C1A35523  11.256  22.136   8.555
 8224POPC   D2A35524  11.251  22.202   8.255
 8224POPC   C3A35525  11.324  22.206   7.955
 8224POPC   C4A35526  11.327  22.188   7.655
 8224POPC   C1B35527  11.536  22.063   8.555
 8224POPC   C2B35528  11.510  22.104   8.255
 8224POPC   C3B35529  11.566  22.099   7.955
 8224POPC   C4B35530  11.542  22.070   7.655
 8225POPC   NC335531  11.258  34.535   9.455
 8225POPC   PO435532  11.271  34.560   9.155
 8225POPC   GL135533  11.292  34.600   8.855
 8225POPC   GL235534  11.424  34.564   8.855
 8225POPC   C1A35535  11.347  34.538   8.555
 8225POPC   D2A35536  11.292  34.588   8.255
 8225POPC   C3A35537  11.301  34.588   7.955
 8225POPC   C4A35538  11.323  34.604   7.655
 8225POPC   C1B35539  11.500  34.520   8.555
 8225POPC   C2B35540  11.537  34.528   8.255
 8225POPC   C3B35541  11.501  34.503   7.955
 8225POPC   C4B35542  11.551  34.517   7.655
 8226POPC   NC335543  22.164  32.243   9.455
 8226POPC   PO435544  22.163  32.252   9.155
 8226POPC   GL135545  22.199  32.277   8.855
 8226POPC   GL235546  22.233  32.173   8.855
 8226POPC   C1A35547  22.202  32.278   8.555
 8226POPC   D2A35548  22.192  32.241   8.255
 8226POPC   C3A35549  22.186  32.220   7.955
 8226POPC   C4A35550  22.180  32.289   7.655
 8226POPC   C1B35551  22.344  32.110   8.555
 8226POPC   C2B35552  22.324  32.109   8.255
 8226POPC   C3B35553  22.376  32.113   7.955
 8226POPC   C4B35554  22.340  32.056   7.655
 8227POPC   NC335555  32.228  33.063   9.455
 8227POPC   PO435556  32.220  33.054   9.155
 8227POPC   GL135557  32.237  32.992   8.855
 8227POPC   GL235558  32.303  32.894   8.855
 8227POPC   C1A35559  32.263  33.015   8.555
 8227POPC   D2A35560  32.219  33.000   8.255
 8227POPC   C3A35561  32.224  33.008   7.955
 8227POPC   C4A35562  32.253  33.025   7.655
 8227POPC   C1B35563  32.400  32.826   8.555
 8227POPC   C2B35564  32.353  32.805   8.255
 8227POPC   C3B35565  32.394  32.869   7.955
 8227POPC   C4B35566  32.382  32.843   7.655
 8228POPC   NC335567   2.804  33.753   9.455
 8228POPC   PO435568   2.716  33.820   9.155
 8228POPC   GL135569   2.789  33.808   8.855
 8228POPC   GL235570   2.748  33.644   8.855
 8228POPC   C1A35571   2.805  33.844   8.555
 8228POPC   D2A35572   2.798  33.791   8.255
 8228POPC   C3A35573   2.813  33.797   7.955
 8228POPC   C4A35574   2.793  33.799   7.655
 8228POPC   C1B35575   2.743  33.553   8.555
 8228POPC   C2B35576   2.720  33.518   8.255
 8228POPC   C3B35577   2.686  33.516   7.955
 8228POPC   C4B35578   2.764  33.586   7.655
 8229POPC   NC335579   1.943  23.718   9.455
 8229POPC   PO435580   1.991  23.725   9.155
 8229POPC   GL135581   2.034  23.690   8.855
 8229POPC   GL235582   2.137  23.730   8.855
 8229POPC   C1A35583   2.030  23.665   8.555
 8229POPC   D2A35584   1.982  23.727   8.255
 8229POPC   C3A35585   1.955  23.664   7.955
 8229POPC   C4A35586   2.031  23.735   7.655
 8229POPC   C1B35587   2.215  23.839   8.555
 8229POPC   C2B35588   2.186  23.781   8.255
 8229POPC   C3B35589   2.266  23.796   7.955
 8229POPC   C4B35590   2.195  23.846   7.655
 8230POPC   NC335591  33.839  21.431   9.455
 8230POPC   PO435592  33.763  21.395   9.155
 8230POPC   GL135593  33.762  21.411   8.855
 8230POPC   GL235594  33.783  21.276   8.855
 8230POPC   C1A35595  33.804  21.345   8.555
 8230POPC   D2A35596  33.810  21.403   8.255
 8230POPC   C3A35597  33.758  21.338   7.955
 8230POPC   C4A35598  33.838  21.376   7.655
 8230POPC   C1B35599  33.719  21.135   8.555
 8230POPC   C2B35600  33.741  21.123   8.255
 8230POPC   C3B35601  33.674  21.184   7.955
 8230POPC   C4B35602  33.719  21.161   7.655
 8231POPC   NC335603  43.088  31.508   9.455
 8231POPC   PO435604  43.120  31.431   9.155
 8231POPC   GL135605  43.066  31.467   8.855
 8231POPC   GL235606  42.994  31.505   8.855
 8231POPC   C1A35607  43.130  31.504   8.555
 8231POPC   D2A35608  43.102  31.435   8.255
 8231POPC   C3A35609  43.132  31.522   7.955
 8231POPC   C4A35610  43.081  31.518   7.655
 8231POPC   C1B35611  42.938  31.624   8.555
 8231POPC   C2B35612  42.890  31.583   8.255
 8231POPC   C3B35613  42.957  31.630   7.955
 8231POPC   C4B35614  42.956  31.656   7.655
 8232POPC   NC335615  25.288  13.621   9.455
 8232POPC   PO435616  25.303  13.595   9.155
 8232POPC   GL135617  25.266  13.602   8.855
 8232POPC   GL235618  25.366  13.780   8.855
 8232POPC   C1A35619  25.280  13.651   8.555
 8232POPC   D2A35620  25.271  13.606   8.255
 8232POPC   C3A35621  25.276  13.588   7.955
 8232POPC   C4A35622  25.217  13.642   7.655
 8232POPC   C1B35623  25.380  13.868   8.555
 8232POPC   C2B35624  25.418  13.824   8.255
 8232POPC   C3B35625  25.431  13.853   7.955
 8232POPC   C4B35626  25.447  13.858   7.655
 8233POPC   NC335627  33.038  36.142   9.455
 8233POPC   PO435628  33.013  36.140   9.155
 8233POPC   GL135629  33.003  36.081   8.855
 8233POPC   GL235630  32.883  36.131   8.855
 8233POPC   C1A35631  33.053  36.152   8.555
 8233POPC   D2A35632  33.068  36.141   8.255
 8233POPC   C3A35633  32.980  36.137   7.955
 8233POPC   C4A35634  33.053  36.167   7.655
 8233POPC   C1B35635  32.823  36.061   8.555
 8233POPC   C2B35636  32.739  36.073   8.255
 8233POPC   C3B35637  32.757  36.135   7.955
 8233POPC   C4B35638  32.743  36.117   7.655
 8234POPC   NC335639  13.656  37.659   9.455
 8234POPC   PO435640  13.589  37.654   9.155
 8234POPC   GL135641  13.635  37.647   8.855
 8234POPC   GL235642  13.735  37.755   8.855
 8234POPC   C1A35643  13.631  37.677   8.555
 8234POPC   D2A35644  13.644  37.708   8.255
 8234POPC   C3A35645  13.590  37.649   7.955
 8234POPC   C4A35646  13.632  37.709   7.655
 8234POPC   C1B35647  13.867  37.805   8.555
 8234POPC   C2B35648  13.833  37.764   8.255
 8234POPC   C3B35649  13.886  37.801   7.955
 8234POPC   C4B35650  13.884  37.786   7.655
 8235POPC   NC335651  33.031  18.300   9.455
 8235POPC   PO435652  33.047  18.303   9.155
 8235POPC   GL135653  33.044  18.251   8.855
 8235POPC   GL235654  32.926  18.225   8.855
 8235POPC   C1A35655  33.071  18.233   8.555
 8235POPC   D2A35656  33.016  18.321   8.255
 8235POPC   C3A35657  33.063  18.302   7.955
 8235POPC   C4A35658  33.019  18.301   7.655
 8235POPC   C1B35659  32.766  18.150   8.555
 8235POPC   C2B35660  32.815  18.188   8.255
 8235POPC   C3B35661  32.838  18.155   7.955
 8235POPC   C4B35662  32.799  18.202   7.655
 8236POPC   NC335663  13.667   5.847   9.455
 8236POPC   PO435664  13.591   5.873   9.155
 8236POPC   GL135665  13.664   5.832   8.855
 8236POPC   GL235666  13.776   5.898   8.855
 8236POPC   C1A35667  13.615   5.918   8.555
 8236POPC   D2A35668  13.604   5.913   8.255
 8236POPC   C3A35669  13.655   5.847   7.955
 8236POPC   C4A35670  13.668   5.826   7.655
 8236POPC   C1B35671  13.834   5.897   8.555
 8236POPC   C2B35672  13.892   5.871   8.255
 8236POPC   C3B35673  13.854   5.852   7.955
 8236POPC   C4B35674  13.897   5.857   7.655
 8237POPC   NC335675  43.069  30.727   9.455
 8237POPC   PO435676  43.124  30.722   9.155
 8237POPC   GL135677  43.073  30.648   8.855
 8237POPC   GL235678  43.040  30.632   8.855
 8237POPC   C1A35679  43.134  30.685   8.555
 8237POPC   D2A35680  43.138  30.705   8.255
 8237POPC   C3A35681  43.070  30.682   7.955
 8237POPC   C4A35682  43.067  30.668   7.655
 8237POPC   C1B35683  42.874  30.575   8.555
 8237POPC   C2B35684  42.920  30.587   8.255
 8237POPC   C3B35685  42.881  30.609   7.955
 8237POPC   C4B35686  42.909  30.598   7.655
 8238POPC   NC335687  40.780  29.938   9.455
 8238POPC   PO435688  40.745  29.943   9.155
 8238POPC   GL135689  40.770  29.935   8.855
 8238POPC   GL235690  40.880  29.954   8.855
 8238POPC   C1A35691  40.765  29.922   8.555
 8238POPC   D2A35692  40.751  29.883   8.255
 8238POPC   C3A35693  40.783  29.921   7.955
 8238POPC   C4A35694  40.789  29.900   7.655
 8238POPC   C1B35695  41.006  29.915   8.555
 8238POPC   C2B35696  41.004  29.895   8.255
 8238POPC   C3B35697  41.033  29.928   7.955
 8238POPC   C4B35698  41.020  29.927   7.655
 8239POPC   NC335699   0.442  15.200   9.455
 8239POPC   PO435700   0.405  15.215   9.155
 8239POPC   GL135701   0.460  15.142   8.855
 8239POPC   GL235702   0.331  15.220   8.855
 8239POPC   C1A35703   0.409  15.212   8.555
 8239POPC   D2A35704   0.417  15.137   8.255
 8239POPC   C3A35705   0.486  15.156   7.955
 8239POPC   C4A35706   0.430  15.226   7.655
 8239POPC   C1B35707   0.255  15.351   8.555
 8239POPC   C2B35708   0.288  15.363   8.255
 8239POPC   C3B35709   0.265  15.367   7.955
 8239POPC   C4B35710   0.249  15.336   7.655
 8240POPC   NC335711  41.533  37.727   9.455
 8240POPC   PO435712  41.570  37.714   9.155
 8240POPC   GL135713  41.515  37.673   8.855
 8240POPC   GL235714  41.654  37.694   8.855
 8240POPC   C1A35715  41.541  37.640   8.555
 8240POPC   D2A35716  41.541  37.725   8.255
 8240POPC   C3A35717  41.548  37.669   7.955
 8240POPC   C4A35718  41.509  37.648   7.655
 8240POPC   C1B35719  41.799  37.711   8.555
 8240POPC   C2B35720  41.834  37.659   8.255
 8240POPC   C3B35721  41.840  37.750   7.955
 8240POPC   C4B35722  41.819  37.722   7.655
 8241POPC   NC335723   2.800  26.030   9.455
 8241POPC   PO435724   2.805  25.995   9.155
 8241POPC   GL135725   2.795  26.076   8.855
 8241POPC   GL235726   2.699  25.972   8.855
 8241POPC   C1A35727   2.755  26.028   8.555
 8241POPC   D2A35728   2.801  26.088   8.255
 8241POPC   C3A35729   2.815  26.048   7.955
 8241POPC   C4A35730   2.805  26.071   7.655
 8241POPC   C1B35731   2.665  25.805   8.555
 8241POPC   C2B35732   2.645  25.856   8.255
 8241POPC   C3B35733   2.696  25.771   7.955
 8241POPC   C4B35734   2.659  25.765   7.655
 8242POPC   NC335735  19.855  17.553   9.455
 8242POPC   PO435736  19.877  17.535   9.155
 8242POPC   GL135737  19.850  17.460   8.855
 8242POPC   GL235738  19.838  17.657   8.855
 8242POPC   C1A35739  19.857  17.517   8.555
 8242POPC   D2A35740  19.830  17.553   8.255
 8242POPC   C3A35741  19.794  17.488   7.955
 8242POPC   C4A35742  19.789  17.552   7.655
 8242POPC   C1B35743  19.787  17.792   8.555
 8242POPC   C2B35744  19.720  17.699   8.255
 8242POPC   C3B35745  19.742  17.753   7.955
 8242POPC   C4B35746  19.766  17.722   7.655
 8243POPC   NC335747  12.883   1.235   9.455
 8243POPC   PO435748  12.860   1.195   9.155
 8243POPC   GL135749  12.837   1.236   8.855
 8243POPC   GL235750  12.796   1.350   8.855
 8243POPC   C1A35751  12.810   1.208   8.555
 8243POPC   D2A35752  12.808   1.185   8.255
 8243POPC   C3A35753  12.825   1.176   7.955
 8243POPC   C4A35754  12.811   1.207   7.655
 8243POPC   C1B35755  12.740   1.385   8.555
 8243POPC   C2B35756  12.742   1.424   8.255
 8243POPC   C3B35757  12.649   1.440   7.955
 8243POPC   C4B35758  12.703   1.424   7.655
 8244POPC   NC335759  41.549  11.267   9.455
 8244POPC   PO435760  41.567  11.282   9.155
 8244POPC   GL135761  41.566  11.304   8.855
 8244POPC   GL235762  41.479  11.295   8.855
 8244POPC   C1A35763  41.541  11.276   8.555
 8244POPC   D2A35764  41.520  11.281   8.255
 8244POPC   C3A35765  41.591  11.343   7.955
 8244POPC   C4A35766  41.596  11.294   7.655
 8244POPC   C1B35767  41.308  11.311   8.555
 8244POPC   C2B35768  41.336  11.349   8.255
 8244POPC   C3B35769  41.268  11.321   7.955
 8244POPC   C4B35770  41.320  11.366   7.655
 8245POPC   NC335771  13.580   1.981   9.455
 8245POPC   PO435772  13.665   1.979   9.155
 8245POPC   GL135773  13.639   2.005   8.855
 8245POPC   GL235774  13.671   1.911   8.855
 8245POPC   C1A35775  13.610   1.941   8.555
 8245POPC   D2A35776  13.639   2.002   8.255
 8245POPC   C3A35777  13.677   2.014   7.955
 8245POPC   C4A35778  13.600   1.958   7.655
 8245POPC   C1B35779  13.664   1.792   8.555
 8245POPC   C2B35780  13.647   1.716   8.255
 8245POPC   C3B35781  13.684   1.761   7.955
 8245POPC   C4B35782  13.698   1.758   7.655
 8246POPC   NC335783  30.683  16.762   9.455
 8246POPC   PO435784  30.657  16.741   9.155
 8246POPC   GL135785  30.675  16.721   8.855
 8246POPC   GL235786  30.608  16.672   8.855
 8246POPC   C1A35787  30.700  16.746   8.555
 8246POPC   D2A35788  30.710  16.682   8.255
 8246POPC   C3A35789  30.673  16.739   7.955
 8246POPC   C4A35790  30.671  16.775   7.655
 8246POPC   C1B35791  30.412  16.621   8.555
 8246POPC   C2B35792  30.455  16.662   8.255
 8246POPC   C3B35793  30.499  16.682   7.955
 8246POPC   C4B35794  30.491  16.654   7.655
 8247POPC   NC335795  15.143  43.925   9.455
 8247POPC   PO435796  15.182  43.924   9.155
 8247POPC   GL135797  15.208  43.906   8.855
 8247POPC   GL235798  15.071  43.933   8.855
 8247POPC   C1A35799  15.178  43.886   8.555
 8247POPC   D2A35800  15.132  43.912   8.255
 8247POPC   C3A35801  15.133  43.888   7.955
 8247POPC   C4A35802  15.207  43.931   7.655
 8247POPC   C1B35803  14.962  43.993   8.555
 8247POPC   C2B35804  14.934  43.992   8.255
 8247POPC   C3B35805  14.942  43.953   7.955
 8247POPC   C4B35806  14.921  43.901   7.655
 8248POPC   NC335807  13.599  44.707   9.455
 8248POPC   PO435808  13.590  44.621   9.155
 8248POPC   GL135809  13.647  44.674   8.855
 8248POPC   GL235810  13.762  44.703   8.855
 8248POPC   C1A35811  13.593  44.677   8.555
 8248POPC   D2A35812  13.672  44.695   8.255
 8248POPC   C3A35813  13.648  44.689   7.955
 8248POPC   C4A35814  13.620  44.691   7.655
 8248POPC   C1B35815  13.909  44.710   8.555
 8248POPC   C2B35816  13.838  44.696   8.255
 8248POPC   C3B35817  13.868  44.647   7.955
 8248POPC   C4B35818  13.868  44.702   7.655
 8249POPC   NC335819  19.868  36.888   9.455
 8249POPC   PO435820  19.786  36.942   9.155
 8249POPC   GL135821  19.881  36.874   8.855
 8249POPC   GL235822  19.705  36.938   8.855
 8249POPC   C1A35823  19.848  36.863   8.555
 8249POPC   D2A35824  19.828  36.919   8.255
 8249POPC   C3A35825  19.801  36.930   7.955
 8249POPC   C4A35826  19.826  36.861   7.655
 8249POPC   C1B35827  19.554  36.955   8.555
 8249POPC   C2B35828  19.560  37.013   8.255
 8249POPC   C3B35829  19.604  36.922   7.955
 8249POPC   C4B35830  19.568  36.979   7.655
 8250POPC   NC335831   9.019   8.243   9.455
 8250POPC   PO435832   8.944   8.234   9.155
 8250POPC   GL135833   8.980   8.157   8.855
 8250POPC   GL235834   8.940   8.323   8.855
 8250POPC   C1A35835   8.983   8.202   8.555
 8250POPC   D2A35836   8.965   8.190   8.255
 8250POPC   C3A35837   9.020   8.219   7.955
 8250POPC   C4A35838   8.981   8.153   7.655
 8250POPC   C1B35839   9.002   8.404   8.555
 8250POPC   C2B35840   8.962   8.448   8.255
 8250POPC   C3B35841   8.987   8.406   7.955
 8250POPC   C4B35842   8.963   8.450   7.655
 8251POPC   NC335843   6.604  39.224   9.455
 8251POPC   PO435844   6.633  39.205   9.155
 8251POPC   GL135845   6.666  39.194   8.855
 8251POPC   GL235846   6.721  39.359   8.855
 8251POPC   C1A35847   6.695  39.197   8.555
 8251POPC   D2A35848   6.688  39.259   8.255
 8251POPC   C3A35849   6.652  39.238   7.955
 8251POPC   C4A35850   6.638  39.212   7.655
 8251POPC   C1B35851   6.772  39.445   8.555
 8251POPC   C2B35852   6.769  39.499   8.255
 8251POPC   C3B35853   6.780  39.473   7.955
 8251POPC   C4B35854   6.719  39.475   7.655
 8252POPC   NC335855   8.978  14.374   9.455
 8252POPC   PO435856   8.977  14.394   9.155
 8252POPC   GL135857   8.939  14.401   8.855
 8252POPC   GL235858   9.074  14.329   8.855
 8252POPC   C1A35859   9.017  14.360   8.555
 8252POPC   D2A35860   8.941  14.450   8.255
 8252POPC   C3A35861   8.946  14.445   7.955
 8252POPC   C4A35862   8.998  14.364   7.655
 8252POPC   C1B35863   9.197  14.284   8.555
 8252POPC   C2B35864   9.211  14.298   8.255
 8252POPC   C3B35865   9.176  14.290   7.955
 8252POPC   C4B35866   9.166  14.276   7.655
 8253POPC   NC335867  31.442  27.587   9.455
 8253POPC   PO435868  31.454  27.614   9.155
 8253POPC   GL135869  31.450  27.557   8.855
 8253POPC   GL235870  31.599  27.541   8.855
 8253POPC   C1A35871  31.491  27.589   8.555
 8253POPC   D2A35872  31.464  27.571   8.255
 8253POPC   C3A35873  31.440  27.642   7.955
 8253POPC   C4A35874  31.509  27.640   7.655
 8253POPC   C1B35875  31.658  27.439   8.555
 8253POPC   C2B35876  31.605  27.433   8.255
 8253POPC   C3B35877  31.615  27.394   7.955
 8253POPC   C4B35878  31.691  27.419   7.655
 8254POPC   NC335879  22.165  22.202   9.455
 8254POPC   PO435880  22.211  22.176   9.155
 8254POPC   GL135881  22.191  22.128   8.855
 8254POPC   GL235882  22.140  21.997   8.855
 8254POPC   C1A35883  22.210  22.131   8.555
 8254POPC   D2A35884  22.159  22.127   8.255
 8254POPC   C3A35885  22.159  22.112   7.955
 8254POPC   C4A35886  22.165  22.168   7.655
 8254POPC   C1B35887  22.035  21.928   8.555
 8254POPC   C2B35888  22.060  21.934   8.255
 8254POPC   C3B35889  22.041  21.905   7.955
 8254POPC   C4B35890  22.094  21.917   7.655
 8255POPC   NC335891  43.840  35.302   9.455
 8255POPC   PO435892  43.888  35.357   9.155
 8255POPC   GL135893  43.892  35.307   8.855
 8255POPC   GL235894  43.868  35.491   8.855
 8255POPC   C1A35895  43.850  35.315   8.555
 8255POPC   D2A35896  43.847  35.309   8.255
 8255POPC   C3A35897  43.857  35.365   7.955
 8255POPC   C4A35898  43.936  35.302   7.655
 8255POPC   C1B35899  43.945  35.617   8.555
 8255POPC   C2B35900  43.995  35.603   8.255
 8255POPC   C3B35901  43.994  35.597   7.955
 8255POPC   C4B35902  43.950  35.545   7.655
 8256POPC   NC335903  40.003  11.309   9.455
 8256POPC   PO435904  40.042  11.262   9.155
 8256POPC   GL135905  40.011  11.261   8.855
 8256POPC   GL235906  39.895  11.246   8.855
 8256POPC   C1A35907  40.041  11.290   8.555
 8256POPC   D2A35908  40.048  11.289   8.255
 8256POPC   C3A35909  39.979  11.295   7.955
 8256POPC   C4A35910  40.026  11.259   7.655
 8256POPC   C1B35911  39.794  11.315   8.555
 8256POPC   C2B35912  39.761  11.281   8.255
 8256POPC   C3B35913  39.722  11.256   7.955
 8256POPC   C4B35914  39.799  11.276   7.655
 8257POPC   NC335915  22.202   5.090   9.455
 8257POPC   PO435916  22.134   5.061   9.155
 8257POPC   GL135917  22.197   5.090   8.855
 8257POPC   GL235918  22.003   5.130   8.855
 8257POPC   C1A35919  22.124   5.085   8.555
 8257POPC   D2A35920  22.124   5.121   8.255
 8257POPC   C3A35921  22.143   5.106   7.955
 8257POPC   C4A35922  22.114   5.101   7.655
 8257POPC   C1B35923  21.928   5.138   8.555
 8257POPC   C2B35924  21.947   5.190   8.255
 8257POPC   C3B35925  21.928   5.119   7.955
 8257POPC   C4B35926  21.882   5.194   7.655
 8258POPC   NC335927  10.503  36.948   9.455
 8258POPC   PO435928  10.485  36.945   9.155
 8258POPC   GL135929  10.491  36.877   8.855
 8258POPC   GL235930  10.597  37.045   8.855
 8258POPC   C1A35931  10.564  36.874   8.555
 8258POPC   D2A35932  10.550  36.913   8.255
 8258POPC   C3A35933  10.515  36.867   7.955
 8258POPC   C4A35934  10.552  36.902   7.655
 8258POPC   C1B35935  10.616  37.121   8.555
 8258POPC   C2B35936  10.682  37.128   8.255
 8258POPC   C3B35937  10.670  37.155   7.955
 8258POPC   C4B35938  10.584  37.138   7.655
 8259POPC   NC335939  43.153   3.505   9.455
 8259POPC   PO435940  43.100   3.590   9.155
 8259POPC   GL135941  43.131   3.549   8.855
 8259POPC   GL235942  43.124   3.450   8.855
 8259POPC   C1A35943  43.130   3.555   8.555
 8259POPC   D2A35944  43.114   3.535   8.255
 8259POPC   C3A35945  43.124   3.571   7.955
 8259POPC   C4A35946  43.124   3.588   7.655
 8259POPC   C1B35947  43.181   3.310   8.555
 8259POPC   C2B35948  43.221   3.279   8.255
 8259POPC   C3B35949  43.238   3.279   7.955
 8259POPC   C4B35950  43.159   3.335   7.655
 8260POPC   NC335951  24.529  43.892   9.455
 8260POPC   PO435952  24.519  43.871   9.155
 8260POPC   GL135953  24.535  43.899   8.855
 8260POPC   GL235954  24.550  43.788   8.855
 8260POPC   C1A35955  24.480  43.915   8.555
 8260POPC   D2A35956  24.499  43.911   8.255
 8260POPC   C3A35957  24.461  43.936   7.955
 8260POPC   C4A35958  24.479  43.904   7.655
 8260POPC   C1B35959  24.675  43.696   8.555
 8260POPC   C2B35960  24.615  43.659   8.255
 8260POPC   C3B35961  24.602  43.694   7.955
 8260POPC   C4B35962  24.602  43.653   7.655
 8261POPC   NC335963  29.144  12.803   9.455
 8261POPC   PO435964  29.138  12.889   9.155
 8261POPC   GL135965  29.096  12.836   8.855
 8261POPC   GL235966  29.038  12.902   8.855
 8261POPC   C1A35967  29.156  12.836   8.555
 8261POPC   D2A35968  29.149  12.820   8.255
 8261POPC   C3A35969  29.101  12.890   7.955
 8261POPC   C4A35970  29.152  12.858   7.655
 8261POPC   C1B35971  28.857  12.878   8.555
 8261POPC   C2B35972  28.901  12.891   8.255
 8261POPC   C3B35973  28.905  12.872   7.955
 8261POPC   C4B35974  28.907  12.938   7.655
 8262POPC   NC335975   7.378  36.870   9.455
 8262POPC   PO435976   7.434  36.948   9.155
 8262POPC   GL135977   7.399  36.890   8.855
 8262POPC   GL235978   7.404  36.805   8.855
 8262POPC   C1A35979   7.430  36.876   8.555
 8262POPC   D2A35980   7.379  36.859   8.255
 8262POPC   C3A35981   7.383  36.895   7.955
 8262POPC   C4A35982   7.443  36.925   7.655
 8262POPC   C1B35983   7.335  36.677   8.555
 8262POPC   C2B35984   7.351  36.696   8.255
 8262POPC   C3B35985   7.354  36.700   7.955
 8262POPC   C4B35986   7.291  36.676   7.655
 8263POPC   NC335987  16.778  40.757   9.455
 8263POPC   PO435988  16.693  40.786   9.155
 8263POPC   GL135989  16.749  40.809   8.855
 8263POPC   GL235990  16.815  40.929   8.855
 8263POPC   C1A35991  16.747  40.785   8.555
 8263POPC   D2A35992  16.723  40.803   8.255
 8263POPC   C3A35993  16.700  40.825   7.955
 8263POPC   C4A35994  16.731  40.736   7.655
 8263POPC   C1B35995  16.856  41.012   8.555
 8263POPC   C2B35996  16.889  40.991   8.255
 8263POPC   C3B35997  16.863  40.999   7.955
 8263POPC   C4B35998  16.869  40.942   7.655
 8264POPC   NC335999  40.764  11.345   9.455
 8264POPC   PO436000  40.820  11.292   9.155
 8264POPC   GL136001  40.740  11.290   8.855
 8264POPC   GL236002  40.860  11.457   8.855
 8264POPC   C1A36003  40.748  11.319   8.555
 8264POPC   D2A36004  40.824  11.322   8.255
 8264POPC   C3A36005  40.793  11.332   7.955
 8264POPC   C4A36006  40.802  11.292   7.655
 8264POPC   C1B36007  40.880  11.547   8.555
 8264POPC   C2B36008  40.836  11.521   8.255
 8264POPC   C3B36009  40.808  11.521   7.955
 8264POPC   C4B36010  40.886  11.493   7.655
 8265POPC   NC336011  24.529  44.621   9.455
 8265POPC   PO436012  24.464  44.709   9.155
 8265POPC   GL136013  24.518  44.676   8.855
 8265POPC   GL236014  24.388  44.699   8.855
 8265POPC   C1A36015  24.465  44.651   8.555
 8265POPC   D2A36016  24.510  44.683   8.255
 8265POPC   C3A36017  24.496  44.684   7.955
 8265POPC   C4A36018  24.475  44.697   7.655
 8265POPC   C1B36019  24.268  44.841   8.555
 8265POPC   C2B36020  24.338  44.805   8.255
 8265POPC   C3B36021  24.282  44.829   7.955
 8265POPC   C4B36022  24.300  44.796   7.655
 8266POPC   NC336023  41.559   7.425   9.455
 8266POPC   PO436024  41.521   7.446   9.155
 8266POPC   GL136025  41.582   7.384   8.855
 8266POPC   GL236026  41.649   7.334   8.855
 8266POPC   C1A36027  41.566   7.441   8.555
 8266POPC   D2A36028  41.519   7.420   8.255
 8266POPC   C3A36029  41.572   7.434   7.955
 8266POPC   C4A36030  41.528   7.377   7.655
 8266POPC   C1B36031  41.652   7.190   8.555
 8266POPC   C2B36032  41.678   7.201   8.255
 8266POPC   C3B36033  41.706   7.144   7.955
 8266POPC   C4B36034  41.695   7.232   7.655
 8267POPC   NC336035  37.720  22.917   9.455
 8267POPC   PO436036  37.690  22.890   9.155
 8267POPC   GL136037  37.670  22.948   8.855
 8267POPC   GL236038  37.827  22.958   8.855
 8267POPC   C1A36039  37.646  22.919   8.555
 8267POPC   D2A36040  37.664  22.910   8.255
 8267POPC   C3A36041  37.662  22.920   7.955
 8267POPC   C4A36042  37.681  22.899   7.655
 8267POPC   C1B36043  37.881  23.018   8.555
 8267POPC   C2B36044  37.917  22.977   8.255
 8267POPC   C3B36045  37.892  22.980   7.955
 8267POPC   C4B36046  37.909  23.037   7.655
 8268POPC   NC336047  20.562  25.224   9.455
 8268POPC   PO436048  20.583  25.296   9.155
 8268POPC   GL136049  20.583  25.298   8.855
 8268POPC   GL236050  20.674  25.353   8.855
 8268POPC   C1A36051  20.584  25.314   8.555
 8268POPC   D2A36052  20.610  25.268   8.255
 8268POPC   C3A36053  20.570  25.271   7.955
 8268POPC   C4A36054  20.568  25.240   7.655
 8268POPC   C1B36055  20.855  25.422   8.555
 8268POPC   C2B36056  20.815  25.383   8.255
 8268POPC   C3B36057  20.791  25.392   7.955
 8268POPC   C4B36058  20.831  25.390   7.655
 8269POPC   NC336059   5.826   5.130   9.455
 8269POPC   PO436060   5.831   5.129   9.155
 8269POPC   GL136061   5.838   5.102   8.855
 8269POPC   GL236062   5.946   5.058   8.855
 8269POPC   C1A36063   5.849   5.053   8.555
 8269POPC   D2A36064   5.826   5.087   8.255
 8269POPC   C3A36065   5.850   5.064   7.955
 8269POPC   C4A36066   5.850   5.058   7.655
 8269POPC   C1B36067   6.160   5.090   8.555
 8269POPC   C2B36068   6.117   5.044   8.255
 8269POPC   C3B36069   6.077   5.111   7.955
 8269POPC   C4B36070   6.080   5.036   7.655
 8270POPC   NC336071  20.628  40.767   9.455
 8270POPC   PO436072  20.652  40.733   9.155
 8270POPC   GL136073  20.636  40.791   8.855
 8270POPC   GL236074  20.622  40.649   8.855
 8270POPC   C1A36075  20.608  40.738   8.555
 8270POPC   D2A36076  20.596  40.808   8.255
 8270POPC   C3A36077  20.659  40.832   7.955
 8270POPC   C4A36078  20.620  40.749   7.655
 8270POPC   C1B36079  20.634  40.546   8.555
 8270POPC   C2B36080  20.635  40.558   8.255
 8270POPC   C3B36081  20.629  40.548   7.955
 8270POPC   C4B36082  20.644  40.487   7.655
 8271POPC   NC336083  24.517  34.623   9.455
 8271POPC   PO436084  24.510  34.574   9.155
 8271POPC   GL136085  24.532  34.557   8.855
 8271POPC   GL236086  24.578  34.690   8.855
 8271POPC   C1A36087  24.469  34.617   8.555
 8271POPC   D2A36088  24.455  34.577   8.255
 8271POPC   C3A36089  24.497  34.537   7.955
 8271POPC   C4A36090  24.484  34.624   7.655
 8271POPC   C1B36091  24.615  34.824   8.555
 8271POPC   C2B36092  24.633  34.794   8.255
 8271POPC   C3B36093  24.631  34.756   7.955
 8271POPC   C4B36094  24.637  34.731   7.655
 8272POPC   NC336095  26.793  22.125   9.455
 8272POPC   PO436096  26.810  22.205   9.155
 8272POPC   GL136097  26.776  22.137   8.855
 8272POPC   GL236098  26.695  22.080   8.855
 8272POPC   C1A36099  26.789  22.151   8.555
 8272POPC   D2A36100  26.803  22.136   8.255
 8272POPC   C3A36101  26.785  22.171   7.955
 8272POPC   C4A36102  26.798  22.125   7.655
 8272POPC   C1B36103  26.651  22.016   8.555
 8272POPC   C2B36104  26.565  22.038   8.255
 8272POPC   C3B36105  26.651  22.013   7.955
 8272POPC   C4B36106  26.586  21.990   7.655
 8273POPC   NC336107  41.557  41.530   9.455
 8273POPC   PO436108  41.555  41.548   9.155
 8273POPC   GL136109  41.545  41.573   8.855
 8273POPC   GL236110  41.688  41.552   8.855
 8273POPC   C1A36111  41.586  41.586   8.555
 8273POPC   D2A36112  41.606  41.534   8.255
 8273POPC   C3A36113  41.566  41.539   7.955
 8273POPC   C4A36114  41.578  41.560   7.655
 8273POPC   C1B36115  41.824  41.522   8.555
 8273POPC   C2B36116  41.760  41.606   8.255
 8273POPC   C3B36117  41.845  41.542   7.955
 8273POPC   C4B36118  41.790  41.608   7.655
 8274POPC   NC336119  12.073  12.862   9.455
 8274POPC   PO436120  12.026  12.877   9.155
 8274POPC   GL136121  12.095  12.811   8.855
 8274POPC   GL236122  12.171  12.965   8.855
 8274POPC   C1A36123  12.072  12.834   8.555
 8274POPC   D2A36124  12.125  12.862   8.255
 8274POPC   C3A36125  12.117  12.891   7.955
 8274POPC   C4A36126  12.097  12.892   7.655
 8274POPC   C1B36127  12.303  13.019   8.555
 8274POPC   C2B36128  12.301  12.999   8.255
 8274POPC   C3B36129  12.294  12.987   7.955
 8274POPC   C4B36130  12.257  13.031   7.655
 8275POPC   NC336131  12.051  22.118   9.455
 8275POPC   PO436132  12.091  22.173   9.155
 8275POPC   GL136133  12.056  22.197   8.855
 8275POPC   GL236134  12.098  22.041   8.855
 8275POPC   C1A36135  12.057  22.129   8.555
 8275POPC   D2A36136  12.071  22.116   8.255
 8275POPC   C3A36137  12.062  22.205   7.955
 8275POPC   C4A36138  12.032  22.152   7.655
 8275POPC   C1B36139  12.110  21.966   8.555
 8275POPC   C2B36140  12.125  21.962   8.255
 8275POPC   C3B36141  12.124  21.967   7.955
 8275POPC   C4B36142  12.146  21.871   7.655
 8276POPC   NC336143   4.275  25.298   9.455
 8276POPC   PO436144   4.310  25.291   9.155
 8276POPC   GL136145   4.296  25.237   8.855
 8276POPC   GL236146   4.346  25.366   8.855
 8276POPC   C1A36147   4.290  25.223   8.555
 8276POPC   D2A36148   4.321  25.223   8.255
 8276POPC   C3A36149   4.330  25.262   7.955
 8276POPC   C4A36150   4.345  25.268   7.655
 8276POPC   C1B36151   4.480  25.510   8.555
 8276POPC   C2B36152   4.508  25.447   8.255
 8276POPC   C3B36153   4.450  25.488   7.955
 8276POPC   C4B36154   4.452  25.499   7.655
 8277POPC   NC336155  20.564  38.477   9.455
 8277POPC   PO436156  20.595  38.480   9.155
 8277POPC   GL136157  20.605  38.481   8.855
 8277POPC   GL236158  20.566  38.618   8.855
 8277POPC   C1A36159  20.577  38.465   8.555
 8277POPC   D2A36160  20.567  38.440   8.255
 8277POPC   C3A36161  20.658  38.461   7.955
 8277POPC   C4A36162  20.579  38.420   7.655
 8277POPC   C1B36163  20.599  38.696   8.555
 8277POPC   C2B36164  20.582  38.672   8.255
 8277POPC   C3B36165  20.595  38.690   7.955
 8277POPC   C4B36166  20.601  38.746   7.655
 8278POPC   NC336167  29.965   5.902   9.455
 8278POPC   PO436168  29.901   5.862   9.155
 8278POPC   GL136169  29.936   5.907   8.855
 8278POPC   GL236170  29.827   5.859   8.855
 8278POPC   C1A36171  29.894   5.878   8.555
 8278POPC   D2A36172  29.941   5.824   8.255
 8278POPC   C3A36173  29.899   5.910   7.955
 8278POPC   C4A36174  29.950   5.842   7.655
 8278POPC   C1B36175  29.639   5.797   8.555
 8278POPC   C2B36176  29.657   5.847   8.255
 8278POPC   C3B36177  29.651   5.828   7.955
 8278POPC   C4B36178  29.653   5.825   7.655
 8279POPC   NC336179  43.109  22.950   9.455
 8279POPC   PO436180  43.082  22.949   9.155
 8279POPC   GL136181  43.134  22.947   8.855
 8279POPC   GL236182  42.952  22.890   8.855
 8279POPC   C1A36183  43.157  22.973   8.555
 8279POPC   D2A36184  43.089  22.960   8.255
 8279POPC   C3A36185  43.115  22.976   7.955
 8279POPC   C4A36186  43.095  22.888   7.655
 8279POPC   C1B36187  42.905  22.859   8.555
 8279POPC   C2B36188  42.854  22.828   8.255
 8279POPC   C3B36189  42.849  22.866   7.955
 8279POPC   C4B36190  42.846  22.831   7.655
 8280POPC   NC336191   0.431  18.247   9.455
 8280POPC   PO436192   0.427  18.271   9.155
 8280POPC   GL136193   0.423  18.288   8.855
 8280POPC   GL236194   0.322  18.337   8.855
 8280POPC   C1A36195   0.442  18.262   8.555
 8280POPC   D2A36196   0.424  18.309   8.255
 8280POPC   C3A36197   0.424  18.306   7.955
 8280POPC   C4A36198   0.461  18.289   7.655
 8280POPC   C1B36199   0.254  18.477   8.555
 8280POPC   C2B36200   0.200  18.413   8.255
 8280POPC   C3B36201   0.239  18.402   7.955
 8280POPC   C4B36202   0.223  18.413   7.655
 8281POPC   NC336203   4.307  34.610   9.455
 8281POPC   PO436204   4.314  34.597   9.155
 8281POPC   GL136205   4.305  34.566   8.855
 8281POPC   GL236206   4.311  34.474   8.855
 8281POPC   C1A36207   4.269  34.542   8.555
 8281POPC   D2A36208   4.309  34.599   8.255
 8281POPC   C3A36209   4.272  34.608   7.955
 8281POPC   C4A36210   4.280  34.532   7.655
 8281POPC   C1B36211   4.297  34.348   8.555
 8281POPC   C2B36212   4.243  34.351   8.255
 8281POPC   C3B36213   4.246  34.305   7.955
 8281POPC   C4B36214   4.239  34.282   7.655
 8282POPC   NC336215  29.936  23.715   9.455
 8282POPC   PO436216  29.930  23.742   9.155
 8282POPC   GL136217  29.914  23.750   8.855
 8282POPC   GL236218  29.980  23.800   8.855
 8282POPC   C1A36219  29.882  23.719   8.555
 8282POPC   D2A36220  29.880  23.683   8.255
 8282POPC   C3A36221  29.889  23.754   7.955
 8282POPC   C4A36222  29.874  23.734   7.655
 8282POPC   C1B36223  30.023  23.923   8.555
 8282POPC   C2B36224  30.045  23.928   8.255
 8282POPC   C3B36225  30.096  23.917   7.955
 8282POPC   C4B36226  30.077  23.933   7.655
 8283POPC   NC336227   3.564   2.762   9.455
 8283POPC   PO436228   3.502   2.809   9.155
 8283POPC   GL136229   3.564   2.727   8.855
 8283POPC   GL236230   3.544   2.666   8.855
 8283POPC   C1A36231   3.574   2.744   8.555
 8283POPC   D2A36232   3.496   2.784   8.255
 8283POPC   C3A36233   3.566   2.756   7.955
 8283POPC   C4A36234   3.497   2.756   7.655
 8283POPC   C1B36235   3.557   2.558   8.555
 8283POPC   C2B36236   3.561   2.544   8.255
 8283POPC   C3B36237   3.529   2.517   7.955
 8283POPC   C4B36238   3.582   2.503   7.655
 8284POPC   NC336239   3.577   7.377   9.455
 8284POPC   PO436240   3.516   7.425   9.155
 8284POPC   GL136241   3.520   7.375   8.855
 8284POPC   GL236242   3.486   7.575   8.855
 8284POPC   C1A36243   3.542   7.455   8.555
 8284POPC   D2A36244   3.590   7.394   8.255
 8284POPC   C3A36245   3.556   7.388   7.955
 8284POPC   C4A36246   3.569   7.416   7.655
 8284POPC   C1B36247   3.511   7.695   8.555
 8284POPC   C2B36248   3.551   7.654   8.255
 8284POPC   C3B36249   3.485   7.688   7.955
 8284POPC   C4B36250   3.537   7.632   7.655
 8285POPC   NC336251  40.037  21.422   9.455
 8285POPC   PO436252  39.959  21.337   9.155
 8285POPC   GL136253  40.034  21.390   8.855
 8285POPC   GL236254  39.949  21.444   8.855
 8285POPC   C1A36255  40.043  21.403   8.555
 8285POPC   D2A36256  40.001  21.414   8.255
 8285POPC   C3A36257  40.041  21.395   7.955
 8285POPC   C4A36258  39.994  21.424   7.655
 8285POPC   C1B36259  39.809  21.570   8.555
 8285POPC   C2B36260  39.816  21.524   8.255
 8285POPC   C3B36261  39.875  21.515   7.955
 8285POPC   C4B36262  39.835  21.558   7.655
 8286POPC   NC336263  22.205  39.979   9.455
 8286POPC   PO436264  22.208  39.983   9.155
 8286POPC   GL136265  22.162  40.057   8.855
 8286POPC   GL236266  22.135  39.897   8.855
 8286POPC   C1A36267  22.149  40.037   8.555
 8286POPC   D2A36268  22.192  40.030   8.255
 8286POPC   C3A36269  22.158  40.041   7.955
 8286POPC   C4A36270  22.172  40.042   7.655
 8286POPC   C1B36271  22.124  39.782   8.555
 8286POPC   C2B36272  22.139  39.731   8.255
 8286POPC   C3B36273  22.172  39.795   7.955
 8286POPC   C4B36274  22.124  39.760   7.655
 8287POPC   NC336275  18.241   6.651   9.455
 8287POPC   PO436276  18.260   6.613   9.155
 8287POPC   GL136277  18.301   6.688   8.855
 8287POPC   GL236278  18.303   6.808   8.855
 8287POPC   C1A36279  18.247   6.673   8.555
 8287POPC   D2A36280  18.263   6.655   8.255
 8287POPC   C3A36281  18.247   6.659   7.955
 8287POPC   C4A36282  18.308   6.689   7.655
 8287POPC   C1B36283  18.243   6.867   8.555
 8287POPC   C2B36284  18.271   6.892   8.255
 8287POPC   C3B36285  18.262   6.873   7.955
 8287POPC   C4B36286  18.325   6.926   7.655
 8288POPC   NC336287   0.449  35.304   9.455
 8288POPC   PO436288   0.435  35.320   9.155
 8288POPC   GL136289   0.468  35.372   8.855
 8288POPC   GL236290   0.572  35.400   8.855
 8288POPC   C1A36291   0.439  35.387   8.555
 8288POPC   D2A36292   0.459  35.380   8.255
 8288POPC   C3A36293   0.426  35.373   7.955
 8288POPC   C4A36294   0.393  35.382   7.655
 8288POPC   C1B36295   0.703  35.473   8.555
 8288POPC   C2B36296   0.709  35.457   8.255
 8288POPC   C3B36297   0.660  35.385   7.955
 8288POPC   C4B36298   0.719  35.425   7.655
 8289POPC   NC336299  15.215   0.453   9.455
 8289POPC   PO436300  15.150   0.431   9.155
 8289POPC   GL136301  15.168   0.452   8.855
 8289POPC   GL236302  15.083   0.545   8.855
 8289POPC   C1A36303  15.207   0.462   8.555
 8289POPC   D2A36304  15.211   0.451   8.255
 8289POPC   C3A36305  15.189   0.451   7.955
 8289POPC   C4A36306  15.144   0.419   7.655
 8289POPC   C1B36307  14.984   0.634   8.555
 8289POPC   C2B36308  15.042   0.622   8.255
 8289POPC   C3B36309  15.005   0.594   7.955
 8289POPC   C4B36310  14.974   0.584   7.655
 8290POPC   NC336311  14.394  40.748   9.455
 8290POPC   PO436312  14.406  40.762   9.155
 8290POPC   GL136313  14.386  40.809   8.855
 8290POPC   GL236314  14.467  40.924   8.855
 8290POPC   C1A36315  14.429  40.785   8.555
 8290POPC   D2A36316  14.426  40.773   8.255
 8290POPC   C3A36317  14.367  40.762   7.955
 8290POPC   C4A36318  14.438  40.750   7.655
 8290POPC   C1B36319  14.470  41.030   8.555
 8290POPC   C2B36320  14.474  41.068   8.255
 8290POPC   C3B36321  14.479  41.003   7.955
 8290POPC   C4B36322  14.478  40.984   7.655
 8291POPC   NC336323  10.541  39.229   9.455
 8291POPC   PO436324  10.525  39.259   9.155
 8291POPC   GL136325  10.529  39.198   8.855
 8291POPC   GL236326  10.488  39.131   8.855
 8291POPC   C1A36327  10.486  39.218   8.555
 8291POPC   D2A36328  10.483  39.203   8.255
 8291POPC   C3A36329  10.530  39.190   7.955
 8291POPC   C4A36330  10.538  39.267   7.655
 8291POPC   C1B36331  10.406  39.054   8.555
 8291POPC   C2B36332  10.401  38.972   8.255
 8291POPC   C3B36333  10.384  39.038   7.955
 8291POPC   C4B36334  10.406  39.052   7.655
 8292POPC   NC336335  10.477  11.349   9.455
 8292POPC   PO436336  10.538  11.319   9.155
 8292POPC   GL136337  10.527  11.278   8.855
 8292POPC   GL236338  10.396  11.318   8.855
 8292POPC   C1A36339  10.555  11.262   8.555
 8292POPC   D2A36340  10.559  11.263   8.255
 8292POPC   C3A36341  10.535  11.284   7.955
 8292POPC   C4A36342  10.495  11.281   7.655
 8292POPC   C1B36343  10.331  11.424   8.555
 8292POPC   C2B36344  10.323  11.452   8.255
 8292POPC   C3B36345  10.271  11.426   7.955
 8292POPC   C4B36346  10.286  11.425   7.655
 8293POPC   NC336347  18.241  40.001   9.455
 8293POPC   PO436348  18.250  39.968   9.155
 8293POPC   GL136349  18.307  39.963   8.855
 8293POPC   GL236350  18.196  39.853   8.855
 8293POPC   C1A36351  18.275  40.002   8.555
 8293POPC   D2A36352  18.239  40.025   8.255
 8293POPC   C3A36353  18.284  39.966   7.955
 8293POPC   C4A36354  18.246  40.023   7.655
 8293POPC   C1B36355  18.157  39.803   8.555
 8293POPC   C2B36356  18.231  39.784   8.255
 8293POPC   C3B36357  18.201  39.791   7.955
 8293POPC   C4B36358  18.234  39.773   7.655
 8294POPC   NC336359  26.816  11.275   9.455
 8294POPC   PO436360  26.781  11.263   9.155
 8294POPC   GL136361  26.793  11.293   8.855
 8294POPC   GL236362  26.892  11.418   8.855
 8294POPC   C1A36363  26.845  11.303   8.555
 8294POPC   D2A36364  26.836  11.301   8.255
 8294POPC   C3A36365  26.857  11.313   7.955
 8294POPC   C4A36366  26.812  11.324   7.655
 8294POPC   C1B36367  26.989  11.493   8.555
 8294POPC   C2B36368  27.054  11.468   8.255
 8294POPC   C3B36369  26.996  11.427   7.955
 8294POPC   C4B36370  27.010  11.454   7.655
 8295POPC   NC336371  28.418  35.303   9.455
 8295POPC   PO436372  28.372  35.332   9.155
 8295POPC   GL136373  28.369  35.392   8.855
 8295POPC   GL236374  28.475  35.334   8.855
 8295POPC   C1A36375  28.408  35.400   8.555
 8295POPC   D2A36376  28.380  35.368   8.255
 8295POPC   C3A36377  28.414  35.361   7.955
 8295POPC   C4A36378  28.401  35.380   7.655
 8295POPC   C1B36379  28.578  35.383   8.555
 8295POPC   C2B36380  28.597  35.393   8.255
 8295POPC   C3B36381  28.584  35.379   7.955
 8295POPC   C4B36382  28.607  35.326   7.655
 8296POPC   NC336383   7.387  12.068   9.455
 8296POPC   PO436384   7.385  12.123   9.155
 8296POPC   GL136385   7.389  12.047   8.855
 8296POPC   GL236386   7.347  11.990   8.855
 8296POPC   C1A36387   7.389  12.048   8.555
 8296POPC   D2A36388   7.449  12.124   8.255
 8296POPC   C3A36389   7.444  12.046   7.955
 8296POPC   C4A36390   7.467  12.074   7.655
 8296POPC   C1B36391   7.240  11.885   8.555
 8296POPC   C2B36392   7.228  11.840   8.255
 8296POPC   C3B36393   7.226  11.899   7.955
 8296POPC   C4B36394   7.282  11.921   7.655
 8297POPC   NC336395  39.973   5.847   9.455
 8297POPC   PO436396  40.024   5.871   9.155
 8297POPC   GL136397  39.999   5.906   8.855
 8297POPC   GL236398  40.013   5.764   8.855
 8297POPC   C1A36399  39.973   5.891   8.555
 8297POPC   D2A36400  40.056   5.860   8.255
 8297POPC   C3A36401  40.035   5.918   7.955
 8297POPC   C4A36402  40.002   5.883   7.655
 8297POPC   C1B36403  39.925   5.624   8.555
 8297POPC   C2B36404  39.925   5.577   8.255
 8297POPC   C3B36405  39.940   5.638   7.955
 8297POPC   C4B36406  40.013   5.618   7.655
 8298POPC   NC336407  42.332  18.285   9.455
 8298POPC   PO436408  42.363  18.333   9.155
 8298POPC   GL136409  42.301  18.264   8.855
 8298POPC   GL236410  42.447  18.373   8.855
 8298POPC   C1A36411  42.361  18.279   8.555
 8298POPC   D2A36412  42.381  18.292   8.255
 8298POPC   C3A36413  42.369  18.318   7.955
 8298POPC   C4A36414  42.292  18.278   7.655
 8298POPC   C1B36415  42.546  18.432   8.555
 8298POPC   C2B36416  42.511  18.434   8.255
 8298POPC   C3B36417  42.473  18.426   7.955
 8298POPC   C4B36418  42.517  18.485   7.655
 8299POPC   NC336419  33.054  13.635   9.455
 8299POPC   PO436420  33.028  13.624   9.155
 8299POPC   GL136421  32.995  13.606   8.855
 8299POPC   GL236422  32.937  13.556   8.855
 8299POPC   C1A36423  33.048  13.655   8.555
 8299POPC   D2A36424  32.985  13.625   8.255
 8299POPC   C3A36425  33.042  13.674   7.955
 8299POPC   C4A36426  33.022  13.669   7.655
 8299POPC   C1B36427  32.947  13.386   8.555
 8299POPC   C2B36428  32.934  13.380   8.255
 8299POPC   C3B36429  32.911  13.403   7.955
 8299POPC   C4B36430  32.882  13.415   7.655
 8300POPC   NC336431  36.926  24.537   9.455
 8300POPC   PO436432  36.897  24.528   9.155
 8300POPC   GL136433  36.946  24.485   8.855
 8300POPC   GL236434  36.998  24.398   8.855
 8300POPC   C1A36435  36.865  24.442   8.555
 8300POPC   D2A36436  36.880  24.538   8.255
 8300POPC   C3A36437  36.920  24.446   7.955
 8300POPC   C4A36438  36.926  24.470   7.655
 8300POPC   C1B36439  37.156  24.375   8.555
 8300POPC   C2B36440  37.137  24.376   8.255
 8300POPC   C3B36441  37.114  24.357   7.955
 8300POPC   C4B36442  37.152  24.392   7.655
 8301POPC   NC336443  29.121  13.650   9.455
 8301POPC   PO436444  29.112  13.597   9.155
 8301POPC   GL136445  29.110  13.651   8.855
 8301POPC   GL236446  29.101  13.789   8.855
 8301POPC   C1A36447  29.174  13.582   8.555
 8301POPC   D2A36448  29.166  13.628   8.255
 8301POPC   C3A36449  29.158  13.602   7.955
 8301POPC   C4A36450  29.098  13.671   7.655
 8301POPC   C1B36451  29.022  13.834   8.555
 8301POPC   C2B36452  29.050  13.832   8.255
 8301POPC   C3B36453  29.032  13.905   7.955
 8301POPC   C4B36454  29.060  13.882   7.655
 8302POPC   NC336455   9.776   8.943   9.455
 8302POPC   PO436456   9.776   8.991   9.155
 8302POPC   GL136457   9.730   8.942   8.855
 8302POPC   GL236458   9.752   8.884   8.855
 8302POPC   C1A36459   9.701   8.984   8.555
 8302POPC   D2A36460   9.791   8.938   8.255
 8302POPC   C3A36461   9.797   8.973   7.955
 8302POPC   C4A36462   9.778   9.011   7.655
 8302POPC   C1B36463   9.876   8.701   8.555
 8302POPC   C2B36464   9.884   8.780   8.255
 8302POPC   C3B36465   9.868   8.742   7.955
 8302POPC   C4B36466   9.814   8.779   7.655
 8303POPC   NC336467   0.466   8.239   9.455
 8303POPC   PO436468   0.398   8.183   9.155
 8303POPC   GL136469   0.401   8.173   8.855
 8303POPC   GL236470   0.349   8.260   8.855
 8303POPC   C1A36471   0.443   8.210   8.555
 8303POPC   D2A36472   0.408   8.187   8.255
 8303POPC   C3A36473   0.428   8.171   7.955
 8303POPC   C4A36474   0.471   8.190   7.655
 8303POPC   C1B36475   0.273   8.394   8.555
 8303POPC   C2B36476   0.313   8.351   8.255
 8303POPC   C3B36477   0.329   8.432   7.955
 8303POPC   C4B36478   0.322   8.407   7.655
 8304POPC   NC336479   0.415  37.648   9.455
 8304POPC   PO436480   0.426  37.697   9.155
 8304POPC   GL136481   0.472  37.680   8.855
 8304POPC   GL236482   0.358  37.697   8.855
 8304POPC   C1A36483   0.389  37.647   8.555
 8304POPC   D2A36484   0.437  37.652   8.255
 8304POPC   C3A36485   0.411  37.640   7.955
 8304POPC   C4A36486   0.428  37.645   7.655
 8304POPC   C1B36487   0.195  37.740   8.555
 8304POPC   C2B36488   0.209  37.784   8.255
 8304POPC   C3B36489   0.209  37.790   7.955
 8304POPC   C4B36490   0.261  37.835   7.655
 8305POPC   NC336491  20.569  32.282   9.455
 8305POPC   PO436492  20.605  32.255   9.155
 8305POPC   GL136493  20.588  32.213   8.855
 8305POPC   GL236494  20.552  32.312   8.855
 8305POPC   C1A36495  20.618  32.218   8.555
 8305POPC   D2A36496  20.603  32.258   8.255
 8305POPC   C3A36497  20.598  32.222   7.955
 8305POPC   C4A36498  20.638  32.263   7.655
 8305POPC   C1B36499  20.439  32.499   8.555
 8305POPC   C2B36500  20.451  32.429   8.255
 8305POPC   C3B36501  20.500  32.447   7.955
 8305POPC   C4B36502  20.510  32.445   7.655
 8306POPC   NC336503  37.704  24.457   9.455
 8306POPC   PO436504  37.665  24.462   9.155
 8306POPC   GL136505  37.650  24.515   8.855
 8306POPC   GL236506  37.749  24.415   8.855
 8306POPC   C1A36507  37.687  24.456   8.555
 8306POPC   D2A36508  37.666  24.454   8.255
 8306POPC   C3A36509  37.725  24.491   7.955
 8306POPC   C4A36510  37.712  24.509   7.655
 8306POPC   C1B36511  37.754  24.250   8.555
 8306POPC   C2B36512  37.713  24.259   8.255
 8306POPC   C3B36513  37.717  24.216   7.955
 8306POPC   C4B36514  37.747  24.290   7.655
 8307POPC   NC336515  15.949  43.077   9.455
 8307POPC   PO436516  15.992  43.149   9.155
 8307POPC   GL136517  15.969  43.131   8.855
 8307POPC   GL236518  15.939  43.211   8.855
 8307POPC   C1A36519  15.942  43.150   8.555
 8307POPC   D2A36520  15.936  43.083   8.255
 8307POPC   C3A36521  15.912  43.155   7.955
 8307POPC   C4A36522  15.954  43.070   7.655
 8307POPC   C1B36523  15.850  43.341   8.555
 8307POPC   C2B36524  15.791  43.353   8.255
 8307POPC   C3B36525  15.869  43.329   7.955
 8307POPC   C4B36526  15.814  43.309   7.655
 8308POPC   NC336527   1.968  41.583   9.455
 8308POPC   PO436528   2.020  41.545   9.155
 8308POPC   GL136529   2.025  41.521   8.855
 8308POPC   GL236530   1.977  41.707   8.855
 8308POPC   C1A36531   1.982  41.531   8.555
 8308POPC   D2A36532   2.038  41.567   8.255
 8308POPC   C3A36533   1.985  41.516   7.955
 8308POPC   C4A36534   1.982  41.557   7.655
 8308POPC   C1B36535   2.011  41.836   8.555
 8308POPC   C2B36536   2.035  41.834   8.255
 8308POPC   C3B36537   1.972  41.818   7.955
 8308POPC   C4B36538   1.986  41.760   7.655
 8309POPC   NC336539   1.947  34.573   9.455
 8309POPC   PO436540   1.993  34.579   9.155
 8309POPC   GL136541   2.015  34.621   8.855
 8309POPC   GL236542   2.056  34.459   8.855
 8309POPC   C1A36543   2.000  34.556   8.555
 8309POPC   D2A36544   1.946  34.579   8.255
 8309POPC   C3A36545   1.962  34.561   7.955
 8309POPC   C4A36546   1.970  34.617   7.655
 8309POPC   C1B36547   2.164  34.426   8.555
 8309POPC   C2B36548   2.137  34.426   8.255
 8309POPC   C3B36549   2.163  34.438   7.955
 8309POPC   C4B36550   2.182  34.392   7.655
 8310POPC   NC336551  19.089  29.154   9.455
 8310POPC   PO436552  19.108  29.191   9.155
 8310POPC   GL136553  19.104  29.167   8.855
 8310POPC   GL236554  18.994  29.037   8.855
 8310POPC   C1A36555  19.056  29.178   8.555
 8310POPC   D2A36556  19.083  29.148   8.255
 8310POPC   C3A36557  19.032  29.180   7.955
 8310POPC   C4A36558  19.048  29.162   7.655
 8310POPC   C1B36559  18.854  28.986   8.555
 8310POPC   C2B36560  18.917  28.951   8.255
 8310POPC   C3B36561  18.844  29.014   7.955
 8310POPC   C4B36562  18.843  28.973   7.655
 8311POPC   NC336563  41.574   5.824   9.455
 8311POPC   PO436564  41.545   5.916   9.155
 8311POPC   GL136565  41.574   5.884   8.855
 8311POPC   GL236566  41.493   5.711   8.855
 8311POPC   C1A36567  41.606   5.887   8.555
 8311POPC   D2A36568  41.524   5.883   8.255
 8311POPC   C3A36569  41.513   5.824   7.955
 8311POPC   C4A36570  41.547   5.893   7.655
 8311POPC   C1B36571  41.488   5.593   8.555
 8311POPC   C2B36572  41.480   5.624   8.255
 8311POPC   C3B36573  41.459   5.606   7.955
 8311POPC   C4B36574  41.441   5.600   7.655
 8312POPC   NC336575  39.999  40.794   9.455
 8312POPC   PO436576  39.994  40.820   9.155
 8312POPC   GL136577  39.998  40.767   8.855
 8312POPC   GL236578  39.991  40.705   8.855
 8312POPC   C1A36579  39.985  40.789   8.555
 8312POPC   D2A36580  40.040  40.748   8.255
 8312POPC   C3A36581  39.991  40.746   7.955
 8312POPC   C4A36582  40.038  40.825   7.655
 8312POPC   C1B36583  39.997  40.532   8.555
 8312POPC   C2B36584  39.978  40.554   8.255
 8312POPC   C3B36585  39.995  40.509   7.955
 8312POPC   C4B36586  39.982  40.573   7.655
 8313POPC   NC336587  22.201   1.218   9.455
 8313POPC   PO436588  22.185   1.238   9.155
 8313POPC   GL136589  22.144   1.227   8.855
 8313POPC   GL236590  22.162   1.381   8.855
 8313POPC   C1A36591  22.196   1.234   8.555
 8313POPC   D2A36592  22.172   1.253   8.255
 8313POPC   C3A36593  22.197   1.207   7.955
 8313POPC   C4A36594  22.188   1.209   7.655
 8313POPC   C1B36595  22.128   1.451   8.555
 8313POPC   C2B36596  22.085   1.474   8.255
 8313POPC   C3B36597  22.153   1.491   7.955
 8313POPC   C4B36598  22.090   1.454   7.655
 8314POPC   NC336599  16.749  44.628   9.455
 8314POPC   PO436600  16.778  44.617   9.155
 8314POPC   GL136601  16.723  44.664   8.855
 8314POPC   GL236602  16.719  44.586   8.855
 8314POPC   C1A36603  16.742  44.676   8.555
 8314POPC   D2A36604  16.710  44.647   8.255
 8314POPC   C3A36605  16.768  44.612   7.955
 8314POPC   C4A36606  16.689  44.619   7.655
 8314POPC   C1B36607  16.750  44.413   8.555
 8314POPC   C2B36608  16.790  44.465   8.255
 8314POPC   C3B36609  16.803  44.416   7.955
 8314POPC   C4B36610  16.761  44.413   7.655
 8315POPC   NC336611   6.638   8.946   9.455
 8315POPC   PO436612   6.664   8.999   9.155
 8315POPC   GL136613   6.613   9.012   8.855
 8315POPC   GL236614   6.729   9.070   8.855
 8315POPC   C1A36615   6.673   8.937   8.555
 8315POPC   D2A36616   6.665   8.950   8.255
 8315POPC   C3A36617   6.688   8.993   7.955
 8315POPC   C4A36618   6.644   9.012   7.655
 8315POPC   C1B36619   6.727   9.191   8.555
 8315POPC   C2B36620   6.800   9.207   8.255
 8315POPC   C3B36621   6.763   9.186   7.955
 8315POPC   C4B36622   6.797   9.183   7.655
 8316POPC   NC336623  28.323  18.260   9.455
 8316POPC   PO436624  28.352  18.272   9.155
 8316POPC   GL136625  28.344  18.303   8.855
 8316POPC   GL236626  28.266  18.221   8.855
 8316POPC   C1A36627  28.394  18.295   8.555
 8316POPC   D2A36628  28.413  18.301   8.255
 8316POPC   C3A36629  28.347  18.242   7.955
 8316POPC   C4A36630  28.400  18.246   7.655
 8316POPC   C1B36631  28.140  18.128   8.555
 8316POPC   C2B36632  28.229  18.115   8.255
 8316POPC   C3B36633  28.218  18.140   7.955
 8316POPC   C4B36634  28.134  18.154   7.655
 8317POPC   NC336635  31.436  33.836   9.455
 8317POPC   PO436636  31.466  33.803   9.155
 8317POPC   GL136637  31.511  33.823   8.855
 8317POPC   GL236638  31.599  33.766   8.855
 8317POPC   C1A36639  31.480  33.837   8.555
 8317POPC   D2A36640  31.484  33.794   8.255
 8317POPC   C3A36641  31.451  33.779   7.955
 8317POPC   C4A36642  31.465  33.839   7.655
 8317POPC   C1B36643  31.694  33.696   8.555
 8317POPC   C2B36644  31.708  33.725   8.255
 8317POPC   C3B36645  31.696  33.705   7.955
 8317POPC   C4B36646  31.747  33.710   7.655
 8318POPC   NC336647   1.245  35.358   9.455
 8318POPC   PO436648   1.245  35.386   9.155
 8318POPC   GL136649   1.187  35.354   8.855
 8318POPC   GL236650   1.323  35.399   8.855
 8318POPC   C1A36651   1.226  35.373   8.555
 8318POPC   D2A36652   1.225  35.328   8.255
 8318POPC   C3A36653   1.253  35.353   7.955
 8318POPC   C4A36654   1.227  35.329   7.655
 8318POPC   C1B36655   1.415  35.480   8.555
 8318POPC   C2B36656   1.423  35.523   8.255
 8318POPC   C3B36657   1.458  35.480   7.955
 8318POPC   C4B36658   1.377  35.546   7.655
 8319POPC   NC336659  11.301   6.630   9.455
 8319POPC   PO436660  11.314   6.600   9.155
 8319POPC   GL136661  11.303   6.643   8.855
 8319POPC   GL236662  11.207   6.511   8.855
 8319POPC   C1A36663  11.341   6.690   8.555
 8319POPC   D2A36664  11.297   6.674   8.255
 8319POPC   C3A36665  11.321   6.652   7.955
 8319POPC   C4A36666  11.287   6.629   7.655
 8319POPC   C1B36667  11.146   6.426   8.555
 8319POPC   C2B36668  11.227   6.390   8.255
 8319POPC   C3B36669  11.175   6.415   7.955
 8319POPC   C4B36670  11.149   6.436   7.655
 8320POPC   NC336671  39.975  31.506   9.455
 8320POPC   PO436672  40.010  31.470   9.155
 8320POPC   GL136673  39.992  31.519   8.855
 8320POPC   GL236674  39.975  31.580   8.855
 8320POPC   C1A36675  39.965  31.455   8.555
 8320POPC   D2A36676  40.027  31.469   8.255
 8320POPC   C3A36677  39.972  31.521   7.955
 8320POPC   C4A36678  40.046  31.501   7.655
 8320POPC   C1B36679  39.973  31.710   8.555
 8320POPC   C2B36680  39.918  31.753   8.255
 8320POPC   C3B36681  39.962  31.718   7.955
 8320POPC   C4B36682  39.968  31.711   7.655
 8321POPC   NC336683   5.872  27.590   9.455
 8321POPC   PO436684   5.875  27.579   9.155
 8321POPC   GL136685   5.853  27.634   8.855
 8321POPC   GL236686   5.811  27.478   8.855
 8321POPC   C1A36687   5.913  27.635   8.555
 8321POPC   D2A36688   5.825  27.577   8.255
 8321POPC   C3A36689   5.864  27.642   7.955
 8321POPC   C4A36690   5.914  27.550   7.655
 8321POPC   C1B36691   5.704  27.420   8.555
 8321POPC   C2B36692   5.715  27.400   8.255
 8321POPC   C3B36693   5.672  27.406   7.955
 8321POPC   C4B36694   5.652  27.418   7.655
 8322POPC   NC336695  24.444  38.446   9.455
 8322POPC   PO436696  24.444  38.482   9.155
 8322POPC   GL136697  24.497  38.476   8.855
 8322POPC   GL236698  24.605  38.453   8.855
 8322POPC   C1A36699  24.498  38.434   8.555
 8322POPC   D2A36700  24.492  38.454   8.255
 8322POPC   C3A36701  24.466  38.488   7.955
 8322POPC   C4A36702  24.487  38.425   7.655
 8322POPC   C1B36703  24.773  38.438   8.555
 8322POPC   C2B36704  24.751  38.387   8.255
 8322POPC   C3B36705  24.732  38.419   7.955
 8322POPC   C4B36706  24.712  38.375   7.655
 8323POPC   NC336707  29.947   2.031   9.455
 8323POPC   PO436708  29.900   2.025   9.155
 8323POPC   GL136709  29.891   1.979   8.855
 8323POPC   GL236710  30.008   1.979   8.855
 8323POPC   C1A36711  29.969   1.965   8.555
 8323POPC   D2A36712  29.922   2.003   8.255
 8323POPC   C3A36713  29.918   1.949   7.955
 8323POPC   C4A36714  29.914   1.970   7.655
 8323POPC   C1B36715  30.177   1.987   8.555
 8323POPC   C2B36716  30.160   2.004   8.255
 8323POPC   C3B36717  30.173   1.990   7.955
 8323POPC   C4B36718  30.137   1.970   7.655
 8324POPC   NC336719   6.652  36.079   9.455
 8324POPC   PO436720   6.679  36.120   9.155
 8324POPC   GL136721   6.601  36.106   8.855
 8324POPC   GL236722   6.621  36.013   8.855
 8324POPC   C1A36723   6.679  36.174   8.555
 8324POPC   D2A36724   6.694  36.141   8.255
 8324POPC   C3A36725   6.691  36.112   7.955
 8324POPC   C4A36726   6.669  36.153   7.655
 8324POPC   C1B36727   6.608  35.873   8.555
 8324POPC   C2B36728   6.574  35.881   8.255
 8324POPC   C3B36729   6.547  35.918   7.955
 8324POPC   C4B36730   6.592  35.856   7.655
 8325POPC   NC336731  27.642  12.868   9.455
 8325POPC   PO436732  27.598  12.873   9.155
 8325POPC   GL136733  27.550  12.871   8.855
 8325POPC   GL236734  27.557  12.732   8.855
 8325POPC   C1A36735  27.579  12.899   8.555
 8325POPC   D2A36736  27.560  12.877   8.255
 8325POPC   C3A36737  27.600  12.877   7.955
 8325POPC   C4A36738  27.574  12.854   7.655
 8325POPC   C1B36739  27.604  12.650   8.555
 8325POPC   C2B36740  27.559  12.564   8.255
 8325POPC   C3B36741  27.583  12.618   7.955
 8325POPC   C4B36742  27.586  12.591   7.655
 8326POPC   NC336743  22.193  42.339   9.455
 8326POPC   PO436744  22.192  42.308   9.155
 8326POPC   GL136745  22.138  42.349   8.855
 8326POPC   GL236746  22.072  42.289   8.855
 8326POPC   C1A36747  22.173  42.296   8.555
 8326POPC   D2A36748  22.115  42.334   8.255
 8326POPC   C3A36749  22.149  42.373   7.955
 8326POPC   C4A36750  22.121  42.327   7.655
 8326POPC   C1B36751  21.958  42.228   8.555
 8326POPC   C2B36752  21.877  42.308   8.255
 8326POPC   C3B36753  21.891  42.248   7.955
 8326POPC   C4B36754  21.884  42.296   7.655
 8327POPC   NC336755  11.265  26.030   9.455
 8327POPC   PO436756  11.319  26.068   9.155
 8327POPC   GL136757  11.307  26.065   8.855
 8327POPC   GL236758  11.224  25.992   8.855
 8327POPC   C1A36759  11.295  26.004   8.555
 8327POPC   D2A36760  11.262  26.058   8.255
 8327POPC   C3A36761  11.300  25.996   7.955
 8327POPC   C4A36762  11.326  26.026   7.655
 8327POPC   C1B36763  11.067  25.982   8.555
 8327POPC   C2B36764  11.047  26.013   8.255
 8327POPC   C3B36765  11.077  26.017   7.955
 8327POPC   C4B36766  11.061  25.993   7.655
 8328POPC   NC336767   2.734  35.360   9.455
 8328POPC   PO436768   2.721  35.340   9.155
 8328POPC   GL136769   2.738  35.398   8.855
 8328POPC   GL236770   2.889  35.243   8.855
 8328POPC   C1A36771   2.775  35.393   8.555
 8328POPC   D2A36772   2.735  35.381   8.255
 8328POPC   C3A36773   2.759  35.357   7.955
 8328POPC   C4A36774   2.750  35.400   7.655
 8328POPC   C1B36775   2.926  35.256   8.555
 8328POPC   C2B36776   2.924  35.233   8.255
 8328POPC   C3B36777   2.994  35.212   7.955
 8328POPC   C4B36778   3.009  35.180   7.655
 8329POPC   NC336779  28.356  20.566   9.455
 8329POPC   PO436780  28.345  20.642   9.155
 8329POPC   GL136781  28.344  20.646   8.855
 8329POPC   GL236782  28.215  20.633   8.855
 8329POPC   C1A36783  28.346  20.648   8.555
 8329POPC   D2A36784  28.397  20.592   8.255
 8329POPC   C3A36785  28.357  20.608   7.955
 8329POPC   C4A36786  28.323  20.626   7.655
 8329POPC   C1B36787  28.147  20.617   8.555
 8329POPC   C2B36788  28.110  20.621   8.255
 8329POPC   C3B36789  28.101  20.661   7.955
 8329POPC   C4B36790  28.136  20.660   7.655
 8330POPC   NC336791  22.971  36.132   9.455
 8330POPC   PO436792  22.895  36.160   9.155
 8330POPC   GL136793  22.934  36.177   8.855
 8330POPC   GL236794  23.011  36.249   8.855
 8330POPC   C1A36795  22.985  36.080   8.555
 8330POPC   D2A36796  22.932  36.105   8.255
 8330POPC   C3A36797  22.927  36.125   7.955
 8330POPC   C4A36798  22.947  36.082   7.655
 8330POPC   C1B36799  23.087  36.390   8.555
 8330POPC   C2B36800  23.052  36.388   8.255
 8330POPC   C3B36801  23.050  36.396   7.955
 8330POPC   C4B36802  23.046  36.307   7.655
 8331POPC   NC336803  26.813  43.160   9.455
 8331POPC   PO436804  26.844  43.098   9.155
 8331POPC   GL136805  26.866  43.137   8.855
 8331POPC   GL236806  26.842  42.973   8.855
 8331POPC   C1A36807  26.783  43.155   8.555
 8331POPC   D2A36808  26.813  43.129   8.255
 8331POPC   C3A36809  26.843  43.096   7.955
 8331POPC   C4A36810  26.778  43.153   7.655
 8331POPC   C1B36811  26.931  42.897   8.555
 8331POPC   C2B36812  26.891  42.903   8.255
 8331POPC   C3B36813  26.955  42.924   7.955
 8331POPC   C4B36814  26.863  42.844   7.655
 8332POPC   NC336815  12.879  26.858   9.455
 8332POPC   PO436816  12.805  26.851   9.155
 8332POPC   GL136817  12.857  26.778   8.855
 8332POPC   GL236818  12.980  26.860   8.855
 8332POPC   C1A36819  12.833  26.796   8.555
 8332POPC   D2A36820  12.880  26.838   8.255
 8332POPC   C3A36821  12.803  26.793   7.955
 8332POPC   C4A36822  12.864  26.814   7.655
 8332POPC   C1B36823  13.072  26.829   8.555
 8332POPC   C2B36824  13.127  26.829   8.255
 8332POPC   C3B36825  13.109  26.861   7.955
 8332POPC   C4B36826  13.124  26.780   7.655
 8333POPC   NC336827  40.736  34.610   9.455
 8333POPC   PO436828  40.827  34.581   9.155
 8333POPC   GL136829  40.782  34.606   8.855
 8333POPC   GL236830  40.672  34.624   8.855
 8333POPC   C1A36831  40.815  34.533   8.555
 8333POPC   D2A36832  40.783  34.603   8.255
 8333POPC   C3A36833  40.820  34.558   7.955
 8333POPC   C4A36834  40.766  34.605   7.655
 8333POPC   C1B36835  40.570  34.755   8.555
 8333POPC   C2B36836  40.601  34.778   8.255
 8333POPC   C3B36837  40.620  34.719   7.955
 8333POPC   C4B36838  40.544  34.684   7.655
 8334POPC   NC336839  30.745   5.896   9.455
 8334POPC   PO436840  30.713   5.917   9.155
 8334POPC   GL136841  30.671   5.905   8.855
 8334POPC   GL236842  30.638   5.793   8.855
 8334POPC   C1A36843  30.696   5.873   8.555
 8334POPC   D2A36844  30.667   5.878   8.255
 8334POPC   C3A36845  30.738   5.881   7.955
 8334POPC   C4A36846  30.663   5.871   7.655
 8334POPC   C1B36847  30.615   5.670   8.555
 8334POPC   C2B36848  30.628   5.574   8.255
 8334POPC   C3B36849  30.651   5.638   7.955
 8334POPC   C4B36850  30.622   5.585   7.655
 8335POPC   NC336851  36.886  23.760   9.455
 8335POPC   PO436852  36.940  23.723   9.155
 8335POPC   GL136853  36.922  23.745   8.855
 8335POPC   GL236854  37.060  23.749   8.855
 8335POPC   C1A36855  36.880  23.673   8.555
 8335POPC   D2A36856  36.902  23.682   8.255
 8335POPC   C3A36857  36.949  23.722   7.955
 8335POPC   C4A36858  36.865  23.750   7.655
 8335POPC   C1B36859  37.163  23.718   8.555
 8335POPC   C2B36860  37.187  23.721   8.255
 8335POPC   C3B36861  37.185  23.733   7.955
 8335POPC   C4B36862  37.145  23.709   7.655
 8336POPC   NC336863  44.626  15.936   9.455
 8336POPC   PO436864  44.671  15.967   9.155
 8336POPC   GL136865  44.622  15.937   8.855
 8336POPC   GL236866  44.820  15.952   8.855
 8336POPC   C1A36867  44.616  15.927   8.555
 8336POPC   D2A36868  44.629  15.928   8.255
 8336POPC   C3A36869  44.634  15.939   7.955
 8336POPC   C4A36870  44.635  15.950   7.655
 8336POPC   C1B36871  44.907  15.940   8.555
 8336POPC   C2B36872  44.904  15.918   8.255
 8336POPC   C3B36873  44.919  15.924   7.955
 8336POPC   C4B36874  44.884  15.917   7.655
 8337POPC   NC336875   2.738   8.953   9.455
 8337POPC   PO436876   2.779   8.953   9.155
 8337POPC   GL136877   2.750   9.016   8.855
 8337POPC   GL236878   2.698   9.068   8.855
 8337POPC   C1A36879   2.730   8.975   8.555
 8337POPC   D2A36880   2.793   8.978   8.255
 8337POPC   C3A36881   2.805   9.015   7.955
 8337POPC   C4A36882   2.790   8.940   7.655
 8337POPC   C1B36883   2.585   9.081   8.555
 8337POPC   C2B36884   2.558   9.150   8.255
 8337POPC   C3B36885   2.599   9.093   7.955
 8337POPC   C4B36886   2.547   9.077   7.655
 8338POPC   NC336887  34.532  31.502   9.455
 8338POPC   PO436888  34.606  31.464   9.155
 8338POPC   GL136889  34.622  31.481   8.855
 8338POPC   GL236890  34.745  31.525   8.855
 8338POPC   C1A36891  34.601  31.502   8.555
 8338POPC   D2A36892  34.572  31.475   8.255
 8338POPC   C3A36893  34.592  31.508   7.955
 8338POPC   C4A36894  34.552  31.515   7.655
 8338POPC   C1B36895  34.783  31.465   8.555
 8338POPC   C2B36896  34.834  31.519   8.255
 8338POPC   C3B36897  34.859  31.475   7.955
 8338POPC   C4B36898  34.873  31.479   7.655
 8339POPC   NC336899   2.025  21.372   9.455
 8339POPC   PO436900   2.035  21.392   9.155
 8339POPC   GL136901   1.981  21.365   8.855
 8339POPC   GL236902   2.090  21.291   8.855
 8339POPC   C1A36903   1.987  21.405   8.555
 8339POPC   D2A36904   2.033  21.339   8.255
 8339POPC   C3A36905   1.983  21.348   7.955
 8339POPC   C4A36906   2.028  21.383   7.655
 8339POPC   C1B36907   2.137  21.256   8.555
 8339POPC   C2B36908   2.137  21.197   8.255
 8339POPC   C3B36909   2.184  21.202   7.955
 8339POPC   C4B36910   2.131  21.227   7.655
 8340POPC   NC336911  20.575  23.730   9.455
 8340POPC   PO436912  20.613  23.740   9.155
 8340POPC   GL136913  20.645  23.723   8.855
 8340POPC   GL236914  20.654  23.857   8.855
 8340POPC   C1A36915  20.638  23.702   8.555
 8340POPC   D2A36916  20.659  23.722   8.255
 8340POPC   C3A36917  20.603  23.689   7.955
 8340POPC   C4A36918  20.625  23.706   7.655
 8340POPC   C1B36919  20.645  23.949   8.555
 8340POPC   C2B36920  20.689  24.005   8.255
 8340POPC   C3B36921  20.642  23.996   7.955
 8340POPC   C4B36922  20.668  23.929   7.655
 8341POPC   NC336923  42.328  21.337   9.455
 8341POPC   PO436924  42.329  21.380   9.155
 8341POPC   GL136925  42.326  21.379   8.855
 8341POPC   GL236926  42.480  21.422   8.855
 8341POPC   C1A36927  42.345  21.412   8.555
 8341POPC   D2A36928  42.355  21.346   8.255
 8341POPC   C3A36929  42.347  21.411   7.955
 8341POPC   C4A36930  42.316  21.382   7.655
 8341POPC   C1B36931  42.539  21.509   8.555
 8341POPC   C2B36932  42.525  21.500   8.255
 8341POPC   C3B36933  42.538  21.561   7.955
 8341POPC   C4B36934  42.551  21.512   7.655
 8342POPC   NC336935  35.345  26.813   9.455
 8342POPC   PO436936  35.389  26.850   9.155
 8342POPC   GL136937  35.319  26.800   8.855
 8342POPC   GL236938  35.447  26.923   8.855
 8342POPC   C1A36939  35.383  26.833   8.555
 8342POPC   D2A36940  35.366  26.778   8.255
 8342POPC   C3A36941  35.370  26.776   7.955
 8342POPC   C4A36942  35.330  26.843   7.655
 8342POPC   C1B36943  35.577  26.935   8.555
 8342POPC   C2B36944  35.535  26.942   8.255
 8342POPC   C3B36945  35.587  26.953   7.955
 8342POPC   C4B36946  35.586  26.978   7.655
 8343POPC   NC336947  12.884   7.418   9.455
 8343POPC   PO436948  12.865   7.406   9.155
 8343POPC   GL136949  12.863   7.402   8.855
 8343POPC   GL236950  12.934   7.355   8.855
 8343POPC   C1A36951  12.858   7.407   8.555
 8343POPC   D2A36952  12.885   7.377   8.255
 8343POPC   C3A36953  12.823   7.425   7.955
 8343POPC   C4A36954  12.848   7.413   7.655
 8343POPC   C1B36955  13.134   7.373   8.555
 8343POPC   C2B36956  13.047   7.350   8.255
 8343POPC   C3B36957  13.084   7.317   7.955
 8343POPC   C4B36958  13.143   7.386   7.655
 8344POPC   NC336959   1.942  12.077   9.455
 8344POPC   PO436960   2.027  12.092   9.155
 8344POPC   GL136961   1.962  12.081   8.855
 8344POPC   GL236962   2.008  12.211   8.855
 8344POPC   C1A36963   1.952  12.057   8.555
 8344POPC   D2A36964   1.993  12.049   8.255
 8344POPC   C3A36965   1.981  12.100   7.955
 8344POPC   C4A36966   2.006  12.114   7.655
 8344POPC   C1B36967   2.076  12.324   8.555
 8344POPC   C2B36968   2.059  12.262   8.255
 8344POPC   C3B36969   2.025  12.337   7.955
 8344POPC   C4B36970   2.027  12.302   7.655
 8345POPC   NC336971  43.142   4.293   9.455
 8345POPC   PO436972  43.091   4.354   9.155
 8345POPC   GL136973  43.137   4.354   8.855
 8345POPC   GL236974  43.041   4.148   8.855
 8345POPC   C1A36975  43.072   4.311   8.555
 8345POPC   D2A36976  43.108   4.299   8.255
 8345POPC   C3A36977  43.105   4.318   7.955
 8345POPC   C4A36978  43.098   4.340   7.655
 8345POPC   C1B36979  43.105   4.040   8.555
 8345POPC   C2B36980  43.075   4.108   8.255
 8345POPC   C3B36981  43.022   4.109   7.955
 8345POPC   C4B36982  43.053   4.023   7.655
 8346POPC   NC336983  15.172  40.032   9.455
 8346POPC   PO436984  15.212  40.033   9.155
 8346POPC   GL136985  15.226  39.996   8.855
 8346POPC   GL236986  15.226  40.088   8.855
 8346POPC   C1A36987  15.185  39.994   8.555
 8346POPC   D2A36988  15.185  39.957   8.255
 8346POPC   C3A36989  15.187  40.043   7.955
 8346POPC   C4A36990  15.215  40.037   7.655
 8346POPC   C1B36991  15.276  40.270   8.555
 8346POPC   C2B36992  15.288  40.248   8.255
 8346POPC   C3B36993  15.294  40.266   7.955
 8346POPC   C4B36994  15.288  40.209   7.655
 8347POPC   NC336995  20.621   5.881   9.455
 8347POPC   PO436996  20.587   5.890   9.155
 8347POPC   GL136997  20.653   5.919   8.855
 8347POPC   GL236998  20.593   5.776   8.855
 8347POPC   C1A36999  20.568   5.893   8.555
 8347POPC   D2A37000  20.644   5.848   8.255
 8347POPC   C3A37001  20.643   5.841   7.955
 8347POPC   C4A37002  20.637   5.837   7.655
 8347POPC   C1B37003  20.597   5.642   8.555
 8347POPC   C2B37004  20.567   5.614   8.255
 8347POPC   C3B37005  20.622   5.624   7.955
 8347POPC   C4B37006  20.581   5.611   7.655
 8348POPC   NC337007  18.296  12.112   9.455
 8348POPC   PO437008  18.247  12.073   9.155
 8348POPC   GL137009  18.321  12.060   8.855
 8348POPC   GL237010  18.161  12.170   8.855
 8348POPC   C1A37011  18.254  12.027   8.555
 8348POPC   D2A37012  18.254  12.063   8.255
 8348POPC   C3A37013  18.250  12.083   7.955
 8348POPC   C4A37014  18.297  12.077   7.655
 8348POPC   C1B37015  18.108  12.202   8.555
 8348POPC   C2B37016  18.149  12.261   8.255
 8348POPC   C3B37017  18.151  12.252   7.955
 8348POPC   C4B37018  18.143  12.293   7.655
 8349POPC   NC337019  28.336   7.464   9.455
 8349POPC   PO437020  28.363   7.422   9.155
 8349POPC   GL137021  28.398   7.438   8.855
 8349POPC   GL237022  28.388   7.343   8.855
 8349POPC   C1A37023  28.335   7.418   8.555
 8349POPC   D2A37024  28.388   7.409   8.255
 8349POPC   C3A37025  28.397   7.465   7.955
 8349POPC   C4A37026  28.415   7.377   7.655
 8349POPC   C1B37027  28.527   7.155   8.555
 8349POPC   C2B37028  28.504   7.205   8.255
 8349POPC   C3B37029  28.439   7.223   7.955
 8349POPC   C4B37030  28.449   7.231   7.655
 8350POPC   NC337031  25.240  24.512   9.455
 8350POPC   PO437032  25.247  24.511   9.155
 8350POPC   GL137033  25.262  24.538   8.855
 8350POPC   GL237034  25.236  24.344   8.855
 8350POPC   C1A37035  25.242  24.531   8.555
 8350POPC   D2A37036  25.310  24.451   8.255
 8350POPC   C3A37037  25.254  24.489   7.955
 8350POPC   C4A37038  25.258  24.491   7.655
 8350POPC   C1B37039  25.248  24.222   8.555
 8350POPC   C2B37040  25.306  24.263   8.255
 8350POPC   C3B37041  25.317  24.237   7.955
 8350POPC   C4B37042  25.328  24.208   7.655
 8351POPC   NC337043  12.848  27.564   9.455
 8351POPC   PO437044  12.874  27.550   9.155
 8351POPC   GL137045  12.899  27.632   8.855
 8351POPC   GL237046  12.803  27.479   8.855
 8351POPC   C1A37047  12.888  27.544   8.555
 8351POPC   D2A37048  12.836  27.635   8.255
 8351POPC   C3A37049  12.844  27.624   7.955
 8351POPC   C4A37050  12.804  27.595   7.655
 8351POPC   C1B37051  12.658  27.389   8.555
 8351POPC   C2B37052  12.717  27.411   8.255
 8351POPC   C3B37053  12.652  27.410   7.955
 8351POPC   C4B37054  12.707  27.389   7.655
 8352POPC   NC337055  19.817  40.823   9.455
 8352POPC   PO437056  19.874  40.806   9.155
 8352POPC   GL137057  19.803  40.824   8.855
 8352POPC   GL237058  19.795  40.858   8.855
 8352POPC   C1A37059  19.786  40.750   8.555
 8352POPC   D2A37060  19.866  40.830   8.255
 8352POPC   C3A37061  19.872  40.778   7.955
 8352POPC   C4A37062  19.882  40.765   7.655
 8352POPC   C1B37063  19.784  41.001   8.555
 8352POPC   C2B37064  19.839  41.078   8.255
 8352POPC   C3B37065  19.817  40.989   7.955
 8352POPC   C4B37066  19.855  41.043   7.655
 8353POPC   NC337067  44.617  12.803   9.455
 8353POPC   PO437068  44.630  12.854   9.155
 8353POPC   GL137069  44.667  12.816   8.855
 8353POPC   GL237070  44.776  12.949   8.855
 8353POPC   C1A37071  44.616  12.898   8.555
 8353POPC   D2A37072  44.632  12.899   8.255
 8353POPC   C3A37073  44.642  12.893   7.955
 8353POPC   C4A37074  44.643  12.897   7.655
 8353POPC   C1B37075  44.859  12.995   8.555
 8353POPC   C2B37076  44.833  13.040   8.255
 8353POPC   C3B37077  44.828  13.054   7.955
 8353POPC   C4B37078  44.882  13.040   7.655
 8354POPC   NC337079  12.837  23.709   9.455
 8354POPC   PO437080  12.897  23.665   9.155
 8354POPC   GL137081  12.878  23.721   8.855
 8354POPC   GL237082  12.739  23.683   8.855
 8354POPC   C1A37083  12.855  23.763   8.555
 8354POPC   D2A37084  12.836  23.730   8.255
 8354POPC   C3A37085  12.879  23.738   7.955
 8354POPC   C4A37086  12.825  23.712   7.655
 8354POPC   C1B37087  12.652  23.685   8.555
 8354POPC   C2B37088  12.569  23.685   8.255
 8354POPC   C3B37089  12.589  23.716   7.955
 8354POPC   C4B37090  12.597  23.669   7.655
 8355POPC   NC337091  29.119  27.622   9.455
 8355POPC   PO437092  29.105  27.616   9.155
 8355POPC   GL137093  29.147  27.576   8.855
 8355POPC   GL237094  28.990  27.614   8.855
 8355POPC   C1A37095  29.114  27.550   8.555
 8355POPC   D2A37096  29.177  27.565   8.255
 8355POPC   C3A37097  29.173  27.602   7.955
 8355POPC   C4A37098  29.158  27.546   7.655
 8355POPC   C1B37099  28.943  27.623   8.555
 8355POPC   C2B37100  28.939  27.643   8.255
 8355POPC   C3B37101  28.862  27.627   7.955
 8355POPC   C4B37102  28.915  27.607   7.655
 8356POPC   NC337103  19.811  24.501   9.455
 8356POPC   PO437104  19.816  24.465   9.155
 8356POPC   GL137105  19.873  24.459   8.855
 8356POPC   GL237106  19.721  24.431   8.855
 8356POPC   C1A37107  19.832  24.520   8.555
 8356POPC   D2A37108  19.809  24.455   8.255
 8356POPC   C3A37109  19.823  24.511   7.955
 8356POPC   C4A37110  19.804  24.490   7.655
 8356POPC   C1B37111  19.697  24.333   8.555
 8356POPC   C2B37112  19.671  24.282   8.255
 8356POPC   C3B37113  19.717  24.302   7.955
 8356POPC   C4B37114  19.691  24.324   7.655
 8357POPC   NC337115  25.992  32.282   9.455
 8357POPC   PO437116  26.018  32.260   9.155
 8357POPC   GL137117  26.048  32.248   8.855
 8357POPC   GL237118  25.963  32.325   8.855
 8357POPC   C1A37119  25.998  32.216   8.555
 8357POPC   D2A37120  25.998  32.296   8.255
 8357POPC   C3A37121  26.031  32.277   7.955
 8357POPC   C4A37122  26.033  32.199   7.655
 8357POPC   C1B37123  25.873  32.423   8.555
 8357POPC   C2B37124  25.887  32.401   8.255
 8357POPC   C3B37125  25.834  32.399   7.955
 8357POPC   C4B37126  25.897  32.470   7.655
 8358POPC   NC337127  30.672  29.162   9.455
 8358POPC   PO437128  30.715  29.103   9.155
 8358POPC   GL137129  30.739  29.115   8.855
 8358POPC   GL237130  30.801  29.020   8.855
 8358POPC   C1A37131  30.647  29.146   8.555
 8358POPC   D2A37132  30.697  29.188   8.255
 8358POPC   C3A37133  30.659  29.127   7.955
 8358POPC   C4A37134  30.678  29.101   7.655
 8358POPC   C1B37135  30.828  28.961   8.555
 8358POPC   C2B37136  30.808  28.951   8.255
 8358POPC   C3B37137  30.811  28.960   7.955
 8358POPC   C4B37138  30.787  28.904   7.655
 8359POPC   NC337139  22.196  34.562   9.455
 8359POPC   PO437140  22.131  34.624   9.155
 8359POPC   GL137141  22.185  34.619   8.855
 8359POPC   GL237142  21.998  34.565   8.855
 8359POPC   C1A37143  22.178  34.552   8.555
 8359POPC   D2A37144  22.203  34.622   8.255
 8359POPC   C3A37145  22.185  34.609   7.955
 8359POPC   C4A37146  22.127  34.556   7.655
 8359POPC   C1B37147  21.879  34.646   8.555
 8359POPC   C2B37148  21.954  34.584   8.255
 8359POPC   C3B37149  21.912  34.624   7.955
 8359POPC   C4B37150  21.933  34.570   7.655
 8360POPC   NC337151  42.298  17.477   9.455
 8360POPC   PO437152  42.306  17.494   9.155
 8360POPC   GL137153  42.324  17.539   8.855
 8360POPC   GL237154  42.181  17.510   8.855
 8360POPC   C1A37155  42.349  17.469   8.555
 8360POPC   D2A37156  42.289  17.507   8.255
 8360POPC   C3A37157  42.300  17.469   7.955
 8360POPC   C4A37158  42.309  17.543   7.655
 8360POPC   C1B37159  42.037  17.507   8.555
 8360POPC   C2B37160  42.077  17.462   8.255
 8360POPC   C3B37161  42.102  17.442   7.955
 8360POPC   C4B37162  42.048  17.501   7.655
 8361POPC   NC337163  38.428  16.694   9.455
 8361POPC   PO437164  38.486  16.690   9.155
 8361POPC   GL137165  38.464  16.700   8.855
 8361POPC   GL237166  38.414  16.589   8.855
 8361POPC   C1A37167  38.465  16.747   8.555
 8361POPC   D2A37168  38.500  16.695   8.255
 8361POPC   C3A37169  38.472  16.724   7.955
 8361POPC   C4A37170  38.413  16.748   7.655
 8361POPC   C1B37171  38.266  16.559   8.555
 8361POPC   C2B37172  38.323  16.570   8.255
 8361POPC   C3B37173  38.294  16.483   7.955
 8361POPC   C4B37174  38.275  16.575   7.655
 8362POPC   NC337175  11.283  12.045   9.455
 8362POPC   PO437176  11.304  12.036   9.155
 8362POPC   GL137177  11.277  12.036   8.855
 8362POPC   GL237178  11.468  12.067   8.855
 8362POPC   C1A37179  11.266  12.115   8.555
 8362POPC   D2A37180  11.283  12.091   8.255
 8362POPC   C3A37181  11.274  12.083   7.955
 8362POPC   C4A37182  11.285  12.121   7.655
 8362POPC   C1B37183  11.584  12.056   8.555
 8362POPC   C2B37184  11.498  12.106   8.255
 8362POPC   C3B37185  11.516  12.147   7.955
 8362POPC   C4B37186  11.554  12.101   7.655
 8363POPC   NC337187  20.620  24.461   9.455
 8363POPC   PO437188  20.635  24.444   9.155
 8363POPC   GL137189  20.611  24.526   8.855
 8363POPC   GL237190  20.585  24.565   8.855
 8363POPC   C1A37191  20.624  24.536   8.555
 8363POPC   D2A37192  20.621  24.447   8.255
 8363POPC   C3A37193  20.586  24.455   7.955
 8363POPC   C4A37194  20.620  24.457   7.655
 8363POPC   C1B37195  20.656  24.695   8.555
 8363POPC   C2B37196  20.653  24.763   8.255
 8363POPC   C3B37197  20.681  24.750   7.955
 8363POPC   C4B37198  20.695  24.726   7.655
 8364POPC   NC337199  20.655  43.076   9.455
 8364POPC   PO437200  20.564  43.125   9.155
 8364POPC   GL137201  20.650  43.108   8.855
 8364POPC   GL237202  20.517  42.998   8.855
 8364POPC   C1A37203  20.604  43.145   8.555
 8364POPC   D2A37204  20.637  43.088   8.255
 8364POPC   C3A37205  20.595  43.091   7.955
 8364POPC   C4A37206  20.659  43.123   7.655
 8364POPC   C1B37207  20.559  42.856   8.555
 8364POPC   C2B37208  20.484  42.871   8.255
 8364POPC   C3B37209  20.469  42.867   7.955
 8364POPC   C4B37210  20.498  42.863   7.655
 8365POPC   NC337211  17.481  29.127   9.455
 8365POPC   PO437212  17.551  29.168   9.155
 8365POPC   GL137213  17.463  29.165   8.855
 8365POPC   GL237214  17.365  29.207   8.855
 8365POPC   C1A37215  17.523  29.107   8.555
 8365POPC   D2A37216  17.555  29.151   8.255
 8365POPC   C3A37217  17.491  29.189   7.955
 8365POPC   C4A37218  17.547  29.157   7.655
 8365POPC   C1B37219  17.287  29.247   8.555
 8365POPC   C2B37220  17.303  29.288   8.255
 8365POPC   C3B37221  17.245  29.297   7.955
 8365POPC   C4B37222  17.275  29.289   7.655
 8366POPC   NC337223   2.016  36.859   9.455
 8366POPC   PO437224   1.947  36.858   9.155
 8366POPC   GL137225   1.963  36.921   8.855
 8366POPC   GL237226   1.892  36.963   8.855
 8366POPC   C1A37227   2.031  36.885   8.555
 8366POPC   D2A37228   2.025  36.919   8.255
 8366POPC   C3A37229   2.031  36.905   7.955
 8366POPC   C4A37230   1.990  36.886   7.655
 8366POPC   C1B37231   1.746  36.989   8.555
 8366POPC   C2B37232   1.769  37.006   8.255
 8366POPC   C3B37233   1.781  37.037   7.955
 8366POPC   C4B37234   1.751  37.007   7.655
 8367POPC   NC337235  23.696  29.182   9.455
 8367POPC   PO437236  23.722  29.131   9.155
 8367POPC   GL137237  23.741  29.158   8.855
 8367POPC   GL237238  23.747  29.269   8.855
 8367POPC   C1A37239  23.711  29.161   8.555
 8367POPC   D2A37240  23.742  29.182   8.255
 8367POPC   C3A37241  23.725  29.195   7.955
 8367POPC   C4A37242  23.704  29.188   7.655
 8367POPC   C1B37243  23.771  29.422   8.555
 8367POPC   C2B37244  23.811  29.370   8.255
 8367POPC   C3B37245  23.771  29.369   7.955
 8367POPC   C4B37246  23.797  29.421   7.655
 8368POPC   NC337247  37.639  43.156   9.455
 8368POPC   PO437248  37.663  43.142   9.155
 8368POPC   GL137249  37.713  43.101   8.855
 8368POPC   GL237250  37.544  43.061   8.855
 8368POPC   C1A37251  37.671  43.145   8.555
 8368POPC   D2A37252  37.654  43.072   8.255
 8368POPC   C3A37253  37.669  43.128   7.955
 8368POPC   C4A37254  37.633  43.128   7.655
 8368POPC   C1B37255  37.498  42.922   8.555
 8368POPC   C2B37256  37.483  42.929   8.255
 8368POPC   C3B37257  37.483  42.959   7.955
 8368POPC   C4B37258  37.465  42.979   7.655
 8369POPC   NC337259  29.948  36.093   9.455
 8369POPC   PO437260  29.946  36.139   9.155
 8369POPC   GL137261  29.919  36.125   8.855
 8369POPC   GL237262  30.058  36.038   8.855
 8369POPC   C1A37263  29.948  36.170   8.555
 8369POPC   D2A37264  29.930  36.144   8.255
 8369POPC   C3A37265  29.959  36.138   7.955
 8369POPC   C4A37266  29.954  36.164   7.655
 8369POPC   C1B37267  30.191  36.047   8.555
 8369POPC   C2B37268  30.173  36.072   8.255
 8369POPC   C3B37269  30.115  36.004   7.955
 8369POPC   C4B37270  30.189  36.033   7.655
 8370POPC   NC337271  12.862  12.804   9.455
 8370POPC   PO437272  12.876  12.818   9.155
 8370POPC   GL137273  12.868  12.884   8.855
 8370POPC   GL237274  12.780  12.961   8.855
 8370POPC   C1A37275  12.813  12.811   8.555
 8370POPC   D2A37276  12.827  12.886   8.255
 8370POPC   C3A37277  12.883  12.889   7.955
 8370POPC   C4A37278  12.872  12.887   7.655
 8370POPC   C1B37279  12.701  13.022   8.555
 8370POPC   C2B37280  12.695  13.103   8.255
 8370POPC   C3B37281  12.695  13.024   7.955
 8370POPC   C4B37282  12.729  13.047   7.655
 8371POPC   NC337283  20.565  43.861   9.455
 8371POPC   PO437284  20.579  43.916   9.155
 8371POPC   GL137285  20.632  43.920   8.855
 8371POPC   GL237286  20.714  43.956   8.855
 8371POPC   C1A37287  20.651  43.922   8.555
 8371POPC   D2A37288  20.612  43.896   8.255
 8371POPC   C3A37289  20.647  43.856   7.955
 8371POPC   C4A37290  20.644  43.852   7.655
 8371POPC   C1B37291  20.827  43.967   8.555
 8371POPC   C2B37292  20.809  43.992   8.255
 8371POPC   C3B37293  20.854  43.994   7.955
 8371POPC   C4B37294  20.792  44.029   7.655
 8372POPC   NC337295  16.759  36.878   9.455
 8372POPC   PO437296  16.707  36.941   9.155
 8372POPC   GL137297  16.774  36.916   8.855
 8372POPC   GL237298  16.852  36.967   8.855
 8372POPC   C1A37299  16.682  36.863   8.555
 8372POPC   D2A37300  16.728  36.871   8.255
 8372POPC   C3A37301  16.764  36.925   7.955
 8372POPC   C4A37302  16.728  36.873   7.655
 8372POPC   C1B37303  16.911  37.141   8.555
 8372POPC   C2B37304  16.885  37.099   8.255
 8372POPC   C3B37305  16.927  37.112   7.955
 8372POPC   C4B37306  16.862  37.054   7.655
 8373POPC   NC337307  34.553  20.657   9.455
 8373POPC   PO437308  34.614  20.589   9.155
 8373POPC   GL137309  34.602  20.639   8.855
 8373POPC   GL237310  34.705  20.604   8.855
 8373POPC   C1A37311  34.570  20.576   8.555
 8373POPC   D2A37312  34.589  20.639   8.255
 8373POPC   C3A37313  34.615  20.642   7.955
 8373POPC   C4A37314  34.527  20.606   7.655
 8373POPC   C1B37315  34.857  20.514   8.555
 8373POPC   C2B37316  34.781  20.549   8.255
 8373POPC   C3B37317  34.767  20.555   7.955
 8373POPC   C4B37318  34.855  20.552   7.655
 8374POPC   NC337319  30.713  26.044   9.455
 8374POPC   PO437320  30.739  26.011   9.155
 8374POPC   GL137321  30.715  26.047   8.855
 8374POPC   GL237322  30.579  25.963   8.855
 8374POPC   C1A37323  30.672  26.029   8.555
 8374POPC   D2A37324  30.722  26.069   8.255
 8374POPC   C3A37325  30.664  26.057   7.955
 8374POPC   C4A37326  30.701  26.027   7.655
 8374POPC   C1B37327  30.439  25.937   8.555
 8374POPC   C2B37328  30.477  25.916   8.255
 8374POPC   C3B37329  30.456  25.935   7.955
 8374POPC   C4B37330  30.515  25.967   7.655
 8375POPC   NC337331   1.171  43.152   9.455
 8375POPC   PO437332   1.229  43.071   9.155
 8375POPC   GL137333   1.232  43.129   8.855
 8375POPC   GL237334   1.352  43.203   8.855
 8375POPC   C1A37335   1.187  43.092   8.555
 8375POPC   D2A37336   1.229  43.099   8.255
 8375POPC   C3A37337   1.188  43.132   7.955
 8375POPC   C4A37338   1.241  43.069   7.655
 8375POPC   C1B37339   1.466  43.268   8.555
 8375POPC   C2B37340   1.390  43.197   8.255
 8375POPC   C3B37341   1.409  43.294   7.955
 8375POPC   C4B37342   1.452  43.256   7.655
 8376POPC   NC337343   9.742   5.821   9.455
 8376POPC   PO437344   9.721   5.881   9.155
 8376POPC   GL137345   9.700   5.887   8.855
 8376POPC   GL237346   9.820   5.952   8.855
 8376POPC   C1A37347   9.780   5.899   8.555
 8376POPC   D2A37348   9.757   5.861   8.255
 8376POPC   C3A37349   9.783   5.822   7.955
 8376POPC   C4A37350   9.767   5.823   7.655
 8376POPC   C1B37351   9.995   6.037   8.555
 8376POPC   C2B37352   9.918   5.987   8.255
 8376POPC   C3B37353   9.942   6.003   7.955
 8376POPC   C4B37354   9.936   6.055   7.655
 8377POPC   NC337355   1.260  39.989   9.455
 8377POPC   PO437356   1.210  39.989   9.155
 8377POPC   GL137357   1.203  39.989   8.855
 8377POPC   GL237358   1.131  40.050   8.855
 8377POPC   C1A37359   1.192  39.961   8.555
 8377POPC   D2A37360   1.198  39.963   8.255
 8377POPC   C3A37361   1.228  40.002   7.955
 8377POPC   C4A37362   1.196  39.989   7.655
 8377POPC   C1B37363   1.047  40.106   8.555
 8377POPC   C2B37364   0.971  40.098   8.255
 8377POPC   C3B37365   0.980  40.162   7.955
 8377POPC   C4B37366   0.995  40.131   7.655
 8378POPC   NC337367   7.428  17.506   9.455
 8378POPC   PO437368   7.383  17.551   9.155
 8378POPC   GL137369   7.425  17.536   8.855
 8378POPC   GL237370   7.366  17.655   8.855
 8378POPC   C1A37371   7.391  17.464   8.555
 8378POPC   D2A37372   7.469  17.457   8.255
 8378POPC   C3A37373   7.390  17.548   7.955
 8378POPC   C4A37374   7.390  17.470   7.655
 8378POPC   C1B37375   7.257  17.728   8.555
 8378POPC   C2B37376   7.235  17.706   8.255
 8378POPC   C3B37377   7.217  17.730   7.955
 8378POPC   C4B37378   7.218  17.709   7.655
 8379POPC   NC337379  28.404  22.123   9.455
 8379POPC   PO437380  28.352  22.126   9.155
 8379POPC   GL137381  28.332  22.159   8.855
 8379POPC   GL237382  28.375  22.256   8.855
 8379POPC   C1A37383  28.346  22.148   8.555
 8379POPC   D2A37384  28.413  22.137   8.255
 8379POPC   C3A37385  28.360  22.144   7.955
 8379POPC   C4A37386  28.416  22.206   7.655
 8379POPC   C1B37387  28.462  22.359   8.555
 8379POPC   C2B37388  28.389  22.403   8.255
 8379POPC   C3B37389  28.448  22.392   7.955
 8379POPC   C4B37390  28.385  22.395   7.655
 8380POPC   NC337391  12.060  15.150   9.455
 8380POPC   PO437392  12.039  15.219   9.155
 8380POPC   GL137393  12.101  15.146   8.855
 8380POPC   GL237394  11.968  15.229   8.855
 8380POPC   C1A37395  12.050  15.157   8.555
 8380POPC   D2A37396  12.049  15.203   8.255
 8380POPC   C3A37397  12.070  15.134   7.955
 8380POPC   C4A37398  12.089  15.160   7.655
 8380POPC   C1B37399  11.835  15.318   8.555
 8380POPC   C2B37400  11.887  15.381   8.255
 8380POPC   C3B37401  11.907  15.334   7.955
 8380POPC   C4B37402  11.916  15.334   7.655
 8381POPC   NC337403  36.104   0.432   9.455
 8381POPC   PO437404  36.088   0.413   9.155
 8381POPC   GL137405  36.102   0.437   8.855
 8381POPC   GL237406  36.015   0.376   8.855
 8381POPC   C1A37407  36.154   0.426   8.555
 8381POPC   D2A37408  36.140   0.440   8.255
 8381POPC   C3A37409  36.082   0.460   7.955
 8381POPC   C4A37410  36.149   0.396   7.655
 8381POPC   C1B37411  35.893   0.320   8.555
 8381POPC   C2B37412  35.929   0.401   8.255
 8381POPC   C3B37413  35.913   0.360   7.955
 8381POPC   C4B37414  35.841   0.337   7.655
 8382POPC   NC337415  38.469  19.060   9.455
 8382POPC   PO437416  38.470  19.039   9.155
 8382POPC   GL137417  38.496  19.060   8.855
 8382POPC   GL237418  38.394  19.171   8.855
 8382POPC   C1A37419  38.496  19.033   8.555
 8382POPC   D2A37420  38.453  19.079   8.255
 8382POPC   C3A37421  38.460  19.060   7.955
 8382POPC   C4A37422  38.504  19.077   7.655
 8382POPC   C1B37423  38.264  19.209   8.555
 8382POPC   C2B37424  38.220  19.210   8.255
 8382POPC   C3B37425  38.223  19.269   7.955
 8382POPC   C4B37426  38.226  19.256   7.655
 8383POPC   NC337427  19.087  28.394   9.455
 8383POPC   PO437428  19.038  28.360   9.155
 8383POPC   GL137429  19.037  28.377   8.855
 8383POPC   GL237430  18.961  28.246   8.855
 8383POPC   C1A37431  19.031  28.400   8.555
 8383POPC   D2A37432  19.034  28.391   8.255
 8383POPC   C3A37433  19.031  28.374   7.955
 8383POPC   C4A37434  19.101  28.363   7.655
 8383POPC   C1B37435  18.881  28.172   8.555
 8383POPC   C2B37436  18.920  28.221   8.255
 8383POPC   C3B37437  18.865  28.197   7.955
 8383POPC   C4B37438  18.918  28.174   7.655
 8384POPC   NC337439  11.263  40.033   9.455
 8384POPC   PO437440  11.311  39.969   9.155
 8384POPC   GL137441  11.320  39.987   8.855
 8384POPC   GL237442  11.426  40.068   8.855
 8384POPC   C1A37443  11.311  39.998   8.555
 8384POPC   D2A37444  11.300  39.995   8.255
 8384POPC   C3A37445  11.281  39.978   7.955
 8384POPC   C4A37446  11.313  40.031   7.655
 8384POPC   C1B37447  11.500  40.196   8.555
 8384POPC   C2B37448  11.540  40.182   8.255
 8384POPC   C3B37449  11.499  40.163   7.955
 8384POPC   C4B37450  11.462  40.145   7.655
 8385POPC   NC337451  17.507  10.516   9.455
 8385POPC   PO437452  17.486  10.485   9.155
 8385POPC   GL137453  17.509  10.567   8.855
 8385POPC   GL237454  17.494  10.641   8.855
 8385POPC   C1A37455  17.532  10.519   8.555
 8385POPC   D2A37456  17.552  10.557   8.255
 8385POPC   C3A37457  17.532  10.490   7.955
 8385POPC   C4A37458  17.499  10.549   7.655
 8385POPC   C1B37459  17.409  10.750   8.555
 8385POPC   C2B37460  17.412  10.716   8.255
 8385POPC   C3B37461  17.433  10.768   7.955
 8385POPC   C4B37462  17.401  10.719   7.655
 8386POPC   NC337463  29.919  18.300   9.455
 8386POPC   PO437464  29.965  18.266   9.155
 8386POPC   GL137465  29.926  18.252   8.855
 8386POPC   GL237466  29.776  18.355   8.855
 8386POPC   C1A37467  29.890  18.267   8.555
 8386POPC   D2A37468  29.876  18.257   8.255
 8386POPC   C3A37469  29.884  18.287   7.955
 8386POPC   C4A37470  29.921  18.275   7.655
 8386POPC   C1B37471  29.658  18.405   8.555
 8386POPC   C2B37472  29.701  18.398   8.255
 8386POPC   C3B37473  29.721  18.334   7.955
 8386POPC   C4B37474  29.673  18.356   7.655
 8387POPC   NC337475  29.164   3.585   9.455
 8387POPC   PO437476  29.163   3.579   9.155
 8387POPC   GL137477  29.171   3.577   8.855
 8387POPC   GL237478  29.273   3.500   8.855
 8387POPC   C1A37479  29.190   3.522   8.555
 8387POPC   D2A37480  29.178   3.529   8.255
 8387POPC   C3A37481  29.106   3.524   7.955
 8387POPC   C4A37482  29.113   3.501   7.655
 8387POPC   C1B37483  29.319   3.398   8.555
 8387POPC   C2B37484  29.356   3.422   8.255
 8387POPC   C3B37485  29.322   3.427   7.955
 8387POPC   C4B37486  29.301   3.342   7.655
 8388POPC   NC337487   2.794   1.236   9.455
 8388POPC   PO437488   2.739   1.165   9.155
 8388POPC   GL137489   2.805   1.255   8.855
 8388POPC   GL237490   2.683   1.183   8.855
 8388POPC   C1A37491   2.766   1.222   8.555
 8388POPC   D2A37492   2.788   1.239   8.255
 8388POPC   C3A37493   2.769   1.231   7.955
 8388POPC   C4A37494   2.742   1.213   7.655
 8388POPC   C1B37495   2.589   1.049   8.555
 8388POPC   C2B37496   2.517   1.092   8.255
 8388POPC   C3B37497   2.588   1.083   7.955
 8388POPC   C4B37498   2.538   1.095   7.655
 8389POPC   NC337499  20.631  29.919   9.455
 8389POPC   PO437500  20.603  29.958   9.155
 8389POPC   GL137501  20.642  29.950   8.855
 8389POPC   GL237502  20.683  29.917   8.855
 8389POPC   C1A37503  20.560  29.925   8.555
 8389POPC   D2A37504  20.630  29.966   8.255
 8389POPC   C3A37505  20.565  29.890   7.955
 8389POPC   C4A37506  20.624  29.963   7.655
 8389POPC   C1B37507  20.847  30.033   8.555
 8389POPC   C2B37508  20.898  29.976   8.255
 8389POPC   C3B37509  20.892  29.946   7.955
 8389POPC   C4B37510  20.888  29.945   7.655
 8390POPC   NC337511  19.837  34.619   9.455
 8390POPC   PO437512  19.824  34.606   9.155
 8390POPC   GL137513  19.872  34.621   8.855
 8390POPC   GL237514  19.662  34.570   8.855
 8390POPC   C1A37515  19.877  34.570   8.555
 8390POPC   D2A37516  19.883  34.620   8.255
 8390POPC   C3A37517  19.819  34.544   7.955
 8390POPC   C4A37518  19.858  34.555   7.655
 8390POPC   C1B37519  19.571  34.555   8.555
 8390POPC   C2B37520  19.569  34.570   8.255
 8390POPC   C3B37521  19.590  34.616   7.955
 8390POPC   C4B37522  19.597  34.567   7.655
 8391POPC   NC337523  20.640  32.994   9.455
 8391POPC   PO437524  20.623  33.048   9.155
 8391POPC   GL137525  20.623  32.978   8.855
 8391POPC   GL237526  20.726  32.984   8.855
 8391POPC   C1A37527  20.597  33.056   8.555
 8391POPC   D2A37528  20.611  33.056   8.255
 8391POPC   C3A37529  20.567  33.033   7.955
 8391POPC   C4A37530  20.633  33.007   7.655
 8391POPC   C1B37531  20.815  32.935   8.555
 8391POPC   C2B37532  20.806  32.957   8.255
 8391POPC   C3B37533  20.853  32.970   7.955
 8391POPC   C4B37534  20.860  32.988   7.655
 8392POPC   NC337535  36.088  19.799   9.455
 8392POPC   PO437536  36.118  19.799   9.155
 8392POPC   GL137537  36.105  19.787   8.855
 8392POPC   GL237538  36.117  19.672   8.855
 8392POPC   C1A37539  36.110  19.839   8.555
 8392POPC   D2A37540  36.098  19.858   8.255
 8392POPC   C3A37541  36.142  19.883   7.955
 8392POPC   C4A37542  36.154  19.796   7.655
 8392POPC   C1B37543  36.149  19.609   8.555
 8392POPC   C2B37544  36.094  19.588   8.255
 8392POPC   C3B37545  36.108  19.588   7.955
 8392POPC   C4B37546  36.138  19.602   7.655
 8393POPC   NC337547  30.731  43.907   9.455
 8393POPC   PO437548  30.678  43.845   9.155
 8393POPC   GL137549  30.681  43.887   8.855
 8393POPC   GL237550  30.648  43.831   8.855
 8393POPC   C1A37551  30.736  43.874   8.555
 8393POPC   D2A37552  30.674  43.934   8.255
 8393POPC   C3A37553  30.688  43.921   7.955
 8393POPC   C4A37554  30.672  43.890   7.655
 8393POPC   C1B37555  30.520  43.737   8.555
 8393POPC   C2B37556  30.558  43.737   8.255
 8393POPC   C3B37557  30.513  43.734   7.955
 8393POPC   C4B37558  30.488  43.736   7.655
 8394POPC   NC337559  15.961  31.513   9.455
 8394POPC   PO437560  15.940  31.486   9.155
 8394POPC   GL137561  15.994  31.487   8.855
 8394POPC   GL237562  15.973  31.378   8.855
 8394POPC   C1A37563  15.996  31.464   8.555
 8394POPC   D2A37564  15.915  31.510   8.255
 8394POPC   C3A37565  15.989  31.459   7.955
 8394POPC   C4A37566  15.914  31.519   7.655
 8394POPC   C1B37567  15.890  31.225   8.555
 8394POPC   C2B37568  15.894  31.238   8.255
 8394POPC   C3B37569  15.923  31.201   7.955
 8394POPC   C4B37570  15.873  31.205   7.655
 8395POPC   NC337571  35.334  23.684   9.455
 8395POPC   PO437572  35.339  23.732   9.155
 8395POPC   GL137573  35.361  23.689   8.855
 8395POPC   GL237574  35.441  23.817   8.855
 8395POPC   C1A37575  35.306  23.737   8.555
 8395POPC   D2A37576  35.345  23.693   8.255
 8395POPC   C3A37577  35.303  23.700   7.955
 8395POPC   C4A37578  35.338  23.755   7.655
 8395POPC   C1B37579  35.594  23.808   8.555
 8395POPC   C2B37580  35.538  23.861   8.255
 8395POPC   C3B37581  35.575  23.832   7.955
 8395POPC   C4B37582  35.594  23.840   7.655
 8396POPC   NC337583  40.763   7.395   9.455
 8396POPC   PO437584  40.758   7.397   9.155
 8396POPC   GL137585  40.770   7.405   8.855
 8396POPC   GL237586  40.837   7.505   8.855
 8396POPC   C1A37587  40.832   7.392   8.555
 8396POPC   D2A37588  40.809   7.462   8.255
 8396POPC   C3A37589  40.813   7.402   7.955
 8396POPC   C4A37590  40.739   7.464   7.655
 8396POPC   C1B37591  40.974   7.623   8.555
 8396POPC   C2B37592  40.953   7.593   8.255
 8396POPC   C3B37593  40.929   7.555   7.955
 8396POPC   C4B37594  40.948   7.617   7.655
 8397POPC   NC337595  25.267  35.388   9.455
 8397POPC   PO437596  25.243  35.336   9.155
 8397POPC   GL137597  25.231  35.357   8.855
 8397POPC   GL237598  25.159  35.292   8.855
 8397POPC   C1A37599  25.277  35.390   8.555
 8397POPC   D2A37600  25.310  35.316   8.255
 8397POPC   C3A37601  25.293  35.361   7.955
 8397POPC   C4A37602  25.234  35.345   7.655
 8397POPC   C1B37603  25.050  35.306   8.555
 8397POPC   C2B37604  24.985  35.270   8.255
 8397POPC   C3B37605  25.037  35.293   7.955
 8397POPC   C4B37606  25.055  35.247   7.655
 8398POPC   NC337607  35.377  19.812   9.455
 8398POPC   PO437608  35.380  19.794   9.155
 8398POPC   GL137609  35.330  19.818   8.855
 8398POPC   GL237610  35.453  19.771   8.855
 8398POPC   C1A37611  35.346  19.824   8.555
 8398POPC   D2A37612  35.335  19.876   8.255
 8398POPC   C3A37613  35.391  19.824   7.955
 8398POPC   C4A37614  35.331  19.810   7.655
 8398POPC   C1B37615  35.564  19.719   8.555
 8398POPC   C2B37616  35.574  19.694   8.255
 8398POPC   C3B37617  35.565  19.735   7.955
 8398POPC   C4B37618  35.590  19.728   7.655
 8399POPC   NC337619  11.296  23.694   9.455
 8399POPC   PO437620  11.272  23.710   9.155
 8399POPC   GL137621  11.267  23.692   8.855
 8399POPC   GL237622  11.219  23.722   8.855
 8399POPC   C1A37623  11.286  23.741   8.555
 8399POPC   D2A37624  11.347  23.690   8.255
 8399POPC   C3A37625  11.309  23.709   7.955
 8399POPC   C4A37626  11.290  23.752   7.655
 8399POPC   C1B37627  11.112  23.814   8.555
 8399POPC   C2B37628  11.076  23.834   8.255
 8399POPC   C3B37629  11.032  23.816   7.955
 8399POPC   C4B37630  11.080  23.820   7.655
 8400POPC   NC337631  10.486  42.302   9.455
 8400POPC   PO437632  10.565  42.330   9.155
 8400POPC   GL137633  10.566  42.348   8.855
 8400POPC   GL237634  10.621  42.388   8.855
 8400POPC   C1A37635  10.534  42.320   8.555
 8400POPC   D2A37636  10.564  42.381   8.255
 8400POPC   C3A37637  10.560  42.285   7.955
 8400POPC   C4A37638  10.544  42.359   7.655
 8400POPC   C1B37639  10.786  42.451   8.555
 8400POPC   C2B37640  10.760  42.485   8.255
 8400POPC   C3B37641  10.754  42.484   7.955
 8400POPC   C4B37642  10.703  42.460   7.655
 8401POPC   NC337643  33.767  12.828   9.455
 8401POPC   PO437644  33.822  12.896   9.155
 8401POPC   GL137645  33.762  12.874   8.855
 8401POPC   GL237646  33.749  12.987   8.855
 8401POPC   C1A37647  33.752  12.831   8.555
 8401POPC   D2A37648  33.755  12.835   8.255
 8401POPC   C3A37649  33.798  12.832   7.955
 8401POPC   C4A37650  33.801  12.896   7.655
 8401POPC   C1B37651  33.783  13.113   8.555
 8401POPC   C2B37652  33.717  13.091   8.255
 8401POPC   C3B37653  33.713  13.139   7.955
 8401POPC   C4B37654  33.759  13.057   7.655
 8402POPC   NC337655   0.416  36.096   9.455
 8402POPC   PO437656   0.416  36.163   9.155
 8402POPC   GL137657   0.398  36.094   8.855
 8402POPC   GL237658   0.457  36.022   8.855
 8402POPC   C1A37659   0.421  36.152   8.555
 8402POPC   D2A37660   0.412  36.119   8.255
 8402POPC   C3A37661   0.442  36.152   7.955
 8402POPC   C4A37662   0.434  36.163   7.655
 8402POPC   C1B37663   0.479  35.909   8.555
 8402POPC   C2B37664   0.517  35.940   8.255
 8402POPC   C3B37665   0.519  35.924   7.955
 8402POPC   C4B37666   0.525  35.852   7.655
 8403POPC   NC337667  29.946  31.434   9.455
 8403POPC   PO437668  29.969  31.453   9.155
 8403POPC   GL137669  29.953  31.437   8.855
 8403POPC   GL237670  30.021  31.596   8.855
 8403POPC   C1A37671  29.933  31.422   8.555
 8403POPC   D2A37672  29.883  31.434   8.255
 8403POPC   C3A37673  29.898  31.470   7.955
 8403POPC   C4A37674  29.895  31.501   7.655
 8403POPC   C1B37675  30.048  31.709   8.555
 8403POPC   C2B37676  30.083  31.656   8.255
 8403POPC   C3B37677  30.036  31.684   7.955
 8403POPC   C4B37678  30.067  31.651   7.655
 8404POPC   NC337679  27.602   1.259   9.455
 8404POPC   PO437680  27.613   1.184   9.155
 8404POPC   GL137681  27.576   1.174   8.855
 8404POPC   GL237682  27.568   1.312   8.855
 8404POPC   C1A37683  27.623   1.188   8.555
 8404POPC   D2A37684  27.612   1.194   8.255
 8404POPC   C3A37685  27.642   1.214   7.955
 8404POPC   C4A37686  27.619   1.180   7.655
 8404POPC   C1B37687  27.562   1.472   8.555
 8404POPC   C2B37688  27.582   1.431   8.255
 8404POPC   C3B37689  27.524   1.413   7.955
 8404POPC   C4B37690  27.562   1.440   7.655
 8405POPC   NC337691  39.189   3.551   5.555
 8405POPC   PO437692  39.277   3.546   5.855
 8405POPC   GL137693  39.219   3.532   6.155
 8405POPC   GL237694  39.336   3.570   6.155
 8405POPC   C1A37695  39.195   3.493   6.455
 8405POPC   D2A37696  39.261   3.555   6.755
 8405POPC   C3A37697  39.220   3.517   7.055
 8405POPC   C4A37698  39.263   3.497   7.355
 8405POPC   C1B37699  39.424   3.619   6.455
 8405POPC   C2B37700  39.474   3.651   6.755
 8405POPC   C3B37701  39.475   3.677   7.055
 8405POPC   C4B37702  39.493   3.641   7.355
 8406POPC   NC337703   5.055  38.479   5.555
 8406POPC   PO437704   5.072  38.452   5.855
 8406POPC   GL137705   5.127  38.485   6.155
 8406POPC   GL237706   4.985  38.443   6.155
 8406POPC   C1A37707   5.069  38.451   6.455
 8406POPC   D2A37708   5.116  38.503   6.755
 8406POPC   C3A37709   5.054  38.494   7.055
 8406POPC   C4A37710   5.065  38.497   7.355
 8406POPC   C1B37711   4.904  38.300   6.455
 8406POPC   C2B37712   4.915  38.321   6.755
 8406POPC   C3B37713   4.872  38.324   7.055
 8406POPC   C4B37714   4.836  38.361   7.355
 8407POPC   NC337715  40.738   5.837   5.555
 8407POPC   PO437716  40.804   5.847   5.855
 8407POPC   GL137717  40.809   5.873   6.155
 8407POPC   GL237718  40.830   5.710   6.155
 8407POPC   C1A37719  40.761   5.916   6.455
 8407POPC   D2A37720  40.803   5.839   6.755
 8407POPC   C3A37721  40.755   5.855   7.055
 8407POPC   C4A37722  40.733   5.901   7.355
 8407POPC   C1B37723  40.824   5.660   6.455
 8407POPC   C2B37724  40.815   5.628   6.755
 8407POPC   C3B37725  40.819   5.583   7.055
 8407POPC   C4B37726  40.858   5.609   7.355
 8408POPC   NC337727   8.227  39.967   5.555
 8408POPC   PO437728   8.238  40.052   5.855
 8408POPC   GL137729   8.169  39.981   6.155
 8408POPC   GL237730   8.226  39.863   6.155
 8408POPC   C1A37731   8.178  39.975   6.455
 8408POPC   D2A37732   8.236  39.989   6.755
 8408POPC   C3A37733   8.210  39.967   7.055
 8408POPC   C4A37734   8.200  39.986   7.355
 8408POPC   C1B37735   8.322  39.831   6.455
 8408POPC   C2B37736   8.314  39.782   6.755
 8408POPC   C3B37737   8.356  39.806   7.055
 8408POPC   C4B37738   8.326  39.823   7.355
 8409POPC   NC337739   5.139  10.502   5.555
 8409POPC   PO437740   5.054  10.511   5.855
 8409POPC   GL137741   5.044  10.545   6.155
 8409POPC   GL237742   4.987  10.545   6.155
 8409POPC   C1A37743   5.073  10.566   6.455
 8409POPC   D2A37744   5.143  10.541   6.755
 8409POPC   C3A37745   5.115  10.529   7.055
 8409POPC   C4A37746   5.122  10.528   7.355
 8409POPC   C1B37747   4.826  10.653   6.455
 8409POPC   C2B37748   4.883  10.614   6.755
 8409POPC   C3B37749   4.862  10.637   7.055
 8409POPC   C4B37750   4.901  10.588   7.355
 8410POPC   NC337751  25.284  42.349   5.555
 8410POPC   PO437752  25.249  42.352   5.855
 8410POPC   GL137753  25.257  42.384   6.155
 8410POPC   GL237754  25.164  42.410   6.155
 8410POPC   C1A37755  25.301  42.295   6.455
 8410POPC   D2A37756  25.307  42.328   6.755
 8410POPC   C3A37757  25.285  42.285   7.055
 8410POPC   C4A37758  25.284  42.302   7.355
 8410POPC   C1B37759  25.036  42.445   6.455
 8410POPC   C2B37760  25.005  42.419   6.755
 8410POPC   C3B37761  24.990  42.424   7.055
 8410POPC   C4B37762  25.064  42.414   7.355
 8411POPC   NC337763  43.903  23.697   5.555
 8411POPC   PO437764  43.926  23.740   5.855
 8411POPC   GL137765  43.926  23.718   6.155
 8411POPC   GL237766  43.975  23.805   6.155
 8411POPC   C1A37767  43.851  23.750   6.455
 8411POPC   D2A37768  43.888  23.711   6.755
 8411POPC   C3A37769  43.875  23.707   7.055
 8411POPC   C4A37770  43.925  23.717   7.355
 8411POPC   C1B37771  43.940  23.985   6.455
 8411POPC   C2B37772  43.964  23.974   6.755
 8411POPC   C3B37773  43.937  23.961   7.055
 8411POPC   C4B37774  44.008  23.986   7.355
 8412POPC   NC337775  33.056  26.830   5.555
 8412POPC   PO437776  33.030  26.770   5.855
 8412POPC   GL137777  33.025  26.768   6.155
 8412POPC   GL237778  33.157  26.794   6.155
 8412POPC   C1A37779  32.987  26.812   6.455
 8412POPC   D2A37780  33.039  26.856   6.755
 8412POPC   C3A37781  33.014  26.779   7.055
 8412POPC   C4A37782  33.073  26.848   7.355
 8412POPC   C1B37783  33.226  26.750   6.455
 8412POPC   C2B37784  33.280  26.686   6.755
 8412POPC   C3B37785  33.254  26.763   7.055
 8412POPC   C4B37786  33.246  26.689   7.355
 8413POPC   NC337787  22.162  29.920   5.555
 8413POPC   PO437788  22.184  29.905   5.855
 8413POPC   GL137789  22.146  29.896   6.155
 8413POPC   GL237790  22.123  29.813   6.155
 8413POPC   C1A37791  22.170  29.920   6.455
 8413POPC   D2A37792  22.118  29.879   6.755
 8413POPC   C3A37793  22.137  29.960   7.055
 8413POPC   C4A37794  22.133  29.910   7.355
 8413POPC   C1B37795  22.077  29.714   6.455
 8413POPC   C2B37796  22.065  29.683   6.755
 8413POPC   C3B37797  22.067  29.742   7.055
 8413POPC   C4B37798  22.037  29.694   7.355
 8414POPC   NC337799  15.176  30.700   5.555
 8414POPC   PO437800  15.200  30.681   5.855
 8414POPC   GL137801  15.130  30.668   6.155
 8414POPC   GL237802  15.175  30.790   6.155
 8414POPC   C1A37803  15.188  30.684   6.455
 8414POPC   D2A37804  15.215  30.725   6.755
 8414POPC   C3A37805  15.194  30.650   7.055
 8414POPC   C4A37806  15.190  30.715   7.355
 8414POPC   C1B37807  15.190  30.914   6.455
 8414POPC   C2B37808  15.208  30.976   6.755
 8414POPC   C3B37809  15.165  30.896   7.055
 8414POPC   C4B37810  15.152  30.979   7.355
 8415POPC   NC337811  35.371  26.768   5.555
 8415POPC   PO437812  35.305  26.848   5.855
 8415POPC   GL137813  35.392  26.858   6.155
 8415POPC   GL237814  35.469  26.781   6.155
 8415POPC   C1A37815  35.307  26.814   6.455
 8415POPC   D2A37816  35.384  26.834   6.755
 8415POPC   C3A37817  35.337  26.861   7.055
 8415POPC   C4A37818  35.354  26.795   7.355
 8415POPC   C1B37819  35.561  26.863   6.455
 8415POPC   C2B37820  35.599  26.787   6.755
 8415POPC   C3B37821  35.623  26.841   7.055
 8415POPC   C4B37822  35.622  26.810   7.355
 8416POPC   NC337823   9.720  39.228   5.555
 8416POPC   PO437824   9.767  39.232   5.855
 8416POPC   GL137825   9.728  39.257   6.155
 8416POPC   GL237826   9.796  39.381   6.155
 8416POPC   C1A37827   9.712  39.198   6.455
 8416POPC   D2A37828   9.780  39.199   6.755
 8416POPC   C3A37829   9.794  39.273   7.055
 8416POPC   C4A37830   9.706  39.272   7.355
 8416POPC   C1B37831   9.852  39.416   6.455
 8416POPC   C2B37832   9.905  39.478   6.755
 8416POPC   C3B37833   9.821  39.419   7.055
 8416POPC   C4B37834   9.884  39.426   7.355
 8417POPC   NC337835  19.867  11.303   5.555
 8417POPC   PO437836  19.832  11.309   5.855
 8417POPC   GL137837  19.822  11.318   6.155
 8417POPC   GL237838  19.898  11.405   6.155
 8417POPC   C1A37839  19.852  11.302   6.455
 8417POPC   D2A37840  19.797  11.292   6.755
 8417POPC   C3A37841  19.792  11.297   7.055
 8417POPC   C4A37842  19.836  11.324   7.355
 8417POPC   C1B37843  19.997  11.532   6.455
 8417POPC   C2B37844  19.961  11.466   6.755
 8417POPC   C3B37845  19.944  11.466   7.055
 8417POPC   C4B37846  19.987  11.554   7.355
 8418POPC   NC337847  29.103  15.971   5.555
 8418POPC   PO437848  29.120  15.980   5.855
 8418POPC   GL137849  29.130  15.916   6.155
 8418POPC   GL237850  29.103  16.056   6.155
 8418POPC   C1A37851  29.145  15.956   6.455
 8418POPC   D2A37852  29.159  15.932   6.755
 8418POPC   C3A37853  29.127  15.914   7.055
 8418POPC   C4A37854  29.155  15.961   7.355
 8418POPC   C1B37855  29.095  16.195   6.455
 8418POPC   C2B37856  29.062  16.246   6.755
 8418POPC   C3B37857  29.135  16.223   7.055
 8418POPC   C4B37858  29.136  16.185   7.355
 8419POPC   NC337859  12.866   7.428   5.555
 8419POPC   PO437860  12.846   7.387   5.855
 8419POPC   GL137861  12.808   7.392   6.155
 8419POPC   GL237862  12.990   7.514   6.155
 8419POPC   C1A37863  12.870   7.419   6.455
 8419POPC   D2A37864  12.893   7.447   6.755
 8419POPC   C3A37865  12.823   7.431   7.055
 8419POPC   C4A37866  12.875   7.455   7.355
 8419POPC   C1B37867  13.050   7.563   6.455
 8419POPC   C2B37868  13.036   7.523   6.755
 8419POPC   C3B37869  13.092   7.582   7.055
 8419POPC   C4B37870  13.095   7.591   7.355
 8420POPC   NC337871  40.003  22.937   5.555
 8420POPC   PO437872  39.958  22.986   5.855
 8420POPC   GL137873  40.014  22.920   6.155
 8420POPC   GL237874  39.916  22.858   6.155
 8420POPC   C1A37875  39.966  22.891   6.455
 8420POPC   D2A37876  40.002  22.972   6.755
 8420POPC   C3A37877  39.979  22.898   7.055
 8420POPC   C4A37878  40.054  22.889   7.355
 8420POPC   C1B37879  39.890  22.708   6.455
 8420POPC   C2B37880  39.905  22.693   6.755
 8420POPC   C3B37881  39.811  22.694   7.055
 8420POPC   C4B37882  39.833  22.704   7.355
 8421POPC   NC337883  10.495  38.463   5.555
 8421POPC   PO437884  10.538  38.407   5.855
 8421POPC   GL137885  10.535  38.421   6.155
 8421POPC   GL237886  10.409  38.510   6.155
 8421POPC   C1A37887  10.554  38.503   6.455
 8421POPC   D2A37888  10.570  38.413   6.755
 8421POPC   C3A37889  10.548  38.434   7.055
 8421POPC   C4A37890  10.527  38.449   7.355
 8421POPC   C1B37891  10.260  38.547   6.455
 8421POPC   C2B37892  10.312  38.558   6.755
 8421POPC   C3B37893  10.289  38.543   7.055
 8421POPC   C4B37894  10.291  38.539   7.355
 8422POPC   NC337895  31.475  25.281   5.555
 8422POPC   PO437896  31.450  25.273   5.855
 8422POPC   GL137897  31.519  25.223   6.155
 8422POPC   GL237898  31.614  25.217   6.155
 8422POPC   C1A37899  31.423  25.290   6.455
 8422POPC   D2A37900  31.470  25.283   6.755
 8422POPC   C3A37901  31.495  25.308   7.055
 8422POPC   C4A37902  31.436  25.309   7.355
 8422POPC   C1B37903  31.760  25.257   6.455
 8422POPC   C2B37904  31.705  25.198   6.755
 8422POPC   C3B37905  31.716  25.246   7.055
 8422POPC   C4B37906  31.691  25.261   7.355
 8423POPC   NC337907  41.560   9.706   5.555
 8423POPC   PO437908  41.542   9.748   5.855
 8423POPC   GL137909  41.537   9.788   6.155
 8423POPC   GL237910  41.533   9.886   6.155
 8423POPC   C1A37911  41.561   9.703   6.455
 8423POPC   D2A37912  41.565   9.747   6.755
 8423POPC   C3A37913  41.517   9.797   7.055
 8423POPC   C4A37914  41.586   9.755   7.355
 8423POPC   C1B37915  41.527   9.983   6.455
 8423POPC   C2B37916  41.566  10.034   6.755
 8423POPC   C3B37917  41.505   9.998   7.055
 8423POPC   C4B37918  41.510  10.000   7.355
 8424POPC   NC337919  12.124   5.115   5.555
 8424POPC   PO437920  12.100   5.050   5.855
 8424POPC   GL137921  12.085   5.099   6.155
 8424POPC   GL237922  12.020   5.189   6.155
 8424POPC   C1A37923  12.124   5.141   6.455
 8424POPC   D2A37924  12.073   5.097   6.755
 8424POPC   C3A37925  12.092   5.052   7.055
 8424POPC   C4A37926  12.119   5.045   7.355
 8424POPC   C1B37927  11.978   5.292   6.455
 8424POPC   C2B37928  11.891   5.322   6.755
 8424POPC   C3B37929  11.941   5.256   7.055
 8424POPC   C4B37930  11.945   5.328   7.355
 8425POPC   NC337931  26.080  13.639   5.555
 8425POPC   PO437932  26.072  13.620   5.855
 8425POPC   GL137933  26.015  13.654   6.155
 8425POPC   GL237934  26.118  13.509   6.155
 8425POPC   C1A37935  26.000  13.624   6.455
 8425POPC   D2A37936  26.036  13.625   6.755
 8425POPC   C3A37937  26.002  13.582   7.055
 8425POPC   C4A37938  25.992  13.589   7.355
 8425POPC   C1B37939  26.148  13.425   6.455
 8425POPC   C2B37940  26.158  13.405   6.755
 8425POPC   C3B37941  26.142  13.464   7.055
 8425POPC   C4B37942  26.224  13.429   7.355
 8426POPC   NC337943  25.254  27.617   5.555
 8426POPC   PO437944  25.219  27.599   5.855
 8426POPC   GL137945  25.258  27.576   6.155
 8426POPC   GL237946  25.314  27.658   6.155
 8426POPC   C1A37947  25.244  27.636   6.455
 8426POPC   D2A37948  25.297  27.628   6.755
 8426POPC   C3A37949  25.251  27.553   7.055
 8426POPC   C4A37950  25.291  27.634   7.355
 8426POPC   C1B37951  25.461  27.795   6.455
 8426POPC   C2B37952  25.390  27.821   6.755
 8426POPC   C3B37953  25.406  27.752   7.055
 8426POPC   C4B37954  25.456  27.810   7.355
 8427POPC   NC337955   8.970  12.867   5.555
 8427POPC   PO437956   8.925  12.827   5.855
 8427POPC   GL137957   8.986  12.805   6.155
 8427POPC   GL237958   9.014  13.016   6.155
 8427POPC   C1A37959   9.021  12.890   6.455
 8427POPC   D2A37960   8.960  12.834   6.755
 8427POPC   C3A37961   8.962  12.851   7.055
 8427POPC   C4A37962   9.005  12.847   7.355
 8427POPC   C1B37963   8.984  13.124   6.455
 8427POPC   C2B37964   9.033  13.122   6.755
 8427POPC   C3B37965   8.951  13.104   7.055
 8427POPC   C4B37966   8.989  13.095   7.355
 8428POPC   NC337967   5.106  40.760   5.555
 8428POPC   PO437968   5.079  40.781   5.855
 8428POPC   GL137969   5.111  40.734   6.155
 8428POPC   GL237970   4.989  40.673   6.155
 8428POPC   C1A37971   5.077  40.773   6.455
 8428POPC   D2A37972   5.061  40.794   6.755
 8428POPC   C3A37973   5.049  40.788   7.055
 8428POPC   C4A37974   5.143  40.821   7.355
 8428POPC   C1B37975   4.945  40.604   6.455
 8428POPC   C2B37976   4.955  40.582   6.755
 8428POPC   C3B37977   4.943  40.568   7.055
 8428POPC   C4B37978   4.911  40.609   7.355
 8429POPC   NC337979   1.244  34.541   5.555
 8429POPC   PO437980   1.175  34.555   5.855
 8429POPC   GL137981   1.263  34.588   6.155
 8429POPC   GL237982   1.308  34.557   6.155
 8429POPC   C1A37983   1.204  34.612   6.455
 8429POPC   D2A37984   1.195  34.589   6.755
 8429POPC   C3A37985   1.238  34.530   7.055
 8429POPC   C4A37986   1.176  34.593   7.355
 8429POPC   C1B37987   1.472  34.648   6.455
 8429POPC   C2B37988   1.478  34.570   6.755
 8429POPC   C3B37989   1.507  34.634   7.055
 8429POPC   C4B37990   1.488  34.644   7.355
 8430POPC   NC337991  26.770  43.919   5.555
 8430POPC   PO437992  26.786  43.858   5.855
 8430POPC   GL137993  26.854  43.842   6.155
 8430POPC   GL237994  26.799  43.770   6.155
 8430POPC   C1A37995  26.861  43.850   6.455
 8430POPC   D2A37996  26.778  43.902   6.755
 8430POPC   C3A37997  26.860  43.894   7.055
 8430POPC   C4A37998  26.837  43.923   7.355
 8430POPC   C1B37999  26.839  43.613   6.455
 8430POPC   C2B38000  26.892  43.649   6.755
 8430POPC   C3B38001  26.833  43.616   7.055
 8430POPC   C4B38002  26.821  43.662   7.355
 8431POPC   NC338003  12.823  23.721   5.555
 8431POPC   PO438004  12.880  23.730   5.855
 8431POPC   GL138005  12.889  23.719   6.155
 8431POPC   GL238006  12.888  23.545   6.155
 8431POPC   C1A38007  12.824  23.692   6.455
 8431POPC   D2A38008  12.861  23.692   6.755
 8431POPC   C3A38009  12.870  23.680   7.055
 8431POPC   C4A38010  12.869  23.679   7.355
 8431POPC   C1B38011  12.890  23.424   6.455
 8431POPC   C2B38012  12.918  23.438   6.755
 8431POPC   C3B38013  12.957  23.489   7.055
 8431POPC   C4B38014  12.910  23.445   7.355
 8432POPC   NC338015  18.268  34.604   5.555
 8432POPC   PO438016  18.308  34.568   5.855
 8432POPC   GL138017  18.255  34.601   6.155
 8432POPC   GL238018  18.155  34.555   6.155
 8432POPC   C1A38019  18.323  34.533   6.455
 8432POPC   D2A38020  18.233  34.548   6.755
 8432POPC   C3A38021  18.264  34.606   7.055
 8432POPC   C4A38022  18.286  34.608   7.355
 8432POPC   C1B38023  18.064  34.582   6.455
 8432POPC   C2B38024  18.016  34.590   6.755
 8432POPC   C3B38025  18.032  34.664   7.055
 8432POPC   C4B38026  18.016  34.623   7.355
 8433POPC   NC338027  40.824  43.119   5.555
 8433POPC   PO438028  40.779  43.150   5.855
 8433POPC   GL138029  40.752  43.076   6.155
 8433POPC   GL238030  40.926  43.082   6.155
 8433POPC   C1A38031  40.745  43.117   6.455
 8433POPC   D2A38032  40.792  43.147   6.755
 8433POPC   C3A38033  40.751  43.126   7.055
 8433POPC   C4A38034  40.785  43.124   7.355
 8433POPC   C1B38035  40.995  43.009   6.455
 8433POPC   C2B38036  40.939  42.969   6.755
 8433POPC   C3B38037  41.007  42.952   7.055
 8433POPC   C4B38038  40.969  43.009   7.355
 8434POPC   NC338039  25.995   2.749   5.555
 8434POPC   PO438040  26.077   2.813   5.855
 8434POPC   GL138041  26.057   2.801   6.155
 8434POPC   GL238042  25.983   2.854   6.155
 8434POPC   C1A38043  25.997   2.717   6.455
 8434POPC   D2A38044  26.007   2.814   6.755
 8434POPC   C3A38045  26.003   2.726   7.055
 8434POPC   C4A38046  26.085   2.726   7.355
 8434POPC   C1B38047  25.939   2.978   6.455
 8434POPC   C2B38048  25.906   2.967   6.755
 8434POPC   C3B38049  25.942   2.973   7.055
 8434POPC   C4B38050  25.886   2.929   7.355
 8435POPC   NC338051  29.926  15.945   5.555
 8435POPC   PO438052  29.956  15.939   5.855
 8435POPC   GL138053  29.901  15.921   6.155
 8435POPC   GL238054  29.957  15.839   6.155
 8435POPC   C1A38055  29.880  15.946   6.455
 8435POPC   D2A38056  29.926  15.997   6.755
 8435POPC   C3A38057  29.876  15.919   7.055
 8435POPC   C4A38058  29.888  15.938   7.355
 8435POPC   C1B38059  29.906  15.729   6.455
 8435POPC   C2B38060  29.970  15.726   6.755
 8435POPC   C3B38061  29.907  15.754   7.055
 8435POPC   C4B38062  29.912  15.674   7.355
 8436POPC   NC338063  44.638  40.830   5.555
 8436POPC   PO438064  44.655  40.735   5.855
 8436POPC   GL138065  44.635  40.795   6.155
 8436POPC   GL238066  44.565  40.708   6.155
 8436POPC   C1A38067  44.622  40.761   6.455
 8436POPC   D2A38068  44.682  40.754   6.755
 8436POPC   C3A38069  44.663  40.800   7.055
 8436POPC   C4A38070  44.644  40.805   7.355
 8436POPC   C1B38071  44.475  40.632   6.455
 8436POPC   C2B38072  44.482  40.610   6.755
 8436POPC   C3B38073  44.438  40.612   7.055
 8436POPC   C4B38074  44.412  40.682   7.355
 8437POPC   NC338075  36.101  20.567   5.555
 8437POPC   PO438076  36.150  20.647   5.855
 8437POPC   GL138077  36.107  20.654   6.155
 8437POPC   GL238078  36.216  20.606   6.155
 8437POPC   C1A38079  36.172  20.582   6.455
 8437POPC   D2A38080  36.126  20.626   6.755
 8437POPC   C3A38081  36.091  20.578   7.055
 8437POPC   C4A38082  36.115  20.587   7.355
 8437POPC   C1B38083  36.341  20.540   6.455
 8437POPC   C2B38084  36.362  20.486   6.755
 8437POPC   C3B38085  36.333  20.460   7.055
 8437POPC   C4B38086  36.372  20.460   7.355
 8438POPC   NC338087  15.164  28.369   5.555
 8438POPC   PO438088  15.177  28.384   5.855
 8438POPC   GL138089  15.217  28.378   6.155
 8438POPC   GL238090  15.165  28.250   6.155
 8438POPC   C1A38091  15.222  28.350   6.455
 8438POPC   D2A38092  15.205  28.363   6.755
 8438POPC   C3A38093  15.215  28.324   7.055
 8438POPC   C4A38094  15.133  28.380   7.355
 8438POPC   C1B38095  15.121  28.082   6.455
 8438POPC   C2B38096  15.107  28.117   6.755
 8438POPC   C3B38097  15.106  28.133   7.055
 8438POPC   C4B38098  15.139  28.163   7.355
 8439POPC   NC338099  30.739  19.066   5.555
 8439POPC   PO438100  30.671  19.097   5.855
 8439POPC   GL138101  30.655  19.093   6.155
 8439POPC   GL238102  30.749  18.963   6.155
 8439POPC   C1A38103  30.671  19.028   6.455
 8439POPC   D2A38104  30.738  19.028   6.755
 8439POPC   C3A38105  30.735  19.089   7.055
 8439POPC   C4A38106  30.735  19.102   7.355
 8439POPC   C1B38107  30.823  18.818   6.455
 8439POPC   C2B38108  30.796  18.810   6.755
 8439POPC   C3B38109  30.798  18.815   7.055
 8439POPC   C4B38110  30.822  18.805   7.355
 8440POPC   NC338111  43.062  24.484   5.555
 8440POPC   PO438112  43.062  24.515   5.855
 8440POPC   GL138113  43.072  24.444   6.155
 8440POPC   GL238114  43.080  24.338   6.155
 8440POPC   C1A38115  43.106  24.486   6.455
 8440POPC   D2A38116  43.115  24.503   6.755
 8440POPC   C3A38117  43.086  24.483   7.055
 8440POPC   C4A38118  43.134  24.462   7.355
 8440POPC   C1B38119  43.023  24.309   6.455
 8440POPC   C2B38120  43.004  24.288   6.755
 8440POPC   C3B38121  43.022  24.263   7.055
 8440POPC   C4B38122  43.019  24.315   7.355
 8441POPC   NC338123  43.090  29.163   5.555
 8441POPC   PO438124  43.081  29.183   5.855
 8441POPC   GL138125  43.160  29.097   6.155
 8441POPC   GL238126  43.220  29.182   6.155
 8441POPC   C1A38127  43.068  29.123   6.455
 8441POPC   D2A38128  43.081  29.184   6.755
 8441POPC   C3A38129  43.068  29.175   7.055
 8441POPC   C4A38130  43.126  29.182   7.355
 8441POPC   C1B38131  43.284  29.314   6.455
 8441POPC   C2B38132  43.284  29.321   6.755
 8441POPC   C3B38133  43.288  29.256   7.055
 8441POPC   C4B38134  43.313  29.337   7.355
 8442POPC   NC338135  32.252  29.108   5.555
 8442POPC   PO438136  32.283  29.149   5.855
 8442POPC   GL138137  32.272  29.168   6.155
 8442POPC   GL238138  32.151  29.285   6.155
 8442POPC   C1A38139  32.211  29.116   6.455
 8442POPC   D2A38140  32.226  29.115   6.755
 8442POPC   C3A38141  32.278  29.101   7.055
 8442POPC   C4A38142  32.233  29.135   7.355
 8442POPC   C1B38143  32.112  29.383   6.455
 8442POPC   C2B38144  32.127  29.353   6.755
 8442POPC   C3B38145  32.153  29.319   7.055
 8442POPC   C4B38146  32.136  29.327   7.355
 8443POPC   NC338147  21.397   3.526   5.555
 8443POPC   PO438148  21.383   3.506   5.855
 8443POPC   GL138149  21.434   3.533   6.155
 8443POPC   GL238150  21.473   3.630   6.155
 8443POPC   C1A38151  21.383   3.518   6.455
 8443POPC   D2A38152  21.426   3.546   6.755
 8443POPC   C3A38153  21.427   3.526   7.055
 8443POPC   C4A38154  21.349   3.523   7.355
 8443POPC   C1B38155  21.455   3.811   6.455
 8443POPC   C2B38156  21.510   3.739   6.755
 8443POPC   C3B38157  21.466   3.746   7.055
 8443POPC   C4B38158  21.531   3.816   7.355
 8444POPC   NC338159   2.005   5.819   5.555
 8444POPC   PO438160   2.015   5.907   5.855
 8444POPC   GL138161   1.941   5.830   6.155
 8444POPC   GL238162   1.921   5.768   6.155
 8444POPC   C1A38163   1.954   5.871   6.455
 8444POPC   D2A38164   1.963   5.875   6.755
 8444POPC   C3A38165   1.991   5.901   7.055
 8444POPC   C4A38166   1.973   5.910   7.355
 8444POPC   C1B38167   1.902   5.644   6.455
 8444POPC   C2B38168   1.846   5.619   6.755
 8444POPC   C3B38169   1.865   5.693   7.055
 8444POPC   C4B38170   1.826   5.698   7.355
 8445POPC   NC338171  27.579  33.785   5.555
 8445POPC   PO438172  27.579  33.831   5.855
 8445POPC   GL138173  27.625  33.750   6.155
 8445POPC   GL238174  27.450  33.803   6.155
 8445POPC   C1A38175  27.604  33.846   6.455
 8445POPC   D2A38176  27.638  33.793   6.755
 8445POPC   C3A38177  27.642  33.807   7.055
 8445POPC   C4A38178  27.618  33.788   7.355
 8445POPC   C1B38179  27.389  33.898   6.455
 8445POPC   C2B38180  27.413  33.942   6.755
 8445POPC   C3B38181  27.339  33.925   7.055
 8445POPC   C4B38182  27.380  33.887   7.355
 8446POPC   NC338183  12.121   2.723   5.555
 8446POPC   PO438184  12.110   2.777   5.855
 8446POPC   GL138185  12.059   2.766   6.155
 8446POPC   GL238186  11.964   2.816   6.155
 8446POPC   C1A38187  12.097   2.748   6.455
 8446POPC   D2A38188  12.057   2.727   6.755
 8446POPC   C3A38189  12.084   2.724   7.055
 8446POPC   C4A38190  12.102   2.791   7.355
 8446POPC   C1B38191  11.896   2.995   6.455
 8446POPC   C2B38192  11.863   2.987   6.755
 8446POPC   C3B38193  11.923   2.984   7.055
 8446POPC   C4B38194  11.948   2.915   7.355
 8447POPC   NC338195  40.803  22.916   5.555
 8447POPC   PO438196  40.827  22.894   5.855
 8447POPC   GL138197  40.747  22.908   6.155
 8447POPC   GL238198  40.701  23.005   6.155
 8447POPC   C1A38199  40.833  22.985   6.455
 8447POPC   D2A38200  40.754  22.889   6.755
 8447POPC   C3A38201  40.777  22.954   7.055
 8447POPC   C4A38202  40.784  22.932   7.355
 8447POPC   C1B38203  40.684  23.132   6.455
 8447POPC   C2B38204  40.675  23.111   6.755
 8447POPC   C3B38205  40.654  23.180   7.055
 8447POPC   C4B38206  40.679  23.145   7.355
 8448POPC   NC338207  26.830  31.471   5.555
 8448POPC   PO438208  26.826  31.460   5.855
 8448POPC   GL138209  26.813  31.520   6.155
 8448POPC   GL238210  26.767  31.590   6.155
 8448POPC   C1A38211  26.773  31.486   6.455
 8448POPC   D2A38212  26.781  31.516   6.755
 8448POPC   C3A38213  26.824  31.445   7.055
 8448POPC   C4A38214  26.845  31.430   7.355
 8448POPC   C1B38215  26.733  31.717   6.455
 8448POPC   C2B38216  26.657  31.660   6.755
 8448POPC   C3B38217  26.684  31.694   7.055
 8448POPC   C4B38218  26.680  31.701   7.355
 8449POPC   NC338219  17.487   5.917   5.555
 8449POPC   PO438220  17.545   5.827   5.855
 8449POPC   GL138221  17.486   5.844   6.155
 8449POPC   GL238222  17.399   5.914   6.155
 8449POPC   C1A38223  17.488   5.836   6.455
 8449POPC   D2A38224  17.497   5.862   6.755
 8449POPC   C3A38225  17.511   5.831   7.055
 8449POPC   C4A38226  17.540   5.886   7.355
 8449POPC   C1B38227  17.356   6.094   6.455
 8449POPC   C2B38228  17.308   6.074   6.755
 8449POPC   C3B38229  17.290   6.023   7.055
 8449POPC   C4B38230  17.338   6.099   7.355
 8450POPC   NC338231  24.501  34.545   5.555
 8450POPC   PO438232  24.482  34.606   5.855
 8450POPC   GL138233  24.488  34.552   6.155
 8450POPC   GL238234  24.406  34.656   6.155
 8450POPC   C1A38235  24.523  34.614   6.455
 8450POPC   D2A38236  24.475  34.533   6.755
 8450POPC   C3A38237  24.500  34.571   7.055
 8450POPC   C4A38238  24.480  34.544   7.355
 8450POPC   C1B38239  24.208  34.683   6.455
 8450POPC   C2B38240  24.223  34.700   6.755
 8450POPC   C3B38241  24.276  34.610   7.055
 8450POPC   C4B38242  24.239  34.686   7.355
 8451POPC   NC338243   1.968  18.314   5.555
 8451POPC   PO438244   2.017  18.240   5.855
 8451POPC   GL138245   1.955  18.290   6.155
 8451POPC   GL238246   1.943  18.139   6.155
 8451POPC   C1A38247   2.026  18.246   6.455
 8451POPC   D2A38248   1.957  18.264   6.755
 8451POPC   C3A38249   2.035  18.254   7.055
 8451POPC   C4A38250   2.006  18.306   7.355
 8451POPC   C1B38251   1.873  18.110   6.455
 8451POPC   C2B38252   1.824  18.119   6.755
 8451POPC   C3B38253   1.829  18.105   7.055
 8451POPC   C4B38254   1.885  18.101   7.355
 8452POPC   NC338255  15.938  34.589   5.555
 8452POPC   PO438256  15.956  34.528   5.855
 8452POPC   GL138257  15.946  34.533   6.155
 8452POPC   GL238258  15.844  34.664   6.155
 8452POPC   C1A38259  15.978  34.558   6.455
 8452POPC   D2A38260  15.963  34.625   6.755
 8452POPC   C3A38261  16.003  34.620   7.055
 8452POPC   C4A38262  15.988  34.574   7.355
 8452POPC   C1B38263  15.752  34.686   6.455
 8452POPC   C2B38264  15.683  34.664   6.755
 8452POPC   C3B38265  15.754  34.665   7.055
 8452POPC   C4B38266  15.726  34.656   7.355
 8453POPC   NC338267  40.806  17.512   5.555
 8453POPC   PO438268  40.764  17.499   5.855
 8453POPC   GL138269  40.796  17.494   6.155
 8453POPC   GL238270  40.894  17.554   6.155
 8453POPC   C1A38271  40.807  17.482   6.455
 8453POPC   D2A38272  40.733  17.551   6.755
 8453POPC   C3A38273  40.829  17.471   7.055
 8453POPC   C4A38274  40.751  17.499   7.355
 8453POPC   C1B38275  41.045  17.620   6.455
 8453POPC   C2B38276  41.049  17.607   6.755
 8453POPC   C3B38277  41.049  17.556   7.055
 8453POPC   C4B38278  41.024  17.602   7.355
 8454POPC   NC338279  12.855  33.031   5.555
 8454POPC   PO438280  12.898  33.048   5.855
 8454POPC   GL138281  12.867  33.072   6.155
 8454POPC   GL238282  12.942  32.935   6.155
 8454POPC   C1A38283  12.862  33.055   6.455
 8454POPC   D2A38284  12.892  33.065   6.755
 8454POPC   C3A38285  12.805  33.019   7.055
 8454POPC   C4A38286  12.874  33.032   7.355
 8454POPC   C1B38287  12.935  32.787   6.455
 8454POPC   C2B38288  12.985  32.811   6.755
 8454POPC   C3B38289  12.950  32.761   7.055
 8454POPC   C4B38290  12.947  32.763   7.355
 8455POPC   NC338291  13.674  40.780   5.555
 8455POPC   PO438292  13.609  40.829   5.855
 8455POPC   GL138293  13.631  40.761   6.155
 8455POPC   GL238294  13.517  40.843   6.155
 8455POPC   C1A38295  13.594  40.803   6.455
 8455POPC   D2A38296  13.637  40.754   6.755
 8455POPC   C3A38297  13.593  40.754   7.055
 8455POPC   C4A38298  13.637  40.767   7.355
 8455POPC   C1B38299  13.482  41.012   6.455
 8455POPC   C2B38300  13.474  41.013   6.755
 8455POPC   C3B38301  13.491  40.965   7.055
 8455POPC   C4B38302  13.516  41.026   7.355
 8456POPC   NC338303  14.370  37.684   5.555
 8456POPC   PO438304  14.431  37.639   5.855
 8456POPC   GL138305  14.434  37.671   6.155
 8456POPC   GL238306  14.481  37.618   6.155
 8456POPC   C1A38307  14.453  37.653   6.455
 8456POPC   D2A38308  14.357  37.641   6.755
 8456POPC   C3A38309  14.451  37.684   7.055
 8456POPC   C4A38310  14.382  37.670   7.355
 8456POPC   C1B38311  14.685  37.684   6.455
 8456POPC   C2B38312  14.651  37.608   6.755
 8456POPC   C3B38313  14.653  37.702   7.055
 8456POPC   C4B38314  14.614  37.604   7.355
 8457POPC   NC338315  25.239  29.914   5.555
 8457POPC   PO438316  25.229  29.931   5.855
 8457POPC   GL138317  25.244  29.885   6.155
 8457POPC   GL238318  25.257  30.032   6.155
 8457POPC   C1A38319  25.246  29.874   6.455
 8457POPC   D2A38320  25.271  29.920   6.755
 8457POPC   C3A38321  25.235  29.934   7.055
 8457POPC   C4A38322  25.279  29.928   7.355
 8457POPC   C1B38323  25.204  30.141   6.455
 8457POPC   C2B38324  25.168  30.138   6.755
 8457POPC   C3B38325  25.179  30.186   7.055
 8457POPC   C4B38326  25.209  30.124   7.355
 8458POPC   NC338327  41.556  19.812   5.555
 8458POPC   PO438328  41.564  19.792   5.855
 8458POPC   GL138329  41.523  19.864   6.155
 8458POPC   GL238330  41.509  19.915   6.155
 8458POPC   C1A38331  41.535  19.871   6.455
 8458POPC   D2A38332  41.559  19.795   6.755
 8458POPC   C3A38333  41.531  19.857   7.055
 8458POPC   C4A38334  41.540  19.872   7.355
 8458POPC   C1B38335  41.446  20.070   6.455
 8458POPC   C2B38336  41.480  20.051   6.755
 8458POPC   C3B38337  41.483  20.088   7.055
 8458POPC   C4B38338  41.528  20.105   7.355
 8459POPC   NC338339  15.954   5.836   5.555
 8459POPC   PO438340  15.947   5.892   5.855
 8459POPC   GL138341  15.987   5.887   6.155
 8459POPC   GL238342  15.901   5.711   6.155
 8459POPC   C1A38343  15.917   5.833   6.455
 8459POPC   D2A38344  15.991   5.914   6.755
 8459POPC   C3A38345  15.927   5.853   7.055
 8459POPC   C4A38346  15.919   5.854   7.355
 8459POPC   C1B38347  15.872   5.608   6.455
 8459POPC   C2B38348  15.863   5.645   6.755
 8459POPC   C3B38349  15.891   5.617   7.055
 8459POPC   C4B38350  15.857   5.606   7.355
 8460POPC   NC338351   2.719  21.372   5.555
 8460POPC   PO438352   2.798  21.430   5.855
 8460POPC   GL138353   2.759  21.346   6.155
 8460POPC   GL238354   2.775  21.260   6.155
 8460POPC   C1A38355   2.717  21.374   6.455
 8460POPC   D2A38356   2.758  21.350   6.755
 8460POPC   C3A38357   2.813  21.421   7.055
 8460POPC   C4A38358   2.815  21.384   7.355
 8460POPC   C1B38359   2.743  21.169   6.455
 8460POPC   C2B38360   2.734  21.181   6.755
 8460POPC   C3B38361   2.732  21.149   7.055
 8460POPC   C4B38362   2.660  21.160   7.355
 8461POPC   NC338363   7.379  18.306   5.555
 8461POPC   PO438364   7.427  18.330   5.855
 8461POPC   GL138365   7.440  18.317   6.155
 8461POPC   GL238366   7.279  18.231   6.155
 8461POPC   C1A38367   7.452  18.253   6.455
 8461POPC   D2A38368   7.414  18.285   6.755
 8461POPC   C3A38369   7.402  18.293   7.055
 8461POPC   C4A38370   7.378  18.304   7.355
 8461POPC   C1B38371   7.187  18.214   6.455
 8461POPC   C2B38372   7.231  18.207   6.755
 8461POPC   C3B38373   7.209  18.189   7.055
 8461POPC   C4B38374   7.163  18.210   7.355
 8462POPC   NC338375  12.029  39.191   5.555
 8462POPC   PO438376  12.034  39.259   5.855
 8462POPC   GL138377  12.113  39.274   6.155
 8462POPC   GL238378  12.065  39.063   6.155
 8462POPC   C1A38379  12.124  39.217   6.455
 8462POPC   D2A38380  12.041  39.273   6.755
 8462POPC   C3A38381  12.048  39.228   7.055
 8462POPC   C4A38382  12.040  39.252   7.355
 8462POPC   C1B38383  11.999  38.990   6.455
 8462POPC   C2B38384  12.066  39.011   6.755
 8462POPC   C3B38385  12.036  39.003   7.055
 8462POPC   C4B38386  12.021  38.994   7.355
 8463POPC   NC338387  33.073  29.903   5.555
 8463POPC   PO438388  32.978  29.931   5.855
 8463POPC   GL138389  33.026  29.962   6.155
 8463POPC   GL238390  32.874  29.966   6.155
 8463POPC   C1A38391  32.975  29.964   6.455
 8463POPC   D2A38392  33.030  29.906   6.755
 8463POPC   C3A38393  33.030  29.883   7.055
 8463POPC   C4A38394  33.024  29.907   7.355
 8463POPC   C1B38395  32.760  29.965   6.455
 8463POPC   C2B38396  32.778  30.015   6.755
 8463POPC   C3B38397  32.806  30.062   7.055
 8463POPC   C4B38398  32.808  30.042   7.355
 8464POPC   NC338399  13.596  27.572   5.555
 8464POPC   PO438400  13.670  27.559   5.855
 8464POPC   GL138401  13.625  27.556   6.155
 8464POPC   GL238402  13.566  27.634   6.155
 8464POPC   C1A38403  13.596  27.561   6.455
 8464POPC   D2A38404  13.672  27.554   6.755
 8464POPC   C3A38405  13.603  27.603   7.055
 8464POPC   C4A38406  13.586  27.630   7.355
 8464POPC   C1B38407  13.487  27.725   6.455
 8464POPC   C2B38408  13.418  27.719   6.755
 8464POPC   C3B38409  13.496  27.733   7.055
 8464POPC   C4B38410  13.472  27.721   7.355
 8465POPC   NC338411  36.937  23.699   5.555
 8465POPC   PO438412  36.871  23.726   5.855
 8465POPC   GL138413  36.897  23.712   6.155
 8465POPC   GL238414  36.975  23.673   6.155
 8465POPC   C1A38415  36.873  23.665   6.455
 8465POPC   D2A38416  36.922  23.744   6.755
 8465POPC   C3A38417  36.876  23.699   7.055
 8465POPC   C4A38418  36.874  23.670   7.355
 8465POPC   C1B38419  37.147  23.641   6.455
 8465POPC   C2B38420  37.095  23.691   6.755
 8465POPC   C3B38421  37.175  23.608   7.055
 8465POPC   C4B38422  37.148  23.640   7.355
 8466POPC   NC338423   7.437  11.349   5.555
 8466POPC   PO438424   7.404  11.254   5.855
 8466POPC   GL138425   7.468  11.343   6.155
 8466POPC   GL238426   7.346  11.423   6.155
 8466POPC   C1A38427   7.411  11.327   6.455
 8466POPC   D2A38428   7.426  11.344   6.755
 8466POPC   C3A38429   7.373  11.318   7.055
 8466POPC   C4A38430   7.457  11.291   7.355
 8466POPC   C1B38431   7.284  11.552   6.455
 8466POPC   C2B38432   7.355  11.547   6.755
 8466POPC   C3B38433   7.296  11.500   7.055
 8466POPC   C4B38434   7.341  11.545   7.355
 8467POPC   NC338435  28.377  17.554   5.555
 8467POPC   PO438436  28.335  17.524   5.855
 8467POPC   GL138437  28.366  17.524   6.155
 8467POPC   GL238438  28.351  17.633   6.155
 8467POPC   C1A38439  28.412  17.540   6.455
 8467POPC   D2A38440  28.323  17.462   6.755
 8467POPC   C3A38441  28.322  17.515   7.055
 8467POPC   C4A38442  28.417  17.513   7.355
 8467POPC   C1B38443  28.252  17.746   6.455
 8467POPC   C2B38444  28.339  17.753   6.755
 8467POPC   C3B38445  28.287  17.712   7.055
 8467POPC   C4B38446  28.307  17.708   7.355
 8468POPC   NC338447  25.218   0.470   5.555
 8468POPC   PO438448  25.301   0.463   5.855
 8468POPC   GL138449  25.216   0.410   6.155
 8468POPC   GL238450  25.344   0.361   6.155
 8468POPC   C1A38451  25.280   0.477   6.455
 8468POPC   D2A38452  25.300   0.445   6.755
 8468POPC   C3A38453  25.267   0.401   7.055
 8468POPC   C4A38454  25.221   0.476   7.355
 8468POPC   C1B38455  25.497   0.335   6.455
 8468POPC   C2B38456  25.509   0.381   6.755
 8468POPC   C3B38457  25.514   0.342   7.055
 8468POPC   C4B38458  25.526   0.375   7.355
 8469POPC   NC338459  23.746   4.336   5.555
 8469POPC   PO438460  23.738   4.324   5.855
 8469POPC   GL138461  23.694   4.320   6.155
 8469POPC   GL238462  23.732   4.170   6.155
 8469POPC   C1A38463  23.674   4.350   6.455
 8469POPC   D2A38464  23.722   4.305   6.755
 8469POPC   C3A38465  23.736   4.357   7.055
 8469POPC   C4A38466  23.686   4.302   7.355
 8469POPC   C1B38467  23.701   4.119   6.455
 8469POPC   C2B38468  23.653   4.098   6.755
 8469POPC   C3B38469  23.638   4.040   7.055
 8469POPC   C4B38470  23.695   4.080   7.355
 8470POPC   NC338471  40.038  39.188   5.555
 8470POPC   PO438472  39.975  39.267   5.855
 8470POPC   GL138473  40.044  39.223   6.155
 8470POPC   GL238474  40.180  39.172   6.155
 8470POPC   C1A38475  39.985  39.197   6.455
 8470POPC   D2A38476  39.987  39.243   6.755
 8470POPC   C3A38477  40.029  39.215   7.055
 8470POPC   C4A38478  39.962  39.212   7.355
 8470POPC   C1B38479  40.270  39.197   6.455
 8470POPC   C2B38480  40.224  39.219   6.755
 8470POPC   C3B38481  40.280  39.148   7.055
 8470POPC   C4B38482  40.270  39.192   7.355
 8471POPC   NC338483  26.781  19.883   5.555
 8471POPC   PO438484  26.863  19.871   5.855
 8471POPC   GL138485  26.806  19.874   6.155
 8471POPC   GL238486  26.801  19.981   6.155
 8471POPC   C1A38487  26.777  19.805   6.455
 8471POPC   D2A38488  26.843  19.835   6.755
 8471POPC   C3A38489  26.837  19.806   7.055
 8471POPC   C4A38490  26.863  19.877   7.355
 8471POPC   C1B38491  26.725  20.052   6.455
 8471POPC   C2B38492  26.683  20.088   6.755
 8471POPC   C3B38493  26.670  20.033   7.055
 8471POPC   C4B38494  26.657  20.081   7.355
 8472POPC   NC338495  20.609   3.546   5.555
 8472POPC   PO438496  20.612   3.578   5.855
 8472POPC   GL138497  20.573   3.586   6.155
 8472POPC   GL238498  20.713   3.571   6.155
 8472POPC   C1A38499  20.607   3.516   6.455
 8472POPC   D2A38500  20.611   3.520   6.755
 8472POPC   C3A38501  20.643   3.521   7.055
 8472POPC   C4A38502  20.645   3.541   7.355
 8472POPC   C1B38503  20.821   3.737   6.455
 8472POPC   C2B38504  20.861   3.660   6.755
 8472POPC   C3B38505  20.835   3.707   7.055
 8472POPC   C4B38506  20.854   3.659   7.355
 8473POPC   NC338507   1.941  14.399   5.555
 8473POPC   PO438508   1.943  14.369   5.855
 8473POPC   GL138509   2.012  14.373   6.155
 8473POPC   GL238510   2.114  14.282   6.155
 8473POPC   C1A38511   1.993  14.420   6.455
 8473POPC   D2A38512   2.004  14.444   6.755
 8473POPC   C3A38513   2.019  14.376   7.055
 8473POPC   C4A38514   1.982  14.396   7.355
 8473POPC   C1B38515   2.172  14.236   6.455
 8473POPC   C2B38516   2.149  14.231   6.755
 8473POPC   C3B38517   2.122  14.235   7.055
 8473POPC   C4B38518   2.150  14.255   7.355
 8474POPC   NC338519  13.674   2.809   5.555
 8474POPC   PO438520  13.647   2.767   5.855
 8474POPC   GL138521  13.669   2.727   6.155
 8474POPC   GL238522  13.733   2.829   6.155
 8474POPC   C1A38523  13.590   2.812   6.455
 8474POPC   D2A38524  13.666   2.808   6.755
 8474POPC   C3A38525  13.650   2.749   7.055
 8474POPC   C4A38526  13.598   2.807   7.355
 8474POPC   C1B38527  13.852   2.936   6.455
 8474POPC   C2B38528  13.790   2.880   6.755
 8474POPC   C3B38529  13.816   2.887   7.055
 8474POPC   C4B38530  13.795   2.967   7.355
 8475POPC   NC338531  25.267  15.207   5.555
 8475POPC   PO438532  25.251  15.140   5.855
 8475POPC   GL138533  25.287  15.203   6.155
 8475POPC   GL238534  25.187  15.221   6.155
 8475POPC   C1A38535  25.250  15.149   6.455
 8475POPC   D2A38536  25.233  15.225   6.755
 8475POPC   C3A38537  25.304  15.194   7.055
 8475POPC   C4A38538  25.286  15.133   7.355
 8475POPC   C1B38539  25.104  15.334   6.455
 8475POPC   C2B38540  25.075  15.302   6.755
 8475POPC   C3B38541  25.034  15.302   7.055
 8475POPC   C4B38542  25.086  15.325   7.355
 8476POPC   NC338543  37.665  43.876   5.555
 8476POPC   PO438544  37.685  43.869   5.855
 8476POPC   GL138545  37.691  43.858   6.155
 8476POPC   GL238546  37.609  43.798   6.155
 8476POPC   C1A38547  37.651  43.866   6.455
 8476POPC   D2A38548  37.661  43.864   6.755
 8476POPC   C3A38549  37.641  43.878   7.055
 8476POPC   C4A38550  37.695  43.925   7.355
 8476POPC   C1B38551  37.489  43.761   6.455
 8476POPC   C2B38552  37.476  43.826   6.755
 8476POPC   C3B38553  37.476  43.799   7.055
 8476POPC   C4B38554  37.403  43.800   7.355
 8477POPC   NC338555  27.596  42.384   5.555
 8477POPC   PO438556  27.585  42.311   5.855
 8477POPC   GL138557  27.561  42.333   6.155
 8477POPC   GL238558  27.664  42.474   6.155
 8477POPC   C1A38559  27.638  42.295   6.455
 8477POPC   D2A38560  27.612  42.300   6.755
 8477POPC   C3A38561  27.621  42.304   7.055
 8477POPC   C4A38562  27.573  42.318   7.355
 8477POPC   C1B38563  27.651  42.601   6.455
 8477POPC   C2B38564  27.661  42.572   6.755
 8477POPC   C3B38565  27.701  42.558   7.055
 8477POPC   C4B38566  27.686  42.617   7.355
 8478POPC   NC338567  17.505  27.560   5.555
 8478POPC   PO438568  17.511  27.605   5.855
 8478POPC   GL138569  17.541  27.607   6.155
 8478POPC   GL238570  17.623  27.584   6.155
 8478POPC   C1A38571  17.542  27.640   6.455
 8478POPC   D2A38572  17.556  27.582   6.755
 8478POPC   C3A38573  17.481  27.621   7.055
 8478POPC   C4A38574  17.522  27.557   7.355
 8478POPC   C1B38575  17.774  27.612   6.455
 8478POPC   C2B38576  17.728  27.582   6.755
 8478POPC   C3B38577  17.793  27.597   7.055
 8478POPC   C4B38578  17.774  27.615   7.355
 8479POPC   NC338579  15.970  25.281   5.555
 8479POPC   PO438580  15.923  25.245   5.855
 8479POPC   GL138581  15.915  25.238   6.155
 8479POPC   GL238582  15.960  25.407   6.155
 8479POPC   C1A38583  15.932  25.217   6.455
 8479POPC   D2A38584  15.980  25.307   6.755
 8479POPC   C3A38585  15.948  25.278   7.055
 8479POPC   C4A38586  15.922  25.232   7.355
 8479POPC   C1B38587  15.964  25.498   6.455
 8479POPC   C2B38588  16.002  25.479   6.755
 8479POPC   C3B38589  16.022  25.491   7.055
 8479POPC   C4B38590  15.997  25.498   7.355
 8480POPC   NC338591  23.690  32.238   5.555
 8480POPC   PO438592  23.670  32.202   5.855
 8480POPC   GL138593  23.700  32.213   6.155
 8480POPC   GL238594  23.816  32.130   6.155
 8480POPC   C1A38595  23.762  32.284   6.455
 8480POPC   D2A38596  23.690  32.219   6.755
 8480POPC   C3A38597  23.764  32.286   7.055
 8480POPC   C4A38598  23.733  32.286   7.355
 8480POPC   C1B38599  23.861  32.071   6.455
 8480POPC   C2B38600  23.888  32.029   6.755
 8480POPC   C3B38601  23.895  32.026   7.055
 8480POPC   C4B38602  23.839  32.025   7.355
 8481POPC   NC338603  22.191   3.531   5.555
 8481POPC   PO438604  22.200   3.540   5.855
 8481POPC   GL138605  22.206   3.528   6.155
 8481POPC   GL238606  22.167   3.466   6.155
 8481POPC   C1A38607  22.195   3.521   6.455
 8481POPC   D2A38608  22.183   3.546   6.755
 8481POPC   C3A38609  22.141   3.526   7.055
 8481POPC   C4A38610  22.165   3.513   7.355
 8481POPC   C1B38611  22.276   3.266   6.455
 8481POPC   C2B38612  22.244   3.265   6.755
 8481POPC   C3B38613  22.292   3.282   7.055
 8481POPC   C4B38614  22.237   3.310   7.355
 8482POPC   NC338615   8.213  10.546   5.555
 8482POPC   PO438616   8.166  10.489   5.855
 8482POPC   GL138617   8.170  10.530   6.155
 8482POPC   GL238618   8.343  10.430   6.155
 8482POPC   C1A38619   8.222  10.492   6.455
 8482POPC   D2A38620   8.172  10.544   6.755
 8482POPC   C3A38621   8.237  10.535   7.055
 8482POPC   C4A38622   8.182  10.515   7.355
 8482POPC   C1B38623   8.401  10.354   6.455
 8482POPC   C2B38624   8.439  10.374   6.755
 8482POPC   C3B38625   8.432  10.399   7.055
 8482POPC   C4B38626   8.353  10.395   7.355
 8483POPC   NC338627  30.692  23.688   5.555
 8483POPC   PO438628  30.648  23.686   5.855
 8483POPC   GL138629  30.715  23.737   6.155
 8483POPC   GL238630  30.603  23.718   6.155
 8483POPC   C1A38631  30.710  23.738   6.455
 8483POPC   D2A38632  30.701  23.704   6.755
 8483POPC   C3A38633  30.740  23.716   7.055
 8483POPC   C4A38634  30.691  23.681   7.355
 8483POPC   C1B38635  30.473  23.709   6.455
 8483POPC   C2B38636  30.439  23.704   6.755
 8483POPC   C3B38637  30.406  23.753   7.055
 8483POPC   C4B38638  30.401  23.758   7.355
 8484POPC   NC338639   8.990   9.735   5.555
 8484POPC   PO438640   9.013   9.760   5.855
 8484POPC   GL138641   8.927   9.758   6.155
 8484POPC   GL238642   9.035   9.849   6.155
 8484POPC   C1A38643   8.973   9.782   6.455
 8484POPC   D2A38644   8.925   9.729   6.755
 8484POPC   C3A38645   9.011   9.724   7.055
 8484POPC   C4A38646   8.924   9.718   7.355
 8484POPC   C1B38647   9.069   9.930   6.455
 8484POPC   C2B38648   9.066   9.962   6.755
 8484POPC   C3B38649   9.076   9.984   7.055
 8484POPC   C4B38650   9.047   9.931   7.355
 8485POPC   NC338651  18.319   7.470   5.555
 8485POPC   PO438652  18.244   7.376   5.855
 8485POPC   GL138653  18.290   7.410   6.155
 8485POPC   GL238654  18.436   7.352   6.155
 8485POPC   C1A38655  18.313   7.374   6.455
 8485POPC   D2A38656  18.296   7.454   6.755
 8485POPC   C3A38657  18.265   7.396   7.055
 8485POPC   C4A38658  18.265   7.463   7.355
 8485POPC   C1B38659  18.538   7.388   6.455
 8485POPC   C2B38660  18.487   7.415   6.755
 8485POPC   C3B38661  18.494   7.361   7.055
 8485POPC   C4B38662  18.524   7.337   7.355
 8486POPC   NC338663  21.408  12.073   5.555
 8486POPC   PO438664  21.393  12.045   5.855
 8486POPC   GL138665  21.394  12.066   6.155
 8486POPC   GL238666  21.221  12.067   6.155
 8486POPC   C1A38667  21.398  12.037   6.455
 8486POPC   D2A38668  21.412  12.036   6.755
 8486POPC   C3A38669  21.393  12.055   7.055
 8486POPC   C4A38670  21.365  12.060   7.355
 8486POPC   C1B38671  21.190  12.144   6.455
 8486POPC   C2B38672  21.118  12.181   6.755
 8486POPC   C3B38673  21.179  12.153   7.055
 8486POPC   C4B38674  21.166  12.094   7.355
 8487POPC   NC338675   8.196  26.833   5.555
 8487POPC   PO438676   8.170  26.864   5.855
 8487POPC   GL138677   8.173  26.840   6.155
 8487POPC   GL238678   8.177  26.702   6.155
 8487POPC   C1A38679   8.197  26.852   6.455
 8487POPC   D2A38680   8.182  26.810   6.755
 8487POPC   C3A38681   8.186  26.836   7.055
 8487POPC   C4A38682   8.216  26.800   7.355
 8487POPC   C1B38683   8.251  26.539   6.455
 8487POPC   C2B38684   8.287  26.528   6.755
 8487POPC   C3B38685   8.280  26.581   7.055
 8487POPC   C4B38686   8.299  26.573   7.355
 8488POPC   NC338687   1.167  24.504   5.555
 8488POPC   PO438688   1.242  24.493   5.855
 8488POPC   GL138689   1.230  24.478   6.155
 8488POPC   GL238690   1.197  24.353   6.155
 8488POPC   C1A38691   1.230  24.469   6.455
 8488POPC   D2A38692   1.166  24.534   6.755
 8488POPC   C3A38693   1.185  24.442   7.055
 8488POPC   C4A38694   1.172  24.525   7.355
 8488POPC   C1B38695   1.231  24.244   6.455
 8488POPC   C2B38696   1.166  24.286   6.755
 8488POPC   C3B38697   1.223  24.196   7.055
 8488POPC   C4B38698   1.190  24.220   7.355
 8489POPC   NC338699   7.459  17.467   5.555
 8489POPC   PO438700   7.384  17.480   5.855
 8489POPC   GL138701   7.437  17.515   6.155
 8489POPC   GL238702   7.522  17.434   6.155
 8489POPC   C1A38703   7.445  17.530   6.455
 8489POPC   D2A38704   7.402  17.502   6.755
 8489POPC   C3A38705   7.431  17.493   7.055
 8489POPC   C4A38706   7.427  17.471   7.355
 8489POPC   C1B38707   7.526  17.312   6.455
 8489POPC   C2B38708   7.564  17.302   6.755
 8489POPC   C3B38709   7.588  17.295   7.055
 8489POPC   C4B38710   7.556  17.282   7.355
 8490POPC   NC338711  36.935  43.094   5.555
 8490POPC   PO438712  36.878  43.147   5.855
 8490POPC   GL138713  36.948  43.069   6.155
 8490POPC   GL238714  36.977  43.039   6.155
 8490POPC   C1A38715  36.934  43.119   6.455
 8490POPC   D2A38716  36.918  43.080   6.755
 8490POPC   C3A38717  36.903  43.130   7.055
 8490POPC   C4A38718  36.863  43.133   7.355
 8490POPC   C1B38719  37.145  43.035   6.455
 8490POPC   C2B38720  37.096  43.043   6.755
 8490POPC   C3B38721  37.146  43.024   7.055
 8490POPC   C4B38722  37.121  42.964   7.355
 8491POPC   NC338723  29.933  31.506   5.555
 8491POPC   PO438724  29.879  31.430   5.855
 8491POPC   GL138725  29.952  31.440   6.155
 8491POPC   GL238726  29.979  31.539   6.155
 8491POPC   C1A38727  29.961  31.517   6.455
 8491POPC   D2A38728  29.955  31.470   6.755
 8491POPC   C3A38729  29.965  31.470   7.055
 8491POPC   C4A38730  29.969  31.480   7.355
 8491POPC   C1B38731  30.007  31.669   6.455
 8491POPC   C2B38732  30.060  31.699   6.755
 8491POPC   C3B38733  30.035  31.668   7.055
 8491POPC   C4B38734  29.997  31.696   7.355
 8492POPC   NC338735  29.898  33.070   5.555
 8492POPC   PO438736  29.900  33.009   5.855
 8492POPC   GL138737  29.914  33.044   6.155
 8492POPC   GL238738  29.881  33.166   6.155
 8492POPC   C1A38739  29.900  33.063   6.455
 8492POPC   D2A38740  29.942  32.998   6.755
 8492POPC   C3A38741  29.969  33.047   7.055
 8492POPC   C4A38742  29.936  33.026   7.355
 8492POPC   C1B38743  29.814  33.280   6.455
 8492POPC   C2B38744  29.779  33.232   6.755
 8492POPC   C3B38745  29.752  33.257   7.055
 8492POPC   C4B38746  29.808  33.234   7.355
 8493POPC   NC338747  15.964  26.855   5.555
 8493POPC   PO438748  15.943  26.800   5.855
 8493POPC   GL138749  15.975  26.831   6.155
 8493POPC   GL238750  15.912  26.953   6.155
 8493POPC   C1A38751  15.916  26.771   6.455
 8493POPC   D2A38752  15.947  26.863   6.755
 8493POPC   C3A38753  15.942  26.785   7.055
 8493POPC   C4A38754  15.909  26.788   7.355
 8493POPC   C1B38755  15.857  27.094   6.455
 8493POPC   C2B38756  15.905  27.066   6.755
 8493POPC   C3B38757  15.854  27.013   7.055
 8493POPC   C4B38758  15.854  27.018   7.355
 8494POPC   NC338759   6.649  15.922   5.555
 8494POPC   PO438760   6.607  15.952   5.855
 8494POPC   GL138761   6.611  16.004   6.155
 8494POPC   GL238762   6.573  15.993   6.155
 8494POPC   C1A38763   6.630  15.931   6.455
 8494POPC   D2A38764   6.629  15.916   6.755
 8494POPC   C3A38765   6.608  15.926   7.055
 8494POPC   C4A38766   6.614  15.935   7.355
 8494POPC   C1B38767   6.439  16.042   6.455
 8494POPC   C2B38768   6.427  16.088   6.755
 8494POPC   C3B38769   6.455  16.017   7.055
 8494POPC   C4B38770   6.399  16.014   7.355
 8495POPC   NC338771  26.018   3.571   5.555
 8495POPC   PO438772  26.083   3.535   5.855
 8495POPC   GL138773  26.079   3.505   6.155
 8495POPC   GL238774  25.919   3.463   6.155
 8495POPC   C1A38775  26.019   3.491   6.455
 8495POPC   D2A38776  26.087   3.576   6.755
 8495POPC   C3A38777  26.038   3.514   7.055
 8495POPC   C4A38778  26.002   3.541   7.355
 8495POPC   C1B38779  25.787   3.402   6.455
 8495POPC   C2B38780  25.861   3.425   6.755
 8495POPC   C3B38781  25.796   3.395   7.055
 8495POPC   C4B38782  25.784   3.374   7.355
 8496POPC   NC338783  10.523  40.735   5.555
 8496POPC   PO438784  10.564  40.751   5.855
 8496POPC   GL138785  10.543  40.821   6.155
 8496POPC   GL238786  10.480  40.712   6.155
 8496POPC   C1A38787  10.485  40.761   6.455
 8496POPC   D2A38788  10.486  40.823   6.755
 8496POPC   C3A38789  10.521  40.793   7.055
 8496POPC   C4A38790  10.490  40.802   7.355
 8496POPC   C1B38791  10.397  40.598   6.455
 8496POPC   C2B38792  10.391  40.603   6.755
 8496POPC   C3B38793  10.383  40.628   7.055
 8496POPC   C4B38794  10.352  40.545   7.355
 8497POPC   NC338795   1.981  29.160   5.555
 8497POPC   PO438796   1.957  29.142   5.855
 8497POPC   GL138797   2.010  29.129   6.155
 8497POPC   GL238798   2.093  29.032   6.155
 8497POPC   C1A38799   2.003  29.154   6.455
 8497POPC   D2A38800   1.951  29.128   6.755
 8497POPC   C3A38801   1.992  29.191   7.055
 8497POPC   C4A38802   1.986  29.126   7.355
 8497POPC   C1B38803   2.194  29.010   6.455
 8497POPC   C2B38804   2.132  29.026   6.755
 8497POPC   C3B38805   2.206  29.021   7.055
 8497POPC   C4B38806   2.205  29.014   7.355
 8498POPC   NC338807  33.012  31.502   5.555
 8498POPC   PO438808  33.045  31.469   5.855
 8498POPC   GL138809  33.072  31.502   6.155
 8498POPC   GL238810  33.017  31.620   6.155
 8498POPC   C1A38811  32.987  31.493   6.455
 8498POPC   D2A38812  33.067  31.435   6.755
 8498POPC   C3A38813  33.062  31.505   7.055
 8498POPC   C4A38814  33.047  31.473   7.355
 8498POPC   C1B38815  33.009  31.702   6.455
 8498POPC   C2B38816  32.945  31.709   6.755
 8498POPC   C3B38817  33.014  31.709   7.055
 8498POPC   C4B38818  32.922  31.709   7.355
 8499POPC   NC338819  29.888  22.949   5.555
 8499POPC   PO438820  29.886  22.932   5.855
 8499POPC   GL138821  29.940  22.945   6.155
 8499POPC   GL238822  29.808  23.033   6.155
 8499POPC   C1A38823  29.884  22.897   6.455
 8499POPC   D2A38824  29.887  22.976   6.755
 8499POPC   C3A38825  29.908  22.981   7.055
 8499POPC   C4A38826  29.968  22.912   7.355
 8499POPC   C1B38827  29.687  23.051   6.455
 8499POPC   C2B38828  29.662  23.039   6.755
 8499POPC   C3B38829  29.644  23.043   7.055
 8499POPC   C4B38830  29.665  23.051   7.355
 8500POPC   NC338831  32.198  27.612   5.555
 8500POPC   PO438832  32.201  27.635   5.855
 8500POPC   GL138833  32.295  27.599   6.155
 8500POPC   GL238834  32.321  27.524   6.155
 8500POPC   C1A38835  32.240  27.551   6.455
 8500POPC   D2A38836  32.241  27.566   6.755
 8500POPC   C3A38837  32.298  27.549   7.055
 8500POPC   C4A38838  32.287  27.596   7.355
 8500POPC   C1B38839  32.410  27.345   6.455
 8500POPC   C2B38840  32.340  27.412   6.755
 8500POPC   C3B38841  32.346  27.394   7.055
 8500POPC   C4B38842  32.354  27.378   7.355
 8501POPC   NC338843  33.056  16.762   5.555
 8501POPC   PO438844  33.042  16.768   5.855
 8501POPC   GL138845  32.990  16.723   6.155
 8501POPC   GL238846  33.057  16.844   6.155
 8501POPC   C1A38847  33.039  16.776   6.455
 8501POPC   D2A38848  33.017  16.763   6.755
 8501POPC   C3A38849  33.010  16.767   7.055
 8501POPC   C4A38850  33.052  16.709   7.355
 8501POPC   C1B38851  33.114  16.967   6.455
 8501POPC   C2B38852  33.123  16.906   6.755
 8501POPC   C3B38853  33.117  16.946   7.055
 8501POPC   C4B38854  33.175  16.956   7.355
 8502POPC   NC338855  15.207   1.223   5.555
 8502POPC   PO438856  15.132   1.170   5.855
 8502POPC   GL138857  15.211   1.258   6.155
 8502POPC   GL238858  15.022   1.233   6.155
 8502POPC   C1A38859  15.213   1.216   6.455
 8502POPC   D2A38860  15.211   1.218   6.755
 8502POPC   C3A38861  15.197   1.251   7.055
 8502POPC   C4A38862  15.178   1.206   7.355
 8502POPC   C1B38863  14.944   1.301   6.455
 8502POPC   C2B38864  14.931   1.341   6.755
 8502POPC   C3B38865  14.942   1.281   7.055
 8502POPC   C4B38866  14.991   1.274   7.355
 8503POPC   NC338867  36.929  40.764   5.555
 8503POPC   PO438868  36.870  40.812   5.855
 8503POPC   GL138869  36.861  40.786   6.155
 8503POPC   GL238870  36.812  40.698   6.155
 8503POPC   C1A38871  36.920  40.798   6.455
 8503POPC   D2A38872  36.942  40.754   6.755
 8503POPC   C3A38873  36.952  40.819   7.055
 8503POPC   C4A38874  36.933  40.759   7.355
 8503POPC   C1B38875  36.634  40.696   6.455
 8503POPC   C2B38876  36.631  40.751   6.755
 8503POPC   C3B38877  36.665  40.670   7.055
 8503POPC   C4B38878  36.676  40.750   7.355
 8504POPC   NC338879  19.024  44.655   5.555
 8504POPC   PO438880  19.098  44.657   5.855
 8504POPC   GL138881  19.061  44.672   6.155
 8504POPC   GL238882  18.890  44.734   6.155
 8504POPC   C1A38883  19.012  44.676   6.455
 8504POPC   D2A38884  19.096  44.684   6.755
 8504POPC   C3A38885  19.069  44.684   7.055
 8504POPC   C4A38886  19.064  44.691   7.355
 8504POPC   C1B38887  18.789  44.688   6.455
 8504POPC   C2B38888  18.785  44.718   6.755
 8504POPC   C3B38889  18.861  44.729   7.055
 8504POPC   C4B38890  18.783  44.764   7.355
 8505POPC   NC338891  40.816   4.279   5.555
 8505POPC   PO438892  40.739   4.325   5.855
 8505POPC   GL138893  40.738   4.305   6.155
 8505POPC   GL238894  40.828   4.194   6.155
 8505POPC   C1A38895  40.757   4.362   6.455
 8505POPC   D2A38896  40.804   4.311   6.755
 8505POPC   C3A38897  40.825   4.362   7.055
 8505POPC   C4A38898  40.821   4.303   7.355
 8505POPC   C1B38899  40.842   4.108   6.455
 8505POPC   C2B38900  40.861   4.043   6.755
 8505POPC   C3B38901  40.867   4.035   7.055
 8505POPC   C4B38902  40.818   4.118   7.355
 8506POPC   NC338903  39.233  15.209   5.555
 8506POPC   PO438904  39.215  15.147   5.855
 8506POPC   GL138905  39.198  15.178   6.155
 8506POPC   GL238906  39.233  15.285   6.155
 8506POPC   C1A38907  39.234  15.145   6.455
 8506POPC   D2A38908  39.236  15.220   6.755
 8506POPC   C3A38909  39.237  15.178   7.055
 8506POPC   C4A38910  39.217  15.201   7.355
 8506POPC   C1B38911  39.264  15.399   6.455
 8506POPC   C2B38912  39.210  15.448   6.755
 8506POPC   C3B38913  39.184  15.468   7.055
 8506POPC   C4B38914  39.276  15.422   7.355
 8507POPC   NC338915   6.598  10.568   5.555
 8507POPC   PO438916   6.620  10.482   5.855
 8507POPC   GL138917   6.649  10.535   6.155
 8507POPC   GL238918   6.670  10.646   6.155
 8507POPC   C1A38919   6.636  10.518   6.455
 8507POPC   D2A38920   6.667  10.503   6.755
 8507POPC   C3A38921   6.634  10.509   7.055
 8507POPC   C4A38922   6.662  10.536   7.355
 8507POPC   C1B38923   6.656  10.818   6.455
 8507POPC   C2B38924   6.640  10.739   6.755
 8507POPC   C3B38925   6.636  10.735   7.055
 8507POPC   C4B38926   6.648  10.780   7.355
 8508POPC   NC338927  20.634   6.642   5.555
 8508POPC   PO438928  20.587   6.613   5.855
 8508POPC   GL138929  20.596   6.606   6.155
 8508POPC   GL238930  20.510   6.680   6.155
 8508POPC   C1A38931  20.638   6.678   6.455
 8508POPC   D2A38932  20.616   6.685   6.755
 8508POPC   C3A38933  20.653   6.691   7.055
 8508POPC   C4A38934  20.659   6.607   7.355
 8508POPC   C1B38935  20.365   6.841   6.455
 8508POPC   C2B38936  20.425   6.831   6.755
 8508POPC   C3B38937  20.441   6.807   7.055
 8508POPC   C4B38938  20.410   6.746   7.355
 8509POPC   NC338939  19.074  43.897   5.555
 8509POPC   PO438940  19.084  43.881   5.855
 8509POPC   GL138941  19.029  43.907   6.155
 8509POPC   GL238942  19.047  44.036   6.155
 8509POPC   C1A38943  19.070  43.936   6.455
 8509POPC   D2A38944  19.035  43.860   6.755
 8509POPC   C3A38945  19.099  43.888   7.055
 8509POPC   C4A38946  19.100  43.871   7.355
 8509POPC   C1B38947  18.939  44.122   6.455
 8509POPC   C2B38948  18.968  44.152   6.755
 8509POPC   C3B38949  18.999  44.077   7.055
 8509POPC   C4B38950  19.003  44.138   7.355
 8510POPC   NC338951  32.298  32.214   5.555
 8510POPC   PO438952  32.273  32.221   5.855
 8510POPC   GL138953  32.292  32.245   6.155
 8510POPC   GL238954  32.168  32.278   6.155
 8510POPC   C1A38955  32.294  32.280   6.455
 8510POPC   D2A38956  32.206  32.292   6.755
 8510POPC   C3A38957  32.241  32.213   7.055
 8510POPC   C4A38958  32.236  32.220   7.355
 8510POPC   C1B38959  32.025  32.361   6.455
 8510POPC   C2B38960  32.066  32.356   6.755
 8510POPC   C3B38961  32.007  32.385   7.055
 8510POPC   C4B38962  32.018  32.393   7.355
 8511POPC   NC338963  19.030   8.971   5.555
 8511POPC   PO438964  19.060   8.957   5.855
 8511POPC   GL138965  19.014   8.971   6.155
 8511POPC   GL238966  18.959   9.073   6.155
 8511POPC   C1A38967  19.068   8.953   6.455
 8511POPC   D2A38968  19.060   8.988   6.755
 8511POPC   C3A38969  19.032   8.961   7.055
 8511POPC   C4A38970  19.068   8.949   7.355
 8511POPC   C1B38971  18.867   9.126   6.455
 8511POPC   C2B38972  18.825   9.171   6.755
 8511POPC   C3B38973  18.890   9.098   7.055
 8511POPC   C4B38974  18.870   9.100   7.355
 8512POPC   NC338975  10.539  12.815   5.555
 8512POPC   PO438976  10.556  12.853   5.855
 8512POPC   GL138977  10.488  12.862   6.155
 8512POPC   GL238978  10.504  12.947   6.155
 8512POPC   C1A38979  10.529  12.899   6.455
 8512POPC   D2A38980  10.538  12.813   6.755
 8512POPC   C3A38981  10.510  12.844   7.055
 8512POPC   C4A38982  10.536  12.873   7.355
 8512POPC   C1B38983  10.438  13.117   6.455
 8512POPC   C2B38984  10.374  13.086   6.755
 8512POPC   C3B38985  10.383  13.027   7.055
 8512POPC   C4B38986  10.430  13.078   7.355
 8513POPC   NC338987   2.030  44.690   5.555
 8513POPC   PO438988   2.012  44.685   5.855
 8513POPC   GL138989   1.955  44.700   6.155
 8513POPC   GL238990   2.066  44.762   6.155
 8513POPC   C1A38991   1.950  44.623   6.455
 8513POPC   D2A38992   1.983  44.641   6.755
 8513POPC   C3A38993   1.963  44.629   7.055
 8513POPC   C4A38994   1.963  44.696   7.355
 8513POPC   C1B38995   2.083  44.904   6.455
 8513POPC   C2B38996   2.040  44.941   6.755
 8513POPC   C3B38997   2.037  44.920   7.055
 8513POPC   C4B38998   2.029  44.895   7.355
 8514POPC   NC338999   1.233  41.589   5.555
 8514POPC   PO439000   1.184  41.584   5.855
 8514POPC   GL139001   1.205  41.513   6.155
 8514POPC   GL239002   1.340  41.539   6.155
 8514POPC   C1A39003   1.238  41.522   6.455
 8514POPC   D2A39004   1.197  41.539   6.755
 8514POPC   C3A39005   1.168  41.575   7.055
 8514POPC   C4A39006   1.240  41.591   7.355
 8514POPC   C1B39007   1.478  41.522   6.455
 8514POPC   C2B39008   1.438  41.481   6.755
 8514POPC   C3B39009   1.439  41.496   7.055
 8514POPC   C4B39010   1.462  41.518   7.355
 8515POPC   NC339011  29.123  19.861   5.555
 8515POPC   PO439012  29.113  19.817   5.855
 8515POPC   GL139013  29.151  19.810   6.155
 8515POPC   GL239014  29.127  19.956   6.155
 8515POPC   C1A39015  29.098  19.868   6.455
 8515POPC   D2A39016  29.128  19.838   6.755
 8515POPC   C3A39017  29.152  19.789   7.055
 8515POPC   C4A39018  29.139  19.834   7.355
 8515POPC   C1B39019  29.090  20.092   6.455
 8515POPC   C2B39020  29.133  20.053   6.755
 8515POPC   C3B39021  29.126  20.129   7.055
 8515POPC   C4B39022  29.064  20.098   7.355
 8516POPC   NC339023  25.258  26.820   5.555
 8516POPC   PO439024  25.307  26.802   5.855
 8516POPC   GL139025  25.270  26.831   6.155
 8516POPC   GL239026  25.352  26.676   6.155
 8516POPC   C1A39027  25.226  26.824   6.455
 8516POPC   D2A39028  25.227  26.860   6.755
 8516POPC   C3A39029  25.310  26.802   7.055
 8516POPC   C4A39030  25.293  26.867   7.355
 8516POPC   C1B39031  25.428  26.591   6.455
 8516POPC   C2B39032  25.399  26.598   6.755
 8516POPC   C3B39033  25.392  26.596   7.055
 8516POPC   C4B39034  25.478  26.594   7.355
 8517POPC   NC339035  19.875  33.049   5.555
 8517POPC   PO439036  19.843  33.020   5.855
 8517POPC   GL139037  19.812  33.041   6.155
 8517POPC   GL239038  19.904  32.966   6.155
 8517POPC   C1A39039  19.857  33.071   6.455
 8517POPC   D2A39040  19.787  33.030   6.755
 8517POPC   C3A39041  19.786  33.066   7.055
 8517POPC   C4A39042  19.792  33.027   7.355
 8517POPC   C1B39043  20.074  32.891   6.455
 8517POPC   C2B39044  20.060  32.901   6.755
 8517POPC   C3B39045  20.034  32.858   7.055
 8517POPC   C4B39046  20.036  32.873   7.355
 8518POPC   NC339047  22.900  12.892   5.555
 8518POPC   PO439048  22.889  12.880   5.855
 8518POPC   GL139049  22.932  12.824   6.155
 8518POPC   GL239050  23.051  12.888   6.155
 8518POPC   C1A39051  22.932  12.842   6.455
 8518POPC   D2A39052  22.978  12.869   6.755
 8518POPC   C3A39053  22.895  12.806   7.055
 8518POPC   C4A39054  22.960  12.871   7.355
 8518POPC   C1B39055  23.171  12.981   6.455
 8518POPC   C2B39056  23.140  12.887   6.755
 8518POPC   C3B39057  23.137  12.934   7.055
 8518POPC   C4B39058  23.130  12.896   7.355
 8519POPC   NC339059  32.243  36.941   5.555
 8519POPC   PO439060  32.234  36.861   5.855
 8519POPC   GL139061  32.225  36.892   6.155
 8519POPC   GL239062  32.327  36.835   6.155
 8519POPC   C1A39063  32.206  36.938   6.455
 8519POPC   D2A39064  32.217  36.873   6.755
 8519POPC   C3A39065  32.257  36.889   7.055
 8519POPC   C4A39066  32.260  36.891   7.355
 8519POPC   C1B39067  32.405  36.663   6.455
 8519POPC   C2B39068  32.354  36.678   6.755
 8519POPC   C3B39069  32.343  36.732   7.055
 8519POPC   C4B39070  32.365  36.644   7.355
 8520POPC   NC339071  39.182   6.640   5.555
 8520POPC   PO439072  39.218   6.597   5.855
 8520POPC   GL139073  39.224   6.685   6.155
 8520POPC   GL239074  39.127   6.700   6.155
 8520POPC   C1A39075  39.251   6.645   6.455
 8520POPC   D2A39076  39.249   6.643   6.755
 8520POPC   C3A39077  39.198   6.608   7.055
 8520POPC   C4A39078  39.229   6.681   7.355
 8520POPC   C1B39079  38.977   6.714   6.455
 8520POPC   C2B39080  38.955   6.687   6.755
 8520POPC   C3B39081  39.027   6.737   7.055
 8520POPC   C4B39082  38.957   6.709   7.355
 8521POPC   NC339083   8.229  37.655   5.555
 8521POPC   PO439084   8.224  37.631   5.855
 8521POPC   GL139085   8.223  37.643   6.155
 8521POPC   GL239086   8.292  37.692   6.155
 8521POPC   C1A39087   8.215  37.693   6.455
 8521POPC   D2A39088   8.227  37.634   6.755
 8521POPC   C3A39089   8.231  37.728   7.055
 8521POPC   C4A39090   8.180  37.679   7.355
 8521POPC   C1B39091   8.397  37.743   6.455
 8521POPC   C2B39092   8.418  37.731   6.755
 8521POPC   C3B39093   8.490  37.654   7.055
 8521POPC   C4B39094   8.400  37.703   7.355
 8522POPC   NC339095  10.548  14.434   5.555
 8522POPC   PO439096  10.508  14.372   5.855
 8522POPC   GL139097  10.494  14.439   6.155
 8522POPC   GL239098  10.413  14.346   6.155
 8522POPC   C1A39099  10.511  14.355   6.455
 8522POPC   D2A39100  10.489  14.406   6.755
 8522POPC   C3A39101  10.479  14.399   7.055
 8522POPC   C4A39102  10.485  14.441   7.355
 8522POPC   C1B39103  10.369  14.292   6.455
 8522POPC   C2B39104  10.334  14.208   6.755
 8522POPC   C3B39105  10.317  14.249   7.055
 8522POPC   C4B39106  10.354  14.302   7.355
 8523POPC   NC339107  37.632  41.579   5.555
 8523POPC   PO439108  37.645  41.551   5.855
 8523POPC   GL139109  37.639  41.518   6.155
 8523POPC   GL239110  37.652  41.425   6.155
 8523POPC   C1A39111  37.721  41.516   6.455
 8523POPC   D2A39112  37.645  41.584   6.755
 8523POPC   C3A39113  37.690  41.540   7.055
 8523POPC   C4A39114  37.673  41.557   7.355
 8523POPC   C1B39115  37.700  41.346   6.455
 8523POPC   C2B39116  37.726  41.314   6.755
 8523POPC   C3B39117  37.658  41.283   7.055
 8523POPC   C4B39118  37.689  41.328   7.355
 8524POPC   NC339119  39.217  24.486   5.555
 8524POPC   PO439120  39.258  24.467   5.855
 8524POPC   GL139121  39.238  24.503   6.155
 8524POPC   GL239122  39.301  24.537   6.155
 8524POPC   C1A39123  39.228  24.527   6.455
 8524POPC   D2A39124  39.275  24.539   6.755
 8524POPC   C3A39125  39.225  24.532   7.055
 8524POPC   C4A39126  39.227  24.450   7.355
 8524POPC   C1B39127  39.498  24.636   6.455
 8524POPC   C2B39128  39.433  24.584   6.755
 8524POPC   C3B39129  39.401  24.607   7.055
 8524POPC   C4B39130  39.455  24.640   7.355
 8525POPC   NC339131  20.624  22.168   5.555
 8525POPC   PO439132  20.577  22.178   5.855
 8525POPC   GL139133  20.584  22.172   6.155
 8525POPC   GL239134  20.697  22.106   6.155
 8525POPC   C1A39135  20.567  22.117   6.455
 8525POPC   D2A39136  20.582  22.140   6.755
 8525POPC   C3A39137  20.587  22.113   7.055
 8525POPC   C4A39138  20.617  22.190   7.355
 8525POPC   C1B39139  20.794  22.083   6.455
 8525POPC   C2B39140  20.810  22.015   6.755
 8525POPC   C3B39141  20.810  22.044   7.055
 8525POPC   C4B39142  20.835  22.041   7.355
 8526POPC   NC339143   5.852  40.031   5.555
 8526POPC   PO439144   5.883  40.031   5.855
 8526POPC   GL139145   5.881  39.988   6.155
 8526POPC   GL239146   5.762  40.027   6.155
 8526POPC   C1A39147   5.824  40.043   6.455
 8526POPC   D2A39148   5.888  40.020   6.755
 8526POPC   C3A39149   5.842  40.053   7.055
 8526POPC   C4A39150   5.876  40.026   7.355
 8526POPC   C1B39151   5.626  39.972   6.455
 8526POPC   C2B39152   5.588  40.008   6.755
 8526POPC   C3B39153   5.583  40.002   7.055
 8526POPC   C4B39154   5.584  39.967   7.355
 8527POPC   NC339155  29.962   1.247   5.555
 8527POPC   PO439156  29.877   1.168   5.855
 8527POPC   GL139157  29.892   1.191   6.155
 8527POPC   GL239158  29.883   1.292   6.155
 8527POPC   C1A39159  29.903   1.263   6.455
 8527POPC   D2A39160  29.970   1.177   6.755
 8527POPC   C3A39161  29.963   1.172   7.055
 8527POPC   C4A39162  29.898   1.176   7.355
 8527POPC   C1B39163  29.781   1.368   6.455
 8527POPC   C2B39164  29.803   1.382   6.755
 8527POPC   C3B39165  29.807   1.407   7.055
 8527POPC   C4B39166  29.748   1.425   7.355
 8528POPC   NC339167   1.247  15.985   5.555
 8528POPC   PO439168   1.259  15.950   5.855
 8528POPC   GL139169   1.184  15.958   6.155
 8528POPC   GL239170   1.279  15.864   6.155
 8528POPC   C1A39171   1.191  16.003   6.455
 8528POPC   D2A39172   1.238  15.939   6.755
 8528POPC   C3A39173   1.253  16.002   7.055
 8528POPC   C4A39174   1.247  15.926   7.355
 8528POPC   C1B39175   1.432  15.762   6.455
 8528POPC   C2B39176   1.416  15.758   6.755
 8528POPC   C3B39177   1.350  15.733   7.055
 8528POPC   C4B39178   1.368  15.828   7.355
 8529POPC   NC339179  37.725  28.356   5.555
 8529POPC   PO439180  37.707  28.331   5.855
 8529POPC   GL139181  37.725  28.371   6.155
 8529POPC   GL239182  37.650  28.256   6.155
 8529POPC   C1A39183  37.638  28.375   6.455
 8529POPC   D2A39184  37.685  28.370   6.755
 8529POPC   C3A39185  37.720  28.409   7.055
 8529POPC   C4A39186  37.718  28.332   7.355
 8529POPC   C1B39187  37.548  28.171   6.455
 8529POPC   C2B39188  37.511  28.206   6.755
 8529POPC   C3B39189  37.549  28.173   7.055
 8529POPC   C4B39190  37.572  28.132   7.355
 8530POPC   NC339191  32.997  42.316   5.555
 8530POPC   PO439192  33.037  42.333   5.855
 8530POPC   GL139193  32.994  42.381   6.155
 8530POPC   GL239194  33.174  42.350   6.155
 8530POPC   C1A39195  33.014  42.302   6.455
 8530POPC   D2A39196  33.049  42.346   6.755
 8530POPC   C3A39197  33.025  42.321   7.055
 8530POPC   C4A39198  33.021  42.366   7.355
 8530POPC   C1B39199  33.274  42.301   6.455
 8530POPC   C2B39200  33.301  42.301   6.755
 8530POPC   C3B39201  33.292  42.366   7.055
 8530POPC   C4B39202  33.301  42.317   7.355
 8531POPC   NC339203  29.873  24.485   5.555
 8531POPC   PO439204  29.949  24.451   5.855
 8531POPC   GL139205  29.943  24.529   6.155
 8531POPC   GL239206  29.928  24.622   6.155
 8531POPC   C1A39207  29.913  24.458   6.455
 8531POPC   D2A39208  29.937  24.454   6.755
 8531POPC   C3A39209  29.950  24.465   7.055
 8531POPC   C4A39210  29.952  24.531   7.355
 8531POPC   C1B39211  29.977  24.745   6.455
 8531POPC   C2B39212  29.992  24.695   6.755
 8531POPC   C3B39213  29.966  24.742   7.055
 8531POPC   C4B39214  29.998  24.750   7.355
 8532POPC   NC339215  26.822  43.103   5.555
 8532POPC   PO439216  26.834  43.087   5.855
 8532POPC   GL139217  26.835  43.072   6.155
 8532POPC   GL239218  26.774  43.200   6.155
 8532POPC   C1A39219  26.769  43.149   6.455
 8532POPC   D2A39220  26.849  43.137   6.755
 8532POPC   C3A39221  26.808  43.153   7.055
 8532POPC   C4A39222  26.848  43.132   7.355
 8532POPC   C1B39223  26.766  43.302   6.455
 8532POPC   C2B39224  26.725  43.357   6.755
 8532POPC   C3B39225  26.691  43.296   7.055
 8532POPC   C4B39226  26.711  43.371   7.355
 8533POPC   NC339227   1.264  26.859   5.555
 8533POPC   PO439228   1.217  26.852   5.855
 8533POPC   GL139229   1.180  26.769   6.155
 8533POPC   GL239230   1.157  26.916   6.155
 8533POPC   C1A39231   1.207  26.840   6.455
 8533POPC   D2A39232   1.232  26.787   6.755
 8533POPC   C3A39233   1.199  26.791   7.055
 8533POPC   C4A39234   1.259  26.861   7.355
 8533POPC   C1B39235   1.193  27.044   6.455
 8533POPC   C2B39236   1.167  27.100   6.755
 8533POPC   C3B39237   1.150  27.035   7.055
 8533POPC   C4B39238   1.150  27.039   7.355
 8534POPC   NC339239   5.087  17.509   5.555
 8534POPC   PO439240   5.112  17.470   5.855
 8534POPC   GL139241   5.066  17.457   6.155
 8534POPC   GL239242   5.228  17.515   6.155
 8534POPC   C1A39243   5.083  17.525   6.455
 8534POPC   D2A39244   5.104  17.523   6.755
 8534POPC   C3A39245   5.100  17.479   7.055
 8534POPC   C4A39246   5.091  17.543   7.355
 8534POPC   C1B39247   5.331  17.473   6.455
 8534POPC   C2B39248   5.333  17.449   6.755
 8534POPC   C3B39249   5.389  17.480   7.055
 8534POPC   C4B39250   5.371  17.519   7.355
 8535POPC   NC339251   2.765  15.178   5.555
 8535POPC   PO439252   2.761  15.183   5.855
 8535POPC   GL139253   2.771  15.140   6.155
 8535POPC   GL239254   2.777  15.272   6.155
 8535POPC   C1A39255   2.807  15.177   6.455
 8535POPC   D2A39256   2.722  15.166   6.755
 8535POPC   C3A39257   2.756  15.224   7.055
 8535POPC   C4A39258   2.740  15.229   7.355
 8535POPC   C1B39259   2.826  15.405   6.455
 8535POPC   C2B39260   2.924  15.447   6.755
 8535POPC   C3B39261   2.889  15.365   7.055
 8535POPC   C4B39262   2.887  15.436   7.355
 8536POPC   NC339263  26.022  30.679   5.555
 8536POPC   PO439264  26.011  30.660   5.855
 8536POPC   GL139265  26.044  30.652   6.155
 8536POPC   GL239266  26.201  30.682   6.155
 8536POPC   C1A39267  26.047  30.711   6.455
 8536POPC   D2A39268  26.013  30.661   6.755
 8536POPC   C3A39269  26.066  30.743   7.055
 8536POPC   C4A39270  26.005  30.726   7.355
 8536POPC   C1B39271  26.331  30.639   6.455
 8536POPC   C2B39272  26.327  30.644   6.755
 8536POPC   C3B39273  26.292  30.659   7.055
 8536POPC   C4B39274  26.308  30.690   7.355
 8537POPC   NC339275  42.307  11.276   5.555
 8537POPC   PO439276  42.349  11.260   5.855
 8537POPC   GL139277  42.320  11.301   6.155
 8537POPC   GL239278  42.444  11.418   6.155
 8537POPC   C1A39279  42.316  11.290   6.455
 8537POPC   D2A39280  42.374  11.311   6.755
 8537POPC   C3A39281  42.336  11.315   7.055
 8537POPC   C4A39282  42.362  11.342   7.355
 8537POPC   C1B39283  42.468  11.527   6.455
 8537POPC   C2B39284  42.445  11.534   6.755
 8537POPC   C3B39285  42.533  11.544   7.055
 8537POPC   C4B39286  42.455  11.483   7.355
 8538POPC   NC339287  14.385  42.381   5.555
 8538POPC   PO439288  14.449  42.357   5.855
 8538POPC   GL139289  14.419  42.303   6.155
 8538POPC   GL239290  14.571  42.315   6.155
 8538POPC   C1A39291  14.383  42.382   6.455
 8538POPC   D2A39292  14.364  42.367   6.755
 8538POPC   C3A39293  14.445  42.320   7.055
 8538POPC   C4A39294  14.358  42.359   7.355
 8538POPC   C1B39295  14.631  42.293   6.455
 8538POPC   C2B39296  14.638  42.331   6.755
 8538POPC   C3B39297  14.695  42.308   7.055
 8538POPC   C4B39298  14.655  42.325   7.355
 8539POPC   NC339299  30.661   2.759   5.555
 8539POPC   PO439300  30.670   2.783   5.855
 8539POPC   GL139301  30.649   2.790   6.155
 8539POPC   GL239302  30.772   2.675   6.155
 8539POPC   C1A39303  30.718   2.800   6.455
 8539POPC   D2A39304  30.685   2.805   6.755
 8539POPC   C3A39305  30.704   2.787   7.055
 8539POPC   C4A39306  30.665   2.772   7.355
 8539POPC   C1B39307  30.767   2.489   6.455
 8539POPC   C2B39308  30.816   2.534   6.755
 8539POPC   C3B39309  30.829   2.520   7.055
 8539POPC   C4B39310  30.771   2.512   7.355
 8540POPC   NC339311  27.612  23.746   5.555
 8540POPC   PO439312  27.617  23.722   5.855
 8540POPC   GL139313  27.612  23.725   6.155
 8540POPC   GL239314  27.508  23.741   6.155
 8540POPC   C1A39315  27.571  23.707   6.455
 8540POPC   D2A39316  27.572  23.691   6.755
 8540POPC   C3A39317  27.596  23.743   7.055
 8540POPC   C4A39318  27.576  23.698   7.355
 8540POPC   C1B39319  27.311  23.801   6.455
 8540POPC   C2B39320  27.350  23.733   6.755
 8540POPC   C3B39321  27.382  23.727   7.055
 8540POPC   C4B39322  27.310  23.738   7.355
 8541POPC   NC339323  16.715   2.752   5.555
 8541POPC   PO439324  16.769   2.810   5.855
 8541POPC   GL139325  16.717   2.721   6.155
 8541POPC   GL239326  16.723   2.684   6.155
 8541POPC   C1A39327  16.756   2.765   6.455
 8541POPC   D2A39328  16.695   2.812   6.755
 8541POPC   C3A39329  16.746   2.808   7.055
 8541POPC   C4A39330  16.697   2.762   7.355
 8541POPC   C1B39331  16.695   2.539   6.455
 8541POPC   C2B39332  16.735   2.538   6.755
 8541POPC   C3B39333  16.677   2.520   7.055
 8541POPC   C4B39334  16.731   2.561   7.355
 8542POPC   NC339335  31.438  22.960   5.555
 8542POPC   PO439336  31.449  22.904   5.855
 8542POPC   GL139337  31.431  22.968   6.155
 8542POPC   GL239338  31.587  22.865   6.155
 8542POPC   C1A39339  31.512  22.932   6.455
 8542POPC   D2A39340  31.519  22.960   6.755
 8542POPC   C3A39341  31.522  22.949   7.055
 8542POPC   C4A39342  31.488  22.921   7.355
 8542POPC   C1B39343  31.618  22.699   6.455
 8542POPC   C2B39344  31.637  22.701   6.755
 8542POPC   C3B39345  31.610  22.707   7.055
 8542POPC   C4B39346  31.651  22.721   7.355
 8543POPC   NC339347   9.733  16.000   5.555
 8543POPC   PO439348   9.747  15.990   5.855
 8543POPC   GL139349   9.763  15.912   6.155
 8543POPC   GL239350   9.753  16.097   6.155
 8543POPC   C1A39351   9.728  15.921   6.455
 8543POPC   D2A39352   9.718  15.978   6.755
 8543POPC   C3A39353   9.701  15.959   7.055
 8543POPC   C4A39354   9.733  15.994   7.355
 8543POPC   C1B39355   9.848  16.235   6.455
 8543POPC   C2B39356   9.841  16.172   6.755
 8543POPC   C3B39357   9.849  16.216   7.055
 8543POPC   C4B39358   9.857  16.151   7.355
 8544POPC   NC339359  40.819  25.311   5.555
 8544POPC   PO439360  40.741  25.306   5.855
 8544POPC   GL139361  40.767  25.266   6.155
 8544POPC   GL239362  40.906  25.288   6.155
 8544POPC   C1A39363  40.766  25.308   6.455
 8544POPC   D2A39364  40.776  25.261   6.755
 8544POPC   C3A39365  40.812  25.314   7.055
 8544POPC   C4A39366  40.801  25.230   7.355
 8544POPC   C1B39367  40.964  25.390   6.455
 8544POPC   C2B39368  40.959  25.391   6.755
 8544POPC   C3B39369  41.052  25.390   7.055
 8544POPC   C4B39370  40.963  25.401   7.355
 8545POPC   NC339371  44.670  29.965   5.555
 8545POPC   PO439372  44.674  29.959   5.855
 8545POPC   GL139373  44.639  29.912   6.155
 8545POPC   GL239374  44.724  30.039   6.155
 8545POPC   C1A39375  44.685  29.924   6.455
 8545POPC   D2A39376  44.664  29.883   6.755
 8545POPC   C3A39377  44.681  29.893   7.055
 8545POPC   C4A39378  44.704  29.896   7.355
 8545POPC   C1B39379  44.906  30.079   6.455
 8545POPC   C2B39380  44.819  30.076   6.755
 8545POPC   C3B39381  44.888  30.117   7.055
 8545POPC   C4B39382  44.839  30.088   7.355
 8546POPC   NC339383  10.478  36.915   5.555
 8546POPC   PO439384  10.499  36.905   5.855
 8546POPC   GL139385  10.517  36.912   6.155
 8546POPC   GL239386  10.628  36.829   6.155
 8546POPC   C1A39387  10.495  36.953   6.455
 8546POPC   D2A39388  10.542  36.862   6.755
 8546POPC   C3A39389  10.511  36.897   7.055
 8546POPC   C4A39390  10.506  36.875   7.355
 8546POPC   C1B39391  10.710  36.782   6.455
 8546POPC   C2B39392  10.773  36.728   6.755
 8546POPC   C3B39393  10.762  36.751   7.055
 8546POPC   C4B39394  10.738  36.806   7.355
 8547POPC   NC339395  10.510  20.625   5.555
 8547POPC   PO439396  10.491  20.604   5.855
 8547POPC   GL139397  10.542  20.659   6.155
 8547POPC   GL239398  10.402  20.592   6.155
 8547POPC   C1A39399  10.522  20.616   6.455
 8547POPC   D2A39400  10.481  20.581   6.755
 8547POPC   C3A39401  10.492  20.637   7.055
 8547POPC   C4A39402  10.508  20.628   7.355
 8547POPC   C1B39403  10.274  20.676   6.455
 8547POPC   C2B39404  10.251  20.663   6.755
 8547POPC   C3B39405  10.246  20.636   7.055
 8547POPC   C4B39406  10.324  20.645   7.355
 8548POPC   NC339407  19.071  30.741   5.555
 8548POPC   PO439408  19.087  30.651   5.855
 8548POPC   GL139409  19.018  30.744   6.155
 8548POPC   GL239410  18.994  30.586   6.155
 8548POPC   C1A39411  19.084  30.695   6.455
 8548POPC   D2A39412  19.075  30.710   6.755
 8548POPC   C3A39413  19.046  30.735   7.055
 8548POPC   C4A39414  19.050  30.685   7.355
 8548POPC   C1B39415  18.888  30.522   6.455
 8548POPC   C2B39416  18.907  30.522   6.755
 8548POPC   C3B39417  18.897  30.547   7.055
 8548POPC   C4B39418  18.910  30.498   7.355
 8549POPC   NC339419  13.602  36.119   5.555
 8549POPC   PO439420  13.606  36.118   5.855
 8549POPC   GL139421  13.669  36.082   6.155
 8549POPC   GL239422  13.693  36.108   6.155
 8549POPC   C1A39423  13.586  36.096   6.455
 8549POPC   D2A39424  13.603  36.100   6.755
 8549POPC   C3A39425  13.594  36.155   7.055
 8549POPC   C4A39426  13.651  36.095   7.355
 8549POPC   C1B39427  13.806  36.029   6.455
 8549POPC   C2B39428  13.877  36.034   6.755
 8549POPC   C3B39429  13.870  36.001   7.055
 8549POPC   C4B39430  13.906  36.028   7.355
 8550POPC   NC339431  32.200  29.892   5.555
 8550POPC   PO439432  32.256  29.959   5.855
 8550POPC   GL139433  32.222  29.950   6.155
 8550POPC   GL239434  32.138  29.959   6.155
 8550POPC   C1A39435  32.257  29.931   6.455
 8550POPC   D2A39436  32.241  29.937   6.755
 8550POPC   C3A39437  32.214  29.910   7.055
 8550POPC   C4A39438  32.293  29.904   7.355
 8550POPC   C1B39439  32.021  30.109   6.455
 8550POPC   C2B39440  32.077  30.030   6.755
 8550POPC   C3B39441  32.052  30.043   7.055
 8550POPC   C4B39442  32.082  30.066   7.355
 8551POPC   NC339443  24.519  40.801   5.555
 8551POPC   PO439444  24.443  40.789   5.855
 8551POPC   GL139445  24.461  40.791   6.155
 8551POPC   GL239446  24.363  40.735   6.155
 8551POPC   C1A39447  24.441  40.751   6.455
 8551POPC   D2A39448  24.531  40.792   6.755
 8551POPC   C3A39449  24.464  40.783   7.055
 8551POPC   C4A39450  24.458  40.760   7.355
 8551POPC   C1B39451  24.259  40.691   6.455
 8551POPC   C2B39452  24.277  40.717   6.755
 8551POPC   C3B39453  24.305  40.669   7.055
 8551POPC   C4B39454  24.270  40.635   7.355
 8552POPC   NC339455  12.118  37.658   5.555
 8552POPC   PO439456  12.116  37.658   5.855
 8552POPC   GL139457  12.040  37.677   6.155
 8552POPC   GL239458  12.151  37.718   6.155
 8552POPC   C1A39459  12.074  37.656   6.455
 8552POPC   D2A39460  12.110  37.644   6.755
 8552POPC   C3A39461  12.084  37.692   7.055
 8552POPC   C4A39462  12.046  37.648   7.355
 8552POPC   C1B39463  12.221  37.822   6.455
 8552POPC   C2B39464  12.274  37.816   6.755
 8552POPC   C3B39465  12.273  37.868   7.055
 8552POPC   C4B39466  12.216  37.802   7.355
 8553POPC   NC339467  36.132  17.511   5.555
 8553POPC   PO439468  36.111  17.493   5.855
 8553POPC   GL139469  36.125  17.537   6.155
 8553POPC   GL239470  36.160  17.654   6.155
 8553POPC   C1A39471  36.127  17.487   6.455
 8553POPC   D2A39472  36.096  17.509   6.755
 8553POPC   C3A39473  36.102  17.548   7.055
 8553POPC   C4A39474  36.092  17.477   7.355
 8553POPC   C1B39475  36.098  17.757   6.455
 8553POPC   C2B39476  36.173  17.752   6.755
 8553POPC   C3B39477  36.192  17.793   7.055
 8553POPC   C4B39478  36.129  17.760   7.355
 8554POPC   NC339479  10.511  24.514   5.555
 8554POPC   PO439480  10.547  24.456   5.855
 8554POPC   GL139481  10.564  24.532   6.155
 8554POPC   GL239482  10.621  24.390   6.155
 8554POPC   C1A39483  10.494  24.506   6.455
 8554POPC   D2A39484  10.548  24.467   6.755
 8554POPC   C3A39485  10.501  24.537   7.055
 8554POPC   C4A39486  10.514  24.465   7.355
 8554POPC   C1B39487  10.668  24.327   6.455
 8554POPC   C2B39488  10.678  24.247   6.755
 8554POPC   C3B39489  10.673  24.286   7.055
 8554POPC   C4B39490  10.678  24.312   7.355
 8555POPC   NC339491   2.033  24.494   5.555
 8555POPC   PO439492   2.003  24.470   5.855
 8555POPC   GL139493   1.989  24.501   6.155
 8555POPC   GL239494   1.943  24.658   6.155
 8555POPC   C1A39495   1.977  24.537   6.455
 8555POPC   D2A39496   1.955  24.505   6.755
 8555POPC   C3A39497   2.003  24.451   7.055
 8555POPC   C4A39498   2.004  24.532   7.355
 8555POPC   C1B39499   1.925  24.722   6.455
 8555POPC   C2B39500   1.937  24.690   6.755
 8555POPC   C3B39501   1.910  24.763   7.055
 8555POPC   C4B39502   1.926  24.687   7.355
 8556POPC   NC339503  29.140   3.553   5.555
 8556POPC   PO439504  29.176   3.552   5.855
 8556POPC   GL139505  29.187   3.516   6.155
 8556POPC   GL239506  29.068   3.634   6.155
 8556POPC   C1A39507  29.165   3.553   6.455
 8556POPC   D2A39508  29.097   3.533   6.755
 8556POPC   C3A39509  29.108   3.578   7.055
 8556POPC   C4A39510  29.127   3.527   7.355
 8556POPC   C1B39511  29.043   3.803   6.455
 8556POPC   C2B39512  29.050   3.754   6.755
 8556POPC   C3B39513  28.992   3.750   7.055
 8556POPC   C4B39514  29.036   3.721   7.355
 8557POPC   NC339515  17.465  40.775   5.555
 8557POPC   PO439516  17.469  40.772   5.855
 8557POPC   GL139517  17.466  40.787   6.155
 8557POPC   GL239518  17.415  40.886   6.155
 8557POPC   C1A39519  17.550  40.739   6.455
 8557POPC   D2A39520  17.515  40.761   6.755
 8557POPC   C3A39521  17.519  40.824   7.055
 8557POPC   C4A39522  17.486  40.801   7.355
 8557POPC   C1B39523  17.407  41.005   6.455
 8557POPC   C2B39524  17.404  40.965   6.755
 8557POPC   C3B39525  17.383  40.953   7.055
 8557POPC   C4B39526  17.315  40.989   7.355
 8558POPC   NC339527  17.493  30.654   5.555
 8558POPC   PO439528  17.493  30.713   5.855
 8558POPC   GL139529  17.555  30.706   6.155
 8558POPC   GL239530  17.427  30.613   6.155
 8558POPC   C1A39531  17.521  30.706   6.455
 8558POPC   D2A39532  17.477  30.737   6.755
 8558POPC   C3A39533  17.529  30.665   7.055
 8558POPC   C4A39534  17.527  30.672   7.355
 8558POPC   C1B39535  17.416  30.447   6.455
 8558POPC   C2B39536  17.406  30.441   6.755
 8558POPC   C3B39537  17.477  30.430   7.055
 8558POPC   C4B39538  17.457  30.422   7.355
 8559POPC   NC339539  21.414  40.825   5.555
 8559POPC   PO439540  21.376  40.801   5.855
 8559POPC   GL139541  21.359  40.765   6.155
 8559POPC   GL239542  21.495  40.806   6.155
 8559POPC   C1A39543  21.422  40.801   6.455
 8559POPC   D2A39544  21.421  40.778   6.755
 8559POPC   C3A39545  21.428  40.786   7.055
 8559POPC   C4A39546  21.419  40.826   7.355
 8559POPC   C1B39547  21.624  40.858   6.455
 8559POPC   C2B39548  21.583  40.841   6.755
 8559POPC   C3B39549  21.652  40.821   7.055
 8559POPC   C4B39550  21.639  40.865   7.355
 8560POPC   NC339551   0.442   5.873   5.555
 8560POPC   PO439552   0.431   5.843   5.855
 8560POPC   GL139553   0.435   5.894   6.155
 8560POPC   GL239554   0.480   6.034   6.155
 8560POPC   C1A39555   0.431   5.832   6.455
 8560POPC   D2A39556   0.464   5.844   6.755
 8560POPC   C3A39557   0.429   5.916   7.055
 8560POPC   C4A39558   0.485   5.869   7.355
 8560POPC   C1B39559   0.514   6.101   6.455
 8560POPC   C2B39560   0.467   6.155   6.755
 8560POPC   C3B39561   0.534   6.149   7.055
 8560POPC   C4B39562   0.465   6.150   7.355
 8561POPC   NC339563  19.812  15.920   5.555
 8561POPC   PO439564  19.864  15.974   5.855
 8561POPC   GL139565  19.807  15.994   6.155
 8561POPC   GL239566  19.801  15.878   6.155
 8561POPC   C1A39567  19.877  15.964   6.455
 8561POPC   D2A39568  19.832  15.911   6.755
 8561POPC   C3A39569  19.834  15.936   7.055
 8561POPC   C4A39570  19.846  15.957   7.355
 8561POPC   C1B39571  19.830  15.725   6.455
 8561POPC   C2B39572  19.790  15.668   6.755
 8561POPC   C3B39573  19.778  15.681   7.055
 8561POPC   C4B39574  19.832  15.722   7.355
 8562POPC   NC339575  44.613  26.048   5.555
 8562POPC   PO439576  44.659  26.011   5.855
 8562POPC   GL139577  44.681  26.004   6.155
 8562POPC   GL239578  44.570  26.125   6.155
 8562POPC   C1A39579  44.651  26.052   6.455
 8562POPC   D2A39580  44.703  26.039   6.755
 8562POPC   C3A39581  44.709  26.066   7.055
 8562POPC   C4A39582  44.652  26.027   7.355
 8562POPC   C1B39583  44.432  26.096   6.455
 8562POPC   C2B39584  44.417  26.132   6.755
 8562POPC   C3B39585  44.426  26.103   7.055
 8562POPC   C4B39586  44.472  26.121   7.355
 8563POPC   NC339587  13.617   1.956   5.555
 8563POPC   PO439588  13.640   2.017   5.855
 8563POPC   GL139589  13.588   2.038   6.155
 8563POPC   GL239590  13.547   2.104   6.155
 8563POPC   C1A39591  13.635   2.028   6.455
 8563POPC   D2A39592  13.584   1.974   6.755
 8563POPC   C3A39593  13.624   2.000   7.055
 8563POPC   C4A39594  13.585   2.015   7.355
 8563POPC   C1B39595  13.457   2.140   6.455
 8563POPC   C2B39596  13.381   2.140   6.755
 8563POPC   C3B39597  13.455   2.094   7.055
 8563POPC   C4B39598  13.417   2.161   7.355
 8564POPC   NC339599  40.051  19.088   5.555
 8564POPC   PO439600  40.050  19.071   5.855
 8564POPC   GL139601  40.025  19.052   6.155
 8564POPC   GL239602  40.038  18.958   6.155
 8564POPC   C1A39603  40.033  19.045   6.455
 8564POPC   D2A39604  40.042  19.068   6.755
 8564POPC   C3A39605  40.055  19.057   7.055
 8564POPC   C4A39606  40.056  19.031   7.355
 8564POPC   C1B39607  40.168  18.898   6.455
 8564POPC   C2B39608  40.141  18.885   6.755
 8564POPC   C3B39609  40.193  18.807   7.055
 8564POPC   C4B39610  40.143  18.808   7.355
 8565POPC   NC339611  36.919   0.431   5.555
 8565POPC   PO439612  36.914   0.487   5.855
 8565POPC   GL139613  36.937   0.404   6.155
 8565POPC   GL239614  36.802   0.423   6.155
 8565POPC   C1A39615  36.920   0.475   6.455
 8565POPC   D2A39616  36.937   0.472   6.755
 8565POPC   C3A39617  36.921   0.466   7.055
 8565POPC   C4A39618  36.858   0.427   7.355
 8565POPC   C1B39619  36.638   0.311   6.455
 8565POPC   C2B39620  36.657   0.378   6.755
 8565POPC   C3B39621  36.709   0.297   7.055
 8565POPC   C4B39622  36.651   0.336   7.355
 8566POPC   NC339623  10.489  37.642   5.555
 8566POPC   PO439624  10.505  37.644   5.855
 8566POPC   GL139625  10.491  37.658   6.155
 8566POPC   GL239626  10.569  37.819   6.155
 8566POPC   C1A39627  10.532  37.665   6.455
 8566POPC   D2A39628  10.532  37.728   6.755
 8566POPC   C3A39629  10.554  37.693   7.055
 8566POPC   C4A39630  10.485  37.723   7.355
 8566POPC   C1B39631  10.622  37.902   6.455
 8566POPC   C2B39632  10.649  37.874   6.755
 8566POPC   C3B39633  10.604  37.953   7.055
 8566POPC   C4B39634  10.594  37.906   7.355
 8567POPC   NC339635  18.313  29.178   5.555
 8567POPC   PO439636  18.233  29.098   5.855
 8567POPC   GL139637  18.331  29.166   6.155
 8567POPC   GL239638  18.168  29.211   6.155
 8567POPC   C1A39639  18.310  29.104   6.455
 8567POPC   D2A39640  18.256  29.169   6.755
 8567POPC   C3A39641  18.293  29.194   7.055
 8567POPC   C4A39642  18.308  29.165   7.355
 8567POPC   C1B39643  18.116  29.291   6.455
 8567POPC   C2B39644  18.105  29.352   6.755
 8567POPC   C3B39645  18.139  29.331   7.055
 8567POPC   C4B39646  18.072  29.352   7.355
 8568POPC   NC339647   2.793  16.780   5.555
 8568POPC   PO439648   2.799  16.693   5.855
 8568POPC   GL139649   2.748  16.748   6.155
 8568POPC   GL239650   2.668  16.789   6.155
 8568POPC   C1A39651   2.735  16.753   6.455
 8568POPC   D2A39652   2.738  16.764   6.755
 8568POPC   C3A39653   2.789  16.731   7.055
 8568POPC   C4A39654   2.759  16.727   7.355
 8568POPC   C1B39655   2.540  16.903   6.455
 8568POPC   C2B39656   2.588  16.852   6.755
 8568POPC   C3B39657   2.517  16.874   7.055
 8568POPC   C4B39658   2.524  16.903   7.355
 8569POPC   NC339659  42.370  15.995   5.555
 8569POPC   PO439660  42.345  15.907   5.855
 8569POPC   GL139661  42.321  15.964   6.155
 8569POPC   GL239662  42.324  15.837   6.155
 8569POPC   C1A39663  42.362  16.004   6.455
 8569POPC   D2A39664  42.345  15.939   6.755
 8569POPC   C3A39665  42.296  15.989   7.055
 8569POPC   C4A39666  42.371  15.936   7.355
 8569POPC   C1B39667  42.243  15.761   6.455
 8569POPC   C2B39668  42.286  15.702   6.755
 8569POPC   C3B39669  42.280  15.721   7.055
 8569POPC   C4B39670  42.271  15.727   7.355
 8570POPC   NC339671   6.690  37.666   5.555
 8570POPC   PO439672   6.618  37.633   5.855
 8570POPC   GL139673   6.613  37.679   6.155
 8570POPC   GL239674   6.492  37.698   6.155
 8570POPC   C1A39675   6.677  37.726   6.455
 8570POPC   D2A39676   6.636  37.729   6.755
 8570POPC   C3A39677   6.687  37.677   7.055
 8570POPC   C4A39678   6.595  37.654   7.355
 8570POPC   C1B39679   6.428  37.718   6.455
 8570POPC   C2B39680   6.359  37.633   6.755
 8570POPC   C3B39681   6.381  37.730   7.055
 8570POPC   C4B39682   6.408  37.649   7.355
 8571POPC   NC339683  30.712  12.074   5.555
 8571POPC   PO439684  30.647  12.033   5.855
 8571POPC   GL139685  30.675  12.073   6.155
 8571POPC   GL239686  30.628  12.192   6.155
 8571POPC   C1A39687  30.700  12.060   6.455
 8571POPC   D2A39688  30.733  12.069   6.755
 8571POPC   C3A39689  30.675  12.106   7.055
 8571POPC   C4A39690  30.741  12.103   7.355
 8571POPC   C1B39691  30.472  12.259   6.455
 8571POPC   C2B39692  30.485  12.269   6.755
 8571POPC   C3B39693  30.492  12.210   7.055
 8571POPC   C4B39694  30.514  12.224   7.355
 8572POPC   NC339695   6.623  41.534   5.555
 8572POPC   PO439696   6.639  41.587   5.855
 8572POPC   GL139697   6.629  41.546   6.155
 8572POPC   GL239698   6.667  41.686   6.155
 8572POPC   C1A39699   6.670  41.586   6.455
 8572POPC   D2A39700   6.672  41.565   6.755
 8572POPC   C3A39701   6.649  41.568   7.055
 8572POPC   C4A39702   6.652  41.529   7.355
 8572POPC   C1B39703   6.711  41.787   6.455
 8572POPC   C2B39704   6.631  41.819   6.755
 8572POPC   C3B39705   6.699  41.766   7.055
 8572POPC   C4B39706   6.638  41.789   7.355
 8573POPC   NC339707  14.447   1.948   5.555
 8573POPC   PO439708  14.397   1.973   5.855
 8573POPC   GL139709  14.399   1.970   6.155
 8573POPC   GL239710  14.326   1.962   6.155
 8573POPC   C1A39711  14.411   2.035   6.455
 8573POPC   D2A39712  14.411   1.991   6.755
 8573POPC   C3A39713  14.444   1.973   7.055
 8573POPC   C4A39714  14.447   2.004   7.355
 8573POPC   C1B39715  14.168   2.035   6.455
 8573POPC   C2B39716  14.203   2.038   6.755
 8573POPC   C3B39717  14.119   2.003   7.055
 8573POPC   C4B39718  14.180   2.007   7.355
 8574POPC   NC339719  26.059  31.434   5.555
 8574POPC   PO439720  26.006  31.468   5.855
 8574POPC   GL139721  26.085  31.495   6.155
 8574POPC   GL239722  26.108  31.416   6.155
 8574POPC   C1A39723  26.060  31.502   6.455
 8574POPC   D2A39724  26.038  31.513   6.755
 8574POPC   C3A39725  26.001  31.432   7.055
 8574POPC   C4A39726  26.032  31.492   7.355
 8574POPC   C1B39727  26.239  31.346   6.455
 8574POPC   C2B39728  26.251  31.359   6.755
 8574POPC   C3B39729  26.282  31.403   7.055
 8574POPC   C4B39730  26.244  31.342   7.355
 8575POPC   NC339731  31.462  20.586   5.555
 8575POPC   PO439732  31.505  20.660   5.855
 8575POPC   GL139733  31.479  20.571   6.155
 8575POPC   GL239734  31.408  20.625   6.155
 8575POPC   C1A39735  31.496  20.646   6.455
 8575POPC   D2A39736  31.436  20.614   6.755
 8575POPC   C3A39737  31.474  20.601   7.055
 8575POPC   C4A39738  31.454  20.610   7.355
 8575POPC   C1B39739  31.251  20.728   6.455
 8575POPC   C2B39740  31.231  20.742   6.755
 8575POPC   C3B39741  31.279  20.709   7.055
 8575POPC   C4B39742  31.255  20.667   7.355
 8576POPC   NC339743  28.408  23.716   5.555
 8576POPC   PO439744  28.410  23.685   5.855
 8576POPC   GL139745  28.368  23.682   6.155
 8576POPC   GL239746  28.295  23.810   6.155
 8576POPC   C1A39747  28.373  23.679   6.455
 8576POPC   D2A39748  28.386  23.743   6.755
 8576POPC   C3A39749  28.359  23.720   7.055
 8576POPC   C4A39750  28.358  23.664   7.355
 8576POPC   C1B39751  28.328  23.999   6.455
 8576POPC   C2B39752  28.314  23.944   6.755
 8576POPC   C3B39753  28.286  23.932   7.055
 8576POPC   C4B39754  28.326  23.974   7.355
 8577POPC   NC339755  44.626  24.531   5.555
 8577POPC   PO439756  44.658  24.521   5.855
 8577POPC   GL139757  44.625  24.463   6.155
 8577POPC   GL239758  44.584  24.571   6.155
 8577POPC   C1A39759  44.615  24.470   6.455
 8577POPC   D2A39760  44.644  24.523   6.755
 8577POPC   C3A39761  44.629  24.475   7.055
 8577POPC   C4A39762  44.664  24.479   7.355
 8577POPC   C1B39763  44.647  24.775   6.455
 8577POPC   C2B39764  44.550  24.717   6.755
 8577POPC   C3B39765  44.558  24.703   7.055
 8577POPC   C4B39766  44.573  24.720   7.355
 8578POPC   NC339767  29.970  34.551   5.555
 8578POPC   PO439768  29.905  34.544   5.855
 8578POPC   GL139769  29.884  34.556   6.155
 8578POPC   GL239770  30.014  34.613   6.155
 8578POPC   C1A39771  29.917  34.565   6.455
 8578POPC   D2A39772  29.874  34.585   6.755
 8578POPC   C3A39773  29.911  34.598   7.055
 8578POPC   C4A39774  29.944  34.588   7.355
 8578POPC   C1B39775  30.147  34.582   6.455
 8578POPC   C2B39776  30.199  34.645   6.755
 8578POPC   C3B39777  30.171  34.655   7.055
 8578POPC   C4B39778  30.171  34.619   7.355
 8579POPC   NC339779  42.316  43.121   5.555
 8579POPC   PO439780  42.384  43.068   5.855
 8579POPC   GL139781  42.367  43.160   6.155
 8579POPC   GL239782  42.404  43.193   6.155
 8579POPC   C1A39783  42.308  43.082   6.455
 8579POPC   D2A39784  42.289  43.135   6.755
 8579POPC   C3A39785  42.322  43.129   7.055
 8579POPC   C4A39786  42.340  43.116   7.355
 8579POPC   C1B39787  42.543  43.279   6.455
 8579POPC   C2B39788  42.522  43.246   6.755
 8579POPC   C3B39789  42.568  43.268   7.055
 8579POPC   C4B39790  42.526  43.300   7.355
 8580POPC   NC339791  18.238  23.752   5.555
 8580POPC   PO439792  18.316  23.689   5.855
 8580POPC   GL139793  18.331  23.755   6.155
 8580POPC   GL239794  18.403  23.597   6.155
 8580POPC   C1A39795  18.260  23.742   6.455
 8580POPC   D2A39796  18.284  23.761   6.755
 8580POPC   C3A39797  18.276  23.676   7.055
 8580POPC   C4A39798  18.320  23.743   7.355
 8580POPC   C1B39799  18.397  23.483   6.455
 8580POPC   C2B39800  18.473  23.525   6.755
 8580POPC   C3B39801  18.475  23.468   7.055
 8580POPC   C4B39802  18.458  23.467   7.355
 8581POPC   NC339803  21.350  32.993   5.555
 8581POPC   PO439804  21.431  33.018   5.855
 8581POPC   GL139805  21.412  32.999   6.155
 8581POPC   GL239806  21.332  32.976   6.155
 8581POPC   C1A39807  21.367  33.009   6.455
 8581POPC   D2A39808  21.337  32.991   6.755
 8581POPC   C3A39809  21.402  33.003   7.055
 8581POPC   C4A39810  21.353  33.043   7.355
 8581POPC   C1B39811  21.220  32.895   6.455
 8581POPC   C2B39812  21.184  32.827   6.755
 8581POPC   C3B39813  21.152  32.852   7.055
 8581POPC   C4B39814  21.142  32.840   7.355
 8582POPC   NC339815  36.140  12.804   5.555
 8582POPC   PO439816  36.084  12.877   5.855
 8582POPC   GL139817  36.145  12.802   6.155
 8582POPC   GL239818  36.168  12.971   6.155
 8582POPC   C1A39819  36.095  12.811   6.455
 8582POPC   D2A39820  36.124  12.880   6.755
 8582POPC   C3A39821  36.129  12.873   7.055
 8582POPC   C4A39822  36.084  12.832   7.355
 8582POPC   C1B39823  36.167  13.148   6.455
 8582POPC   C2B39824  36.166  13.096   6.755
 8582POPC   C3B39825  36.112  13.102   7.055
 8582POPC   C4B39826  36.110  13.098   7.355
 8583POPC   NC339827  26.852  26.063   5.555
 8583POPC   PO439828  26.799  26.039   5.855
 8583POPC   GL139829  26.806  26.050   6.155
 8583POPC   GL239830  26.982  26.029   6.155
 8583POPC   C1A39831  26.780  26.046   6.455
 8583POPC   D2A39832  26.830  26.025   6.755
 8583POPC   C3A39833  26.856  26.075   7.055
 8583POPC   C4A39834  26.862  26.063   7.355
 8583POPC   C1B39835  27.108  26.093   6.455
 8583POPC   C2B39836  27.098  26.100   6.755
 8583POPC   C3B39837  27.094  26.055   7.055
 8583POPC   C4B39838  27.062  26.073   7.355
 8584POPC   NC339839   3.536  30.742   5.555
 8584POPC   PO439840   3.570  30.726   5.855
 8584POPC   GL139841   3.543  30.678   6.155
 8584POPC   GL239842   3.551  30.579   6.155
 8584POPC   C1A39843   3.585  30.665   6.455
 8584POPC   D2A39844   3.519  30.726   6.755
 8584POPC   C3A39845   3.534  30.739   7.055
 8584POPC   C4A39846   3.590  30.741   7.355
 8584POPC   C1B39847   3.630  30.420   6.455
 8584POPC   C2B39848   3.597  30.436   6.755
 8584POPC   C3B39849   3.584  30.415   7.055
 8584POPC   C4B39850   3.621  30.442   7.355
 8585POPC   NC339851  42.348  19.029   5.555
 8585POPC   PO439852  42.360  19.096   5.855
 8585POPC   GL139853  42.323  19.100   6.155
 8585POPC   GL239854  42.347  19.207   6.155
 8585POPC   C1A39855  42.325  19.091   6.455
 8585POPC   D2A39856  42.311  19.080   6.755
 8585POPC   C3A39857  42.366  19.013   7.055
 8585POPC   C4A39858  42.303  19.044   7.355
 8585POPC   C1B39859  42.281  19.350   6.455
 8585POPC   C2B39860  42.307  19.341   6.755
 8585POPC   C3B39861  42.297  19.261   7.055
 8585POPC   C4B39862  42.306  19.294   7.355
 8586POPC   NC339863   0.411  16.700   5.555
 8586POPC   PO439864   0.410  16.746   5.855
 8586POPC   GL139865   0.426  16.738   6.155
 8586POPC   GL239866   0.542  16.843   6.155
 8586POPC   C1A39867   0.389  16.704   6.455
 8586POPC   D2A39868   0.471  16.715   6.755
 8586POPC   C3A39869   0.469  16.731   7.055
 8586POPC   C4A39870   0.419  16.701   7.355
 8586POPC   C1B39871   0.590  16.914   6.455
 8586POPC   C2B39872   0.565  16.905   6.755
 8586POPC   C3B39873   0.581  16.922   7.055
 8586POPC   C4B39874   0.560  16.950   7.355
 8587POPC   NC339875  26.060  12.889   5.555
 8587POPC   PO439876  26.042  12.813   5.855
 8587POPC   GL139877  26.077  12.838   6.155
 8587POPC   GL239878  26.104  12.747   6.155
 8587POPC   C1A39879  26.078  12.840   6.455
 8587POPC   D2A39880  26.047  12.865   6.755
 8587POPC   C3A39881  26.067  12.820   7.055
 8587POPC   C4A39882  26.044  12.837   7.355
 8587POPC   C1B39883  26.244  12.749   6.455
 8587POPC   C2B39884  26.202  12.719   6.755
 8587POPC   C3B39885  26.238  12.663   7.055
 8587POPC   C4B39886  26.270  12.693   7.355
 8588POPC   NC339887  29.108   2.031   5.555
 8588POPC   PO439888  29.184   1.995   5.855
 8588POPC   GL139889  29.117   1.955   6.155
 8588POPC   GL239890  29.256   2.068   6.155
 8588POPC   C1A39891  29.186   2.031   6.455
 8588POPC   D2A39892  29.148   1.951   6.755
 8588POPC   C3A39893  29.165   2.039   7.055
 8588POPC   C4A39894  29.119   1.988   7.355
 8588POPC   C1B39895  29.415   2.094   6.455
 8588POPC   C2B39896  29.336   2.057   6.755
 8588POPC   C3B39897  29.423   2.115   7.055
 8588POPC   C4B39898  29.329   2.042   7.355
 8589POPC   NC339899  44.635  29.103   5.555
 8589POPC   PO439900  44.670  29.100   5.855
 8589POPC   GL139901  44.651  29.188   6.155
 8589POPC   GL239902  44.640  29.080   6.155
 8589POPC   C1A39903  44.683  29.154   6.455
 8589POPC   D2A39904  44.706  29.194   6.755
 8589POPC   C3A39905  44.637  29.145   7.055
 8589POPC   C4A39906  44.693  29.158   7.355
 8589POPC   C1B39907  44.537  28.891   6.455
 8589POPC   C2B39908  44.529  28.916   6.755
 8589POPC   C3B39909  44.501  28.897   7.055
 8589POPC   C4B39910  44.575  28.941   7.355
 8590POPC   NC339911  12.896  24.528   5.555
 8590POPC   PO439912  12.859  24.535   5.855
 8590POPC   GL139913  12.880  24.451   6.155
 8590POPC   GL239914  12.800  24.353   6.155
 8590POPC   C1A39915  12.845  24.510   6.455
 8590POPC   D2A39916  12.861  24.534   6.755
 8590POPC   C3A39917  12.878  24.490   7.055
 8590POPC   C4A39918  12.847  24.487   7.355
 8590POPC   C1B39919  12.832  24.200   6.455
 8590POPC   C2B39920  12.809  24.241   6.755
 8590POPC   C3B39921  12.823  24.216   7.055
 8590POPC   C4B39922  12.826  24.246   7.355
 8591POPC   NC339923  22.173  38.474   5.555
 8591POPC   PO439924  22.193  38.470   5.855
 8591POPC   GL139925  22.117  38.468   6.155
 8591POPC   GL239926  22.300  38.517   6.155
 8591POPC   C1A39927  22.193  38.498   6.455
 8591POPC   D2A39928  22.191  38.440   6.755
 8591POPC   C3A39929  22.212  38.457   7.055
 8591POPC   C4A39930  22.172  38.441   7.355
 8591POPC   C1B39931  22.435  38.532   6.455
 8591POPC   C2B39932  22.423  38.470   6.755
 8591POPC   C3B39933  22.435  38.469   7.055
 8591POPC   C4B39934  22.457  38.523   7.355
 8592POPC   NC339935  26.785  22.978   5.555
 8592POPC   PO439936  26.852  22.965   5.855
 8592POPC   GL139937  26.836  22.928   6.155
 8592POPC   GL239938  26.772  23.074   6.155
 8592POPC   C1A39939  26.826  22.906   6.455
 8592POPC   D2A39940  26.808  22.903   6.755
 8592POPC   C3A39941  26.816  22.900   7.055
 8592POPC   C4A39942  26.782  22.943   7.355
 8592POPC   C1B39943  26.745  23.122   6.455
 8592POPC   C2B39944  26.730  23.153   6.755
 8592POPC   C3B39945  26.691  23.138   7.055
 8592POPC   C4B39946  26.674  23.163   7.355
 8593POPC   NC339947  18.297  15.957   5.555
 8593POPC   PO439948  18.276  15.929   5.855
 8593POPC   GL139949  18.244  15.992   6.155
 8593POPC   GL239950  18.370  16.020   6.155
 8593POPC   C1A39951  18.279  15.912   6.455
 8593POPC   D2A39952  18.266  15.997   6.755
 8593POPC   C3A39953  18.312  16.003   7.055
 8593POPC   C4A39954  18.323  15.946   7.355
 8593POPC   C1B39955  18.402  16.109   6.455
 8593POPC   C2B39956  18.419  16.170   6.755
 8593POPC   C3B39957  18.437  16.151   7.055
 8593POPC   C4B39958  18.444  16.156   7.355
 8594POPC   NC339959  43.894  11.292   5.555
 8594POPC   PO439960  43.841  11.258   5.855
 8594POPC   GL139961  43.872  11.271   6.155
 8594POPC   GL239962  43.908  11.219   6.155
 8594POPC   C1A39963  43.841  11.280   6.455
 8594POPC   D2A39964  43.910  11.273   6.755
 8594POPC   C3A39965  43.870  11.309   7.055
 8594POPC   C4A39966  43.926  11.289   7.355
 8594POPC   C1B39967  44.015  11.075   6.455
 8594POPC   C2B39968  43.992  11.079   6.755
 8594POPC   C3B39969  43.990  11.040   7.055
 8594POPC   C4B39970  44.006  11.057   7.355
 8595POPC   NC339971  26.038  36.175   5.555
 8595POPC   PO439972  26.032  36.102   5.855
 8595POPC   GL139973  26.063  36.151   6.155
 8595POPC   GL239974  25.960  36.184   6.155
 8595POPC   C1A39975  26.086  36.084   6.455
 8595POPC   D2A39976  26.020  36.170   6.755
 8595POPC   C3A39977  26.088  36.144   7.055
 8595POPC   C4A39978  26.074  36.100   7.355
 8595POPC   C1B39979  25.847  36.266   6.455
 8595POPC   C2B39980  25.850  36.225   6.755
 8595POPC   C3B39981  25.861  36.204   7.055
 8595POPC   C4B39982  25.768  36.232   7.355
 8596POPC   NC339983   7.424  39.227   5.555
 8596POPC   PO439984   7.375  39.281   5.855
 8596POPC   GL139985   7.399  39.279   6.155
 8596POPC   GL239986   7.375  39.086   6.155
 8596POPC   C1A39987   7.443  39.188   6.455
 8596POPC   D2A39988   7.414  39.260   6.755
 8596POPC   C3A39989   7.439  39.231   7.055
 8596POPC   C4A39990   7.373  39.239   7.355
 8596POPC   C1B39991   7.277  38.994   6.455
 8596POPC   C2B39992   7.247  39.052   6.755
 8596POPC   C3B39993   7.274  39.023   7.055
 8596POPC   C4B39994   7.311  39.073   7.355
 8597POPC   NC339995  37.652  42.351   5.555
 8597POPC   PO439996  37.678  42.290   5.855
 8597POPC   GL139997  37.710  42.359   6.155
 8597POPC   GL239998  37.635  42.194   6.155
 8597POPC   C1A39999  37.697  42.304   6.455
 8597POPC   D2A40000  37.673  42.355   6.755
 8597POPC   C3A40001  37.725  42.290   7.055
 8597POPC   C4A40002  37.712  42.325   7.355
 8597POPC   C1B40003  37.588  42.074   6.455
 8597POPC   C2B40004  37.548  42.148   6.755
 8597POPC   C3B40005  37.577  42.093   7.055
 8597POPC   C4B40006  37.612  42.105   7.355
 8598POPC   NC340007  26.850  23.693   5.555
 8598POPC   PO440008  26.854  23.685   5.855
 8598POPC   GL140009  26.861  23.725   6.155
 8598POPC   GL240010  26.748  23.820   6.155
 8598POPC   C1A40011  26.817  23.758   6.455
 8598POPC   D2A40012  26.821  23.726   6.755
 8598POPC   C3A40013  26.807  23.722   7.055
 8598POPC   C4A40014  26.807  23.682   7.355
 8598POPC   C1B40015  26.759  23.924   6.455
 8598POPC   C2B40016  26.680  23.969   6.755
 8598POPC   C3B40017  26.719  23.904   7.055
 8598POPC   C4B40018  26.718  23.947   7.355
 8599POPC   NC340019  12.882   2.029   5.555
 8599POPC   PO440020  12.897   2.021   5.855
 8599POPC   GL140021  12.902   1.948   6.155
 8599POPC   GL240022  12.911   2.036   6.155
 8599POPC   C1A40023  12.847   2.019   6.455
 8599POPC   D2A40024  12.847   1.972   6.755
 8599POPC   C3A40025  12.804   1.973   7.055
 8599POPC   C4A40026  12.901   1.953   7.355
 8599POPC   C1B40027  13.025   2.195   6.455
 8599POPC   C2B40028  13.070   2.178   6.755
 8599POPC   C3B40029  12.986   2.186   7.055
 8599POPC   C4B40030  13.006   2.128   7.355
 8600POPC   NC340031   5.131  32.988   5.555
 8600POPC   PO440032   5.066  33.037   5.855
 8600POPC   GL140033   5.120  33.046   6.155
 8600POPC   GL240034   5.065  32.944   6.155
 8600POPC   C1A40035   5.073  33.024   6.455
 8600POPC   D2A40036   5.070  33.004   6.755
 8600POPC   C3A40037   5.120  33.005   7.055
 8600POPC   C4A40038   5.103  33.074   7.355
 8600POPC   C1B40039   5.049  32.808   6.455
 8600POPC   C2B40040   4.987  32.833   6.755
 8600POPC   C3B40041   5.024  32.826   7.055
 8600POPC   C4B40042   4.993  32.836   7.355
 8601POPC   NC340043  16.761   3.535   5.555
 8601POPC   PO440044  16.735   3.534   5.855
 8601POPC   GL140045  16.717   3.586   6.155
 8601POPC   GL240046  16.780   3.400   6.155
 8601POPC   C1A40047  16.713   3.535   6.455
 8601POPC   D2A40048  16.776   3.586   6.755
 8601POPC   C3A40049  16.706   3.550   7.055
 8601POPC   C4A40050  16.718   3.502   7.355
 8601POPC   C1B40051  16.726   3.278   6.455
 8601POPC   C2B40052  16.797   3.326   6.755
 8601POPC   C3B40053  16.783   3.323   7.055
 8601POPC   C4B40054  16.721   3.306   7.355
 8602POPC   NC340055   1.164  18.280   5.555
 8602POPC   PO440056   1.225  18.325   5.855
 8602POPC   GL140057   1.194  18.305   6.155
 8602POPC   GL240058   1.077  18.338   6.155
 8602POPC   C1A40059   1.217  18.304   6.455
 8602POPC   D2A40060   1.230  18.234   6.755
 8602POPC   C3A40061   1.203  18.332   7.055
 8602POPC   C4A40062   1.243  18.310   7.355
 8602POPC   C1B40063   1.001  18.372   6.455
 8602POPC   C2B40064   0.972  18.388   6.755
 8602POPC   C3B40065   0.952  18.384   7.055
 8602POPC   C4B40066   0.971  18.331   7.355
 8603POPC   NC340067  30.666   3.568   5.555
 8603POPC   PO440068  30.718   3.530   5.855
 8603POPC   GL140069  30.734   3.497   6.155
 8603POPC   GL240070  30.610   3.543   6.155
 8603POPC   C1A40071  30.702   3.564   6.455
 8603POPC   D2A40072  30.694   3.566   6.755
 8603POPC   C3A40073  30.727   3.576   7.055
 8603POPC   C4A40074  30.649   3.541   7.355
 8603POPC   C1B40075  30.436   3.580   6.455
 8603POPC   C2B40076  30.431   3.619   6.755
 8603POPC   C3B40077  30.412   3.582   7.055
 8603POPC   C4B40078  30.413   3.602   7.355
 8604POPC   NC340079  29.967  35.303   5.555
 8604POPC   PO440080  29.872  35.378   5.855
 8604POPC   GL140081  29.895  35.368   6.155
 8604POPC   GL240082  29.845  35.403   6.155
 8604POPC   C1A40083  29.899  35.383   6.455
 8604POPC   D2A40084  29.945  35.352   6.755
 8604POPC   C3A40085  29.891  35.385   7.055
 8604POPC   C4A40086  29.932  35.349   7.355
 8604POPC   C1B40087  29.764  35.582   6.455
 8604POPC   C2B40088  29.794  35.564   6.755
 8604POPC   C3B40089  29.746  35.546   7.055
 8604POPC   C4B40090  29.792  35.549   7.355
 8605POPC   NC340091  16.699  29.923   5.555
 8605POPC   PO440092  16.732  29.877   5.855
 8605POPC   GL140093  16.695  29.915   6.155
 8605POPC   GL240094  16.616  29.969   6.155
 8605POPC   C1A40095  16.732  29.960   6.455
 8605POPC   D2A40096  16.728  29.942   6.755
 8605POPC   C3A40097  16.711  29.902   7.055
 8605POPC   C4A40098  16.715  29.952   7.355
 8605POPC   C1B40099  16.522  29.935   6.455
 8605POPC   C2B40100  16.512  29.988   6.755
 8605POPC   C3B40101  16.467  29.975   7.055
 8605POPC   C4B40102  16.532  29.955   7.355
 8606POPC   NC340103  33.007  43.109   5.555
 8606POPC   PO440104  33.071  43.076   5.855
 8606POPC   GL140105  33.071  43.079   6.155
 8606POPC   GL240106  33.151  43.132   6.155
 8606POPC   C1A40107  32.992  43.125   6.455
 8606POPC   D2A40108  32.999  43.160   6.755
 8606POPC   C3A40109  33.046  43.077   7.055
 8606POPC   C4A40110  32.994  43.094   7.355
 8606POPC   C1B40111  33.239  43.222   6.455
 8606POPC   C2B40112  33.257  43.140   6.755
 8606POPC   C3B40113  33.248  43.201   7.055
 8606POPC   C4B40114  33.254  43.171   7.355
 8607POPC   NC340115   3.582  32.256   5.555
 8607POPC   PO440116   3.512  32.280   5.855
 8607POPC   GL140117   3.531  32.277   6.155
 8607POPC   GL240118   3.616  32.332   6.155
 8607POPC   C1A40119   3.579  32.202   6.455
 8607POPC   D2A40120   3.555  32.290   6.755
 8607POPC   C3A40121   3.528  32.207   7.055
 8607POPC   C4A40122   3.571  32.276   7.355
 8607POPC   C1B40123   3.640  32.443   6.455
 8607POPC   C2B40124   3.637  32.501   6.755
 8607POPC   C3B40125   3.623  32.459   7.055
 8607POPC   C4B40126   3.669  32.475   7.355
 8608POPC   NC340127   8.978   8.929   5.555
 8608POPC   PO440128   8.992   8.928   5.855
 8608POPC   GL140129   8.981   9.010   6.155
 8608POPC   GL240130   8.914   9.021   6.155
 8608POPC   C1A40131   8.934   8.927   6.455
 8608POPC   D2A40132   8.977   8.928   6.755
 8608POPC   C3A40133   8.937   8.975   7.055
 8608POPC   C4A40134   8.974   8.985   7.355
 8608POPC   C1B40135   8.780   9.209   6.455
 8608POPC   C2B40136   8.820   9.119   6.755
 8608POPC   C3B40137   8.850   9.202   7.055
 8608POPC   C4B40138   8.808   9.119   7.355
 8609POPC   NC340139   8.945  39.278   5.555
 8609POPC   PO440140   8.952  39.225   5.855
 8609POPC   GL140141   9.009  39.211   6.155
 8609POPC   GL240142   9.073  39.314   6.155
 8609POPC   C1A40143   8.941  39.251   6.455
 8609POPC   D2A40144   8.999  39.259   6.755
 8609POPC   C3A40145   8.997  39.201   7.055
 8609POPC   C4A40146   8.939  39.231   7.355
 8609POPC   C1B40147   9.171  39.430   6.455
 8609POPC   C2B40148   9.147  39.351   6.755
 8609POPC   C3B40149   9.131  39.384   7.055
 8609POPC   C4B40150   9.117  39.398   7.355
 8610POPC   NC340151   4.285  43.110   5.555
 8610POPC   PO440152   4.363  43.074   5.855
 8610POPC   GL140153   4.322  43.154   6.155
 8610POPC   GL240154   4.455  43.152   6.155
 8610POPC   C1A40155   4.275  43.062   6.455
 8610POPC   D2A40156   4.304  43.080   6.755
 8610POPC   C3A40157   4.342  43.160   7.055
 8610POPC   C4A40158   4.287  43.154   7.355
 8610POPC   C1B40159   4.614  43.182   6.455
 8610POPC   C2B40160   4.599  43.161   6.755
 8610POPC   C3B40161   4.545  43.153   7.055
 8610POPC   C4B40162   4.589  43.171   7.355
 8611POPC   NC340163  36.945  26.863   5.555
 8611POPC   PO440164  36.947  26.776   5.855
 8611POPC   GL140165  36.950  26.788   6.155
 8611POPC   GL240166  36.763  26.780   6.155
 8611POPC   C1A40167  36.925  26.816   6.455
 8611POPC   D2A40168  36.938  26.798   6.755
 8611POPC   C3A40169  36.891  26.797   7.055
 8611POPC   C4A40170  36.861  26.805   7.355
 8611POPC   C1B40171  36.710  26.644   6.455
 8611POPC   C2B40172  36.679  26.670   6.755
 8611POPC   C3B40173  36.728  26.693   7.055
 8611POPC   C4B40174  36.724  26.701   7.355
 8612POPC   NC340175  15.163  33.055   5.555
 8612POPC   PO440176  15.222  33.053   5.855
 8612POPC   GL140177  15.166  33.021   6.155
 8612POPC   GL240178  15.021  32.980   6.155
 8612POPC   C1A40179  15.223  32.999   6.455
 8612POPC   D2A40180  15.211  33.037   6.755
 8612POPC   C3A40181  15.198  33.052   7.055
 8612POPC   C4A40182  15.167  33.054   7.355
 8612POPC   C1B40183  14.968  33.004   6.455
 8612POPC   C2B40184  14.892  33.083   6.755
 8612POPC   C3B40185  14.976  33.034   7.055
 8612POPC   C4B40186  14.939  33.063   7.355
 8613POPC   NC340187  18.263  27.610   5.555
 8613POPC   PO440188  18.311  27.575   5.855
 8613POPC   GL140189  18.297  27.587   6.155
 8613POPC   GL240190  18.185  27.622   6.155
 8613POPC   C1A40191  18.306  27.612   6.455
 8613POPC   D2A40192  18.248  27.573   6.755
 8613POPC   C3A40193  18.269  27.592   7.055
 8613POPC   C4A40194  18.283  27.592   7.355
 8613POPC   C1B40195  18.058  27.541   6.455
 8613POPC   C2B40196  18.040  27.556   6.755
 8613POPC   C3B40197  18.079  27.629   7.055
 8613POPC   C4B40198  18.062  27.614   7.355
 8614POPC   NC340199  33.064  39.985   5.555
 8614POPC   PO440200  32.976  40.018   5.855
 8614POPC   GL140201  32.978  40.032   6.155
 8614POPC   GL240202  33.138  40.061   6.155
 8614POPC   C1A40203  33.039  40.039   6.455
 8614POPC   D2A40204  33.022  40.013   6.755
 8614POPC   C3A40205  33.068  39.990   7.055
 8614POPC   C4A40206  33.030  39.967   7.355
 8614POPC   C1B40207  33.258  40.140   6.455
 8614POPC   C2B40208  33.211  40.106   6.755
 8614POPC   C3B40209  33.255  40.077   7.055
 8614POPC   C4B40210  33.265  40.084   7.355
 8615POPC   NC340211  33.790  12.056   5.555
 8615POPC   PO440212  33.799  12.090   5.855
 8615POPC   GL140213  33.772  12.036   6.155
 8615POPC   GL240214  33.849  12.134   6.155
 8615POPC   C1A40215  33.827  12.102   6.455
 8615POPC   D2A40216  33.753  12.078   6.755
 8615POPC   C3A40217  33.784  12.055   7.055
 8615POPC   C4A40218  33.850  12.030   7.355
 8615POPC   C1B40219  33.919  12.253   6.455
 8615POPC   C2B40220  33.953  12.331   6.755
 8615POPC   C3B40221  33.895  12.336   7.055
 8615POPC   C4B40222  33.944  12.300   7.355
 8616POPC   NC340223  22.891  40.829   5.555
 8616POPC   PO440224  22.920  40.769   5.855
 8616POPC   GL140225  22.948  40.782   6.155
 8616POPC   GL240226  22.843  40.673   6.155
 8616POPC   C1A40227  22.899  40.786   6.455
 8616POPC   D2A40228  22.904  40.796   6.755
 8616POPC   C3A40229  22.951  40.770   7.055
 8616POPC   C4A40230  22.941  40.813   7.355
 8616POPC   C1B40231  22.674  40.685   6.455
 8616POPC   C2B40232  22.710  40.702   6.755
 8616POPC   C3B40233  22.747  40.693   7.055
 8616POPC   C4B40234  22.758  40.679   7.355
 8617POPC   NC340235  20.577  36.944   5.555
 8617POPC   PO440236  20.635  36.872   5.855
 8617POPC   GL140237  20.596  36.903   6.155
 8617POPC   GL240238  20.629  37.051   6.155
 8617POPC   C1A40239  20.604  36.889   6.455
 8617POPC   D2A40240  20.659  36.930   6.755
 8617POPC   C3A40241  20.659  36.952   7.055
 8617POPC   C4A40242  20.566  36.934   7.355
 8617POPC   C1B40243  20.710  37.104   6.455
 8617POPC   C2B40244  20.725  37.083   6.755
 8617POPC   C3B40245  20.714  37.179   7.055
 8617POPC   C4B40246  20.694  37.105   7.355
 8618POPC   NC340247  11.294  24.468   5.555
 8618POPC   PO440248  11.341  24.454   5.855
 8618POPC   GL140249  11.298  24.521   6.155
 8618POPC   GL240250  11.169  24.537   6.155
 8618POPC   C1A40251  11.315  24.447   6.455
 8618POPC   D2A40252  11.343  24.450   6.755
 8618POPC   C3A40253  11.252  24.477   7.055
 8618POPC   C4A40254  11.332  24.512   7.355
 8618POPC   C1B40255  11.032  24.462   6.455
 8618POPC   C2B40256  11.062  24.487   6.755
 8618POPC   C3B40257  11.069  24.493   7.055
 8618POPC   C4B40258  11.043  24.494   7.355
 8619POPC   NC340259  12.860  35.329   5.555
 8619POPC   PO440260  12.823  35.388   5.855
 8619POPC   GL140261  12.806  35.359   6.155
 8619POPC   GL240262  12.954  35.349   6.155
 8619POPC   C1A40263  12.843  35.356   6.455
 8619POPC   D2A40264  12.901  35.398   6.755
 8619POPC   C3A40265  12.835  35.333   7.055
 8619POPC   C4A40266  12.833  35.345   7.355
 8619POPC   C1B40267  13.083  35.446   6.455
 8619POPC   C2B40268  13.109  35.461   6.755
 8619POPC   C3B40269  13.111  35.465   7.055
 8619POPC   C4B40270  13.110  35.455   7.355
 8620POPC   NC340271   8.990  13.582   5.555
 8620POPC   PO440272   8.977  13.605   5.855
 8620POPC   GL140273   8.976  13.671   6.155
 8620POPC   GL240274   8.855  13.693   6.155
 8620POPC   C1A40275   8.927  13.629   6.455
 8620POPC   D2A40276   8.974  13.610   6.755
 8620POPC   C3A40277   8.987  13.654   7.055
 8620POPC   C4A40278   8.965  13.628   7.355
 8620POPC   C1B40279   8.781  13.785   6.455
 8620POPC   C2B40280   8.845  13.803   6.755
 8620POPC   C3B40281   8.839  13.854   7.055
 8620POPC   C4B40282   8.843  13.781   7.355
 8621POPC   NC340283  21.338   1.203   5.555
 8621POPC   PO440284  21.400   1.249   5.855
 8621POPC   GL140285  21.344   1.258   6.155
 8621POPC   GL240286  21.361   1.127   6.155
 8621POPC   C1A40287  21.356   1.190   6.455
 8621POPC   D2A40288  21.349   1.197   6.755
 8621POPC   C3A40289  21.362   1.236   7.055
 8621POPC   C4A40290  21.412   1.233   7.355
 8621POPC   C1B40291  21.458   0.952   6.455
 8621POPC   C2B40292  21.438   1.012   6.755
 8621POPC   C3B40293  21.397   0.998   7.055
 8621POPC   C4B40294  21.369   0.995   7.355
 8622POPC   NC340295  41.560   6.640   5.555
 8622POPC   PO440296  41.573   6.648   5.855
 8622POPC   GL140297  41.567   6.599   6.155
 8622POPC   GL240298  41.518   6.517   6.155
 8622POPC   C1A40299  41.591   6.624   6.455
 8622POPC   D2A40300  41.518   6.643   6.755
 8622POPC   C3A40301  41.604   6.649   7.055
 8622POPC   C4A40302  41.586   6.638   7.355
 8622POPC   C1B40303  41.524   6.356   6.455
 8622POPC   C2B40304  41.479   6.437   6.755
 8622POPC   C3B40305  41.524   6.413   7.055
 8622POPC   C4B40306  41.527   6.435   7.355
 8623POPC   NC340307   7.372  12.897   5.555
 8623POPC   PO440308   7.469  12.813   5.855
 8623POPC   GL140309   7.379  12.812   6.155
 8623POPC   GL240310   7.552  12.765   6.155
 8623POPC   C1A40311   7.423  12.816   6.455
 8623POPC   D2A40312   7.376  12.850   6.755
 8623POPC   C3A40313   7.407  12.840   7.055
 8623POPC   C4A40314   7.378  12.865   7.355
 8623POPC   C1B40315   7.660  12.702   6.455
 8623POPC   C2B40316   7.671  12.743   6.755
 8623POPC   C3B40317   7.674  12.765   7.055
 8623POPC   C4B40318   7.668  12.702   7.355
 8624POPC   NC340319   3.499  39.214   5.555
 8624POPC   PO440320   3.504  39.191   5.855
 8624POPC   GL140321   3.507  39.224   6.155
 8624POPC   GL240322   3.450  39.303   6.155
 8624POPC   C1A40323   3.548  39.249   6.455
 8624POPC   D2A40324   3.518  39.199   6.755
 8624POPC   C3A40325   3.561  39.263   7.055
 8624POPC   C4A40326   3.560  39.266   7.355
 8624POPC   C1B40327   3.369  39.431   6.455
 8624POPC   C2B40328   3.401  39.430   6.755
 8624POPC   C3B40329   3.379  39.396   7.055
 8624POPC   C4B40330   3.337  39.476   7.355
 8625POPC   NC340331  28.385   0.472   5.555
 8625POPC   PO440332  28.354   0.472   5.855
 8625POPC   GL140333  28.335   0.429   6.155
 8625POPC   GL240334  28.431   0.295   6.155
 8625POPC   C1A40335  28.327   0.394   6.455
 8625POPC   D2A40336  28.380   0.392   6.755
 8625POPC   C3A40337  28.331   0.396   7.055
 8625POPC   C4A40338  28.385   0.475   7.355
 8625POPC   C1B40339  28.496   0.191   6.455
 8625POPC   C2B40340  28.563   0.211   6.755
 8625POPC   C3B40341  28.493   0.208   7.055
 8625POPC   C4B40342  28.551   0.285   7.355
 8626POPC   NC340343  22.173   5.073   5.555
 8626POPC   PO440344  22.117   5.141   5.855
 8626POPC   GL140345  22.148   5.123   6.155
 8626POPC   GL240346  22.241   5.014   6.155
 8626POPC   C1A40347  22.151   5.055   6.455
 8626POPC   D2A40348  22.203   5.133   6.755
 8626POPC   C3A40349  22.202   5.076   7.055
 8626POPC   C4A40350  22.136   5.132   7.355
 8626POPC   C1B40351  22.361   4.996   6.455
 8626POPC   C2B40352  22.448   4.995   6.755
 8626POPC   C3B40353  22.422   5.067   7.055
 8626POPC   C4B40354  22.383   4.990   7.355
 8627POPC   NC340355  20.583   1.170   5.555
 8627POPC   PO440356  20.628   1.263   5.855
 8627POPC   GL140357  20.573   1.226   6.155
 8627POPC   GL240358  20.539   1.344   6.155
 8627POPC   C1A40359  20.568   1.250   6.455
 8627POPC   D2A40360  20.620   1.219   6.755
 8627POPC   C3A40361  20.587   1.212   7.055
 8627POPC   C4A40362  20.600   1.227   7.355
 8627POPC   C1B40363  20.464   1.459   6.455
 8627POPC   C2B40364  20.476   1.429   6.755
 8627POPC   C3B40365  20.458   1.466   7.055
 8627POPC   C4B40366  20.488   1.428   7.355
 8628POPC   NC340367  42.323  20.653   5.555
 8628POPC   PO440368  42.302  20.600   5.855
 8628POPC   GL140369  42.300  20.599   6.155
 8628POPC   GL240370  42.237  20.749   6.155
 8628POPC   C1A40371  42.356  20.572   6.455
 8628POPC   D2A40372  42.306  20.620   6.755
 8628POPC   C3A40373  42.360  20.617   7.055
 8628POPC   C4A40374  42.316  20.628   7.355
 8628POPC   C1B40375  42.181  20.848   6.455
 8628POPC   C2B40376  42.247  20.854   6.755
 8628POPC   C3B40377  42.243  20.831   7.055
 8628POPC   C4B40378  42.204  20.834   7.355
 8629POPC   NC340379   5.844  39.184   5.555
 8629POPC   PO440380   5.828  39.261   5.855
 8629POPC   GL140381   5.901  39.181   6.155
 8629POPC   GL240382   5.807  39.141   6.155
 8629POPC   C1A40383   5.918  39.184   6.455
 8629POPC   D2A40384   5.828  39.200   6.755
 8629POPC   C3A40385   5.860  39.226   7.055
 8629POPC   C4A40386   5.863  39.262   7.355
 8629POPC   C1B40387   5.680  39.081   6.455
 8629POPC   C2B40388   5.703  39.022   6.755
 8629POPC   C3B40389   5.660  39.081   7.055
 8629POPC   C4B40390   5.693  39.079   7.355
 8630POPC   NC340391  39.274  21.340   5.555
 8630POPC   PO440392  39.260  21.353   5.855
 8630POPC   GL140393  39.227  21.388   6.155
 8630POPC   GL240394  39.353  21.263   6.155
 8630POPC   C1A40395  39.194  21.429   6.455
 8630POPC   D2A40396  39.262  21.435   6.755
 8630POPC   C3A40397  39.277  21.371   7.055
 8630POPC   C4A40398  39.213  21.341   7.355
 8630POPC   C1B40399  39.378  21.210   6.455
 8630POPC   C2B40400  39.366  21.188   6.755
 8630POPC   C3B40401  39.376  21.231   7.055
 8630POPC   C4B40402  39.412  21.230   7.355
 8631POPC   NC340403  14.372  15.199   5.555
 8631POPC   PO440404  14.436  15.217   5.855
 8631POPC   GL140405  14.356  15.206   6.155
 8631POPC   GL240406  14.367  15.312   6.155
 8631POPC   C1A40407  14.366  15.222   6.455
 8631POPC   D2A40408  14.366  15.192   6.755
 8631POPC   C3A40409  14.382  15.224   7.055
 8631POPC   C4A40410  14.392  15.155   7.355
 8631POPC   C1B40411  14.225  15.403   6.455
 8631POPC   C2B40412  14.203  15.415   6.755
 8631POPC   C3B40413  14.209  15.393   7.055
 8631POPC   C4B40414  14.212  15.378   7.355
 8632POPC   NC340415   2.774  44.660   5.555
 8632POPC   PO440416   2.786  44.638   5.855
 8632POPC   GL140417   2.774  44.689   6.155
 8632POPC   GL240418   2.826  44.515   6.155
 8632POPC   C1A40419   2.726  44.643   6.455
 8632POPC   D2A40420   2.724  44.624   6.755
 8632POPC   C3A40421   2.784  44.638   7.055
 8632POPC   C4A40422   2.811  44.650   7.355
 8632POPC   C1B40423   2.862  44.459   6.455
 8632POPC   C2B40424   2.914  44.415   6.755
 8632POPC   C3B40425   2.863  44.477   7.055
 8632POPC   C4B40426   2.912  44.488   7.355
 8633POPC   NC340427  11.266  18.281   5.555
 8633POPC   PO440428  11.279  18.276   5.855
 8633POPC   GL140429  11.339  18.249   6.155
 8633POPC   GL240430  11.471  18.246   6.155
 8633POPC   C1A40431  11.315  18.257   6.455
 8633POPC   D2A40432  11.325  18.237   6.755
 8633POPC   C3A40433  11.261  18.254   7.055
 8633POPC   C4A40434  11.315  18.316   7.355
 8633POPC   C1B40435  11.543  18.315   6.455
 8633POPC   C2B40436  11.590  18.297   6.755
 8633POPC   C3B40437  11.536  18.287   7.055
 8633POPC   C4B40438  11.556  18.236   7.355
 8634POPC   NC340439  32.251  28.388   5.555
 8634POPC   PO440440  32.234  28.349   5.855
 8634POPC   GL140441  32.269  28.348   6.155
 8634POPC   GL240442  32.159  28.413   6.155
 8634POPC   C1A40443  32.279  28.334   6.455
 8634POPC   D2A40444  32.238  28.369   6.755
 8634POPC   C3A40445  32.274  28.347   7.055
 8634POPC   C4A40446  32.244  28.413   7.355
 8634POPC   C1B40447  32.072  28.467   6.455
 8634POPC   C2B40448  31.998  28.531   6.755
 8634POPC   C3B40449  32.038  28.479   7.055
 8634POPC   C4B40450  32.040  28.451   7.355
 8635POPC   NC340451  44.629  15.194   5.555
 8635POPC   PO440452  44.671  15.206   5.855
 8635POPC   GL140453  44.668  15.227   6.155
 8635POPC   GL240454  44.543  15.115   6.155
 8635POPC   C1A40455  44.671  15.224   6.455
 8635POPC   D2A40456  44.616  15.178   6.755
 8635POPC   C3A40457  44.625  15.218   7.055
 8635POPC   C4A40458  44.633  15.183   7.355
 8635POPC   C1B40459  44.477  15.085   6.455
 8635POPC   C2B40460  44.427  15.036   6.755
 8635POPC   C3B40461  44.418  15.080   7.055
 8635POPC   C4B40462  44.403  15.048   7.355
 8636POPC   NC340463  29.191  29.892   5.555
 8636POPC   PO440464  29.113  29.894   5.855
 8636POPC   GL140465  29.096  29.940   6.155
 8636POPC   GL240466  29.049  30.027   6.155
 8636POPC   C1A40467  29.166  29.900   6.455
 8636POPC   D2A40468  29.128  29.875   6.755
 8636POPC   C3A40469  29.161  29.963   7.055
 8636POPC   C4A40470  29.140  29.936   7.355
 8636POPC   C1B40471  28.989  30.038   6.455
 8636POPC   C2B40472  28.933  30.053   6.755
 8636POPC   C3B40473  28.982  30.060   7.055
 8636POPC   C4B40474  28.935  30.044   7.355
 8637POPC   NC340475   2.758  12.814   5.555
 8637POPC   PO440476   2.717  12.849   5.855
 8637POPC   GL140477   2.801  12.866   6.155
 8637POPC   GL240478   2.784  12.764   6.155
 8637POPC   C1A40479   2.753  12.840   6.455
 8637POPC   D2A40480   2.781  12.888   6.755
 8637POPC   C3A40481   2.756  12.826   7.055
 8637POPC   C4A40482   2.761  12.843   7.355
 8637POPC   C1B40483   2.824  12.610   6.455
 8637POPC   C2B40484   2.769  12.583   6.755
 8637POPC   C3B40485   2.774  12.604   7.055
 8637POPC   C4B40486   2.790  12.645   7.355
 8638POPC   NC340487  38.459  19.790   5.555
 8638POPC   PO440488  38.463  19.797   5.855
 8638POPC   GL140489  38.462  19.786   6.155
 8638POPC   GL240490  38.395  19.729   6.155
 8638POPC   C1A40491  38.469  19.791   6.455
 8638POPC   D2A40492  38.430  19.860   6.755
 8638POPC   C3A40493  38.408  19.834   7.055
 8638POPC   C4A40494  38.504  19.863   7.355
 8638POPC   C1B40495  38.259  19.639   6.455
 8638POPC   C2B40496  38.264  19.636   6.755
 8638POPC   C3B40497  38.239  19.684   7.055
 8638POPC   C4B40498  38.239  19.625   7.355
 8639POPC   NC340499  18.321  36.132   5.555
 8639POPC   PO440500  18.282  36.120   5.855
 8639POPC   GL140501  18.308  36.163   6.155
 8639POPC   GL240502  18.196  36.039   6.155
 8639POPC   C1A40503  18.244  36.131   6.455
 8639POPC   D2A40504  18.254  36.102   6.755
 8639POPC   C3A40505  18.328  36.135   7.055
 8639POPC   C4A40506  18.303  36.109   7.355
 8639POPC   C1B40507  18.107  35.897   6.455
 8639POPC   C2B40508  18.085  35.973   6.755
 8639POPC   C3B40509  18.112  35.950   7.055
 8639POPC   C4B40510  18.103  35.914   7.355
 8640POPC   NC340511  12.029  43.908   5.555
 8640POPC   PO440512  12.108  43.871   5.855
 8640POPC   GL140513  12.068  43.853   6.155
 8640POPC   GL240514  12.200  43.993   6.155
 8640POPC   C1A40515  12.046  43.909   6.455
 8640POPC   D2A40516  12.106  43.878   6.755
 8640POPC   C3A40517  12.029  43.914   7.055
 8640POPC   C4A40518  12.028  43.929   7.355
 8640POPC   C1B40519  12.297  44.018   6.455
 8640POPC   C2B40520  12.212  44.030   6.755
 8640POPC   C3B40521  12.261  44.059   7.055
 8640POPC   C4B40522  12.278  44.018   7.355
 8641POPC   NC340523   9.003   3.558   5.555
 8641POPC   PO440524   8.936   3.589   5.855
 8641POPC   GL140525   8.975   3.590   6.155
 8641POPC   GL240526   8.964   3.456   6.155
 8641POPC   C1A40527   8.937   3.544   6.455
 8641POPC   D2A40528   8.964   3.566   6.755
 8641POPC   C3A40529   8.938   3.575   7.055
 8641POPC   C4A40530   8.982   3.533   7.355
 8641POPC   C1B40531   8.900   3.315   6.455
 8641POPC   C2B40532   8.846   3.327   6.755
 8641POPC   C3B40533   8.824   3.277   7.055
 8641POPC   C4B40534   8.874   3.311   7.355
 8642POPC   NC340535  39.974  11.286   5.555
 8642POPC   PO440536  39.982  11.265   5.855
 8642POPC   GL140537  40.027  11.285   6.155
 8642POPC   GL240538  40.076  11.194   6.155
 8642POPC   C1A40539  40.023  11.291   6.455
 8642POPC   D2A40540  40.015  11.298   6.755
 8642POPC   C3A40541  39.995  11.294   7.055
 8642POPC   C4A40542  40.053  11.304   7.355
 8642POPC   C1B40543  40.206  11.169   6.455
 8642POPC   C2B40544  40.214  11.182   6.755
 8642POPC   C3B40545  40.260  11.202   7.055
 8642POPC   C4B40546  40.211  11.213   7.355
 8643POPC   NC340547  29.944   8.963   5.555
 8643POPC   PO440548  29.963   8.967   5.855
 8643POPC   GL140549  29.886   8.971   6.155
 8643POPC   GL240550  29.933   8.863   6.155
 8643POPC   C1A40551  29.935   8.978   6.455
 8643POPC   D2A40552  29.931   8.994   6.755
 8643POPC   C3A40553  29.922   8.934   7.055
 8643POPC   C4A40554  29.964   9.019   7.355
 8643POPC   C1B40555  29.951   8.767   6.455
 8643POPC   C2B40556  29.926   8.690   6.755
 8643POPC   C3B40557  29.897   8.762   7.055
 8643POPC   C4B40558  29.924   8.743   7.355
 8644POPC   NC340559  22.211  15.908   5.555
 8644POPC   PO440560  22.167  15.994   5.855
 8644POPC   GL140561  22.205  15.993   6.155
 8644POPC   GL240562  22.130  16.066   6.155
 8644POPC   C1A40563  22.147  15.988   6.455
 8644POPC   D2A40564  22.201  15.923   6.755
 8644POPC   C3A40565  22.116  15.927   7.055
 8644POPC   C4A40566  22.159  15.917   7.355
 8644POPC   C1B40567  22.077  16.150   6.455
 8644POPC   C2B40568  22.066  16.196   6.755
 8644POPC   C3B40569  22.089  16.207   7.055
 8644POPC   C4B40570  22.088  16.153   7.355
 8645POPC   NC340571  12.063  18.331   5.555
 8645POPC   PO440572  12.119  18.301   5.855
 8645POPC   GL140573  12.087  18.303   6.155
 8645POPC   GL240574  11.945  18.405   6.155
 8645POPC   C1A40575  12.097  18.272   6.455
 8645POPC   D2A40576  12.113  18.308   6.755
 8645POPC   C3A40577  12.054  18.301   7.055
 8645POPC   C4A40578  12.063  18.293   7.355
 8645POPC   C1B40579  11.914  18.451   6.455
 8645POPC   C2B40580  11.952  18.478   6.755
 8645POPC   C3B40581  11.908  18.432   7.055
 8645POPC   C4B40582  11.953  18.464   7.355
 8646POPC   NC340583  43.890  35.312   5.555
 8646POPC   PO440584  43.837  35.380   5.855
 8646POPC   GL140585  43.848  35.310   6.155
 8646POPC   GL240586  43.834  35.283   6.155
 8646POPC   C1A40587  43.902  35.354   6.455
 8646POPC   D2A40588  43.855  35.358   6.755
 8646POPC   C3A40589  43.919  35.325   7.055
 8646POPC   C4A40590  43.915  35.394   7.355
 8646POPC   C1B40591  43.722  35.160   6.455
 8646POPC   C2B40592  43.703  35.180   6.755
 8646POPC   C3B40593  43.709  35.168   7.055
 8646POPC   C4B40594  43.726  35.153   7.355
 8647POPC   NC340595  28.408  34.622   5.555
 8647POPC   PO440596  28.405  34.545   5.855
 8647POPC   GL140597  28.414  34.593   6.155
 8647POPC   GL240598  28.357  34.451   6.155
 8647POPC   C1A40599  28.335  34.544   6.455
 8647POPC   D2A40600  28.362  34.545   6.755
 8647POPC   C3A40601  28.411  34.614   7.055
 8647POPC   C4A40602  28.320  34.547   7.355
 8647POPC   C1B40603  28.365  34.318   6.455
 8647POPC   C2B40604  28.334  34.304   6.755
 8647POPC   C3B40605  28.364  34.357   7.055
 8647POPC   C4B40606  28.363  34.327   7.355
 8648POPC   NC340607  33.828  36.142   5.555
 8648POPC   PO440608  33.842  36.150   5.855
 8648POPC   GL140609  33.804  36.099   6.155
 8648POPC   GL240610  33.867  36.236   6.155
 8648POPC   C1A40611  33.790  36.154   6.455
 8648POPC   D2A40612  33.760  36.124   6.755
 8648POPC   C3A40613  33.783  36.133   7.055
 8648POPC   C4A40614  33.781  36.166   7.355
 8648POPC   C1B40615  33.978  36.288   6.455
 8648POPC   C2B40616  33.996  36.289   6.755
 8648POPC   C3B40617  33.981  36.262   7.055
 8648POPC   C4B40618  33.974  36.265   7.355
 8649POPC   NC340619   4.320  12.081   5.555
 8649POPC   PO440620   4.295  12.100   5.855
 8649POPC   GL140621   4.307  12.082   6.155
 8649POPC   GL240622   4.233  12.203   6.155
 8649POPC   C1A40623   4.275  12.033   6.455
 8649POPC   D2A40624   4.358  12.031   6.755
 8649POPC   C3A40625   4.354  12.068   7.055
 8649POPC   C4A40626   4.354  12.118   7.355
 8649POPC   C1B40627   4.205  12.288   6.455
 8649POPC   C2B40628   4.220  12.351   6.755
 8649POPC   C3B40629   4.282  12.326   7.055
 8649POPC   C4B40630   4.209  12.273   7.355
 8650POPC   NC340631  27.598  32.988   5.555
 8650POPC   PO440632  27.608  33.018   5.855
 8650POPC   GL140633  27.546  33.019   6.155
 8650POPC   GL240634  27.594  32.939   6.155
 8650POPC   C1A40635  27.634  33.036   6.455
 8650POPC   D2A40636  27.589  33.059   6.755
 8650POPC   C3A40637  27.549  33.074   7.055
 8650POPC   C4A40638  27.549  32.997   7.355
 8650POPC   C1B40639  27.671  32.780   6.455
 8650POPC   C2B40640  27.709  32.783   6.755
 8650POPC   C3B40641  27.695  32.763   7.055
 8650POPC   C4B40642  27.700  32.831   7.355
 8651POPC   NC340643  26.016  39.991   5.555
 8651POPC   PO440644  26.007  39.979   5.855
 8651POPC   GL140645  26.039  39.964   6.155
 8651POPC   GL240646  26.062  39.916   6.155
 8651POPC   C1A40647  26.091  40.020   6.455
 8651POPC   D2A40648  26.026  40.051   6.755
 8651POPC   C3A40649  26.041  39.997   7.055
 8651POPC   C4A40650  26.076  39.961   7.355
 8651POPC   C1B40651  26.157  39.800   6.455
 8651POPC   C2B40652  26.117  39.780   6.755
 8651POPC   C3B40653  26.170  39.747   7.055
 8651POPC   C4B40654  26.150  39.805   7.355
 8652POPC   NC340655   1.259  39.245   5.555
 8652POPC   PO440656   1.213  39.217   5.855
 8652POPC   GL140657   1.165  39.232   6.155
 8652POPC   GL240658   1.129  39.349   6.155
 8652POPC   C1A40659   1.243  39.204   6.455
 8652POPC   D2A40660   1.236  39.184   6.755
 8652POPC   C3A40661   1.199  39.270   7.055
 8652POPC   C4A40662   1.179  39.257   7.355
 8652POPC   C1B40663   1.138  39.435   6.455
 8652POPC   C2B40664   1.048  39.452   6.755
 8652POPC   C3B40665   1.077  39.443   7.055
 8652POPC   C4B40666   1.073  39.430   7.355
 8653POPC   NC340667   0.466  19.095   5.555
 8653POPC   PO440668   0.421  19.102   5.855
 8653POPC   GL140669   0.487  19.081   6.155
 8653POPC   GL240670   0.575  19.065   6.155
 8653POPC   C1A40671   0.426  19.106   6.455
 8653POPC   D2A40672   0.443  19.082   6.755
 8653POPC   C3A40673   0.419  19.097   7.055
 8653POPC   C4A40674   0.394  19.047   7.355
 8653POPC   C1B40675   0.706  19.101   6.455
 8653POPC   C2B40676   0.658  19.156   6.755
 8653POPC   C3B40677   0.697  19.135   7.055
 8653POPC   C4B40678   0.676  19.119   7.355
 8654POPC   NC340679  35.376  39.988   5.555
 8654POPC   PO440680  35.381  40.025   5.855
 8654POPC   GL140681  35.346  39.968   6.155
 8654POPC   GL240682  35.342  40.097   6.155
 8654POPC   C1A40683  35.338  40.018   6.455
 8654POPC   D2A40684  35.351  40.009   6.755
 8654POPC   C3A40685  35.373  40.052   7.055
 8654POPC   C4A40686  35.303  39.971   7.355
 8654POPC   C1B40687  35.335  40.266   6.455
 8654POPC   C2B40688  35.312  40.295   6.755
 8654POPC   C3B40689  35.292  40.296   7.055
 8654POPC   C4B40690  35.300  40.252   7.355
 8655POPC   NC340691  33.817  23.723   5.555
 8655POPC   PO440692  33.801  23.724   5.855
 8655POPC   GL140693  33.779  23.720   6.155
 8655POPC   GL240694  33.918  23.757   6.155
 8655POPC   C1A40695  33.837  23.711   6.455
 8655POPC   D2A40696  33.822  23.730   6.755
 8655POPC   C3A40697  33.798  23.692   7.055
 8655POPC   C4A40698  33.840  23.664   7.355
 8655POPC   C1B40699  34.052  23.716   6.455
 8655POPC   C2B40700  34.079  23.725   6.755
 8655POPC   C3B40701  34.021  23.726   7.055
 8655POPC   C4B40702  34.087  23.664   7.355
 8656POPC   NC340703  32.277  42.337   5.555
 8656POPC   PO440704  32.239  42.300   5.855
 8656POPC   GL140705  32.245  42.321   6.155
 8656POPC   GL240706  32.240  42.466   6.155
 8656POPC   C1A40707  32.217  42.320   6.455
 8656POPC   D2A40708  32.283  42.301   6.755
 8656POPC   C3A40709  32.211  42.289   7.055
 8656POPC   C4A40710  32.297  42.363   7.355
 8656POPC   C1B40711  32.295  42.579   6.455
 8656POPC   C2B40712  32.244  42.631   6.755
 8656POPC   C3B40713  32.285  42.584   7.055
 8656POPC   C4B40714  32.221  42.558   7.355
 8657POPC   NC340715  10.548  43.114   5.555
 8657POPC   PO440716  10.476  43.147   5.855
 8657POPC   GL140717  10.557  43.069   6.155
 8657POPC   GL240718  10.633  43.224   6.155
 8657POPC   C1A40719  10.484  43.120   6.455
 8657POPC   D2A40720  10.557  43.138   6.755
 8657POPC   C3A40721  10.505  43.115   7.055
 8657POPC   C4A40722  10.488  43.140   7.355
 8657POPC   C1B40723  10.746  43.268   6.455
 8657POPC   C2B40724  10.701  43.274   6.755
 8657POPC   C3B40725  10.707  43.202   7.055
 8657POPC   C4B40726  10.726  43.211   7.355
 8658POPC   NC340727  40.803  18.276   5.555
 8658POPC   PO440728  40.799  18.329   5.855
 8658POPC   GL140729  40.803  18.319   6.155
 8658POPC   GL240730  40.775  18.139   6.155
 8658POPC   C1A40731  40.822  18.287   6.455
 8658POPC   D2A40732  40.751  18.299   6.755
 8658POPC   C3A40733  40.795  18.285   7.055
 8658POPC   C4A40734  40.811  18.266   7.355
 8658POPC   C1B40735  40.812  18.055   6.455
 8658POPC   C2B40736  40.853  17.999   6.755
 8658POPC   C3B40737  40.881  18.003   7.055
 8658POPC   C4B40738  40.838  18.041   7.355
 8659POPC   NC340739   7.401  40.775   5.555
 8659POPC   PO440740   7.409  40.829   5.855
 8659POPC   GL140741   7.405  40.832   6.155
 8659POPC   GL240742   7.513  40.657   6.155
 8659POPC   C1A40743   7.431  40.815   6.455
 8659POPC   D2A40744   7.444  40.738   6.755
 8659POPC   C3A40745   7.408  40.771   7.055
 8659POPC   C4A40746   7.422  40.770   7.355
 8659POPC   C1B40747   7.554  40.530   6.455
 8659POPC   C2B40748   7.509  40.584   6.755
 8659POPC   C3B40749   7.585  40.535   7.055
 8659POPC   C4B40750   7.526  40.538   7.355
 8660POPC   NC340751   5.908   8.219   5.555
 8660POPC   PO440752   5.864   8.229   5.855
 8660POPC   GL140753   5.851   8.204   6.155
 8660POPC   GL240754   6.002   8.247   6.155
 8660POPC   C1A40755   5.878   8.244   6.455
 8660POPC   D2A40756   5.851   8.185   6.755
 8660POPC   C3A40757   5.855   8.183   7.055
 8660POPC   C4A40758   5.894   8.239   7.355
 8660POPC   C1B40759   6.141   8.195   6.455
 8660POPC   C2B40760   6.128   8.258   6.755
 8660POPC   C3B40761   6.116   8.249   7.055
 8660POPC   C4B40762   6.133   8.258   7.355
 8661POPC   NC340763  19.079   9.778   5.555
 8661POPC   PO440764  19.064   9.759   5.855
 8661POPC   GL140765  19.042   9.720   6.155
 8661POPC   GL240766  19.199   9.650   6.155
 8661POPC   C1A40767  19.080   9.743   6.455
 8661POPC   D2A40768  19.027   9.699   6.755
 8661POPC   C3A40769  19.019   9.753   7.055
 8661POPC   C4A40770  19.018   9.705   7.355
 8661POPC   C1B40771  19.247   9.584   6.455
 8661POPC   C2B40772  19.217   9.627   6.755
 8661POPC   C3B40773  19.227   9.604   7.055
 8661POPC   C4B40774  19.278   9.565   7.355
 8662POPC   NC340775  34.569  12.066   5.555
 8662POPC   PO440776  34.532  12.110   5.855
 8662POPC   GL140777  34.542  12.120   6.155
 8662POPC   GL240778  34.468  12.024   6.155
 8662POPC   C1A40779  34.569  12.113   6.455
 8662POPC   D2A40780  34.597  12.037   6.755
 8662POPC   C3A40781  34.622  12.071   7.055
 8662POPC   C4A40782  34.566  12.055   7.355
 8662POPC   C1B40783  34.374  12.052   6.455
 8662POPC   C2B40784  34.330  11.971   6.755
 8662POPC   C3B40785  34.306  11.986   7.055
 8662POPC   C4B40786  34.292  12.036   7.355
 8663POPC   NC340787  39.996  44.639   5.555
 8663POPC   PO440788  40.003  44.663   5.855
 8663POPC   GL140789  40.056  44.660   6.155
 8663POPC   GL240790  40.093  44.553   6.155
 8663POPC   C1A40791  40.013  44.690   6.455
 8663POPC   D2A40792  39.997  44.654   6.755
 8663POPC   C3A40793  40.051  44.687   7.055
 8663POPC   C4A40794  40.015  44.636   7.355
 8663POPC   C1B40795  40.106  44.441   6.455
 8663POPC   C2B40796  40.090  44.395   6.755
 8663POPC   C3B40797  40.095  44.399   7.055
 8663POPC   C4B40798  40.105  44.451   7.355
 8664POPC   NC340799  11.294  15.228   5.555
 8664POPC   PO440800  11.328  15.215   5.855
 8664POPC   GL140801  11.252  15.146   6.155
 8664POPC   GL240802  11.232  15.242   6.155
 8664POPC   C1A40803  11.337  15.213   6.455
 8664POPC   D2A40804  11.256  15.218   6.755
 8664POPC   C3A40805  11.329  15.206   7.055
 8664POPC   C4A40806  11.259  15.168   7.355
 8664POPC   C1B40807  11.087  15.245   6.455
 8664POPC   C2B40808  11.048  15.243   6.755
 8664POPC   C3B40809  11.070  15.282   7.055
 8664POPC   C4B40810  11.099  15.317   7.355
 8665POPC   NC340811  36.943  30.659   5.555
 8665POPC   PO440812  36.910  30.672   5.855
 8665POPC   GL140813  36.950  30.718   6.155
 8665POPC   GL240814  36.965  30.822   6.155
 8665POPC   C1A40815  36.948  30.706   6.455
 8665POPC   D2A40816  36.869  30.690   6.755
 8665POPC   C3A40817  36.899  30.744   7.055
 8665POPC   C4A40818  36.877  30.701   7.355
 8665POPC   C1B40819  37.045  30.919   6.455
 8665POPC   C2B40820  37.007  30.915   6.755
 8665POPC   C3B40821  37.092  30.859   7.055
 8665POPC   C4B40822  37.021  30.926   7.355
 8666POPC   NC340823  16.781  43.935   5.555
 8666POPC   PO440824  16.754  43.915   5.855
 8666POPC   GL140825  16.726  43.905   6.155
 8666POPC   GL240826  16.644  43.797   6.155
 8666POPC   C1A40827  16.738  43.891   6.455
 8666POPC   D2A40828  16.712  43.927   6.755
 8666POPC   C3A40829  16.702  43.899   7.055
 8666POPC   C4A40830  16.758  43.854   7.355
 8666POPC   C1B40831  16.502  43.723   6.455
 8666POPC   C2B40832  16.523  43.792   6.755
 8666POPC   C3B40833  16.507  43.724   7.055
 8666POPC   C4B40834  16.496  43.778   7.355
 8667POPC   NC340835  32.979  32.284   5.555
 8667POPC   PO440836  33.058  32.250   5.855
 8667POPC   GL140837  33.054  32.259   6.155
 8667POPC   GL240838  33.082  32.376   6.155
 8667POPC   C1A40839  33.015  32.277   6.455
 8667POPC   D2A40840  32.990  32.235   6.755
 8667POPC   C3A40841  33.041  32.242   7.055
 8667POPC   C4A40842  33.010  32.202   7.355
 8667POPC   C1B40843  33.122  32.460   6.455
 8667POPC   C2B40844  33.210  32.432   6.755
 8667POPC   C3B40845  33.207  32.488   7.055
 8667POPC   C4B40846  33.170  32.407   7.355
 8668POPC   NC340847  12.876   2.783   5.555
 8668POPC   PO440848  12.874   2.776   5.855
 8668POPC   GL140849  12.876   2.721   6.155
 8668POPC   GL240850  12.766   2.607   6.155
 8668POPC   C1A40851  12.828   2.751   6.455
 8668POPC   D2A40852  12.874   2.769   6.755
 8668POPC   C3A40853  12.810   2.801   7.055
 8668POPC   C4A40854  12.870   2.798   7.355
 8668POPC   C1B40855  12.729   2.571   6.455
 8668POPC   C2B40856  12.819   2.546   6.755
 8668POPC   C3B40857  12.742   2.494   7.055
 8668POPC   C4B40858  12.760   2.545   7.355
 8669POPC   NC340859  42.310  19.789   5.555
 8669POPC   PO440860  42.350  19.836   5.855
 8669POPC   GL140861  42.329  19.827   6.155
 8669POPC   GL240862  42.227  19.762   6.155
 8669POPC   C1A40863  42.344  19.785   6.455
 8669POPC   D2A40864  42.299  19.808   6.755
 8669POPC   C3A40865  42.339  19.856   7.055
 8669POPC   C4A40866  42.362  19.810   7.355
 8669POPC   C1B40867  42.065  19.814   6.455
 8669POPC   C2B40868  42.056  19.750   6.755
 8669POPC   C3B40869  42.138  19.812   7.055
 8669POPC   C4B40870  42.076  19.735   7.355
 8670POPC   NC340871  40.790  26.862   5.555
 8670POPC   PO440872  40.772  26.807   5.855
 8670POPC   GL140873  40.762  26.851   6.155
 8670POPC   GL240874  40.917  26.897   6.155
 8670POPC   C1A40875  40.825  26.865   6.455
 8670POPC   D2A40876  40.753  26.867   6.755
 8670POPC   C3A40877  40.748  26.810   7.055
 8670POPC   C4A40878  40.779  26.801   7.355
 8670POPC   C1B40879  40.904  27.006   6.455
 8670POPC   C2B40880  40.922  26.990   6.755
 8670POPC   C3B40881  40.945  27.047   7.055
 8670POPC   C4B40882  40.978  26.971   7.355
 8671POPC   NC340883  43.060   3.567   5.555
 8671POPC   PO440884  43.138   3.571   5.855
 8671POPC   GL140885  43.118   3.587   6.155
 8671POPC   GL240886  43.107   3.433   6.155
 8671POPC   C1A40887  43.145   3.539   6.455
 8671POPC   D2A40888  43.110   3.560   6.755
 8671POPC   C3A40889  43.086   3.573   7.055
 8671POPC   C4A40890  43.123   3.546   7.355
 8671POPC   C1B40891  43.075   3.259   6.455
 8671POPC   C2B40892  43.103   3.276   6.755
 8671POPC   C3B40893  43.109   3.274   7.055
 8671POPC   C4B40894  43.152   3.287   7.355
 8672POPC   NC340895  28.406  29.890   5.555
 8672POPC   PO440896  28.386  29.948   5.855
 8672POPC   GL140897  28.411  29.927   6.155
 8672POPC   GL240898  28.297  29.878   6.155
 8672POPC   C1A40899  28.320  29.909   6.455
 8672POPC   D2A40900  28.412  29.908   6.755
 8672POPC   C3A40901  28.364  29.897   7.055
 8672POPC   C4A40902  28.353  29.914   7.355
 8672POPC   C1B40903  28.211  29.811   6.455
 8672POPC   C2B40904  28.131  29.740   6.755
 8672POPC   C3B40905  28.132  29.749   7.055
 8672POPC   C4B40906  28.135  29.784   7.355
 8673POPC   NC340907  36.863  15.916   5.555
 8673POPC   PO440908  36.919  15.926   5.855
 8673POPC   GL140909  36.939  15.943   6.155
 8673POPC   GL240910  36.771  15.920   6.155
 8673POPC   C1A40911  36.881  15.990   6.455
 8673POPC   D2A40912  36.905  15.978   6.755
 8673POPC   C3A40913  36.919  15.968   7.055
 8673POPC   C4A40914  36.940  15.999   7.355
 8673POPC   C1B40915  36.704  15.892   6.455
 8673POPC   C2B40916  36.657  15.884   6.755
 8673POPC   C3B40917  36.636  15.844   7.055
 8673POPC   C4B40918  36.655  15.859   7.355
 8674POPC   NC340919  41.579  34.613   5.555
 8674POPC   PO440920  41.604  34.600   5.855
 8674POPC   GL140921  41.541  34.573   6.155
 8674POPC   GL240922  41.688  34.594   6.155
 8674POPC   C1A40923  41.606  34.595   6.455
 8674POPC   D2A40924  41.607  34.536   6.755
 8674POPC   C3A40925  41.562  34.552   7.055
 8674POPC   C4A40926  41.573  34.601   7.355
 8674POPC   C1B40927  41.759  34.633   6.455
 8674POPC   C2B40928  41.852  34.582   6.755
 8674POPC   C3B40929  41.797  34.614   7.055
 8674POPC   C4B40930  41.770  34.594   7.355
 8675POPC   NC340931  32.975  24.482   5.555
 8675POPC   PO440932  33.008  24.447   5.855
 8675POPC   GL140933  33.009  24.521   6.155
 8675POPC   GL240934  33.022  24.628   6.155
 8675POPC   C1A40935  33.015  24.515   6.455
 8675POPC   D2A40936  33.024  24.477   6.755
 8675POPC   C3A40937  32.988  24.471   7.055
 8675POPC   C4A40938  32.982  24.527   7.355
 8675POPC   C1B40939  33.034  24.773   6.455
 8675POPC   C2B40940  32.979  24.723   6.755
 8675POPC   C3B40941  33.007  24.741   7.055
 8675POPC   C4B40942  33.033  24.695   7.355
 8676POPC   NC340943   8.953  14.437   5.555
 8676POPC   PO440944   8.958  14.401   5.855
 8676POPC   GL140945   8.977  14.365   6.155
 8676POPC   GL240946   8.966  14.296   6.155
 8676POPC   C1A40947   8.999  14.370   6.455
 8676POPC   D2A40948   8.942  14.356   6.755
 8676POPC   C3A40949   8.974  14.408   7.055
 8676POPC   C4A40950   8.982  14.412   7.355
 8676POPC   C1B40951   8.928  14.174   6.455
 8676POPC   C2B40952   8.937  14.139   6.755
 8676POPC   C3B40953   8.936  14.201   7.055
 8676POPC   C4B40954   8.987  14.202   7.355
 8677POPC   NC340955  27.573  20.613   5.555
 8677POPC   PO440956  27.598  20.634   5.855
 8677POPC   GL140957  27.613  20.651   6.155
 8677POPC   GL240958  27.433  20.531   6.155
 8677POPC   C1A40959  27.594  20.607   6.455
 8677POPC   D2A40960  27.554  20.574   6.755
 8677POPC   C3A40961  27.598  20.638   7.055
 8677POPC   C4A40962  27.630  20.583   7.355
 8677POPC   C1B40963  27.381  20.489   6.455
 8677POPC   C2B40964  27.359  20.547   6.755
 8677POPC   C3B40965  27.398  20.550   7.055
 8677POPC   C4B40966  27.310  20.500   7.355
 8678POPC   NC340967  27.562  30.738   5.555
 8678POPC   PO440968  27.625  30.697   5.855
 8678POPC   GL140969  27.602  30.741   6.155
 8678POPC   GL240970  27.706  30.588   6.155
 8678POPC   C1A40971  27.564  30.657   6.455
 8678POPC   D2A40972  27.607  30.653   6.755
 8678POPC   C3A40973  27.625  30.720   7.055
 8678POPC   C4A40974  27.559  30.727   7.355
 8678POPC   C1B40975  27.738  30.532   6.455
 8678POPC   C2B40976  27.811  30.479   6.755
 8678POPC   C3B40977  27.812  30.498   7.055
 8678POPC   C4B40978  27.822  30.544   7.355
 8679POPC   NC340979   3.589   4.286   5.555
 8679POPC   PO440980   3.518   4.319   5.855
 8679POPC   GL140981   3.548   4.303   6.155
 8679POPC   GL240982   3.647   4.256   6.155
 8679POPC   C1A40983   3.565   4.320   6.455
 8679POPC   D2A40984   3.511   4.308   6.755
 8679POPC   C3A40985   3.540   4.275   7.055
 8679POPC   C4A40986   3.540   4.334   7.355
 8679POPC   C1B40987   3.758   4.197   6.455
 8679POPC   C2B40988   3.774   4.140   6.755
 8679POPC   C3B40989   3.723   4.170   7.055
 8679POPC   C4B40990   3.689   4.140   7.355
 8680POPC   NC340991  26.054   5.069   5.555
 8680POPC   PO440992  26.020   5.077   5.855
 8680POPC   GL140993  26.042   5.045   6.155
 8680POPC   GL240994  26.142   4.993   6.155
 8680POPC   C1A40995  26.009   5.109   6.455
 8680POPC   D2A40996  26.062   5.045   6.755
 8680POPC   C3A40997  26.036   5.082   7.055
 8680POPC   C4A40998  26.041   5.068   7.355
 8680POPC   C1B40999  26.308   4.969   6.455
 8680POPC   C2B41000  26.218   4.952   6.755
 8680POPC   C3B41001  26.237   4.965   7.055
 8680POPC   C4B41002  26.233   4.965   7.355
 8681POPC   NC341003   2.797  27.591   5.555
 8681POPC   PO441004   2.780  27.586   5.855
 8681POPC   GL141005   2.750  27.587   6.155
 8681POPC   GL241006   2.740  27.447   6.155
 8681POPC   C1A41007   2.729  27.577   6.455
 8681POPC   D2A41008   2.767  27.586   6.755
 8681POPC   C3A41009   2.751  27.565   7.055
 8681POPC   C4A41010   2.802  27.614   7.355
 8681POPC   C1B41011   2.731  27.303   6.455
 8681POPC   C2B41012   2.705  27.306   6.755
 8681POPC   C3B41013   2.661  27.320   7.055
 8681POPC   C4B41014   2.690  27.315   7.355
 8682POPC   NC341015  39.960   3.567   5.555
 8682POPC   PO441016  40.019   3.539   5.855
 8682POPC   GL141017  40.054   3.534   6.155
 8682POPC   GL241018  39.864   3.521   6.155
 8682POPC   C1A41019  39.978   3.510   6.455
 8682POPC   D2A41020  39.982   3.494   6.755
 8682POPC   C3A41021  40.047   3.500   7.055
 8682POPC   C4A41022  40.043   3.532   7.355
 8682POPC   C1B41023  39.786   3.514   6.455
 8682POPC   C2B41024  39.779   3.533   6.755
 8682POPC   C3B41025  39.724   3.503   7.055
 8682POPC   C4B41026  39.772   3.463   7.355
 8683POPC   NC341027  22.972   1.978   5.555
 8683POPC   PO441028  22.984   2.019   5.855
 8683POPC   GL141029  22.955   1.995   6.155
 8683POPC   GL241030  23.028   2.124   6.155
 8683POPC   C1A41031  22.961   2.012   6.455
 8683POPC   D2A41032  22.984   1.995   6.755
 8683POPC   C3A41033  22.948   1.941   7.055
 8683POPC   C4A41034  22.893   1.981   7.355
 8683POPC   C1B41035  23.089   2.200   6.455
 8683POPC   C2B41036  23.103   2.135   6.755
 8683POPC   C3B41037  23.079   2.225   7.055
 8683POPC   C4B41038  23.078   2.205   7.355
 8684POPC   NC341039  29.148  44.629   5.555
 8684POPC   PO441040  29.183  44.615   5.855
 8684POPC   GL141041  29.171  44.651   6.155
 8684POPC   GL241042  29.245  44.636   6.155
 8684POPC   C1A41043  29.121  44.622   6.455
 8684POPC   D2A41044  29.143  44.628   6.755
 8684POPC   C3A41045  29.100  44.622   7.055
 8684POPC   C4A41046  29.141  44.704   7.355
 8684POPC   C1B41047  29.399  44.650   6.455
 8684POPC   C2B41048  29.369  44.656   6.755
 8684POPC   C3B41049  29.406  44.674   7.055
 8684POPC   C4B41050  29.410  44.648   7.355
 8685POPC   NC341051  32.997  18.282   5.555
 8685POPC   PO441052  33.002  18.315   5.855
 8685POPC   GL141053  33.063  18.236   6.155
 8685POPC   GL241054  32.943  18.290   6.155
 8685POPC   C1A41055  32.984  18.245   6.455
 8685POPC   D2A41056  33.043  18.275   6.755
 8685POPC   C3A41057  33.056  18.269   7.055
 8685POPC   C4A41058  32.985  18.324   7.355
 8685POPC   C1B41059  32.725  18.239   6.455
 8685POPC   C2B41060  32.820  18.253   6.755
 8685POPC   C3B41061  32.813  18.315   7.055
 8685POPC   C4B41062  32.796  18.248   7.355
 8686POPC   NC341063  12.084   9.000   5.555
 8686POPC   PO441064  12.098   9.005   5.855
 8686POPC   GL141065  12.124   8.925   6.155
 8686POPC   GL241066  11.921   9.085   6.155
 8686POPC   C1A41067  12.080   9.021   6.455
 8686POPC   D2A41068  12.032   8.930   6.755
 8686POPC   C3A41069  12.096   8.969   7.055
 8686POPC   C4A41070  12.047   8.983   7.355
 8686POPC   C1B41071  11.854   9.120   6.455
 8686POPC   C2B41072  11.865   9.123   6.755
 8686POPC   C3B41073  11.869   9.097   7.055
 8686POPC   C4B41074  11.887   9.073   7.355
 8687POPC   NC341075  35.366  30.668   5.555
 8687POPC   PO441076  35.310  30.697   5.855
 8687POPC   GL141077  35.351  30.703   6.155
 8687POPC   GL241078  35.318  30.580   6.155
 8687POPC   C1A41079  35.400  30.745   6.455
 8687POPC   D2A41080  35.385  30.734   6.755
 8687POPC   C3A41081  35.373  30.730   7.055
 8687POPC   C4A41082  35.376  30.675   7.355
 8687POPC   C1B41083  35.199  30.536   6.455
 8687POPC   C2B41084  35.187  30.475   6.755
 8687POPC   C3B41085  35.188  30.518   7.055
 8687POPC   C4B41086  35.181  30.540   7.355
 8688POPC   NC341087  18.235  17.532   5.555
 8688POPC   PO441088  18.271  17.557   5.855
 8688POPC   GL141089  18.249  17.522   6.155
 8688POPC   GL241090  18.354  17.592   6.155
 8688POPC   C1A41091  18.289  17.488   6.455
 8688POPC   D2A41092  18.316  17.550   6.755
 8688POPC   C3A41093  18.300  17.493   7.055
 8688POPC   C4A41094  18.254  17.522   7.355
 8688POPC   C1B41095  18.373  17.712   6.455
 8688POPC   C2B41096  18.363  17.760   6.755
 8688POPC   C3B41097  18.384  17.788   7.055
 8688POPC   C4B41098  18.370  17.734   7.355
 8689POPC   NC341099   4.329  12.816   5.555
 8689POPC   PO441100   4.316  12.864   5.855
 8689POPC   GL141101   4.338  12.886   6.155
 8689POPC   GL241102   4.273  12.914   6.155
 8689POPC   C1A41103   4.334  12.870   6.455
 8689POPC   D2A41104   4.305  12.838   6.755
 8689POPC   C3A41105   4.325  12.901   7.055
 8689POPC   C4A41106   4.351  12.815   7.355
 8689POPC   C1B41107   4.198  13.000   6.455
 8689POPC   C2B41108   4.132  13.038   6.755
 8689POPC   C3B41109   4.206  13.093   7.055
 8689POPC   C4B41110   4.142  13.042   7.355
 8690POPC   NC341111  14.373  32.211   5.555
 8690POPC   PO441112  14.420  32.221   5.855
 8690POPC   GL141113  14.357  32.207   6.155
 8690POPC   GL241114  14.510  32.129   6.155
 8690POPC   C1A41115  14.409  32.256   6.455
 8690POPC   D2A41116  14.399  32.260   6.755
 8690POPC   C3A41117  14.361  32.282   7.055
 8690POPC   C4A41118  14.397  32.281   7.355
 8690POPC   C1B41119  14.548  32.067   6.455
 8690POPC   C2B41120  14.596  32.097   6.755
 8690POPC   C3B41121  14.613  32.099   7.055
 8690POPC   C4B41122  14.622  32.089   7.355
 8691POPC   NC341123  43.071  20.563   5.555
 8691POPC   PO441124  43.092  20.640   5.855
 8691POPC   GL141125  43.143  20.606   6.155
 8691POPC   GL241126  43.052  20.456   6.155
 8691POPC   C1A41127  43.131  20.579   6.455
 8691POPC   D2A41128  43.075  20.640   6.755
 8691POPC   C3A41129  43.119  20.565   7.055
 8691POPC   C4A41130  43.132  20.589   7.355
 8691POPC   C1B41131  43.114  20.400   6.455
 8691POPC   C2B41132  43.019  20.360   6.755
 8691POPC   C3B41133  43.017  20.316   7.055
 8691POPC   C4B41134  43.075  20.370   7.355
 8692POPC   NC341135   1.965  31.495   5.555
 8692POPC   PO441136   2.036  31.473   5.855
 8692POPC   GL141137   1.941  31.509   6.155
 8692POPC   GL241138   2.139  31.552   6.155
 8692POPC   C1A41139   1.957  31.495   6.455
 8692POPC   D2A41140   2.030  31.491   6.755
 8692POPC   C3A41141   2.021  31.472   7.055
 8692POPC   C4A41142   2.024  31.440   7.355
 8692POPC   C1B41143   2.218  31.553   6.455
 8692POPC   C2B41144   2.222  31.505   6.755
 8692POPC   C3B41145   2.200  31.516   7.055
 8692POPC   C4B41146   2.193  31.525   7.355
 8693POPC   NC341147  21.382  36.906   5.555
 8693POPC   PO441148  21.382  36.862   5.855
 8693POPC   GL141149  21.358  36.867   6.155
 8693POPC   GL241150  21.433  37.025   6.155
 8693POPC   C1A41151  21.361  36.864   6.455
 8693POPC   D2A41152  21.406  36.866   6.755
 8693POPC   C3A41153  21.432  36.909   7.055
 8693POPC   C4A41154  21.379  36.872   7.355
 8693POPC   C1B41155  21.494  37.159   6.455
 8693POPC   C2B41156  21.472  37.181   6.755
 8693POPC   C3B41157  21.462  37.173   7.055
 8693POPC   C4B41158  21.414  37.103   7.355
 8694POPC   NC341159  29.114  24.446   5.555
 8694POPC   PO441160  29.170  24.500   5.855
 8694POPC   GL141161  29.135  24.513   6.155
 8694POPC   GL241162  29.095  24.335   6.155
 8694POPC   C1A41163  29.139  24.472   6.455
 8694POPC   D2A41164  29.121  24.474   6.755
 8694POPC   C3A41165  29.107  24.447   7.055
 8694POPC   C4A41166  29.165  24.537   7.355
 8694POPC   C1B41167  29.026  24.271   6.455
 8694POPC   C2B41168  29.048  24.221   6.755
 8694POPC   C3B41169  29.039  24.300   7.055
 8694POPC   C4B41170  29.050  24.236   7.355
 8695POPC   NC341171  12.891  39.230   5.555
 8695POPC   PO441172  12.888  39.276   5.855
 8695POPC   GL141173  12.884  39.231   6.155
 8695POPC   GL241174  13.001  39.136   6.155
 8695POPC   C1A41175  12.829  39.241   6.455
 8695POPC   D2A41176  12.868  39.276   6.755
 8695POPC   C3A41177  12.851  39.241   7.055
 8695POPC   C4A41178  12.861  39.211   7.355
 8695POPC   C1B41179  13.044  39.117   6.455
 8695POPC   C2B41180  13.081  39.165   6.755
 8695POPC   C3B41181  13.070  39.153   7.055
 8695POPC   C4B41182  13.135  39.160   7.355
 8696POPC   NC341183  26.853  29.931   5.555
 8696POPC   PO441184  26.784  29.970   5.855
 8696POPC   GL141185  26.771  29.915   6.155
 8696POPC   GL241186  26.891  30.055   6.155
 8696POPC   C1A41187  26.861  29.909   6.455
 8696POPC   D2A41188  26.790  29.926   6.755
 8696POPC   C3A41189  26.822  29.948   7.055
 8696POPC   C4A41190  26.827  29.930   7.355
 8696POPC   C1B41191  27.006  30.143   6.455
 8696POPC   C2B41192  26.992  30.103   6.755
 8696POPC   C3B41193  26.983  30.162   7.055
 8696POPC   C4B41194  26.956  30.125   7.355
 8697POPC   NC341195   5.108  15.191   5.555
 8697POPC   PO441196   5.107  15.202   5.855
 8697POPC   GL141197   5.137  15.202   6.155
 8697POPC   GL241198   5.180  15.273   6.155
 8697POPC   C1A41199   5.111  15.157   6.455
 8697POPC   D2A41200   5.103  15.182   6.755
 8697POPC   C3A41201   5.142  15.199   7.055
 8697POPC   C4A41202   5.067  15.176   7.355
 8697POPC   C1B41203   5.235  15.392   6.455
 8697POPC   C2B41204   5.281  15.356   6.755
 8697POPC   C3B41205   5.261  15.380   7.055
 8697POPC   C4B41206   5.293  15.315   7.355
 8698POPC   NC341207  28.408  24.504   5.555
 8698POPC   PO441208  28.321  24.479   5.855
 8698POPC   GL141209  28.347  24.462   6.155
 8698POPC   GL241210  28.457  24.469   6.155
 8698POPC   C1A41211  28.394  24.499   6.455
 8698POPC   D2A41212  28.360  24.522   6.755
 8698POPC   C3A41213  28.373  24.486   7.055
 8698POPC   C4A41214  28.413  24.447   7.355
 8698POPC   C1B41215  28.620  24.328   6.455
 8698POPC   C2B41216  28.550  24.326   6.755
 8698POPC   C3B41217  28.599  24.384   7.055
 8698POPC   C4B41218  28.613  24.347   7.355
 8699POPC   NC341219  33.768  22.183   5.555
 8699POPC   PO441220  33.756  22.143   5.855
 8699POPC   GL141221  33.834  22.197   6.155
 8699POPC   GL241222  33.861  22.108   6.155
 8699POPC   C1A41223  33.848  22.182   6.455
 8699POPC   D2A41224  33.837  22.123   6.755
 8699POPC   C3A41225  33.757  22.191   7.055
 8699POPC   C4A41226  33.766  22.157   7.355
 8699POPC   C1B41227  33.965  21.923   6.455
 8699POPC   C2B41228  33.963  21.913   6.755
 8699POPC   C3B41229  33.904  21.925   7.055
 8699POPC   C4B41230  33.975  21.988   7.355
 8700POPC   NC341231  44.622  38.420   5.555
 8700POPC   PO441232  44.628  38.502   5.855
 8700POPC   GL141233  44.619  38.444   6.155
 8700POPC   GL241234  44.703  38.617   6.155
 8700POPC   C1A41235  44.678  38.409   6.455
 8700POPC   D2A41236  44.658  38.447   6.755
 8700POPC   C3A41237  44.675  38.435   7.055
 8700POPC   C4A41238  44.649  38.483   7.355
 8700POPC   C1B41239  44.776  38.699   6.455
 8700POPC   C2B41240  44.774  38.714   6.755
 8700POPC   C3B41241  44.768  38.641   7.055
 8700POPC   C4B41242  44.771  38.731   7.355
 8701POPC   NC341243   3.530  33.814   5.555
 8701POPC   PO441244   3.511  33.763   5.855
 8701POPC   GL141245   3.578  33.813   6.155
 8701POPC   GL241246   3.437  33.919   6.155
 8701POPC   C1A41247   3.519  33.793   6.455
 8701POPC   D2A41248   3.576  33.761   6.755
 8701POPC   C3A41249   3.554  33.785   7.055
 8701POPC   C4A41250   3.556  33.759   7.355
 8701POPC   C1B41251   3.368  34.022   6.455
 8701POPC   C2B41252   3.391  34.008   6.755
 8701POPC   C3B41253   3.399  33.959   7.055
 8701POPC   C4B41254   3.351  33.994   7.355
 8702POPC   NC341255   2.780   5.899   5.555
 8702POPC   PO441256   2.792   5.830   5.855
 8702POPC   GL141257   2.793   5.888   6.155
 8702POPC   GL241258   2.736   6.022   6.155
 8702POPC   C1A41259   2.738   5.908   6.455
 8702POPC   D2A41260   2.814   5.831   6.755
 8702POPC   C3A41261   2.760   5.841   7.055
 8702POPC   C4A41262   2.759   5.875   7.355
 8702POPC   C1B41263   2.655   6.083   6.455
 8702POPC   C2B41264   2.709   6.087   6.755
 8702POPC   C3B41265   2.667   6.093   7.055
 8702POPC   C4B41266   2.672   6.125   7.355
 8703POPC   NC341267   0.451   9.006   5.555
 8703POPC   PO441268   0.395   8.968   5.855
 8703POPC   GL141269   0.430   8.961   6.155
 8703POPC   GL241270   0.420   8.873   6.155
 8703POPC   C1A41271   0.434   9.012   6.455
 8703POPC   D2A41272   0.426   9.005   6.755
 8703POPC   C3A41273   0.430   8.965   7.055
 8703POPC   C4A41274   0.423   8.946   7.355
 8703POPC   C1B41275   0.333   8.730   6.455
 8703POPC   C2B41276   0.383   8.764   6.755
 8703POPC   C3B41277   0.338   8.751   7.055
 8703POPC   C4B41278   0.309   8.717   7.355
 8704POPC   NC341279  44.673  27.574   5.555
 8704POPC   PO441280  44.672  27.545   5.855
 8704POPC   GL141281  44.696  27.623   6.155
 8704POPC   GL241282  44.619  27.761   6.155
 8704POPC   C1A41283  44.688  27.630   6.455
 8704POPC   D2A41284  44.613  27.603   6.755
 8704POPC   C3A41285  44.675  27.548   7.055
 8704POPC   C4A41286  44.647  27.623   7.355
 8704POPC   C1B41287  44.643  27.830   6.455
 8704POPC   C2B41288  44.699  27.806   6.755
 8704POPC   C3B41289  44.699  27.873   7.055
 8704POPC   C4B41290  44.640  27.825   7.355
 8705POPC   NC341291  24.488   2.013   5.555
 8705POPC   PO441292  24.503   1.944   5.855
 8705POPC   GL141293  24.493   1.954   6.155
 8705POPC   GL241294  24.476   1.876   6.155
 8705POPC   C1A41295  24.516   1.966   6.455
 8705POPC   D2A41296  24.442   1.955   6.755
 8705POPC   C3A41297  24.527   1.978   7.055
 8705POPC   C4A41298  24.476   2.028   7.355
 8705POPC   C1B41299  24.448   1.748   6.455
 8705POPC   C2B41300  24.482   1.738   6.755
 8705POPC   C3B41301  24.499   1.703   7.055
 8705POPC   C4B41302  24.528   1.768   7.355
 8706POPC   NC341303  34.616  26.045   5.555
 8706POPC   PO441304  34.598  26.038   5.855
 8706POPC   GL141305  34.543  26.050   6.155
 8706POPC   GL241306  34.467  26.097   6.155
 8706POPC   C1A41307  34.541  25.993   6.455
 8706POPC   D2A41308  34.561  25.998   6.755
 8706POPC   C3A41309  34.551  26.080   7.055
 8706POPC   C4A41310  34.617  26.006   7.355
 8706POPC   C1B41311  34.424  26.210   6.455
 8706POPC   C2B41312  34.441  26.223   6.755
 8706POPC   C3B41313  34.433  26.249   7.055
 8706POPC   C4B41314  34.434  26.239   7.355
 8707POPC   NC341315  30.682  39.182   5.555
 8707POPC   PO441316  30.664  39.248   5.855
 8707POPC   GL141317  30.713  39.216   6.155
 8707POPC   GL241318  30.611  39.366   6.155
 8707POPC   C1A41319  30.689  39.243   6.455
 8707POPC   D2A41320  30.742  39.228   6.755
 8707POPC   C3A41321  30.656  39.203   7.055
 8707POPC   C4A41322  30.686  39.237   7.355
 8707POPC   C1B41323  30.527  39.387   6.455
 8707POPC   C2B41324  30.478  39.403   6.755
 8707POPC   C3B41325  30.512  39.443   7.055
 8707POPC   C4B41326  30.524  39.392   7.355
 8708POPC   NC341327   5.876  37.696   5.555
 8708POPC   PO441328   5.902  37.674   5.855
 8708POPC   GL141329   5.857  37.667   6.155
 8708POPC   GL241330   5.974  37.743   6.155
 8708POPC   C1A41331   5.830  37.656   6.455
 8708POPC   D2A41332   5.905  37.675   6.755
 8708POPC   C3A41333   5.867  37.681   7.055
 8708POPC   C4A41334   5.828  37.630   7.355
 8708POPC   C1B41335   6.024  37.804   6.455
 8708POPC   C2B41336   6.013  37.845   6.755
 8708POPC   C3B41337   6.069  37.832   7.055
 8708POPC   C4B41338   6.044  37.843   7.355
 8709POPC   NC341339  24.499  20.619   5.555
 8709POPC   PO441340  24.453  20.656   5.855
 8709POPC   GL141341  24.492  20.608   6.155
 8709POPC   GL241342  24.472  20.450   6.155
 8709POPC   C1A41343  24.461  20.657   6.455
 8709POPC   D2A41344  24.512  20.642   6.755
 8709POPC   C3A41345  24.447  20.650   7.055
 8709POPC   C4A41346  24.490  20.644   7.355
 8709POPC   C1B41347  24.534  20.347   6.455
 8709POPC   C2B41348  24.493  20.397   6.755
 8709POPC   C3B41349  24.487  20.349   7.055
 8709POPC   C4B41350  24.475  20.323   7.355
 8710POPC   NC341351   4.271   7.451   5.555
 8710POPC   PO441352   4.299   7.435   5.855
 8710POPC   GL141353   4.362   7.460   6.155
 8710POPC   GL241354   4.331   7.528   6.155
 8710POPC   C1A41355   4.337   7.420   6.455
 8710POPC   D2A41356   4.296   7.396   6.755
 8710POPC   C3A41357   4.295   7.456   7.055
 8710POPC   C4A41358   4.357   7.451   7.355
 8710POPC   C1B41359   4.318   7.642   6.455
 8710POPC   C2B41360   4.317   7.654   6.755
 8710POPC   C3B41361   4.296   7.699   7.055
 8710POPC   C4B41362   4.326   7.683   7.355
 8711POPC   NC341363  33.012  41.523   5.555
 8711POPC   PO441364  33.070  41.517   5.855
 8711POPC   GL141365  33.030  41.608   6.155
 8711POPC   GL241366  33.075  41.491   6.155
 8711POPC   C1A41367  33.040  41.547   6.455
 8711POPC   D2A41368  32.995  41.603   6.755
 8711POPC   C3A41369  32.978  41.523   7.055
 8711POPC   C4A41370  32.986  41.525   7.355
 8711POPC   C1B41371  33.147  41.353   6.455
 8711POPC   C2B41372  33.103  41.371   6.755
 8711POPC   C3B41373  33.184  41.340   7.055
 8711POPC   C4B41374  33.126  41.370   7.355
 8712POPC   NC341375  40.758   0.413   5.555
 8712POPC   PO441376  40.827   0.423   5.855
 8712POPC   GL141377  40.766   0.449   6.155
 8712POPC   GL241378  40.788   0.595   6.155
 8712POPC   C1A41379  40.819   0.396   6.455
 8712POPC   D2A41380  40.782   0.443   6.755
 8712POPC   C3A41381  40.785   0.474   7.055
 8712POPC   C4A41382  40.791   0.442   7.355
 8712POPC   C1B41383  40.766   0.711   6.455
 8712POPC   C2B41384  40.805   0.651   6.755
 8712POPC   C3B41385  40.840   0.675   7.055
 8712POPC   C4B41386  40.818   0.666   7.355
 8713POPC   NC341387   4.290  43.842   5.555
 8713POPC   PO441388   4.274  43.859   5.855
 8713POPC   GL141389   4.351  43.920   6.155
 8713POPC   GL241390   4.391  43.811   6.155
 8713POPC   C1A41391   4.335  43.929   6.455
 8713POPC   D2A41392   4.320  43.922   6.755
 8713POPC   C3A41393   4.352  43.855   7.055
 8713POPC   C4A41394   4.287  43.838   7.355
 8713POPC   C1B41395   4.328  43.647   6.455
 8713POPC   C2B41396   4.320  43.598   6.755
 8713POPC   C3B41397   4.407  43.672   7.055
 8713POPC   C4B41398   4.351  43.679   7.355
 8714POPC   NC341399  22.120   0.399   5.555
 8714POPC   PO441400  22.131   0.426   5.855
 8714POPC   GL141401  22.125   0.443   6.155
 8714POPC   GL241402  22.055   0.307   6.155
 8714POPC   C1A41403  22.184   0.434   6.455
 8714POPC   D2A41404  22.115   0.408   6.755
 8714POPC   C3A41405  22.204   0.441   7.055
 8714POPC   C4A41406  22.210   0.419   7.355
 8714POPC   C1B41407  22.001   0.230   6.455
 8714POPC   C2B41408  22.013   0.223   6.755
 8714POPC   C3B41409  21.974   0.283   7.055
 8714POPC   C4B41410  21.958   0.233   7.355
 8715POPC   NC341411  34.534  44.646   5.555
 8715POPC   PO441412  34.548  44.656   5.855
 8715POPC   GL141413  34.592  44.685   6.155
 8715POPC   GL241414  34.550  44.561   6.155
 8715POPC   C1A41415  34.603  44.620   6.455
 8715POPC   D2A41416  34.568  44.703   6.755
 8715POPC   C3A41417  34.580  44.668   7.055
 8715POPC   C4A41418  34.575  44.618   7.355
 8715POPC   C1B41419  34.501  44.412   6.455
 8715POPC   C2B41420  34.519  44.434   6.755
 8715POPC   C3B41421  34.569  44.428   7.055
 8715POPC   C4B41422  34.523  44.412   7.355
 8716POPC   NC341423  22.954  14.400   5.555
 8716POPC   PO441424  22.901  14.384   5.855
 8716POPC   GL141425  22.942  14.380   6.155
 8716POPC   GL241426  22.990  14.273   6.155
 8716POPC   C1A41427  22.955  14.414   6.455
 8716POPC   D2A41428  22.952  14.427   6.755
 8716POPC   C3A41429  22.952  14.419   7.055
 8716POPC   C4A41430  22.929  14.416   7.355
 8716POPC   C1B41431  23.070  14.226   6.455
 8716POPC   C2B41432  23.039  14.219   6.755
 8716POPC   C3B41433  23.073  14.155   7.055
 8716POPC   C4B41434  23.063  14.210   7.355
 8717POPC   NC341435   9.005   7.446   5.555
 8717POPC   PO441436   9.014   7.462   5.855
 8717POPC   GL141437   9.019   7.431   6.155
 8717POPC   GL241438   8.838   7.423   6.155
 8717POPC   C1A41439   8.958   7.451   6.455
 8717POPC   D2A41440   8.998   7.392   6.755
 8717POPC   C3A41441   8.937   7.436   7.055
 8717POPC   C4A41442   8.951   7.389   7.355
 8717POPC   C1B41443   8.737   7.450   6.455
 8717POPC   C2B41444   8.750   7.505   6.755
 8717POPC   C3B41445   8.757   7.484   7.055
 8717POPC   C4B41446   8.695   7.468   7.355
 8718POPC   NC341447  29.924  17.521   5.555
 8718POPC   PO441448  29.937  17.459   5.855
 8718POPC   GL141449  29.912  17.504   6.155
 8718POPC   GL241450  29.858  17.551   6.155
 8718POPC   C1A41451  29.932  17.523   6.455
 8718POPC   D2A41452  29.884  17.548   6.755
 8718POPC   C3A41453  29.968  17.465   7.055
 8718POPC   C4A41454  29.894  17.461   7.355
 8718POPC   C1B41455  29.760  17.697   6.455
 8718POPC   C2B41456  29.687  17.667   6.755
 8718POPC   C3B41457  29.721  17.659   7.055
 8718POPC   C4B41458  29.684  17.720   7.355
 8719POPC   NC341459  24.446  36.128   5.555
 8719POPC   PO441460  24.526  36.132   5.855
 8719POPC   GL141461  24.523  36.148   6.155
 8719POPC   GL241462  24.549  36.092   6.155
 8719POPC   C1A41463  24.495  36.083   6.455
 8719POPC   D2A41464  24.521  36.080   6.755
 8719POPC   C3A41465  24.471  36.138   7.055
 8719POPC   C4A41466  24.490  36.107   7.355
 8719POPC   C1B41467  24.716  36.008   6.455
 8719POPC   C2B41468  24.750  35.952   6.755
 8719POPC   C3B41469  24.691  36.022   7.055
 8719POPC   C4B41470  24.691  36.019   7.355
 8720POPC   NC341471  26.046  33.809   5.555
 8720POPC   PO441472  26.019  33.804   5.855
 8720POPC   GL141473  26.067  33.779   6.155
 8720POPC   GL241474  26.094  33.948   6.155
 8720POPC   C1A41475  26.024  33.776   6.455
 8720POPC   D2A41476  26.007  33.791   6.755
 8720POPC   C3A41477  26.025  33.766   7.055
 8720POPC   C4A41478  26.037  33.806   7.355
 8720POPC   C1B41479  26.187  34.009   6.455
 8720POPC   C2B41480  26.185  34.046   6.755
 8720POPC   C3B41481  26.177  33.991   7.055
 8720POPC   C4B41482  26.129  34.010   7.355
 8721POPC   NC341483  35.367  15.167   5.555
 8721POPC   PO441484  35.346  15.189   5.855
 8721POPC   GL141485  35.314  15.214   6.155
 8721POPC   GL241486  35.410  15.037   6.155
 8721POPC   C1A41487  35.316  15.209   6.455
 8721POPC   D2A41488  35.397  15.155   6.755
 8721POPC   C3A41489  35.324  15.144   7.055
 8721POPC   C4A41490  35.345  15.217   7.355
 8721POPC   C1B41491  35.390  14.951   6.455
 8721POPC   C2B41492  35.414  14.918   6.755
 8721POPC   C3B41493  35.389  14.934   7.055
 8721POPC   C4B41494  35.397  14.976   7.355
 8722POPC   NC341495  38.492  29.919   5.555
 8722POPC   PO441496  38.478  29.878   5.855
 8722POPC   GL141497  38.429  29.895   6.155
 8722POPC   GL241498  38.389  29.966   6.155
 8722POPC   C1A41499  38.419  29.890   6.455
 8722POPC   D2A41500  38.498  29.923   6.755
 8722POPC   C3A41501  38.407  29.900   7.055
 8722POPC   C4A41502  38.503  29.880   7.355
 8722POPC   C1B41503  38.237  30.100   6.455
 8722POPC   C2B41504  38.260  30.026   6.755
 8722POPC   C3B41505  38.229  30.017   7.055
 8722POPC   C4B41506  38.261  30.063   7.355
 8723POPC   NC341507   2.014  16.699   5.555
 8723POPC   PO441508   1.961  16.776   5.855
 8723POPC   GL141509   2.036  16.713   6.155
 8723POPC   GL241510   1.878  16.697   6.155
 8723POPC   C1A41511   2.004  16.737   6.455
 8723POPC   D2A41512   2.004  16.699   6.755
 8723POPC   C3A41513   2.025  16.764   7.055
 8723POPC   C4A41514   1.967  16.772   7.355
 8723POPC   C1B41515   1.796  16.583   6.455
 8723POPC   C2B41516   1.712  16.614   6.755
 8723POPC   C3B41517   1.758  16.660   7.055
 8723POPC   C4B41518   1.766  16.592   7.355
 8724POPC   NC341519  26.863   3.511   5.555
 8724POPC   PO441520  26.787   3.540   5.855
 8724POPC   GL141521  26.771   3.531   6.155
 8724POPC   GL241522  26.822   3.425   6.155
 8724POPC   C1A41523  26.816   3.552   6.455
 8724POPC   D2A41524  26.849   3.531   6.755
 8724POPC   C3A41525  26.825   3.556   7.055
 8724POPC   C4A41526  26.860   3.534   7.355
 8724POPC   C1B41527  26.904   3.336   6.455
 8724POPC   C2B41528  26.915   3.280   6.755
 8724POPC   C3B41529  26.851   3.294   7.055
 8724POPC   C4B41530  26.892   3.293   7.355
 8725POPC   NC341531  25.239  30.667   5.555
 8725POPC   PO441532  25.225  30.660   5.855
 8725POPC   GL141533  25.245  30.689   6.155
 8725POPC   GL241534  25.361  30.655   6.155
 8725POPC   C1A41535  25.240  30.695   6.455
 8725POPC   D2A41536  25.268  30.692   6.755
 8725POPC   C3A41537  25.255  30.665   7.055
 8725POPC   C4A41538  25.239  30.699   7.355
 8725POPC   C1B41539  25.561  30.625   6.455
 8725POPC   C2B41540  25.467  30.632   6.755
 8725POPC   C3B41541  25.514  30.695   7.055
 8725POPC   C4B41542  25.547  30.676   7.355
 8726POPC   NC341543  16.760   1.998   5.555
 8726POPC   PO441544  16.727   1.967   5.855
 8726POPC   GL141545  16.746   2.015   6.155
 8726POPC   GL241546  16.610   1.969   6.155
 8726POPC   C1A41547  16.746   2.020   6.455
 8726POPC   D2A41548  16.770   1.982   6.755
 8726POPC   C3A41549  16.780   2.019   7.055
 8726POPC   C4A41550  16.736   2.003   7.355
 8726POPC   C1B41551  16.526   1.906   6.455
 8726POPC   C2B41552  16.523   1.906   6.755
 8726POPC   C3B41553  16.494   1.924   7.055
 8726POPC   C4B41554  16.463   1.988   7.355
 8727POPC   NC341555  15.968   8.167   5.555
 8727POPC   PO441556  15.962   8.230   5.855
 8727POPC   GL141557  15.993   8.195   6.155
 8727POPC   GL241558  16.031   8.201   6.155
 8727POPC   C1A41559  15.994   8.220   6.455
 8727POPC   D2A41560  15.922   8.211   6.755
 8727POPC   C3A41561  15.918   8.230   7.055
 8727POPC   C4A41562  15.943   8.220   7.355
 8727POPC   C1B41563  16.197   8.295   6.455
 8727POPC   C2B41564  16.168   8.235   6.755
 8727POPC   C3B41565  16.186   8.223   7.055
 8727POPC   C4B41566  16.161   8.202   7.355
 8728POPC   NC341567  29.954  43.905   5.555
 8728POPC   PO441568  29.917  43.852   5.855
 8728POPC   GL141569  29.928  43.875   6.155
 8728POPC   GL241570  29.844  43.886   6.155
 8728POPC   C1A41571  29.914  43.840   6.455
 8728POPC   D2A41572  29.892  43.918   6.755
 8728POPC   C3A41573  29.940  43.843   7.055
 8728POPC   C4A41574  29.957  43.890   7.355
 8728POPC   C1B41575  29.703  43.921   6.455
 8728POPC   C2B41576  29.636  43.933   6.755
 8728POPC   C3B41577  29.711  43.943   7.055
 8728POPC   C4B41578  29.634  44.004   7.355
 8729POPC   NC341579  29.879   6.653   5.555
 8729POPC   PO441580  29.882   6.684   5.855
 8729POPC   GL141581  29.887   6.683   6.155
 8729POPC   GL241582  30.022   6.544   6.155
 8729POPC   C1A41583  29.965   6.642   6.455
 8729POPC   D2A41584  29.902   6.608   6.755
 8729POPC   C3A41585  29.899   6.636   7.055
 8729POPC   C4A41586  29.964   6.632   7.355
 8729POPC   C1B41587  30.046   6.472   6.455
 8729POPC   C2B41588  30.056   6.464   6.755
 8729POPC   C3B41589  29.987   6.455   7.055
 8729POPC   C4B41590  30.032   6.383   7.355
 8730POPC   NC341591   5.089  42.372   5.555
 8730POPC   PO441592   5.049  42.345   5.855
 8730POPC   GL141593   5.076  42.352   6.155
 8730POPC   GL241594   4.986  42.206   6.155
 8730POPC   C1A41595   5.068  42.343   6.455
 8730POPC   D2A41596   5.101  42.296   6.755
 8730POPC   C3A41597   5.102  42.364   7.055
 8730POPC   C4A41598   5.122  42.383   7.355
 8730POPC   C1B41599   4.959  42.125   6.455
 8730POPC   C2B41600   4.972  42.120   6.755
 8730POPC   C3B41601   4.967  42.180   7.055
 8730POPC   C4B41602   4.948  42.157   7.355
 8731POPC   NC341603  23.688  17.473   5.555
 8731POPC   PO441604  23.757  17.500   5.855
 8731POPC   GL141605  23.746  17.491   6.155
 8731POPC   GL241606  23.655  17.363   6.155
 8731POPC   C1A41607  23.681  17.503   6.455
 8731POPC   D2A41608  23.684  17.464   6.755
 8731POPC   C3A41609  23.715  17.462   7.055
 8731POPC   C4A41610  23.714  17.520   7.355
 8731POPC   C1B41611  23.603  17.357   6.455
 8731POPC   C2B41612  23.599  17.312   6.755
 8731POPC   C3B41613  23.540  17.302   7.055
 8731POPC   C4B41614  23.517  17.280   7.355
 8732POPC   NC341615   5.053  32.259   5.555
 8732POPC   PO441616   5.112  32.226   5.855
 8732POPC   GL141617   5.109  32.291   6.155
 8732POPC   GL241618   4.948  32.301   6.155
 8732POPC   C1A41619   5.078  32.226   6.455
 8732POPC   D2A41620   5.071  32.259   6.755
 8732POPC   C3A41621   5.074  32.281   7.055
 8732POPC   C4A41622   5.133  32.228   7.355
 8732POPC   C1B41623   4.887  32.347   6.455
 8732POPC   C2B41624   4.819  32.385   6.755
 8732POPC   C3B41625   4.906  32.301   7.055
 8732POPC   C4B41626   4.854  32.309   7.355
 8733POPC   NC341627  11.266  12.069   5.555
 8733POPC   PO441628  11.256  12.116   5.855
 8733POPC   GL141629  11.294  12.107   6.155
 8733POPC   GL241630  11.338  12.174   6.155
 8733POPC   C1A41631  11.294  12.082   6.455
 8733POPC   D2A41632  11.335  12.064   6.755
 8733POPC   C3A41633  11.258  12.092   7.055
 8733POPC   C4A41634  11.266  12.033   7.355
 8733POPC   C1B41635  11.359  12.294   6.455
 8733POPC   C2B41636  11.344  12.309   6.755
 8733POPC   C3B41637  11.412  12.345   7.055
 8733POPC   C4B41638  11.363  12.334   7.355
 8734POPC   NC341639  36.083  29.894   5.555
 8734POPC   PO441640  36.088  29.874   5.855
 8734POPC   GL141641  36.101  29.924   6.155
 8734POPC   GL241642  36.048  29.814   6.155
 8734POPC   C1A41643  36.088  29.939   6.455
 8734POPC   D2A41644  36.164  29.899   6.755
 8734POPC   C3A41645  36.163  29.963   7.055
 8734POPC   C4A41646  36.093  29.891   7.355
 8734POPC   C1B41647  35.945  29.699   6.455
 8734POPC   C2B41648  36.020  29.725   6.755
 8734POPC   C3B41649  35.994  29.691   7.055
 8734POPC   C4B41650  36.021  29.710   7.355
 8735POPC   NC341651  29.104  17.513   5.555
 8735POPC   PO441652  29.191  17.518   5.855
 8735POPC   GL141653  29.143  17.553   6.155
 8735POPC   GL241654  29.058  17.414   6.155
 8735POPC   C1A41655  29.172  17.463   6.455
 8735POPC   D2A41656  29.142  17.521   6.755
 8735POPC   C3A41657  29.099  17.488   7.055
 8735POPC   C4A41658  29.147  17.532   7.355
 8735POPC   C1B41659  28.926  17.380   6.455
 8735POPC   C2B41660  28.984  17.370   6.755
 8735POPC   C3B41661  28.953  17.363   7.055
 8735POPC   C4B41662  28.918  17.366   7.355
 8736POPC   NC341663   4.367  42.321   5.555
 8736POPC   PO441664   4.295  42.384   5.855
 8736POPC   GL141665   4.276  42.288   6.155
 8736POPC   GL241666   4.259  42.251   6.155
 8736POPC   C1A41667   4.365  42.379   6.455
 8736POPC   D2A41668   4.347  42.357   6.755
 8736POPC   C3A41669   4.289  42.295   7.055
 8736POPC   C4A41670   4.317  42.326   7.355
 8736POPC   C1B41671   4.243  42.049   6.455
 8736POPC   C2B41672   4.258  42.134   6.755
 8736POPC   C3B41673   4.227  42.101   7.055
 8736POPC   C4B41674   4.273  42.079   7.355
 8737POPC   NC341675  33.823  37.692   5.555
 8737POPC   PO441676  33.784  37.717   5.855
 8737POPC   GL141677  33.821  37.724   6.155
 8737POPC   GL241678  33.895  37.570   6.155
 8737POPC   C1A41679  33.757  37.654   6.455
 8737POPC   D2A41680  33.806  37.687   6.755
 8737POPC   C3A41681  33.754  37.721   7.055
 8737POPC   C4A41682  33.771  37.685   7.355
 8737POPC   C1B41683  33.921  37.445   6.455
 8737POPC   C2B41684  33.992  37.457   6.755
 8737POPC   C3B41685  33.936  37.487   7.055
 8737POPC   C4B41686  33.945  37.518   7.355
 8738POPC   NC341687  33.044  19.867   5.555
 8738POPC   PO441688  33.040  19.845   5.855
 8738POPC   GL141689  32.991  19.854   6.155
 8738POPC   GL241690  33.151  19.705   6.155
 8738POPC   C1A41691  33.028  19.805   6.455
 8738POPC   D2A41692  32.999  19.788   6.755
 8738POPC   C3A41693  32.980  19.814   7.055
 8738POPC   C4A41694  32.999  19.790   7.355
 8738POPC   C1B41695  33.199  19.629   6.455
 8738POPC   C2B41696  33.186  19.639   6.755
 8738POPC   C3B41697  33.212  19.642   7.055
 8738POPC   C4B41698  33.182  19.661   7.355
 8739POPC   NC341699  33.792  19.825   5.555
 8739POPC   PO441700  33.798  19.869   5.855
 8739POPC   GL141701  33.752  19.865   6.155
 8739POPC   GL241702  33.807  19.919   6.155
 8739POPC   C1A41703  33.844  19.854   6.455
 8739POPC   D2A41704  33.818  19.797   6.755
 8739POPC   C3A41705  33.789  19.865   7.055
 8739POPC   C4A41706  33.769  19.863   7.355
 8739POPC   C1B41707  33.803  20.113   6.455
 8739POPC   C2B41708  33.812  20.050   6.755
 8739POPC   C3B41709  33.839  20.039   7.055
 8739POPC   C4B41710  33.844  20.113   7.355
 8740POPC   NC341711   2.778  15.977   5.555
 8740POPC   PO441712   2.790  15.991   5.855
 8740POPC   GL141713   2.734  15.909   6.155
 8740POPC   GL241714   2.720  16.025   6.155
 8740POPC   C1A41715   2.760  15.962   6.455
 8740POPC   D2A41716   2.791  15.973   6.755
 8740POPC   C3A41717   2.721  15.961   7.055
 8740POPC   C4A41718   2.766  15.992   7.355
 8740POPC   C1B41719   2.573  16.157   6.455
 8740POPC   C2B41720   2.623  16.165   6.755
 8740POPC   C3B41721   2.610  16.115   7.055
 8740POPC   C4B41722   2.563  16.101   7.355
 8741POPC   NC341723   8.986   5.883   5.555
 8741POPC   PO441724   8.959   5.899   5.855
 8741POPC   GL141725   8.977   5.822   6.155
 8741POPC   GL241726   9.047   5.772   6.155
 8741POPC   C1A41727   8.941   5.879   6.455
 8741POPC   D2A41728   8.931   5.909   6.755
 8741POPC   C3A41729   8.961   5.849   7.055
 8741POPC   C4A41730   9.022   5.851   7.355
 8741POPC   C1B41731   9.101   5.708   6.455
 8741POPC   C2B41732   9.090   5.677   6.755
 8741POPC   C3B41733   9.074   5.680   7.055
 8741POPC   C4B41734   9.120   5.650   7.355
 8742POPC   NC341735  26.058  28.402   5.555
 8742POPC   PO441736  26.078  28.405   5.855
 8742POPC   GL141737  26.090  28.357   6.155
 8742POPC   GL241738  25.909  28.428   6.155
 8742POPC   C1A41739  26.027  28.339   6.455
 8742POPC   D2A41740  26.000  28.414   6.755
 8742POPC   C3A41741  26.043  28.405   7.055
 8742POPC   C4A41742  26.017  28.354   7.355
 8742POPC   C1B41743  25.825  28.494   6.455
 8742POPC   C2B41744  25.870  28.472   6.755
 8742POPC   C3B41745  25.848  28.555   7.055
 8742POPC   C4B41746  25.878  28.564   7.355
 8743POPC   NC341747  21.377  33.777   5.555
 8743POPC   PO441748  21.402  33.846   5.855
 8743POPC   GL141749  21.369  33.778   6.155
 8743POPC   GL241750  21.271  33.808   6.155
 8743POPC   C1A41751  21.434  33.837   6.455
 8743POPC   D2A41752  21.398  33.766   6.755
 8743POPC   C3A41753  21.343  33.767   7.055
 8743POPC   C4A41754  21.355  33.792   7.355
 8743POPC   C1B41755  21.160  33.765   6.455
 8743POPC   C2B41756  21.146  33.756   6.755
 8743POPC   C3B41757  21.100  33.724   7.055
 8743POPC   C4B41758  21.168  33.700   7.355
 8744POPC   NC341759   0.430  32.237   5.555
 8744POPC   PO441760   0.484  32.235   5.855
 8744POPC   GL141761   0.447  32.254   6.155
 8744POPC   GL241762   0.427  32.349   6.155
 8744POPC   C1A41763   0.442  32.210   6.455
 8744POPC   D2A41764   0.436  32.287   6.755
 8744POPC   C3A41765   0.421  32.277   7.055
 8744POPC   C4A41766   0.475  32.293   7.355
 8744POPC   C1B41767   0.423  32.476   6.455
 8744POPC   C2B41768   0.461  32.511   6.755
 8744POPC   C3B41769   0.470  32.483   7.055
 8744POPC   C4B41770   0.494  32.512   7.355
 8745POPC   NC341771  31.477  19.079   5.555
 8745POPC   PO441772  31.478  19.094   5.855
 8745POPC   GL141773  31.509  19.100   6.155
 8745POPC   GL241774  31.448  18.919   6.155
 8745POPC   C1A41775  31.444  19.059   6.455
 8745POPC   D2A41776  31.516  19.023   6.755
 8745POPC   C3A41777  31.443  19.010   7.055
 8745POPC   C4A41778  31.475  19.065   7.355
 8745POPC   C1B41779  31.313  18.872   6.455
 8745POPC   C2B41780  31.356  18.829   6.755
 8745POPC   C3B41781  31.337  18.841   7.055
 8745POPC   C4B41782  31.347  18.816   7.355
 8746POPC   NC341783  19.785  12.033   5.555
 8746POPC   PO441784  19.836  12.037   5.855
 8746POPC   GL141785  19.832  12.029   6.155
 8746POPC   GL241786  19.959  12.145   6.155
 8746POPC   C1A41787  19.845  12.114   6.455
 8746POPC   D2A41788  19.816  12.077   6.755
 8746POPC   C3A41789  19.803  12.079   7.055
 8746POPC   C4A41790  19.877  12.077   7.355
 8746POPC   C1B41791  20.079  12.216   6.455
 8746POPC   C2B41792  20.010  12.176   6.755
 8746POPC   C3B41793  20.079  12.201   7.055
 8746POPC   C4B41794  20.064  12.152   7.355
 8747POPC   NC341795   0.396   3.540   5.555
 8747POPC   PO441796   0.474   3.562   5.855
 8747POPC   GL141797   0.414   3.571   6.155
 8747POPC   GL241798   0.370   3.446   6.155
 8747POPC   C1A41799   0.437   3.584   6.455
 8747POPC   D2A41800   0.461   3.573   6.755
 8747POPC   C3A41801   0.458   3.500   7.055
 8747POPC   C4A41802   0.428   3.541   7.355
 8747POPC   C1B41803   0.252   3.325   6.455
 8747POPC   C2B41804   0.303   3.331   6.755
 8747POPC   C3B41805   0.287   3.354   7.055
 8747POPC   C4B41806   0.255   3.390   7.355
 8748POPC   NC341807  22.922  35.393   5.555
 8748POPC   PO441808  22.892  35.333   5.855
 8748POPC   GL141809  22.972  35.394   6.155
 8748POPC   GL241810  23.055  35.435   6.155
 8748POPC   C1A41811  22.931  35.333   6.455
 8748POPC   D2A41812  22.942  35.303   6.755
 8748POPC   C3A41813  22.942  35.367   7.055
 8748POPC   C4A41814  22.983  35.372   7.355
 8748POPC   C1B41815  23.121  35.458   6.455
 8748POPC   C2B41816  23.167  35.476   6.755
 8748POPC   C3B41817  23.197  35.517   7.055
 8748POPC   C4B41818  23.178  35.491   7.355
 8749POPC   NC341819  37.719  40.009   5.555
 8749POPC   PO441820  37.692  40.014   5.855
 8749POPC   GL141821  37.668  40.017   6.155
 8749POPC   GL241822  37.551  40.120   6.155
 8749POPC   C1A41823  37.726  40.013   6.455
 8749POPC   D2A41824  37.673  39.976   6.755
 8749POPC   C3A41825  37.657  40.029   7.055
 8749POPC   C4A41826  37.652  39.968   7.355
 8749POPC   C1B41827  37.547  40.166   6.455
 8749POPC   C2B41828  37.533  40.165   6.755
 8749POPC   C3B41829  37.531  40.140   7.055
 8749POPC   C4B41830  37.516  40.139   7.355
 8750POPC   NC341831  43.894  27.555   5.555
 8750POPC   PO441832  43.929  27.580   5.855
 8750POPC   GL141833  43.847  27.620   6.155
 8750POPC   GL241834  43.937  27.681   6.155
 8750POPC   C1A41835  43.910  27.621   6.455
 8750POPC   D2A41836  43.892  27.614   6.755
 8750POPC   C3A41837  43.887  27.555   7.055
 8750POPC   C4A41838  43.882  27.643   7.355
 8750POPC   C1B41839  43.982  27.817   6.455
 8750POPC   C2B41840  43.925  27.855   6.755
 8750POPC   C3B41841  43.939  27.793   7.055
 8750POPC   C4B41842  43.994  27.874   7.355
 8751POPC   NC341843   1.999   1.206   5.555
 8751POPC   PO441844   2.011   1.224   5.855
 8751POPC   GL141845   1.988   1.213   6.155
 8751POPC   GL241846   2.046   1.350   6.155
 8751POPC   C1A41847   1.950   1.253   6.455
 8751POPC   D2A41848   1.996   1.234   6.755
 8751POPC   C3A41849   1.941   1.194   7.055
 8751POPC   C4A41850   2.006   1.221   7.355
 8751POPC   C1B41851   1.997   1.438   6.455
 8751POPC   C2B41852   1.973   1.489   6.755
 8751POPC   C3B41853   2.016   1.424   7.055
 8751POPC   C4B41854   1.988   1.492   7.355
 8752POPC   NC341855  43.933  10.568   5.555
 8752POPC   PO441856  43.890  10.557   5.855
 8752POPC   GL141857  43.880  10.560   6.155
 8752POPC   GL241858  43.921  10.675   6.155
 8752POPC   C1A41859  43.882  10.522   6.455
 8752POPC   D2A41860  43.837  10.507   6.755
 8752POPC   C3A41861  43.928  10.542   7.055
 8752POPC   C4A41862  43.894  10.530   7.355
 8752POPC   C1B41863  43.874  10.734   6.455
 8752POPC   C2B41864  43.886  10.798   6.755
 8752POPC   C3B41865  43.867  10.793   7.055
 8752POPC   C4B41866  43.892  10.770   7.355
 8753POPC   NC341867  21.350   0.417   5.555
 8753POPC   PO441868  21.354   0.392   5.855
 8753POPC   GL141869  21.368   0.419   6.155
 8753POPC   GL241870  21.287   0.461   6.155
 8753POPC   C1A41871  21.426   0.401   6.455
 8753POPC   D2A41872  21.414   0.421   6.755
 8753POPC   C3A41873  21.354   0.406   7.055
 8753POPC   C4A41874  21.409   0.402   7.355
 8753POPC   C1B41875  21.175   0.415   6.455
 8753POPC   C2B41876  21.107   0.370   6.755
 8753POPC   C3B41877  21.118   0.432   7.055
 8753POPC   C4B41878  21.160   0.403   7.355
 8754POPC   NC341879   2.799  19.792   5.555
 8754POPC   PO441880   2.732  19.858   5.855
 8754POPC   GL141881   2.736  19.812   6.155
 8754POPC   GL241882   2.690  19.761   6.155
 8754POPC   C1A41883   2.807  19.844   6.455
 8754POPC   D2A41884   2.753  19.789   6.755
 8754POPC   C3A41885   2.795  19.810   7.055
 8754POPC   C4A41886   2.751  19.847   7.355
 8754POPC   C1B41887   2.690  19.583   6.455
 8754POPC   C2B41888   2.616  19.557   6.755
 8754POPC   C3B41889   2.698  19.620   7.055
 8754POPC   C4B41890   2.666  19.638   7.355
 8755POPC   NC341891  26.072   0.438   5.555
 8755POPC   PO441892  26.089   0.428   5.855
 8755POPC   GL141893  26.065   0.437   6.155
 8755POPC   GL241894  25.915   0.485   6.155
 8755POPC   C1A41895  26.038   0.453   6.455
 8755POPC   D2A41896  26.037   0.468   6.755
 8755POPC   C3A41897  26.036   0.394   7.055
 8755POPC   C4A41898  26.073   0.405   7.355
 8755POPC   C1B41899  25.790   0.490   6.455
 8755POPC   C2B41900  25.848   0.534   6.755
 8755POPC   C3B41901  25.790   0.503   7.055
 8755POPC   C4B41902  25.777   0.536   7.355
 8756POPC   NC341903  29.152   8.965   5.555
 8756POPC   PO441904  29.171   8.931   5.855
 8756POPC   GL141905  29.113   8.928   6.155
 8756POPC   GL241906  29.309   8.951   6.155
 8756POPC   C1A41907  29.102   9.002   6.455
 8756POPC   D2A41908  29.106   9.018   6.755
 8756POPC   C3A41909  29.157   8.926   7.055
 8756POPC   C4A41910  29.168   9.014   7.355
 8756POPC   C1B41911  29.344   8.835   6.455
 8756POPC   C2B41912  29.340   8.893   6.755
 8756POPC   C3B41913  29.417   8.881   7.055
 8756POPC   C4B41914  29.391   8.884   7.355
 8757POPC   NC341915  29.953  11.326   5.555
 8757POPC   PO441916  29.942  11.299   5.855
 8757POPC   GL141917  29.929  11.328   6.155
 8757POPC   GL241918  29.845  11.271   6.155
 8757POPC   C1A41919  29.916  11.319   6.455
 8757POPC   D2A41920  29.914  11.305   6.755
 8757POPC   C3A41921  29.903  11.310   7.055
 8757POPC   C4A41922  29.944  11.253   7.355
 8757POPC   C1B41923  29.737  11.094   6.455
 8757POPC   C2B41924  29.758  11.173   6.755
 8757POPC   C3B41925  29.715  11.096   7.055
 8757POPC   C4B41926  29.689  11.105   7.355
 8758POPC   NC341927   2.799  29.959   5.555
 8758POPC   PO441928   2.785  29.915   5.855
 8758POPC   GL141929   2.775  29.883   6.155
 8758POPC   GL241930   2.779  29.996   6.155
 8758POPC   C1A41931   2.805  29.903   6.455
 8758POPC   D2A41932   2.722  29.877   6.755
 8758POPC   C3A41933   2.767  29.929   7.055
 8758POPC   C4A41934   2.763  29.871   7.355
 8758POPC   C1B41935   2.728  30.150   6.455
 8758POPC   C2B41936   2.781  30.178   6.755
 8758POPC   C3B41937   2.787  30.142   7.055
 8758POPC   C4B41938   2.723  30.173   7.355
 8759POPC   NC341939  35.334   0.485   5.555
 8759POPC   PO441940  35.317   0.438   5.855
 8759POPC   GL141941  35.341   0.447   6.155
 8759POPC   GL241942  35.333   0.532   6.155
 8759POPC   C1A41943  35.342   0.444   6.455
 8759POPC   D2A41944  35.313   0.411   6.755
 8759POPC   C3A41945  35.385   0.488   7.055
 8759POPC   C4A41946  35.382   0.412   7.355
 8759POPC   C1B41947  35.214   0.659   6.455
 8759POPC   C2B41948  35.233   0.691   6.755
 8759POPC   C3B41949  35.224   0.638   7.055
 8759POPC   C4B41950  35.216   0.681   7.355
 8760POPC   NC341951  40.758  19.882   5.555
 8760POPC   PO441952  40.809  19.884   5.855
 8760POPC   GL141953  40.760  19.836   6.155
 8760POPC   GL241954  40.782  19.976   6.155
 8760POPC   C1A41955  40.819  19.840   6.455
 8760POPC   D2A41956  40.804  19.787   6.755
 8760POPC   C3A41957  40.777  19.825   7.055
 8760POPC   C4A41958  40.806  19.879   7.355
 8760POPC   C1B41959  40.700  20.116   6.455
 8760POPC   C2B41960  40.741  20.037   6.755
 8760POPC   C3B41961  40.698  20.120   7.055
 8760POPC   C4B41962  40.728  20.124   7.355
 8761POPC   NC341963  27.574  32.199   5.555
 8761POPC   PO441964  27.573  32.294   5.855
 8761POPC   GL141965  27.568  32.259   6.155
 8761POPC   GL241966  27.488  32.201   6.155
 8761POPC   C1A41967  27.613  32.216   6.455
 8761POPC   D2A41968  27.594  32.231   6.755
 8761POPC   C3A41969  27.614  32.279   7.055
 8761POPC   C4A41970  27.609  32.232   7.355
 8761POPC   C1B41971  27.429  32.059   6.455
 8761POPC   C2B41972  27.366  32.090   6.755
 8761POPC   C3B41973  27.439  32.095   7.055
 8761POPC   C4B41974  27.452  32.065   7.355
 8762POPC   NC341975  19.880  42.349   5.555
 8762POPC   PO441976  19.855  42.339   5.855
 8762POPC   GL141977  19.841  42.349   6.155
 8762POPC   GL241978  19.906  42.380   6.155
 8762POPC   C1A41979  19.854  42.298   6.455
 8762POPC   D2A41980  19.879  42.295   6.755
 8762POPC   C3A41981  19.875  42.354   7.055
 8762POPC   C4A41982  19.842  42.346   7.355
 8762POPC   C1B41983  20.067  42.430   6.455
 8762POPC   C2B41984  20.031  42.407   6.755
 8762POPC   C3B41985  20.092  42.402   7.055
 8762POPC   C4B41986  20.035  42.448   7.355
 8763POPC   NC341987  17.480   6.668   5.555
 8763POPC   PO441988  17.464   6.635   5.855
 8763POPC   GL141989  17.481   6.643   6.155
 8763POPC   GL241990  17.629   6.527   6.155
 8763POPC   C1A41991  17.460   6.682   6.455
 8763POPC   D2A41992  17.539   6.656   6.755
 8763POPC   C3A41993  17.475   6.610   7.055
 8763POPC   C4A41994  17.469   6.668   7.355
 8763POPC   C1B41995  17.678   6.498   6.455
 8763POPC   C2B41996  17.698   6.478   6.755
 8763POPC   C3B41997  17.710   6.482   7.055
 8763POPC   C4B41998  17.701   6.493   7.355
 8764POPC   NC341999   1.248  33.816   5.555
 8764POPC   PO442000   1.200  33.775   5.855
 8764POPC   GL142001   1.212  33.793   6.155
 8764POPC   GL242002   1.353  33.836   6.155
 8764POPC   C1A42003   1.191  33.806   6.455
 8764POPC   D2A42004   1.215  33.802   6.755
 8764POPC   C3A42005   1.209  33.782   7.055
 8764POPC   C4A42006   1.193  33.830   7.355
 8764POPC   C1B42007   1.509  33.852   6.455
 8764POPC   C2B42008   1.469  33.805   6.755
 8764POPC   C3B42009   1.501  33.826   7.055
 8764POPC   C4B42010   1.414  33.841   7.355
 8765POPC   NC342011  23.757  26.789   5.555
 8765POPC   PO442012  23.670  26.776   5.855
 8765POPC   GL142013  23.684  26.861   6.155
 8765POPC   GL242014  23.857  26.724   6.155
 8765POPC   C1A42015  23.758  26.797   6.455
 8765POPC   D2A42016  23.699  26.788   6.755
 8765POPC   C3A42017  23.696  26.825   7.055
 8765POPC   C4A42018  23.747  26.787   7.355
 8765POPC   C1B42019  23.955  26.723   6.455
 8765POPC   C2B42020  23.994  26.732   6.755
 8765POPC   C3B42021  23.964  26.758   7.055
 8765POPC   C4B42022  23.916  26.680   7.355
 8766POPC   NC342023  39.236   8.179   5.555
 8766POPC   PO442024  39.187   8.162   5.855
 8766POPC   GL142025  39.280   8.232   6.155
 8766POPC   GL242026  39.135   8.105   6.155
 8766POPC   C1A42027  39.261   8.161   6.455
 8766POPC   D2A42028  39.192   8.201   6.755
 8766POPC   C3A42029  39.205   8.192   7.055
 8766POPC   C4A42030  39.229   8.167   7.355
 8766POPC   C1B42031  39.022   7.957   6.455
 8766POPC   C2B42032  39.032   7.972   6.755
 8766POPC   C3B42033  39.110   7.979   7.055
 8766POPC   C4B42034  39.104   8.000   7.355
 8767POPC   NC342035  42.337  28.387   5.555
 8767POPC   PO442036  42.354  28.358   5.855
 8767POPC   GL142037  42.338  28.394   6.155
 8767POPC   GL242038  42.377  28.295   6.155
 8767POPC   C1A42039  42.326  28.361   6.455
 8767POPC   D2A42040  42.315  28.397   6.755
 8767POPC   C3A42041  42.372  28.378   7.055
 8767POPC   C4A42042  42.286  28.326   7.355
 8767POPC   C1B42043  42.546  28.166   6.455
 8767POPC   C2B42044  42.477  28.192   6.755
 8767POPC   C3B42045  42.472  28.219   7.055
 8767POPC   C4B42046  42.499  28.215   7.355
 8768POPC   NC342047   2.807  40.756   5.555
 8768POPC   PO442048   2.744  40.819   5.855
 8768POPC   GL142049   2.718  40.825   6.155
 8768POPC   GL242050   2.678  40.859   6.155
 8768POPC   C1A42051   2.810  40.801   6.455
 8768POPC   D2A42052   2.778  40.811   6.755
 8768POPC   C3A42053   2.746  40.798   7.055
 8768POPC   C4A42054   2.755  40.826   7.355
 8768POPC   C1B42055   2.537  40.896   6.455
 8768POPC   C2B42056   2.554  40.911   6.755
 8768POPC   C3B42057   2.542  40.940   7.055
 8768POPC   C4B42058   2.582  40.869   7.355
 8769POPC   NC342059  35.363  35.345   5.555
 8769POPC   PO442060  35.320  35.343   5.855
 8769POPC   GL142061  35.370  35.402   6.155
 8769POPC   GL242062  35.506  35.382   6.155
 8769POPC   C1A42063  35.377  35.335   6.455
 8769POPC   D2A42064  35.320  35.302   6.755
 8769POPC   C3A42065  35.395  35.326   7.055
 8769POPC   C4A42066  35.350  35.314   7.355
 8769POPC   C1B42067  35.588  35.290   6.455
 8769POPC   C2B42068  35.622  35.313   6.755
 8769POPC   C3B42069  35.622  35.316   7.055
 8769POPC   C4B42070  35.586  35.313   7.355
 8770POPC   NC342071  12.819  42.378   5.555
 8770POPC   PO442072  12.888  42.369   5.855
 8770POPC   GL142073  12.865  42.286   6.155
 8770POPC   GL242074  12.925  42.455   6.155
 8770POPC   C1A42075  12.873  42.366   6.455
 8770POPC   D2A42076  12.828  42.342   6.755
 8770POPC   C3A42077  12.855  42.369   7.055
 8770POPC   C4A42078  12.864  42.320   7.355
 8770POPC   C1B42079  13.001  42.535   6.455
 8770POPC   C2B42080  13.080  42.537   6.755
 8770POPC   C3B42081  13.045  42.454   7.055
 8770POPC   C4B42082  13.038  42.499   7.355
 8771POPC   NC342083   1.954  26.073   5.555
 8771POPC   PO442084   1.973  26.083   5.855
 8771POPC   GL142085   2.036  26.007   6.155
 8771POPC   GL242086   2.114  26.129   6.155
 8771POPC   C1A42087   2.033  26.060   6.455
 8771POPC   D2A42088   1.962  26.078   6.755
 8771POPC   C3A42089   2.029  26.074   7.055
 8771POPC   C4A42090   2.003  26.007   7.355
 8771POPC   C1B42091   2.236  26.198   6.455
 8771POPC   C2B42092   2.207  26.131   6.755
 8771POPC   C3B42093   2.244  26.116   7.055
 8771POPC   C4B42094   2.176  26.119   7.355
 8772POPC   NC342095  12.121   3.581   5.555
 8772POPC   PO442096  12.045   3.538   5.855
 8772POPC   GL142097  12.116   3.493   6.155
 8772POPC   GL242098  11.980   3.477   6.155
 8772POPC   C1A42099  12.038   3.517   6.455
 8772POPC   D2A42100  12.076   3.492   6.755
 8772POPC   C3A42101  12.047   3.500   7.055
 8772POPC   C4A42102  12.044   3.535   7.355
 8772POPC   C1B42103  11.834   3.460   6.455
 8772POPC   C2B42104  11.843   3.506   6.755
 8772POPC   C3B42105  11.831   3.528   7.055
 8772POPC   C4B42106  11.809   3.465   7.355
 8773POPC   NC342107  24.462  27.589   5.555
 8773POPC   PO442108  24.482  27.635   5.855
 8773POPC   GL142109  24.446  27.583   6.155
 8773POPC   GL242110  24.388  27.478   6.155
 8773POPC   C1A42111  24.538  27.578   6.455
 8773POPC   D2A42112  24.448  27.558   6.755
 8773POPC   C3A42113  24.490  27.575   7.055
 8773POPC   C4A42114  24.495  27.578   7.355
 8773POPC   C1B42115  24.279  27.477   6.455
 8773POPC   C2B42116  24.311  27.458   6.755
 8773POPC   C3B42117  24.265  27.455   7.055
 8773POPC   C4B42118  24.284  27.441   7.355
 8774POPC   NC342119   0.458  30.684   5.555
 8774POPC   PO442120   0.435  30.716   5.855
 8774POPC   GL142121   0.421  30.694   6.155
 8774POPC   GL242122   0.409  30.760   6.155
 8774POPC   C1A42123   0.485  30.746   6.455
 8774POPC   D2A42124   0.461  30.725   6.755
 8774POPC   C3A42125   0.413  30.720   7.055
 8774POPC   C4A42126   0.477  30.654   7.355
 8774POPC   C1B42127   0.277  30.865   6.455
 8774POPC   C2B42128   0.273  30.935   6.755
 8774POPC   C3B42129   0.239  30.865   7.055
 8774POPC   C4B42130   0.297  30.872   7.355
 8775POPC   NC342131  40.048   9.722   5.555
 8775POPC   PO442132  40.018   9.778   5.855
 8775POPC   GL142133  40.036   9.770   6.155
 8775POPC   GL242134  39.951   9.666   6.155
 8775POPC   C1A42135  40.006   9.777   6.455
 8775POPC   D2A42136  40.051   9.789   6.755
 8775POPC   C3A42137  40.019   9.798   7.055
 8775POPC   C4A42138  40.007   9.725   7.355
 8775POPC   C1B42139  39.840   9.619   6.455
 8775POPC   C2B42140  39.863   9.563   6.755
 8775POPC   C3B42141  39.796   9.590   7.055
 8775POPC   C4B42142  39.819   9.607   7.355
 8776POPC   NC342143  39.959  38.485   5.555
 8776POPC   PO442144  40.056  38.494   5.855
 8776POPC   GL142145  39.979  38.414   6.155
 8776POPC   GL242146  40.073  38.340   6.155
 8776POPC   C1A42147  40.021  38.495   6.455
 8776POPC   D2A42148  40.024  38.481   6.755
 8776POPC   C3A42149  40.030  38.497   7.055
 8776POPC   C4A42150  39.959  38.474   7.355
 8776POPC   C1B42151  40.238  38.346   6.455
 8776POPC   C2B42152  40.167  38.305   6.755
 8776POPC   C3B42153  40.227  38.323   7.055
 8776POPC   C4B42154  40.232  38.326   7.355
 8777POPC   NC342155  36.108  26.827   5.555
 8777POPC   PO442156  36.105  26.792   5.855
 8777POPC   GL142157  36.088  26.789   6.155
 8777POPC   GL242158  35.986  26.817   6.155
 8777POPC   C1A42159  36.140  26.808   6.455
 8777POPC   D2A42160  36.144  26.831   6.755
 8777POPC   C3A42161  36.173  26.847   7.055
 8777POPC   C4A42162  36.105  26.858   7.355
 8777POPC   C1B42163  35.883  26.770   6.455
 8777POPC   C2B42164  35.858  26.679   6.755
 8777POPC   C3B42165  35.850  26.692   7.055
 8777POPC   C4B42166  35.933  26.743   7.355
 8778POPC   NC342167  29.954  21.409   5.555
 8778POPC   PO442168  29.880  21.353   5.855
 8778POPC   GL142169  29.940  21.370   6.155
 8778POPC   GL242170  30.009  21.497   6.155
 8778POPC   C1A42171  29.939  21.368   6.455
 8778POPC   D2A42172  29.945  21.352   6.755
 8778POPC   C3A42173  29.908  21.389   7.055
 8778POPC   C4A42174  29.882  21.366   7.355
 8778POPC   C1B42175  30.169  21.543   6.455
 8778POPC   C2B42176  30.131  21.497   6.755
 8778POPC   C3B42177  30.113  21.487   7.055
 8778POPC   C4B42178  30.171  21.524   7.355
 8779POPC   NC342179  33.795  21.432   5.555
 8779POPC   PO442180  33.780  21.357   5.855
 8779POPC   GL142181  33.769  21.402   6.155
 8779POPC   GL242182  33.898  21.364   6.155
 8779POPC   C1A42183  33.751  21.375   6.455
 8779POPC   D2A42184  33.839  21.343   6.755
 8779POPC   C3A42185  33.805  21.410   7.055
 8779POPC   C4A42186  33.846  21.366   7.355
 8779POPC   C1B42187  34.060  21.398   6.455
 8779POPC   C2B42188  34.064  21.421   6.755
 8779POPC   C3B42189  34.008  21.435   7.055
 8779POPC   C4B42190  34.032  21.377   7.355
 8780POPC   NC342191  12.831  36.865   5.555
 8780POPC   PO442192  12.896  36.887   5.855
 8780POPC   GL142193  12.878  36.886   6.155
 8780POPC   GL242194  12.866  37.037   6.155
 8780POPC   C1A42195  12.896  36.880   6.455
 8780POPC   D2A42196  12.809  36.944   6.755
 8780POPC   C3A42197  12.876  36.854   7.055
 8780POPC   C4A42198  12.852  36.898   7.355
 8780POPC   C1B42199  12.975  37.112   6.455
 8780POPC   C2B42200  12.898  37.160   6.755
 8780POPC   C3B42201  12.975  37.176   7.055
 8780POPC   C4B42202  12.934  37.171   7.355
 8781POPC   NC342203  26.084  44.704   5.555
 8781POPC   PO442204  26.028  44.631   5.855
 8781POPC   GL142205  26.053  44.655   6.155
 8781POPC   GL242206  25.928  44.555   6.155
 8781POPC   C1A42207  26.029  44.680   6.455
 8781POPC   D2A42208  26.068  44.690   6.755
 8781POPC   C3A42209  26.035  44.684   7.055
 8781POPC   C4A42210  26.055  44.702   7.355
 8781POPC   C1B42211  25.858  44.477   6.455
 8781POPC   C2B42212  25.911  44.490   6.755
 8781POPC   C3B42213  25.943  44.492   7.055
 8781POPC   C4B42214  25.875  44.504   7.355
 8782POPC   NC342215   3.580  12.864   5.555
 8782POPC   PO442216   3.510  12.826   5.855
 8782POPC   GL142217   3.591  12.883   6.155
 8782POPC   GL242218   3.586  12.779   6.155
 8782POPC   C1A42219   3.567  12.854   6.455
 8782POPC   D2A42220   3.521  12.873   6.755
 8782POPC   C3A42221   3.534  12.865   7.055
 8782POPC   C4A42222   3.560  12.886   7.355
 8782POPC   C1B42223   3.749  12.685   6.455
 8782POPC   C2B42224   3.693  12.647   6.755
 8782POPC   C3B42225   3.714  12.692   7.055
 8782POPC   C4B42226   3.762  12.658   7.355
 8783POPC   NC342227   3.492  16.750   5.555
 8783POPC   PO442228   3.510  16.721   5.855
 8783POPC   GL142229   3.494  16.710   6.155
 8783POPC   GL242230   3.449  16.652   6.155
 8783POPC   C1A42231   3.519  16.715   6.455
 8783POPC   D2A42232   3.569  16.781   6.755
 8783POPC   C3A42233   3.540  16.740   7.055
 8783POPC   C4A42234   3.587  16.757   7.355
 8783POPC   C1B42235   3.373  16.558   6.455
 8783POPC   C2B42236   3.333  16.566   6.755
 8783POPC   C3B42237   3.311  16.566   7.055
 8783POPC   C4B42238   3.407  16.538   7.355
 8784POPC   NC342239  40.012  31.441   5.555
 8784POPC   PO442240  40.023  31.444   5.855
 8784POPC   GL142241  40.019  31.447   6.155
 8784POPC   GL242242  40.127  31.409   6.155
 8784POPC   C1A42243  39.997  31.475   6.455
 8784POPC   D2A42244  40.044  31.506   6.755
 8784POPC   C3A42245  39.970  31.450   7.055
 8784POPC   C4A42246  40.043  31.472   7.355
 8784POPC   C1B42247  40.164  31.282   6.455
 8784POPC   C2B42248  40.198  31.240   6.755
 8784POPC   C3B42249  40.221  31.236   7.055
 8784POPC   C4B42250  40.222  31.297   7.355
 8785POPC   NC342251  40.786   9.001   5.555
 8785POPC   PO442252  40.762   8.946   5.855
 8785POPC   GL142253  40.830   8.958   6.155
 8785POPC   GL242254  40.857   8.861   6.155
 8785POPC   C1A42255  40.762   8.998   6.455
 8785POPC   D2A42256  40.746   8.989   6.755
 8785POPC   C3A42257  40.808   9.015   7.055
 8785POPC   C4A42258  40.758   8.994   7.355
 8785POPC   C1B42259  40.858   8.695   6.455
 8785POPC   C2B42260  40.895   8.748   6.755
 8785POPC   C3B42261  40.849   8.729   7.055
 8785POPC   C4B42262  40.915   8.722   7.355
 8786POPC   NC342263  41.580  21.378   5.555
 8786POPC   PO442264  41.575  21.392   5.855
 8786POPC   GL142265  41.577  21.412   6.155
 8786POPC   GL242266  41.548  21.481   6.155
 8786POPC   C1A42267  41.510  21.404   6.455
 8786POPC   D2A42268  41.543  21.341   6.755
 8786POPC   C3A42269  41.590  21.386   7.055
 8786POPC   C4A42270  41.581  21.407   7.355
 8786POPC   C1B42271  41.510  21.647   6.455
 8786POPC   C2B42272  41.465  21.632   6.755
 8786POPC   C3B42273  41.496  21.578   7.055
 8786POPC   C4B42274  41.505  21.660   7.355
 8787POPC   NC342275  41.569   8.210   5.555
 8787POPC   PO442276  41.573   8.240   5.855
 8787POPC   GL142277  41.599   8.231   6.155
 8787POPC   GL242278  41.671   8.084   6.155
 8787POPC   C1A42279  41.604   8.199   6.455
 8787POPC   D2A42280  41.553   8.163   6.755
 8787POPC   C3A42281  41.589   8.194   7.055
 8787POPC   C4A42282  41.570   8.150   7.355
 8787POPC   C1B42283  41.692   7.973   6.455
 8787POPC   C2B42284  41.693   7.981   6.755
 8787POPC   C3B42285  41.674   8.032   7.055
 8787POPC   C4B42286  41.703   7.967   7.355
 8788POPC   NC342287  34.551  23.668   5.555
 8788POPC   PO442288  34.624  23.751   5.855
 8788POPC   GL142289  34.606  23.746   6.155
 8788POPC   GL242290  34.580  23.636   6.155
 8788POPC   C1A42291  34.600  23.733   6.455
 8788POPC   D2A42292  34.588  23.712   6.755
 8788POPC   C3A42293  34.551  23.735   7.055
 8788POPC   C4A42294  34.532  23.669   7.355
 8788POPC   C1B42295  34.563  23.491   6.455
 8788POPC   C2B42296  34.576  23.495   6.755
 8788POPC   C3B42297  34.637  23.442   7.055
 8788POPC   C4B42298  34.609  23.473   7.355
 8789POPC   NC342299   0.474  28.370   5.555
 8789POPC   PO442300   0.429  28.368   5.855
 8789POPC   GL142301   0.447  28.330   6.155
 8789POPC   GL242302   0.513  28.395   6.155
 8789POPC   C1A42303   0.426  28.372   6.455
 8789POPC   D2A42304   0.481  28.380   6.755
 8789POPC   C3A42305   0.420  28.391   7.055
 8789POPC   C4A42306   0.407  28.414   7.355
 8789POPC   C1B42307   0.608  28.455   6.455
 8789POPC   C2B42308   0.635  28.464   6.755
 8789POPC   C3B42309   0.653  28.544   7.055
 8789POPC   C4B42310   0.603  28.502   7.355
 8790POPC   NC342311  39.216   5.113   5.555
 8790POPC   PO442312  39.245   5.051   5.855
 8790POPC   GL142313  39.263   5.047   6.155
 8790POPC   GL242314  39.167   4.928   6.155
 8790POPC   C1A42315  39.200   5.083   6.455
 8790POPC   D2A42316  39.237   5.072   6.755
 8790POPC   C3A42317  39.267   5.088   7.055
 8790POPC   C4A42318  39.262   5.076   7.355
 8790POPC   C1B42319  39.143   4.814   6.455
 8790POPC   C2B42320  39.170   4.830   6.755
 8790POPC   C3B42321  39.151   4.871   7.055
 8790POPC   C4B42322  39.155   4.819   7.355
 8791POPC   NC342323   2.726  26.839   5.555
 8791POPC   PO442324   2.758  26.820   5.855
 8791POPC   GL142325   2.752  26.792   6.155
 8791POPC   GL242326   2.733  26.919   6.155
 8791POPC   C1A42327   2.731  26.787   6.455
 8791POPC   D2A42328   2.788  26.825   6.755
 8791POPC   C3A42329   2.748  26.838   7.055
 8791POPC   C4A42330   2.784  26.863   7.355
 8791POPC   C1B42331   2.728  27.076   6.455
 8791POPC   C2B42332   2.719  27.053   6.755
 8791POPC   C3B42333   2.747  27.101   7.055
 8791POPC   C4B42334   2.790  27.100   7.355
 8792POPC   NC342335  14.368   5.836   5.555
 8792POPC   PO442336  14.410   5.902   5.855
 8792POPC   GL142337  14.408   5.908   6.155
 8792POPC   GL242338  14.490   5.956   6.155
 8792POPC   C1A42339  14.358   5.859   6.455
 8792POPC   D2A42340  14.440   5.908   6.755
 8792POPC   C3A42341  14.445   5.854   7.055
 8792POPC   C4A42342  14.428   5.900   7.355
 8792POPC   C1B42343  14.535   6.061   6.455
 8792POPC   C2B42344  14.470   6.088   6.755
 8792POPC   C3B42345  14.456   6.136   7.055
 8792POPC   C4B42346  14.446   6.107   7.355
 8793POPC   NC342347  16.745  33.063   5.555
 8793POPC   PO442348  16.684  33.069   5.855
 8793POPC   GL142349  16.682  33.053   6.155
 8793POPC   GL242350  16.601  33.065   6.155
 8793POPC   C1A42351  16.736  33.050   6.455
 8793POPC   D2A42352  16.724  32.998   6.755
 8793POPC   C3A42353  16.719  33.021   7.055
 8793POPC   C4A42354  16.738  33.025   7.355
 8793POPC   C1B42355  16.516  33.042   6.455
 8793POPC   C2B42356  16.487  33.028   6.755
 8793POPC   C3B42357  16.469  33.100   7.055
 8793POPC   C4B42358  16.488  33.057   7.355
 8794POPC   NC342359  43.096  18.325   5.555
 8794POPC   PO442360  43.137  18.234   5.855
 8794POPC   GL142361  43.121  18.315   6.155
 8794POPC   GL242362  43.019  18.264   6.155
 8794POPC   C1A42363  43.078  18.294   6.455
 8794POPC   D2A42364  43.066  18.238   6.755
 8794POPC   C3A42365  43.118  18.251   7.055
 8794POPC   C4A42366  43.069  18.264   7.355
 8794POPC   C1B42367  42.942  18.122   6.455
 8794POPC   C2B42368  42.925  18.162   6.755
 8794POPC   C3B42369  42.887  18.143   7.055
 8794POPC   C4B42370  42.936  18.174   7.355
 8795POPC   NC342371  30.741  27.625   5.555
 8795POPC   PO442372  30.676  27.640   5.855
 8795POPC   GL142373  30.741  27.633   6.155
 8795POPC   GL242374  30.792  27.734   6.155
 8795POPC   C1A42375  30.720  27.552   6.455
 8795POPC   D2A42376  30.719  27.621   6.755
 8795POPC   C3A42377  30.677  27.554   7.055
 8795POPC   C4A42378  30.685  27.566   7.355
 8795POPC   C1B42379  30.828  27.781   6.455
 8795POPC   C2B42380  30.825  27.815   6.755
 8795POPC   C3B42381  30.868  27.750   7.055
 8795POPC   C4B42382  30.907  27.790   7.355
 8796POPC   NC342383  16.765  27.587   5.555
 8796POPC   PO442384  16.703  27.556   5.855
 8796POPC   GL142385  16.761  27.563   6.155
 8796POPC   GL242386  16.739  27.510   6.155
 8796POPC   C1A42387  16.721  27.603   6.455
 8796POPC   D2A42388  16.758  27.634   6.755
 8796POPC   C3A42389  16.685  27.555   7.055
 8796POPC   C4A42390  16.683  27.614   7.355
 8796POPC   C1B42391  16.785  27.348   6.455
 8796POPC   C2B42392  16.765  27.345   6.755
 8796POPC   C3B42393  16.771  27.343   7.055
 8796POPC   C4B42394  16.846  27.402   7.355
 8797POPC   NC342395  40.043  24.489   5.555
 8797POPC   PO442396  39.966  24.469   5.855
 8797POPC   GL142397  39.974  24.460   6.155
 8797POPC   GL242398  39.944  24.397   6.155
 8797POPC   C1A42399  39.994  24.489   6.455
 8797POPC   D2A42400  40.040  24.539   6.755
 8797POPC   C3A42401  40.009  24.515   7.055
 8797POPC   C4A42402  40.029  24.497   7.355
 8797POPC   C1B42403  39.919  24.264   6.455
 8797POPC   C2B42404  39.960  24.239   6.755
 8797POPC   C3B42405  39.979  24.234   7.055
 8797POPC   C4B42406  39.915  24.221   7.355
 8798POPC   NC342407   8.991  10.510   5.555
 8798POPC   PO442408   8.955  10.546   5.855
 8798POPC   GL142409   8.963  10.491   6.155
 8798POPC   GL242410   8.902  10.384   6.155
 8798POPC   C1A42411   8.995  10.484   6.455
 8798POPC   D2A42412   8.962  10.476   6.755
 8798POPC   C3A42413   8.992  10.518   7.055
 8798POPC   C4A42414   9.007  10.533   7.355
 8798POPC   C1B42415   8.850  10.312   6.455
 8798POPC   C2B42416   8.906  10.300   6.755
 8798POPC   C3B42417   8.885  10.299   7.055
 8798POPC   C4B42418   8.852  10.277   7.355
 8799POPC   NC342419  42.286  23.751   5.555
 8799POPC   PO442420  42.323  23.677   5.855
 8799POPC   GL142421  42.336  23.672   6.155
 8799POPC   GL242422  42.385  23.545   6.155
 8799POPC   C1A42423  42.295  23.718   6.455
 8799POPC   D2A42424  42.354  23.742   6.755
 8799POPC   C3A42425  42.307  23.737   7.055
 8799POPC   C4A42426  42.372  23.675   7.355
 8799POPC   C1B42427  42.400  23.455   6.455
 8799POPC   C2B42428  42.440  23.432   6.755
 8799POPC   C3B42429  42.428  23.424   7.055
 8799POPC   C4B42430  42.384  23.472   7.355
 8800POPC   NC342431  12.822  26.797   5.555
 8800POPC   PO442432  12.872  26.811   5.855
 8800POPC   GL142433  12.883  26.799   6.155
 8800POPC   GL242434  12.963  26.806   6.155
 8800POPC   C1A42435  12.840  26.835   6.455
 8800POPC   D2A42436  12.857  26.785   6.755
 8800POPC   C3A42437  12.822  26.849   7.055
 8800POPC   C4A42438  12.860  26.789   7.355
 8800POPC   C1B42439  13.063  26.854   6.455
 8800POPC   C2B42440  13.111  26.891   6.755
 8800POPC   C3B42441  13.084  26.871   7.055
 8800POPC   C4B42442  13.070  26.915   7.355
 8801POPC   NC342443  36.122  38.442   5.555
 8801POPC   PO442444  36.161  38.408   5.855
 8801POPC   GL142445  36.157  38.410   6.155
 8801POPC   GL242446  36.131  38.366   6.155
 8801POPC   C1A42447  36.163  38.452   6.455
 8801POPC   D2A42448  36.138  38.472   6.755
 8801POPC   C3A42449  36.148  38.475   7.055
 8801POPC   C4A42450  36.145  38.413   7.355
 8801POPC   C1B42451  36.158  38.235   6.455
 8801POPC   C2B42452  36.187  38.165   6.755
 8801POPC   C3B42453  36.204  38.260   7.055
 8801POPC   C4B42454  36.161  38.171   7.355
 8802POPC   NC342455   4.290   8.229   5.555
 8802POPC   PO442456   4.294   8.202   5.855
 8802POPC   GL142457   4.328   8.158   6.155
 8802POPC   GL242458   4.431   8.250   6.155
 8802POPC   C1A42459   4.275   8.174   6.455
 8802POPC   D2A42460   4.271   8.150   6.755
 8802POPC   C3A42461   4.308   8.195   7.055
 8802POPC   C4A42462   4.337   8.172   7.355
 8802POPC   C1B42463   4.599   8.230   6.455
 8802POPC   C2B42464   4.567   8.216   6.755
 8802POPC   C3B42465   4.590   8.301   7.055
 8802POPC   C4B42466   4.515   8.241   7.355
 8803POPC   NC342467   8.188  36.173   5.555
 8803POPC   PO442468   8.217  36.119   5.855
 8803POPC   GL142469   8.175  36.087   6.155
 8803POPC   GL242470   8.104  36.086   6.155
 8803POPC   C1A42471   8.229  36.177   6.455
 8803POPC   D2A42472   8.177  36.079   6.755
 8803POPC   C3A42473   8.172  36.110   7.055
 8803POPC   C4A42474   8.245  36.143   7.355
 8803POPC   C1B42475   7.993  36.140   6.455
 8803POPC   C2B42476   7.984  36.166   6.755
 8803POPC   C3B42477   7.907  36.177   7.055
 8803POPC   C4B42478   7.919  36.125   7.355
 8804POPC   NC342479  20.571  11.334   5.555
 8804POPC   PO442480  20.583  11.306   5.855
 8804POPC   GL142481  20.632  11.340   6.155
 8804POPC   GL242482  20.524  11.207   6.155
 8804POPC   C1A42483  20.618  11.334   6.455
 8804POPC   D2A42484  20.598  11.280   6.755
 8804POPC   C3A42485  20.644  11.273   7.055
 8804POPC   C4A42486  20.659  11.332   7.355
 8804POPC   C1B42487  20.422  11.105   6.455
 8804POPC   C2B42488  20.475  11.064   6.755
 8804POPC   C3B42489  20.424  11.074   7.055
 8804POPC   C4B42490  20.481  11.070   7.355
 8805POPC   NC342491  19.027  43.096   5.555
 8805POPC   PO442492  19.026  43.085   5.855
 8805POPC   GL142493  19.077  43.135   6.155
 8805POPC   GL242494  18.978  43.127   6.155
 8805POPC   C1A42495  19.105  43.106   6.455
 8805POPC   D2A42496  19.056  43.145   6.755
 8805POPC   C3A42497  19.020  43.107   7.055
 8805POPC   C4A42498  19.092  43.071   7.355
 8805POPC   C1B42499  18.861  43.167   6.455
 8805POPC   C2B42500  18.858  43.187   6.755
 8805POPC   C3B42501  18.795  43.164   7.055
 8805POPC   C4B42502  18.806  43.230   7.355
 8806POPC   NC342503  43.878  41.514   5.555
 8806POPC   PO442504  43.916  41.597   5.855
 8806POPC   GL142505  43.873  41.583   6.155
 8806POPC   GL242506  43.997  41.627   6.155
 8806POPC   C1A42507  43.840  41.574   6.455
 8806POPC   D2A42508  43.874  41.572   6.755
 8806POPC   C3A42509  43.896  41.539   7.055
 8806POPC   C4A42510  43.855  41.522   7.355
 8806POPC   C1B42511  44.029  41.709   6.455
 8806POPC   C2B42512  44.090  41.740   6.755
 8806POPC   C3B42513  44.099  41.755   7.055
 8806POPC   C4B42514  44.100  41.763   7.355
 8807POPC   NC342515  37.657  23.727   5.555
 8807POPC   PO442516  37.685  23.716   5.855
 8807POPC   GL142517  37.692  23.726   6.155
 8807POPC   GL242518  37.552  23.801   6.155
 8807POPC   C1A42519  37.656  23.700   6.455
 8807POPC   D2A42520  37.680  23.707   6.755
 8807POPC   C3A42521  37.684  23.732   7.055
 8807POPC   C4A42522  37.638  23.716   7.355
 8807POPC   C1B42523  37.492  23.894   6.455
 8807POPC   C2B42524  37.525  23.915   6.755
 8807POPC   C3B42525  37.463  23.898   7.055
 8807POPC   C4B42526  37.475  23.873   7.355
 8808POPC   NC342527  41.510  33.015   5.555
 8808POPC   PO442528  41.587  32.981   5.855
 8808POPC   GL142529  41.544  33.069   6.155
 8808POPC   GL242530  41.699  32.925   6.155
 8808POPC   C1A42531  41.579  33.011   6.455
 8808POPC   D2A42532  41.535  33.022   6.755
 8808POPC   C3A42533  41.596  33.030   7.055
 8808POPC   C4A42534  41.592  33.056   7.355
 8808POPC   C1B42535  41.804  32.874   6.455
 8808POPC   C2B42536  41.801  32.874   6.755
 8808POPC   C3B42537  41.757  32.871   7.055
 8808POPC   C4B42538  41.736  32.849   7.355
 8809POPC   NC342539   9.745   6.691   5.555
 8809POPC   PO442540   9.767   6.596   5.855
 8809POPC   GL142541   9.781   6.651   6.155
 8809POPC   GL242542   9.629   6.754   6.155
 8809POPC   C1A42543   9.783   6.675   6.455
 8809POPC   D2A42544   9.770   6.630   6.755
 8809POPC   C3A42545   9.785   6.635   7.055
 8809POPC   C4A42546   9.724   6.605   7.355
 8809POPC   C1B42547   9.529   6.792   6.455
 8809POPC   C2B42548   9.616   6.834   6.755
 8809POPC   C3B42549   9.613   6.818   7.055
 8809POPC   C4B42550   9.583   6.857   7.355
 8810POPC   NC342551  37.635   8.227   5.555
 8810POPC   PO442552  37.637   8.154   5.855
 8810POPC   GL142553  37.646   8.149   6.155
 8810POPC   GL242554  37.735   8.318   6.155
 8810POPC   C1A42555  37.632   8.212   6.455
 8810POPC   D2A42556  37.705   8.173   6.755
 8810POPC   C3A42557  37.726   8.221   7.055
 8810POPC   C4A42558  37.632   8.221   7.355
 8810POPC   C1B42559  37.792   8.407   6.455
 8810POPC   C2B42560  37.791   8.439   6.755
 8810POPC   C3B42561  37.780   8.447   7.055
 8810POPC   C4B42562  37.870   8.442   7.355
 8811POPC   NC342563  35.355  28.369   5.555
 8811POPC   PO442564  35.383  28.387   5.855
 8811POPC   GL142565  35.359  28.392   6.155
 8811POPC   GL242566  35.379  28.533   6.155
 8811POPC   C1A42567  35.386  28.385   6.455
 8811POPC   D2A42568  35.320  28.339   6.755
 8811POPC   C3A42569  35.376  28.356   7.055
 8811POPC   C4A42570  35.362  28.350   7.355
 8811POPC   C1B42571  35.315  28.572   6.455
 8811POPC   C2B42572  35.359  28.646   6.755
 8811POPC   C3B42573  35.304  28.607   7.055
 8811POPC   C4B42574  35.274  28.584   7.355
 8812POPC   NC342575  26.033  25.264   5.555
 8812POPC   PO442576  26.007  25.290   5.855
 8812POPC   GL142577  26.060  25.315   6.155
 8812POPC   GL242578  26.047  25.404   6.155
 8812POPC   C1A42579  26.080  25.245   6.455
 8812POPC   D2A42580  26.012  25.286   6.755
 8812POPC   C3A42581  26.018  25.244   7.055
 8812POPC   C4A42582  26.005  25.252   7.355
 8812POPC   C1B42583  25.919  25.524   6.455
 8812POPC   C2B42584  25.937  25.529   6.755
 8812POPC   C3B42585  26.004  25.498   7.055
 8812POPC   C4B42586  25.984  25.461   7.355
 8813POPC   NC342587  43.139   6.649   5.555
 8813POPC   PO442588  43.101   6.604   5.855
 8813POPC   GL142589  43.071   6.600   6.155
 8813POPC   GL242590  43.212   6.600   6.155
 8813POPC   C1A42591  43.153   6.666   6.455
 8813POPC   D2A42592  43.148   6.641   6.755
 8813POPC   C3A42593  43.121   6.643   7.055
 8813POPC   C4A42594  43.154   6.668   7.355
 8813POPC   C1B42595  43.341   6.479   6.455
 8813POPC   C2B42596  43.307   6.535   6.755
 8813POPC   C3B42597  43.366   6.493   7.055
 8813POPC   C4B42598  43.304   6.497   7.355
 8814POPC   NC342599  39.276  28.363   5.555
 8814POPC   PO442600  39.198  28.381   5.855
 8814POPC   GL142601  39.265  28.358   6.155
 8814POPC   GL242602  39.281  28.525   6.155
 8814POPC   C1A42603  39.201  28.327   6.455
 8814POPC   D2A42604  39.271  28.323   6.755
 8814POPC   C3A42605  39.228  28.376   7.055
 8814POPC   C4A42606  39.212  28.409   7.355
 8814POPC   C1B42607  39.334  28.558   6.455
 8814POPC   C2B42608  39.348  28.605   6.755
 8814POPC   C3B42609  39.335  28.559   7.055
 8814POPC   C4B42610  39.321  28.581   7.355
 8815POPC   NC342611  37.729   4.363   5.555
 8815POPC   PO442612  37.710   4.350   5.855
 8815POPC   GL142613  37.702   4.304   6.155
 8815POPC   GL242614  37.682   4.479   6.155
 8815POPC   C1A42615  37.635   4.338   6.455
 8815POPC   D2A42616  37.715   4.292   6.755
 8815POPC   C3A42617  37.631   4.326   7.055
 8815POPC   C4A42618  37.658   4.316   7.355
 8815POPC   C1B42619  37.748   4.538   6.455
 8815POPC   C2B42620  37.757   4.598   6.755
 8815POPC   C3B42621  37.697   4.563   7.055
 8815POPC   C4B42622  37.731   4.555   7.355
 8816POPC   NC342623   3.581  35.308   5.555
 8816POPC   PO442624   3.533  35.335   5.855
 8816POPC   GL142625   3.531  35.398   6.155
 8816POPC   GL242626   3.614  35.270   6.155
 8816POPC   C1A42627   3.574  35.348   6.455
 8816POPC   D2A42628   3.585  35.342   6.755
 8816POPC   C3A42629   3.589  35.316   7.055
 8816POPC   C4A42630   3.586  35.364   7.355
 8816POPC   C1B42631   3.805  35.198   6.455
 8816POPC   C2B42632   3.786  35.243   6.755
 8816POPC   C3B42633   3.796  35.192   7.055
 8816POPC   C4B42634   3.718  35.221   7.355
 8817POPC   NC342635   3.530  11.279   5.555
 8817POPC   PO442636   3.527  11.310   5.855
 8817POPC   GL142637   3.573  11.334   6.155
 8817POPC   GL242638   3.402  11.380   6.155
 8817POPC   C1A42639   3.559  11.330   6.455
 8817POPC   D2A42640   3.505  11.258   6.755
 8817POPC   C3A42641   3.524  11.349   7.055
 8817POPC   C4A42642   3.533  11.319   7.355
 8817POPC   C1B42643   3.312  11.387   6.455
 8817POPC   C2B42644   3.269  11.445   6.755
 8817POPC   C3B42645   3.341  11.381   7.055
 8817POPC   C4B42646   3.330  11.441   7.355
 8818POPC   NC342647  25.288   1.196   5.555
 8818POPC   PO442648  25.252   1.201   5.855
 8818POPC   GL142649  25.239   1.209   6.155
 8818POPC   GL242650  25.161   1.141   6.155
 8818POPC   C1A42651  25.233   1.209   6.455
 8818POPC   D2A42652  25.271   1.202   6.755
 8818POPC   C3A42653  25.276   1.218   7.055
 8818POPC   C4A42654  25.233   1.218   7.355
 8818POPC   C1B42655  25.017   1.130   6.455
 8818POPC   C2B42656  25.046   1.175   6.755
 8818POPC   C3B42657  25.034   1.100   7.055
 8818POPC   C4B42658  25.003   1.153   7.355
 8819POPC   NC342659  38.463  22.113   5.555
 8819POPC   PO442660  38.415  22.178   5.855
 8819POPC   GL142661  38.419  22.168   6.155
 8819POPC   GL242662  38.564  22.202   6.155
 8819POPC   C1A42663  38.504  22.155   6.455
 8819POPC   D2A42664  38.503  22.164   6.755
 8819POPC   C3A42665  38.496  22.119   7.055
 8819POPC   C4A42666  38.491  22.147   7.355
 8819POPC   C1B42667  38.702  22.151   6.455
 8819POPC   C2B42668  38.715  22.184   6.755
 8819POPC   C3B42669  38.695  22.217   7.055
 8819POPC   C4B42670  38.706  22.179   7.355
 8820POPC   NC342671   5.112  23.677   5.555
 8820POPC   PO442672   5.045  23.757   5.855
 8820POPC   GL142673   5.083  23.696   6.155
 8820POPC   GL242674   4.967  23.751   6.155
 8820POPC   C1A42675   5.072  23.741   6.455
 8820POPC   D2A42676   5.085  23.727   6.755
 8820POPC   C3A42677   5.103  23.742   7.055
 8820POPC   C4A42678   5.086  23.674   7.355
 8820POPC   C1B42679   4.859  23.784   6.455
 8820POPC   C2B42680   4.850  23.721   6.755
 8820POPC   C3B42681   4.877  23.787   7.055
 8820POPC   C4B42682   4.886  23.705   7.355
 8821POPC   NC342683  43.875   7.439   5.555
 8821POPC   PO442684  43.920   7.460   5.855
 8821POPC   GL142685  43.885   7.400   6.155
 8821POPC   GL242686  43.797   7.478   6.155
 8821POPC   C1A42687  43.881   7.448   6.455
 8821POPC   D2A42688  43.926   7.463   6.755
 8821POPC   C3A42689  43.899   7.463   7.055
 8821POPC   C4A42690  43.889   7.432   7.355
 8821POPC   C1B42691  43.641   7.494   6.455
 8821POPC   C2B42692  43.612   7.420   6.755
 8821POPC   C3B42693  43.641   7.431   7.055
 8821POPC   C4B42694  43.645   7.452   7.355
 8822POPC   NC342695  36.128   2.775   5.555
 8822POPC   PO442696  36.153   2.772   5.855
 8822POPC   GL142697  36.156   2.727   6.155
 8822POPC   GL242698  36.024   2.681   6.155
 8822POPC   C1A42699  36.095   2.745   6.455
 8822POPC   D2A42700  36.164   2.725   6.755
 8822POPC   C3A42701  36.131   2.751   7.055
 8822POPC   C4A42702  36.174   2.768   7.355
 8822POPC   C1B42703  36.027   2.555   6.455
 8822POPC   C2B42704  35.961   2.536   6.755
 8822POPC   C3B42705  35.964   2.578   7.055
 8822POPC   C4B42706  35.991   2.536   7.355
 8823POPC   NC342707  31.462  27.642   5.555
 8823POPC   PO442708  31.427  27.634   5.855
 8823POPC   GL142709  31.472  27.614   6.155
 8823POPC   GL242710  31.595  27.586   6.155
 8823POPC   C1A42711  31.485  27.564   6.455
 8823POPC   D2A42712  31.480  27.565   6.755
 8823POPC   C3A42713  31.456  27.600   7.055
 8823POPC   C4A42714  31.492  27.550   7.355
 8823POPC   C1B42715  31.678  27.495   6.455
 8823POPC   C2B42716  31.750  27.529   6.755
 8823POPC   C3B42717  31.709  27.496   7.055
 8823POPC   C4B42718  31.708  27.498   7.355
 8824POPC   NC342719   2.716  40.008   5.555
 8824POPC   PO442720   2.748  39.958   5.855
 8824POPC   GL142721   2.810  40.057   6.155
 8824POPC   GL242722   2.732  39.894   6.155
 8824POPC   C1A42723   2.786  40.011   6.455
 8824POPC   D2A42724   2.813  39.965   6.755
 8824POPC   C3A42725   2.786  40.038   7.055
 8824POPC   C4A42726   2.744  40.049   7.355
 8824POPC   C1B42727   2.806  39.745   6.455
 8824POPC   C2B42728   2.828  39.736   6.755
 8824POPC   C3B42729   2.822  39.806   7.055
 8824POPC   C4B42730   2.795  39.739   7.355
 8825POPC   NC342731   7.404  16.737   5.555
 8825POPC   PO442732   7.464  16.781   5.855
 8825POPC   GL142733   7.387  16.704   6.155
 8825POPC   GL242734   7.441  16.864   6.155
 8825POPC   C1A42735   7.445  16.722   6.455
 8825POPC   D2A42736   7.405  16.738   6.755
 8825POPC   C3A42737   7.467  16.780   7.055
 8825POPC   C4A42738   7.380  16.695   7.355
 8825POPC   C1B42739   7.401  16.952   6.455
 8825POPC   C2B42740   7.413  16.971   6.755
 8825POPC   C3B42741   7.330  16.959   7.055
 8825POPC   C4B42742   7.386  16.950   7.355
 8826POPC   NC342743   8.177  40.787   5.555
 8826POPC   PO442744   8.242  40.831   5.855
 8826POPC   GL142745   8.195  40.797   6.155
 8826POPC   GL242746   8.122  40.853   6.155
 8826POPC   C1A42747   8.154  40.790   6.455
 8826POPC   D2A42748   8.185  40.735   6.755
 8826POPC   C3A42749   8.151  40.759   7.055
 8826POPC   C4A42750   8.201  40.752   7.355
 8826POPC   C1B42751   7.962  40.893   6.455
 8826POPC   C2B42752   7.966  40.846   6.755
 8826POPC   C3B42753   7.989  40.842   7.055
 8826POPC   C4B42754   7.951  40.842   7.355
 8827POPC   NC342755  26.006  43.144   5.555
 8827POPC   PO442756  26.046  43.075   5.855
 8827POPC   GL142757  26.011  43.124   6.155
 8827POPC   GL242758  26.163  43.018   6.155
 8827POPC   C1A42759  26.088  43.067   6.455
 8827POPC   D2A42760  26.088  43.102   6.755
 8827POPC   C3A42761  26.041  43.138   7.055
 8827POPC   C4A42762  26.080  43.069   7.355
 8827POPC   C1B42763  26.240  42.943   6.455
 8827POPC   C2B42764  26.180  42.902   6.755
 8827POPC   C3B42765  26.223  42.962   7.055
 8827POPC   C4B42766  26.223  42.967   7.355
 8828POPC   NC342767  27.598  26.858   5.555
 8828POPC   PO442768  27.619  26.803   5.855
 8828POPC   GL142769  27.632  26.770   6.155
 8828POPC   GL242770  27.715  26.879   6.155
 8828POPC   C1A42771  27.574  26.827   6.455
 8828POPC   D2A42772  27.587  26.797   6.755
 8828POPC   C3A42773  27.556  26.790   7.055
 8828POPC   C4A42774  27.576  26.836   7.355
 8828POPC   C1B42775  27.850  26.936   6.455
 8828POPC   C2B42776  27.847  26.930   6.755
 8828POPC   C3B42777  27.830  26.984   7.055
 8828POPC   C4B42778  27.766  26.897   7.355
 8829POPC   NC342779  22.161  37.680   5.555
 8829POPC   PO442780  22.179  37.664   5.855
 8829POPC   GL142781  22.124  37.706   6.155
 8829POPC   GL242782  22.080  37.770   6.155
 8829POPC   C1A42783  22.119  37.722   6.455
 8829POPC   D2A42784  22.174  37.668   6.755
 8829POPC   C3A42785  22.149  37.715   7.055
 8829POPC   C4A42786  22.154  37.639   7.355
 8829POPC   C1B42787  22.102  37.945   6.455
 8829POPC   C2B42788  22.062  37.921   6.755
 8829POPC   C3B42789  22.032  37.912   7.055
 8829POPC   C4B42790  22.036  37.876   7.355
 8830POPC   NC342791  13.585   8.929   5.555
 8830POPC   PO442792  13.602   9.017   5.855
 8830POPC   GL142793  13.657   8.980   6.155
 8830POPC   GL242794  13.607   8.855   6.155
 8830POPC   C1A42795  13.578   9.010   6.455
 8830POPC   D2A42796  13.628   9.015   6.755
 8830POPC   C3A42797  13.645   8.941   7.055
 8830POPC   C4A42798  13.657   8.991   7.355
 8830POPC   C1B42799  13.586   8.784   6.455
 8830POPC   C2B42800  13.550   8.718   6.755
 8830POPC   C3B42801  13.570   8.732   7.055
 8830POPC   C4B42802  13.505   8.739   7.355
 8831POPC   NC342803  13.616  29.100   5.555
 8831POPC   PO442804  13.648  29.163   5.855
 8831POPC   GL142805  13.627  29.187   6.155
 8831POPC   GL242806  13.561  29.244   6.155
 8831POPC   C1A42807  13.644  29.181   6.455
 8831POPC   D2A42808  13.618  29.172   6.755
 8831POPC   C3A42809  13.581  29.165   7.055
 8831POPC   C4A42810  13.656  29.164   7.355
 8831POPC   C1B42811  13.432  29.299   6.455
 8831POPC   C2B42812  13.468  29.378   6.755
 8831POPC   C3B42813  13.483  29.335   7.055
 8831POPC   C4B42814  13.473  29.295   7.355
 8832POPC   NC342815  21.412  38.420   5.555
 8832POPC   PO442816  21.368  38.494   5.855
 8832POPC   GL142817  21.357  38.456   6.155
 8832POPC   GL242818  21.479  38.516   6.155
 8832POPC   C1A42819  21.342  38.469   6.455
 8832POPC   D2A42820  21.416  38.423   6.755
 8832POPC   C3A42821  21.400  38.441   7.055
 8832POPC   C4A42822  21.436  38.414   7.355
 8832POPC   C1B42823  21.670  38.512   6.455
 8832POPC   C2B42824  21.607  38.484   6.755
 8832POPC   C3B42825  21.655  38.546   7.055
 8832POPC   C4B42826  21.671  38.504   7.355
 8833POPC   NC342827  31.467  29.872   5.555
 8833POPC   PO442828  31.521  29.955   5.855
 8833POPC   GL142829  31.484  29.947   6.155
 8833POPC   GL242830  31.521  30.000   6.155
 8833POPC   C1A42831  31.448  29.871   6.455
 8833POPC   D2A42832  31.449  29.890   6.755
 8833POPC   C3A42833  31.487  29.940   7.055
 8833POPC   C4A42834  31.472  29.956   7.355
 8833POPC   C1B42835  31.703  30.040   6.455
 8833POPC   C2B42836  31.610  30.122   6.755
 8833POPC   C3B42837  31.702  30.100   7.055
 8833POPC   C4B42838  31.663  30.042   7.355
 8834POPC   NC342839  26.775  17.540   5.555
 8834POPC   PO442840  26.850  17.535   5.855
 8834POPC   GL142841  26.816  17.528   6.155
 8834POPC   GL242842  26.919  17.554   6.155
 8834POPC   C1A42843  26.857  17.535   6.455
 8834POPC   D2A42844  26.857  17.473   6.755
 8834POPC   C3A42845  26.825  17.527   7.055
 8834POPC   C4A42846  26.827  17.532   7.355
 8834POPC   C1B42847  27.100  17.591   6.455
 8834POPC   C2B42848  27.097  17.547   6.755
 8834POPC   C3B42849  27.096  17.571   7.055
 8834POPC   C4B42850  27.089  17.577   7.355
 8835POPC   NC342851  11.268   3.537   5.555
 8835POPC   PO442852  11.326   3.587   5.855
 8835POPC   GL142853  11.251   3.582   6.155
 8835POPC   GL242854  11.196   3.479   6.155
 8835POPC   C1A42855  11.293   3.528   6.455
 8835POPC   D2A42856  11.321   3.540   6.755
 8835POPC   C3A42857  11.313   3.526   7.055
 8835POPC   C4A42858  11.279   3.517   7.355
 8835POPC   C1B42859  11.098   3.392   6.455
 8835POPC   C2B42860  11.069   3.360   6.755
 8835POPC   C3B42861  11.056   3.430   7.055
 8835POPC   C4B42862  11.106   3.423   7.355
 8836POPC   NC342863  43.148  31.492   5.555
 8836POPC   PO442864  43.066  31.468   5.855
 8836POPC   GL142865  43.095  31.515   6.155
 8836POPC   GL242866  43.120  31.355   6.155
 8836POPC   C1A42867  43.160  31.487   6.455
 8836POPC   D2A42868  43.098  31.428   6.755
 8836POPC   C3A42869  43.102  31.491   7.055
 8836POPC   C4A42870  43.060  31.455   7.355
 8836POPC   C1B42871  43.234  31.292   6.455
 8836POPC   C2B42872  43.208  31.209   6.755
 8836POPC   C3B42873  43.242  31.216   7.055
 8836POPC   C4B42874  43.269  31.299   7.355
 8837POPC   NC342875  12.825  19.094   5.555
 8837POPC   PO442876  12.837  19.047   5.855
 8837POPC   GL142877  12.879  19.037   6.155
 8837POPC   GL242878  12.984  19.144   6.155
 8837POPC   C1A42879  12.851  19.040   6.455
 8837POPC   D2A42880  12.890  19.016   6.755
 8837POPC   C3A42881  12.806  19.087   7.055
 8837POPC   C4A42882  12.872  19.047   7.355
 8837POPC   C1B42883  13.063  19.208   6.455
 8837POPC   C2B42884  13.028  19.217   6.755
 8837POPC   C3B42885  12.995  19.232   7.055
 8837POPC   C4B42886  13.016  19.244   7.355
 8838POPC   NC342887  19.826   5.049   5.555
 8838POPC   PO442888  19.836   5.099   5.855
 8838POPC   GL142889  19.859   5.046   6.155
 8838POPC   GL242890  19.778   5.013   6.155
 8838POPC   C1A42891  19.867   5.078   6.455
 8838POPC   D2A42892  19.883   5.079   6.755
 8838POPC   C3A42893  19.857   5.069   7.055
 8838POPC   C4A42894  19.819   5.114   7.355
 8838POPC   C1B42895  19.696   4.868   6.455
 8838POPC   C2B42896  19.725   4.875   6.755
 8838POPC   C3B42897  19.718   4.873   7.055
 8838POPC   C4B42898  19.727   4.926   7.355
 8839POPC   NC342899   6.643   9.734   5.555
 8839POPC   PO442900   6.693   9.710   5.855
 8839POPC   GL142901   6.633   9.702   6.155
 8839POPC   GL242902   6.791   9.838   6.155
 8839POPC   C1A42903   6.600   9.733   6.455
 8839POPC   D2A42904   6.677   9.717   6.755
 8839POPC   C3A42905   6.669   9.790   7.055
 8839POPC   C4A42906   6.638   9.773   7.355
 8839POPC   C1B42907   6.920   9.804   6.455
 8839POPC   C2B42908   6.854   9.812   6.755
 8839POPC   C3B42909   6.827   9.854   7.055
 8839POPC   C4B42910   6.863   9.858   7.355
 8840POPC   NC342911  19.860  30.734   5.555
 8840POPC   PO442912  19.789  30.714   5.855
 8840POPC   GL142913  19.841  30.652   6.155
 8840POPC   GL242914  19.798  30.820   6.155
 8840POPC   C1A42915  19.794  30.718   6.455
 8840POPC   D2A42916  19.855  30.697   6.755
 8840POPC   C3A42917  19.819  30.712   7.055
 8840POPC   C4A42918  19.847  30.695   7.355
 8840POPC   C1B42919  19.727  30.927   6.455
 8840POPC   C2B42920  19.731  30.896   6.755
 8840POPC   C3B42921  19.752  30.928   7.055
 8840POPC   C4B42922  19.772  30.919   7.355
 8841POPC   NC342923  44.655  22.942   5.555
 8841POPC   PO442924  44.671  22.936   5.855
 8841POPC   GL142925  44.687  22.897   6.155
 8841POPC   GL242926  44.612  22.811   6.155
 8841POPC   C1A42927  44.627  22.928   6.455
 8841POPC   D2A42928  44.623  22.912   6.755
 8841POPC   C3A42929  44.693  22.917   7.055
 8841POPC   C4A42930  44.661  22.919   7.355
 8841POPC   C1B42931  44.511  22.781   6.455
 8841POPC   C2B42932  44.555  22.723   6.755
 8841POPC   C3B42933  44.548  22.729   7.055
 8841POPC   C4B42934  44.550  22.766   7.355
 8842POPC   NC342935  26.090   4.303   5.555
 8842POPC   PO442936  26.029   4.269   5.855
 8842POPC   GL142937  26.087   4.308   6.155
 8842POPC   GL242938  26.205   4.319   6.155
 8842POPC   C1A42939  26.070   4.275   6.455
 8842POPC   D2A42940  26.032   4.270   6.755
 8842POPC   C3A42941  26.088   4.282   7.055
 8842POPC   C4A42942  26.078   4.332   7.355
 8842POPC   C1B42943  26.324   4.381   6.455
 8842POPC   C2B42944  26.309   4.324   6.755
 8842POPC   C3B42945  26.310   4.349   7.055
 8842POPC   C4B42946  26.307   4.348   7.355
 8843POPC   NC342947  12.874  26.002   5.555
 8843POPC   PO442948  12.880  26.069   5.855
 8843POPC   GL142949  12.817  26.080   6.155
 8843POPC   GL242950  12.958  26.065   6.155
 8843POPC   C1A42951  12.884  26.090   6.455
 8843POPC   D2A42952  12.821  26.008   6.755
 8843POPC   C3A42953  12.899  26.004   7.055
 8843POPC   C4A42954  12.812  26.080   7.355
 8843POPC   C1B42955  13.097  26.194   6.455
 8843POPC   C2B42956  13.021  26.168   6.755
 8843POPC   C3B42957  13.101  26.175   7.055
 8843POPC   C4B42958  13.028  26.208   7.355
 8844POPC   NC342959  24.506  29.926   5.555
 8844POPC   PO442960  24.532  29.966   5.855
 8844POPC   GL142961  24.486  29.900   6.155
 8844POPC   GL242962  24.609  29.887   6.155
 8844POPC   C1A42963  24.478  29.904   6.455
 8844POPC   D2A42964  24.441  29.969   6.755
 8844POPC   C3A42965  24.441  29.930   7.055
 8844POPC   C4A42966  24.523  29.882   7.355
 8844POPC   C1B42967  24.737  29.751   6.455
 8844POPC   C2B42968  24.702  29.768   6.755
 8844POPC   C3B42969  24.681  29.783   7.055
 8844POPC   C4B42970  24.676  29.792   7.355
 8845POPC   NC342971   1.204  35.337   5.555
 8845POPC   PO442972   1.251  35.328   5.855
 8845POPC   GL142973   1.181  35.387   6.155
 8845POPC   GL242974   1.067  35.289   6.155
 8845POPC   C1A42975   1.231  35.320   6.455
 8845POPC   D2A42976   1.237  35.385   6.755
 8845POPC   C3A42977   1.245  35.368   7.055
 8845POPC   C4A42978   1.251  35.312   7.355
 8845POPC   C1B42979   0.991  35.154   6.455
 8845POPC   C2B42980   1.032  35.226   6.755
 8845POPC   C3B42981   0.991  35.209   7.055
 8845POPC   C4B42982   0.992  35.187   7.355
 8846POPC   NC342983  31.514  10.517   5.555
 8846POPC   PO442984  31.460  10.558   5.855
 8846POPC   GL142985  31.517  10.518   6.155
 8846POPC   GL242986  31.488  10.387   6.155
 8846POPC   C1A42987  31.440  10.497   6.455
 8846POPC   D2A42988  31.501  10.493   6.755
 8846POPC   C3A42989  31.474  10.491   7.055
 8846POPC   C4A42990  31.480  10.557   7.355
 8846POPC   C1B42991  31.366  10.280   6.455
 8846POPC   C2B42992  31.390  10.263   6.755
 8846POPC   C3B42993  31.412  10.299   7.055
 8846POPC   C4B42994  31.452  10.282   7.355
 8847POPC   NC342995  17.505   2.802   5.555
 8847POPC   PO442996  17.475   2.733   5.855
 8847POPC   GL142997  17.458   2.725   6.155
 8847POPC   GL242998  17.365   2.671   6.155
 8847POPC   C1A42999  17.510   2.777   6.455
 8847POPC   D2A43000  17.491   2.746   6.755
 8847POPC   C3A43001  17.552   2.757   7.055
 8847POPC   C4A43002  17.461   2.767   7.355
 8847POPC   C1B43003  17.275   2.659   6.455
 8847POPC   C2B43004  17.326   2.593   6.755
 8847POPC   C3B43005  17.287   2.645   7.055
 8847POPC   C4B43006  17.346   2.611   7.355
 8848POPC   NC343007  38.418   9.704   5.555
 8848POPC   PO443008  38.439   9.780   5.855
 8848POPC   GL143009  38.483   9.727   6.155
 8848POPC   GL243010  38.569   9.763   6.155
 8848POPC   C1A43011  38.409   9.713   6.455
 8848POPC   D2A43012  38.497   9.740   6.755
 8848POPC   C3A43013  38.450   9.699   7.055
 8848POPC   C4A43014  38.475   9.746   7.355
 8848POPC   C1B43015  38.733   9.762   6.455
 8848POPC   C2B43016  38.660   9.753   6.755
 8848POPC   C3B43017  38.720   9.794   7.055
 8848POPC   C4B43018  38.715   9.751   7.355
 8849POPC   NC343019  15.969  43.914   5.555
 8849POPC   PO443020  15.966  43.837   5.855
 8849POPC   GL143021  15.936  43.876   6.155
 8849POPC   GL243022  15.811  43.874   6.155
 8849POPC   C1A43023  15.932  43.840   6.455
 8849POPC   D2A43024  15.932  43.909   6.755
 8849POPC   C3A43025  15.949  43.847   7.055
 8849POPC   C4A43026  15.967  43.867   7.355
 8849POPC   C1B43027  15.720  43.838   6.455
 8849POPC   C2B43028  15.707  43.786   6.755
 8849POPC   C3B43029  15.700  43.803   7.055
 8849POPC   C4B43030  15.681  43.822   7.355
 8850POPC   NC343031   2.777   3.530   5.555
 8850POPC   PO443032   2.746   3.570   5.855
 8850POPC   GL143033   2.802   3.542   6.155
 8850POPC   GL243034   2.678   3.515   6.155
 8850POPC   C1A43035   2.762   3.569   6.455
 8850POPC   D2A43036   2.768   3.589   6.755
 8850POPC   C3A43037   2.753   3.513   7.055
 8850POPC   C4A43038   2.772   3.494   7.355
 8850POPC   C1B43039   2.545   3.514   6.455
 8850POPC   C2B43040   2.535   3.513   6.755
 8850POPC   C3B43041   2.500   3.483   7.055
 8850POPC   C4B43042   2.479   3.430   7.355
 8851POPC   NC343043  40.779  38.425   5.555
 8851POPC   PO443044  40.804  38.417   5.855
 8851POPC   GL143045  40.735  38.498   6.155
 8851POPC   GL243046  40.745  38.319   6.155
 8851POPC   C1A43047  40.779  38.412   6.455
 8851POPC   D2A43048  40.826  38.467   6.755
 8851POPC   C3A43049  40.748  38.489   7.055
 8851POPC   C4A43050  40.760  38.430   7.355
 8851POPC   C1B43051  40.722  38.164   6.455
 8851POPC   C2B43052  40.721  38.238   6.755
 8851POPC   C3B43053  40.699  38.159   7.055
 8851POPC   C4B43054  40.777  38.174   7.355
 8852POPC   NC343055  23.666  31.433   5.555
 8852POPC   PO443056  23.734  31.437   5.855
 8852POPC   GL143057  23.678  31.480   6.155
 8852POPC   GL243058  23.802  31.606   6.155
 8852POPC   C1A43059  23.695  31.430   6.455
 8852POPC   D2A43060  23.676  31.431   6.755
 8852POPC   C3A43061  23.735  31.455   7.055
 8852POPC   C4A43062  23.724  31.447   7.355
 8852POPC   C1B43063  23.919  31.661   6.455
 8852POPC   C2B43064  23.861  31.703   6.755
 8852POPC   C3B43065  23.870  31.611   7.055
 8852POPC   C4B43066  23.872  31.687   7.355
 8853POPC   NC343067  27.568  29.913   5.555
 8853POPC   PO443068  27.608  29.873   5.855
 8853POPC   GL143069  27.604  29.930   6.155
 8853POPC   GL243070  27.539  29.879   6.155
 8853POPC   C1A43071  27.633  29.922   6.455
 8853POPC   D2A43072  27.622  29.927   6.755
 8853POPC   C3A43073  27.625  29.916   7.055
 8853POPC   C4A43074  27.546  29.956   7.355
 8853POPC   C1B43075  27.406  29.819   6.455
 8853POPC   C2B43076  27.388  29.761   6.755
 8853POPC   C3B43077  27.353  29.737   7.055
 8853POPC   C4B43078  27.382  29.794   7.355
 8854POPC   NC343079   5.111  26.043   5.555
 8854POPC   PO443080   5.050  26.076   5.855
 8854POPC   GL143081   5.054  26.044   6.155
 8854POPC   GL243082   4.996  25.967   6.155
 8854POPC   C1A43083   5.105  25.999   6.455
 8854POPC   D2A43084   5.068  26.072   6.755
 8854POPC   C3A43085   5.065  26.072   7.055
 8854POPC   C4A43086   5.109  26.075   7.355
 8854POPC   C1B43087   4.848  25.931   6.455
 8854POPC   C2B43088   4.875  25.912   6.755
 8854POPC   C3B43089   4.840  25.988   7.055
 8854POPC   C4B43090   4.856  25.904   7.355
 8855POPC   NC343091  11.274  43.871   5.555
 8855POPC   PO443092  11.283  43.839   5.855
 8855POPC   GL143093  11.295  43.909   6.155
 8855POPC   GL243094  11.258  44.015   6.155
 8855POPC   C1A43095  11.295  43.928   6.455
 8855POPC   D2A43096  11.292  43.881   6.755
 8855POPC   C3A43097  11.298  43.867   7.055
 8855POPC   C4A43098  11.252  43.889   7.355
 8855POPC   C1B43099  11.330  44.124   6.455
 8855POPC   C2B43100  11.283  44.165   6.755
 8855POPC   C3B43101  11.325  44.157   7.055
 8855POPC   C4B43102  11.299  44.137   7.355
 8856POPC   NC343103   7.419   6.601   5.555
 8856POPC   PO443104   7.447   6.652   5.855
 8856POPC   GL143105   7.469   6.670   6.155
 8856POPC   GL243106   7.407   6.530   6.155
 8856POPC   C1A43107   7.438   6.615   6.455
 8856POPC   D2A43108   7.428   6.609   6.755
 8856POPC   C3A43109   7.415   6.649   7.055
 8856POPC   C4A43110   7.387   6.666   7.355
 8856POPC   C1B43111   7.289   6.439   6.455
 8856POPC   C2B43112   7.365   6.410   6.755
 8856POPC   C3B43113   7.332   6.462   7.055
 8856POPC   C4B43114   7.310   6.381   7.355
 8857POPC   NC343115  26.089  33.074   5.555
 8857POPC   PO443116  26.080  33.005   5.855
 8857POPC   GL143117  26.083  33.004   6.155
 8857POPC   GL243118  26.190  33.105   6.155
 8857POPC   C1A43119  26.056  33.049   6.455
 8857POPC   D2A43120  25.993  32.993   6.755
 8857POPC   C3A43121  26.068  33.039   7.055
 8857POPC   C4A43122  26.030  33.051   7.355
 8857POPC   C1B43123  26.274  33.125   6.455
 8857POPC   C2B43124  26.272  33.174   6.755
 8857POPC   C3B43125  26.279  33.213   7.055
 8857POPC   C4B43126  26.236  33.141   7.355
 8858POPC   NC343127  22.949   2.751   5.555
 8858POPC   PO443128  22.945   2.806   5.855
 8858POPC   GL143129  22.936   2.721   6.155
 8858POPC   GL243130  22.955   2.666   6.155
 8858POPC   C1A43131  22.963   2.766   6.455
 8858POPC   D2A43132  22.935   2.746   6.755
 8858POPC   C3A43133  22.979   2.729   7.055
 8858POPC   C4A43134  22.906   2.802   7.355
 8858POPC   C1B43135  23.003   2.518   6.455
 8858POPC   C2B43136  22.985   2.491   6.755
 8858POPC   C3B43137  22.999   2.481   7.055
 8858POPC   C4B43138  23.001   2.517   7.355
 8859POPC   NC343139   5.098  16.771   5.555
 8859POPC   PO443140   5.082  16.700   5.855
 8859POPC   GL143141   5.092  16.710   6.155
 8859POPC   GL243142   4.952  16.760   6.155
 8859POPC   C1A43143   5.069  16.751   6.455
 8859POPC   D2A43144   5.062  16.704   6.755
 8859POPC   C3A43145   5.108  16.763   7.055
 8859POPC   C4A43146   5.125  16.745   7.355
 8859POPC   C1B43147   4.811  16.783   6.455
 8859POPC   C2B43148   4.803  16.810   6.755
 8859POPC   C3B43149   4.871  16.769   7.055
 8859POPC   C4B43150   4.850  16.837   7.355
 8860POPC   NC343151  41.590   8.939   5.555
 8860POPC   PO443152  41.533   9.022   5.855
 8860POPC   GL143153  41.525   8.984   6.155
 8860POPC   GL243154  41.575   9.058   6.155
 8860POPC   C1A43155  41.564   8.944   6.455
 8860POPC   D2A43156  41.561   8.990   6.755
 8860POPC   C3A43157  41.551   9.021   7.055
 8860POPC   C4A43158  41.551   8.944   7.355
 8860POPC   C1B43159  41.555   9.196   6.455
 8860POPC   C2B43160  41.532   9.238   6.755
 8860POPC   C3B43161  41.552   9.218   7.055
 8860POPC   C4B43162  41.462   9.228   7.355
 8861POPC   NC343163  24.466  16.713   5.555
 8861POPC   PO443164  24.453  16.769   5.855
 8861POPC   GL143165  24.445  16.688   6.155
 8861POPC   GL243166  24.645  16.768   6.155
 8861POPC   C1A43167  24.441  16.714   6.455
 8861POPC   D2A43168  24.464  16.759   6.755
 8861POPC   C3A43169  24.491  16.720   7.055
 8861POPC   C4A43170  24.497  16.733   7.355
 8861POPC   C1B43171  24.748  16.788   6.455
 8861POPC   C2B43172  24.696  16.768   6.755
 8861POPC   C3B43173  24.732  16.763   7.055
 8861POPC   C4B43174  24.734  16.731   7.355
 8862POPC   NC343175  20.611  16.753   5.555
 8862POPC   PO443176  20.635  16.766   5.855
 8862POPC   GL143177  20.621  16.722   6.155
 8862POPC   GL243178  20.709  16.637   6.155
 8862POPC   C1A43179  20.561  16.760   6.455
 8862POPC   D2A43180  20.607  16.719   6.755
 8862POPC   C3A43181  20.580  16.751   7.055
 8862POPC   C4A43182  20.617  16.692   7.355
 8862POPC   C1B43183  20.825  16.550   6.455
 8862POPC   C2B43184  20.798  16.587   6.755
 8862POPC   C3B43185  20.782  16.558   7.055
 8862POPC   C4B43186  20.832  16.562   7.355
 8863POPC   NC343187   5.121  25.252   5.555
 8863POPC   PO443188   5.103  25.310   5.855
 8863POPC   GL143189   5.112  25.216   6.155
 8863POPC   GL243190   5.132  25.430   6.155
 8863POPC   C1A43191   5.141  25.284   6.455
 8863POPC   D2A43192   5.069  25.281   6.755
 8863POPC   C3A43193   5.052  25.272   7.055
 8863POPC   C4A43194   5.136  25.304   7.355
 8863POPC   C1B43195   5.112  25.473   6.455
 8863POPC   C2B43196   5.112  25.531   6.755
 8863POPC   C3B43197   5.120  25.527   7.055
 8863POPC   C4B43198   5.078  25.547   7.355
 8864POPC   NC343199  44.657   8.158   5.555
 8864POPC   PO443200  44.618   8.220   5.855
 8864POPC   GL143201  44.662   8.152   6.155
 8864POPC   GL243202  44.691   8.360   6.155
 8864POPC   C1A43203  44.646   8.192   6.455
 8864POPC   D2A43204  44.627   8.230   6.755
 8864POPC   C3A43205  44.618   8.195   7.055
 8864POPC   C4A43206  44.692   8.226   7.355
 8864POPC   C1B43207  44.582   8.453   6.455
 8864POPC   C2B43208  44.631   8.480   6.755
 8864POPC   C3B43209  44.580   8.396   7.055
 8864POPC   C4B43210  44.642   8.399   7.355
 8865POPC   NC343211  31.499  13.585   5.555
 8865POPC   PO443212  31.495  13.645   5.855
 8865POPC   GL143213  31.471  13.605   6.155
 8865POPC   GL243214  31.460  13.725   6.155
 8865POPC   C1A43215  31.426  13.587   6.455
 8865POPC   D2A43216  31.469  13.649   6.755
 8865POPC   C3A43217  31.435  13.581   7.055
 8865POPC   C4A43218  31.520  13.625   7.355
 8865POPC   C1B43219  31.439  13.880   6.455
 8865POPC   C2B43220  31.365  13.865   6.755
 8865POPC   C3B43221  31.369  13.827   7.055
 8865POPC   C4B43222  31.414  13.874   7.355
 8866POPC   NC343223  12.078  30.744   5.555
 8866POPC   PO443224  12.064  30.668   5.855
 8866POPC   GL143225  12.125  30.656   6.155
 8866POPC   GL243226  12.058  30.778   6.155
 8866POPC   C1A43227  12.111  30.677   6.455
 8866POPC   D2A43228  12.111  30.704   6.755
 8866POPC   C3A43229  12.122  30.720   7.055
 8866POPC   C4A43230  12.051  30.744   7.355
 8866POPC   C1B43231  12.017  30.923   6.455
 8866POPC   C2B43232  12.090  30.963   6.755
 8866POPC   C3B43233  12.040  30.978   7.055
 8866POPC   C4B43234  12.064  30.899   7.355
 8867POPC   NC343235  34.539  16.721   5.555
 8867POPC   PO443236  34.536  16.739   5.855
 8867POPC   GL143237  34.567  16.703   6.155
 8867POPC   GL243238  34.589  16.870   6.155
 8867POPC   C1A43239  34.598  16.727   6.455
 8867POPC   D2A43240  34.592  16.736   6.755
 8867POPC   C3A43241  34.586  16.700   7.055
 8867POPC   C4A43242  34.533  16.719   7.355
 8867POPC   C1B43243  34.623  17.024   6.455
 8867POPC   C2B43244  34.549  16.944   6.755
 8867POPC   C3B43245  34.575  16.997   7.055
 8867POPC   C4B43246  34.580  17.025   7.355
 8868POPC   NC343247  27.603   5.070   5.555
 8868POPC   PO443248  27.607   5.085   5.855
 8868POPC   GL143249  27.553   5.091   6.155
 8868POPC   GL243250  27.751   5.084   6.155
 8868POPC   C1A43251  27.559   5.139   6.455
 8868POPC   D2A43252  27.637   5.117   6.755
 8868POPC   C3A43253  27.634   5.060   7.055
 8868POPC   C4A43254  27.563   5.095   7.355
 8868POPC   C1B43255  27.827   5.060   6.455
 8868POPC   C2B43256  27.853   5.020   6.755
 8868POPC   C3B43257  27.856   5.022   7.055
 8868POPC   C4B43258  27.786   5.057   7.355
 8869POPC   NC343259  10.518   6.601   5.555
 8869POPC   PO443260  10.485   6.695   5.855
 8869POPC   GL143261  10.502   6.675   6.155
 8869POPC   GL243262  10.423   6.709   6.155
 8869POPC   C1A43263  10.566   6.669   6.455
 8869POPC   D2A43264  10.523   6.628   6.755
 8869POPC   C3A43265  10.537   6.651   7.055
 8869POPC   C4A43266  10.560   6.615   7.355
 8869POPC   C1B43267  10.340   6.856   6.455
 8869POPC   C2B43268  10.307   6.858   6.755
 8869POPC   C3B43269  10.344   6.786   7.055
 8869POPC   C4B43270  10.363   6.786   7.355
 8870POPC   NC343271  38.407   4.298   5.555
 8870POPC   PO443272  38.462   4.345   5.855
 8870POPC   GL143273  38.489   4.338   6.155
 8870POPC   GL243274  38.420   4.170   6.155
 8870POPC   C1A43275  38.416   4.283   6.455
 8870POPC   D2A43276  38.445   4.363   6.755
 8870POPC   C3A43277  38.474   4.360   7.055
 8870POPC   C4A43278  38.439   4.310   7.355
 8870POPC   C1B43279  38.268   4.080   6.455
 8870POPC   C2B43280  38.255   4.165   6.755
 8870POPC   C3B43281  38.278   4.164   7.055
 8870POPC   C4B43282  38.339   4.165   7.355
 8871POPC   NC343283  41.563  18.267   5.555
 8871POPC   PO443284  41.588  18.317   5.855
 8871POPC   GL143285  41.521  18.264   6.155
 8871POPC   GL243286  41.451  18.275   6.155
 8871POPC   C1A43287  41.548  18.236   6.455
 8871POPC   D2A43288  41.521  18.305   6.755
 8871POPC   C3A43289  41.573  18.279   7.055
 8871POPC   C4A43290  41.514  18.307   7.355
 8871POPC   C1B43291  41.279  18.387   6.455
 8871POPC   C2B43292  41.283  18.401   6.755
 8871POPC   C3B43293  41.277  18.392   7.055
 8871POPC   C4B43294  41.316  18.402   7.355
 8872POPC   NC343295  11.265   6.671   5.555
 8872POPC   PO443296  11.287   6.612   5.855
 8872POPC   GL143297  11.291   6.682   6.155
 8872POPC   GL243298  11.219   6.654   6.155
 8872POPC   C1A43299  11.292   6.647   6.455
 8872POPC   D2A43300  11.333   6.658   6.755
 8872POPC   C3A43301  11.271   6.611   7.055
 8872POPC   C4A43302  11.279   6.659   7.355
 8872POPC   C1B43303  11.049   6.687   6.455
 8872POPC   C2B43304  11.087   6.608   6.755
 8872POPC   C3B43305  11.015   6.677   7.055
 8872POPC   C4B43306  11.089   6.666   7.355
 8873POPC   NC343307  20.571  30.666   5.555
 8873POPC   PO443308  20.582  30.650   5.855
 8873POPC   GL143309  20.632  30.712   6.155
 8873POPC   GL243310  20.686  30.650   6.155
 8873POPC   C1A43311  20.568  30.650   6.455
 8873POPC   D2A43312  20.575  30.727   6.755
 8873POPC   C3A43313  20.608  30.697   7.055
 8873POPC   C4A43314  20.606  30.745   7.355
 8873POPC   C1B43315  20.733  30.531   6.455
 8873POPC   C2B43316  20.775  30.524   6.755
 8873POPC   C3B43317  20.759  30.488   7.055
 8873POPC   C4B43318  20.748  30.512   7.355
 8874POPC   NC343319  38.449  43.147   5.555
 8874POPC   PO443320  38.471  43.128   5.855
 8874POPC   GL143321  38.492  43.103   6.155
 8874POPC   GL243322  38.579  43.087   6.155
 8874POPC   C1A43323  38.412  43.133   6.455
 8874POPC   D2A43324  38.451  43.128   6.755
 8874POPC   C3A43325  38.497  43.142   7.055
 8874POPC   C4A43326  38.457  43.117   7.355
 8874POPC   C1B43327  38.697  43.039   6.455
 8874POPC   C2B43328  38.716  43.095   6.755
 8874POPC   C3B43329  38.684  43.042   7.055
 8874POPC   C4B43330  38.657  43.047   7.355
 8875POPC   NC343331  10.540  18.266   5.555
 8875POPC   PO443332  10.550  18.318   5.855
 8875POPC   GL143333  10.572  18.294   6.155
 8875POPC   GL243334  10.643  18.349   6.155
 8875POPC   C1A43335  10.543  18.324   6.455
 8875POPC   D2A43336  10.521  18.276   6.755
 8875POPC   C3A43337  10.562  18.265   7.055
 8875POPC   C4A43338  10.532  18.320   7.355
 8875POPC   C1B43339  10.719  18.404   6.455
 8875POPC   C2B43340  10.697  18.486   6.755
 8875POPC   C3B43341  10.709  18.479   7.055
 8875POPC   C4B43342  10.700  18.492   7.355
 8876POPC   NC343343  14.412  40.031   5.555
 8876POPC   PO443344  14.429  40.034   5.855
 8876POPC   GL143345  14.418  40.055   6.155
 8876POPC   GL243346  14.277  39.890   6.155
 8876POPC   C1A43347  14.443  40.016   6.455
 8876POPC   D2A43348  14.412  40.055   6.755
 8876POPC   C3A43349  14.370  40.055   7.055
 8876POPC   C4A43350  14.396  39.991   7.355
 8876POPC   C1B43351  14.176  39.876   6.455
 8876POPC   C2B43352  14.167  39.819   6.755
 8876POPC   C3B43353  14.219  39.880   7.055
 8876POPC   C4B43354  14.181  39.809   7.355
 8877POPC   NC343355  23.724  15.204   5.555
 8877POPC   PO443356  23.734  15.169   5.855
 8877POPC   GL143357  23.667  15.189   6.155
 8877POPC   GL243358  23.588  15.175   6.155
 8877POPC   C1A43359  23.711  15.173   6.455
 8877POPC   D2A43360  23.730  15.223   6.755
 8877POPC   C3A43361  23.711  15.174   7.055
 8877POPC   C4A43362  23.749  15.185   7.355
 8877POPC   C1B43363  23.507  15.142   6.455
 8877POPC   C2B43364  23.468  15.178   6.755
 8877POPC   C3B43365  23.480  15.147   7.055
 8877POPC   C4B43366  23.416  15.180   7.355
 8878POPC   NC343367  12.832   0.401   5.555
 8878POPC   PO443368  12.884   0.450   5.855
 8878POPC   GL143369  12.882   0.449   6.155
 8878POPC   GL243370  12.807   0.390   6.155
 8878POPC   C1A43371  12.846   0.398   6.455
 8878POPC   D2A43372  12.825   0.395   6.755
 8878POPC   C3A43373  12.889   0.484   7.055
 8878POPC   C4A43374  12.806   0.464   7.355
 8878POPC   C1B43375  12.635   0.226   6.455
 8878POPC   C2B43376  12.672   0.255   6.755
 8878POPC   C3B43377  12.689   0.237   7.055
 8878POPC   C4B43378  12.637   0.254   7.355
 8879POPC   NC343379  14.446   5.097   5.555
 8879POPC   PO443380  14.444   5.122   5.855
 8879POPC   GL143381  14.438   5.073   6.155
 8879POPC   GL243382  14.524   5.160   6.155
 8879POPC   C1A43383  14.355   5.067   6.455
 8879POPC   D2A43384  14.434   5.064   6.755
 8879POPC   C3A43385  14.396   5.077   7.055
 8879POPC   C4A43386  14.447   5.104   7.355
 8879POPC   C1B43387  14.578   5.285   6.455
 8879POPC   C2B43388  14.577   5.264   6.755
 8879POPC   C3B43389  14.646   5.230   7.055
 8879POPC   C4B43390  14.604   5.220   7.355
 8880POPC   NC343391  19.104  16.772   5.555
 8880POPC   PO443392  19.096  16.735   5.855
 8880POPC   GL143393  19.094  16.747   6.155
 8880POPC   GL243394  18.987  16.713   6.155
 8880POPC   C1A43395  19.098  16.687   6.455
 8880POPC   D2A43396  19.060  16.761   6.755
 8880POPC   C3A43397  19.076  16.688   7.055
 8880POPC   C4A43398  19.108  16.713   7.355
 8880POPC   C1B43399  18.816  16.626   6.455
 8880POPC   C2B43400  18.811  16.557   6.755
 8880POPC   C3B43401  18.845  16.552   7.055
 8880POPC   C4B43402  18.895  16.624   7.355
 8881POPC   NC343403  12.834   9.006   5.555
 8881POPC   PO443404  12.853   8.978   5.855
 8881POPC   GL143405  12.877   9.003   6.155
 8881POPC   GL243406  12.765   8.871   6.155
 8881POPC   C1A43407  12.839   8.970   6.455
 8881POPC   D2A43408  12.819   8.948   6.755
 8881POPC   C3A43409  12.817   8.992   7.055
 8881POPC   C4A43410  12.844   8.968   7.355
 8881POPC   C1B43411  12.793   8.735   6.455
 8881POPC   C2B43412  12.786   8.751   6.755
 8881POPC   C3B43413  12.740   8.704   7.055
 8881POPC   C4B43414  12.731   8.716   7.355
 8882POPC   NC343415  38.466  21.343   5.555
 8882POPC   PO443416  38.495  21.340   5.855
 8882POPC   GL143417  38.505  21.356   6.155
 8882POPC   GL243418  38.332  21.525   6.155
 8882POPC   C1A43419  38.453  21.423   6.455
 8882POPC   D2A43420  38.476  21.417   6.755
 8882POPC   C3A43421  38.491  21.364   7.055
 8882POPC   C4A43422  38.497  21.412   7.355
 8882POPC   C1B43423  38.288  21.564   6.455
 8882POPC   C2B43424  38.313  21.609   6.755
 8882POPC   C3B43425  38.313  21.610   7.055
 8882POPC   C4B43426  38.262  21.551   7.355
 8883POPC   NC343427  42.319  12.888   5.555
 8883POPC   PO443428  42.336  12.900   5.855
 8883POPC   GL143429  42.341  12.836   6.155
 8883POPC   GL243430  42.485  12.864   6.155
 8883POPC   C1A43431  42.372  12.855   6.455
 8883POPC   D2A43432  42.332  12.868   6.755
 8883POPC   C3A43433  42.383  12.856   7.055
 8883POPC   C4A43434  42.332  12.866   7.355
 8883POPC   C1B43435  42.580  12.886   6.455
 8883POPC   C2B43436  42.591  12.967   6.755
 8883POPC   C3B43437  42.534  12.941   7.055
 8883POPC   C4B43438  42.611  12.883   7.355
 8884POPC   NC343439  35.380  19.087   5.555
 8884POPC   PO443440  35.392  19.039   5.855
 8884POPC   GL143441  35.333  19.056   6.155
 8884POPC   GL243442  35.453  19.170   6.155
 8884POPC   C1A43443  35.327  19.032   6.455
 8884POPC   D2A43444  35.364  19.024   6.755
 8884POPC   C3A43445  35.348  19.102   7.055
 8884POPC   C4A43446  35.359  19.047   7.355
 8884POPC   C1B43447  35.531  19.222   6.455
 8884POPC   C2B43448  35.499  19.221   6.755
 8884POPC   C3B43449  35.470  19.243   7.055
 8884POPC   C4B43450  35.470  19.248   7.355
 8885POPC   NC343451  24.507  33.074   5.555
 8885POPC   PO443452  24.486  33.046   5.855
 8885POPC   GL143453  24.523  33.046   6.155
 8885POPC   GL243454  24.599  33.120   6.155
 8885POPC   C1A43455  24.481  33.020   6.455
 8885POPC   D2A43456  24.481  33.001   6.755
 8885POPC   C3A43457  24.495  33.064   7.055
 8885POPC   C4A43458  24.455  32.993   7.355
 8885POPC   C1B43459  24.590  33.240   6.455
 8885POPC   C2B43460  24.610  33.204   6.755
 8885POPC   C3B43461  24.590  33.266   7.055
 8885POPC   C4B43462  24.634  33.261   7.355
 8886POPC   NC343463  37.671  26.787   5.555
 8886POPC   PO443464  37.652  26.815   5.855
 8886POPC   GL143465  37.714  26.859   6.155
 8886POPC   GL243466  37.691  26.663   6.155
 8886POPC   C1A43467  37.632  26.807   6.455
 8886POPC   D2A43468  37.673  26.768   6.755
 8886POPC   C3A43469  37.678  26.826   7.055
 8886POPC   C4A43470  37.705  26.864   7.355
 8886POPC   C1B43471  37.794  26.616   6.455
 8886POPC   C2B43472  37.778  26.601   6.755
 8886POPC   C3B43473  37.810  26.633   7.055
 8886POPC   C4B43474  37.833  26.631   7.355
 8887POPC   NC343475  29.152  13.636   5.555
 8887POPC   PO443476  29.103  13.586   5.855
 8887POPC   GL143477  29.136  13.661   6.155
 8887POPC   GL243478  29.234  13.737   6.155
 8887POPC   C1A43479  29.177  13.578   6.455
 8887POPC   D2A43480  29.182  13.600   6.755
 8887POPC   C3A43481  29.178  13.613   7.055
 8887POPC   C4A43482  29.130  13.590   7.355
 8887POPC   C1B43483  29.279  13.811   6.455
 8887POPC   C2B43484  29.277  13.846   6.755
 8887POPC   C3B43485  29.305  13.860   7.055
 8887POPC   C4B43486  29.249  13.809   7.355
 8888POPC   NC343487  42.307   7.438   5.555
 8888POPC   PO443488  42.307   7.410   5.855
 8888POPC   GL143489  42.362   7.412   6.155
 8888POPC   GL243490  42.192   7.458   6.155
 8888POPC   C1A43491  42.381   7.379   6.455
 8888POPC   D2A43492  42.294   7.435   6.755
 8888POPC   C3A43493  42.369   7.373   7.055
 8888POPC   C4A43494  42.357   7.381   7.355
 8888POPC   C1B43495  42.118   7.406   6.455
 8888POPC   C2B43496  42.113   7.408   6.755
 8888POPC   C3B43497  42.050   7.441   7.055
 8888POPC   C4B43498  42.102   7.397   7.355
 8889POPC   NC343499  15.964  24.472   5.555
 8889POPC   PO443500  15.942  24.474   5.855
 8889POPC   GL143501  15.997  24.537   6.155
 8889POPC   GL243502  15.919  24.356   6.155
 8889POPC   C1A43503  15.921  24.455   6.455
 8889POPC   D2A43504  15.918  24.507   6.755
 8889POPC   C3A43505  15.943  24.476   7.055
 8889POPC   C4A43506  15.921  24.502   7.355
 8889POPC   C1B43507  15.787  24.264   6.455
 8889POPC   C2B43508  15.791  24.330   6.755
 8889POPC   C3B43509  15.828  24.318   7.055
 8889POPC   C4B43510  15.817  24.337   7.355
 8890POPC   NC343511   8.964  41.521   5.555
 8890POPC   PO443512   8.957  41.527   5.855
 8890POPC   GL143513   8.935  41.549   6.155
 8890POPC   GL243514   8.939  41.429   6.155
 8890POPC   C1A43515   8.976  41.566   6.455
 8890POPC   D2A43516   8.961  41.570   6.755
 8890POPC   C3A43517   9.016  41.561   7.055
 8890POPC   C4A43518   8.938  41.537   7.355
 8890POPC   C1B43519   8.814  41.287   6.455
 8890POPC   C2B43520   8.909  41.287   6.755
 8890POPC   C3B43521   8.904  41.354   7.055
 8890POPC   C4B43522   8.895  41.306   7.355
 8891POPC   NC343523  10.491  12.124   5.555
 8891POPC   PO443524  10.549  12.118   5.855
 8891POPC   GL143525  10.483  12.096   6.155
 8891POPC   GL243526  10.385  12.006   6.155
 8891POPC   C1A43527  10.534  12.089   6.455
 8891POPC   D2A43528  10.564  12.085   6.755
 8891POPC   C3A43529  10.504  12.033   7.055
 8891POPC   C4A43530  10.561  12.108   7.355
 8891POPC   C1B43531  10.322  11.953   6.455
 8891POPC   C2B43532  10.296  11.920   6.755
 8891POPC   C3B43533  10.321  11.971   7.055
 8891POPC   C4B43534  10.293  11.889   7.355
 8892POPC   NC343535   5.111  29.873   5.555
 8892POPC   PO443536   5.101  29.901   5.855
 8892POPC   GL143537   5.064  29.879   6.155
 8892POPC   GL243538   5.082  29.800   6.155
 8892POPC   C1A43539   5.090  29.900   6.455
 8892POPC   D2A43540   5.053  29.961   6.755
 8892POPC   C3A43541   5.049  29.957   7.055
 8892POPC   C4A43542   5.112  29.963   7.355
 8892POPC   C1B43543   5.086  29.665   6.455
 8892POPC   C2B43544   5.098  29.685   6.755
 8892POPC   C3B43545   5.029  29.653   7.055
 8892POPC   C4B43546   5.091  29.697   7.355
 8893POPC   NC343547  36.120  43.078   5.555
 8893POPC   PO443548  36.146  43.149   5.855
 8893POPC   GL143549  36.117  43.076   6.155
 8893POPC   GL243550  36.272  43.058   6.155
 8893POPC   C1A43551  36.111  43.109   6.455
 8893POPC   D2A43552  36.103  43.125   6.755
 8893POPC   C3A43553  36.134  43.101   7.055
 8893POPC   C4A43554  36.174  43.063   7.355
 8893POPC   C1B43555  36.387  43.120   6.455
 8893POPC   C2B43556  36.408  43.055   6.755
 8893POPC   C3B43557  36.415  43.141   7.055
 8893POPC   C4B43558  36.366  43.081   7.355
 8894POPC   NC343559  30.678   7.435   5.555
 8894POPC   PO443560  30.746   7.404   5.855
 8894POPC   GL143561  30.729   7.404   6.155
 8894POPC   GL243562  30.813   7.302   6.155
 8894POPC   C1A43563  30.703   7.385   6.455
 8894POPC   D2A43564  30.734   7.380   6.755
 8894POPC   C3A43565  30.660   7.448   7.055
 8894POPC   C4A43566  30.667   7.454   7.355
 8894POPC   C1B43567  30.919   7.234   6.455
 8894POPC   C2B43568  30.868   7.271   6.755
 8894POPC   C3B43569  30.865   7.279   7.055
 8894POPC   C4B43570  30.832   7.290   7.355
 8895POPC   NC343571   9.764  24.469   5.555
 8895POPC   PO443572   9.727  24.462   5.855
 8895POPC   GL143573   9.783  24.499   6.155
 8895POPC   GL243574   9.869  24.526   6.155
 8895POPC   C1A43575   9.722  24.461   6.455
 8895POPC   D2A43576   9.794  24.464   6.755
 8895POPC   C3A43577   9.747  24.506   7.055
 8895POPC   C4A43578   9.775  24.453   7.355
 8895POPC   C1B43579   9.996  24.605   6.455
 8895POPC   C2B43580   9.998  24.658   6.755
 8895POPC   C3B43581   9.952  24.636   7.055
 8895POPC   C4B43582   9.944  24.627   7.355
 8896POPC   NC343583   5.880  26.857   5.555
 8896POPC   PO443584   5.846  26.835   5.855
 8896POPC   GL143585   5.863  26.780   6.155
 8896POPC   GL243586   5.773  26.931   6.155
 8896POPC   C1A43587   5.887  26.770   6.455
 8896POPC   D2A43588   5.912  26.850   6.755
 8896POPC   C3A43589   5.911  26.778   7.055
 8896POPC   C4A43590   5.856  26.798   7.355
 8896POPC   C1B43591   5.711  26.975   6.455
 8896POPC   C2B43592   5.685  26.996   6.755
 8896POPC   C3B43593   5.726  27.011   7.055
 8896POPC   C4B43594   5.731  26.958   7.355
 8897POPC   NC343595  19.810  18.267   5.555
 8897POPC   PO443596  19.864  18.298   5.855
 8897POPC   GL143597  19.871  18.291   6.155
 8897POPC   GL243598  19.756  18.359   6.155
 8897POPC   C1A43599  19.831  18.254   6.455
 8897POPC   D2A43600  19.841  18.303   6.755
 8897POPC   C3A43601  19.833  18.242   7.055
 8897POPC   C4A43602  19.793  18.332   7.355
 8897POPC   C1B43603  19.674  18.446   6.455
 8897POPC   C2B43604  19.644  18.382   6.755
 8897POPC   C3B43605  19.624  18.389   7.055
 8897POPC   C4B43606  19.642  18.422   7.355
 8898POPC   NC343607   2.025  36.162   5.555
 8898POPC   PO443608   1.955  36.140   5.855
 8898POPC   GL143609   1.972  36.167   6.155
 8898POPC   GL243610   1.951  36.247   6.155
 8898POPC   C1A43611   1.993  36.122   6.455
 8898POPC   D2A43612   1.958  36.155   6.755
 8898POPC   C3A43613   2.023  36.133   7.055
 8898POPC   C4A43614   1.963  36.113   7.355
 8898POPC   C1B43615   1.967  36.421   6.455
 8898POPC   C2B43616   1.962  36.376   6.755
 8898POPC   C3B43617   1.984  36.357   7.055
 8898POPC   C4B43618   1.914  36.362   7.355
 8899POPC   NC343619   5.918  35.372   5.555
 8899POPC   PO443620   5.821  35.335   5.855
 8899POPC   GL143621   5.844  35.304   6.155
 8899POPC   GL243622   5.966  35.256   6.155
 8899POPC   C1A43623   5.902  35.342   6.455
 8899POPC   D2A43624   5.857  35.401   6.755
 8899POPC   C3A43625   5.844  35.390   7.055
 8899POPC   C4A43626   5.829  35.361   7.355
 8899POPC   C1B43627   6.021  35.127   6.455
 8899POPC   C2B43628   6.082  35.121   6.755
 8899POPC   C3B43629   6.009  35.181   7.055
 8899POPC   C4B43630   5.996  35.134   7.355
 8900POPC   NC343631  19.812  32.286   5.555
 8900POPC   PO443632  19.882  32.210   5.855
 8900POPC   GL143633  19.804  32.232   6.155
 8900POPC   GL243634  19.953  32.164   6.155
 8900POPC   C1A43635  19.799  32.228   6.455
 8900POPC   D2A43636  19.822  32.253   6.755
 8900POPC   C3A43637  19.812  32.237   7.055
 8900POPC   C4A43638  19.875  32.207   7.355
 8900POPC   C1B43639  20.003  32.063   6.455
 8900POPC   C2B43640  19.967  32.042   6.755
 8900POPC   C3B43641  19.993  32.078   7.055
 8900POPC   C4B43642  20.000  32.086   7.355
 8901POPC   NC343643  33.024  14.356   5.555
 8901POPC   PO443644  32.994  14.371   5.855
 8901POPC   GL143645  32.998  14.409   6.155
 8901POPC   GL243646  33.125  14.392   6.155
 8901POPC   C1A43647  33.008  14.370   6.455
 8901POPC   D2A43648  33.056  14.376   6.755
 8901POPC   C3A43649  32.986  14.414   7.055
 8901POPC   C4A43650  32.986  14.413   7.355
 8901POPC   C1B43651  33.318  14.424   6.455
 8901POPC   C2B43652  33.240  14.400   6.755
 8901POPC   C3B43653  33.251  14.399   7.055
 8901POPC   C4B43654  33.322  14.449   7.355
 8902POPC   NC343655  22.897  15.210   5.555
 8902POPC   PO443656  22.959  15.175   5.855
 8902POPC   GL143657  22.937  15.130   6.155
 8902POPC   GL243658  22.943  15.296   6.155
 8902POPC   C1A43659  22.960  15.146   6.455
 8902POPC   D2A43660  22.915  15.216   6.755
 8902POPC   C3A43661  22.940  15.163   7.055
 8902POPC   C4A43662  22.901  15.209   7.355
 8902POPC   C1B43663  22.982  15.393   6.455
 8902POPC   C2B43664  22.906  15.466   6.755
 8902POPC   C3B43665  22.942  15.386   7.055
 8902POPC   C4B43666  22.975  15.383   7.355
 8903POPC   NC343667   5.841  36.901   5.555
 8903POPC   PO443668   5.901  36.913   5.855
 8903POPC   GL143669   5.887  36.900   6.155
 8903POPC   GL243670   5.796  36.794   6.155
 8903POPC   C1A43671   5.823  36.935   6.455
 8903POPC   D2A43672   5.853  36.945   6.755
 8903POPC   C3A43673   5.875  36.877   7.055
 8903POPC   C4A43674   5.820  36.912   7.355
 8903POPC   C1B43675   5.651  36.812   6.455
 8903POPC   C2B43676   5.619  36.821   6.755
 8903POPC   C3B43677   5.702  36.736   7.055
 8903POPC   C4B43678   5.701  36.737   7.355
 8904POPC   NC343679  34.620  22.890   5.555
 8904POPC   PO443680  34.539  22.978   5.855
 8904POPC   GL143681  34.599  22.903   6.155
 8904POPC   GL243682  34.584  23.090   6.155
 8904POPC   C1A43683  34.625  22.984   6.455
 8904POPC   D2A43684  34.538  22.969   6.755
 8904POPC   C3A43685  34.529  22.969   7.055
 8904POPC   C4A43686  34.618  22.938   7.355
 8904POPC   C1B43687  34.530  23.169   6.455
 8904POPC   C2B43688  34.543  23.145   6.755
 8904POPC   C3B43689  34.549  23.146   7.055
 8904POPC   C4B43690  34.585  23.212   7.355
 8905POPC   NC343691  22.897  44.686   5.555
 8905POPC   PO443692  22.908  44.660   5.855
 8905POPC   GL143693  22.960  44.683   6.155
 8905POPC   GL243694  22.856  44.700   6.155
 8905POPC   C1A43695  22.934  44.704   6.455
 8905POPC   D2A43696  22.978  44.659   6.755
 8905POPC   C3A43697  22.928  44.707   7.055
 8905POPC   C4A43698  22.890  44.628   7.355
 8905POPC   C1B43699  22.715  44.766   6.455
 8905POPC   C2B43700  22.728  44.784   6.755
 8905POPC   C3B43701  22.664  44.792   7.055
 8905POPC   C4B43702  22.679  44.710   7.355
 8906POPC   NC343703  39.205  13.670   5.555
 8906POPC   PO443704  39.246  13.624   5.855
 8906POPC   GL143705  39.199  13.620   6.155
 8906POPC   GL243706  39.221  13.700   6.155
 8906POPC   C1A43707  39.234  13.587   6.455
 8906POPC   D2A43708  39.223  13.639   6.755
 8906POPC   C3A43709  39.281  13.624   7.055
 8906POPC   C4A43710  39.252  13.662   7.355
 8906POPC   C1B43711  39.141  13.834   6.455
 8906POPC   C2B43712  39.165  13.862   6.755
 8906POPC   C3B43713  39.158  13.911   7.055
 8906POPC   C4B43714  39.131  13.822   7.355
 8907POPC   NC343715  22.917  37.711   5.555
 8907POPC   PO443716  22.959  37.717   5.855
 8907POPC   GL143717  22.932  37.668   6.155
 8907POPC   GL243718  22.842  37.583   6.155
 8907POPC   C1A43719  22.920  37.718   6.455
 8907POPC   D2A43720  22.895  37.646   6.755
 8907POPC   C3A43721  22.965  37.649   7.055
 8907POPC   C4A43722  22.986  37.630   7.355
 8907POPC   C1B43723  22.764  37.444   6.455
 8907POPC   C2B43724  22.755  37.471   6.755
 8907POPC   C3B43725  22.775  37.446   7.055
 8907POPC   C4B43726  22.784  37.438   7.355
 8908POPC   NC343727  12.087  20.660   5.555
 8908POPC   PO443728  12.113  20.634   5.855
 8908POPC   GL143729  12.071  20.599   6.155
 8908POPC   GL243730  11.957  20.619   6.155
 8908POPC   C1A43731  12.055  20.655   6.455
 8908POPC   D2A43732  12.058  20.624   6.755
 8908POPC   C3A43733  12.041  20.604   7.055
 8908POPC   C4A43734  12.075  20.649   7.355
 8908POPC   C1B43735  11.833  20.505   6.455
 8908POPC   C2B43736  11.869  20.496   6.755
 8908POPC   C3B43737  11.839  20.592   7.055
 8908POPC   C4B43738  11.859  20.512   7.355
 8909POPC   NC343739  33.049  36.173   5.555
 8909POPC   PO443740  33.052  36.119   5.855
 8909POPC   GL143741  32.978  36.157   6.155
 8909POPC   GL243742  32.978  36.237   6.155
 8909POPC   C1A43743  33.057  36.172   6.455
 8909POPC   D2A43744  32.979  36.150   6.755
 8909POPC   C3A43745  32.982  36.081   7.055
 8909POPC   C4A43746  33.045  36.173   7.355
 8909POPC   C1B43747  32.873  36.325   6.455
 8909POPC   C2B43748  32.904  36.388   6.755
 8909POPC   C3B43749  32.877  36.365   7.055
 8909POPC   C4B43750  32.894  36.379   7.355
 8910POPC   NC343751  35.335  44.653   5.555
 8910POPC   PO443752  35.323  44.674   5.855
 8910POPC   GL143753  35.330  44.641   6.155
 8910POPC   GL243754  35.448  44.675   6.155
 8910POPC   C1A43755  35.326  44.643   6.455
 8910POPC   D2A43756  35.304  44.704   6.755
 8910POPC   C3A43757  35.357  44.630   7.055
 8910POPC   C4A43758  35.314  44.650   7.355
 8910POPC   C1B43759  35.596  44.712   6.455
 8910POPC   C2B43760  35.572  44.651   6.755
 8910POPC   C3B43761  35.575  44.644   7.055
 8910POPC   C4B43762  35.639  44.685   7.355
 8911POPC   NC343763  36.177  29.132   5.555
 8911POPC   PO443764  36.119  29.195   5.855
 8911POPC   GL143765  36.115  29.159   6.155
 8911POPC   GL243766  36.067  29.251   6.155
 8911POPC   C1A43767  36.171  29.119   6.455
 8911POPC   D2A43768  36.078  29.150   6.755
 8911POPC   C3A43769  36.158  29.148   7.055
 8911POPC   C4A43770  36.099  29.146   7.355
 8911POPC   C1B43771  35.988  29.366   6.455
 8911POPC   C2B43772  35.981  29.319   6.755
 8911POPC   C3B43773  35.953  29.309   7.055
 8911POPC   C4B43774  36.015  29.370   7.355
 8912POPC   NC343775   4.341  22.927   5.555
 8912POPC   PO443776   4.335  22.908   5.855
 8912POPC   GL143777   4.277  22.962   6.155
 8912POPC   GL243778   4.369  22.835   6.155
 8912POPC   C1A43779   4.339  22.929   6.455
 8912POPC   D2A43780   4.320  22.912   6.755
 8912POPC   C3A43781   4.308  22.973   7.055
 8912POPC   C4A43782   4.282  22.933   7.355
 8912POPC   C1B43783   4.556  22.800   6.455
 8912POPC   C2B43784   4.504  22.826   6.755
 8912POPC   C3B43785   4.555  22.788   7.055
 8912POPC   C4B43786   4.539  22.789   7.355
 8913POPC   NC343787  44.700  23.711   5.555
 8913POPC   PO443788  44.630  23.727   5.855
 8913POPC   GL143789  44.642  23.746   6.155
 8913POPC   GL243790  44.595  23.550   6.155
 8913POPC   C1A43791  44.704  23.665   6.455
 8913POPC   D2A43792  44.615  23.733   6.755
 8913POPC   C3A43793  44.667  23.697   7.055
 8913POPC   C4A43794  44.666  23.751   7.355
 8913POPC   C1B43795  44.545  23.457   6.455
 8913POPC   C2B43796  44.624  23.505   6.755
 8913POPC   C3B43797  44.576  23.430   7.055
 8913POPC   C4B43798  44.585  23.426   7.355
 8914POPC   NC343799   8.154  25.288   5.555
 8914POPC   PO443800   8.207  25.249   5.855
 8914POPC   GL143801   8.158  25.253   6.155
 8914POPC   GL243802   8.198  25.342   6.155
 8914POPC   C1A43803   8.176  25.220   6.455
 8914POPC   D2A43804   8.246  25.246   6.755
 8914POPC   C3A43805   8.220  25.224   7.055
 8914POPC   C4A43806   8.182  25.287   7.355
 8914POPC   C1B43807   8.334  25.490   6.455
 8914POPC   C2B43808   8.247  25.483   6.755
 8914POPC   C3B43809   8.327  25.453   7.055
 8914POPC   C4B43810   8.257  25.542   7.355
 8915POPC   NC343811   3.515  28.390   5.555
 8915POPC   PO443812   3.565  28.337   5.855
 8915POPC   GL143813   3.581  28.351   6.155
 8915POPC   GL243814   3.585  28.235   6.155
 8915POPC   C1A43815   3.535  28.381   6.455
 8915POPC   D2A43816   3.494  28.361   6.755
 8915POPC   C3A43817   3.578  28.385   7.055
 8915POPC   C4A43818   3.528  28.345   7.355
 8915POPC   C1B43819   3.540  28.096   6.455
 8915POPC   C2B43820   3.588  28.093   6.755
 8915POPC   C3B43821   3.545  28.136   7.055
 8915POPC   C4B43822   3.620  28.101   7.355
 8916POPC   NC343823  35.347  27.643   5.555
 8916POPC   PO443824  35.393  27.602   5.855
 8916POPC   GL143825  35.380  27.606   6.155
 8916POPC   GL243826  35.435  27.528   6.155
 8916POPC   C1A43827  35.348  27.547   6.455
 8916POPC   D2A43828  35.383  27.582   6.755
 8916POPC   C3A43829  35.347  27.591   7.055
 8916POPC   C4A43830  35.341  27.575   7.355
 8916POPC   C1B43831  35.634  27.558   6.455
 8916POPC   C2B43832  35.604  27.525   6.755
 8916POPC   C3B43833  35.563  27.562   7.055
 8916POPC   C4B43834  35.541  27.471   7.355
 8917POPC   NC343835  21.394  29.099   5.555
 8917POPC   PO443836  21.386  29.159   5.855
 8917POPC   GL143837  21.428  29.106   6.155
 8917POPC   GL243838  21.271  29.244   6.155
 8917POPC   C1A43839  21.366  29.193   6.455
 8917POPC   D2A43840  21.381  29.108   6.755
 8917POPC   C3A43841  21.372  29.122   7.055
 8917POPC   C4A43842  21.422  29.103   7.355
 8917POPC   C1B43843  21.196  29.207   6.455
 8917POPC   C2B43844  21.170  29.284   6.755
 8917POPC   C3B43845  21.123  29.278   7.055
 8917POPC   C4B43846  21.143  29.271   7.355
 8918POPC   NC343847  27.564  43.069   5.555
 8918POPC   PO443848  27.580  43.151   5.855
 8918POPC   GL143849  27.641  43.155   6.155
 8918POPC   GL243850  27.633  43.042   6.155
 8918POPC   C1A43851  27.545  43.127   6.455
 8918POPC   D2A43852  27.589  43.101   6.755
 8918POPC   C3A43853  27.555  43.137   7.055
 8918POPC   C4A43854  27.636  43.134   7.355
 8918POPC   C1B43855  27.685  42.853   6.455
 8918POPC   C2B43856  27.661  42.911   6.755
 8918POPC   C3B43857  27.723  42.919   7.055
 8918POPC   C4B43858  27.694  42.898   7.355
 8919POPC   NC343859  40.762  24.448   5.555
 8919POPC   PO443860  40.814  24.450   5.855
 8919POPC   GL143861  40.738  24.490   6.155
 8919POPC   GL243862  40.759  24.352   6.155
 8919POPC   C1A43863  40.819  24.455   6.455
 8919POPC   D2A43864  40.741  24.501   6.755
 8919POPC   C3A43865  40.775  24.477   7.055
 8919POPC   C4A43866  40.826  24.526   7.355
 8919POPC   C1B43867  40.654  24.254   6.455
 8919POPC   C2B43868  40.699  24.214   6.755
 8919POPC   C3B43869  40.705  24.262   7.055
 8919POPC   C4B43870  40.658  24.251   7.355
 8920POPC   NC343871  21.358  24.502   5.555
 8920POPC   PO443872  21.355  24.514   5.855
 8920POPC   GL143873  21.339  24.523   6.155
 8920POPC   GL243874  21.479  24.525   6.155
 8920POPC   C1A43875  21.367  24.474   6.455
 8920POPC   D2A43876  21.342  24.533   6.755
 8920POPC   C3A43877  21.406  24.520   7.055
 8920POPC   C4A43878  21.395  24.486   7.355
 8920POPC   C1B43879  21.535  24.606   6.455
 8920POPC   C2B43880  21.619  24.700   6.755
 8920POPC   C3B43881  21.615  24.681   7.055
 8920POPC   C4B43882  21.527  24.689   7.355
 8921POPC   NC343883   1.213  21.355   5.555
 8921POPC   PO443884   1.253  21.360   5.855
 8921POPC   GL143885   1.192  21.367   6.155
 8921POPC   GL243886   1.162  21.299   6.155
 8921POPC   C1A43887   1.177  21.397   6.455
 8921POPC   D2A43888   1.231  21.336   6.755
 8921POPC   C3A43889   1.183  21.426   7.055
 8921POPC   C4A43890   1.183  21.414   7.355
 8921POPC   C1B43891   1.123  21.178   6.455
 8921POPC   C2B43892   1.157  21.107   6.755
 8921POPC   C3B43893   1.179  21.151   7.055
 8921POPC   C4B43894   1.138  21.112   7.355
 8922POPC   NC343895   8.950  43.155   5.555
 8922POPC   PO443896   8.999  43.123   5.855
 8922POPC   GL143897   9.003  43.154   6.155
 8922POPC   GL243898   8.864  43.144   6.155
 8922POPC   C1A43899   9.012  43.149   6.455
 8922POPC   D2A43900   8.987  43.108   6.755
 8922POPC   C3A43901   8.938  43.096   7.055
 8922POPC   C4A43902   8.995  43.121   7.355
 8922POPC   C1B43903   8.798  43.254   6.455
 8922POPC   C2B43904   8.729  43.262   6.755
 8922POPC   C3B43905   8.763  43.269   7.055
 8922POPC   C4B43906   8.774  43.226   7.355
 8923POPC   NC343907  43.859  18.239   5.555
 8923POPC   PO443908  43.933  18.325   5.855
 8923POPC   GL143909  43.882  18.284   6.155
 8923POPC   GL243910  44.001  18.237   6.155
 8923POPC   C1A43911  43.884  18.294   6.455
 8923POPC   D2A43912  43.924  18.242   6.755
 8923POPC   C3A43913  43.838  18.279   7.055
 8923POPC   C4A43914  43.900  18.283   7.355
 8923POPC   C1B43915  44.140  18.180   6.455
 8923POPC   C2B43916  44.086  18.189   6.755
 8923POPC   C3B43917  44.054  18.148   7.055
 8923POPC   C4B43918  44.137  18.121   7.355
 8924POPC   NC343919  43.870   8.192   5.555
 8924POPC   PO443920  43.925   8.205   5.855
 8924POPC   GL143921  43.839   8.180   6.155
 8924POPC   GL243922  43.923   8.281   6.155
 8924POPC   C1A43923  43.888   8.215   6.455
 8924POPC   D2A43924  43.924   8.222   6.755
 8924POPC   C3A43925  43.859   8.192   7.055
 8924POPC   C4A43926  43.865   8.226   7.355
 8924POPC   C1B43927  43.923   8.441   6.455
 8924POPC   C2B43928  43.981   8.478   6.755
 8924POPC   C3B43929  43.988   8.434   7.055
 8924POPC   C4B43930  43.932   8.473   7.355
 8925POPC   NC343931  40.025  40.800   5.555
 8925POPC   PO443932  40.027  40.760   5.855
 8925POPC   GL143933  40.023  40.814   6.155
 8925POPC   GL243934  40.013  40.940   6.155
 8925POPC   C1A43935  39.967  40.826   6.455
 8925POPC   D2A43936  39.980  40.806   6.755
 8925POPC   C3A43937  40.050  40.797   7.055
 8925POPC   C4A43938  40.056  40.809   7.355
 8925POPC   C1B43939  40.069  41.007   6.455
 8925POPC   C2B43940  40.081  41.018   6.755
 8925POPC   C3B43941  39.996  41.052   7.055
 8925POPC   C4B43942  40.052  40.991   7.355
 8926POPC   NC343943  11.316  36.892   5.555
 8926POPC   PO443944  11.321  36.927   5.855
 8926POPC   GL143945  11.335  36.895   6.155
 8926POPC   GL243946  11.235  36.749   6.155
 8926POPC   C1A43947  11.267  36.934   6.455
 8926POPC   D2A43948  11.336  36.920   6.755
 8926POPC   C3A43949  11.310  36.879   7.055
 8926POPC   C4A43950  11.328  36.855   7.355
 8926POPC   C1B43951  11.259  36.655   6.455
 8926POPC   C2B43952  11.290  36.681   6.755
 8926POPC   C3B43953  11.275  36.682   7.055
 8926POPC   C4B43954  11.224  36.659   7.355
 8927POPC   NC343955   4.367  40.801   5.555
 8927POPC   PO443956   4.364  40.813   5.855
 8927POPC   GL143957   4.353  40.805   6.155
 8927POPC   GL243958   4.442  40.706   6.155
 8927POPC   C1A43959   4.272  40.816   6.455
 8927POPC   D2A43960   4.353  40.774   6.755
 8927POPC   C3A43961   4.315  40.773   7.055
 8927POPC   C4A43962   4.271  40.760   7.355
 8927POPC   C1B43963   4.557  40.752   6.455
 8927POPC   C2B43964   4.524  40.698   6.755
 8927POPC   C3B43965   4.557  40.701   7.055
 8927POPC   C4B43966   4.602  40.705   7.355
 8928POPC   NC343967   1.221  43.108   5.555
 8928POPC   PO443968   1.201  43.063   5.855
 8928POPC   GL143969   1.210  43.136   6.155
 8928POPC   GL243970   1.226  43.194   6.155
 8928POPC   C1A43971   1.240  43.102   6.455
 8928POPC   D2A43972   1.227  43.097   6.755
 8928POPC   C3A43973   1.190  43.137   7.055
 8928POPC   C4A43974   1.185  43.104   7.355
 8928POPC   C1B43975   1.329  43.303   6.455
 8928POPC   C2B43976   1.304  43.328   6.755
 8928POPC   C3B43977   1.301  43.367   7.055
 8928POPC   C4B43978   1.263  43.343   7.355
 8929POPC   NC343979  22.161  12.900   5.555
 8929POPC   PO443980  22.176  12.894   5.855
 8929POPC   GL143981  22.180  12.822   6.155
 8929POPC   GL243982  22.216  12.954   6.155
 8929POPC   C1A43983  22.128  12.899   6.455
 8929POPC   D2A43984  22.177  12.821   6.755
 8929POPC   C3A43985  22.121  12.892   7.055
 8929POPC   C4A43986  22.188  12.876   7.355
 8929POPC   C1B43987  22.241  13.077   6.455
 8929POPC   C2B43988  22.195  13.090   6.755
 8929POPC   C3B43989  22.185  13.147   7.055
 8929POPC   C4B43990  22.216  13.063   7.355
 8930POPC   NC343991  34.577  39.210   5.555
 8930POPC   PO443992  34.537  39.195   5.855
 8930POPC   GL143993  34.611  39.212   6.155
 8930POPC   GL243994  34.459  39.204   6.155
 8930POPC   C1A43995  34.555  39.233   6.455
 8930POPC   D2A43996  34.592  39.204   6.755
 8930POPC   C3A43997  34.572  39.237   7.055
 8930POPC   C4A43998  34.550  39.223   7.355
 8930POPC   C1B43999  34.317  39.221   6.455
 8930POPC   C2B44000  34.314  39.222   6.755
 8930POPC   C3B44001  34.317  39.224   7.055
 8930POPC   C4B44002  34.354  39.235   7.355
 8931POPC   NC344003  31.497  31.461   5.555
 8931POPC   PO444004  31.465  31.491   5.855
 8931POPC   GL144005  31.478  31.497   6.155
 8931POPC   GL244006  31.575  31.516   6.155
 8931POPC   C1A44007  31.479  31.470   6.455
 8931POPC   D2A44008  31.443  31.425   6.755
 8931POPC   C3A44009  31.509  31.502   7.055
 8931POPC   C4A44010  31.446  31.443   7.355
 8931POPC   C1B44011  31.686  31.630   6.455
 8931POPC   C2B44012  31.712  31.555   6.755
 8931POPC   C3B44013  31.668  31.590   7.055
 8931POPC   C4B44014  31.675  31.628   7.355
 8932POPC   NC344015  18.328  42.316   5.555
 8932POPC   PO444016  18.271  42.294   5.855
 8932POPC   GL144017  18.276  42.328   6.155
 8932POPC   GL244018  18.245  42.168   6.155
 8932POPC   C1A44019  18.265  42.381   6.455
 8932POPC   D2A44020  18.252  42.302   6.755
 8932POPC   C3A44021  18.313  42.326   7.055
 8932POPC   C4A44022  18.263  42.354   7.355
 8932POPC   C1B44023  18.193  42.044   6.455
 8932POPC   C2B44024  18.191  42.045   6.755
 8932POPC   C3B44025  18.216  42.115   7.055
 8932POPC   C4B44026  18.217  42.126   7.355
 8933POPC   NC344027  34.551  17.537   5.555
 8933POPC   PO444028  34.529  17.460   5.855
 8933POPC   GL144029  34.536  17.480   6.155
 8933POPC   GL244030  34.652  17.598   6.155
 8933POPC   C1A44031  34.587  17.493   6.455
 8933POPC   D2A44032  34.590  17.485   6.755
 8933POPC   C3A44033  34.576  17.468   7.055
 8933POPC   C4A44034  34.544  17.484   7.355
 8933POPC   C1B44035  34.616  17.775   6.455
 8933POPC   C2B44036  34.630  17.739   6.755
 8933POPC   C3B44037  34.665  17.731   7.055
 8933POPC   C4B44038  34.679  17.761   7.355
 8934POPC   NC344039  19.095   5.885   5.555
 8934POPC   PO444040  19.038   5.851   5.855
 8934POPC   GL144041  19.107   5.857   6.155
 8934POPC   GL244042  19.137   5.811   6.155
 8934POPC   C1A44043  19.070   5.827   6.455
 8934POPC   D2A44044  19.009   5.909   6.755
 8934POPC   C3A44045  19.081   5.911   7.055
 8934POPC   C4A44046  19.076   5.840   7.355
 8934POPC   C1B44047  19.281   5.680   6.455
 8934POPC   C2B44048  19.286   5.698   6.755
 8934POPC   C3B44049  19.298   5.724   7.055
 8934POPC   C4B44050  19.237   5.690   7.355
 8935POPC   NC344051   6.651  40.809   5.555
 8935POPC   PO444052   6.635  40.794   5.855
 8935POPC   GL144053   6.694  40.752   6.155
 8935POPC   GL244054   6.601  40.932   6.155
 8935POPC   C1A44055   6.665  40.798   6.455
 8935POPC   D2A44056   6.626  40.807   6.755
 8935POPC   C3A44057   6.608  40.787   7.055
 8935POPC   C4A44058   6.602  40.810   7.355
 8935POPC   C1B44059   6.634  41.011   6.455
 8935POPC   C2B44060   6.653  41.058   6.755
 8935POPC   C3B44061   6.624  41.052   7.055
 8935POPC   C4B44062   6.645  41.020   7.355
 8936POPC   NC344063  43.140  21.367   5.555
 8936POPC   PO444064  43.149  21.433   5.855
 8936POPC   GL144065  43.149  21.336   6.155
 8936POPC   GL244066  43.193  21.499   6.155
 8936POPC   C1A44067  43.140  21.339   6.455
 8936POPC   D2A44068  43.135  21.338   6.755
 8936POPC   C3A44069  43.151  21.375   7.055
 8936POPC   C4A44070  43.097  21.341   7.355
 8936POPC   C1B44071  43.342  21.525   6.455
 8936POPC   C2B44072  43.276  21.581   6.755
 8936POPC   C3B44073  43.318  21.527   7.055
 8936POPC   C4B44074  43.320  21.578   7.355
 8937POPC   NC344075   6.635   8.241   5.555
 8937POPC   PO444076   6.642   8.243   5.855
 8937POPC   GL144077   6.611   8.233   6.155
 8937POPC   GL244078   6.544   8.143   6.155
 8937POPC   C1A44079   6.636   8.246   6.455
 8937POPC   D2A44080   6.644   8.204   6.755
 8937POPC   C3A44081   6.639   8.237   7.055
 8937POPC   C4A44082   6.646   8.244   7.355
 8937POPC   C1B44083   6.426   7.969   6.455
 8937POPC   C2B44084   6.454   8.001   6.755
 8937POPC   C3B44085   6.512   7.980   7.055
 8937POPC   C4B44086   6.428   7.973   7.355
 8938POPC   NC344087   4.360  13.631   5.555
 8938POPC   PO444088   4.366  13.614   5.855
 8938POPC   GL144089   4.350  13.649   6.155
 8938POPC   GL244090   4.227  13.687   6.155
 8938POPC   C1A44091   4.318  13.604   6.455
 8938POPC   D2A44092   4.313  13.651   6.755
 8938POPC   C3A44093   4.338  13.581   7.055
 8938POPC   C4A44094   4.361  13.580   7.355
 8938POPC   C1B44095   4.136  13.776   6.455
 8938POPC   C2B44096   4.052  13.796   6.755
 8938POPC   C3B44097   4.100  13.775   7.055
 8938POPC   C4B44098   4.066  13.783   7.355
 8939POPC   NC344099  34.552  13.597   5.555
 8939POPC   PO444100  34.582  13.586   5.855
 8939POPC   GL144101  34.583  13.612   6.155
 8939POPC   GL244102  34.635  13.723   6.155
 8939POPC   C1A44103  34.527  13.640   6.455
 8939POPC   D2A44104  34.609  13.631   6.755
 8939POPC   C3A44105  34.566  13.617   7.055
 8939POPC   C4A44106  34.604  13.608   7.355
 8939POPC   C1B44107  34.596  13.881   6.455
 8939POPC   C2B44108  34.642  13.843   6.755
 8939POPC   C3B44109  34.587  13.905   7.055
 8939POPC   C4B44110  34.652  13.845   7.355
 8940POPC   NC344111  39.267  29.947   5.555
 8940POPC   PO444112  39.215  29.968   5.855
 8940POPC   GL144113  39.243  29.960   6.155
 8940POPC   GL244114  39.276  29.812   6.155
 8940POPC   C1A44115  39.181  29.876   6.455
 8940POPC   D2A44116  39.230  29.909   6.755
 8940POPC   C3A44117  39.187  29.920   7.055
 8940POPC   C4A44118  39.184  29.969   7.355
 8940POPC   C1B44119  39.342  29.710   6.455
 8940POPC   C2B44120  39.300  29.720   6.755
 8940POPC   C3B44121  39.320  29.727   7.055
 8940POPC   C4B44122  39.345  29.725   7.355
 8941POPC   NC344123  42.309  35.333   5.555
 8941POPC   PO444124  42.320  35.308   5.855
 8941POPC   GL144125  42.370  35.317   6.155
 8941POPC   GL244126  42.235  35.502   6.155
 8941POPC   C1A44127  42.370  35.394   6.455
 8941POPC   D2A44128  42.299  35.314   6.755
 8941POPC   C3A44129  42.291  35.371   7.055
 8941POPC   C4A44130  42.287  35.373   7.355
 8941POPC   C1B44131  42.169  35.572   6.455
 8941POPC   C2B44132  42.158  35.521   6.755
 8941POPC   C3B44133  42.241  35.598   7.055
 8941POPC   C4B44134  42.203  35.509   7.355
 8942POPC   NC344135  11.262  41.591   5.555
 8942POPC   PO444136  11.260  41.582   5.855
 8942POPC   GL144137  11.335  41.598   6.155
 8942POPC   GL244138  11.460  41.572   6.155
 8942POPC   C1A44139  11.298  41.521   6.455
 8942POPC   D2A44140  11.289  41.560   6.755
 8942POPC   C3A44141  11.267  41.602   7.055
 8942POPC   C4A44142  11.296  41.516   7.355
 8942POPC   C1B44143  11.590  41.528   6.455
 8942POPC   C2B44144  11.584  41.565   6.755
 8942POPC   C3B44145  11.592  41.518   7.055
 8942POPC   C4B44146  11.590  41.504   7.355
 8943POPC   NC344147  16.737   5.888   5.555
 8943POPC   PO444148  16.731   5.821   5.855
 8943POPC   GL144149  16.700   5.909   6.155
 8943POPC   GL244150  16.607   5.927   6.155
 8943POPC   C1A44151  16.736   5.880   6.455
 8943POPC   D2A44152  16.737   5.831   6.755
 8943POPC   C3A44153  16.687   5.827   7.055
 8943POPC   C4A44154  16.761   5.842   7.355
 8943POPC   C1B44155  16.588   6.101   6.455
 8943POPC   C2B44156  16.572   6.101   6.755
 8943POPC   C3B44157  16.586   6.080   7.055
 8943POPC   C4B44158  16.610   6.099   7.355
 8944POPC   NC344159  14.434  25.233   5.555
 8944POPC   PO444160  14.403  25.306   5.855
 8944POPC   GL144161  14.366  25.245   6.155
 8944POPC   GL244162  14.502  25.222   6.155
 8944POPC   C1A44163  14.422  25.313   6.455
 8944POPC   D2A44164  14.369  25.244   6.755
 8944POPC   C3A44165  14.444  25.284   7.055
 8944POPC   C4A44166  14.367  25.252   7.355
 8944POPC   C1B44167  14.642  25.164   6.455
 8944POPC   C2B44168  14.568  25.138   6.755
 8944POPC   C3B44169  14.656  25.164   7.055
 8944POPC   C4B44170  14.583  25.134   7.355
 8945POPC   NC344171  12.031  14.385   5.555
 8945POPC   PO444172  12.076  14.414   5.855
 8945POPC   GL144173  12.065  14.384   6.155
 8945POPC   GL244174  12.075  14.322   6.155
 8945POPC   C1A44175  12.118  14.389   6.455
 8945POPC   D2A44176  12.091  14.402   6.755
 8945POPC   C3A44177  12.057  14.428   7.055
 8945POPC   C4A44178  12.094  14.418   7.355
 8945POPC   C1B44179  12.098  14.130   6.455
 8945POPC   C2B44180  12.142  14.189   6.755
 8945POPC   C3B44181  12.152  14.159   7.055
 8945POPC   C4B44182  12.161  14.111   7.355
 8946POPC   NC344183   8.156  41.534   5.555
 8946POPC   PO444184   8.244  41.579   5.855
 8946POPC   GL144185   8.243  41.605   6.155
 8946POPC   GL244186   8.137  41.470   6.155
 8946POPC   C1A44187   8.179  41.600   6.455
 8946POPC   D2A44188   8.164  41.601   6.755
 8946POPC   C3A44189   8.234  41.547   7.055
 8946POPC   C4A44190   8.217  41.577   7.355
 8946POPC   C1B44191   8.107  41.359   6.455
 8946POPC   C2B44192   8.097  41.328   6.755
 8946POPC   C3B44193   8.141  41.322   7.055
 8946POPC   C4B44194   8.060  41.286   7.355
 8947POPC   NC344195   3.497  43.918   5.555
 8947POPC   PO444196   3.516  43.851   5.855
 8947POPC   GL144197   3.575  43.905   6.155
 8947POPC   GL244198   3.461  43.964   6.155
 8947POPC   C1A44199   3.498  43.908   6.455
 8947POPC   D2A44200   3.573  43.870   6.755
 8947POPC   C3A44201   3.541  43.843   7.055
 8947POPC   C4A44202   3.492  43.906   7.355
 8947POPC   C1B44203   3.388  44.035   6.455
 8947POPC   C2B44204   3.400  44.107   6.755
 8947POPC   C3B44205   3.376  44.050   7.055
 8947POPC   C4B44206   3.401  44.042   7.355
 8948POPC   NC344207  14.406   6.622   5.555
 8948POPC   PO444208  14.382   6.636   5.855
 8948POPC   GL144209  14.433   6.686   6.155
 8948POPC   GL244210  14.478   6.782   6.155
 8948POPC   C1A44211  14.438   6.672   6.455
 8948POPC   D2A44212  14.362   6.638   6.755
 8948POPC   C3A44213  14.449   6.620   7.055
 8948POPC   C4A44214  14.426   6.640   7.355
 8948POPC   C1B44215  14.533   6.879   6.455
 8948POPC   C2B44216  14.576   6.814   6.755
 8948POPC   C3B44217  14.589   6.848   7.055
 8948POPC   C4B44218  14.520   6.889   7.355
 8949POPC   NC344219  14.444   7.423   5.555
 8949POPC   PO444220  14.385   7.441   5.855
 8949POPC   GL144221  14.416   7.451   6.155
 8949POPC   GL244222  14.429   7.309   6.155
 8949POPC   C1A44223  14.421   7.383   6.455
 8949POPC   D2A44224  14.380   7.379   6.755
 8949POPC   C3A44225  14.392   7.393   7.055
 8949POPC   C4A44226  14.443   7.399   7.355
 8949POPC   C1B44227  14.465   7.155   6.455
 8949POPC   C2B44228  14.420   7.201   6.755
 8949POPC   C3B44229  14.461   7.136   7.055
 8949POPC   C4B44230  14.423   7.198   7.355
 8950POPC   NC344231  37.724   2.814   5.555
 8950POPC   PO444232  37.654   2.806   5.855
 8950POPC   GL144233  37.630   2.749   6.155
 8950POPC   GL244234  37.762   2.794   6.155
 8950POPC   C1A44235  37.701   2.750   6.455
 8950POPC   D2A44236  37.635   2.789   6.755
 8950POPC   C3A44237  37.713   2.787   7.055
 8950POPC   C4A44238  37.664   2.724   7.355
 8950POPC   C1B44239  37.920   2.764   6.455
 8950POPC   C2B44240  37.926   2.735   6.755
 8950POPC   C3B44241  37.965   2.700   7.055
 8950POPC   C4B44242  37.903   2.769   7.355
 8951POPC   NC344243  14.405   3.555   5.555
 8951POPC   PO444244  14.441   3.574   5.855
 8951POPC   GL144245  14.445   3.516   6.155
 8951POPC   GL244246  14.345   3.474   6.155
 8951POPC   C1A44247  14.436   3.554   6.455
 8951POPC   D2A44248  14.385   3.493   6.755
 8951POPC   C3A44249  14.420   3.529   7.055
 8951POPC   C4A44250  14.432   3.536   7.355
 8951POPC   C1B44251  14.299   3.334   6.455
 8951POPC   C2B44252  14.360   3.341   6.755
 8951POPC   C3B44253  14.273   3.305   7.055
 8951POPC   C4B44254  14.339   3.262   7.355
 8952POPC   NC344255  19.079  42.305   5.555
 8952POPC   PO444256  19.015  42.372   5.855
 8952POPC   GL144257  19.093  42.371   6.155
 8952POPC   GL244258  19.029  42.250   6.155
 8952POPC   C1A44259  19.014  42.291   6.455
 8952POPC   D2A44260  19.108  42.345   6.755
 8952POPC   C3A44261  19.016  42.343   7.055
 8952POPC   C4A44262  19.038  42.366   7.355
 8952POPC   C1B44263  19.009  42.119   6.455
 8952POPC   C2B44264  18.947  42.106   6.755
 8952POPC   C3B44265  18.970  42.143   7.055
 8952POPC   C4B44266  18.971  42.057   7.355
 8953POPC   NC344267  21.369  14.395   5.555
 8953POPC   PO444268  21.348  14.433   5.855
 8953POPC   GL144269  21.389  14.437   6.155
 8953POPC   GL244270  21.446  14.507   6.155
 8953POPC   C1A44271  21.354  14.373   6.455
 8953POPC   D2A44272  21.403  14.390   6.755
 8953POPC   C3A44273  21.423  14.393   7.055
 8953POPC   C4A44274  21.427  14.409   7.355
 8953POPC   C1B44275  21.405  14.643   6.455
 8953POPC   C2B44276  21.460  14.676   6.755
 8953POPC   C3B44277  21.395  14.661   7.055
 8953POPC   C4B44278  21.371  14.680   7.355
 8954POPC   NC344279  39.228  18.249   5.555
 8954POPC   PO444280  39.256  18.316   5.855
 8954POPC   GL144281  39.235  18.291   6.155
 8954POPC   GL244282  39.271  18.142   6.155
 8954POPC   C1A44283  39.209  18.320   6.455
 8954POPC   D2A44284  39.245  18.296   6.755
 8954POPC   C3A44285  39.250  18.328   7.055
 8954POPC   C4A44286  39.262  18.332   7.355
 8954POPC   C1B44287  39.390  18.069   6.455
 8954POPC   C2B44288  39.338  18.134   6.755
 8954POPC   C3B44289  39.381  18.131   7.055
 8954POPC   C4B44290  39.425  18.108   7.355
 8955POPC   NC344291   3.545  27.544   5.555
 8955POPC   PO444292   3.538  27.595   5.855
 8955POPC   GL144293   3.509  27.593   6.155
 8955POPC   GL244294   3.480  27.704   6.155
 8955POPC   C1A44295   3.554  27.586   6.455
 8955POPC   D2A44296   3.590  27.633   6.755
 8955POPC   C3A44297   3.530  27.600   7.055
 8955POPC   C4A44298   3.563  27.611   7.355
 8955POPC   C1B44299   3.505  27.802   6.455
 8955POPC   C2B44300   3.502  27.812   6.755
 8955POPC   C3B44301   3.507  27.851   7.055
 8955POPC   C4B44302   3.540  27.820   7.355
 8956POPC   NC344303  43.061  36.132   5.555
 8956POPC   PO444304  43.129  36.094   5.855
 8956POPC   GL144305  43.114  36.176   6.155
 8956POPC   GL244306  43.043  36.268   6.155
 8956POPC   C1A44307  43.122  36.083   6.455
 8956POPC   D2A44308  43.125  36.103   6.755
 8956POPC   C3A44309  43.137  36.082   7.055
 8956POPC   C4A44310  43.126  36.156   7.355
 8956POPC   C1B44311  42.949  36.352   6.455
 8956POPC   C2B44312  42.900  36.276   6.755
 8956POPC   C3B44313  42.928  36.265   7.055
 8956POPC   C4B44314  42.955  36.274   7.355
 8957POPC   NC344315  20.580  25.280   5.555
 8957POPC   PO444316  20.617  25.301   5.855
 8957POPC   GL144317  20.612  25.290   6.155
 8957POPC   GL244318  20.592  25.175   6.155
 8957POPC   C1A44319  20.603  25.263   6.455
 8957POPC   D2A44320  20.614  25.258   6.755
 8957POPC   C3A44321  20.656  25.239   7.055
 8957POPC   C4A44322  20.654  25.235   7.355
 8957POPC   C1B44323  20.582  24.998   6.455
 8957POPC   C2B44324  20.608  25.065   6.755
 8957POPC   C3B44325  20.574  25.014   7.055
 8957POPC   C4B44326  20.632  25.062   7.355
 8958POPC   NC344327  28.414  13.613   5.555
 8958POPC   PO444328  28.366  13.671   5.855
 8958POPC   GL144329  28.326  13.625   6.155
 8958POPC   GL244330  28.222  13.666   6.155
 8958POPC   C1A44331  28.340  13.615   6.455
 8958POPC   D2A44332  28.338  13.644   6.755
 8958POPC   C3A44333  28.333  13.603   7.055
 8958POPC   C4A44334  28.333  13.644   7.355
 8958POPC   C1B44335  28.121  13.618   6.455
 8958POPC   C2B44336  28.122  13.616   6.755
 8958POPC   C3B44337  28.104  13.654   7.055
 8958POPC   C4B44338  28.150  13.653   7.355
 8959POPC   NC344339  33.811   4.312   5.555
 8959POPC   PO444340  33.800   4.328   5.855
 8959POPC   GL144341  33.771   4.325   6.155
 8959POPC   GL244342  33.678   4.321   6.155
 8959POPC   C1A44343  33.846   4.345   6.455
 8959POPC   D2A44344  33.842   4.278   6.755
 8959POPC   C3A44345  33.809   4.295   7.055
 8959POPC   C4A44346  33.766   4.279   7.355
 8959POPC   C1B44347  33.540   4.354   6.455
 8959POPC   C2B44348  33.550   4.311   6.755
 8959POPC   C3B44349  33.561   4.326   7.055
 8959POPC   C4B44350  33.503   4.345   7.355
 8960POPC   NC344351   0.435  33.047   5.555
 8960POPC   PO444352   0.418  33.068   5.855
 8960POPC   GL144353   0.479  33.042   6.155
 8960POPC   GL244354   0.531  33.032   6.155
 8960POPC   C1A44355   0.424  33.009   6.455
 8960POPC   D2A44356   0.479  32.986   6.755
 8960POPC   C3A44357   0.454  33.072   7.055
 8960POPC   C4A44358   0.402  33.045   7.355
 8960POPC   C1B44359   0.623  33.150   6.455
 8960POPC   C2B44360   0.712  33.149   6.755
 8960POPC   C3B44361   0.672  33.144   7.055
 8960POPC   C4B44362   0.700  33.127   7.355
 8961POPC   NC344363  16.699   1.202   5.555
 8961POPC   PO444364  16.736   1.201   5.855
 8961POPC   GL144365  16.712   1.240   6.155
 8961POPC   GL244366  16.634   1.103   6.155
 8961POPC   C1A44367  16.682   1.172   6.455
 8961POPC   D2A44368  16.779   1.242   6.755
 8961POPC   C3A44369  16.760   1.259   7.055
 8961POPC   C4A44370  16.735   1.220   7.355
 8961POPC   C1B44371  16.606   1.010   6.455
 8961POPC   C2B44372  16.612   0.996   6.755
 8961POPC   C3B44373  16.586   1.055   7.055
 8961POPC   C4B44374  16.517   1.005   7.355
 8962POPC   NC344375  33.796  17.537   5.555
 8962POPC   PO444376  33.839  17.532   5.855
 8962POPC   GL144377  33.767  17.516   6.155
 8962POPC   GL244378  33.884  17.366   6.155
 8962POPC   C1A44379  33.832  17.550   6.455
 8962POPC   D2A44380  33.829  17.514   6.755
 8962POPC   C3A44381  33.753  17.541   7.055
 8962POPC   C4A44382  33.826  17.534   7.355
 8962POPC   C1B44383  33.901  17.283   6.455
 8962POPC   C2B44384  33.912  17.254   6.755
 8962POPC   C3B44385  33.964  17.263   7.055
 8962POPC   C4B44386  33.870  17.283   7.355
 8963POPC   NC344387  37.723  21.401   5.555
 8963POPC   PO444388  37.660  21.358   5.855
 8963POPC   GL144389  37.631  21.375   6.155
 8963POPC   GL244390  37.781  21.329   6.155
 8963POPC   C1A44391  37.729  21.358   6.455
 8963POPC   D2A44392  37.693  21.406   6.755
 8963POPC   C3A44393  37.669  21.358   7.055
 8963POPC   C4A44394  37.690  21.356   7.355
 8963POPC   C1B44395  37.978  21.342   6.455
 8963POPC   C2B44396  37.942  21.351   6.755
 8963POPC   C3B44397  37.879  21.350   7.055
 8963POPC   C4B44398  37.921  21.390   7.355
 8964POPC   NC344399  33.787  29.141   5.555
 8964POPC   PO444400  33.782  29.104   5.855
 8964POPC   GL144401  33.825  29.181   6.155
 8964POPC   GL244402  33.939  29.200   6.155
 8964POPC   C1A44403  33.795  29.139   6.455
 8964POPC   D2A44404  33.793  29.182   6.755
 8964POPC   C3A44405  33.811  29.181   7.055
 8964POPC   C4A44406  33.763  29.138   7.355
 8964POPC   C1B44407  34.027  29.233   6.455
 8964POPC   C2B44408  34.054  29.250   6.755
 8964POPC   C3B44409  34.001  29.226   7.055
 8964POPC   C4B44410  34.069  29.273   7.355
 8965POPC   NC344411  12.819  18.244   5.555
 8965POPC   PO444412  12.835  18.284   5.855
 8965POPC   GL144413  12.806  18.253   6.155
 8965POPC   GL244414  12.854  18.172   6.155
 8965POPC   C1A44415  12.808  18.245   6.455
 8965POPC   D2A44416  12.831  18.326   6.755
 8965POPC   C3A44417  12.802  18.282   7.055
 8965POPC   C4A44418  12.846  18.293   7.355
 8965POPC   C1B44419  12.844  18.053   6.455
 8965POPC   C2B44420  12.929  18.038   6.755
 8965POPC   C3B44421  12.876  18.033   7.055
 8965POPC   C4B44422  12.890  18.068   7.355
 8966POPC   NC344423  36.864   5.119   5.555
 8966POPC   PO444424  36.913   5.082   5.855
 8966POPC   GL144425  36.931   5.106   6.155
 8966POPC   GL244426  37.029   5.057   6.155
 8966POPC   C1A44427  36.932   5.089   6.455
 8966POPC   D2A44428  36.924   5.140   6.755
 8966POPC   C3A44429  36.941   5.044   7.055
 8966POPC   C4A44430  36.876   5.056   7.355
 8966POPC   C1B44431  37.142   5.009   6.455
 8966POPC   C2B44432  37.153   4.986   6.755
 8966POPC   C3B44433  37.173   5.057   7.055
 8966POPC   C4B44434  37.136   5.070   7.355
 8967POPC   NC344435   6.690  36.944   5.555
 8967POPC   PO444436   6.617  36.889   5.855
 8967POPC   GL144437   6.613  36.929   6.155
 8967POPC   GL244438   6.556  36.976   6.155
 8967POPC   C1A44439   6.653  36.922   6.455
 8967POPC   D2A44440   6.628  36.900   6.755
 8967POPC   C3A44441   6.625  36.916   7.055
 8967POPC   C4A44442   6.687  36.875   7.355
 8967POPC   C1B44443   6.442  37.029   6.455
 8967POPC   C2B44444   6.419  37.071   6.755
 8967POPC   C3B44445   6.471  37.007   7.055
 8967POPC   C4B44446   6.418  37.073   7.355
 8968POPC   NC344447  38.425  24.442   5.555
 8968POPC   PO444448  38.405  24.490   5.855
 8968POPC   GL144449  38.425  24.505   6.155
 8968POPC   GL244450  38.490  24.328   6.155
 8968POPC   C1A44451  38.473  24.487   6.455
 8968POPC   D2A44452  38.435  24.521   6.755
 8968POPC   C3A44453  38.470  24.472   7.055
 8968POPC   C4A44454  38.486  24.534   7.355
 8968POPC   C1B44455  38.388  24.224   6.455
 8968POPC   C2B44456  38.380  24.281   6.755
 8968POPC   C3B44457  38.382  24.260   7.055
 8968POPC   C4B44458  38.381  24.232   7.355
 8969POPC   NC344459  26.799   1.245   5.555
 8969POPC   PO444460  26.860   1.210   5.855
 8969POPC   GL144461  26.775   1.194   6.155
 8969POPC   GL244462  26.755   1.126   6.155
 8969POPC   C1A44463  26.786   1.236   6.455
 8969POPC   D2A44464  26.818   1.201   6.755
 8969POPC   C3A44465  26.800   1.175   7.055
 8969POPC   C4A44466  26.852   1.184   7.355
 8969POPC   C1B44467  26.670   1.036   6.455
 8969POPC   C2B44468  26.636   0.993   6.755
 8969POPC   C3B44469  26.691   1.072   7.055
 8969POPC   C4B44470  26.681   1.060   7.355
 8970POPC   NC344471  28.399  19.033   5.555
 8970POPC   PO444472  28.415  19.017   5.855
 8970POPC   GL144473  28.388  19.069   6.155
 8970POPC   GL244474  28.297  19.078   6.155
 8970POPC   C1A44475  28.414  19.085   6.455
 8970POPC   D2A44476  28.404  19.107   6.755
 8970POPC   C3A44477  28.385  19.018   7.055
 8970POPC   C4A44478  28.390  19.034   7.355
 8970POPC   C1B44479  28.077  19.011   6.455
 8970POPC   C2B44480  28.176  19.000   6.755
 8970POPC   C3B44481  28.158  18.982   7.055
 8970POPC   C4B44482  28.079  19.002   7.355
 8971POPC   NC344483  39.256  12.806   5.555
 8971POPC   PO444484  39.194  12.895   5.855
 8971POPC   GL144485  39.191  12.860   6.155
 8971POPC   GL244486  39.329  12.801   6.155
 8971POPC   C1A44487  39.197  12.895   6.455
 8971POPC   D2A44488  39.258  12.890   6.755
 8971POPC   C3A44489  39.250  12.859   7.055
 8971POPC   C4A44490  39.204  12.866   7.355
 8971POPC   C1B44491  39.404  12.664   6.455
 8971POPC   C2B44492  39.384  12.657   6.755
 8971POPC   C3B44493  39.405  12.689   7.055
 8971POPC   C4B44494  39.391  12.704   7.355
 8972POPC   NC344495  24.498  38.410   5.555
 8972POPC   PO444496  24.509  38.455   5.855
 8972POPC   GL144497  24.517  38.495   6.155
 8972POPC   GL244498  24.520  38.525   6.155
 8972POPC   C1A44499  24.489  38.422   6.455
 8972POPC   D2A44500  24.504  38.414   6.755
 8972POPC   C3A44501  24.452  38.479   7.055
 8972POPC   C4A44502  24.517  38.476   7.355
 8972POPC   C1B44503  24.569  38.685   6.455
 8972POPC   C2B44504  24.598  38.690   6.755
 8972POPC   C3B44505  24.630  38.668   7.055
 8972POPC   C4B44506  24.614  38.636   7.355
 8973POPC   NC344507  34.569  12.890   5.555
 8973POPC   PO444508  34.613  12.889   5.855
 8973POPC   GL144509  34.559  12.891   6.155
 8973POPC   GL244510  34.460  12.895   6.155
 8973POPC   C1A44511  34.580  12.901   6.455
 8973POPC   D2A44512  34.621  12.844   6.755
 8973POPC   C3A44513  34.564  12.864   7.055
 8973POPC   C4A44514  34.538  12.883   7.355
 8973POPC   C1B44515  34.370  12.891   6.455
 8973POPC   C2B44516  34.365  12.920   6.755
 8973POPC   C3B44517  34.333  12.933   7.055
 8973POPC   C4B44518  34.382  12.901   7.355
 8974POPC   NC344519  20.564  18.331   5.555
 8974POPC   PO444520  20.659  18.291   5.855
 8974POPC   GL144521  20.644  18.260   6.155
 8974POPC   GL244522  20.585  18.145   6.155
 8974POPC   C1A44523  20.563  18.318   6.455
 8974POPC   D2A44524  20.612  18.239   6.755
 8974POPC   C3A44525  20.648  18.294   7.055
 8974POPC   C4A44526  20.653  18.247   7.355
 8974POPC   C1B44527  20.616  18.001   6.455
 8974POPC   C2B44528  20.659  18.018   6.755
 8974POPC   C3B44529  20.615  18.059   7.055
 8974POPC   C4B44530  20.665  18.008   7.355
 8975POPC   NC344531  17.538   8.933   5.555
 8975POPC   PO444532  17.547   8.984   5.855
 8975POPC   GL144533  17.539   8.951   6.155
 8975POPC   GL244534  17.431   8.898   6.155
 8975POPC   C1A44535  17.524   8.931   6.455
 8975POPC   D2A44536  17.492   8.956   6.755
 8975POPC   C3A44537  17.516   8.989   7.055
 8975POPC   C4A44538  17.556   8.999   7.355
 8975POPC   C1B44539  17.257   8.893   6.455
 8975POPC   C2B44540  17.229   8.944   6.755
 8975POPC   C3B44541  17.229   8.916   7.055
 8975POPC   C4B44542  17.316   8.901   7.355
 8976POPC   NC344543  38.456  11.315   5.555
 8976POPC   PO444544  38.465  11.345   5.855
 8976POPC   GL144545  38.426  11.267   6.155
 8976POPC   GL244546  38.493  11.216   6.155
 8976POPC   C1A44547  38.460  11.254   6.455
 8976POPC   D2A44548  38.473  11.289   6.755
 8976POPC   C3A44549  38.452  11.288   7.055
 8976POPC   C4A44550  38.486  11.350   7.355
 8976POPC   C1B44551  38.619  11.151   6.455
 8976POPC   C2B44552  38.600  11.086   6.755
 8976POPC   C3B44553  38.584  11.071   7.055
 8976POPC   C4B44554  38.635  11.111   7.355
 8977POPC   NC344555  38.413  29.189   5.555
 8977POPC   PO444556  38.444  29.186   5.855
 8977POPC   GL144557  38.445  29.140   6.155
 8977POPC   GL244558  38.575  29.227   6.155
 8977POPC   C1A44559  38.411  29.151   6.455
 8977POPC   D2A44560  38.441  29.139   6.755
 8977POPC   C3A44561  38.494  29.192   7.055
 8977POPC   C4A44562  38.480  29.194   7.355
 8977POPC   C1B44563  38.660  29.289   6.455
 8977POPC   C2B44564  38.680  29.247   6.755
 8977POPC   C3B44565  38.655  29.231   7.055
 8977POPC   C4B44566  38.698  29.310   7.355
 8978POPC   NC344567  30.723  22.941   5.555
 8978POPC   PO444568  30.662  22.951   5.855
 8978POPC   GL144569  30.712  22.940   6.155
 8978POPC   GL244570  30.750  22.860   6.155
 8978POPC   C1A44571  30.738  22.916   6.455
 8978POPC   D2A44572  30.647  22.955   6.755
 8978POPC   C3A44573  30.729  22.931   7.055
 8978POPC   C4A44574  30.677  22.941   7.355
 8978POPC   C1B44575  30.695  22.640   6.455
 8978POPC   C2B44576  30.694  22.720   6.755
 8978POPC   C3B44577  30.733  22.649   7.055
 8978POPC   C4B44578  30.727  22.648   7.355
 8979POPC   NC344579  22.962  30.695   5.555
 8979POPC   PO444580  22.944  30.739   5.855
 8979POPC   GL144581  22.903  30.708   6.155
 8979POPC   GL244582  23.027  30.749   6.155
 8979POPC   C1A44583  22.910  30.672   6.455
 8979POPC   D2A44584  22.972  30.736   6.755
 8979POPC   C3A44585  22.897  30.654   7.055
 8979POPC   C4A44586  22.956  30.722   7.355
 8979POPC   C1B44587  23.144  30.749   6.455
 8979POPC   C2B44588  23.202  30.813   6.755
 8979POPC   C3B44589  23.135  30.752   7.055
 8979POPC   C4B44590  23.182  30.777   7.355
 8980POPC   NC344591  32.996   1.218   5.555
 8980POPC   PO444592  33.017   1.181   5.855
 8980POPC   GL144593  32.977   1.192   6.155
 8980POPC   GL244594  33.193   1.234   6.155
 8980POPC   C1A44595  32.999   1.222   6.455
 8980POPC   D2A44596  33.034   1.187   6.755
 8980POPC   C3A44597  33.036   1.237   7.055
 8980POPC   C4A44598  32.989   1.260   7.355
 8980POPC   C1B44599  33.270   1.278   6.455
 8980POPC   C2B44600  33.244   1.269   6.755
 8980POPC   C3B44601  33.266   1.197   7.055
 8980POPC   C4B44602  33.274   1.191   7.355
 8981POPC   NC344603  19.798   6.634   5.555
 8981POPC   PO444604  19.800   6.616   5.855
 8981POPC   GL144605  19.879   6.662   6.155
 8981POPC   GL244606  19.775   6.551   6.155
 8981POPC   C1A44607  19.831   6.616   6.455
 8981POPC   D2A44608  19.883   6.617   6.755
 8981POPC   C3A44609  19.870   6.646   7.055
 8981POPC   C4A44610  19.811   6.684   7.355
 8981POPC   C1B44611  19.587   6.504   6.455
 8981POPC   C2B44612  19.596   6.500   6.755
 8981POPC   C3B44613  19.615   6.550   7.055
 8981POPC   C4B44614  19.673   6.498   7.355
 8982POPC   NC344615  43.061   7.412   5.555
 8982POPC   PO444616  43.147   7.371   5.855
 8982POPC   GL144617  43.147   7.422   6.155
 8982POPC   GL244618  43.251   7.288   6.155
 8982POPC   C1A44619  43.125   7.409   6.455
 8982POPC   D2A44620  43.122   7.389   6.755
 8982POPC   C3A44621  43.104   7.437   7.055
 8982POPC   C4A44622  43.079   7.416   7.355
 8982POPC   C1B44623  43.296   7.226   6.455
 8982POPC   C2B44624  43.301   7.259   6.755
 8982POPC   C3B44625  43.337   7.290   7.055
 8982POPC   C4B44626  43.343   7.251   7.355
 8983POPC   NC344627  42.321  36.949   5.555
 8983POPC   PO444628  42.295  36.878   5.855
 8983POPC   GL144629  42.327  36.899   6.155
 8983POPC   GL244630  42.261  36.810   6.155
 8983POPC   C1A44631  42.360  36.886   6.455
 8983POPC   D2A44632  42.298  36.864   6.755
 8983POPC   C3A44633  42.320  36.880   7.055
 8983POPC   C4A44634  42.342  36.924   7.355
 8983POPC   C1B44635  42.106  36.790   6.455
 8983POPC   C2B44636  42.078  36.797   6.755
 8983POPC   C3B44637  42.151  36.800   7.055
 8983POPC   C4B44638  42.060  36.844   7.355
 8984POPC   NC344639  22.948  15.951   5.555
 8984POPC   PO444640  22.955  15.934   5.855
 8984POPC   GL144641  22.963  15.932   6.155
 8984POPC   GL244642  22.925  16.116   6.155
 8984POPC   C1A44643  22.954  15.962   6.455
 8984POPC   D2A44644  22.917  16.002   6.755
 8984POPC   C3A44645  22.974  15.936   7.055
 8984POPC   C4A44646  22.905  15.909   7.355
 8984POPC   C1B44647  22.858  16.164   6.455
 8984POPC   C2B44648  22.907  16.230   6.755
 8984POPC   C3B44649  22.854  16.236   7.055
 8984POPC   C4B44650  22.812  16.180   7.355
 8985POPC   NC344651  29.964  23.674   5.555
 8985POPC   PO444652  29.912  23.733   5.855
 8985POPC   GL144653  29.955  23.675   6.155
 8985POPC   GL244654  29.889  23.864   6.155
 8985POPC   C1A44655  29.960  23.705   6.455
 8985POPC   D2A44656  29.883  23.764   6.755
 8985POPC   C3A44657  29.872  23.759   7.055
 8985POPC   C4A44658  29.894  23.690   7.355
 8985POPC   C1B44659  29.953  23.976   6.455
 8985POPC   C2B44660  29.915  24.008   6.755
 8985POPC   C3B44661  29.921  24.012   7.055
 8985POPC   C4B44662  29.885  23.916   7.355
 8986POPC   NC344663  21.391  26.810   5.555
 8986POPC   PO444664  21.409  26.811   5.855
 8986POPC   GL144665  21.412  26.768   6.155
 8986POPC   GL244666  21.396  26.912   6.155
 8986POPC   C1A44667  21.375  26.860   6.455
 8986POPC   D2A44668  21.419  26.829   6.755
 8986POPC   C3A44669  21.416  26.785   7.055
 8986POPC   C4A44670  21.387  26.822   7.355
 8986POPC   C1B44671  21.479  27.035   6.455
 8986POPC   C2B44672  21.534  27.085   6.755
 8986POPC   C3B44673  21.510  27.050   7.055
 8986POPC   C4B44674  21.546  26.998   7.355
 8987POPC   NC344675   5.085  28.415   5.555
 8987POPC   PO444676   5.061  28.378   5.855
 8987POPC   GL144677   5.130  28.333   6.155
 8987POPC   GL244678   5.002  28.349   6.155
 8987POPC   C1A44679   5.124  28.364   6.455
 8987POPC   D2A44680   5.058  28.366   6.755
 8987POPC   C3A44681   5.053  28.350   7.055
 8987POPC   C4A44682   5.057  28.329   7.355
 8987POPC   C1B44683   4.816  28.323   6.455
 8987POPC   C2B44684   4.884  28.345   6.755
 8987POPC   C3B44685   4.832  28.337   7.055
 8987POPC   C4B44686   4.874  28.395   7.355
 8988POPC   NC344687   5.879  13.620   5.555
 8988POPC   PO444688   5.848  13.663   5.855
 8988POPC   GL144689   5.845  13.609   6.155
 8988POPC   GL244690   5.952  13.584   6.155
 8988POPC   C1A44691   5.839  13.617   6.455
 8988POPC   D2A44692   5.838  13.583   6.755
 8988POPC   C3A44693   5.882  13.596   7.055
 8988POPC   C4A44694   5.856  13.641   7.355
 8988POPC   C1B44695   6.104  13.444   6.455
 8988POPC   C2B44696   6.117  13.494   6.755
 8988POPC   C3B44697   6.095  13.505   7.055
 8988POPC   C4B44698   6.052  13.483   7.355
 8989POPC   NC344699  13.636  39.961   5.555
 8989POPC   PO444700  13.637  39.999   5.855
 8989POPC   GL144701  13.673  40.030   6.155
 8989POPC   GL244702  13.482  40.032   6.155
 8989POPC   C1A44703  13.620  39.959   6.455
 8989POPC   D2A44704  13.604  40.018   6.755
 8989POPC   C3A44705  13.601  39.987   7.055
 8989POPC   C4A44706  13.618  39.997   7.355
 8989POPC   C1B44707  13.456  40.139   6.455
 8989POPC   C2B44708  13.456  40.104   6.755
 8989POPC   C3B44709  13.386  40.137   7.055
 8989POPC   C4B44710  13.441  40.104   7.355
 8990POPC   NC344711  20.646  44.703   5.555
 8990POPC   PO444712  20.587  44.673   5.855
 8990POPC   GL144713  20.625  44.662   6.155
 8990POPC   GL244714  20.520  44.807   6.155
 8990POPC   C1A44715  20.563  44.684   6.455
 8990POPC   D2A44716  20.569  44.638   6.755
 8990POPC   C3A44717  20.583  44.663   7.055
 8990POPC   C4A44718  20.579  44.620   7.355
 8990POPC   C1B44719  20.540  44.898   6.455
 8990POPC   C2B44720  20.486  44.938   6.755
 8990POPC   C3B44721  20.566  44.940   7.055
 8990POPC   C4B44722  20.476  44.894   7.355
 8991POPC   NC344723  19.874  23.706   5.555
 8991POPC   PO444724  19.839  23.757   5.855
 8991POPC   GL144725  19.799  23.727   6.155
 8991POPC   GL244726  19.800  23.865   6.155
 8991POPC   C1A44727  19.847  23.705   6.455
 8991POPC   D2A44728  19.874  23.753   6.755
 8991POPC   C3A44729  19.844  23.722   7.055
 8991POPC   C4A44730  19.879  23.682   7.355
 8991POPC   C1B44731  19.716  23.917   6.455
 8991POPC   C2B44732  19.779  23.957   6.755
 8991POPC   C3B44733  19.801  23.941   7.055
 8991POPC   C4B44734  19.751  23.932   7.355
 8992POPC   NC344735  19.066   7.385   5.555
 8992POPC   PO444736  19.011   7.380   5.855
 8992POPC   GL144737  19.087   7.382   6.155
 8992POPC   GL244738  19.023   7.545   6.155
 8992POPC   C1A44739  19.044   7.433   6.455
 8992POPC   D2A44740  19.092   7.432   6.755
 8992POPC   C3A44741  19.043   7.392   7.055
 8992POPC   C4A44742  19.031   7.409   7.355
 8992POPC   C1B44743  18.994   7.661   6.455
 8992POPC   C2B44744  18.936   7.658   6.755
 8992POPC   C3B44745  18.911   7.613   7.055
 8992POPC   C4B44746  18.934   7.694   7.355
 8993POPC   NC344747  29.108  12.056   5.555
 8993POPC   PO444748  29.188  12.041   5.855
 8993POPC   GL144749  29.163  12.050   6.155
 8993POPC   GL244750  29.095  11.962   6.155
 8993POPC   C1A44751  29.186  12.089   6.455
 8993POPC   D2A44752  29.127  12.059   6.755
 8993POPC   C3A44753  29.175  12.045   7.055
 8993POPC   C4A44754  29.130  12.026   7.355
 8993POPC   C1B44755  29.077  11.851   6.455
 8993POPC   C2B44756  29.076  11.805   6.755
 8993POPC   C3B44757  29.138  11.829   7.055
 8993POPC   C4B44758  29.122  11.797   7.355
 8994POPC   NC344759  14.403  33.800   5.555
 8994POPC   PO444760  14.383  33.844   5.855
 8994POPC   GL144761  14.433  33.842   6.155
 8994POPC   GL244762  14.511  33.821   6.155
 8994POPC   C1A44763  14.356  33.759   6.455
 8994POPC   D2A44764  14.408  33.804   6.755
 8994POPC   C3A44765  14.434  33.761   7.055
 8994POPC   C4A44766  14.364  33.834   7.355
 8994POPC   C1B44767  14.613  33.925   6.455
 8994POPC   C2B44768  14.656  33.847   6.755
 8994POPC   C3B44769  14.621  33.883   7.055
 8994POPC   C4B44770  14.676  33.909   7.355
 8995POPC   NC344771  36.095  28.381   5.555
 8995POPC   PO444772  36.177  28.397   5.855
 8995POPC   GL144773  36.115  28.392   6.155
 8995POPC   GL244774  36.117  28.220   6.155
 8995POPC   C1A44775  36.177  28.407   6.455
 8995POPC   D2A44776  36.174  28.411   6.755
 8995POPC   C3A44777  36.103  28.328   7.055
 8995POPC   C4A44778  36.167  28.332   7.355
 8995POPC   C1B44779  36.099  28.167   6.455
 8995POPC   C2B44780  36.067  28.117   6.755
 8995POPC   C3B44781  36.138  28.148   7.055
 8995POPC   C4B44782  36.098  28.146   7.355
 8996POPC   NC344783   1.185   5.120   5.555
 8996POPC   PO444784   1.174   5.077   5.855
 8996POPC   GL144785   1.235   5.099   6.155
 8996POPC   GL244786   1.097   5.210   6.155
 8996POPC   C1A44787   1.215   5.140   6.455
 8996POPC   D2A44788   1.180   5.097   6.755
 8996POPC   C3A44789   1.170   5.104   7.055
 8996POPC   C4A44790   1.243   5.139   7.355
 8996POPC   C1B44791   1.014   5.217   6.455
 8996POPC   C2B44792   0.960   5.237   6.755
 8996POPC   C3B44793   0.963   5.192   7.055
 8996POPC   C4B44794   0.995   5.242   7.355
 8997POPC   NC344795  22.983  29.169   5.555
 8997POPC   PO444796  22.967  29.193   5.855
 8997POPC   GL144797  22.952  29.110   6.155
 8997POPC   GL244798  22.867  29.181   6.155
 8997POPC   C1A44799  22.943  29.195   6.455
 8997POPC   D2A44800  22.971  29.105   6.755
 8997POPC   C3A44801  22.911  29.127   7.055
 8997POPC   C4A44802  22.981  29.177   7.355
 8997POPC   C1B44803  22.667  29.204   6.455
 8997POPC   C2B44804  22.694  29.211   6.755
 8997POPC   C3B44805  22.749  29.186   7.055
 8997POPC   C4B44806  22.743  29.215   7.355
 8998POPC   NC344807  24.495  24.479   5.555
 8998POPC   PO444808  24.456  24.446   5.855
 8998POPC   GL144809  24.499  24.451   6.155
 8998POPC   GL244810  24.387  24.585   6.155
 8998POPC   C1A44811  24.502  24.454   6.455
 8998POPC   D2A44812  24.511  24.535   6.755
 8998POPC   C3A44813  24.486  24.489   7.055
 8998POPC   C4A44814  24.508  24.464   7.355
 8998POPC   C1B44815  24.313  24.607   6.455
 8998POPC   C2B44816  24.250  24.647   6.755
 8998POPC   C3B44817  24.241  24.596   7.055
 8998POPC   C4B44818  24.314  24.642   7.355
 8999POPC   NC344819  33.021   2.783   5.555
 8999POPC   PO444820  33.013   2.794   5.855
 8999POPC   GL144821  33.012   2.790   6.155
 8999POPC   GL244822  32.963   2.887   6.155
 8999POPC   C1A44823  33.054   2.791   6.455
 8999POPC   D2A44824  33.022   2.787   6.755
 8999POPC   C3A44825  33.005   2.786   7.055
 8999POPC   C4A44826  33.029   2.769   7.355
 8999POPC   C1B44827  32.921   3.007   6.455
 8999POPC   C2B44828  32.888   2.973   6.755
 8999POPC   C3B44829  32.913   2.984   7.055
 8999POPC   C4B44830  32.932   2.956   7.355
 9000POPC   NC344831  12.824   4.290   5.555
 9000POPC   PO444832  12.845   4.296   5.855
 9000POPC   GL144833  12.901   4.349   6.155
 9000POPC   GL244834  12.819   4.424   6.155
 9000POPC   C1A44835  12.823   4.346   6.455
 9000POPC   D2A44836  12.822   4.357   6.755
 9000POPC   C3A44837  12.860   4.291   7.055
 9000POPC   C4A44838  12.865   4.334   7.355
 9000POPC   C1B44839  12.777   4.575   6.455
 9000POPC   C2B44840  12.787   4.584   6.755
 9000POPC   C3B44841  12.707   4.597   7.055
 9000POPC   C4B44842  12.727   4.571   7.355
 9001POPC   NC344843   2.737  39.195   5.555
 9001POPC   PO444844   2.766  39.208   5.855
 9001POPC   GL144845   2.815  39.231   6.155
 9001POPC   GL244846   2.889  39.312   6.155
 9001POPC   C1A44847   2.747  39.239   6.455
 9001POPC   D2A44848   2.778  39.207   6.755
 9001POPC   C3A44849   2.754  39.193   7.055
 9001POPC   C4A44850   2.739  39.267   7.355
 9001POPC   C1B44851   2.941  39.410   6.455
 9001POPC   C2B44852   2.909  39.396   6.755
 9001POPC   C3B44853   2.940  39.380   7.055
 9001POPC   C4B44854   2.894  39.445   7.355
 9002POPC   NC344855  36.880  14.390   5.555
 9002POPC   PO444856  36.883  14.426   5.855
 9002POPC   GL144857  36.894  14.408   6.155
 9002POPC   GL244858  37.060  14.396   6.155
 9002POPC   C1A44859  36.909  14.453   6.455
 9002POPC   D2A44860  36.922  14.396   6.755
 9002POPC   C3A44861  36.864  14.406   7.055
 9002POPC   C4A44862  36.927  14.419   7.355
 9002POPC   C1B44863  37.138  14.395   6.455
 9002POPC   C2B44864  37.121  14.438   6.755
 9002POPC   C3B44865  37.123  14.438   7.055
 9002POPC   C4B44866  37.137  14.439   7.355
 9003POPC   NC344867  40.755  21.349   5.555
 9003POPC   PO444868  40.819  21.362   5.855
 9003POPC   GL144869  40.815  21.406   6.155
 9003POPC   GL244870  40.686  21.477   6.155
 9003POPC   C1A44871  40.793  21.399   6.455
 9003POPC   D2A44872  40.739  21.339   6.755
 9003POPC   C3A44873  40.825  21.375   7.055
 9003POPC   C4A44874  40.736  21.349   7.355
 9003POPC   C1B44875  40.595  21.466   6.455
 9003POPC   C2B44876  40.536  21.482   6.755
 9003POPC   C3B44877  40.585  21.542   7.055
 9003POPC   C4B44878  40.514  21.524   7.355
 9004POPC   NC344879  19.879   1.994   5.555
 9004POPC   PO444880  19.789   2.015   5.855
 9004POPC   GL144881  19.832   1.950   6.155
 9004POPC   GL244882  19.912   2.092   6.155
 9004POPC   C1A44883  19.802   2.013   6.455
 9004POPC   D2A44884  19.809   2.028   6.755
 9004POPC   C3A44885  19.805   1.944   7.055
 9004POPC   C4A44886  19.858   1.962   7.355
 9004POPC   C1B44887  19.896   2.205   6.455
 9004POPC   C2B44888  19.849   2.258   6.755
 9004POPC   C3B44889  19.883   2.259   7.055
 9004POPC   C4B44890  19.881   2.197   7.355
 9005POPC   NC344891  40.013  26.083   5.555
 9005POPC   PO444892  40.041  26.073   5.855
 9005POPC   GL144893  40.041  26.000   6.155
 9005POPC   GL244894  40.161  26.010   6.155
 9005POPC   C1A44895  40.019  26.054   6.455
 9005POPC   D2A44896  39.973  26.035   6.755
 9005POPC   C3A44897  40.048  26.025   7.055
 9005POPC   C4A44898  40.039  26.053   7.355
 9005POPC   C1B44899  40.261  25.941   6.455
 9005POPC   C2B44900  40.276  25.942   6.755
 9005POPC   C3B44901  40.244  25.948   7.055
 9005POPC   C4B44902  40.287  25.948   7.355
 9006POPC   NC344903  39.257  29.115   5.555
 9006POPC   PO444904  39.245  29.124   5.855
 9006POPC   GL144905  39.218  29.140   6.155
 9006POPC   GL244906  39.341  29.203   6.155
 9006POPC   C1A44907  39.212  29.116   6.455
 9006POPC   D2A44908  39.200  29.157   6.755
 9006POPC   C3A44909  39.268  29.171   7.055
 9006POPC   C4A44910  39.239  29.110   7.355
 9006POPC   C1B44911  39.394  29.273   6.455
 9006POPC   C2B44912  39.400  29.295   6.755
 9006POPC   C3B44913  39.389  29.249   7.055
 9006POPC   C4B44914  39.451  29.280   7.355
 9007POPC   NC344915  43.865  30.722   5.555
 9007POPC   PO444916  43.893  30.648   5.855
 9007POPC   GL144917  43.925  30.684   6.155
 9007POPC   GL244918  43.948  30.596   6.155
 9007POPC   C1A44919  43.885  30.706   6.455
 9007POPC   D2A44920  43.932  30.692   6.755
 9007POPC   C3A44921  43.912  30.671   7.055
 9007POPC   C4A44922  43.858  30.736   7.355
 9007POPC   C1B44923  44.122  30.552   6.455
 9007POPC   C2B44924  44.125  30.578   6.755
 9007POPC   C3B44925  44.070  30.514   7.055
 9007POPC   C4B44926  44.128  30.514   7.355
 9008POPC   NC344927  13.674   5.848   5.555
 9008POPC   PO444928  13.648   5.891   5.855
 9008POPC   GL144929  13.677   5.905   6.155
 9008POPC   GL244930  13.750   5.971   6.155
 9008POPC   C1A44931  13.608   5.916   6.455
 9008POPC   D2A44932  13.666   5.890   6.755
 9008POPC   C3A44933  13.594   5.867   7.055
 9008POPC   C4A44934  13.589   5.861   7.355
 9008POPC   C1B44935  13.818   6.015   6.455
 9008POPC   C2B44936  13.862   5.984   6.755
 9008POPC   C3B44937  13.855   6.036   7.055
 9008POPC   C4B44938  13.868   5.955   7.355
 9009POPC   NC344939   2.738  11.310   5.555
 9009POPC   PO444940   2.751  11.277   5.855
 9009POPC   GL144941   2.814  11.284   6.155
 9009POPC   GL244942   2.825  11.231   6.155
 9009POPC   C1A44943   2.792  11.331   6.455
 9009POPC   D2A44944   2.728  11.259   6.755
 9009POPC   C3A44945   2.780  11.273   7.055
 9009POPC   C4A44946   2.750  11.318   7.355
 9009POPC   C1B44947   2.930  11.041   6.455
 9009POPC   C2B44948   2.887  11.066   6.755
 9009POPC   C3B44949   2.877  11.045   7.055
 9009POPC   C4B44950   2.921  11.058   7.355
 9010POPC   NC344951  34.559  43.101   5.555
 9010POPC   PO444952  34.536  43.066   5.855
 9010POPC   GL144953  34.605  43.143   6.155
 9010POPC   GL244954  34.565  43.215   6.155
 9010POPC   C1A44955  34.603  43.108   6.455
 9010POPC   D2A44956  34.616  43.085   6.755
 9010POPC   C3A44957  34.602  43.085   7.055
 9010POPC   C4A44958  34.597  43.140   7.355
 9010POPC   C1B44959  34.485  43.317   6.455
 9010POPC   C2B44960  34.523  43.362   6.755
 9010POPC   C3B44961  34.497  43.347   7.055
 9010POPC   C4B44962  34.559  43.331   7.355
 9011POPC   NC344963  20.636  27.587   5.555
 9011POPC   PO444964  20.583  27.559   5.855
 9011POPC   GL144965  20.614  27.575   6.155
 9011POPC   GL244966  20.713  27.548   6.155
 9011POPC   C1A44967  20.575  27.553   6.455
 9011POPC   D2A44968  20.589  27.575   6.755
 9011POPC   C3A44969  20.644  27.579   7.055
 9011POPC   C4A44970  20.625  27.610   7.355
 9011POPC   C1B44971  20.903  27.538   6.455
 9011POPC   C2B44972  20.846  27.555   6.755
 9011POPC   C3B44973  20.851  27.542   7.055
 9011POPC   C4B44974  20.894  27.555   7.355
 9012POPC   NC344975  14.388  28.348   5.555
 9012POPC   PO444976  14.448  28.392   5.855
 9012POPC   GL144977  14.395  28.332   6.155
 9012POPC   GL244978  14.294  28.420   6.155
 9012POPC   C1A44979  14.421  28.388   6.455
 9012POPC   D2A44980  14.382  28.382   6.755
 9012POPC   C3A44981  14.439  28.352   7.055
 9012POPC   C4A44982  14.377  28.328   7.355
 9012POPC   C1B44983  14.151  28.489   6.455
 9012POPC   C2B44984  14.196  28.449   6.755
 9012POPC   C3B44985  14.188  28.486   7.055
 9012POPC   C4B44986  14.227  28.533   7.355
 9013POPC   NC344987  42.344  24.468   5.555
 9013POPC   PO444988  42.287  24.497   5.855
 9013POPC   GL144989  42.307  24.538   6.155
 9013POPC   GL244990  42.268  24.605   6.155
 9013POPC   C1A44991  42.361  24.507   6.455
 9013POPC   D2A44992  42.320  24.482   6.755
 9013POPC   C3A44993  42.371  24.454   7.055
 9013POPC   C4A44994  42.351  24.440   7.355
 9013POPC   C1B44995  42.256  24.763   6.455
 9013POPC   C2B44996  42.276  24.764   6.755
 9013POPC   C3B44997  42.261  24.695   7.055
 9013POPC   C4B44998  42.328  24.744   7.355
 9014POPC   NC344999   2.735   9.716   5.555
 9014POPC   PO445000   2.782   9.738   5.855
 9014POPC   GL145001   2.718   9.718   6.155
 9014POPC   GL245002   2.716   9.659   6.155
 9014POPC   C1A45003   2.730   9.779   6.455
 9014POPC   D2A45004   2.802   9.706   6.755
 9014POPC   C3A45005   2.716   9.715   7.055
 9014POPC   C4A45006   2.775   9.749   7.355
 9014POPC   C1B45007   2.561   9.601   6.455
 9014POPC   C2B45008   2.630   9.568   6.755
 9014POPC   C3B45009   2.622   9.565   7.055
 9014POPC   C4B45010   2.568   9.559   7.355
 9015POPC   NC345011  10.524  44.615   5.555
 9015POPC   PO445012  10.550  44.702   5.855
 9015POPC   GL145013  10.535  44.632   6.155
 9015POPC   GL245014  10.549  44.801   6.155
 9015POPC   C1A45015  10.539  44.613   6.455
 9015POPC   D2A45016  10.531  44.633   6.755
 9015POPC   C3A45017  10.517  44.645   7.055
 9015POPC   C4A45018  10.535  44.705   7.355
 9015POPC   C1B45019  10.464  44.867   6.455
 9015POPC   C2B45020  10.440  44.935   6.755
 9015POPC   C3B45021  10.451  44.948   7.055
 9015POPC   C4B45022  10.437  44.937   7.355
 9016POPC   NC345023   0.415  29.152   5.555
 9016POPC   PO445024   0.443  29.165   5.855
 9016POPC   GL145025   0.402  29.168   6.155
 9016POPC   GL245026   0.457  29.228   6.155
 9016POPC   C1A45027   0.458  29.167   6.455
 9016POPC   D2A45028   0.480  29.155   6.755
 9016POPC   C3A45029   0.416  29.172   7.055
 9016POPC   C4A45030   0.487  29.145   7.355
 9016POPC   C1B45031   0.510  29.347   6.455
 9016POPC   C2B45032   0.502  29.384   6.755
 9016POPC   C3B45033   0.482  29.370   7.055
 9016POPC   C4B45034   0.430  29.438   7.355
 9017POPC   NC345035  36.138  13.662   5.555
 9017POPC   PO445036  36.171  13.647   5.855
 9017POPC   GL145037  36.129  13.581   6.155
 9017POPC   GL245038  36.015  13.575   6.155
 9017POPC   C1A45039  36.127  13.616   6.455
 9017POPC   D2A45040  36.138  13.602   6.755
 9017POPC   C3A45041  36.144  13.661   7.055
 9017POPC   C4A45042  36.157  13.613   7.355
 9017POPC   C1B45043  35.862  13.507   6.455
 9017POPC   C2B45044  35.841  13.544   6.755
 9017POPC   C3B45045  35.918  13.537   7.055
 9017POPC   C4B45046  35.907  13.592   7.355
 9018POPC   NC345047  25.248  37.706   5.555
 9018POPC   PO445048  25.256  37.719   5.855
 9018POPC   GL145049  25.280  37.699   6.155
 9018POPC   GL245050  25.201  37.509   6.155
 9018POPC   C1A45051  25.216  37.657   6.455
 9018POPC   D2A45052  25.218  37.690   6.755
 9018POPC   C3A45053  25.257  37.683   7.055
 9018POPC   C4A45054  25.221  37.652   7.355
 9018POPC   C1B45055  25.203  37.448   6.455
 9018POPC   C2B45056  25.255  37.398   6.755
 9018POPC   C3B45057  25.229  37.418   7.055
 9018POPC   C4B45058  25.175  37.437   7.355
 9019POPC   NC345059  14.446  33.057   5.555
 9019POPC   PO445060  14.397  33.011   5.855
 9019POPC   GL145061  14.370  33.008   6.155
 9019POPC   GL245062  14.428  32.864   6.155
 9019POPC   C1A45063  14.444  33.052   6.455
 9019POPC   D2A45064  14.367  33.027   6.755
 9019POPC   C3A45065  14.396  32.978   7.055
 9019POPC   C4A45066  14.415  33.027   7.355
 9019POPC   C1B45067  14.379  32.782   6.455
 9019POPC   C2B45068  14.407  32.730   6.755
 9019POPC   C3B45069  14.425  32.820   7.055
 9019POPC   C4B45070  14.404  32.781   7.355
 9020POPC   NC345071   4.324  10.550   5.555
 9020POPC   PO445072   4.317  10.482   5.855
 9020POPC   GL145073   4.314  10.489   6.155
 9020POPC   GL245074   4.179  10.534   6.155
 9020POPC   C1A45075   4.327  10.497   6.455
 9020POPC   D2A45076   4.337  10.557   6.755
 9020POPC   C3A45077   4.314  10.554   7.055
 9020POPC   C4A45078   4.291  10.567   7.355
 9020POPC   C1B45079   4.049  10.610   6.455
 9020POPC   C2B45080   4.081  10.614   6.755
 9020POPC   C3B45081   4.100  10.649   7.055
 9020POPC   C4B45082   4.090  10.616   7.355
 9021POPC   NC345083  15.205  37.635   5.555
 9021POPC   PO445084  15.222  37.649   5.855
 9021POPC   GL145085  15.170  37.647   6.155
 9021POPC   GL245086  15.049  37.766   6.155
 9021POPC   C1A45087  15.220  37.672   6.455
 9021POPC   D2A45088  15.146  37.666   6.755
 9021POPC   C3A45089  15.220  37.684   7.055
 9021POPC   C4A45090  15.187  37.720   7.355
 9021POPC   C1B45091  14.987  37.732   6.455
 9021POPC   C2B45092  14.965  37.806   6.755
 9021POPC   C3B45093  14.983  37.778   7.055
 9021POPC   C4B45094  14.987  37.760   7.355
 9022POPC   NC345095  27.639  24.475   5.555
 9022POPC   PO445096  27.597  24.500   5.855
 9022POPC   GL145097  27.598  24.469   6.155
 9022POPC   GL245098  27.659  24.329   6.155
 9022POPC   C1A45099  27.559  24.523   6.455
 9022POPC   D2A45100  27.597  24.498   6.755
 9022POPC   C3A45101  27.627  24.443   7.055
 9022POPC   C4A45102  27.546  24.475   7.355
 9022POPC   C1B45103  27.600  24.196   6.455
 9022POPC   C2B45104  27.656  24.205   6.755
 9022POPC   C3B45105  27.673  24.238   7.055
 9022POPC   C4B45106  27.617  24.279   7.355
 9023POPC   NC345107  38.505  13.655   5.555
 9023POPC   PO445108  38.460  13.624   5.855
 9023POPC   GL145109  38.495  13.601   6.155
 9023POPC   GL245110  38.582  13.505   6.155
 9023POPC   C1A45111  38.417  13.650   6.455
 9023POPC   D2A45112  38.451  13.676   6.755
 9023POPC   C3A45113  38.496  13.674   7.055
 9023POPC   C4A45114  38.490  13.587   7.355
 9023POPC   C1B45115  38.692  13.509   6.455
 9023POPC   C2B45116  38.619  13.441   6.755
 9023POPC   C3B45117  38.619  13.513   7.055
 9023POPC   C4B45118  38.609  13.459   7.355
 9024POPC   NC345119  27.638  27.565   5.555
 9024POPC   PO445120  27.589  27.624   5.855
 9024POPC   GL145121  27.574  27.580   6.155
 9024POPC   GL245122  27.552  27.763   6.155
 9024POPC   C1A45123  27.551  27.561   6.455
 9024POPC   D2A45124  27.617  27.548   6.755
 9024POPC   C3A45125  27.617  27.617   7.055
 9024POPC   C4A45126  27.613  27.619   7.355
 9024POPC   C1B45127  27.570  27.836   6.455
 9024POPC   C2B45128  27.548  27.851   6.755
 9024POPC   C3B45129  27.602  27.889   7.055
 9024POPC   C4B45130  27.591  27.825   7.355
 9025POPC   NC345131  36.150  39.997   5.555
 9025POPC   PO445132  36.092  39.995   5.855
 9025POPC   GL145133  36.170  40.039   6.155
 9025POPC   GL245134  36.031  40.055   6.155
 9025POPC   C1A45135  36.118  40.003   6.455
 9025POPC   D2A45136  36.092  39.975   6.755
 9025POPC   C3A45137  36.082  40.036   7.055
 9025POPC   C4A45138  36.165  40.053   7.355
 9025POPC   C1B45139  35.939  40.102   6.455
 9025POPC   C2B45140  35.896  40.144   6.755
 9025POPC   C3B45141  35.888  40.105   7.055
 9025POPC   C4B45142  35.887  40.169   7.355
 9026POPC   NC345143  15.186  39.229   5.555
 9026POPC   PO445144  15.139  39.212   5.855
 9026POPC   GL145145  15.169  39.258   6.155
 9026POPC   GL245146  15.187  39.075   6.155
 9026POPC   C1A45147  15.163  39.197   6.455
 9026POPC   D2A45148  15.226  39.230   6.755
 9026POPC   C3A45149  15.178  39.238   7.055
 9026POPC   C4A45150  15.145  39.199   7.355
 9026POPC   C1B45151  15.233  38.992   6.455
 9026POPC   C2B45152  15.229  38.956   6.755
 9026POPC   C3B45153  15.229  38.990   7.055
 9026POPC   C4B45154  15.148  38.982   7.355
 9027POPC   NC345155  13.585   4.304   5.555
 9027POPC   PO445156  13.596   4.289   5.855
 9027POPC   GL145157  13.609   4.282   6.155
 9027POPC   GL245158  13.587   4.423   6.155
 9027POPC   C1A45159  13.668   4.361   6.455
 9027POPC   D2A45160  13.669   4.338   6.755
 9027POPC   C3A45161  13.579   4.324   7.055
 9027POPC   C4A45162  13.601   4.357   7.355
 9027POPC   C1B45163  13.414   4.456   6.455
 9027POPC   C2B45164  13.503   4.472   6.755
 9027POPC   C3B45165  13.435   4.496   7.055
 9027POPC   C4B45166  13.494   4.486   7.355
 9028POPC   NC345167  29.131  20.643   5.555
 9028POPC   PO445168  29.160  20.592   5.855
 9028POPC   GL145169  29.114  20.622   6.155
 9028POPC   GL245170  29.255  20.518   6.155
 9028POPC   C1A45171  29.125  20.568   6.455
 9028POPC   D2A45172  29.113  20.626   6.755
 9028POPC   C3A45173  29.124  20.649   7.055
 9028POPC   C4A45174  29.138  20.564   7.355
 9028POPC   C1B45175  29.300  20.465   6.455
 9028POPC   C2B45176  29.350  20.454   6.755
 9028POPC   C3B45177  29.338  20.456   7.055
 9028POPC   C4B45178  29.376  20.486   7.355
 9029POPC   NC345179  14.354  43.917   5.555
 9029POPC   PO445180  14.451  43.845   5.855
 9029POPC   GL145181  14.373  43.909   6.155
 9029POPC   GL245182  14.269  43.828   6.155
 9029POPC   C1A45183  14.453  43.907   6.455
 9029POPC   D2A45184  14.407  43.857   6.755
 9029POPC   C3A45185  14.422  43.868   7.055
 9029POPC   C4A45186  14.420  43.847   7.355
 9029POPC   C1B45187  14.116  43.826   6.455
 9029POPC   C2B45188  14.124  43.876   6.755
 9029POPC   C3B45189  14.131  43.878   7.055
 9029POPC   C4B45190  14.107  43.870   7.355
 9030POPC   NC345191  12.069  12.843   5.555
 9030POPC   PO445192  12.056  12.816   5.855
 9030POPC   GL145193  12.086  12.879   6.155
 9030POPC   GL245194  12.240  12.770   6.155
 9030POPC   C1A45195  12.117  12.803   6.455
 9030POPC   D2A45196  12.067  12.835   6.755
 9030POPC   C3A45197  12.125  12.822   7.055
 9030POPC   C4A45198  12.040  12.887   7.355
 9030POPC   C1B45199  12.310  12.788   6.455
 9030POPC   C2B45200  12.339  12.785   6.755
 9030POPC   C3B45201  12.273  12.775   7.055
 9030POPC   C4B45202  12.283  12.783   7.355
 9031POPC   NC345203  35.399  29.905   5.555
 9031POPC   PO445204  35.389  29.934   5.855
 9031POPC   GL145205  35.358  29.908   6.155
 9031POPC   GL245206  35.292  29.816   6.155
 9031POPC   C1A45207  35.333  29.936   6.455
 9031POPC   D2A45208  35.357  29.968   6.755
 9031POPC   C3A45209  35.350  29.879   7.055
 9031POPC   C4A45210  35.360  29.931   7.355
 9031POPC   C1B45211  35.296  29.629   6.455
 9031POPC   C2B45212  35.277  29.677   6.755
 9031POPC   C3B45213  35.311  29.668   7.055
 9031POPC   C4B45214  35.279  29.708   7.355
 9032POPC   NC345215  19.834  41.550   5.555
 9032POPC   PO445216  19.863  41.604   5.855
 9032POPC   GL145217  19.835  41.524   6.155
 9032POPC   GL245218  19.705  41.443   6.155
 9032POPC   C1A45219  19.865  41.584   6.455
 9032POPC   D2A45220  19.859  41.535   6.755
 9032POPC   C3A45221  19.816  41.537   7.055
 9032POPC   C4A45222  19.807  41.573   7.355
 9032POPC   C1B45223  19.628  41.411   6.455
 9032POPC   C2B45224  19.638  41.330   6.755
 9032POPC   C3B45225  19.653  41.380   7.055
 9032POPC   C4B45226  19.718  41.380   7.355
 9033POPC   NC345227  25.236   3.571   5.555
 9033POPC   PO445228  25.291   3.582   5.855
 9033POPC   GL145229  25.282   3.541   6.155
 9033POPC   GL245230  25.296   3.414   6.155
 9033POPC   C1A45231  25.234   3.536   6.455
 9033POPC   D2A45232  25.219   3.528   6.755
 9033POPC   C3A45233  25.244   3.529   7.055
 9033POPC   C4A45234  25.255   3.530   7.355
 9033POPC   C1B45235  25.385   3.275   6.455
 9033POPC   C2B45236  25.344   3.335   6.755
 9033POPC   C3B45237  25.363   3.283   7.055
 9033POPC   C4B45238  25.341   3.307   7.355
 9034POPC   NC345239  29.885  16.703   5.555
 9034POPC   PO445240  29.887  16.776   5.855
 9034POPC   GL145241  29.938  16.756   6.155
 9034POPC   GL245242  30.057  16.811   6.155
 9034POPC   C1A45243  29.926  16.700   6.455
 9034POPC   D2A45244  29.938  16.754   6.755
 9034POPC   C3A45245  29.963  16.746   7.055
 9034POPC   C4A45246  29.964  16.754   7.355
 9034POPC   C1B45247  30.110  16.928   6.455
 9034POPC   C2B45248  30.130  16.899   6.755
 9034POPC   C3B45249  30.121  16.923   7.055
 9034POPC   C4B45250  30.070  16.869   7.355
 9035POPC   NC345251   9.751  22.956   5.555
 9035POPC   PO445252   9.743  22.952   5.855
 9035POPC   GL145253   9.702  22.948   6.155
 9035POPC   GL245254   9.832  22.950   6.155
 9035POPC   C1A45255   9.759  22.966   6.455
 9035POPC   D2A45256   9.748  22.896   6.755
 9035POPC   C3A45257   9.760  22.974   7.055
 9035POPC   C4A45258   9.781  22.908   7.355
 9035POPC   C1B45259  10.013  22.929   6.455
 9035POPC   C2B45260   9.966  22.898   6.755
 9035POPC   C3B45261  10.014  22.912   7.055
 9035POPC   C4B45262   9.996  22.883   7.355
 9036POPC   NC345263   0.443  18.318   5.555
 9036POPC   PO445264   0.481  18.257   5.855
 9036POPC   GL145265   0.481  18.234   6.155
 9036POPC   GL245266   0.347  18.347   6.155
 9036POPC   C1A45267   0.433  18.331   6.455
 9036POPC   D2A45268   0.465  18.306   6.755
 9036POPC   C3A45269   0.421  18.286   7.055
 9036POPC   C4A45270   0.426  18.244   7.355
 9036POPC   C1B45271   0.325  18.483   6.455
 9036POPC   C2B45272   0.285  18.430   6.755
 9036POPC   C3B45273   0.267  18.514   7.055
 9036POPC   C4B45274   0.251  18.511   7.355
 9037POPC   NC345275   3.540   8.974   5.555
 9037POPC   PO445276   3.574   8.931   5.855
 9037POPC   GL145277   3.536   8.999   6.155
 9037POPC   GL245278   3.587   9.024   6.155
 9037POPC   C1A45279   3.553   8.955   6.455
 9037POPC   D2A45280   3.534   8.949   6.755
 9037POPC   C3A45281   3.562   8.935   7.055
 9037POPC   C4A45282   3.562   8.977   7.355
 9037POPC   C1B45283   3.749   9.135   6.455
 9037POPC   C2B45284   3.715   9.179   6.755
 9037POPC   C3B45285   3.675   9.137   7.055
 9037POPC   C4B45286   3.719   9.156   7.355
 9038POPC   NC345287  40.812  40.788   5.555
 9038POPC   PO445288  40.745  40.797   5.855
 9038POPC   GL145289  40.754  40.773   6.155
 9038POPC   GL245290  40.630  40.730   6.155
 9038POPC   C1A45291  40.765  40.738   6.455
 9038POPC   D2A45292  40.761  40.768   6.755
 9038POPC   C3A45293  40.742  40.737   7.055
 9038POPC   C4A45294  40.770  40.815   7.355
 9038POPC   C1B45295  40.512  40.649   6.455
 9038POPC   C2B45296  40.595  40.683   6.755
 9038POPC   C3B45297  40.540  40.626   7.055
 9038POPC   C4B45298  40.557  40.717   7.355
 9039POPC   NC345299   5.820  34.537   5.555
 9039POPC   PO445300   5.912  34.535   5.855
 9039POPC   GL145301   5.845  34.620   6.155
 9039POPC   GL245302   5.954  34.485   6.155
 9039POPC   C1A45303   5.842  34.545   6.455
 9039POPC   D2A45304   5.891  34.539   6.755
 9039POPC   C3A45305   5.858  34.612   7.055
 9039POPC   C4A45306   5.914  34.570   7.355
 9039POPC   C1B45307   6.058  34.408   6.455
 9039POPC   C2B45308   6.056  34.487   6.755
 9039POPC   C3B45309   6.118  34.440   7.055
 9039POPC   C4B45310   6.090  34.497   7.355
 9040POPC   NC345311  34.565  40.008   5.555
 9040POPC   PO445312  34.597  40.052   5.855
 9040POPC   GL145313  34.586  40.025   6.155
 9040POPC   GL245314  34.437  39.961   6.155
 9040POPC   C1A45315  34.578  39.957   6.455
 9040POPC   D2A45316  34.540  39.989   6.755
 9040POPC   C3A45317  34.577  40.026   7.055
 9040POPC   C4A45318  34.535  39.976   7.355
 9040POPC   C1B45319  34.348  39.869   6.455
 9040POPC   C2B45320  34.354  39.843   6.755
 9040POPC   C3B45321  34.395  39.858   7.055
 9040POPC   C4B45322  34.326  39.886   7.355
 9041POPC   NC345323  24.515  32.294   5.555
 9041POPC   PO445324  24.482  32.199   5.855
 9041POPC   GL145325  24.527  32.252   6.155
 9041POPC   GL245326  24.413  32.122   6.155
 9041POPC   C1A45327  24.484  32.208   6.455
 9041POPC   D2A45328  24.455  32.204   6.755
 9041POPC   C3A45329  24.531  32.256   7.055
 9041POPC   C4A45330  24.459  32.273   7.355
 9041POPC   C1B45331  24.448  32.024   6.455
 9041POPC   C2B45332  24.441  32.057   6.755
 9041POPC   C3B45333  24.419  32.037   7.055
 9041POPC   C4B45334  24.417  31.990   7.355
 9042POPC   NC345335  29.182  18.265   5.555
 9042POPC   PO445336  29.143  18.270   5.855
 9042POPC   GL145337  29.154  18.279   6.155
 9042POPC   GL245338  29.144  18.142   6.155
 9042POPC   C1A45339  29.172  18.298   6.455
 9042POPC   D2A45340  29.178  18.278   6.755
 9042POPC   C3A45341  29.129  18.327   7.055
 9042POPC   C4A45342  29.169  18.318   7.355
 9042POPC   C1B45343  29.161  18.029   6.455
 9042POPC   C2B45344  29.132  18.009   6.755
 9042POPC   C3B45345  29.116  18.036   7.055
 9042POPC   C4B45346  29.155  18.078   7.355
 9043POPC   NC345347   0.396  24.515   5.555
 9043POPC   PO445348   0.455  24.479   5.855
 9043POPC   GL145349   0.425  24.539   6.155
 9043POPC   GL245350   0.481  24.443   6.155
 9043POPC   C1A45351   0.408  24.518   6.455
 9043POPC   D2A45352   0.413  24.463   6.755
 9043POPC   C3A45353   0.439  24.466   7.055
 9043POPC   C4A45354   0.472  24.440   7.355
 9043POPC   C1B45355   0.624  24.287   6.455
 9043POPC   C2B45356   0.589  24.272   6.755
 9043POPC   C3B45357   0.668  24.312   7.055
 9043POPC   C4B45358   0.660  24.332   7.355
 9044POPC   NC345359  38.436  27.613   5.555
 9044POPC   PO445360  38.479  27.606   5.855
 9044POPC   GL145361  38.433  27.554   6.155
 9044POPC   GL245362  38.608  27.552   6.155
 9044POPC   C1A45363  38.430  27.583   6.455
 9044POPC   D2A45364  38.486  27.594   6.755
 9044POPC   C3A45365  38.448  27.594   7.055
 9044POPC   C4A45366  38.473  27.593   7.355
 9044POPC   C1B45367  38.690  27.518   6.455
 9044POPC   C2B45368  38.668  27.486   6.755
 9044POPC   C3B45369  38.711  27.439   7.055
 9044POPC   C4B45370  38.718  27.475   7.355
 9045POPC   NC345371  29.137   5.831   5.555
 9045POPC   PO445372  29.120   5.852   5.855
 9045POPC   GL145373  29.108   5.873   6.155
 9045POPC   GL245374  29.082   6.032   6.155
 9045POPC   C1A45375  29.180   5.821   6.455
 9045POPC   D2A45376  29.178   5.844   6.755
 9045POPC   C3A45377  29.183   5.889   7.055
 9045POPC   C4A45378  29.165   5.837   7.355
 9045POPC   C1B45379  29.058   6.086   6.455
 9045POPC   C2B45380  29.033   6.111   6.755
 9045POPC   C3B45381  29.033   6.114   7.055
 9045POPC   C4B45382  29.067   6.122   7.355
 9046POPC   NC345383  38.455  41.592   5.555
 9046POPC   PO445384  38.480  41.580   5.855
 9046POPC   GL145385  38.476  41.583   6.155
 9046POPC   GL245386  38.304  41.482   6.155
 9046POPC   C1A45387  38.416  41.518   6.455
 9046POPC   D2A45388  38.499  41.566   6.755
 9046POPC   C3A45389  38.470  41.575   7.055
 9046POPC   C4A45390  38.463  41.521   7.355
 9046POPC   C1B45391  38.233  41.423   6.455
 9046POPC   C2B45392  38.206  41.505   6.755
 9046POPC   C3B45393  38.212  41.465   7.055
 9046POPC   C4B45394  38.224  41.511   7.355
 9047POPC   NC345395   8.937   6.657   5.555
 9047POPC   PO445396   9.013   6.662   5.855
 9047POPC   GL145397   8.933   6.645   6.155
 9047POPC   GL245398   9.030   6.576   6.155
 9047POPC   C1A45399   8.960   6.672   6.455
 9047POPC   D2A45400   8.931   6.629   6.755
 9047POPC   C3A45401   8.970   6.600   7.055
 9047POPC   C4A45402   8.988   6.634   7.355
 9047POPC   C1B45403   9.066   6.420   6.455
 9047POPC   C2B45404   9.103   6.420   6.755
 9047POPC   C3B45405   9.104   6.422   7.055
 9047POPC   C4B45406   9.148   6.445   7.355
 9048POPC   NC345407  27.558  26.053   5.555
 9048POPC   PO445408  27.627  26.065   5.855
 9048POPC   GL145409  27.640  25.996   6.155
 9048POPC   GL245410  27.673  25.970   6.155
 9048POPC   C1A45411  27.618  26.015   6.455
 9048POPC   D2A45412  27.596  26.089   6.755
 9048POPC   C3A45413  27.628  26.075   7.055
 9048POPC   C4A45414  27.548  26.018   7.355
 9048POPC   C1B45415  27.698  25.807   6.455
 9048POPC   C2B45416  27.634  25.772   6.755
 9048POPC   C3B45417  27.629  25.764   7.055
 9048POPC   C4B45418  27.651  25.828   7.355
 9049POPC   NC345419   1.984   5.084   5.555
 9049POPC   PO445420   2.002   5.105   5.855
 9049POPC   GL145421   2.029   5.052   6.155
 9049POPC   GL245422   2.114   5.082   6.155
 9049POPC   C1A45423   1.978   5.088   6.455
 9049POPC   D2A45424   1.963   5.107   6.755
 9049POPC   C3A45425   2.025   5.101   7.055
 9049POPC   C4A45426   2.020   5.125   7.355
 9049POPC   C1B45427   2.251   5.061   6.455
 9049POPC   C2B45428   2.195   5.131   6.755
 9049POPC   C3B45429   2.281   5.105   7.055
 9049POPC   C4B45430   2.197   5.049   7.355
 9050POPC   NC345431  19.044  29.184   5.555
 9050POPC   PO445432  19.070  29.113   5.855
 9050POPC   GL145433  19.022  29.102   6.155
 9050POPC   GL245434  19.121  29.234   6.155
 9050POPC   C1A45435  19.056  29.123   6.455
 9050POPC   D2A45436  19.100  29.137   6.755
 9050POPC   C3A45437  19.044  29.145   7.055
 9050POPC   C4A45438  19.063  29.107   7.355
 9050POPC   C1B45439  19.167  29.417   6.455
 9050POPC   C2B45440  19.185  29.326   6.755
 9050POPC   C3B45441  19.153  29.335   7.055
 9050POPC   C4B45442  19.113  29.394   7.355
 9051POPC   NC345443  15.953  40.041   5.555
 9051POPC   PO445444  16.001  40.019   5.855
 9051POPC   GL145445  15.977  39.996   6.155
 9051POPC   GL245446  15.996  39.893   6.155
 9051POPC   C1A45447  15.935  39.988   6.455
 9051POPC   D2A45448  15.942  39.959   6.755
 9051POPC   C3A45449  15.956  40.020   7.055
 9051POPC   C4A45450  15.908  39.999   7.355
 9051POPC   C1B45451  16.085  39.777   6.455
 9051POPC   C2B45452  16.090  39.776   6.755
 9051POPC   C3B45453  16.063  39.754   7.055
 9051POPC   C4B45454  16.137  39.805   7.355
 9052POPC   NC345455  24.512   6.645   5.555
 9052POPC   PO445456  24.508   6.645   5.855
 9052POPC   GL145457  24.533   6.687   6.155
 9052POPC   GL245458  24.383   6.693   6.155
 9052POPC   C1A45459  24.459   6.652   6.455
 9052POPC   D2A45460  24.500   6.604   6.755
 9052POPC   C3A45461  24.440   6.642   7.055
 9052POPC   C4A45462  24.498   6.651   7.355
 9052POPC   C1B45463  24.227   6.783   6.455
 9052POPC   C2B45464  24.275   6.789   6.755
 9052POPC   C3B45465  24.287   6.796   7.055
 9052POPC   C4B45466  24.244   6.786   7.355
 9053POPC   NC345467   3.545  36.083   5.555
 9053POPC   PO445468   3.500  36.126   5.855
 9053POPC   GL145469   3.563  36.152   6.155
 9053POPC   GL245470   3.592  36.010   6.155
 9053POPC   C1A45471   3.535  36.160   6.455
 9053POPC   D2A45472   3.571  36.089   6.755
 9053POPC   C3A45473   3.529  36.122   7.055
 9053POPC   C4A45474   3.542  36.131   7.355
 9053POPC   C1B45475   3.631  35.902   6.455
 9053POPC   C2B45476   3.690  35.939   6.755
 9053POPC   C3B45477   3.644  35.892   7.055
 9053POPC   C4B45478   3.705  35.927   7.355
 9054POPC   NC345479  23.759   0.399   5.555
 9054POPC   PO445480  23.762   0.393   5.855
 9054POPC   GL145481  23.691   0.424   6.155
 9054POPC   GL245482  23.853   0.503   6.155
 9054POPC   C1A45483  23.705   0.469   6.455
 9054POPC   D2A45484  23.705   0.408   6.755
 9054POPC   C3A45485  23.721   0.460   7.055
 9054POPC   C4A45486  23.710   0.429   7.355
 9054POPC   C1B45487  23.892   0.586   6.455
 9054POPC   C2B45488  23.887   0.535   6.755
 9054POPC   C3B45489  23.929   0.584   7.055
 9054POPC   C4B45490  23.925   0.610   7.355
 9055POPC   NC345491  42.287   5.875   5.555
 9055POPC   PO445492  42.321   5.888   5.855
 9055POPC   GL145493  42.292   5.840   6.155
 9055POPC   GL245494  42.411   5.872   6.155
 9055POPC   C1A45495  42.367   5.913   6.455
 9055POPC   D2A45496  42.366   5.897   6.755
 9055POPC   C3A45497  42.299   5.909   7.055
 9055POPC   C4A45498  42.372   5.860   7.355
 9055POPC   C1B45499  42.534   5.906   6.455
 9055POPC   C2B45500  42.622   5.904   6.755
 9055POPC   C3B45501  42.545   5.871   7.055
 9055POPC   C4B45502  42.601   5.949   7.355
 9056POPC   NC345503  32.244  20.570   5.555
 9056POPC   PO445504  32.260  20.633   5.855
 9056POPC   GL145505  32.222  20.570   6.155
 9056POPC   GL245506  32.252  20.519   6.155
 9056POPC   C1A45507  32.237  20.582   6.455
 9056POPC   D2A45508  32.233  20.636   6.755
 9056POPC   C3A45509  32.254  20.567   7.055
 9056POPC   C4A45510  32.283  20.659   7.355
 9056POPC   C1B45511  32.243  20.313   6.455
 9056POPC   C2B45512  32.184  20.332   6.755
 9056POPC   C3B45513  32.190  20.342   7.055
 9056POPC   C4B45514  32.262  20.352   7.355
 9057POPC   NC345515  29.168  43.854   5.555
 9057POPC   PO445516  29.146  43.907   5.855
 9057POPC   GL145517  29.122  43.853   6.155
 9057POPC   GL245518  29.203  43.824   6.155
 9057POPC   C1A45519  29.124  43.847   6.455
 9057POPC   D2A45520  29.136  43.924   6.755
 9057POPC   C3A45521  29.102  43.874   7.055
 9057POPC   C4A45522  29.193  43.934   7.355
 9057POPC   C1B45523  29.254  43.708   6.455
 9057POPC   C2B45524  29.303  43.653   6.755
 9057POPC   C3B45525  29.292  43.675   7.055
 9057POPC   C4B45526  29.287  43.687   7.355
 9058POPC   NC345527   2.749  36.868   5.555
 9058POPC   PO445528   2.725  36.905   5.855
 9058POPC   GL145529   2.752  36.891   6.155
 9058POPC   GL245530   2.735  37.045   6.155
 9058POPC   C1A45531   2.815  36.952   6.455
 9058POPC   D2A45532   2.803  36.900   6.755
 9058POPC   C3A45533   2.725  36.874   7.055
 9058POPC   C4A45534   2.801  36.897   7.355
 9058POPC   C1B45535   2.646  37.103   6.455
 9058POPC   C2B45536   2.641  37.089   6.755
 9058POPC   C3B45537   2.660  37.078   7.055
 9058POPC   C4B45538   2.593  37.160   7.355
 9059POPC   NC345539  23.717   2.744   5.555
 9059POPC   PO445540  23.750   2.802   5.855
 9059POPC   GL145541  23.758   2.792   6.155
 9059POPC   GL245542  23.679   2.848   6.155
 9059POPC   C1A45543  23.714   2.721   6.455
 9059POPC   D2A45544  23.678   2.775   6.755
 9059POPC   C3A45545  23.711   2.802   7.055
 9059POPC   C4A45546  23.706   2.750   7.355
 9059POPC   C1B45547  23.531   2.938   6.455
 9059POPC   C2B45548  23.605   3.004   6.755
 9059POPC   C3B45549  23.588   2.956   7.055
 9059POPC   C4B45550  23.603   2.959   7.355
 9060POPC   NC345551   4.289  21.420   5.555
 9060POPC   PO445552   4.310  21.340   5.855
 9060POPC   GL145553   4.280  21.340   6.155
 9060POPC   GL245554   4.416  21.509   6.155
 9060POPC   C1A45555   4.295  21.398   6.455
 9060POPC   D2A45556   4.288  21.386   6.755
 9060POPC   C3A45557   4.350  21.350   7.055
 9060POPC   C4A45558   4.337  21.371   7.355
 9060POPC   C1B45559   4.502  21.510   6.455
 9060POPC   C2B45560   4.528  21.540   6.755
 9060POPC   C3B45561   4.540  21.505   7.055
 9060POPC   C4B45562   4.461  21.553   7.355
 9061POPC   NC345563  40.034  29.912   5.555
 9061POPC   PO445564  40.006  29.899   5.855
 9061POPC   GL145565  40.001  29.894   6.155
 9061POPC   GL245566  40.081  30.020   6.155
 9061POPC   C1A45567  40.028  29.959   6.455
 9061POPC   D2A45568  40.036  29.895   6.755
 9061POPC   C3A45569  40.012  29.949   7.055
 9061POPC   C4A45570  39.969  29.899   7.355
 9061POPC   C1B45571  40.191  30.139   6.455
 9061POPC   C2B45572  40.151  30.080   6.755
 9061POPC   C3B45573  40.145  30.141   7.055
 9061POPC   C4B45574  40.196  30.135   7.355
 9062POPC   NC345575   1.208  36.944   5.555
 9062POPC   PO445576   1.190  36.896   5.855
 9062POPC   GL145577   1.169  36.915   6.155
 9062POPC   GL245578   1.084  36.873   6.155
 9062POPC   C1A45579   1.188  36.949   6.455
 9062POPC   D2A45580   1.168  36.889   6.755
 9062POPC   C3A45581   1.221  36.880   7.055
 9062POPC   C4A45582   1.246  36.944   7.355
 9062POPC   C1B45583   1.029  36.731   6.455
 9062POPC   C2B45584   0.966  36.771   6.755
 9062POPC   C3B45585   0.970  36.755   7.055
 9062POPC   C4B45586   1.048  36.792   7.355
 9063POPC   NC345587  35.326   4.304   5.555
 9063POPC   PO445588  35.336   4.280   5.855
 9063POPC   GL145589  35.315   4.337   6.155
 9063POPC   GL245590  35.461   4.201   6.155
 9063POPC   C1A45591  35.308   4.330   6.455
 9063POPC   D2A45592  35.314   4.291   6.755
 9063POPC   C3A45593  35.321   4.294   7.055
 9063POPC   C4A45594  35.303   4.340   7.355
 9063POPC   C1B45595  35.515   4.191   6.455
 9063POPC   C2B45596  35.537   4.177   6.755
 9063POPC   C3B45597  35.611   4.178   7.055
 9063POPC   C4B45598  35.575   4.136   7.355
 9064POPC   NC345599   0.455  36.090   5.555
 9064POPC   PO445600   0.429  36.112   5.855
 9064POPC   GL145601   0.453  36.146   6.155
 9064POPC   GL245602   0.433  36.041   6.155
 9064POPC   C1A45603   0.476  36.121   6.455
 9064POPC   D2A45604   0.416  36.110   6.755
 9064POPC   C3A45605   0.417  36.090   7.055
 9064POPC   C4A45606   0.464  36.126   7.355
 9064POPC   C1B45607   0.442  35.837   6.455
 9064POPC   C2B45608   0.440  35.925   6.755
 9064POPC   C3B45609   0.454  35.837   7.055
 9064POPC   C4B45610   0.438  35.920   7.355
 9065POPC   NC345611  31.496  19.790   5.555
 9065POPC   PO445612  31.477  19.884   5.855
 9065POPC   GL145613  31.491  19.840   6.155
 9065POPC   GL245614  31.519  19.958   6.155
 9065POPC   C1A45615  31.483  19.812   6.455
 9065POPC   D2A45616  31.442  19.846   6.755
 9065POPC   C3A45617  31.515  19.845   7.055
 9065POPC   C4A45618  31.456  19.807   7.355
 9065POPC   C1B45619  31.606  20.050   6.455
 9065POPC   C2B45620  31.631  20.022   6.755
 9065POPC   C3B45621  31.587  20.061   7.055
 9065POPC   C4B45622  31.650  20.052   7.355
 9066POPC   NC345623  16.766  38.448   5.555
 9066POPC   PO445624  16.756  38.472   5.855
 9066POPC   GL145625  16.767  38.485   6.155
 9066POPC   GL245626  16.613  38.536   6.155
 9066POPC   C1A45627  16.725  38.409   6.455
 9066POPC   D2A45628  16.725  38.431   6.755
 9066POPC   C3A45629  16.779  38.442   7.055
 9066POPC   C4A45630  16.735  38.429   7.355
 9066POPC   C1B45631  16.500  38.538   6.455
 9066POPC   C2B45632  16.470  38.551   6.755
 9066POPC   C3B45633  16.468  38.545   7.055
 9066POPC   C4B45634  16.501  38.580   7.355
 9067POPC   NC345635  39.257  22.948   5.555
 9067POPC   PO445636  39.204  22.913   5.855
 9067POPC   GL145637  39.184  22.957   6.155
 9067POPC   GL245638  39.267  22.805   6.155
 9067POPC   C1A45639  39.203  22.900   6.455
 9067POPC   D2A45640  39.232  22.988   6.755
 9067POPC   C3A45641  39.238  22.965   7.055
 9067POPC   C4A45642  39.259  22.913   7.355
 9067POPC   C1B45643  39.314  22.732   6.455
 9067POPC   C2B45644  39.304  22.720   6.755
 9067POPC   C3B45645  39.301  22.679   7.055
 9067POPC   C4B45646  39.340  22.675   7.355
 9068POPC   NC345647  42.323   6.684   5.555
 9068POPC   PO445648  42.371   6.632   5.855
 9068POPC   GL145649  42.329   6.606   6.155
 9068POPC   GL245650  42.228   6.624   6.155
 9068POPC   C1A45651  42.384   6.678   6.455
 9068POPC   D2A45652  42.288   6.647   6.755
 9068POPC   C3A45653  42.339   6.615   7.055
 9068POPC   C4A45654  42.337   6.651   7.355
 9068POPC   C1B45655  42.074   6.605   6.455
 9068POPC   C2B45656  42.046   6.612   6.755
 9068POPC   C3B45657  42.110   6.539   7.055
 9068POPC   C4B45658  42.136   6.595   7.355
 9069POPC   NC345659  19.100  15.148   5.555
 9069POPC   PO445660  19.023  15.155   5.855
 9069POPC   GL145661  19.108  15.162   6.155
 9069POPC   GL245662  19.084  15.258   6.155
 9069POPC   C1A45663  19.047  15.136   6.455
 9069POPC   D2A45664  19.103  15.156   6.755
 9069POPC   C3A45665  19.024  15.135   7.055
 9069POPC   C4A45666  19.053  15.176   7.355
 9069POPC   C1B45667  19.239  15.392   6.455
 9069POPC   C2B45668  19.175  15.349   6.755
 9069POPC   C3B45669  19.191  15.402   7.055
 9069POPC   C4B45670  19.237  15.418   7.355
 9070POPC   NC345671  27.587  10.503   5.555
 9070POPC   PO445672  27.583  10.565   5.855
 9070POPC   GL145673  27.567  10.560   6.155
 9070POPC   GL245674  27.509  10.439   6.155
 9070POPC   C1A45675  27.567  10.529   6.455
 9070POPC   D2A45676  27.560  10.544   6.755
 9070POPC   C3A45677  27.548  10.526   7.055
 9070POPC   C4A45678  27.555  10.564   7.355
 9070POPC   C1B45679  27.384  10.404   6.455
 9070POPC   C2B45680  27.357  10.359   6.755
 9070POPC   C3B45681  27.353  10.383   7.055
 9070POPC   C4B45682  27.381  10.379   7.355
 9071POPC   NC345683  24.463  44.696   5.555
 9071POPC   PO445684  24.463  44.676   5.855
 9071POPC   GL145685  24.503  44.672   6.155
 9071POPC   GL245686  24.610  44.572   6.155
 9071POPC   C1A45687  24.450  44.621   6.455
 9071POPC   D2A45688  24.520  44.648   6.755
 9071POPC   C3A45689  24.521  44.708   7.055
 9071POPC   C4A45690  24.532  44.707   7.355
 9071POPC   C1B45691  24.755  44.528   6.455
 9071POPC   C2B45692  24.757  44.537   6.755
 9071POPC   C3B45693  24.692  44.588   7.055
 9071POPC   C4B45694  24.728  44.586   7.355
 9072POPC   NC345695  23.700  43.839   5.555
 9072POPC   PO445696  23.714  43.897   5.855
 9072POPC   GL145697  23.708  43.848   6.155
 9072POPC   GL245698  23.823  43.961   6.155
 9072POPC   C1A45699  23.709  43.896   6.455
 9072POPC   D2A45700  23.750  43.859   6.755
 9072POPC   C3A45701  23.734  43.931   7.055
 9072POPC   C4A45702  23.697  43.859   7.355
 9072POPC   C1B45703  24.002  43.971   6.455
 9072POPC   C2B45704  23.978  43.891   6.755
 9072POPC   C3B45705  23.994  43.922   7.055
 9072POPC   C4B45706  23.963  43.967   7.355
 9073POPC   NC345707  29.171   0.416   5.555
 9073POPC   PO445708  29.147   0.469   5.855
 9073POPC   GL145709  29.116   0.465   6.155
 9073POPC   GL245710  28.999   0.491   6.155
 9073POPC   C1A45711  29.178   0.448   6.455
 9073POPC   D2A45712  29.172   0.447   6.755
 9073POPC   C3A45713  29.141   0.430   7.055
 9073POPC   C4A45714  29.120   0.427   7.355
 9073POPC   C1B45715  28.979   0.618   6.455
 9073POPC   C2B45716  28.971   0.588   6.755
 9073POPC   C3B45717  28.975   0.631   7.055
 9073POPC   C4B45718  28.950   0.540   7.355
 9074POPC   NC345719  36.128  31.521   5.555
 9074POPC   PO445720  36.175  31.501   5.855
 9074POPC   GL145721  36.174  31.473   6.155
 9074POPC   GL245722  36.023  31.597   6.155
 9074POPC   C1A45723  36.093  31.475   6.455
 9074POPC   D2A45724  36.146  31.446   6.755
 9074POPC   C3A45725  36.157  31.442   7.055
 9074POPC   C4A45726  36.102  31.458   7.355
 9074POPC   C1B45727  35.966  31.630   6.455
 9074POPC   C2B45728  35.939  31.665   6.755
 9074POPC   C3B45729  35.935  31.601   7.055
 9074POPC   C4B45730  35.901  31.646   7.355
 9075POPC   NC345731  43.849  36.911   5.555
 9075POPC   PO445732  43.860  36.897   5.855
 9075POPC   GL145733  43.902  36.932   6.155
 9075POPC   GL245734  43.936  36.793   6.155
 9075POPC   C1A45735  43.916  36.877   6.455
 9075POPC   D2A45736  43.859  36.872   6.755
 9075POPC   C3A45737  43.856  36.862   7.055
 9075POPC   C4A45738  43.873  36.919   7.355
 9075POPC   C1B45739  44.078  36.755   6.455
 9075POPC   C2B45740  44.073  36.781   6.755
 9075POPC   C3B45741  44.098  36.775   7.055
 9075POPC   C4B45742  44.056  36.696   7.355
 9076POPC   NC345743   9.793   5.092   5.555
 9076POPC   PO445744   9.729   5.053   5.855
 9076POPC   GL145745   9.725   5.102   6.155
 9076POPC   GL245746   9.591   5.106   6.155
 9076POPC   C1A45747   9.776   5.090   6.455
 9076POPC   D2A45748   9.744   5.077   6.755
 9076POPC   C3A45749   9.744   5.059   7.055
 9076POPC   C4A45750   9.713   5.048   7.355
 9076POPC   C1B45751   9.456   5.129   6.455
 9076POPC   C2B45752   9.483   5.151   6.755
 9076POPC   C3B45753   9.531   5.118   7.055
 9076POPC   C4B45754   9.514   5.127   7.355
 9077POPC   NC345755  21.386  29.924   5.555
 9077POPC   PO445756  21.357  29.921   5.855
 9077POPC   GL145757  21.339  29.959   6.155
 9077POPC   GL245758  21.437  29.789   6.155
 9077POPC   C1A45759  21.385  29.962   6.455
 9077POPC   D2A45760  21.394  29.914   6.755
 9077POPC   C3A45761  21.417  29.877   7.055
 9077POPC   C4A45762  21.407  29.893   7.355
 9077POPC   C1B45763  21.501  29.738   6.455
 9077POPC   C2B45764  21.494  29.655   6.755
 9077POPC   C3B45765  21.527  29.735   7.055
 9077POPC   C4B45766  21.550  29.693   7.355
 9078POPC   NC345767   9.768  41.589   5.555
 9078POPC   PO445768   9.780  41.573   5.855
 9078POPC   GL145769   9.779  41.539   6.155
 9078POPC   GL245770   9.638  41.494   6.155
 9078POPC   C1A45771   9.789  41.564   6.455
 9078POPC   D2A45772   9.772  41.579   6.755
 9078POPC   C3A45773   9.772  41.538   7.055
 9078POPC   C4A45774   9.777  41.585   7.355
 9078POPC   C1B45775   9.495  41.514   6.455
 9078POPC   C2B45776   9.521  41.473   6.755
 9078POPC   C3B45777   9.464  41.472   7.055
 9078POPC   C4B45778   9.466  41.521   7.355
 9079POPC   NC345779  42.352  32.992   5.555
 9079POPC   PO445780  42.377  33.013   5.855
 9079POPC   GL145781  42.376  33.035   6.155
 9079POPC   GL245782  42.261  33.138   6.155
 9079POPC   C1A45783  42.326  33.012   6.455
 9079POPC   D2A45784  42.328  32.987   6.755
 9079POPC   C3A45785  42.364  33.001   7.055
 9079POPC   C4A45786  42.338  33.052   7.355
 9079POPC   C1B45787  42.190  33.190   6.455
 9079POPC   C2B45788  42.188  33.254   6.755
 9079POPC   C3B45789  42.174  33.192   7.055
 9079POPC   C4B45790  42.148  33.210   7.355
 9080POPC   NC345791  36.903  12.104   5.555
 9080POPC   PO445792  36.924  12.069   5.855
 9080POPC   GL145793  36.899  12.104   6.155
 9080POPC   GL245794  36.957  12.244   6.155
 9080POPC   C1A45795  36.909  12.052   6.455
 9080POPC   D2A45796  36.918  12.030   6.755
 9080POPC   C3A45797  36.898  12.095   7.055
 9080POPC   C4A45798  36.872  12.088   7.355
 9080POPC   C1B45799  36.971  12.281   6.455
 9080POPC   C2B45800  36.979  12.280   6.755
 9080POPC   C3B45801  36.897  12.290   7.055
 9080POPC   C4B45802  36.988  12.347   7.355
 9081POPC   NC345803   1.216  10.536   5.555
 9081POPC   PO445804   1.164  10.477   5.855
 9081POPC   GL145805   1.231  10.568   6.155
 9081POPC   GL245806   1.304  10.541   6.155
 9081POPC   C1A45807   1.251  10.542   6.455
 9081POPC   D2A45808   1.205  10.527   6.755
 9081POPC   C3A45809   1.196  10.562   7.055
 9081POPC   C4A45810   1.183  10.485   7.355
 9081POPC   C1B45811   1.486  10.567   6.455
 9081POPC   C2B45812   1.411  10.539   6.755
 9081POPC   C3B45813   1.452  10.598   7.055
 9081POPC   C4B45814   1.469  10.550   7.355
 9082POPC   NC345815  31.423  21.435   5.555
 9082POPC   PO445816  31.513  21.432   5.855
 9082POPC   GL145817  31.450  21.359   6.155
 9082POPC   GL245818  31.551  21.288   6.155
 9082POPC   C1A45819  31.458  21.356   6.455
 9082POPC   D2A45820  31.452  21.359   6.755
 9082POPC   C3A45821  31.487  21.398   7.055
 9082POPC   C4A45822  31.424  21.398   7.355
 9082POPC   C1B45823  31.518  21.155   6.455
 9082POPC   C2B45824  31.529  21.116   6.755
 9082POPC   C3B45825  31.530  21.109   7.055
 9082POPC   C4B45826  31.485  21.124   7.355
 9083POPC   NC345827   1.173  32.262   5.555
 9083POPC   PO445828   1.198  32.242   5.855
 9083POPC   GL145829   1.175  32.210   6.155
 9083POPC   GL245830   1.075  32.220   6.155
 9083POPC   C1A45831   1.169  32.220   6.455
 9083POPC   D2A45832   1.178  32.246   6.755
 9083POPC   C3A45833   1.237  32.218   7.055
 9083POPC   C4A45834   1.183  32.211   7.355
 9083POPC   C1B45835   0.993  32.193   6.455
 9083POPC   C2B45836   0.951  32.210   6.755
 9083POPC   C3B45837   0.989  32.228   7.055
 9083POPC   C4B45838   1.018  32.191   7.355
 9084POPC   NC345839  43.909  14.366   5.555
 9084POPC   PO445840  43.932  14.362   5.855
 9084POPC   GL145841  43.907  14.381   6.155
 9084POPC   GL245842  43.749  14.354   6.155
 9084POPC   C1A45843  43.911  14.375   6.455
 9084POPC   D2A45844  43.921  14.370   6.755
 9084POPC   C3A45845  43.911  14.367   7.055
 9084POPC   C4A45846  43.871  14.435   7.355
 9084POPC   C1B45847  43.649  14.257   6.455
 9084POPC   C2B45848  43.734  14.210   6.755
 9084POPC   C3B45849  43.733  14.228   7.055
 9084POPC   C4B45850  43.697  14.267   7.355
 9085POPC   NC345851  28.333   6.628   5.555
 9085POPC   PO445852  28.384   6.620   5.855
 9085POPC   GL145853  28.365   6.649   6.155
 9085POPC   GL245854  28.282   6.654   6.155
 9085POPC   C1A45855  28.348   6.644   6.455
 9085POPC   D2A45856  28.321   6.628   6.755
 9085POPC   C3A45857  28.334   6.645   7.055
 9085POPC   C4A45858  28.418   6.628   7.355
 9085POPC   C1B45859  28.114   6.646   6.455
 9085POPC   C2B45860  28.091   6.652   6.755
 9085POPC   C3B45861  28.111   6.707   7.055
 9085POPC   C4B45862  28.077   6.730   7.355
 9086POPC   NC345863  17.512  36.121   5.555
 9086POPC   PO445864  17.536  36.154   5.855
 9086POPC   GL145865  17.505  36.104   6.155
 9086POPC   GL245866  17.427  36.051   6.155
 9086POPC   C1A45867  17.516  36.145   6.455
 9086POPC   D2A45868  17.516  36.101   6.755
 9086POPC   C3A45869  17.486  36.174   7.055
 9086POPC   C4A45870  17.527  36.081   7.355
 9086POPC   C1B45871  17.317  35.973   6.455
 9086POPC   C2B45872  17.318  36.025   6.755
 9086POPC   C3B45873  17.330  35.963   7.055
 9086POPC   C4B45874  17.257  35.951   7.355
 9087POPC   NC345875  38.462   2.001   5.555
 9087POPC   PO445876  38.414   1.968   5.855
 9087POPC   GL145877  38.477   2.015   6.155
 9087POPC   GL245878  38.560   1.973   6.155
 9087POPC   C1A45879  38.470   2.004   6.455
 9087POPC   D2A45880  38.473   2.018   6.755
 9087POPC   C3A45881  38.437   1.973   7.055
 9087POPC   C4A45882  38.500   2.010   7.355
 9087POPC   C1B45883  38.708   1.965   6.455
 9087POPC   C2B45884  38.707   1.925   6.755
 9087POPC   C3B45885  38.704   1.986   7.055
 9087POPC   C4B45886  38.696   2.003   7.355
 9088POPC   NC345887   5.109  27.576   5.555
 9088POPC   PO445888   5.106  27.589   5.855
 9088POPC   GL145889   5.086  27.570   6.155
 9088POPC   GL245890   5.123  27.453   6.155
 9088POPC   C1A45891   5.112  27.616   6.455
 9088POPC   D2A45892   5.125  27.608   6.755
 9088POPC   C3A45893   5.054  27.622   7.055
 9088POPC   C4A45894   5.047  27.642   7.355
 9088POPC   C1B45895   5.226  27.388   6.455
 9088POPC   C2B45896   5.254  27.389   6.755
 9088POPC   C3B45897   5.264  27.377   7.055
 9088POPC   C4B45898   5.261  27.352   7.355
 9089POPC   NC345899  13.651  14.445   5.555
 9089POPC   PO445900  13.633  14.424   5.855
 9089POPC   GL145901  13.602  14.368   6.155
 9089POPC   GL245902  13.723  14.306   6.155
 9089POPC   C1A45903  13.647  14.389   6.455
 9089POPC   D2A45904  13.597  14.418   6.755
 9089POPC   C3A45905  13.677  14.380   7.055
 9089POPC   C4A45906  13.595  14.402   7.355
 9089POPC   C1B45907  13.755  14.267   6.455
 9089POPC   C2B45908  13.835  14.235   6.755
 9089POPC   C3B45909  13.784  14.267   7.055
 9089POPC   C4B45910  13.800  14.263   7.355
 9090POPC   NC345911  36.172  19.084   5.555
 9090POPC   PO445912  36.120  19.107   5.855
 9090POPC   GL145913  36.111  19.063   6.155
 9090POPC   GL245914  36.037  19.139   6.155
 9090POPC   C1A45915  36.078  19.077   6.455
 9090POPC   D2A45916  36.100  19.023   6.755
 9090POPC   C3A45917  36.080  19.092   7.055
 9090POPC   C4A45918  36.116  19.067   7.355
 9090POPC   C1B45919  35.997  19.265   6.455
 9090POPC   C2B45920  36.044  19.295   6.755
 9090POPC   C3B45921  36.044  19.244   7.055
 9090POPC   C4B45922  36.034  19.308   7.355
 9091POPC   NC345923   1.990  35.347   5.555
 9091POPC   PO445924   2.012  35.353   5.855
 9091POPC   GL145925   1.954  35.359   6.155
 9091POPC   GL245926   1.838  35.418   6.155
 9091POPC   C1A45927   2.003  35.314   6.455
 9091POPC   D2A45928   1.984  35.357   6.755
 9091POPC   C3A45929   2.011  35.371   7.055
 9091POPC   C4A45930   2.000  35.393   7.355
 9091POPC   C1B45931   1.758  35.494   6.455
 9091POPC   C2B45932   1.744  35.500   6.755
 9091POPC   C3B45933   1.787  35.486   7.055
 9091POPC   C4B45934   1.804  35.432   7.355
 9092POPC   NC345935  41.605  23.669   5.555
 9092POPC   PO445936  41.588  23.676   5.855
 9092POPC   GL145937  41.587  23.747   6.155
 9092POPC   GL245938  41.674  23.787   6.155
 9092POPC   C1A45939  41.607  23.736   6.455
 9092POPC   D2A45940  41.565  23.762   6.755
 9092POPC   C3A45941  41.570  23.714   7.055
 9092POPC   C4A45942  41.585  23.684   7.355
 9092POPC   C1B45943  41.787  23.895   6.455
 9092POPC   C2B45944  41.732  23.929   6.755
 9092POPC   C3B45945  41.717  23.895   7.055
 9092POPC   C4B45946  41.697  23.934   7.355
 9093POPC   NC345947   9.000  40.832   5.555
 9093POPC   PO445948   8.963  40.806   5.855
 9093POPC   GL145949   8.967  40.765   6.155
 9093POPC   GL245950   8.967  40.927   6.155
 9093POPC   C1A45951   8.945  40.746   6.455
 9093POPC   D2A45952   8.993  40.759   6.755
 9093POPC   C3A45953   8.988  40.803   7.055
 9093POPC   C4A45954   8.954  40.768   7.355
 9093POPC   C1B45955   8.936  41.019   6.455
 9093POPC   C2B45956   8.961  41.052   6.755
 9093POPC   C3B45957   8.942  40.995   7.055
 9093POPC   C4B45958   8.960  41.047   7.355
 9094POPC   NC345959   5.062  15.957   5.555
 9094POPC   PO445960   5.139  15.954   5.855
 9094POPC   GL145961   5.047  15.968   6.155
 9094POPC   GL245962   4.953  16.021   6.155
 9094POPC   C1A45963   5.055  15.914   6.455
 9094POPC   D2A45964   5.130  15.955   6.755
 9094POPC   C3A45965   5.103  15.940   7.055
 9094POPC   C4A45966   5.087  15.944   7.355
 9094POPC   C1B45967   4.905  16.094   6.455
 9094POPC   C2B45968   4.845  16.045   6.755
 9094POPC   C3B45969   4.895  16.069   7.055
 9094POPC   C4B45970   4.901  16.042   7.355
 9095POPC   NC345971   7.435   8.928   5.555
 9095POPC   PO445972   7.382   8.960   5.855
 9095POPC   GL145973   7.416   9.002   6.155
 9095POPC   GL245974   7.358   8.850   6.155
 9095POPC   C1A45975   7.426   8.990   6.455
 9095POPC   D2A45976   7.456   9.014   6.755
 9095POPC   C3A45977   7.408   9.010   7.055
 9095POPC   C4A45978   7.415   8.966   7.355
 9095POPC   C1B45979   7.243   8.860   6.455
 9095POPC   C2B45980   7.184   8.775   6.755
 9095POPC   C3B45981   7.274   8.808   7.055
 9095POPC   C4B45982   7.229   8.797   7.355
 9096POPC   NC345983  41.588  12.034   5.555
 9096POPC   PO445984  41.547  12.119   5.855
 9096POPC   GL145985  41.529  12.039   6.155
 9096POPC   GL245986  41.610  11.974   6.155
 9096POPC   C1A45987  41.554  12.038   6.455
 9096POPC   D2A45988  41.597  12.054   6.755
 9096POPC   C3A45989  41.574  12.034   7.055
 9096POPC   C4A45990  41.531  12.045   7.355
 9096POPC   C1B45991  41.584  11.788   6.455
 9096POPC   C2B45992  41.553  11.809   6.755
 9096POPC   C3B45993  41.594  11.840   7.055
 9096POPC   C4B45994  41.595  11.802   7.355
 9097POPC   NC345995  20.575   2.759   5.555
 9097POPC   PO445996  20.615   2.790   5.855
 9097POPC   GL145997  20.602   2.794   6.155
 9097POPC   GL245998  20.694   2.778   6.155
 9097POPC   C1A45999  20.573   2.766   6.455
 9097POPC   D2A46000  20.656   2.756   6.755
 9097POPC   C3A46001  20.568   2.799   7.055
 9097POPC   C4A46002  20.592   2.726   7.355
 9097POPC   C1B46003  20.817   2.862   6.455
 9097POPC   C2B46004  20.796   2.829   6.755
 9097POPC   C3B46005  20.820   2.914   7.055
 9097POPC   C4B46006  20.832   2.887   7.355
 9098POPC   NC346007  32.268  31.481   5.555
 9098POPC   PO446008  32.225  31.470   5.855
 9098POPC   GL146009  32.238  31.429   6.155
 9098POPC   GL246010  32.237  31.583   6.155
 9098POPC   C1A46011  32.199  31.501   6.455
 9098POPC   D2A46012  32.267  31.513   6.755
 9098POPC   C3A46013  32.241  31.505   7.055
 9098POPC   C4A46014  32.218  31.481   7.355
 9098POPC   C1B46015  32.105  31.688   6.455
 9098POPC   C2B46016  32.116  31.749   6.755
 9098POPC   C3B46017  32.134  31.664   7.055
 9098POPC   C4B46018  32.146  31.737   7.355
 9099POPC   NC346019   1.172  19.026   5.555
 9099POPC   PO446020   1.210  19.090   5.855
 9099POPC   GL146021   1.178  19.067   6.155
 9099POPC   GL246022   1.070  19.078   6.155
 9099POPC   C1A46023   1.198  19.070   6.455
 9099POPC   D2A46024   1.181  19.099   6.755
 9099POPC   C3A46025   1.180  19.066   7.055
 9099POPC   C4A46026   1.233  19.078   7.355
 9099POPC   C1B46027   0.920  19.082   6.455
 9099POPC   C2B46028   0.976  19.097   6.755
 9099POPC   C3B46029   0.940  19.037   7.055
 9099POPC   C4B46030   1.011  19.019   7.355
 9100POPC   NC346031  24.454  15.177   5.555
 9100POPC   PO446032  24.504  15.170   5.855
 9100POPC   GL146033  24.511  15.190   6.155
 9100POPC   GL246034  24.326  15.159   6.155
 9100POPC   C1A46035  24.460  15.157   6.455
 9100POPC   D2A46036  24.446  15.185   6.755
 9100POPC   C3A46037  24.461  15.227   7.055
 9100POPC   C4A46038  24.458  15.130   7.355
 9100POPC   C1B46039  24.258  15.060   6.455
 9100POPC   C2B46040  24.238  15.148   6.755
 9100POPC   C3B46041  24.247  15.139   7.055
 9100POPC   C4B46042  24.260  15.125   7.355
 9101POPC   NC346043   6.636  12.859   5.555
 9101POPC   PO446044   6.653  12.887   5.855
 9101POPC   GL146045   6.665  12.828   6.155
 9101POPC   GL246046   6.732  12.844   6.155
 9101POPC   C1A46047   6.686  12.815   6.455
 9101POPC   D2A46048   6.650  12.808   6.755
 9101POPC   C3A46049   6.635  12.876   7.055
 9101POPC   C4A46050   6.665  12.809   7.355
 9101POPC   C1B46051   6.927  12.934   6.455
 9101POPC   C2B46052   6.860  12.902   6.755
 9101POPC   C3B46053   6.852  12.933   7.055
 9101POPC   C4B46054   6.860  12.886   7.355
 9102POPC   NC346055  32.223  35.368   5.555
 9102POPC   PO446056  32.212  35.322   5.855
 9102POPC   GL146057  32.200  35.375   6.155
 9102POPC   GL246058  32.226  35.490   6.155
 9102POPC   C1A46059  32.219  35.361   6.455
 9102POPC   D2A46060  32.277  35.396   6.755
 9102POPC   C3A46061  32.245  35.391   7.055
 9102POPC   C4A46062  32.254  35.392   7.355
 9102POPC   C1B46063  32.155  35.557   6.455
 9102POPC   C2B46064  32.116  35.512   6.755
 9102POPC   C3B46065  32.120  35.542   7.055
 9102POPC   C4B46066  32.068  35.544   7.355
 9103POPC   NC346067  15.131   8.241   5.555
 9103POPC   PO446068  15.182   8.164   5.855
 9103POPC   GL146069  15.204   8.203   6.155
 9103POPC   GL246070  15.068   8.084   6.155
 9103POPC   C1A46071  15.210   8.220   6.455
 9103POPC   D2A46072  15.133   8.181   6.755
 9103POPC   C3A46073  15.173   8.193   7.055
 9103POPC   C4A46074  15.136   8.239   7.355
 9103POPC   C1B46075  15.021   8.056   6.455
 9103POPC   C2B46076  15.027   8.056   6.755
 9103POPC   C3B46077  14.984   8.064   7.055
 9103POPC   C4B46078  14.983   8.061   7.355
 9104POPC   NC346079  27.574  16.752   5.555
 9104POPC   PO446080  27.641  16.702   5.855
 9104POPC   GL146081  27.624  16.719   6.155
 9104POPC   GL246082  27.513  16.746   6.155
 9104POPC   C1A46083  27.623  16.760   6.455
 9104POPC   D2A46084  27.613  16.733   6.755
 9104POPC   C3A46085  27.585  16.687   7.055
 9104POPC   C4A46086  27.547  16.692   7.355
 9104POPC   C1B46087  27.357  16.886   6.455
 9104POPC   C2B46088  27.347  16.835   6.755
 9104POPC   C3B46089  27.401  16.875   7.055
 9104POPC   C4B46090  27.345  16.902   7.355
 9105POPC   NC346091  33.757   2.035   5.555
 9105POPC   PO446092  33.819   1.948   5.855
 9105POPC   GL146093  33.799   1.996   6.155
 9105POPC   GL246094  33.757   1.918   6.155
 9105POPC   C1A46095  33.814   2.021   6.455
 9105POPC   D2A46096  33.848   2.036   6.755
 9105POPC   C3A46097  33.813   2.023   7.055
 9105POPC   C4A46098  33.760   1.976   7.355
 9105POPC   C1B46099  33.655   1.789   6.455
 9105POPC   C2B46100  33.673   1.818   6.755
 9105POPC   C3B46101  33.699   1.790   7.055
 9105POPC   C4B46102  33.706   1.780   7.355
 9106POPC   NC346103  21.346  21.406   5.555
 9106POPC   PO446104  21.410  21.366   5.855
 9106POPC   GL146105  21.367  21.371   6.155
 9106POPC   GL246106  21.263  21.429   6.155
 9106POPC   C1A46107  21.377  21.375   6.455
 9106POPC   D2A46108  21.372  21.418   6.755
 9106POPC   C3A46109  21.410  21.384   7.055
 9106POPC   C4A46110  21.375  21.391   7.355
 9106POPC   C1B46111  21.205  21.578   6.455
 9106POPC   C2B46112  21.163  21.561   6.755
 9106POPC   C3B46113  21.169  21.506   7.055
 9106POPC   C4B46114  21.158  21.569   7.355
 9107POPC   NC346115  34.610  31.442   5.555
 9107POPC   PO446116  34.559  31.509   5.855
 9107POPC   GL146117  34.580  31.447   6.155
 9107POPC   GL246118  34.528  31.346   6.155
 9107POPC   C1A46119  34.557  31.495   6.455
 9107POPC   D2A46120  34.550  31.494   6.755
 9107POPC   C3A46121  34.604  31.498   7.055
 9107POPC   C4A46122  34.580  31.430   7.355
 9107POPC   C1B46123  34.382  31.350   6.455
 9107POPC   C2B46124  34.425  31.273   6.755
 9107POPC   C3B46125  34.371  31.296   7.055
 9107POPC   C4B46126  34.353  31.344   7.355
 9108POPC   NC346127  26.840  16.716   5.555
 9108POPC   PO446128  26.790  16.685   5.855
 9108POPC   GL146129  26.834  16.765   6.155
 9108POPC   GL246130  26.907  16.653   6.155
 9108POPC   C1A46131  26.839  16.776   6.455
 9108POPC   D2A46132  26.836  16.737   6.755
 9108POPC   C3A46133  26.810  16.769   7.055
 9108POPC   C4A46134  26.847  16.687   7.355
 9108POPC   C1B46135  27.015  16.617   6.455
 9108POPC   C2B46136  27.073  16.562   6.755
 9108POPC   C3B46137  27.019  16.608   7.055
 9108POPC   C4B46138  26.993  16.612   7.355
 9109POPC   NC346139   4.345  16.717   5.555
 9109POPC   PO446140   4.364  16.759   5.855
 9109POPC   GL146141   4.365  16.726   6.155
 9109POPC   GL246142   4.250  16.823   6.155
 9109POPC   C1A46143   4.282  16.741   6.455
 9109POPC   D2A46144   4.332  16.776   6.755
 9109POPC   C3A46145   4.356  16.772   7.055
 9109POPC   C4A46146   4.308  16.703   7.355
 9109POPC   C1B46147   4.222  16.904   6.455
 9109POPC   C2B46148   4.203  16.919   6.755
 9109POPC   C3B46149   4.158  16.914   7.055
 9109POPC   C4B46150   4.199  16.987   7.355
 9110POPC   NC346151   4.315  17.470   5.555
 9110POPC   PO446152   4.325  17.461   5.855
 9110POPC   GL146153   4.282  17.529   6.155
 9110POPC   GL246154   4.304  17.637   6.155
 9110POPC   C1A46155   4.344  17.506   6.455
 9110POPC   D2A46156   4.310  17.497   6.755
 9110POPC   C3A46157   4.347  17.473   7.055
 9110POPC   C4A46158   4.315  17.508   7.355
 9110POPC   C1B46159   4.270  17.764   6.455
 9110POPC   C2B46160   4.199  17.787   6.755
 9110POPC   C3B46161   4.223  17.721   7.055
 9110POPC   C4B46162   4.215  17.791   7.355
 9111POPC   NC346163  35.355  15.993   5.555
 9111POPC   PO446164  35.381  15.954   5.855
 9111POPC   GL146165  35.322  15.947   6.155
 9111POPC   GL246166  35.213  15.914   6.155
 9111POPC   C1A46167  35.393  15.943   6.455
 9111POPC   D2A46168  35.400  15.940   6.755
 9111POPC   C3A46169  35.364  16.004   7.055
 9111POPC   C4A46170  35.374  15.971   7.355
 9111POPC   C1B46171  35.113  15.868   6.455
 9111POPC   C2B46172  35.116  15.902   6.755
 9111POPC   C3B46173  35.128  15.865   7.055
 9111POPC   C4B46174  35.107  15.915   7.355
 9112POPC   NC346175  36.873  25.252   5.555
 9112POPC   PO446176  36.889  25.261   5.855
 9112POPC   GL146177  36.943  25.278   6.155
 9112POPC   GL246178  36.872  25.403   6.155
 9112POPC   C1A46179  36.915  25.305   6.455
 9112POPC   D2A46180  36.860  25.290   6.755
 9112POPC   C3A46181  36.930  25.251   7.055
 9112POPC   C4A46182  36.890  25.268   7.355
 9112POPC   C1B46183  36.859  25.501   6.455
 9112POPC   C2B46184  36.808  25.552   6.755
 9112POPC   C3B46185  36.862  25.537   7.055
 9112POPC   C4B46186  36.814  25.504   7.355
 9113POPC   NC346187   8.219  24.495   5.555
 9113POPC   PO446188   8.182  24.441   5.855
 9113POPC   GL146189   8.231  24.460   6.155
 9113POPC   GL246190   8.321  24.361   6.155
 9113POPC   C1A46191   8.200  24.496   6.455
 9113POPC   D2A46192   8.157  24.489   6.755
 9113POPC   C3A46193   8.181  24.532   7.055
 9113POPC   C4A46194   8.234  24.498   7.355
 9113POPC   C1B46195   8.323  24.351   6.455
 9113POPC   C2B46196   8.383  24.311   6.755
 9113POPC   C3B46197   8.345  24.333   7.055
 9113POPC   C4B46198   8.414  24.302   7.355
 9114POPC   NC346199  19.100  28.413   5.555
 9114POPC   PO446200  19.057  28.389   5.855
 9114POPC   GL146201  19.038  28.327   6.155
 9114POPC   GL246202  19.063  28.536   6.155
 9114POPC   C1A46203  19.105  28.375   6.455
 9114POPC   D2A46204  19.022  28.415   6.755
 9114POPC   C3A46205  19.010  28.348   7.055
 9114POPC   C4A46206  19.036  28.345   7.355
 9114POPC   C1B46207  19.064  28.660   6.455
 9114POPC   C2B46208  19.112  28.600   6.755
 9114POPC   C3B46209  19.117  28.650   7.055
 9114POPC   C4B46210  19.070  28.609   7.355
 9115POPC   NC346211  33.790  44.616   5.555
 9115POPC   PO446212  33.770  44.671   5.855
 9115POPC   GL146213  33.802  44.682   6.155
 9115POPC   GL246214  33.763  44.782   6.155
 9115POPC   C1A46215  33.777  44.662   6.455
 9115POPC   D2A46216  33.784  44.641   6.755
 9115POPC   C3A46217  33.760  44.678   7.055
 9115POPC   C4A46218  33.834  44.624   7.355
 9115POPC   C1B46219  33.699  44.912   6.455
 9115POPC   C2B46220  33.673  44.816   6.755
 9115POPC   C3B46221  33.636  44.907   7.055
 9115POPC   C4B46222  33.680  44.846   7.355
 9116POPC   NC346223  29.150   1.172   5.555
 9116POPC   PO446224  29.097   1.240   5.855
 9116POPC   GL146225  29.100   1.212   6.155
 9116POPC   GL246226  29.098   1.052   6.155
 9116POPC   C1A46227  29.129   1.199   6.455
 9116POPC   D2A46228  29.119   1.245   6.755
 9116POPC   C3A46229  29.147   1.170   7.055
 9116POPC   C4A46230  29.123   1.210   7.355
 9116POPC   C1B46231  29.084   0.944   6.455
 9116POPC   C2B46232  29.125   0.967   6.755
 9116POPC   C3B46233  29.129   0.970   7.055
 9116POPC   C4B46234  29.120   0.963   7.355
 9117POPC   NC346235  25.275  17.465   5.555
 9117POPC   PO446236  25.294  17.552   5.855
 9117POPC   GL146237  25.256  17.463   6.155
 9117POPC   GL246238  25.300  17.628   6.155
 9117POPC   C1A46239  25.314  17.502   6.455
 9117POPC   D2A46240  25.270  17.554   6.755
 9117POPC   C3A46241  25.260  17.522   7.055
 9117POPC   C4A46242  25.243  17.482   7.355
 9117POPC   C1B46243  25.271  17.722   6.455
 9117POPC   C2B46244  25.320  17.732   6.755
 9117POPC   C3B46245  25.288  17.702   7.055
 9117POPC   C4B46246  25.291  17.723   7.355
 9118POPC   NC346247  26.861  40.013   5.555
 9118POPC   PO446248  26.825  39.959   5.855
 9118POPC   GL146249  26.801  40.028   6.155
 9118POPC   GL246250  26.929  40.115   6.155
 9118POPC   C1A46251  26.786  40.032   6.455
 9118POPC   D2A46252  26.842  39.987   6.755
 9118POPC   C3A46253  26.793  40.043   7.055
 9118POPC   C4A46254  26.812  40.033   7.355
 9118POPC   C1B46255  27.006  40.176   6.455
 9118POPC   C2B46256  26.980  40.187   6.755
 9118POPC   C3B46257  27.005  40.165   7.055
 9118POPC   C4B46258  26.987  40.184   7.355
 9119POPC   NC346259  20.570  34.609   5.555
 9119POPC   PO446260  20.631  34.571   5.855
 9119POPC   GL146261  20.579  34.606   6.155
 9119POPC   GL246262  20.676  34.664   6.155
 9119POPC   C1A46263  20.609  34.587   6.455
 9119POPC   D2A46264  20.567  34.602   6.755
 9119POPC   C3A46265  20.629  34.614   7.055
 9119POPC   C4A46266  20.604  34.545   7.355
 9119POPC   C1B46267  20.749  34.813   6.455
 9119POPC   C2B46268  20.739  34.761   6.755
 9119POPC   C3B46269  20.695  34.839   7.055
 9119POPC   C4B46270  20.680  34.783   7.355
 9120POPC   NC346271  33.812  18.316   5.555
 9120POPC   PO446272  33.814  18.256   5.855
 9120POPC   GL146273  33.840  18.321   6.155
 9120POPC   GL246274  33.669  18.308   6.155
 9120POPC   C1A46275  33.752  18.286   6.455
 9120POPC   D2A46276  33.766  18.315   6.755
 9120POPC   C3A46277  33.833  18.304   7.055
 9120POPC   C4A46278  33.831  18.287   7.355
 9120POPC   C1B46279  33.563  18.357   6.455
 9120POPC   C2B46280  33.590  18.392   6.755
 9120POPC   C3B46281  33.559  18.332   7.055
 9120POPC   C4B46282  33.541  18.306   7.355
 9121POPC   NC346283  44.682  36.082   5.555
 9121POPC   PO446284  44.699  36.160   5.855
 9121POPC   GL146285  44.679  36.127   6.155
 9121POPC   GL246286  44.716  36.191   6.155
 9121POPC   C1A46287  44.670  36.083   6.455
 9121POPC   D2A46288  44.707  36.164   6.755
 9121POPC   C3A46289  44.631  36.147   7.055
 9121POPC   C4A46290  44.669  36.171   7.355
 9121POPC   C1B46291  44.832  36.342   6.455
 9121POPC   C2B46292  44.814  36.369   6.755
 9121POPC   C3B46293  44.789  36.329   7.055
 9121POPC   C4B46294  44.847  36.342   7.355
 9122POPC   NC346295   5.078   8.930   5.555
 9122POPC   PO446296   5.091   8.986   5.855
 9122POPC   GL146297   5.066   8.938   6.155
 9122POPC   GL246298   5.245   9.039   6.155
 9122POPC   C1A46299   5.130   8.937   6.455
 9122POPC   D2A46300   5.095   9.003   6.755
 9122POPC   C3A46301   5.108   8.975   7.055
 9122POPC   C4A46302   5.068   8.948   7.355
 9122POPC   C1B46303   5.297   9.045   6.455
 9122POPC   C2B46304   5.319   9.064   6.755
 9122POPC   C3B46305   5.314   9.095   7.055
 9122POPC   C4B46306   5.308   9.098   7.355
 9123POPC   NC346307   4.303  34.568   5.555
 9123POPC   PO446308   4.271  34.567   5.855
 9123POPC   GL146309   4.337  34.622   6.155
 9123POPC   GL246310   4.478  34.533   6.155
 9123POPC   C1A46311   4.344  34.543   6.455
 9123POPC   D2A46312   4.310  34.553   6.755
 9123POPC   C3A46313   4.277  34.568   7.055
 9123POPC   C4A46314   4.356  34.563   7.355
 9123POPC   C1B46315   4.539  34.577   6.455
 9123POPC   C2B46316   4.553  34.549   6.755
 9123POPC   C3B46317   4.598  34.563   7.055
 9123POPC   C4B46318   4.607  34.577   7.355
 9124POPC   NC346319   2.813  17.547   5.555
 9124POPC   PO446320   2.788  17.460   5.855
 9124POPC   GL146321   2.758  17.539   6.155
 9124POPC   GL246322   2.687  17.363   6.155
 9124POPC   C1A46323   2.742  17.509   6.455
 9124POPC   D2A46324   2.800  17.460   6.755
 9124POPC   C3A46325   2.716  17.496   7.055
 9124POPC   C4A46326   2.797  17.465   7.355
 9124POPC   C1B46327   2.710  17.228   6.455
 9124POPC   C2B46328   2.678  17.317   6.755
 9124POPC   C3B46329   2.695  17.312   7.055
 9124POPC   C4B46330   2.656  17.265   7.355
 9125POPC   NC346331   5.062  33.828   5.555
 9125POPC   PO446332   5.084  33.828   5.855
 9125POPC   GL146333   5.142  33.802   6.155
 9125POPC   GL246334   5.102  33.954   6.155
 9125POPC   C1A46335   5.074  33.770   6.455
 9125POPC   D2A46336   5.121  33.785   6.755
 9125POPC   C3A46337   5.112  33.790   7.055
 9125POPC   C4A46338   5.048  33.757   7.355
 9125POPC   C1B46339   5.098  34.035   6.455
 9125POPC   C2B46340   5.145  34.034   6.755
 9125POPC   C3B46341   5.117  34.069   7.055
 9125POPC   C4B46342   5.047  34.035   7.355
 9126POPC   NC346343  20.642  23.758   5.555
 9126POPC   PO446344  20.604  23.689   5.855
 9126POPC   GL146345  20.636  23.711   6.155
 9126POPC   GL246346  20.749  23.630   6.155
 9126POPC   C1A46347  20.580  23.681   6.455
 9126POPC   D2A46348  20.568  23.710   6.755
 9126POPC   C3A46349  20.638  23.680   7.055
 9126POPC   C4A46350  20.598  23.677   7.355
 9126POPC   C1B46351  20.788  23.578   6.455
 9126POPC   C2B46352  20.826  23.502   6.755
 9126POPC   C3B46353  20.744  23.556   7.055
 9126POPC   C4B46354  20.789  23.538   7.355
 9127POPC   NC346355  32.225   5.062   5.555
 9127POPC   PO446356  32.238   5.061   5.855
 9127POPC   GL146357  32.285   5.100   6.155
 9127POPC   GL246358  32.259   5.185   6.155
 9127POPC   C1A46359  32.229   5.045   6.455
 9127POPC   D2A46360  32.270   5.072   6.755
 9127POPC   C3A46361  32.224   5.130   7.055
 9127POPC   C4A46362  32.276   5.082   7.355
 9127POPC   C1B46363  32.221   5.355   6.455
 9127POPC   C2B46364  32.214   5.350   6.755
 9127POPC   C3B46365  32.256   5.303   7.055
 9127POPC   C4B46366  32.220   5.349   7.355
 9128POPC   NC346367   2.749  18.234   5.555
 9128POPC   PO446368   2.727  18.311   5.855
 9128POPC   GL146369   2.800  18.321   6.155
 9128POPC   GL246370   2.645  18.240   6.155
 9128POPC   C1A46371   2.754  18.330   6.455
 9128POPC   D2A46372   2.780  18.285   6.755
 9128POPC   C3A46373   2.722  18.313   7.055
 9128POPC   C4A46374   2.735  18.316   7.355
 9128POPC   C1B46375   2.502  18.209   6.455
 9128POPC   C2B46376   2.502  18.168   6.755
 9128POPC   C3B46377   2.523  18.224   7.055
 9128POPC   C4B46378   2.579  18.163   7.355
 9129POPC   NC346379   4.274  28.387   5.555
 9129POPC   PO446380   4.277  28.359   5.855
 9129POPC   GL146381   4.287  28.350   6.155
 9129POPC   GL246382   4.252  28.468   6.155
 9129POPC   C1A46383   4.326  28.402   6.455
 9129POPC   D2A46384   4.285  28.369   6.755
 9129POPC   C3A46385   4.270  28.330   7.055
 9129POPC   C4A46386   4.316  28.367   7.355
 9129POPC   C1B46387   4.223  28.655   6.455
 9129POPC   C2B46388   4.255  28.565   6.755
 9129POPC   C3B46389   4.233  28.611   7.055
 9129POPC   C4B46390   4.226  28.637   7.355
 9130POPC   NC346391  14.374  44.694   5.555
 9130POPC   PO446392  14.388  44.705   5.855
 9130POPC   GL146393  14.355  44.613   6.155
 9130POPC   GL246394  14.474  44.618   6.155
 9130POPC   C1A46395  14.449  44.705   6.455
 9130POPC   D2A46396  14.448  44.701   6.755
 9130POPC   C3A46397  14.453  44.662   7.055
 9130POPC   C4A46398  14.439  44.682   7.355
 9130POPC   C1B46399  14.609  44.511   6.455
 9130POPC   C2B46400  14.595  44.567   6.755
 9130POPC   C3B46401  14.645  44.570   7.055
 9130POPC   C4B46402  14.617  44.533   7.355
 9131POPC   NC346403  44.691  19.867   5.555
 9131POPC   PO446404  44.622  19.841   5.855
 9131POPC   GL146405  44.659  19.872   6.155
 9131POPC   GL246406  44.750  19.778   6.155
 9131POPC   C1A46407  44.698  19.842   6.455
 9131POPC   D2A46408  44.684  19.832   6.755
 9131POPC   C3A46409  44.638  19.867   7.055
 9131POPC   C4A46410  44.685  19.872   7.355
 9131POPC   C1B46411  44.868  19.711   6.455
 9131POPC   C2B46412  44.888  19.764   6.755
 9131POPC   C3B46413  44.923  19.715   7.055
 9131POPC   C4B46414  44.914  19.780   7.355
 9132POPC   NC346415  39.986   5.048   5.555
 9132POPC   PO446416  40.048   5.141   5.855
 9132POPC   GL146417  40.007   5.082   6.155
 9132POPC   GL246418  40.039   4.979   6.155
 9132POPC   C1A46419  39.995   5.105   6.455
 9132POPC   D2A46420  40.048   5.052   6.755
 9132POPC   C3A46421  40.000   5.088   7.055
 9132POPC   C4A46422  39.965   5.108   7.355
 9132POPC   C1B46423  40.164   4.888   6.455
 9132POPC   C2B46424  40.112   4.917   6.755
 9132POPC   C3B46425  40.111   4.839   7.055
 9132POPC   C4B46426  40.134   4.868   7.355
 9133POPC   NC346427  24.533  43.910   5.555
 9133POPC   PO446428  24.480  43.922   5.855
 9133POPC   GL146429  24.483  43.926   6.155
 9133POPC   GL246430  24.435  43.992   6.155
 9133POPC   C1A46431  24.445  43.884   6.455
 9133POPC   D2A46432  24.537  43.872   6.755
 9133POPC   C3A46433  24.506  43.921   7.055
 9133POPC   C4A46434  24.447  43.861   7.355
 9133POPC   C1B46435  24.403  44.111   6.455
 9133POPC   C2B46436  24.362  44.100   6.755
 9133POPC   C3B46437  24.350  44.064   7.055
 9133POPC   C4B46438  24.349  44.088   7.355
 9134POPC   NC346439  13.626  23.716   5.555
 9134POPC   PO446440  13.672  23.667   5.855
 9134POPC   GL146441  13.671  23.667   6.155
 9134POPC   GL246442  13.541  23.616   6.155
 9134POPC   C1A46443  13.672  23.743   6.455
 9134POPC   D2A46444  13.590  23.681   6.755
 9134POPC   C3A46445  13.581  23.673   7.055
 9134POPC   C4A46446  13.659  23.679   7.355
 9134POPC   C1B46447  13.477  23.466   6.455
 9134POPC   C2B46448  13.541  23.502   6.755
 9134POPC   C3B46449  13.445  23.459   7.055
 9134POPC   C4B46450  13.456  23.550   7.355
 9135POPC   NC346451  43.159  19.054   5.555
 9135POPC   PO446452  43.137  19.080   5.855
 9135POPC   GL146453  43.079  19.066   6.155
 9135POPC   GL246454  43.061  19.198   6.155
 9135POPC   C1A46455  43.110  19.093   6.455
 9135POPC   D2A46456  43.158  19.016   6.755
 9135POPC   C3A46457  43.131  19.088   7.055
 9135POPC   C4A46458  43.141  19.011   7.355
 9135POPC   C1B46459  42.934  19.229   6.455
 9135POPC   C2B46460  42.980  19.223   6.755
 9135POPC   C3B46461  42.980  19.273   7.055
 9135POPC   C4B46462  42.987  19.245   7.355
 9136POPC   NC346463  44.706   7.408   5.555
 9136POPC   PO446464  44.654   7.396   5.855
 9136POPC   GL146465  44.631   7.378   6.155
 9136POPC   GL246466  44.654   7.581   6.155
 9136POPC   C1A46467  44.687   7.402   6.455
 9136POPC   D2A46468  44.614   7.460   6.755
 9136POPC   C3A46469  44.698   7.407   7.055
 9136POPC   C4A46470  44.666   7.373   7.355
 9136POPC   C1B46471  44.649   7.648   6.455
 9136POPC   C2B46472  44.613   7.643   6.755
 9136POPC   C3B46473  44.673   7.645   7.055
 9136POPC   C4B46474  44.638   7.646   7.355
 9137POPC   NC346475  22.185  30.735   5.555
 9137POPC   PO446476  22.208  30.686   5.855
 9137POPC   GL146477  22.178  30.719   6.155
 9137POPC   GL246478  22.134  30.864   6.155
 9137POPC   C1A46479  22.153  30.654   6.455
 9137POPC   D2A46480  22.203  30.682   6.755
 9137POPC   C3A46481  22.204  30.733   7.055
 9137POPC   C4A46482  22.139  30.686   7.355
 9137POPC   C1B46483  22.178  30.966   6.455
 9137POPC   C2B46484  22.162  30.908   6.755
 9137POPC   C3B46485  22.188  30.923   7.055
 9137POPC   C4B46486  22.178  30.917   7.355
 9138POPC   NC346487  12.094  35.313   5.555
 9138POPC   PO446488  12.048  35.361   5.855
 9138POPC   GL146489  12.035  35.335   6.155
 9138POPC   GL246490  11.953  35.381   6.155
 9138POPC   C1A46491  12.113  35.374   6.455
 9138POPC   D2A46492  12.035  35.336   6.755
 9138POPC   C3A46493  12.123  35.315   7.055
 9138POPC   C4A46494  12.026  35.379   7.355
 9138POPC   C1B46495  11.889  35.481   6.455
 9138POPC   C2B46496  11.813  35.488   6.755
 9138POPC   C3B46497  11.897  35.496   7.055
 9138POPC   C4B46498  11.829  35.466   7.355
 9139POPC   NC346499  30.720   9.721   5.555
 9139POPC   PO446500  30.673   9.771   5.855
 9139POPC   GL146501  30.688   9.776   6.155
 9139POPC   GL246502  30.672   9.842   6.155
 9139POPC   C1A46503  30.704   9.766   6.455
 9139POPC   D2A46504  30.700   9.750   6.755
 9139POPC   C3A46505  30.682   9.792   7.055
 9139POPC   C4A46506  30.690   9.775   7.355
 9139POPC   C1B46507  30.602   9.990   6.455
 9139POPC   C2B46508  30.546   9.930   6.755
 9139POPC   C3B46509  30.626   9.930   7.055
 9139POPC   C4B46510  30.561   9.990   7.355
 9140POPC   NC346511   7.433  27.567   5.555
 9140POPC   PO446512   7.371  27.642   5.855
 9140POPC   GL146513   7.390  27.547   6.155
 9140POPC   GL246514   7.305  27.541   6.155
 9140POPC   C1A46515   7.436  27.603   6.455
 9140POPC   D2A46516   7.468  27.594   6.755
 9140POPC   C3A46517   7.437  27.615   7.055
 9140POPC   C4A46518   7.420  27.578   7.355
 9140POPC   C1B46519   7.259  27.452   6.455
 9140POPC   C2B46520   7.292  27.397   6.755
 9140POPC   C3B46521   7.264  27.406   7.055
 9140POPC   C4B46522   7.248  27.465   7.355
 9141POPC   NC346523  40.759  13.595   5.555
 9141POPC   PO446524  40.780  13.599   5.855
 9141POPC   GL146525  40.796  13.604   6.155
 9141POPC   GL246526  40.680  13.758   6.155
 9141POPC   C1A46527  40.755  13.608   6.455
 9141POPC   D2A46528  40.781  13.595   6.755
 9141POPC   C3A46529  40.751  13.674   7.055
 9141POPC   C4A46530  40.802  13.638   7.355
 9141POPC   C1B46531  40.611  13.824   6.455
 9141POPC   C2B46532  40.674  13.831   6.755
 9141POPC   C3B46533  40.630  13.859   7.055
 9141POPC   C4B46534  40.610  13.854   7.355
 9142POPC   NC346535  17.532  37.714   5.555
 9142POPC   PO446536  17.527  37.710   5.855
 9142POPC   GL146537  17.487  37.691   6.155
 9142POPC   GL246538  17.618  37.717   6.155
 9142POPC   C1A46539  17.494  37.675   6.455
 9142POPC   D2A46540  17.501  37.718   6.755
 9142POPC   C3A46541  17.458  37.663   7.055
 9142POPC   C4A46542  17.460  37.659   7.355
 9142POPC   C1B46543  17.769  37.749   6.455
 9142POPC   C2B46544  17.715  37.743   6.755
 9142POPC   C3B46545  17.728  37.797   7.055
 9142POPC   C4B46546  17.780  37.803   7.355
 9143POPC   NC346547  20.597  12.882   5.555
 9143POPC   PO446548  20.606  12.887   5.855
 9143POPC   GL146549  20.619  12.862   6.155
 9143POPC   GL246550  20.687  12.750   6.155
 9143POPC   C1A46551  20.582  12.848   6.455
 9143POPC   D2A46552  20.592  12.848   6.755
 9143POPC   C3A46553  20.655  12.845   7.055
 9143POPC   C4A46554  20.567  12.884   7.355
 9143POPC   C1B46555  20.762  12.616   6.455
 9143POPC   C2B46556  20.816  12.711   6.755
 9143POPC   C3B46557  20.788  12.683   7.055
 9143POPC   C4B46558  20.763  12.693   7.355
 9144POPC   NC346559  14.449   1.248   5.555
 9144POPC   PO446560  14.427   1.165   5.855
 9144POPC   GL146561  14.354   1.182   6.155
 9144POPC   GL246562  14.413   1.067   6.155
 9144POPC   C1A46563  14.399   1.167   6.455
 9144POPC   D2A46564  14.356   1.174   6.755
 9144POPC   C3A46565  14.371   1.186   7.055
 9144POPC   C4A46566  14.414   1.230   7.355
 9144POPC   C1B46567  14.371   0.966   6.455
 9144POPC   C2B46568  14.350   0.958   6.755
 9144POPC   C3B46569  14.346   1.008   7.055
 9144POPC   C4B46570  14.363   0.949   7.355
 9145POPC   NC346571   3.493   5.078   5.555
 9145POPC   PO446572   3.575   5.078   5.855
 9145POPC   GL146573   3.565   5.050   6.155
 9145POPC   GL246574   3.532   4.999   6.155
 9145POPC   C1A46575   3.517   5.135   6.455
 9145POPC   D2A46576   3.526   5.046   6.755
 9145POPC   C3A46577   3.563   5.078   7.055
 9145POPC   C4A46578   3.536   5.059   7.355
 9145POPC   C1B46579   3.498   4.834   6.455
 9145POPC   C2B46580   3.564   4.817   6.755
 9145POPC   C3B46581   3.518   4.812   7.055
 9145POPC   C4B46582   3.583   4.809   7.355
 9146POPC   NC346583  25.309   5.124   5.555
 9146POPC   PO446584  25.314   5.108   5.855
 9146POPC   GL146585  25.270   5.131   6.155
 9146POPC   GL246586  25.357   4.981   6.155
 9146POPC   C1A46587  25.300   5.131   6.455
 9146POPC   D2A46588  25.312   5.072   6.755
 9146POPC   C3A46589  25.295   5.108   7.055
 9146POPC   C4A46590  25.309   5.056   7.355
 9146POPC   C1B46591  25.389   4.855   6.455
 9146POPC   C2B46592  25.443   4.836   6.755
 9146POPC   C3B46593  25.412   4.912   7.055
 9146POPC   C4B46594  25.419   4.924   7.355
 9147POPC   NC346595  17.473  34.546   5.555
 9147POPC   PO446596  17.505  34.600   5.855
 9147POPC   GL146597  17.532  34.600   6.155
 9147POPC   GL246598  17.504  34.498   6.155
 9147POPC   C1A46599  17.482  34.547   6.455
 9147POPC   D2A46600  17.521  34.589   6.755
 9147POPC   C3A46601  17.499  34.565   7.055
 9147POPC   C4A46602  17.522  34.535   7.355
 9147POPC   C1B46603  17.372  34.297   6.455
 9147POPC   C2B46604  17.394  34.385   6.755
 9147POPC   C3B46605  17.383  34.323   7.055
 9147POPC   C4B46606  17.403  34.294   7.355
 9148POPC   NC346607  19.862  40.788   5.555
 9148POPC   PO446608  19.865  40.812   5.855
 9148POPC   GL146609  19.824  40.829   6.155
 9148POPC   GL246610  19.817  40.909   6.155
 9148POPC   C1A46611  19.870  40.753   6.455
 9148POPC   D2A46612  19.787  40.829   6.755
 9148POPC   C3A46613  19.884  40.787   7.055
 9148POPC   C4A46614  19.866  40.765   7.355
 9148POPC   C1B46615  19.717  40.973   6.455
 9148POPC   C2B46616  19.736  41.039   6.755
 9148POPC   C3B46617  19.724  41.043   7.055
 9148POPC   C4B46618  19.692  41.037   7.355
 9149POPC   NC346619   4.341  33.028   5.555
 9149POPC   PO446620   4.321  33.034   5.855
 9149POPC   GL146621   4.330  32.990   6.155
 9149POPC   GL246622   4.458  33.085   6.155
 9149POPC   C1A46623   4.361  33.029   6.455
 9149POPC   D2A46624   4.366  33.040   6.755
 9149POPC   C3A46625   4.337  33.038   7.055
 9149POPC   C4A46626   4.355  33.059   7.355
 9149POPC   C1B46627   4.562  33.188   6.455
 9149POPC   C2B46628   4.575  33.152   6.755
 9149POPC   C3B46629   4.513  33.182   7.055
 9149POPC   C4B46630   4.487  33.136   7.355
 9150POPC   NC346631  15.168  15.135   5.555
 9150POPC   PO446632  15.208  15.211   5.855
 9150POPC   GL146633  15.138  15.200   6.155
 9150POPC   GL246634  15.026  15.106   6.155
 9150POPC   C1A46635  15.156  15.203   6.455
 9150POPC   D2A46636  15.167  15.142   6.755
 9150POPC   C3A46637  15.193  15.141   7.055
 9150POPC   C4A46638  15.206  15.201   7.355
 9150POPC   C1B46639  14.975  15.077   6.455
 9150POPC   C2B46640  14.923  15.152   6.755
 9150POPC   C3B46641  14.949  15.159   7.055
 9150POPC   C4B46642  14.906  15.071   7.355
 9151POPC   NC346643  13.619  26.024   5.555
 9151POPC   PO446644  13.636  26.078   5.855
 9151POPC   GL146645  13.624  26.011   6.155
 9151POPC   GL246646  13.653  25.959   6.155
 9151POPC   C1A46647  13.594  26.082   6.455
 9151POPC   D2A46648  13.674  26.066   6.755
 9151POPC   C3A46649  13.651  26.061   7.055
 9151POPC   C4A46650  13.631  26.065   7.355
 9151POPC   C1B46651  13.637  25.770   6.455
 9151POPC   C2B46652  13.698  25.818   6.755
 9151POPC   C3B46653  13.654  25.833   7.055
 9151POPC   C4B46654  13.611  25.768   7.355
 9152POPC   NC346655  16.682  35.326   5.555
 9152POPC   PO446656  16.709  35.321   5.855
 9152POPC   GL146657  16.755  35.375   6.155
 9152POPC   GL246658  16.603  35.339   6.155
 9152POPC   C1A46659  16.718  35.368   6.455
 9152POPC   D2A46660  16.768  35.313   6.755
 9152POPC   C3A46661  16.686  35.394   7.055
 9152POPC   C4A46662  16.768  35.372   7.355
 9152POPC   C1B46663  16.510  35.247   6.455
 9152POPC   C2B46664  16.470  35.256   6.755
 9152POPC   C3B46665  16.522  35.260   7.055
 9152POPC   C4B46666  16.474  35.294   7.355
 9153POPC   NC346667  17.503   0.456   5.555
 9153POPC   PO446668  17.458   0.390   5.855
 9153POPC   GL146669  17.530   0.397   6.155
 9153POPC   GL246670  17.395   0.528   6.155
 9153POPC   C1A46671  17.506   0.431   6.455
 9153POPC   D2A46672  17.469   0.426   6.755
 9153POPC   C3A46673  17.553   0.390   7.055
 9153POPC   C4A46674  17.467   0.393   7.355
 9153POPC   C1B46675  17.280   0.597   6.455
 9153POPC   C2B46676  17.362   0.604   6.755
 9153POPC   C3B46677  17.316   0.599   7.055
 9153POPC   C4B46678  17.297   0.637   7.355
 9154POPC   NC346679  37.641   3.568   5.555
 9154POPC   PO446680  37.691   3.509   5.855
 9154POPC   GL146681  37.729   3.543   6.155
 9154POPC   GL246682  37.604   3.703   6.155
 9154POPC   C1A46683  37.704   3.574   6.455
 9154POPC   D2A46684  37.670   3.526   6.755
 9154POPC   C3A46685  37.642   3.528   7.055
 9154POPC   C4A46686  37.678   3.567   7.355
 9154POPC   C1B46687  37.609   3.810   6.455
 9154POPC   C2B46688  37.537   3.813   6.755
 9154POPC   C3B46689  37.530   3.744   7.055
 9154POPC   C4B46690  37.535   3.740   7.355
 9155POPC   NC346691  15.226   6.645   5.555
 9155POPC   PO446692  15.160   6.615   5.855
 9155POPC   GL146693  15.176   6.627   6.155
 9155POPC   GL246694  15.230   6.734   6.155
 9155POPC   C1A46695  15.154   6.647   6.455
 9155POPC   D2A46696  15.151   6.648   6.755
 9155POPC   C3A46697  15.131   6.620   7.055
 9155POPC   C4A46698  15.214   6.659   7.355
 9155POPC   C1B46699  15.314   6.851   6.455
 9155POPC   C2B46700  15.255   6.846   6.755
 9155POPC   C3B46701  15.315   6.833   7.055
 9155POPC   C4B46702  15.289   6.881   7.355
 9156POPC   NC346703   7.442  15.160   5.555
 9156POPC   PO446704   7.457  15.153   5.855
 9156POPC   GL146705   7.396  15.144   6.155
 9156POPC   GL246706   7.346  15.114   6.155
 9156POPC   C1A46707   7.454  15.227   6.455
 9156POPC   D2A46708   7.417  15.147   6.755
 9156POPC   C3A46709   7.397  15.181   7.055
 9156POPC   C4A46710   7.391  15.145   7.355
 9156POPC   C1B46711   7.144  15.180   6.455
 9156POPC   C2B46712   7.165  15.162   6.755
 9156POPC   C3B46713   7.198  15.122   7.055
 9156POPC   C4B46714   7.219  15.126   7.355
 9157POPC   NC346715   4.356   2.741   5.555
 9157POPC   PO446716   4.312   2.779   5.855
 9157POPC   GL146717   4.331   2.760   6.155
 9157POPC   GL246718   4.395   2.676   6.155
 9157POPC   C1A46719   4.293   2.745   6.455
 9157POPC   D2A46720   4.315   2.770   6.755
 9157POPC   C3A46721   4.295   2.779   7.055
 9157POPC   C4A46722   4.353   2.772   7.355
 9157POPC   C1B46723   4.458   2.588   6.455
 9157POPC   C2B46724   4.555   2.624   6.755
 9157POPC   C3B46725   4.458   2.625   7.055
 9157POPC   C4B46726   4.463   2.648   7.355
 9158POPC   NC346727   2.800  35.395   5.555
 9158POPC   PO446728   2.740  35.379   5.855
 9158POPC   GL146729   2.807  35.398   6.155
 9158POPC   GL246730   2.920  35.446   6.155
 9158POPC   C1A46731   2.742  35.370   6.455
 9158POPC   D2A46732   2.808  35.390   6.755
 9158POPC   C3A46733   2.739  35.306   7.055
 9158POPC   C4A46734   2.729  35.308   7.355
 9158POPC   C1B46735   2.977  35.464   6.455
 9158POPC   C2B46736   2.985  35.476   6.755
 9158POPC   C3B46737   3.017  35.435   7.055
 9158POPC   C4B46738   2.958  35.458   7.355
 9159POPC   NC346739  27.581  22.170   5.555
 9159POPC   PO446740  27.605  22.172   5.855
 9159POPC   GL146741  27.607  22.195   6.155
 9159POPC   GL246742  27.477  22.132   6.155
 9159POPC   C1A46743  27.625  22.121   6.455
 9159POPC   D2A46744  27.588  22.181   6.755
 9159POPC   C3A46745  27.576  22.181   7.055
 9159POPC   C4A46746  27.558  22.190   7.355
 9159POPC   C1B46747  27.306  22.234   6.455
 9159POPC   C2B46748  27.320  22.140   6.755
 9159POPC   C3B46749  27.363  22.176   7.055
 9159POPC   C4B46750  27.384  22.227   7.355
 9160POPC   NC346751   8.183   5.888   5.555
 9160POPC   PO446752   8.178   5.859   5.855
 9160POPC   GL146753   8.152   5.916   6.155
 9160POPC   GL246754   8.120   5.876   6.155
 9160POPC   C1A46755   8.169   5.833   6.455
 9160POPC   D2A46756   8.190   5.863   6.755
 9160POPC   C3A46757   8.153   5.850   7.055
 9160POPC   C4A46758   8.184   5.878   7.355
 9160POPC   C1B46759   7.951   5.918   6.455
 9160POPC   C2B46760   7.975   5.930   6.755
 9160POPC   C3B46761   7.969   5.949   7.055
 9160POPC   C4B46762   7.941   5.979   7.355
 9161POPC   NC346763  40.826  41.584   5.555
 9161POPC   PO446764  40.788  41.593   5.855
 9161POPC   GL146765  40.759  41.538   6.155
 9161POPC   GL246766  40.894  41.495   6.155
 9161POPC   C1A46767  40.782  41.515   6.455
 9161POPC   D2A46768  40.768  41.516   6.755
 9161POPC   C3A46769  40.762  41.533   7.055
 9161POPC   C4A46770  40.810  41.555   7.355
 9161POPC   C1B46771  40.935  41.324   6.455
 9161POPC   C2B46772  40.920  41.354   6.755
 9161POPC   C3B46773  40.895  41.349   7.055
 9161POPC   C4B46774  40.883  41.323   7.355
 9162POPC   NC346775  36.171  43.917   5.555
 9162POPC   PO446776  36.153  43.910   5.855
 9162POPC   GL146777  36.081  43.879   6.155
 9162POPC   GL246778  35.985  43.837   6.155
 9162POPC   C1A46779  36.106  43.884   6.455
 9162POPC   D2A46780  36.146  43.862   6.755
 9162POPC   C3A46781  36.113  43.870   7.055
 9162POPC   C4A46782  36.088  43.901   7.355
 9162POPC   C1B46783  35.857  43.853   6.455
 9162POPC   C2B46784  35.882  43.877   6.755
 9162POPC   C3B46785  35.839  43.811   7.055
 9162POPC   C4B46786  35.833  43.835   7.355
 9163POPC   NC346787  32.216  37.705   5.555
 9163POPC   PO446788  32.245  37.674   5.855
 9163POPC   GL146789  32.279  37.704   6.155
 9163POPC   GL246790  32.199  37.589   6.155
 9163POPC   C1A46791  32.291  37.705   6.455
 9163POPC   D2A46792  32.285  37.718   6.755
 9163POPC   C3A46793  32.242  37.649   7.055
 9163POPC   C4A46794  32.270  37.695   7.355
 9163POPC   C1B46795  32.177  37.403   6.455
 9163POPC   C2B46796  32.158  37.442   6.755
 9163POPC   C3B46797  32.200  37.439   7.055
 9163POPC   C4B46798  32.165  37.448   7.355
 9164POPC   NC346799  22.952  38.496   5.555
 9164POPC   PO446800  22.921  38.435   5.855
 9164POPC   GL146801  22.927  38.434   6.155
 9164POPC   GL246802  22.820  38.501   6.155
 9164POPC   C1A46803  22.971  38.475   6.455
 9164POPC   D2A46804  22.943  38.407   6.755
 9164POPC   C3A46805  22.927  38.469   7.055
 9164POPC   C4A46806  22.954  38.470   7.355
 9164POPC   C1B46807  22.721  38.457   6.455
 9164POPC   C2B46808  22.715  38.458   6.755
 9164POPC   C3B46809  22.719  38.422   7.055
 9164POPC   C4B46810  22.644  38.412   7.355
 9165POPC   NC346811  19.863  22.921   5.555
 9165POPC   PO446812  19.853  22.930   5.855
 9165POPC   GL146813  19.791  22.891   6.155
 9165POPC   GL246814  19.805  22.845   6.155
 9165POPC   C1A46815  19.882  22.955   6.455
 9165POPC   D2A46816  19.785  22.950   6.755
 9165POPC   C3A46817  19.799  22.957   7.055
 9165POPC   C4A46818  19.854  22.907   7.355
 9165POPC   C1B46819  19.773  22.726   6.455
 9165POPC   C2B46820  19.847  22.735   6.755
 9165POPC   C3B46821  19.809  22.708   7.055
 9165POPC   C4B46822  19.845  22.689   7.355
 9166POPC   NC346823  12.835  43.095   5.555
 9166POPC   PO446824  12.803  43.157   5.855
 9166POPC   GL146825  12.836  43.119   6.155
 9166POPC   GL246826  12.939  43.218   6.155
 9166POPC   C1A46827  12.804  43.095   6.455
 9166POPC   D2A46828  12.870  43.093   6.755
 9166POPC   C3A46829  12.841  43.112   7.055
 9166POPC   C4A46830  12.891  43.063   7.355
 9166POPC   C1B46831  13.063  43.301   6.455
 9166POPC   C2B46832  13.023  43.238   6.755
 9166POPC   C3B46833  12.988  43.270   7.055
 9166POPC   C4B46834  13.078  43.326   7.355
 9167POPC   NC346835  13.644  29.942   5.555
 9167POPC   PO446836  13.612  29.877   5.855
 9167POPC   GL146837  13.637  29.883   6.155
 9167POPC   GL246838  13.737  29.916   6.155
 9167POPC   C1A46839  13.630  29.888   6.455
 9167POPC   D2A46840  13.617  29.882   6.755
 9167POPC   C3A46841  13.665  29.968   7.055
 9167POPC   C4A46842  13.587  29.895   7.355
 9167POPC   C1B46843  13.895  29.959   6.455
 9167POPC   C2B46844  13.816  29.999   6.755
 9167POPC   C3B46845  13.883  30.025   7.055
 9167POPC   C4B46846  13.852  29.979   7.355
 9168POPC   NC346847  22.937  18.316   5.555
 9168POPC   PO446848  22.933  18.265   5.855
 9168POPC   GL146849  22.932  18.279   6.155
 9168POPC   GL246850  22.792  18.245   6.155
 9168POPC   C1A46851  22.904  18.246   6.455
 9168POPC   D2A46852  22.955  18.256   6.755
 9168POPC   C3A46853  22.943  18.249   7.055
 9168POPC   C4A46854  22.893  18.250   7.355
 9168POPC   C1B46855  22.696  18.269   6.455
 9168POPC   C2B46856  22.727  18.284   6.755
 9168POPC   C3B46857  22.678  18.274   7.055
 9168POPC   C4B46858  22.655  18.260   7.355
 9169POPC   NC346859  38.485   3.493   5.555
 9169POPC   PO446860  38.490   3.538   5.855
 9169POPC   GL146861  38.491   3.564   6.155
 9169POPC   GL246862  38.501   3.397   6.155
 9169POPC   C1A46863  38.482   3.583   6.455
 9169POPC   D2A46864  38.409   3.503   6.755
 9169POPC   C3A46865  38.406   3.527   7.055
 9169POPC   C4A46866  38.496   3.496   7.355
 9169POPC   C1B46867  38.586   3.317   6.455
 9169POPC   C2B46868  38.578   3.297   6.755
 9169POPC   C3B46869  38.550   3.266   7.055
 9169POPC   C4B46870  38.557   3.293   7.355
 9170POPC   NC346871  34.559  29.172   5.555
 9170POPC   PO446872  34.606  29.122   5.855
 9170POPC   GL146873  34.617  29.172   6.155
 9170POPC   GL246874  34.434  29.044   6.155
 9170POPC   C1A46875  34.526  29.186   6.455
 9170POPC   D2A46876  34.563  29.149   6.755
 9170POPC   C3A46877  34.528  29.150   7.055
 9170POPC   C4A46878  34.546  29.190   7.355
 9170POPC   C1B46879  34.332  29.052   6.455
 9170POPC   C2B46880  34.319  29.036   6.755
 9170POPC   C3B46881  34.400  29.059   7.055
 9170POPC   C4B46882  34.313  29.067   7.355
 9171POPC   NC346883  36.083  15.178   5.555
 9171POPC   PO446884  36.107  15.203   5.855
 9171POPC   GL146885  36.165  15.152   6.155
 9171POPC   GL246886  36.254  15.155   6.155
 9171POPC   C1A46887  36.110  15.211   6.455
 9171POPC   D2A46888  36.176  15.157   6.755
 9171POPC   C3A46889  36.099  15.196   7.055
 9171POPC   C4A46890  36.148  15.212   7.355
 9171POPC   C1B46891  36.384  15.151   6.455
 9171POPC   C2B46892  36.395  15.169   6.755
 9171POPC   C3B46893  36.381  15.183   7.055
 9171POPC   C4B46894  36.377  15.178   7.355
 9172POPC   NC346895  29.900  28.360   5.555
 9172POPC   PO446896  29.931  28.414   5.855
 9172POPC   GL146897  29.904  28.390   6.155
 9172POPC   GL246898  29.900  28.308   6.155
 9172POPC   C1A46899  29.951  28.381   6.455
 9172POPC   D2A46900  29.917  28.415   6.755
 9172POPC   C3A46901  29.967  28.381   7.055
 9172POPC   C4A46902  29.903  28.350   7.355
 9172POPC   C1B46903  29.808  28.125   6.455
 9172POPC   C2B46904  29.803  28.121   6.755
 9172POPC   C3B46905  29.830  28.131   7.055
 9172POPC   C4B46906  29.767  28.172   7.355
 9173POPC   NC346907  10.549   7.468   5.555
 9173POPC   PO446908  10.475   7.451   5.855
 9173POPC   GL146909  10.533   7.402   6.155
 9173POPC   GL246910  10.558   7.577   6.155
 9173POPC   C1A46911  10.488   7.377   6.455
 9173POPC   D2A46912  10.570   7.400   6.755
 9173POPC   C3A46913  10.560   7.421   7.055
 9173POPC   C4A46914  10.533   7.404   7.355
 9173POPC   C1B46915  10.537   7.617   6.455
 9173POPC   C2B46916  10.568   7.629   6.755
 9173POPC   C3B46917  10.555   7.709   7.055
 9173POPC   C4B46918  10.578   7.683   7.355
 9174POPC   NC346919  14.427  24.469   5.555
 9174POPC   PO446920  14.384  24.517   5.855
 9174POPC   GL146921  14.404  24.454   6.155
 9174POPC   GL246922  14.530  24.465   6.155
 9174POPC   C1A46923  14.364  24.453   6.455
 9174POPC   D2A46924  14.408  24.522   6.755
 9174POPC   C3A46925  14.385  24.492   7.055
 9174POPC   C4A46926  14.360  24.528   7.355
 9174POPC   C1B46927  14.568  24.387   6.455
 9174POPC   C2B46928  14.663  24.362   6.755
 9174POPC   C3B46929  14.623  24.392   7.055
 9174POPC   C4B46930  14.609  24.378   7.355
 9175POPC   NC346931  18.289   2.760   5.555
 9175POPC   PO446932  18.314   2.779   5.855
 9175POPC   GL146933  18.253   2.725   6.155
 9175POPC   GL246934  18.358   2.809   6.155
 9175POPC   C1A46935  18.329   2.716   6.455
 9175POPC   D2A46936  18.260   2.812   6.755
 9175POPC   C3A46937  18.304   2.772   7.055
 9175POPC   C4A46938  18.324   2.807   7.355
 9175POPC   C1B46939  18.486   2.821   6.455
 9175POPC   C2B46940  18.561   2.888   6.755
 9175POPC   C3B46941  18.495   2.809   7.055
 9175POPC   C4B46942  18.470   2.866   7.355
 9176POPC   NC346943  16.771   9.701   5.555
 9176POPC   PO446944  16.746   9.781   5.855
 9176POPC   GL146945  16.771   9.723   6.155
 9176POPC   GL246946  16.640   9.610   6.155
 9176POPC   C1A46947  16.739   9.795   6.455
 9176POPC   D2A46948  16.723   9.711   6.755
 9176POPC   C3A46949  16.770   9.727   7.055
 9176POPC   C4A46950  16.718   9.710   7.355
 9176POPC   C1B46951  16.585   9.559   6.455
 9176POPC   C2B46952  16.578   9.562   6.755
 9176POPC   C3B46953  16.632   9.498   7.055
 9176POPC   C4B46954  16.654   9.533   7.355
 9177POPC   NC346955  12.050  42.343   5.555
 9177POPC   PO446956  12.069  42.369   5.855
 9177POPC   GL146957  12.083  42.376   6.155
 9177POPC   GL246958  12.105  42.187   6.155
 9177POPC   C1A46959  12.053  42.364   6.455
 9177POPC   D2A46960  12.094  42.308   6.755
 9177POPC   C3A46961  12.043  42.300   7.055
 9177POPC   C4A46962  12.035  42.293   7.355
 9177POPC   C1B46963  12.188  42.155   6.455
 9177POPC   C2B46964  12.252  42.088   6.755
 9177POPC   C3B46965  12.236  42.178   7.055
 9177POPC   C4B46966  12.204  42.092   7.355
 9178POPC   NC346967  11.301   1.210   5.555
 9178POPC   PO446968  11.341   1.251   5.855
 9178POPC   GL146969  11.325   1.251   6.155
 9178POPC   GL246970  11.268   1.338   6.155
 9178POPC   C1A46971  11.323   1.202   6.455
 9178POPC   D2A46972  11.339   1.250   6.755
 9178POPC   C3A46973  11.348   1.202   7.055
 9178POPC   C4A46974  11.325   1.206   7.355
 9178POPC   C1B46975  11.115   1.459   6.455
 9178POPC   C2B46976  11.143   1.420   6.755
 9178POPC   C3B46977  11.196   1.451   7.055
 9178POPC   C4B46978  11.201   1.446   7.355
 9179POPC   NC346979   0.438   4.303   5.555
 9179POPC   PO446980   0.393   4.307   5.855
 9179POPC   GL146981   0.473   4.297   6.155
 9179POPC   GL246982   0.393   4.169   6.155
 9179POPC   C1A46983   0.456   4.274   6.455
 9179POPC   D2A46984   0.480   4.316   6.755
 9179POPC   C3A46985   0.426   4.292   7.055
 9179POPC   C4A46986   0.397   4.308   7.355
 9179POPC   C1B46987   0.453   4.041   6.455
 9179POPC   C2B46988   0.402   4.072   6.755
 9179POPC   C3B46989   0.451   4.071   7.055
 9179POPC   C4B46990   0.439   4.061   7.355
 9180POPC   NC346991  37.694  15.965   5.555
 9180POPC   PO446992  37.706  15.986   5.855
 9180POPC   GL146993  37.714  15.922   6.155
 9180POPC   GL246994  37.756  15.814   6.155
 9180POPC   C1A46995  37.725  15.995   6.455
 9180POPC   D2A46996  37.664  15.967   6.755
 9180POPC   C3A46997  37.655  15.976   7.055
 9180POPC   C4A46998  37.673  15.907   7.355
 9180POPC   C1B46999  37.808  15.821   6.455
 9180POPC   C2B47000  37.802  15.823   6.755
 9180POPC   C3B47001  37.892  15.779   7.055
 9180POPC   C4B47002  37.899  15.751   7.355
 9181POPC   NC347003  25.220  32.991   5.555
 9181POPC   PO447004  25.244  33.044   5.855
 9181POPC   GL147005  25.282  33.006   6.155
 9181POPC   GL247006  25.291  33.104   6.155
 9181POPC   C1A47007  25.282  32.999   6.455
 9181POPC   D2A47008  25.281  33.061   6.755
 9181POPC   C3A47009  25.238  33.040   7.055
 9181POPC   C4A47010  25.242  32.976   7.355
 9181POPC   C1B47011  25.349  33.244   6.455
 9181POPC   C2B47012  25.297  33.229   6.755
 9181POPC   C3B47013  25.345  33.291   7.055
 9181POPC   C4B47014  25.329  33.301   7.355
 9182POPC   NC347015  26.037  26.767   5.555
 9182POPC   PO447016  26.060  26.857   5.855
 9182POPC   GL147017  26.029  26.856   6.155
 9182POPC   GL247018  25.912  26.796   6.155
 9182POPC   C1A47019  25.997  26.845   6.455
 9182POPC   D2A47020  26.050  26.855   6.755
 9182POPC   C3A47021  26.045  26.825   7.055
 9182POPC   C4A47022  26.010  26.821   7.355
 9182POPC   C1B47023  25.810  26.786   6.455
 9182POPC   C2B47024  25.766  26.792   6.755
 9182POPC   C3B47025  25.770  26.742   7.055
 9182POPC   C4B47026  25.793  26.716   7.355
 9183POPC   NC347027  35.343  31.483   5.555
 9183POPC   PO447028  35.334  31.456   5.855
 9183POPC   GL147029  35.306  31.491   6.155
 9183POPC   GL247030  35.450  31.468   6.155
 9183POPC   C1A47031  35.380  31.470   6.455
 9183POPC   D2A47032  35.320  31.508   6.755
 9183POPC   C3A47033  35.311  31.440   7.055
 9183POPC   C4A47034  35.392  31.423   7.355
 9183POPC   C1B47035  35.623  31.433   6.455
 9183POPC   C2B47036  35.640  31.466   6.755
 9183POPC   C3B47037  35.565  31.414   7.055
 9183POPC   C4B47038  35.639  31.450   7.355
 9184POPC   NC347039  33.025  34.584   5.555
 9184POPC   PO447040  32.999  34.532   5.855
 9184POPC   GL147041  33.018  34.546   6.155
 9184POPC   GL247042  33.094  34.689   6.155
 9184POPC   C1A47043  33.051  34.585   6.455
 9184POPC   D2A47044  32.989  34.556   6.755
 9184POPC   C3A47045  33.001  34.534   7.055
 9184POPC   C4A47046  33.014  34.561   7.355
 9184POPC   C1B47047  33.234  34.698   6.455
 9184POPC   C2B47048  33.239  34.656   6.755
 9184POPC   C3B47049  33.266  34.751   7.055
 9184POPC   C4B47050  33.223  34.683   7.355
 9185POPC   NC347051  40.812  16.732   5.555
 9185POPC   PO447052  40.769  16.736   5.855
 9185POPC   GL147053  40.791  16.692   6.155
 9185POPC   GL247054  40.750  16.616   6.155
 9185POPC   C1A47055  40.763  16.762   6.455
 9185POPC   D2A47056  40.832  16.742   6.755
 9185POPC   C3A47057  40.825  16.775   7.055
 9185POPC   C4A47058  40.828  16.726   7.355
 9185POPC   C1B47059  40.772  16.509   6.455
 9185POPC   C2B47060  40.782  16.438   6.755
 9185POPC   C3B47061  40.717  16.436   7.055
 9185POPC   C4B47062  40.797  16.524   7.355
 9186POPC   NC347063  36.123  25.282   5.555
 9186POPC   PO447064  36.134  25.307   5.855
 9186POPC   GL147065  36.080  25.287   6.155
 9186POPC   GL247066  36.212  25.347   6.155
 9186POPC   C1A47067  36.114  25.248   6.455
 9186POPC   D2A47068  36.155  25.272   6.755
 9186POPC   C3A47069  36.176  25.303   7.055
 9186POPC   C4A47070  36.136  25.222   7.355
 9186POPC   C1B47071  36.322  25.455   6.455
 9186POPC   C2B47072  36.296  25.382   6.755
 9186POPC   C3B47073  36.268  25.462   7.055
 9186POPC   C4B47074  36.356  25.407   7.355
 9187POPC   NC347075  19.062  10.513   5.555
 9187POPC   PO447076  19.068  10.532   5.855
 9187POPC   GL147077  19.019  10.476   6.155
 9187POPC   GL247078  19.015  10.458   6.155
 9187POPC   C1A47079  19.044  10.527   6.455
 9187POPC   D2A47080  19.039  10.570   6.755
 9187POPC   C3A47081  19.087  10.506   7.055
 9187POPC   C4A47082  19.072  10.556   7.355
 9187POPC   C1B47083  18.931  10.350   6.455
 9187POPC   C2B47084  18.946  10.272   6.755
 9187POPC   C3B47085  18.901  10.317   7.055
 9187POPC   C4B47086  18.914  10.329   7.355
 9188POPC   NC347087  12.888   5.136   5.555
 9188POPC   PO447088  12.826   5.111   5.855
 9188POPC   GL147089  12.864   5.083   6.155
 9188POPC   GL247090  12.874   5.019   6.155
 9188POPC   C1A47091  12.819   5.087   6.455
 9188POPC   D2A47092  12.821   5.124   6.755
 9188POPC   C3A47093  12.865   5.142   7.055
 9188POPC   C4A47094  12.822   5.131   7.355
 9188POPC   C1B47095  12.871   4.860   6.455
 9188POPC   C2B47096  12.953   4.879   6.755
 9188POPC   C3B47097  12.963   4.879   7.055
 9188POPC   C4B47098  12.897   4.802   7.355
 9189POPC   NC347099  23.692  40.764   5.555
 9189POPC   PO447100  23.729  40.760   5.855
 9189POPC   GL147101  23.716  40.769   6.155
 9189POPC   GL247102  23.574  40.800   6.155
 9189POPC   C1A47103  23.682  40.832   6.455
 9189POPC   D2A47104  23.745  40.741   6.755
 9189POPC   C3A47105  23.718  40.766   7.055
 9189POPC   C4A47106  23.708  40.768   7.355
 9189POPC   C1B47107  23.474  40.842   6.455
 9189POPC   C2B47108  23.451  40.795   6.755
 9189POPC   C3B47109  23.469  40.838   7.055
 9189POPC   C4B47110  23.453  40.879   7.355
 9190POPC   NC347111  30.679  44.644   5.555
 9190POPC   PO447112  30.655  44.647   5.855
 9190POPC   GL147113  30.702  44.617   6.155
 9190POPC   GL247114  30.589  44.596   6.155
 9190POPC   C1A47115  30.660  44.640   6.455
 9190POPC   D2A47116  30.679  44.684   6.755
 9190POPC   C3A47117  30.656  44.630   7.055
 9190POPC   C4A47118  30.653  44.669   7.355
 9190POPC   C1B47119  30.494  44.618   6.455
 9190POPC   C2B47120  30.433  44.583   6.755
 9190POPC   C3B47121  30.459  44.523   7.055
 9190POPC   C4B47122  30.480  44.618   7.355
 9191POPC   NC347123  31.455  24.476   5.555
 9191POPC   PO447124  31.507  24.505   5.855
 9191POPC   GL147125  31.436  24.509   6.155
 9191POPC   GL247126  31.354  24.533   6.155
 9191POPC   C1A47127  31.492  24.448   6.455
 9191POPC   D2A47128  31.454  24.478   6.755
 9191POPC   C3A47129  31.483  24.516   7.055
 9191POPC   C4A47130  31.463  24.503   7.355
 9191POPC   C1B47131  31.265  24.504   6.455
 9191POPC   C2B47132  31.196  24.522   6.755
 9191POPC   C3B47133  31.177  24.471   7.055
 9191POPC   C4B47134  31.234  24.474   7.355
 9192POPC   NC347135  18.302   8.239   5.555
 9192POPC   PO447136  18.301   8.191   5.855
 9192POPC   GL147137  18.322   8.162   6.155
 9192POPC   GL247138  18.361   8.252   6.155
 9192POPC   C1A47139  18.236   8.156   6.455
 9192POPC   D2A47140  18.251   8.210   6.755
 9192POPC   C3A47141  18.261   8.179   7.055
 9192POPC   C4A47142  18.246   8.191   7.355
 9192POPC   C1B47143  18.548   8.210   6.455
 9192POPC   C2B47144  18.522   8.252   6.755
 9192POPC   C3B47145  18.555   8.240   7.055
 9192POPC   C4B47146  18.513   8.261   7.355
 9193POPC   NC347147  39.957  28.399   5.555
 9193POPC   PO447148  40.023  28.336   5.855
 9193POPC   GL147149  40.055  28.404   6.155
 9193POPC   GL247150  40.095  28.459   6.155
 9193POPC   C1A47151  40.049  28.402   6.455
 9193POPC   D2A47152  39.974  28.364   6.755
 9193POPC   C3A47153  40.038  28.379   7.055
 9193POPC   C4A47154  39.958  28.401   7.355
 9193POPC   C1B47155  40.281  28.442   6.455
 9193POPC   C2B47156  40.195  28.462   6.755
 9193POPC   C3B47157  40.280  28.466   7.055
 9193POPC   C4B47158  40.238  28.522   7.355
 9194POPC   NC347159  18.248  24.498   5.555
 9194POPC   PO447160  18.273  24.466   5.855
 9194POPC   GL147161  18.236  24.465   6.155
 9194POPC   GL247162  18.183  24.571   6.155
 9194POPC   C1A47163  18.293  24.475   6.455
 9194POPC   D2A47164  18.258  24.533   6.755
 9194POPC   C3A47165  18.237  24.497   7.055
 9194POPC   C4A47166  18.236  24.508   7.355
 9194POPC   C1B47167  18.075  24.655   6.455
 9194POPC   C2B47168  18.085  24.627   6.755
 9194POPC   C3B47169  18.100  24.625   7.055
 9194POPC   C4B47170  18.115  24.657   7.355
 9195POPC   NC347171  35.401  43.861   5.555
 9195POPC   PO447172  35.314  43.858   5.855
 9195POPC   GL147173  35.374  43.908   6.155
 9195POPC   GL247174  35.275  43.749   6.155
 9195POPC   C1A47175  35.347  43.884   6.455
 9195POPC   D2A47176  35.357  43.929   6.755
 9195POPC   C3A47177  35.337  43.876   7.055
 9195POPC   C4A47178  35.387  43.850   7.355
 9195POPC   C1B47179  35.254  43.676   6.455
 9195POPC   C2B47180  35.215  43.695   6.755
 9195POPC   C3B47181  35.227  43.714   7.055
 9195POPC   C4B47182  35.227  43.664   7.355
 9196POPC   NC347183  28.410  32.219   5.555
 9196POPC   PO447184  28.384  32.293   5.855
 9196POPC   GL147185  28.390  32.281   6.155
 9196POPC   GL247186  28.274  32.326   6.155
 9196POPC   C1A47187  28.392  32.248   6.455
 9196POPC   D2A47188  28.330  32.218   6.755
 9196POPC   C3A47189  28.347  32.260   7.055
 9196POPC   C4A47190  28.405  32.220   7.355
 9196POPC   C1B47191  28.097  32.308   6.455
 9196POPC   C2B47192  28.121  32.302   6.755
 9196POPC   C3B47193  28.176  32.336   7.055
 9196POPC   C4B47194  28.102  32.370   7.355
 9197POPC   NC347195  13.589  31.514   5.555
 9197POPC   PO447196  13.601  31.473   5.855
 9197POPC   GL147197  13.585  31.502   6.155
 9197POPC   GL247198  13.684  31.452   6.155
 9197POPC   C1A47199  13.622  31.520   6.455
 9197POPC   D2A47200  13.649  31.455   6.755
 9197POPC   C3A47201  13.594  31.445   7.055
 9197POPC   C4A47202  13.665  31.521   7.355
 9197POPC   C1B47203  13.846  31.389   6.455
 9197POPC   C2B47204  13.869  31.298   6.755
 9197POPC   C3B47205  13.845  31.342   7.055
 9197POPC   C4B47206  13.829  31.314   7.355
 9198POPC   NC347207  33.843  26.776   5.555
 9198POPC   PO447208  33.779  26.799   5.855
 9198POPC   GL147209  33.797  26.837   6.155
 9198POPC   GL247210  33.937  26.754   6.155
 9198POPC   C1A47211  33.820  26.823   6.455
 9198POPC   D2A47212  33.789  26.835   6.755
 9198POPC   C3A47213  33.760  26.865   7.055
 9198POPC   C4A47214  33.831  26.846   7.355
 9198POPC   C1B47215  34.018  26.707   6.455
 9198POPC   C2B47216  34.024  26.657   6.755
 9198POPC   C3B47217  33.964  26.677   7.055
 9198POPC   C4B47218  34.029  26.706   7.355
 9199POPC   NC347219  13.599  15.947   5.555
 9199POPC   PO447220  13.665  15.915   5.855
 9199POPC   GL147221  13.606  15.947   6.155
 9199POPC   GL247222  13.636  16.031   6.155
 9199POPC   C1A47223  13.597  15.949   6.455
 9199POPC   D2A47224  13.600  15.932   6.755
 9199POPC   C3A47225  13.672  15.931   7.055
 9199POPC   C4A47226  13.634  15.998   7.355
 9199POPC   C1B47227  13.671  16.202   6.455
 9199POPC   C2B47228  13.663  16.221   6.755
 9199POPC   C3B47229  13.752  16.210   7.055
 9199POPC   C4B47230  13.689  16.209   7.355
 9200POPC   NC347231  14.393  35.373   5.555
 9200POPC   PO447232  14.402  35.400   5.855
 9200POPC   GL147233  14.359  35.325   6.155
 9200POPC   GL247234  14.444  35.259   6.155
 9200POPC   C1A47235  14.426  35.309   6.455
 9200POPC   D2A47236  14.374  35.397   6.755
 9200POPC   C3A47237  14.409  35.330   7.055
 9200POPC   C4A47238  14.411  35.384   7.355
 9200POPC   C1B47239  14.512  35.127   6.455
 9200POPC   C2B47240  14.498  35.125   6.755
 9200POPC   C3B47241  14.488  35.137   7.055
 9200POPC   C4B47242  14.471  35.128   7.355
 9201POPC   NC347243   0.443  23.745   5.555
 9201POPC   PO447244   0.457  23.715   5.855
 9201POPC   GL147245   0.427  23.732   6.155
 9201POPC   GL247246   0.360  23.680   6.155
 9201POPC   C1A47247   0.463  23.686   6.455
 9201POPC   D2A47248   0.441  23.749   6.755
 9201POPC   C3A47249   0.478  23.668   7.055
 9201POPC   C4A47250   0.397  23.696   7.355
 9201POPC   C1B47251   0.278  23.536   6.455
 9201POPC   C2B47252   0.195  23.598   6.755
 9201POPC   C3B47253   0.221  23.612   7.055
 9201POPC   C4B47254   0.233  23.558   7.355
 9202POPC   NC347255   6.691  33.030   5.555
 9202POPC   PO447256   6.655  33.044   5.855
 9202POPC   GL147257   6.597  33.053   6.155
 9202POPC   GL247258   6.680  33.116   6.155
 9202POPC   C1A47259   6.598  32.988   6.455
 9202POPC   D2A47260   6.683  33.014   6.755
 9202POPC   C3A47261   6.661  33.002   7.055
 9202POPC   C4A47262   6.621  33.026   7.355
 9202POPC   C1B47263   6.794  33.218   6.455
 9202POPC   C2B47264   6.855  33.213   6.755
 9202POPC   C3B47265   6.793  33.204   7.055
 9202POPC   C4B47266   6.843  33.174   7.355
 9203POPC   NC347267  11.300   8.182   5.555
 9203POPC   PO447268  11.291   8.211   5.855
 9203POPC   GL147269  11.280   8.174   6.155
 9203POPC   GL247270  11.239   8.028   6.155
 9203POPC   C1A47271  11.330   8.165   6.455
 9203POPC   D2A47272  11.275   8.154   6.755
 9203POPC   C3A47273  11.322   8.165   7.055
 9203POPC   C4A47274  11.298   8.166   7.355
 9203POPC   C1B47275  11.285   7.921   6.455
 9203POPC   C2B47276  11.244   7.917   6.755
 9203POPC   C3B47277  11.219   7.974   7.055
 9203POPC   C4B47278  11.278   7.987   7.355
 9204POPC   NC347279   1.975  20.647   5.555
 9204POPC   PO447280   2.020  20.595   5.855
 9204POPC   GL147281   2.002  20.649   6.155
 9204POPC   GL247282   1.910  20.635   6.155
 9204POPC   C1A47283   2.009  20.640   6.455
 9204POPC   D2A47284   1.948  20.612   6.755
 9204POPC   C3A47285   2.037  20.565   7.055
 9204POPC   C4A47286   2.021  20.652   7.355
 9204POPC   C1B47287   1.741  20.642   6.455
 9204POPC   C2B47288   1.777  20.685   6.755
 9204POPC   C3B47289   1.753  20.714   7.055
 9204POPC   C4B47290   1.714  20.706   7.355
 9205POPC   NC347291  15.176  33.823   5.555
 9205POPC   PO447292  15.175  33.830   5.855
 9205POPC   GL147293  15.205  33.762   6.155
 9205POPC   GL247294  15.173  33.908   6.155
 9205POPC   C1A47295  15.138  33.817   6.455
 9205POPC   D2A47296  15.168  33.825   6.755
 9205POPC   C3A47297  15.160  33.827   7.055
 9205POPC   C4A47298  15.138  33.754   7.355
 9205POPC   C1B47299  15.028  34.064   6.455
 9205POPC   C2B47300  15.116  33.981   6.755
 9205POPC   C3B47301  15.072  34.026   7.055
 9205POPC   C4B47302  15.116  33.993   7.355
 9206POPC   NC347303   8.216   7.376   5.555
 9206POPC   PO447304   8.176   7.422   5.855
 9206POPC   GL147305   8.175   7.414   6.155
 9206POPC   GL247306   8.145   7.363   6.155
 9206POPC   C1A47307   8.156   7.449   6.455
 9206POPC   D2A47308   8.202   7.460   6.755
 9206POPC   C3A47309   8.171   7.434   7.055
 9206POPC   C4A47310   8.242   7.453   7.355
 9206POPC   C1B47311   8.001   7.193   6.455
 9206POPC   C2B47312   8.002   7.181   6.755
 9206POPC   C3B47313   8.084   7.254   7.055
 9206POPC   C4B47314   8.085   7.191   7.355
 9207POPC   NC347315   2.766  25.234   5.555
 9207POPC   PO447316   2.736  25.256   5.855
 9207POPC   GL147317   2.784  25.282   6.155
 9207POPC   GL247318   2.673  25.225   6.155
 9207POPC   C1A47319   2.730  25.288   6.455
 9207POPC   D2A47320   2.761  25.242   6.755
 9207POPC   C3A47321   2.762  25.289   7.055
 9207POPC   C4A47322   2.775  25.225   7.355
 9207POPC   C1B47323   2.607  25.084   6.455
 9207POPC   C2B47324   2.591  25.140   6.755
 9207POPC   C3B47325   2.575  25.138   7.055
 9207POPC   C4B47326   2.575  25.106   7.355
 9208POPC   NC347327  22.955  20.621   5.555
 9208POPC   PO447328  22.956  20.596   5.855
 9208POPC   GL147329  22.964  20.640   6.155
 9208POPC   GL247330  22.905  20.740   6.155
 9208POPC   C1A47331  22.925  20.603   6.455
 9208POPC   D2A47332  22.957  20.622   6.755
 9208POPC   C3A47333  22.928  20.632   7.055
 9208POPC   C4A47334  22.940  20.593   7.355
 9208POPC   C1B47335  22.888  20.818   6.455
 9208POPC   C2B47336  22.969  20.888   6.755
 9208POPC   C3B47337  22.982  20.823   7.055
 9208POPC   C4B47338  22.978  20.816   7.355
 9209POPC   NC347339   3.559  29.136   5.555
 9209POPC   PO447340   3.556  29.131   5.855
 9209POPC   GL147341   3.519  29.106   6.155
 9209POPC   GL247342   3.635  29.057   6.155
 9209POPC   C1A47343   3.519  29.135   6.455
 9209POPC   D2A47344   3.493  29.099   6.755
 9209POPC   C3A47345   3.563  29.101   7.055
 9209POPC   C4A47346   3.544  29.108   7.355
 9209POPC   C1B47347   3.616  28.951   6.455
 9209POPC   C2B47348   3.598  28.930   6.755
 9209POPC   C3B47349   3.642  28.942   7.055
 9209POPC   C4B47350   3.658  28.901   7.355
 9210POPC   NC347351  42.322  34.548   5.555
 9210POPC   PO447352  42.372  34.539   5.855
 9210POPC   GL147353  42.379  34.625   6.155
 9210POPC   GL247354  42.353  34.673   6.155
 9210POPC   C1A47355  42.377  34.574   6.455
 9210POPC   D2A47356  42.289  34.562   6.755
 9210POPC   C3A47357  42.334  34.574   7.055
 9210POPC   C4A47358  42.346  34.620   7.355
 9210POPC   C1B47359  42.441  34.750   6.455
 9210POPC   C2B47360  42.452  34.846   6.755
 9210POPC   C3B47361  42.468  34.825   7.055
 9210POPC   C4B47362  42.464  34.766   7.355
 9211POPC   NC347363  19.015   4.338   5.555
 9211POPC   PO447364  19.046   4.282   5.855
 9211POPC   GL147365  19.095   4.297   6.155
 9211POPC   GL247366  18.943   4.283   6.155
 9211POPC   C1A47367  19.075   4.296   6.455
 9211POPC   D2A47368  19.009   4.317   6.755
 9211POPC   C3A47369  19.013   4.300   7.055
 9211POPC   C4A47370  19.063   4.310   7.355
 9211POPC   C1B47371  18.894   4.195   6.455
 9211POPC   C2B47372  18.864   4.193   6.755
 9211POPC   C3B47373  18.872   4.132   7.055
 9211POPC   C4B47374  18.872   4.183   7.355
 9212POPC   NC347375   1.956  21.396   5.555
 9212POPC   PO447376   2.009  21.385   5.855
 9212POPC   GL147377   1.976  21.389   6.155
 9212POPC   GL247378   1.973  21.264   6.155
 9212POPC   C1A47379   1.949  21.436   6.455
 9212POPC   D2A47380   1.972  21.364   6.755
 9212POPC   C3A47381   1.989  21.370   7.055
 9212POPC   C4A47382   2.009  21.391   7.355
 9212POPC   C1B47383   1.898  21.196   6.455
 9212POPC   C2B47384   1.890  21.203   6.755
 9212POPC   C3B47385   1.843  21.213   7.055
 9212POPC   C4B47386   1.832  21.183   7.355
 9213POPC   NC347387  33.024   2.021   5.555
 9213POPC   PO447388  33.025   1.992   5.855
 9213POPC   GL147389  33.024   2.001   6.155
 9213POPC   GL247390  33.135   1.936   6.155
 9213POPC   C1A47391  33.004   1.972   6.455
 9213POPC   D2A47392  33.040   2.024   6.755
 9213POPC   C3A47393  33.046   2.009   7.055
 9213POPC   C4A47394  33.001   1.953   7.355
 9213POPC   C1B47395  33.170   1.850   6.455
 9213POPC   C2B47396  33.216   1.800   6.755
 9213POPC   C3B47397  33.215   1.857   7.055
 9213POPC   C4B47398  33.233   1.836   7.355
 9214POPC   NC347399  42.345  25.231   5.555
 9214POPC   PO447400  42.345  25.289   5.855
 9214POPC   GL147401  42.382  25.249   6.155
 9214POPC   GL247402  42.237  25.141   6.155
 9214POPC   C1A47403  42.379  25.307   6.455
 9214POPC   D2A47404  42.371  25.281   6.755
 9214POPC   C3A47405  42.326  25.235   7.055
 9214POPC   C4A47406  42.365  25.278   7.355
 9214POPC   C1B47407  42.141  25.039   6.455
 9214POPC   C2B47408  42.155  25.092   6.755
 9214POPC   C3B47409  42.143  25.126   7.055
 9214POPC   C4B47410  42.113  25.084   7.355
 9215POPC   NC347411   8.958  38.468   5.555
 9215POPC   PO447412   8.991  38.414   5.855
 9215POPC   GL147413   8.934  38.466   6.155
 9215POPC   GL247414   8.990  38.291   6.155
 9215POPC   C1A47415   8.979  38.491   6.455
 9215POPC   D2A47416   8.958  38.462   6.755
 9215POPC   C3A47417   8.980  38.431   7.055
 9215POPC   C4A47418   8.974  38.437   7.355
 9215POPC   C1B47419   9.101  38.227   6.455
 9215POPC   C2B47420   9.046  38.172   6.755
 9215POPC   C3B47421   9.037  38.237   7.055
 9215POPC   C4B47422   9.064  38.179   7.355
 9216POPC   NC347423  22.909  43.922   5.555
 9216POPC   PO447424  22.928  43.917   5.855
 9216POPC   GL147425  22.965  43.847   6.155
 9216POPC   GL247426  22.956  44.012   6.155
 9216POPC   C1A47427  22.975  43.918   6.455
 9216POPC   D2A47428  22.934  43.901   6.755
 9216POPC   C3A47429  22.890  43.910   7.055
 9216POPC   C4A47430  22.909  43.878   7.355
 9216POPC   C1B47431  23.016  44.098   6.455
 9216POPC   C2B47432  23.009  44.113   6.755
 9216POPC   C3B47433  22.922  44.088   7.055
 9216POPC   C4B47434  23.014  44.182   7.355
 9217POPC   NC347435  26.033  19.035   5.555
 9217POPC   PO447436  26.016  19.066   5.855
 9217POPC   GL147437  26.049  19.092   6.155
 9217POPC   GL247438  26.049  18.979   6.155
 9217POPC   C1A47439  26.065  19.039   6.455
 9217POPC   D2A47440  26.002  19.043   6.755
 9217POPC   C3A47441  26.020  19.034   7.055
 9217POPC   C4A47442  26.056  19.106   7.355
 9217POPC   C1B47443  25.960  18.773   6.455
 9217POPC   C2B47444  25.986  18.846   6.755
 9217POPC   C3B47445  25.996  18.829   7.055
 9217POPC   C4B47446  25.944  18.786   7.355
 9218POPC   NC347447  39.961  15.915   5.555
 9218POPC   PO447448  40.040  15.907   5.855
 9218POPC   GL147449  39.982  15.937   6.155
 9218POPC   GL247450  40.049  16.057   6.155
 9218POPC   C1A47451  39.981  15.930   6.455
 9218POPC   D2A47452  40.027  15.958   6.755
 9218POPC   C3A47453  40.030  15.932   7.055
 9218POPC   C4A47454  40.008  15.952   7.355
 9218POPC   C1B47455  40.044  16.223   6.455
 9218POPC   C2B47456  40.115  16.184   6.755
 9218POPC   C3B47457  40.121  16.201   7.055
 9218POPC   C4B47458  40.037  16.198   7.355
 9219POPC   NC347459  12.064  21.411   5.555
 9219POPC   PO447460  12.099  21.387   5.855
 9219POPC   GL147461  12.049  21.431   6.155
 9219POPC   GL247462  11.982  21.498   6.155
 9219POPC   C1A47463  12.089  21.424   6.455
 9219POPC   D2A47464  12.109  21.425   6.755
 9219POPC   C3A47465  12.087  21.413   7.055
 9219POPC   C4A47466  12.093  21.344   7.355
 9219POPC   C1B47467  11.919  21.615   6.455
 9219POPC   C2B47468  11.915  21.589   6.755
 9219POPC   C3B47469  11.953  21.615   7.055
 9219POPC   C4B47470  11.862  21.580   7.355
 9220POPC   NC347471   7.408  15.922   5.555
 9220POPC   PO447472   7.429  15.937   5.855
 9220POPC   GL147473   7.456  15.976   6.155
 9220POPC   GL247474   7.421  15.831   6.155
 9220POPC   C1A47475   7.427  15.964   6.455
 9220POPC   D2A47476   7.409  15.969   6.755
 9220POPC   C3A47477   7.379  15.994   7.055
 9220POPC   C4A47478   7.399  15.997   7.355
 9220POPC   C1B47479   7.469  15.696   6.455
 9220POPC   C2B47480   7.487  15.695   6.755
 9220POPC   C3B47481   7.506  15.742   7.055
 9220POPC   C4B47482   7.429  15.736   7.355
 9221POPC   NC347483  16.724   8.972   5.555
 9221POPC   PO447484  16.742   8.924   5.855
 9221POPC   GL147485  16.700   8.978   6.155
 9221POPC   GL247486  16.765   9.073   6.155
 9221POPC   C1A47487  16.772   8.994   6.455
 9221POPC   D2A47488  16.715   8.963   6.755
 9221POPC   C3A47489  16.714   8.947   7.055
 9221POPC   C4A47490  16.767   8.941   7.355
 9221POPC   C1B47491  16.670   9.206   6.455
 9221POPC   C2B47492  16.706   9.269   6.755
 9221POPC   C3B47493  16.712   9.228   7.055
 9221POPC   C4B47494  16.730   9.241   7.355
 9222POPC   NC347495  35.400  17.553   5.555
 9222POPC   PO447496  35.341  17.507   5.855
 9222POPC   GL147497  35.338  17.507   6.155
 9222POPC   GL247498  35.362  17.413   6.155
 9222POPC   C1A47499  35.351  17.516   6.455
 9222POPC   D2A47500  35.378  17.477   6.755
 9222POPC   C3A47501  35.370  17.485   7.055
 9222POPC   C4A47502  35.315  17.470   7.355
 9222POPC   C1B47503  35.401  17.259   6.455
 9222POPC   C2B47504  35.498  17.314   6.755
 9222POPC   C3B47505  35.401  17.245   7.055
 9222POPC   C4B47506  35.419  17.305   7.355
 9223POPC   NC347507  44.697  30.723   5.555
 9223POPC   PO447508  44.707  30.670   5.855
 9223POPC   GL147509  44.653  30.674   6.155
 9223POPC   GL247510  44.570  30.689   6.155
 9223POPC   C1A47511  44.627  30.715   6.455
 9223POPC   D2A47512  44.670  30.680   6.755
 9223POPC   C3A47513  44.627  30.691   7.055
 9223POPC   C4A47514  44.639  30.745   7.355
 9223POPC   C1B47515  44.385  30.570   6.455
 9223POPC   C2B47516  44.387  30.633   6.755
 9223POPC   C3B47517  44.431  30.589   7.055
 9223POPC   C4B47518  44.451  30.642   7.355
 9224POPC   NC347519   1.944   2.773   5.555
 9224POPC   PO447520   1.987   2.772   5.855
 9224POPC   GL147521   2.019   2.726   6.155
 9224POPC   GL247522   1.927   2.864   6.155
 9224POPC   C1A47523   2.014   2.752   6.455
 9224POPC   D2A47524   1.976   2.776   6.755
 9224POPC   C3A47525   2.008   2.794   7.055
 9224POPC   C4A47526   2.007   2.719   7.355
 9224POPC   C1B47527   1.811   2.937   6.455
 9224POPC   C2B47528   1.810   2.874   6.755
 9224POPC   C3B47529   1.811   2.886   7.055
 9224POPC   C4B47530   1.759   2.883   7.355
 9225POPC   NC347531  37.646  25.295   5.555
 9225POPC   PO447532  37.647  25.228   5.855
 9225POPC   GL147533  37.689  25.236   6.155
 9225POPC   GL247534  37.767  25.208   6.155
 9225POPC   C1A47535  37.665  25.265   6.455
 9225POPC   D2A47536  37.729  25.248   6.755
 9225POPC   C3A47537  37.629  25.272   7.055
 9225POPC   C4A47538  37.680  25.237   7.355
 9225POPC   C1B47539  37.824  25.086   6.455
 9225POPC   C2B47540  37.869  25.038   6.755
 9225POPC   C3B47541  37.872  25.066   7.055
 9225POPC   C4B47542  37.813  25.061   7.355
 9226POPC   NC347543  39.252  43.069   5.555
 9226POPC   PO447544  39.238  43.067   5.855
 9226POPC   GL147545  39.249  43.113   6.155
 9226POPC   GL247546  39.236  42.980   6.155
 9226POPC   C1A47547  39.280  43.147   6.455
 9226POPC   D2A47548  39.241  43.137   6.755
 9226POPC   C3A47549  39.221  43.074   7.055
 9226POPC   C4A47550  39.197  43.150   7.355
 9226POPC   C1B47551  39.319  42.849   6.455
 9226POPC   C2B47552  39.346  42.846   6.755
 9226POPC   C3B47553  39.335  42.843   7.055
 9226POPC   C4B47554  39.290  42.836   7.355
 9227POPC   NC347555  10.522  19.027   5.555
 9227POPC   PO447556  10.529  19.088   5.855
 9227POPC   GL147557  10.509  19.056   6.155
 9227POPC   GL247558  10.562  19.147   6.155
 9227POPC   C1A47559  10.567  19.086   6.455
 9227POPC   D2A47560  10.478  19.044   6.755
 9227POPC   C3A47561  10.531  19.104   7.055
 9227POPC   C4A47562  10.559  19.010   7.355
 9227POPC   C1B47563  10.535  19.277   6.455
 9227POPC   C2B47564  10.565  19.256   6.755
 9227POPC   C3B47565  10.627  19.348   7.055
 9227POPC   C4B47566  10.611  19.287   7.355
 9228POPC   NC347567  42.318  37.687   5.555
 9228POPC   PO447568  42.340  37.728   5.855
 9228POPC   GL147569  42.297  37.699   6.155
 9228POPC   GL247570  42.348  37.542   6.155
 9228POPC   C1A47571  42.294  37.725   6.455
 9228POPC   D2A47572  42.347  37.718   6.755
 9228POPC   C3A47573  42.358  37.644   7.055
 9228POPC   C4A47574  42.333  37.689   7.355
 9228POPC   C1B47575  42.347  37.467   6.455
 9228POPC   C2B47576  42.335  37.482   6.755
 9228POPC   C3B47577  42.370  37.397   7.055
 9228POPC   C4B47578  42.418  37.384   7.355
 9229POPC   NC347579  18.233  30.682   5.555
 9229POPC   PO447580  18.331  30.717   5.855
 9229POPC   GL147581  18.296  30.670   6.155
 9229POPC   GL247582  18.210  30.714   6.155
 9229POPC   C1A47583  18.268  30.688   6.455
 9229POPC   D2A47584  18.290  30.656   6.755
 9229POPC   C3A47585  18.241  30.708   7.055
 9229POPC   C4A47586  18.313  30.670   7.355
 9229POPC   C1B47587  18.042  30.771   6.455
 9229POPC   C2B47588  18.037  30.819   6.755
 9229POPC   C3B47589  18.083  30.763   7.055
 9229POPC   C4B47590  18.048  30.729   7.355
 9230POPC   NC347591  32.276   3.566   5.555
 9230POPC   PO447592  32.280   3.579   5.855
 9230POPC   GL147593  32.251   3.539   6.155
 9230POPC   GL247594  32.194   3.408   6.155
 9230POPC   C1A47595  32.289   3.570   6.455
 9230POPC   D2A47596  32.207   3.588   6.755
 9230POPC   C3A47597  32.237   3.562   7.055
 9230POPC   C4A47598  32.208   3.493   7.355
 9230POPC   C1B47599  32.230   3.288   6.455
 9230POPC   C2B47600  32.238   3.285   6.755
 9230POPC   C3B47601  32.228   3.297   7.055
 9230POPC   C4B47602  32.185   3.322   7.355
 9231POPC   NC347603  39.234  19.861   5.555
 9231POPC   PO447604  39.224  19.845   5.855
 9231POPC   GL147605  39.206  19.798   6.155
 9231POPC   GL247606  39.074  19.909   6.155
 9231POPC   C1A47607  39.203  19.860   6.455
 9231POPC   D2A47608  39.184  19.815   6.755
 9231POPC   C3A47609  39.237  19.792   7.055
 9231POPC   C4A47610  39.217  19.787   7.355
 9231POPC   C1B47611  39.017  19.944   6.455
 9231POPC   C2B47612  38.996  19.935   6.755
 9231POPC   C3B47613  38.957  19.943   7.055
 9231POPC   C4B47614  38.970  19.967   7.355
 9232POPC   NC347615  28.359   4.323   5.555
 9232POPC   PO447616  28.367   4.338   5.855
 9232POPC   GL147617  28.345   4.346   6.155
 9232POPC   GL247618  28.404   4.209   6.155
 9232POPC   C1A47619  28.362   4.332   6.455
 9232POPC   D2A47620  28.384   4.302   6.755
 9232POPC   C3A47621  28.362   4.352   7.055
 9232POPC   C4A47622  28.352   4.285   7.355
 9232POPC   C1B47623  28.533   4.070   6.455
 9232POPC   C2B47624  28.498   4.096   6.755
 9232POPC   C3B47625  28.463   4.059   7.055
 9232POPC   C4B47626  28.506   4.128   7.355
 9233POPC   NC347627  40.759  34.561   5.555
 9233POPC   PO447628  40.792  34.569   5.855
 9233POPC   GL147629  40.820  34.529   6.155
 9233POPC   GL247630  40.781  34.737   6.155
 9233POPC   C1A47631  40.796  34.530   6.455
 9233POPC   D2A47632  40.767  34.540   6.755
 9233POPC   C3A47633  40.763  34.529   7.055
 9233POPC   C4A47634  40.760  34.610   7.355
 9233POPC   C1B47635  40.844  34.817   6.455
 9233POPC   C2B47636  40.797  34.802   6.755
 9233POPC   C3B47637  40.853  34.863   7.055
 9233POPC   C4B47638  40.788  34.870   7.355
 9234POPC   NC347639  12.841  28.368   5.555
 9234POPC   PO447640  12.893  28.396   5.855
 9234POPC   GL147641  12.858  28.385   6.155
 9234POPC   GL247642  12.823  28.467   6.155
 9234POPC   C1A47643  12.863  28.411   6.455
 9234POPC   D2A47644  12.835  28.321   6.755
 9234POPC   C3A47645  12.894  28.388   7.055
 9234POPC   C4A47646  12.821  28.351   7.355
 9234POPC   C1B47647  12.786  28.612   6.455
 9234POPC   C2B47648  12.754  28.653   6.755
 9234POPC   C3B47649  12.784  28.586   7.055
 9234POPC   C4B47650  12.785  28.644   7.355
 9235POPC   NC347651  26.817  18.258   5.555
 9235POPC   PO447652  26.866  18.273   5.855
 9235POPC   GL147653  26.805  18.282   6.155
 9235POPC   GL247654  26.710  18.233   6.155
 9235POPC   C1A47655  26.847  18.302   6.455
 9235POPC   D2A47656  26.830  18.278   6.755
 9235POPC   C3A47657  26.861  18.251   7.055
 9235POPC   C4A47658  26.812  18.258   7.355
 9235POPC   C1B47659  26.536  18.252   6.455
 9235POPC   C2B47660  26.581  18.279   6.755
 9235POPC   C3B47661  26.579  18.279   7.055
 9235POPC   C4B47662  26.575  18.314   7.355
 9236POPC   NC347663  40.049  12.867   5.555
 9236POPC   PO447664  40.039  12.879   5.855
 9236POPC   GL147665  39.979  12.867   6.155
 9236POPC   GL247666  40.086  12.928   6.155
 9236POPC   C1A47667  39.968  12.855   6.455
 9236POPC   D2A47668  40.035  12.861   6.755
 9236POPC   C3A47669  39.974  12.842   7.055
 9236POPC   C4A47670  40.047  12.818   7.355
 9236POPC   C1B47671  40.171  13.117   6.455
 9236POPC   C2B47672  40.112  13.108   6.755
 9236POPC   C3B47673  40.091  13.053   7.055
 9236POPC   C4B47674  40.166  13.071   7.355
 9237POPC   NC347675   7.372  43.072   5.555
 9237POPC   PO447676   7.385  43.139   5.855
 9237POPC   GL147677   7.428  43.158   6.155
 9237POPC   GL247678   7.288  43.169   6.155
 9237POPC   C1A47679   7.420  43.101   6.455
 9237POPC   D2A47680   7.371  43.087   6.755
 9237POPC   C3A47681   7.440  43.099   7.055
 9237POPC   C4A47682   7.399  43.089   7.355
 9237POPC   C1B47683   7.211  43.281   6.455
 9237POPC   C2B47684   7.194  43.238   6.755
 9237POPC   C3B47685   7.267  43.264   7.055
 9237POPC   C4B47686   7.243  43.327   7.355
 9238POPC   NC347687   2.749   5.081   5.555
 9238POPC   PO447688   2.809   5.081   5.855
 9238POPC   GL147689   2.810   5.080   6.155
 9238POPC   GL247690   2.915   5.106   6.155
 9238POPC   C1A47691   2.726   5.118   6.455
 9238POPC   D2A47692   2.748   5.061   6.755
 9238POPC   C3A47693   2.814   5.140   7.055
 9238POPC   C4A47694   2.808   5.059   7.355
 9238POPC   C1B47695   3.023   5.002   6.455
 9238POPC   C2B47696   2.971   4.993   6.755
 9238POPC   C3B47697   2.968   5.030   7.055
 9238POPC   C4B47698   3.009   5.029   7.355
 9239POPC   NC347699   8.978   5.075   5.555
 9239POPC   PO447700   8.970   5.096   5.855
 9239POPC   GL147701   8.943   5.072   6.155
 9239POPC   GL247702   9.019   5.019   6.155
 9239POPC   C1A47703   9.009   5.130   6.455
 9239POPC   D2A47704   8.993   5.071   6.755
 9239POPC   C3A47705   8.963   5.128   7.055
 9239POPC   C4A47706   9.002   5.070   7.355
 9239POPC   C1B47707   9.194   4.883   6.455
 9239POPC   C2B47708   9.117   4.884   6.755
 9239POPC   C3B47709   9.115   4.900   7.055
 9239POPC   C4B47710   9.115   4.937   7.355
 9240POPC   NC347711  11.346  25.314   5.555
 9240POPC   PO447712  11.274  25.272   5.855
 9240POPC   GL147713  11.264  25.300   6.155
 9240POPC   GL247714  11.209  25.402   6.155
 9240POPC   C1A47715  11.321  25.303   6.455
 9240POPC   D2A47716  11.314  25.313   6.755
 9240POPC   C3A47717  11.284  25.218   7.055
 9240POPC   C4A47718  11.306  25.265   7.355
 9240POPC   C1B47719  11.159  25.442   6.455
 9240POPC   C2B47720  11.181  25.454   6.755
 9240POPC   C3B47721  11.111  25.474   7.055
 9240POPC   C4B47722  11.094  25.438   7.355
 9241POPC   NC347723   2.733  43.846   5.555
 9241POPC   PO447724   2.766  43.871   5.855
 9241POPC   GL147725   2.781  43.886   6.155
 9241POPC   GL247726   2.638  43.961   6.155
 9241POPC   C1A47727   2.718  43.851   6.455
 9241POPC   D2A47728   2.773  43.853   6.755
 9241POPC   C3A47729   2.777  43.907   7.055
 9241POPC   C4A47730   2.730  43.864   7.355
 9241POPC   C1B47731   2.567  44.078   6.455
 9241POPC   C2B47732   2.629  44.042   6.755
 9241POPC   C3B47733   2.595  44.092   7.055
 9241POPC   C4B47734   2.587  44.042   7.355
 9242POPC   NC347735  42.313   2.743   5.555
 9242POPC   PO447736  42.351   2.718   5.855
 9242POPC   GL147737  42.353   2.773   6.155
 9242POPC   GL247738  42.440   2.896   6.155
 9242POPC   C1A47739  42.327   2.750   6.455
 9242POPC   D2A47740  42.329   2.784   6.755
 9242POPC   C3A47741  42.321   2.789   7.055
 9242POPC   C4A47742  42.369   2.788   7.355
 9242POPC   C1B47743  42.467   2.928   6.455
 9242POPC   C2B47744  42.490   2.936   6.755
 9242POPC   C3B47745  42.478   3.013   7.055
 9242POPC   C4B47746  42.495   2.965   7.355
 9243POPC   NC347747  19.031  26.815   5.555
 9243POPC   PO447748  19.020  26.836   5.855
 9243POPC   GL147749  19.083  26.785   6.155
 9243POPC   GL247750  19.018  26.660   6.155
 9243POPC   C1A47751  19.069  26.823   6.455
 9243POPC   D2A47752  19.037  26.854   6.755
 9243POPC   C3A47753  19.099  26.785   7.055
 9243POPC   C4A47754  19.100  26.864   7.355
 9243POPC   C1B47755  19.047  26.563   6.455
 9243POPC   C2B47756  18.978  26.601   6.755
 9243POPC   C3B47757  18.970  26.605   7.055
 9243POPC   C4B47758  18.976  26.560   7.355
 9244POPC   NC347759  19.073  29.950   5.555
 9244POPC   PO447760  19.030  29.917   5.855
 9244POPC   GL147761  19.072  29.902   6.155
 9244POPC   GL247762  19.011  29.842   6.155
 9244POPC   C1A47763  19.100  29.893   6.455
 9244POPC   D2A47764  19.107  29.897   6.755
 9244POPC   C3A47765  19.025  29.964   7.055
 9244POPC   C4A47766  19.017  29.890   7.355
 9244POPC   C1B47767  18.874  29.759   6.455
 9244POPC   C2B47768  18.837  29.741   6.755
 9244POPC   C3B47769  18.859  29.728   7.055
 9244POPC   C4B47770  18.818  29.719   7.355
 9245POPC   NC347771  16.774  36.096   5.555
 9245POPC   PO447772  16.713  36.113   5.855
 9245POPC   GL147773  16.752  36.153   6.155
 9245POPC   GL247774  16.810  36.034   6.155
 9245POPC   C1A47775  16.734  36.157   6.455
 9245POPC   D2A47776  16.779  36.113   6.755
 9245POPC   C3A47777  16.780  36.086   7.055
 9245POPC   C4A47778  16.724  36.152   7.355
 9245POPC   C1B47779  16.794  35.927   6.455
 9245POPC   C2B47780  16.843  35.928   6.755
 9245POPC   C3B47781  16.816  35.857   7.055
 9245POPC   C4B47782  16.797  35.892   7.355
 9246POPC   NC347783   1.228   8.183   5.555
 9246POPC   PO447784   1.166   8.167   5.855
 9246POPC   GL147785   1.167   8.220   6.155
 9246POPC   GL247786   1.088   8.228   6.155
 9246POPC   C1A47787   1.259   8.234   6.455
 9246POPC   D2A47788   1.193   8.241   6.755
 9246POPC   C3A47789   1.166   8.150   7.055
 9246POPC   C4A47790   1.258   8.226   7.355
 9246POPC   C1B47791   0.946   8.170   6.455
 9246POPC   C2B47792   0.973   8.124   6.755
 9246POPC   C3B47793   1.013   8.199   7.055
 9246POPC   C4B47794   0.993   8.199   7.355
 9247POPC   NC347795   6.628  11.322   5.555
 9247POPC   PO447796   6.662  11.328   5.855
 9247POPC   GL147797   6.620  11.325   6.155
 9247POPC   GL247798   6.591  11.368   6.155
 9247POPC   C1A47799   6.608  11.340   6.455
 9247POPC   D2A47800   6.666  11.336   6.755
 9247POPC   C3A47801   6.614  11.267   7.055
 9247POPC   C4A47802   6.679  11.267   7.355
 9247POPC   C1B47803   6.531  11.580   6.455
 9247POPC   C2B47804   6.522  11.499   6.755
 9247POPC   C3B47805   6.539  11.485   7.055
 9247POPC   C4B47806   6.555  11.581   7.355
 9248POPC   NC347807   2.798  28.380   5.555
 9248POPC   PO447808   2.784  28.403   5.855
 9248POPC   GL147809   2.808  28.358   6.155
 9248POPC   GL247810   2.835  28.405   6.155
 9248POPC   C1A47811   2.762  28.400   6.455
 9248POPC   D2A47812   2.777  28.340   6.755
 9248POPC   C3A47813   2.781  28.388   7.055
 9248POPC   C4A47814   2.756  28.356   7.355
 9248POPC   C1B47815   3.014  28.456   6.455
 9248POPC   C2B47816   2.952  28.454   6.755
 9248POPC   C3B47817   3.026  28.467   7.055
 9248POPC   C4B47818   2.966  28.507   7.355
 9249POPC   NC347819  16.690  25.263   5.555
 9249POPC   PO447820  16.764  25.229   5.855
 9249POPC   GL147821  16.704  25.218   6.155
 9249POPC   GL247822  16.823  25.200   6.155
 9249POPC   C1A47823  16.707  25.298   6.455
 9249POPC   D2A47824  16.771  25.284   6.755
 9249POPC   C3A47825  16.733  25.298   7.055
 9249POPC   C4A47826  16.688  25.229   7.355
 9249POPC   C1B47827  17.025  25.251   6.455
 9249POPC   C2B47828  17.002  25.239   6.755
 9249POPC   C3B47829  16.983  25.260   7.055
 9249POPC   C4B47830  17.021  25.179   7.355
 9250POPC   NC347831  29.911  29.176   5.555
 9250POPC   PO447832  29.871  29.149   5.855
 9250POPC   GL147833  29.882  29.141   6.155
 9250POPC   GL247834  30.019  29.242   6.155
 9250POPC   C1A47835  29.938  29.127   6.455
 9250POPC   D2A47836  29.897  29.151   6.755
 9250POPC   C3A47837  29.904  29.132   7.055
 9250POPC   C4A47838  29.940  29.101   7.355
 9250POPC   C1B47839  30.062  29.395   6.455
 9250POPC   C2B47840  30.064  29.332   6.755
 9250POPC   C3B47841  30.025  29.357   7.055
 9250POPC   C4B47842  30.041  29.324   7.355
 9251POPC   NC347843   8.984  24.492   5.555
 9251POPC   PO447844   8.985  24.481   5.855
 9251POPC   GL147845   8.987  24.443   6.155
 9251POPC   GL247846   8.921  24.340   6.155
 9251POPC   C1A47847   9.011  24.463   6.455
 9251POPC   D2A47848   8.988  24.512   6.755
 9251POPC   C3A47849   8.926  24.518   7.055
 9251POPC   C4A47850   8.969  24.455   7.355
 9251POPC   C1B47851   8.908  24.285   6.455
 9251POPC   C2B47852   8.833  24.244   6.755
 9251POPC   C3B47853   8.915  24.282   7.055
 9251POPC   C4B47854   8.897  24.227   7.355
 9252POPC   NC347855  12.815  22.903   5.555
 9252POPC   PO447856  12.827  22.912   5.855
 9252POPC   GL147857  12.803  22.903   6.155
 9252POPC   GL247858  12.861  23.079   6.155
 9252POPC   C1A47859  12.812  22.930   6.455
 9252POPC   D2A47860  12.861  22.899   6.755
 9252POPC   C3A47861  12.890  22.904   7.055
 9252POPC   C4A47862  12.825  22.961   7.355
 9252POPC   C1B47863  12.859  23.137   6.455
 9252POPC   C2B47864  12.799  23.236   6.755
 9252POPC   C3B47865  12.825  23.196   7.055
 9252POPC   C4B47866  12.859  23.153   7.355
 9253POPC   NC347867  19.017  17.530   5.555
 9253POPC   PO447868  19.053  17.540   5.855
 9253POPC   GL147869  19.073  17.474   6.155
 9253POPC   GL247870  18.994  17.416   6.155
 9253POPC   C1A47871  19.079  17.461   6.455
 9253POPC   D2A47872  19.014  17.501   6.755
 9253POPC   C3A47873  19.089  17.480   7.055
 9253POPC   C4A47874  19.061  17.550   7.355
 9253POPC   C1B47875  18.920  17.232   6.455
 9253POPC   C2B47876  19.009  17.287   6.755
 9253POPC   C3B47877  18.922  17.249   7.055
 9253POPC   C4B47878  18.947  17.297   7.355
 9254POPC   NC347879   4.303  39.244   5.555
 9254POPC   PO447880   4.307  39.187   5.855
 9254POPC   GL147881   4.287  39.228   6.155
 9254POPC   GL247882   4.322  39.376   6.155
 9254POPC   C1A47883   4.272  39.274   6.455
 9254POPC   D2A47884   4.304  39.203   6.755
 9254POPC   C3A47885   4.309  39.218   7.055
 9254POPC   C4A47886   4.367  39.249   7.355
 9254POPC   C1B47887   4.434  39.491   6.455
 9254POPC   C2B47888   4.434  39.423   6.755
 9254POPC   C3B47889   4.450  39.427   7.055
 9254POPC   C4B47890   4.439  39.455   7.355
 9255POPC   NC347891   7.404  14.379   5.555
 9255POPC   PO447892   7.449  14.364   5.855
 9255POPC   GL147893   7.440  14.367   6.155
 9255POPC   GL247894   7.339  14.391   6.155
 9255POPC   C1A47895   7.413  14.393   6.455
 9255POPC   D2A47896   7.457  14.417   6.755
 9255POPC   C3A47897   7.451  14.427   7.055
 9255POPC   C4A47898   7.412  14.417   7.355
 9255POPC   C1B47899   7.153  14.508   6.455
 9255POPC   C2B47900   7.156  14.500   6.755
 9255POPC   C3B47901   7.149  14.505   7.055
 9255POPC   C4B47902   7.210  14.500   7.355
 9256POPC   NC347903  34.549  19.088   5.555
 9256POPC   PO447904  34.602  19.027   5.855
 9256POPC   GL147905  34.558  19.094   6.155
 9256POPC   GL247906  34.601  19.159   6.155
 9256POPC   C1A47907  34.624  19.021   6.455
 9256POPC   D2A47908  34.610  19.056   6.755
 9256POPC   C3A47909  34.549  19.104   7.055
 9256POPC   C4A47910  34.532  19.049   7.355
 9256POPC   C1B47911  34.518  19.318   6.455
 9256POPC   C2B47912  34.540  19.292   6.755
 9256POPC   C3B47913  34.556  19.343   7.055
 9256POPC   C4B47914  34.536  19.343   7.355
 9257POPC   NC347915  26.779  25.297   5.555
 9257POPC   PO447916  26.793  25.245   5.855
 9257POPC   GL147917  26.851  25.250   6.155
 9257POPC   GL247918  26.902  25.233   6.155
 9257POPC   C1A47919  26.812  25.311   6.455
 9257POPC   D2A47920  26.862  25.293   6.755
 9257POPC   C3A47921  26.830  25.313   7.055
 9257POPC   C4A47922  26.803  25.217   7.355
 9257POPC   C1B47923  27.092  25.160   6.455
 9257POPC   C2B47924  27.065  25.132   6.755
 9257POPC   C3B47925  27.021  25.139   7.055
 9257POPC   C4B47926  27.049  25.185   7.355
 9258POPC   NC347927  19.879  17.493   5.555
 9258POPC   PO447928  19.786  17.480   5.855
 9258POPC   GL147929  19.856  17.539   6.155
 9258POPC   GL247930  19.947  17.516   6.155
 9258POPC   C1A47931  19.883  17.513   6.455
 9258POPC   D2A47932  19.816  17.513   6.755
 9258POPC   C3A47933  19.799  17.518   7.055
 9258POPC   C4A47934  19.816  17.461   7.355
 9258POPC   C1B47935  20.046  17.531   6.455
 9258POPC   C2B47936  20.075  17.560   6.755
 9258POPC   C3B47937  20.070  17.553   7.055
 9258POPC   C4B47938  20.068  17.510   7.355
 9259POPC   NC347939  29.140  21.433   5.555
 9259POPC   PO447940  29.167  21.402   5.855
 9259POPC   GL147941  29.158  21.384   6.155
 9259POPC   GL247942  29.106  21.241   6.155
 9259POPC   C1A47943  29.161  21.352   6.455
 9259POPC   D2A47944  29.123  21.420   6.755
 9259POPC   C3A47945  29.162  21.352   7.055
 9259POPC   C4A47946  29.110  21.365   7.355
 9259POPC   C1B47947  29.075  21.111   6.455
 9259POPC   C2B47948  29.040  21.190   6.755
 9259POPC   C3B47949  29.080  21.181   7.055
 9259POPC   C4B47950  29.082  21.138   7.355
 9260POPC   NC347951  43.913   9.011   5.555
 9260POPC   PO447952  43.851   9.001   5.855
 9260POPC   GL147953  43.907   8.934   6.155
 9260POPC   GL247954  43.844   9.141   6.155
 9260POPC   C1A47955  43.838   8.945   6.455
 9260POPC   D2A47956  43.923   8.949   6.755
 9260POPC   C3A47957  43.877   8.970   7.055
 9260POPC   C4A47958  43.878   8.930   7.355
 9260POPC   C1B47959  43.825   9.254   6.455
 9260POPC   C2B47960  43.828   9.177   6.755
 9260POPC   C3B47961  43.826   9.201   7.055
 9260POPC   C4B47962  43.850   9.239   7.355
 9261POPC   NC347963  33.822   1.198   5.555
 9261POPC   PO447964  33.760   1.202   5.855
 9261POPC   GL147965  33.781   1.211   6.155
 9261POPC   GL247966  33.712   1.274   6.155
 9261POPC   C1A47967  33.831   1.201   6.455
 9261POPC   D2A47968  33.829   1.237   6.755
 9261POPC   C3A47969  33.750   1.220   7.055
 9261POPC   C4A47970  33.836   1.230   7.355
 9261POPC   C1B47971  33.577   1.329   6.455
 9261POPC   C2B47972  33.542   1.338   6.755
 9261POPC   C3B47973  33.530   1.298   7.055
 9261POPC   C4B47974  33.603   1.299   7.355
 9262POPC   NC347975  42.310  15.130   5.555
 9262POPC   PO447976  42.335  15.198   5.855
 9262POPC   GL147977  42.371  15.135   6.155
 9262POPC   GL247978  42.189  15.248   6.155
 9262POPC   C1A47979  42.365  15.221   6.455
 9262POPC   D2A47980  42.356  15.192   6.755
 9262POPC   C3A47981  42.323  15.136   7.055
 9262POPC   C4A47982  42.291  15.156   7.355
 9262POPC   C1B47983  42.111  15.258   6.455
 9262POPC   C2B47984  42.066  15.238   6.755
 9262POPC   C3B47985  42.106  15.206   7.055
 9262POPC   C4B47986  42.071  15.264   7.355
 9263POPC   NC347987  29.129  35.316   5.555
 9263POPC   PO447988  29.170  35.367   5.855
 9263POPC   GL147989  29.173  35.401   6.155
 9263POPC   GL247990  29.082  35.230   6.155
 9263POPC   C1A47991  29.165  35.326   6.455
 9263POPC   D2A47992  29.171  35.384   6.755
 9263POPC   C3A47993  29.103  35.302   7.055
 9263POPC   C4A47994  29.138  35.343   7.355
 9263POPC   C1B47995  29.068  35.174   6.455
 9263POPC   C2B47996  29.057  35.166   6.755
 9263POPC   C3B47997  29.032  35.114   7.055
 9263POPC   C4B47998  29.016  35.115   7.355
 9264POPC   NC347999  23.726  39.231   5.555
 9264POPC   PO448000  23.694  39.242   5.855
 9264POPC   GL148001  23.718  39.215   6.155
 9264POPC   GL248002  23.587  39.310   6.155
 9264POPC   C1A48003  23.732  39.189   6.455
 9264POPC   D2A48004  23.696  39.221   6.755
 9264POPC   C3A48005  23.742  39.241   7.055
 9264POPC   C4A48006  23.720  39.257   7.355
 9264POPC   C1B48007  23.547  39.373   6.455
 9264POPC   C2B48008  23.514  39.364   6.755
 9264POPC   C3B48009  23.548  39.364   7.055
 9264POPC   C4B48010  23.507  39.363   7.355
 9265POPC   NC348011  40.825  39.964   5.555
 9265POPC   PO448012  40.743  40.011   5.855
 9265POPC   GL148013  40.813  40.003   6.155
 9265POPC   GL248014  40.789  40.119   6.155
 9265POPC   C1A48015  40.804  40.050   6.455
 9265POPC   D2A48016  40.777  39.978   6.755
 9265POPC   C3A48017  40.762  40.015   7.055
 9265POPC   C4A48018  40.757  39.984   7.355
 9265POPC   C1B48019  40.728  40.207   6.455
 9265POPC   C2B48020  40.689  40.257   6.755
 9265POPC   C3B48021  40.727  40.228   7.055
 9265POPC   C4B48022  40.715  40.225   7.355
 9266POPC   NC348023  11.303  40.018   5.555
 9266POPC   PO448024  11.315  40.002   5.855
 9266POPC   GL148025  11.252  39.965   6.155
 9266POPC   GL248026  11.462  40.060   6.155
 9266POPC   C1A48027  11.331  40.031   6.455
 9266POPC   D2A48028  11.349  39.994   6.755
 9266POPC   C3A48029  11.289  39.972   7.055
 9266POPC   C4A48030  11.263  40.033   7.355
 9266POPC   C1B48031  11.526  40.052   6.455
 9266POPC   C2B48032  11.539  40.026   6.755
 9266POPC   C3B48033  11.570  40.078   7.055
 9266POPC   C4B48034  11.520  40.008   7.355
 9267POPC   NC348035  29.962  19.090   5.555
 9267POPC   PO448036  29.885  19.087   5.855
 9267POPC   GL148037  29.964  19.108   6.155
 9267POPC   GL248038  29.870  19.194   6.155
 9267POPC   C1A48039  29.926  19.047   6.455
 9267POPC   D2A48040  29.905  19.093   6.755
 9267POPC   C3A48041  29.900  19.044   7.055
 9267POPC   C4A48042  29.952  19.042   7.355
 9267POPC   C1B48043  29.809  19.250   6.455
 9267POPC   C2B48044  29.747  19.262   6.755
 9267POPC   C3B48045  29.787  19.282   7.055
 9267POPC   C4B48046  29.753  19.254   7.355
 9268POPC   NC348047  28.376  11.334   5.555
 9268POPC   PO448048  28.336  11.304   5.855
 9268POPC   GL148049  28.345  11.325   6.155
 9268POPC   GL248050  28.257  11.362   6.155
 9268POPC   C1A48051  28.356  11.301   6.455
 9268POPC   D2A48052  28.378  11.341   6.755
 9268POPC   C3A48053  28.334  11.307   7.055
 9268POPC   C4A48054  28.413  11.316   7.355
 9268POPC   C1B48055  28.126  11.345   6.455
 9268POPC   C2B48056  28.138  11.403   6.755
 9268POPC   C3B48057  28.115  11.369   7.055
 9268POPC   C4B48058  28.108  11.415   7.355
 9269POPC   NC348059  12.079  36.882   5.555
 9269POPC   PO448060  12.030  36.889   5.855
 9269POPC   GL148061  12.092  36.915   6.155
 9269POPC   GL248062  12.083  37.010   6.155
 9269POPC   C1A48063  12.108  36.893   6.455
 9269POPC   D2A48064  12.102  36.876   6.755
 9269POPC   C3A48065  12.093  36.906   7.055
 9269POPC   C4A48066  12.042  36.909   7.355
 9269POPC   C1B48067  12.218  37.168   6.455
 9269POPC   C2B48068  12.193  37.138   6.755
 9269POPC   C3B48069  12.186  37.096   7.055
 9269POPC   C4B48070  12.136  37.115   7.355
 9270POPC   NC348071  32.271  44.674   5.555
 9270POPC   PO448072  32.210  44.707   5.855
 9270POPC   GL148073  32.236  44.703   6.155
 9270POPC   GL248074  32.239  44.541   6.155
 9270POPC   C1A48075  32.282  44.691   6.455
 9270POPC   D2A48076  32.251  44.690   6.755
 9270POPC   C3A48077  32.275  44.630   7.055
 9270POPC   C4A48078  32.278  44.619   7.355
 9270POPC   C1B48079  32.292  44.418   6.455
 9270POPC   C2B48080  32.308  44.392   6.755
 9270POPC   C3B48081  32.284  44.442   7.055
 9270POPC   C4B48082  32.323  44.437   7.355
 9271POPC   NC348083  31.462  12.810   5.555
 9271POPC   PO448084  31.455  12.827   5.855
 9271POPC   GL148085  31.522  12.806   6.155
 9271POPC   GL248086  31.358  12.816   6.155
 9271POPC   C1A48087  31.430  12.892   6.455
 9271POPC   D2A48088  31.521  12.811   6.755
 9271POPC   C3A48089  31.467  12.812   7.055
 9271POPC   C4A48090  31.473  12.898   7.355
 9271POPC   C1B48091  31.252  12.697   6.455
 9271POPC   C2B48092  31.283  12.673   6.755
 9271POPC   C3B48093  31.310  12.646   7.055
 9271POPC   C4B48094  31.260  12.653   7.355
 9272POPC   NC348095  42.376  31.434   5.555
 9272POPC   PO448096  42.323  31.423   5.855
 9272POPC   GL148097  42.377  31.425   6.155
 9272POPC   GL248098  42.241  31.456   6.155
 9272POPC   C1A48099  42.348  31.512   6.455
 9272POPC   D2A48100  42.344  31.425   6.755
 9272POPC   C3A48101  42.379  31.426   7.055
 9272POPC   C4A48102  42.376  31.428   7.355
 9272POPC   C1B48103  42.134  31.458   6.455
 9272POPC   C2B48104  42.105  31.467   6.755
 9272POPC   C3B48105  42.102  31.457   7.055
 9272POPC   C4B48106  42.058  31.428   7.355
 9273POPC   NC348107  10.499  36.177   5.555
 9273POPC   PO448108  10.477  36.083   5.855
 9273POPC   GL148109  10.485  36.169   6.155
 9273POPC   GL248110  10.644  36.034   6.155
 9273POPC   C1A48111  10.521  36.111   6.455
 9273POPC   D2A48112  10.495  36.160   6.755
 9273POPC   C3A48113  10.480  36.139   7.055
 9273POPC   C4A48114  10.478  36.140   7.355
 9273POPC   C1B48115  10.700  35.960   6.455
 9273POPC   C2B48116  10.737  35.945   6.755
 9273POPC   C3B48117  10.695  36.001   7.055
 9273POPC   C4B48118  10.745  36.033   7.355
 9274POPC   NC348119  39.974  30.657   5.555
 9274POPC   PO448120  40.017  30.697   5.855
 9274POPC   GL148121  40.029  30.650   6.155
 9274POPC   GL248122  40.013  30.537   6.155
 9274POPC   C1A48123  39.963  30.660   6.455
 9274POPC   D2A48124  39.999  30.665   6.755
 9274POPC   C3A48125  39.995  30.703   7.055
 9274POPC   C4A48126  39.982  30.678   7.355
 9274POPC   C1B48127  40.119  30.482   6.455
 9274POPC   C2B48128  40.102  30.494   6.755
 9274POPC   C3B48129  40.145  30.477   7.055
 9274POPC   C4B48130  40.107  30.499   7.355
 9275POPC   NC348131   2.745  13.671   5.555
 9275POPC   PO448132   2.744  13.607   5.855
 9275POPC   GL148133   2.785  13.598   6.155
 9275POPC   GL248134   2.699  13.706   6.155
 9275POPC   C1A48135   2.725  13.649   6.455
 9275POPC   D2A48136   2.739  13.671   6.755
 9275POPC   C3A48137   2.809  13.641   7.055
 9275POPC   C4A48138   2.791  13.598   7.355
 9275POPC   C1B48139   2.581  13.817   6.455
 9275POPC   C2B48140   2.587  13.814   6.755
 9275POPC   C3B48141   2.617  13.833   7.055
 9275POPC   C4B48142   2.606  13.842   7.355
 9276POPC   NC348143  19.027   1.953   5.555
 9276POPC   PO448144  19.068   2.021   5.855
 9276POPC   GL148145  19.053   1.965   6.155
 9276POPC   GL248146  19.175   1.879   6.155
 9276POPC   C1A48147  19.061   2.031   6.455
 9276POPC   D2A48148  19.033   2.030   6.755
 9276POPC   C3A48149  19.024   1.964   7.055
 9276POPC   C4A48150  19.101   1.950   7.355
 9276POPC   C1B48151  19.264   1.795   6.455
 9276POPC   C2B48152  19.245   1.802   6.755
 9276POPC   C3B48153  19.255   1.850   7.055
 9276POPC   C4B48154  19.218   1.812   7.355
 9277POPC   NC348155  33.816  20.583   5.555
 9277POPC   PO448156  33.841  20.600   5.855
 9277POPC   GL148157  33.824  20.578   6.155
 9277POPC   GL248158  33.762  20.526   6.155
 9277POPC   C1A48159  33.781  20.604   6.455
 9277POPC   D2A48160  33.818  20.568   6.755
 9277POPC   C3A48161  33.832  20.611   7.055
 9277POPC   C4A48162  33.772  20.650   7.355
 9277POPC   C1B48163  33.704  20.356   6.455
 9277POPC   C2B48164  33.751  20.349   6.755
 9277POPC   C3B48165  33.723  20.341   7.055
 9277POPC   C4B48166  33.679  20.370   7.355
 9278POPC   NC348167  37.653  29.156   5.555
 9278POPC   PO448168  37.713  29.154   5.855
 9278POPC   GL148169  37.661  29.098   6.155
 9278POPC   GL248170  37.551  29.172   6.155
 9278POPC   C1A48171  37.702  29.155   6.455
 9278POPC   D2A48172  37.633  29.186   6.755
 9278POPC   C3A48173  37.677  29.132   7.055
 9278POPC   C4A48174  37.656  29.195   7.355
 9278POPC   C1B48175  37.410  29.244   6.455
 9278POPC   C2B48176  37.450  29.196   6.755
 9278POPC   C3B48177  37.400  29.214   7.055
 9278POPC   C4B48178  37.488  29.271   7.355
 9279POPC   NC348179  43.900  20.601   5.555
 9279POPC   PO448180  43.862  20.579   5.855
 9279POPC   GL148181  43.849  20.645   6.155
 9279POPC   GL248182  43.781  20.698   6.155
 9279POPC   C1A48183  43.882  20.638   6.455
 9279POPC   D2A48184  43.904  20.589   6.755
 9279POPC   C3A48185  43.907  20.562   7.055
 9279POPC   C4A48186  43.928  20.574   7.355
 9279POPC   C1B48187  43.723  20.811   6.455
 9279POPC   C2B48188  43.770  20.772   6.755
 9279POPC   C3B48189  43.753  20.804   7.055
 9279POPC   C4B48190  43.734  20.797   7.355
 9280POPC   NC348191  29.927   5.895   5.555
 9280POPC   PO448192  29.916   5.874   5.855
 9280POPC   GL148193  29.965   5.878   6.155
 9280POPC   GL248194  29.753   5.845   6.155
 9280POPC   C1A48195  29.967   5.856   6.455
 9280POPC   D2A48196  29.946   5.849   6.755
 9280POPC   C3A48197  29.969   5.864   7.055
 9280POPC   C4A48198  29.921   5.833   7.355
 9280POPC   C1B48199  29.700   5.827   6.455
 9280POPC   C2B48200  29.653   5.880   6.755
 9280POPC   C3B48201  29.651   5.830   7.055
 9280POPC   C4B48202  29.717   5.873   7.355
 9281POPC   NC348203  12.091  22.954   5.555
 9281POPC   PO448204  12.099  22.904   5.855
 9281POPC   GL148205  12.111  22.933   6.155
 9281POPC   GL248206  12.172  23.003   6.155
 9281POPC   C1A48207  12.102  22.912   6.455
 9281POPC   D2A48208  12.126  22.926   6.755
 9281POPC   C3A48209  12.121  22.925   7.055
 9281POPC   C4A48210  12.110  22.950   7.355
 9281POPC   C1B48211  12.206  23.199   6.455
 9281POPC   C2B48212  12.175  23.148   6.755
 9281POPC   C3B48213  12.198  23.179   7.055
 9281POPC   C4B48214  12.230  23.167   7.355
 9282POPC   NC348215  24.514  30.735   5.555
 9282POPC   PO448216  24.468  30.727   5.855
 9282POPC   GL148217  24.486  30.697   6.155
 9282POPC   GL248218  24.376  30.677   6.155
 9282POPC   C1A48219  24.502  30.675   6.455
 9282POPC   D2A48220  24.504  30.665   6.755
 9282POPC   C3A48221  24.453  30.654   7.055
 9282POPC   C4A48222  24.450  30.685   7.355
 9282POPC   C1B48223  24.255  30.652   6.455
 9282POPC   C2B48224  24.217  30.588   6.755
 9282POPC   C3B48225  24.213  30.571   7.055
 9282POPC   C4B48226  24.276  30.617   7.355
 9283POPC   NC348227  40.808  27.601   5.555
 9283POPC   PO448228  40.740  27.612   5.855
 9283POPC   GL148229  40.830  27.628   6.155
 9283POPC   GL248230  40.681  27.564   6.155
 9283POPC   C1A48231  40.752  27.635   6.455
 9283POPC   D2A48232  40.766  27.605   6.755
 9283POPC   C3A48233  40.792  27.627   7.055
 9283POPC   C4A48234  40.819  27.568   7.355
 9283POPC   C1B48235  40.566  27.563   6.455
 9283POPC   C2B48236  40.532  27.555   6.755
 9283POPC   C3B48237  40.529  27.560   7.055
 9283POPC   C4B48238  40.523  27.564   7.355
 9284POPC   NC348239  31.520  30.652   5.555
 9284POPC   PO448240  31.452  30.675   5.855
 9284POPC   GL148241  31.479  30.664   6.155
 9284POPC   GL248242  31.430  30.562   6.155
 9284POPC   C1A48243  31.439  30.670   6.455
 9284POPC   D2A48244  31.496  30.679   6.755
 9284POPC   C3A48245  31.498  30.738   7.055
 9284POPC   C4A48246  31.516  30.740   7.355
 9284POPC   C1B48247  31.371  30.460   6.455
 9284POPC   C2B48248  31.383  30.438   6.755
 9284POPC   C3B48249  31.351  30.492   7.055
 9284POPC   C4B48250  31.335  30.433   7.355
 9285POPC   NC348251   0.390   7.423   5.555
 9285POPC   PO448252   0.407   7.402   5.855
 9285POPC   GL148253   0.433   7.454   6.155
 9285POPC   GL248254   0.522   7.512   6.155
 9285POPC   C1A48255   0.454   7.391   6.455
 9285POPC   D2A48256   0.445   7.448   6.755
 9285POPC   C3A48257   0.405   7.431   7.055
 9285POPC   C4A48258   0.476   7.419   7.355
 9285POPC   C1B48259   0.613   7.571   6.455
 9285POPC   C2B48260   0.601   7.610   6.755
 9285POPC   C3B48261   0.589   7.614   7.055
 9285POPC   C4B48262   0.634   7.662   7.355
 9286POPC   NC348263   5.849  15.147   5.555
 9286POPC   PO448264   5.839  15.150   5.855
 9286POPC   GL148265   5.846  15.228   6.155
 9286POPC   GL248266   5.883  15.096   6.155
 9286POPC   C1A48267   5.909  15.183   6.455
 9286POPC   D2A48268   5.837  15.150   6.755
 9286POPC   C3A48269   5.887  15.131   7.055
 9286POPC   C4A48270   5.903  15.218   7.355
 9286POPC   C1B48271   5.846  14.912   6.455
 9286POPC   C2B48272   5.788  14.895   6.755
 9286POPC   C3B48273   5.858  14.905   7.055
 9286POPC   C4B48274   5.812  14.955   7.355
 9287POPC   NC348275  31.522  17.556   5.555
 9287POPC   PO448276  31.485  17.546   5.855
 9287POPC   GL148277  31.457  17.499   6.155
 9287POPC   GL248278  31.450  17.358   6.155
 9287POPC   C1A48279  31.472  17.536   6.455
 9287POPC   D2A48280  31.446  17.545   6.755
 9287POPC   C3A48281  31.433  17.459   7.055
 9287POPC   C4A48282  31.518  17.503   7.355
 9287POPC   C1B48283  31.453  17.221   6.455
 9287POPC   C2B48284  31.449  17.283   6.755
 9287POPC   C3B48285  31.478  17.267   7.055
 9287POPC   C4B48286  31.455  17.298   7.355
 9288POPC   NC348287  19.033  15.958   5.555
 9288POPC   PO448288  19.101  15.937   5.855
 9288POPC   GL148289  19.070  15.999   6.155
 9288POPC   GL248290  19.008  16.071   6.155
 9288POPC   C1A48291  19.099  15.953   6.455
 9288POPC   D2A48292  19.072  15.918   6.755
 9288POPC   C3A48293  19.036  15.916   7.055
 9288POPC   C4A48294  19.102  15.954   7.355
 9288POPC   C1B48295  18.962  16.181   6.455
 9288POPC   C2B48296  18.917  16.185   6.755
 9288POPC   C3B48297  18.914  16.137   7.055
 9288POPC   C4B48298  18.902  16.186   7.355
 9289POPC   NC348299   5.862  23.672   5.555
 9289POPC   PO448300   5.856  23.739   5.855
 9289POPC   GL148301   5.885  23.672   6.155
 9289POPC   GL248302   5.747  23.813   6.155
 9289POPC   C1A48303   5.858  23.757   6.455
 9289POPC   D2A48304   5.850  23.761   6.755
 9289POPC   C3A48305   5.876  23.685   7.055
 9289POPC   C4A48306   5.842  23.732   7.355
 9289POPC   C1B48307   5.730  23.927   6.455
 9289POPC   C2B48308   5.760  23.917   6.755
 9289POPC   C3B48309   5.702  23.872   7.055
 9289POPC   C4B48310   5.725  23.956   7.355
 9290POPC   NC348311  19.834   7.402   5.555
 9290POPC   PO448312  19.875   7.425   5.855
 9290POPC   GL148313  19.808   7.445   6.155
 9290POPC   GL248314  19.710   7.506   6.155
 9290POPC   C1A48315  19.792   7.395   6.455
 9290POPC   D2A48316  19.866   7.425   6.755
 9290POPC   C3A48317  19.873   7.460   7.055
 9290POPC   C4A48318  19.802   7.470   7.355
 9290POPC   C1B48319  19.682   7.555   6.455
 9290POPC   C2B48320  19.694   7.548   6.755
 9290POPC   C3B48321  19.635   7.619   7.055
 9290POPC   C4B48322  19.641   7.610   7.355
 9291POPC   NC348323  29.118  15.209   5.555
 9291POPC   PO448324  29.173  15.138   5.855
 9291POPC   GL148325  29.159  15.166   6.155
 9291POPC   GL248326  29.128  15.351   6.155
 9291POPC   C1A48327  29.153  15.131   6.455
 9291POPC   D2A48328  29.135  15.229   6.755
 9291POPC   C3A48329  29.132  15.177   7.055
 9291POPC   C4A48330  29.132  15.179   7.355
 9291POPC   C1B48331  29.132  15.444   6.455
 9291POPC   C2B48332  29.079  15.457   6.755
 9291POPC   C3B48333  29.109  15.424   7.055
 9291POPC   C4B48334  29.124  15.467   7.355
 9292POPC   NC348335   0.454  20.659   5.555
 9292POPC   PO448336   0.402  20.594   5.855
 9292POPC   GL148337   0.433  20.602   6.155
 9292POPC   GL248338   0.380  20.485   6.155
 9292POPC   C1A48339   0.408  20.639   6.455
 9292POPC   D2A48340   0.441  20.627   6.755
 9292POPC   C3A48341   0.436  20.617   7.055
 9292POPC   C4A48342   0.423  20.645   7.355
 9292POPC   C1B48343   0.389  20.341   6.455
 9292POPC   C2B48344   0.371  20.354   6.755
 9292POPC   C3B48345   0.324  20.330   7.055
 9292POPC   C4B48346   0.384  20.379   7.355
 9293POPC   NC348347  26.074  19.833   5.555
 9293POPC   PO448348  26.036  19.845   5.855
 9293POPC   GL148349  26.041  19.848   6.155
 9293POPC   GL248350  26.151  19.780   6.155
 9293POPC   C1A48351  26.010  19.808   6.455
 9293POPC   D2A48352  26.039  19.845   6.755
 9293POPC   C3A48353  26.085  19.877   7.055
 9293POPC   C4A48354  26.011  19.822   7.355
 9293POPC   C1B48355  26.224  19.736   6.455
 9293POPC   C2B48356  26.224  19.744   6.755
 9293POPC   C3B48357  26.264  19.735   7.055
 9293POPC   C4B48358  26.221  19.658   7.355
 9294POPC   NC348359  38.431  22.953   5.555
 9294POPC   PO448360  38.456  22.968   5.855
 9294POPC   GL148361  38.452  22.922   6.155
 9294POPC   GL248362  38.375  22.996   6.155
 9294POPC   C1A48363  38.433  22.980   6.455
 9294POPC   D2A48364  38.489  22.945   6.755
 9294POPC   C3A48365  38.443  22.892   7.055
 9294POPC   C4A48366  38.467  22.976   7.355
 9294POPC   C1B48367  38.211  23.018   6.455
 9294POPC   C2B48368  38.186  23.063   6.755
 9294POPC   C3B48369  38.276  23.053   7.055
 9294POPC   C4B48370  38.245  23.022   7.355
 9295POPC   NC348371  11.298   9.742   5.555
 9295POPC   PO448372  11.267   9.740   5.855
 9295POPC   GL148373  11.280   9.766   6.155
 9295POPC   GL248374  11.244   9.851   6.155
 9295POPC   C1A48375  11.342   9.727   6.455
 9295POPC   D2A48376  11.328   9.745   6.755
 9295POPC   C3A48377  11.346   9.765   7.055
 9295POPC   C4A48378  11.303   9.732   7.355
 9295POPC   C1B48379  11.116   9.943   6.455
 9295POPC   C2B48380  11.120   9.941   6.755
 9295POPC   C3B48381  11.130   9.943   7.055
 9295POPC   C4B48382  11.147   9.922   7.355
 9296POPC   NC348383  43.107   8.981   5.555
 9296POPC   PO448384  43.065   8.926   5.855
 9296POPC   GL148385  43.137   8.950   6.155
 9296POPC   GL248386  43.245   8.977   6.155
 9296POPC   C1A48387  43.091   8.948   6.455
 9296POPC   D2A48388  43.101   8.941   6.755
 9296POPC   C3A48389  43.084   8.972   7.055
 9296POPC   C4A48390  43.085   8.950   7.355
 9296POPC   C1B48391  43.321   9.037   6.455
 9296POPC   C2B48392  43.370   9.054   6.755
 9296POPC   C3B48393  43.344   9.024   7.055
 9296POPC   C4B48394  43.321   9.018   7.355
 9297POPC   NC348395   0.400  15.940   5.555
 9297POPC   PO448396   0.441  15.930   5.855
 9297POPC   GL148397   0.441  15.907   6.155
 9297POPC   GL248398   0.519  15.986   6.155
 9297POPC   C1A48399   0.406  15.999   6.455
 9297POPC   D2A48400   0.473  16.003   6.755
 9297POPC   C3A48401   0.456  15.918   7.055
 9297POPC   C4A48402   0.478  15.924   7.355
 9297POPC   C1B48403   0.714  16.000   6.455
 9297POPC   C2B48404   0.699  15.957   6.755
 9297POPC   C3B48405   0.730  15.948   7.055
 9297POPC   C4B48406   0.647  15.953   7.355
 9298POPC   NC348407  42.301  21.339   5.555
 9298POPC   PO448408  42.346  21.338   5.855
 9298POPC   GL148409  42.350  21.340   6.155
 9298POPC   GL248410  42.355  21.502   6.155
 9298POPC   C1A48411  42.372  21.343   6.455
 9298POPC   D2A48412  42.317  21.388   6.755
 9298POPC   C3A48413  42.285  21.417   7.055
 9298POPC   C4A48414  42.305  21.351   7.355
 9298POPC   C1B48415  42.350  21.592   6.455
 9298POPC   C2B48416  42.332  21.634   6.755
 9298POPC   C3B48417  42.387  21.598   7.055
 9298POPC   C4B48418  42.356  21.610   7.355
 9299POPC   NC348419  29.942  33.813   5.555
 9299POPC   PO448420  29.882  33.836   5.855
 9299POPC   GL148421  29.962  33.791   6.155
 9299POPC   GL248422  29.753  33.785   6.155
 9299POPC   C1A48423  29.903  33.846   6.455
 9299POPC   D2A48424  29.901  33.820   6.755
 9299POPC   C3A48425  29.886  33.790   7.055
 9299POPC   C4A48426  29.935  33.775   7.355
 9299POPC   C1B48427  29.692  33.740   6.455
 9299POPC   C2B48428  29.714  33.781   6.755
 9299POPC   C3B48429  29.675  33.790   7.055
 9299POPC   C4B48430  29.686  33.775   7.355
 9300POPC   NC348431  21.381  20.568   5.555
 9300POPC   PO448432  21.367  20.636   5.855
 9300POPC   GL148433  21.413  20.650   6.155
 9300POPC   GL248434  21.375  20.523   6.155
 9300POPC   C1A48435  21.338  20.595   6.455
 9300POPC   D2A48436  21.366  20.610   6.755
 9300POPC   C3A48437  21.359  20.592   7.055
 9300POPC   C4A48438  21.388  20.560   7.355
 9300POPC   C1B48439  21.296  20.324   6.455
 9300POPC   C2B48440  21.325  20.344   6.755
 9300POPC   C3B48441  21.321  20.328   7.055
 9300POPC   C4B48442  21.312  20.404   7.355
 9301POPC   NC348443  31.522  33.812   5.555
 9301POPC   PO448444  31.500  33.815   5.855
 9301POPC   GL148445  31.434  33.849   6.155
 9301POPC   GL248446  31.416  33.663   6.155
 9301POPC   C1A48447  31.487  33.769   6.455
 9301POPC   D2A48448  31.469  33.825   6.755
 9301POPC   C3A48449  31.424  33.823   7.055
 9301POPC   C4A48450  31.516  33.774   7.355
 9301POPC   C1B48451  31.492  33.526   6.455
 9301POPC   C2B48452  31.494  33.523   6.755
 9301POPC   C3B48453  31.406  33.536   7.055
 9301POPC   C4B48454  31.411  33.583   7.355
 9302POPC   NC348455  39.245  42.366   5.555
 9302POPC   PO448456  39.196  42.334   5.855
 9302POPC   GL148457  39.185  42.348   6.155
 9302POPC   GL248458  39.395  42.295   6.155
 9302POPC   C1A48459  39.244  42.286   6.455
 9302POPC   D2A48460  39.217  42.374   6.755
 9302POPC   C3A48461  39.258  42.353   7.055
 9302POPC   C4A48462  39.273  42.356   7.355
 9302POPC   C1B48463  39.461  42.345   6.455
 9302POPC   C2B48464  39.443  42.274   6.755
 9302POPC   C3B48465  39.451  42.260   7.055
 9302POPC   C4B48466  39.446  42.286   7.355
 9303POPC   NC348467   7.411  13.593   5.555
 9303POPC   PO448468   7.449  13.675   5.855
 9303POPC   GL148469   7.390  13.619   6.155
 9303POPC   GL248470   7.305  13.585   6.155
 9303POPC   C1A48471   7.378  13.669   6.455
 9303POPC   D2A48472   7.429  13.620   6.755
 9303POPC   C3A48473   7.414  13.633   7.055
 9303POPC   C4A48474   7.463  13.634   7.355
 9303POPC   C1B48475   7.214  13.584   6.455
 9303POPC   C2B48476   7.157  13.622   6.755
 9303POPC   C3B48477   7.160  13.619   7.055
 9303POPC   C4B48478   7.139  13.557   7.355
 9304POPC   NC348479  33.066  39.184   5.555
 9304POPC   PO448480  33.035  39.204   5.855
 9304POPC   GL148481  33.018  39.228   6.155
 9304POPC   GL248482  33.150  39.182   6.155
 9304POPC   C1A48483  33.016  39.264   6.455
 9304POPC   D2A48484  33.030  39.235   6.755
 9304POPC   C3A48485  33.046  39.251   7.055
 9304POPC   C4A48486  33.020  39.204   7.355
 9304POPC   C1B48487  33.244  39.066   6.455
 9304POPC   C2B48488  33.214  39.038   6.755
 9304POPC   C3B48489  33.211  39.045   7.055
 9304POPC   C4B48490  33.265  39.025   7.355
 9305POPC   NC348491  43.863  15.937   5.555
 9305POPC   PO448492  43.881  15.914   5.855
 9305POPC   GL148493  43.910  15.987   6.155
 9305POPC   GL248494  43.922  16.059   6.155
 9305POPC   C1A48495  43.864  15.932   6.455
 9305POPC   D2A48496  43.885  15.922   6.755
 9305POPC   C3A48497  43.876  15.958   7.055
 9305POPC   C4A48498  43.929  15.960   7.355
 9305POPC   C1B48499  43.913  16.254   6.455
 9305POPC   C2B48500  43.864  16.252   6.755
 9305POPC   C3B48501  43.845  16.239   7.055
 9305POPC   C4B48502  43.860  16.161   7.355
 9306POPC   NC348503  25.271  31.520   5.555
 9306POPC   PO448504  25.284  31.459   5.855
 9306POPC   GL148505  25.307  31.460   6.155
 9306POPC   GL248506  25.135  31.372   6.155
 9306POPC   C1A48507  25.284  31.443   6.455
 9306POPC   D2A48508  25.297  31.448   6.755
 9306POPC   C3A48509  25.305  31.471   7.055
 9306POPC   C4A48510  25.283  31.491   7.355
 9306POPC   C1B48511  25.109  31.311   6.455
 9306POPC   C2B48512  25.079  31.293   6.755
 9306POPC   C3B48513  25.039  31.298   7.055
 9306POPC   C4B48514  25.075  31.347   7.355
 9307POPC   NC348515  29.165  33.070   5.555
 9307POPC   PO448516  29.152  33.049   5.855
 9307POPC   GL148517  29.170  33.055   6.155
 9307POPC   GL248518  29.155  33.168   6.155
 9307POPC   C1A48519  29.194  33.045   6.455
 9307POPC   D2A48520  29.127  33.010   6.755
 9307POPC   C3A48521  29.151  33.071   7.055
 9307POPC   C4A48522  29.180  33.023   7.355
 9307POPC   C1B48523  29.153  33.263   6.455
 9307POPC   C2B48524  29.138  33.323   6.755
 9307POPC   C3B48525  29.105  33.321   7.055
 9307POPC   C4B48526  29.110  33.317   7.355
 9308POPC   NC348527  13.659  34.601   5.555
 9308POPC   PO448528  13.584  34.603   5.855
 9308POPC   GL148529  13.641  34.615   6.155
 9308POPC   GL248530  13.594  34.710   6.155
 9308POPC   C1A48531  13.633  34.609   6.455
 9308POPC   D2A48532  13.625  34.554   6.755
 9308POPC   C3A48533  13.650  34.545   7.055
 9308POPC   C4A48534  13.601  34.595   7.355
 9308POPC   C1B48535  13.437  34.758   6.455
 9308POPC   C2B48536  13.473  34.795   6.755
 9308POPC   C3B48537  13.451  34.783   7.055
 9308POPC   C4B48538  13.506  34.809   7.355
 9309POPC   NC348539  33.780  40.799   5.555
 9309POPC   PO448540  33.777  40.807   5.855
 9309POPC   GL148541  33.804  40.787   6.155
 9309POPC   GL248542  33.890  40.853   6.155
 9309POPC   C1A48543  33.774  40.824   6.455
 9309POPC   D2A48544  33.818  40.771   6.755
 9309POPC   C3A48545  33.760  40.781   7.055
 9309POPC   C4A48546  33.802  40.808   7.355
 9309POPC   C1B48547  33.875  40.984   6.455
 9309POPC   C2B48548  33.881  41.007   6.755
 9309POPC   C3B48549  33.906  40.968   7.055
 9309POPC   C4B48550  33.923  41.054   7.355
 9310POPC   NC348551  40.740  22.117   5.555
 9310POPC   PO448552  40.741  22.176   5.855
 9310POPC   GL148553  40.822  22.198   6.155
 9310POPC   GL248554  40.943  22.130   6.155
 9310POPC   C1A48555  40.792  22.186   6.455
 9310POPC   D2A48556  40.785  22.123   6.755
 9310POPC   C3A48557  40.760  22.119   7.055
 9310POPC   C4A48558  40.770  22.156   7.355
 9310POPC   C1B48559  41.022  22.191   6.455
 9310POPC   C2B48560  41.011  22.131   6.755
 9310POPC   C3B48561  40.987  22.206   7.055
 9310POPC   C4B48562  41.071  22.187   7.355
 9311POPC   NC348563  24.480   3.582   5.555
 9311POPC   PO448564  24.485   3.500   5.855
 9311POPC   GL148565  24.475   3.568   6.155
 9311POPC   GL248566  24.413   3.493   6.155
 9311POPC   C1A48567  24.527   3.571   6.455
 9311POPC   D2A48568  24.502   3.550   6.755
 9311POPC   C3A48569  24.462   3.510   7.055
 9311POPC   C4A48570  24.446   3.569   7.355
 9311POPC   C1B48571  24.302   3.463   6.455
 9311POPC   C2B48572  24.294   3.403   6.755
 9311POPC   C3B48573  24.249   3.435   7.055
 9311POPC   C4B48574  24.248   3.417   7.355
 9312POPC   NC348575   1.979  34.533   5.555
 9312POPC   PO448576   1.952  34.585   5.855
 9312POPC   GL148577   1.981  34.586   6.155
 9312POPC   GL248578   2.121  34.541   6.155
 9312POPC   C1A48579   1.985  34.532   6.455
 9312POPC   D2A48580   2.038  34.528   6.755
 9312POPC   C3A48581   1.981  34.556   7.055
 9312POPC   C4A48582   1.986  34.528   7.355
 9312POPC   C1B48583   2.278  34.566   6.455
 9312POPC   C2B48584   2.217  34.586   6.755
 9312POPC   C3B48585   2.262  34.608   7.055
 9312POPC   C4B48586   2.285  34.525   7.355
 9313POPC   NC348587  38.446  43.869   5.555
 9313POPC   PO448588  38.408  43.867   5.855
 9313POPC   GL148589  38.461  43.875   6.155
 9313POPC   GL248590  38.367  43.791   6.155
 9313POPC   C1A48591  38.463  43.868   6.455
 9313POPC   D2A48592  38.434  43.878   6.755
 9313POPC   C3A48593  38.418  43.910   7.055
 9313POPC   C4A48594  38.472  43.852   7.355
 9313POPC   C1B48595  38.316  43.770   6.455
 9313POPC   C2B48596  38.300  43.717   6.755
 9313POPC   C3B48597  38.267  43.710   7.055
 9313POPC   C4B48598  38.266  43.685   7.355
 9314POPC   NC348599  28.359  33.063   5.555
 9314POPC   PO448600  28.351  32.978   5.855
 9314POPC   GL148601  28.330  32.988   6.155
 9314POPC   GL248602  28.472  32.890   6.155
 9314POPC   C1A48603  28.326  33.029   6.455
 9314POPC   D2A48604  28.401  32.983   6.755
 9314POPC   C3A48605  28.354  33.011   7.055
 9314POPC   C4A48606  28.411  33.070   7.355
 9314POPC   C1B48607  28.557  32.837   6.455
 9314POPC   C2B48608  28.504  32.815   6.755
 9314POPC   C3B48609  28.521  32.789   7.055
 9314POPC   C4B48610  28.508  32.789   7.355
 9315POPC   NC348611  41.518  26.866   5.555
 9315POPC   PO448612  41.556  26.794   5.855
 9315POPC   GL148613  41.602  26.835   6.155
 9315POPC   GL248614  41.475  26.910   6.155
 9315POPC   C1A48615  41.577  26.856   6.455
 9315POPC   D2A48616  41.523  26.853   6.755
 9315POPC   C3A48617  41.511  26.836   7.055
 9315POPC   C4A48618  41.538  26.830   7.355
 9315POPC   C1B48619  41.365  26.964   6.455
 9315POPC   C2B48620  41.376  27.015   6.755
 9315POPC   C3B48621  41.338  26.953   7.055
 9315POPC   C4B48622  41.357  26.998   7.355
 9316POPC   NC348623   1.990   6.633   5.555
 9316POPC   PO448624   1.958   6.612   5.855
 9316POPC   GL148625   2.034   6.631   6.155
 9316POPC   GL248626   2.066   6.643   6.155
 9316POPC   C1A48627   1.987   6.602   6.455
 9316POPC   D2A48628   2.019   6.636   6.755
 9316POPC   C3A48629   2.002   6.626   7.055
 9316POPC   C4A48630   1.949   6.633   7.355
 9316POPC   C1B48631   2.241   6.712   6.455
 9316POPC   C2B48632   2.244   6.637   6.755
 9316POPC   C3B48633   2.256   6.681   7.055
 9316POPC   C4B48634   2.271   6.671   7.355
 9317POPC   NC348635  30.717  36.142   5.555
 9317POPC   PO448636  30.723  36.097   5.855
 9317POPC   GL148637  30.740  36.116   6.155
 9317POPC   GL248638  30.552  36.175   6.155
 9317POPC   C1A48639  30.735  36.098   6.455
 9317POPC   D2A48640  30.674  36.175   6.755
 9317POPC   C3A48641  30.711  36.135   7.055
 9317POPC   C4A48642  30.656  36.169   7.355
 9317POPC   C1B48643  30.445  36.229   6.455
 9317POPC   C2B48644  30.420  36.210   6.755
 9317POPC   C3B48645  30.420  36.208   7.055
 9317POPC   C4B48646  30.463  36.238   7.355
 9318POPC   NC348647  15.937  39.258   5.555
 9318POPC   PO448648  15.998  39.266   5.855
 9318POPC   GL148649  15.933  39.222   6.155
 9318POPC   GL248650  16.088  39.128   6.155
 9318POPC   C1A48651  15.965  39.252   6.455
 9318POPC   D2A48652  15.939  39.242   6.755
 9318POPC   C3A48653  15.965  39.244   7.055
 9318POPC   C4A48654  15.997  39.211   7.355
 9318POPC   C1B48655  16.156  39.161   6.455
 9318POPC   C2B48656  16.145  39.160   6.755
 9318POPC   C3B48657  16.205  39.124   7.055
 9318POPC   C4B48658  16.139  39.101   7.355
 9319POPC   NC348659   1.226   9.721   5.555
 9319POPC   PO448660   1.215   9.791   5.855
 9319POPC   GL148661   1.211   9.709   6.155
 9319POPC   GL248662   1.366   9.789   6.155
 9319POPC   C1A48663   1.177   9.769   6.455
 9319POPC   D2A48664   1.210   9.750   6.755
 9319POPC   C3A48665   1.248   9.701   7.055
 9319POPC   C4A48666   1.192   9.783   7.355
 9319POPC   C1B48667   1.449   9.884   6.455
 9319POPC   C2B48668   1.472   9.844   6.755
 9319POPC   C3B48669   1.429   9.912   7.055
 9319POPC   C4B48670   1.389   9.830   7.355
 9320POPC   NC348671  19.075   8.193   5.555
 9320POPC   PO448672  19.050   8.221   5.855
 9320POPC   GL148673  19.033   8.179   6.155
 9320POPC   GL248674  19.153   8.264   6.155
 9320POPC   C1A48675  19.038   8.153   6.455
 9320POPC   D2A48676  19.009   8.168   6.755
 9320POPC   C3A48677  19.096   8.204   7.055
 9320POPC   C4A48678  19.022   8.183   7.355
 9320POPC   C1B48679  19.122   8.383   6.455
 9320POPC   C2B48680  19.120   8.423   6.755
 9320POPC   C3B48681  19.104   8.397   7.055
 9320POPC   C4B48682  19.142   8.418   7.355
 9321POPC   NC348683   0.427  36.921   5.555
 9321POPC   PO448684   0.466  36.896   5.855
 9321POPC   GL148685   0.407  36.953   6.155
 9321POPC   GL248686   0.466  36.792   6.155
 9321POPC   C1A48687   0.466  36.859   6.455
 9321POPC   D2A48688   0.481  36.941   6.755
 9321POPC   C3A48689   0.442  36.883   7.055
 9321POPC   C4A48690   0.395  36.940   7.355
 9321POPC   C1B48691   0.376  36.689   6.455
 9321POPC   C2B48692   0.374  36.616   6.755
 9321POPC   C3B48693   0.361  36.621   7.055
 9321POPC   C4B48694   0.389  36.668   7.355
 9322POPC   NC348695  35.390   3.534   5.555
 9322POPC   PO448696  35.401   3.553   5.855
 9322POPC   GL148697  35.321   3.569   6.155
 9322POPC   GL248698  35.475   3.458   6.155
 9322POPC   C1A48699  35.334   3.579   6.455
 9322POPC   D2A48700  35.357   3.549   6.755
 9322POPC   C3A48701  35.333   3.564   7.055
 9322POPC   C4A48702  35.392   3.573   7.355
 9322POPC   C1B48703  35.521   3.357   6.455
 9322POPC   C2B48704  35.535   3.385   6.755
 9322POPC   C3B48705  35.502   3.371   7.055
 9322POPC   C4B48706  35.544   3.332   7.355
 9323POPC   NC348707  27.545  31.476   5.555
 9323POPC   PO448708  27.552  31.431   5.855
 9323POPC   GL148709  27.552  31.438   6.155
 9323POPC   GL248710  27.663  31.415   6.155
 9323POPC   C1A48711  27.627  31.434   6.455
 9323POPC   D2A48712  27.626  31.499   6.755
 9323POPC   C3A48713  27.562  31.487   7.055
 9323POPC   C4A48714  27.566  31.473   7.355
 9323POPC   C1B48715  27.739  31.294   6.455
 9323POPC   C2B48716  27.752  31.271   6.755
 9323POPC   C3B48717  27.743  31.259   7.055
 9323POPC   C4B48718  27.695  31.224   7.355
 9324POPC   NC348719  40.765  43.912   5.555
 9324POPC   PO448720  40.748  43.904   5.855
 9324POPC   GL148721  40.771  43.928   6.155
 9324POPC   GL248722  40.716  43.913   6.155
 9324POPC   C1A48723  40.778  43.900   6.455
 9324POPC   D2A48724  40.828  43.900   6.755
 9324POPC   C3A48725  40.812  43.858   7.055
 9324POPC   C4A48726  40.816  43.918   7.355
 9324POPC   C1B48727  40.592  44.011   6.455
 9324POPC   C2B48728  40.546  44.024   6.755
 9324POPC   C3B48729  40.522  43.996   7.055
 9324POPC   C4B48730  40.535  43.975   7.355
 9325POPC   NC348731  22.916  39.200   5.555
 9325POPC   PO448732  22.915  39.198   5.855
 9325POPC   GL148733  22.907  39.198   6.155
 9325POPC   GL248734  22.910  39.124   6.155
 9325POPC   C1A48735  22.960  39.251   6.455
 9325POPC   D2A48736  22.891  39.245   6.755
 9325POPC   C3A48737  22.944  39.199   7.055
 9325POPC   C4A48738  22.903  39.252   7.355
 9325POPC   C1B48739  22.892  38.982   6.455
 9325POPC   C2B48740  22.951  38.974   6.755
 9325POPC   C3B48741  22.879  38.994   7.055
 9325POPC   C4B48742  22.877  39.008   7.355
 9326POPC   NC348743  42.292  39.185   5.555
 9326POPC   PO448744  42.314  39.269   5.855
 9326POPC   GL148745  42.290  39.218   6.155
 9326POPC   GL248746  42.416  39.120   6.155
 9326POPC   C1A48747  42.365  39.211   6.455
 9326POPC   D2A48748  42.352  39.236   6.755
 9326POPC   C3A48749  42.295  39.208   7.055
 9326POPC   C4A48750  42.317  39.241   7.355
 9326POPC   C1B48751  42.585  39.103   6.455
 9326POPC   C2B48752  42.554  39.105   6.755
 9326POPC   C3B48753  42.584  39.072   7.055
 9326POPC   C4B48754  42.561  39.127   7.355
 9327POPC   NC348755  26.844  36.943   5.555
 9327POPC   PO448756  26.791  36.874   5.855
 9327POPC   GL148757  26.826  36.879   6.155
 9327POPC   GL248758  26.959  36.898   6.155
 9327POPC   C1A48759  26.832  36.937   6.455
 9327POPC   D2A48760  26.831  36.853   6.755
 9327POPC   C3A48761  26.851  36.910   7.055
 9327POPC   C4A48762  26.846  36.907   7.355
 9327POPC   C1B48763  27.041  36.790   6.455
 9327POPC   C2B48764  27.050  36.832   6.755
 9327POPC   C3B48765  27.005  36.797   7.055
 9327POPC   C4B48766  27.009  36.828   7.355
 9328POPC   NC348767  26.767   2.016   5.555
 9328POPC   PO448768  26.820   1.951   5.855
 9328POPC   GL148769  26.783   1.948   6.155
 9328POPC   GL248770  26.689   1.993   6.155
 9328POPC   C1A48771  26.795   1.942   6.455
 9328POPC   D2A48772  26.834   1.966   6.755
 9328POPC   C3A48773  26.817   1.997   7.055
 9328POPC   C4A48774  26.803   1.959   7.355
 9328POPC   C1B48775  26.552   2.018   6.455
 9328POPC   C2B48776  26.580   2.037   6.755
 9328POPC   C3B48777  26.561   2.024   7.055
 9328POPC   C4B48778  26.580   2.061   7.355
 9329POPC   NC348779   6.641  42.371   5.555
 9329POPC   PO448780   6.609  42.338   5.855
 9329POPC   GL148781   6.627  42.332   6.155
 9329POPC   GL248782   6.532  42.356   6.155
 9329POPC   C1A48783   6.627  42.374   6.455
 9329POPC   D2A48784   6.654  42.378   6.755
 9329POPC   C3A48785   6.607  42.351   7.055
 9329POPC   C4A48786   6.649  42.362   7.355
 9329POPC   C1B48787   6.394  42.474   6.455
 9329POPC   C2B48788   6.432  42.441   6.755
 9329POPC   C3B48789   6.398  42.427   7.055
 9329POPC   C4B48790   6.392  42.433   7.355
 9330POPC   NC348791   9.008   4.298   5.555
 9330POPC   PO448792   8.927   4.317   5.855
 9330POPC   GL148793   8.989   4.304   6.155
 9330POPC   GL248794   9.074   4.390   6.155
 9330POPC   C1A48795   9.008   4.289   6.455
 9330POPC   D2A48796   8.960   4.292   6.755
 9330POPC   C3A48797   9.002   4.362   7.055
 9330POPC   C4A48798   8.948   4.299   7.355
 9330POPC   C1B48799   9.171   4.396   6.455
 9330POPC   C2B48800   9.248   4.400   6.755
 9330POPC   C3B48801   9.260   4.425   7.055
 9330POPC   C4B48802   9.209   4.380   7.355
 9331POPC   NC348803  12.872  31.511   5.555
 9331POPC   PO448804  12.814  31.466   5.855
 9331POPC   GL148805  12.840  31.442   6.155
 9331POPC   GL248806  12.773  31.568   6.155
 9331POPC   C1A48807  12.808  31.483   6.455
 9331POPC   D2A48808  12.832  31.460   6.755
 9331POPC   C3A48809  12.826  31.482   7.055
 9331POPC   C4A48810  12.878  31.476   7.355
 9331POPC   C1B48811  12.695  31.668   6.455
 9331POPC   C2B48812  12.667  31.634   6.755
 9331POPC   C3B48813  12.692  31.658   7.055
 9331POPC   C4B48814  12.714  31.634   7.355
 9332POPC   NC348815  23.707  35.319   5.555
 9332POPC   PO448816  23.703  35.372   5.855
 9332POPC   GL148817  23.706  35.309   6.155
 9332POPC   GL248818  23.857  35.318   6.155
 9332POPC   C1A48819  23.737  35.383   6.455
 9332POPC   D2A48820  23.700  35.332   6.755
 9332POPC   C3A48821  23.745  35.331   7.055
 9332POPC   C4A48822  23.743  35.328   7.355
 9332POPC   C1B48823  23.911  35.311   6.455
 9332POPC   C2B48824  23.989  35.247   6.755
 9332POPC   C3B48825  23.907  35.227   7.055
 9332POPC   C4B48826  23.920  35.295   7.355
 9333POPC   NC348827  25.261  23.682   5.555
 9333POPC   PO448828  25.306  23.712   5.855
 9333POPC   GL148829  25.248  23.669   6.155
 9333POPC   GL248830  25.227  23.644   6.155
 9333POPC   C1A48831  25.285  23.755   6.455
 9333POPC   D2A48832  25.240  23.696   6.755
 9333POPC   C3A48833  25.274  23.731   7.055
 9333POPC   C4A48834  25.217  23.705   7.355
 9333POPC   C1B48835  25.112  23.528   6.455
 9333POPC   C2B48836  25.154  23.479   6.755
 9333POPC   C3B48837  25.112  23.546   7.055
 9333POPC   C4B48838  25.168  23.463   7.355
 9334POPC   NC348839  15.930   0.422   5.555
 9334POPC   PO448840  15.959   0.483   5.855
 9334POPC   GL148841  15.978   0.407   6.155
 9334POPC   GL248842  15.874   0.406   6.155
 9334POPC   C1A48843  15.912   0.478   6.455
 9334POPC   D2A48844  15.905   0.418   6.755
 9334POPC   C3A48845  15.929   0.393   7.055
 9334POPC   C4A48846  15.943   0.451   7.355
 9334POPC   C1B48847  15.769   0.324   6.455
 9334POPC   C2B48848  15.758   0.312   6.755
 9334POPC   C3B48849  15.748   0.312   7.055
 9334POPC   C4B48850  15.694   0.372   7.355
 9335POPC   NC348851  15.915  36.133   5.555
 9335POPC   PO448852  15.996  36.173   5.855
 9335POPC   GL148853  15.975  36.138   6.155
 9335POPC   GL248854  15.912  36.183   6.155
 9335POPC   C1A48855  15.998  36.127   6.455
 9335POPC   D2A48856  15.916  36.142   6.755
 9335POPC   C3A48857  15.916  36.147   7.055
 9335POPC   C4A48858  15.930  36.124   7.355
 9335POPC   C1B48859  15.767  36.348   6.455
 9335POPC   C2B48860  15.755  36.278   6.755
 9335POPC   C3B48861  15.759  36.339   7.055
 9335POPC   C4B48862  15.769  36.341   7.355
 9336POPC   NC348863  31.499  36.116   5.555
 9336POPC   PO448864  31.445  36.136   5.855
 9336POPC   GL148865  31.438  36.140   6.155
 9336POPC   GL248866  31.607  36.116   6.155
 9336POPC   C1A48867  31.422  36.095   6.455
 9336POPC   D2A48868  31.466  36.100   6.755
 9336POPC   C3A48869  31.430  36.149   7.055
 9336POPC   C4A48870  31.513  36.108   7.355
 9336POPC   C1B48871  31.732  36.237   6.455
 9336POPC   C2B48872  31.733  36.176   6.755
 9336POPC   C3B48873  31.678  36.193   7.055
 9336POPC   C4B48874  31.745  36.222   7.355
 9337POPC   NC348875  29.907  26.048   5.555
 9337POPC   PO448876  29.891  26.066   5.855
 9337POPC   GL148877  29.969  26.038   6.155
 9337POPC   GL248878  30.002  25.878   6.155
 9337POPC   C1A48879  29.922  26.006   6.455
 9337POPC   D2A48880  29.928  26.090   6.755
 9337POPC   C3A48881  29.963  25.992   7.055
 9337POPC   C4A48882  29.922  26.070   7.355
 9337POPC   C1B48883  30.005  25.798   6.455
 9337POPC   C2B48884  29.988  25.795   6.755
 9337POPC   C3B48885  30.019  25.823   7.055
 9337POPC   C4B48886  29.999  25.769   7.355
 9338POPC   NC348887  12.826  36.129   5.555
 9338POPC   PO448888  12.802  36.142   5.855
 9338POPC   GL148889  12.817  36.096   6.155
 9338POPC   GL248890  12.755  36.254   6.155
 9338POPC   C1A48891  12.817  36.138   6.455
 9338POPC   D2A48892  12.804  36.098   6.755
 9338POPC   C3A48893  12.815  36.150   7.055
 9338POPC   C4A48894  12.846  36.105   7.355
 9338POPC   C1B48895  12.768  36.360   6.455
 9338POPC   C2B48896  12.790  36.317   6.755
 9338POPC   C3B48897  12.703  36.378   7.055
 9338POPC   C4B48898  12.755  36.351   7.355
 9339POPC   NC348899  37.653  43.108   5.555
 9339POPC   PO448900  37.670  43.148   5.855
 9339POPC   GL148901  37.725  43.103   6.155
 9339POPC   GL248902  37.541  43.151   6.155
 9339POPC   C1A48903  37.723  43.158   6.455
 9339POPC   D2A48904  37.719  43.148   6.755
 9339POPC   C3A48905  37.683  43.154   7.055
 9339POPC   C4A48906  37.691  43.104   7.355
 9339POPC   C1B48907  37.383  43.126   6.455
 9339POPC   C2B48908  37.475  43.101   6.755
 9339POPC   C3B48909  37.394  43.077   7.055
 9339POPC   C4B48910  37.399  43.060   7.355
 9340POPC   NC348911  24.493  19.102   5.555
 9340POPC   PO448912  24.485  19.101   5.855
 9340POPC   GL148913  24.505  19.060   6.155
 9340POPC   GL248914  24.410  19.136   6.155
 9340POPC   C1A48915  24.506  19.039   6.455
 9340POPC   D2A48916  24.498  19.022   6.755
 9340POPC   C3A48917  24.453  19.103   7.055
 9340POPC   C4A48918  24.458  19.093   7.355
 9340POPC   C1B48919  24.401  19.246   6.455
 9340POPC   C2B48920  24.428  19.300   6.755
 9340POPC   C3B48921  24.362  19.335   7.055
 9340POPC   C4B48922  24.359  19.277   7.355
 9341POPC   NC348923  38.459  42.316   5.555
 9341POPC   PO448924  38.411  42.304   5.855
 9341POPC   GL148925  38.426  42.327   6.155
 9341POPC   GL248926  38.331  42.337   6.155
 9341POPC   C1A48927  38.487  42.369   6.455
 9341POPC   D2A48928  38.503  42.310   6.755
 9341POPC   C3A48929  38.499  42.317   7.055
 9341POPC   C4A48930  38.482  42.308   7.355
 9341POPC   C1B48931  38.182  42.296   6.455
 9341POPC   C2B48932  38.179  42.267   6.755
 9341POPC   C3B48933  38.249  42.299   7.055
 9341POPC   C4B48934  38.198  42.245   7.355
 9342POPC   NC348935   0.449  12.045   5.555
 9342POPC   PO448936   0.442  12.109   5.855
 9342POPC   GL148937   0.425  12.077   6.155
 9342POPC   GL248938   0.516  12.041   6.155
 9342POPC   C1A48939   0.411  12.081   6.455
 9342POPC   D2A48940   0.451  12.118   6.755
 9342POPC   C3A48941   0.463  12.109   7.055
 9342POPC   C4A48942   0.465  12.050   7.355
 9342POPC   C1B48943   0.655  11.997   6.455
 9342POPC   C2B48944   0.720  11.991   6.755
 9342POPC   C3B48945   0.720  12.021   7.055
 9342POPC   C4B48946   0.685  12.016   7.355
 9343POPC   NC348947   5.912   8.931   5.555
 9343POPC   PO448948   5.912   8.946   5.855
 9343POPC   GL148949   5.839   9.000   6.155
 9343POPC   GL248950   5.799   8.847   6.155
 9343POPC   C1A48951   5.871   8.999   6.455
 9343POPC   D2A48952   5.864   8.990   6.755
 9343POPC   C3A48953   5.841   8.972   7.055
 9343POPC   C4A48954   5.884   9.013   7.355
 9343POPC   C1B48955   5.726   8.739   6.455
 9343POPC   C2B48956   5.707   8.732   6.755
 9343POPC   C3B48957   5.767   8.738   7.055
 9343POPC   C4B48958   5.675   8.787   7.355
 9344POPC   NC348959   6.664   8.979   5.555
 9344POPC   PO448960   6.669   8.950   5.855
 9344POPC   GL148961   6.655   8.972   6.155
 9344POPC   GL248962   6.749   8.995   6.155
 9344POPC   C1A48963   6.679   8.974   6.455
 9344POPC   D2A48964   6.673   8.924   6.755
 9344POPC   C3A48965   6.673   8.957   7.055
 9344POPC   C4A48966   6.602   8.965   7.355
 9344POPC   C1B48967   6.919   8.921   6.455
 9344POPC   C2B48968   6.930   8.903   6.755
 9344POPC   C3B48969   6.843   8.977   7.055
 9344POPC   C4B48970   6.932   8.961   7.355
 9345POPC   NC348971  42.372  22.134   5.555
 9345POPC   PO448972  42.302  22.154   5.855
 9345POPC   GL148973  42.324  22.125   6.155
 9345POPC   GL248974  42.304  22.036   6.155
 9345POPC   C1A48975  42.308  22.212   6.455
 9345POPC   D2A48976  42.313  22.121   6.755
 9345POPC   C3A48977  42.319  22.124   7.055
 9345POPC   C4A48978  42.342  22.204   7.355
 9345POPC   C1B48979  42.287  21.954   6.455
 9345POPC   C2B48980  42.258  21.970   6.755
 9345POPC   C3B48981  42.234  21.885   7.055
 9345POPC   C4B48982  42.244  21.949   7.355
 9346POPC   NC348983  22.126  43.063   5.555
 9346POPC   PO448984  22.190  43.076   5.855
 9346POPC   GL148985  22.120  43.063   6.155
 9346POPC   GL248986  22.326  43.145   6.155
 9346POPC   C1A48987  22.179  43.113   6.455
 9346POPC   D2A48988  22.137  43.093   6.755
 9346POPC   C3A48989  22.132  43.075   7.055
 9346POPC   C4A48990  22.172  43.110   7.355
 9346POPC   C1B48991  22.364  43.132   6.455
 9346POPC   C2B48992  22.437  43.194   6.755
 9346POPC   C3B48993  22.364  43.172   7.055
 9346POPC   C4B48994  22.452  43.185   7.355
 9347POPC   NC348995   3.529  41.562   5.555
 9347POPC   PO448996   3.552  41.577   5.855
 9347POPC   GL148997   3.494  41.582   6.155
 9347POPC   GL248998   3.663  41.631   6.155
 9347POPC   C1A48999   3.504  41.602   6.455
 9347POPC   D2A49000   3.586  41.590   6.755
 9347POPC   C3A49001   3.570  41.527   7.055
 9347POPC   C4A49002   3.492  41.597   7.355
 9347POPC   C1B49003   3.777  41.703   6.455
 9347POPC   C2B49004   3.796  41.654   6.755
 9347POPC   C3B49005   3.730  41.620   7.055
 9347POPC   C4B49006   3.792  41.647   7.355
 9348POPC   NC349007  32.278  14.412   5.555
 9348POPC   PO449008  32.286  14.452   5.855
 9348POPC   GL149009  32.225  14.367   6.155
 9348POPC   GL249010  32.381  14.477   6.155
 9348POPC   C1A49011  32.213  14.398   6.455
 9348POPC   D2A49012  32.203  14.436   6.755
 9348POPC   C3A49013  32.280  14.444   7.055
 9348POPC   C4A49014  32.200  14.397   7.355
 9348POPC   C1B49015  32.527  14.458   6.455
 9348POPC   C2B49016  32.441  14.509   6.755
 9348POPC   C3B49017  32.480  14.456   7.055
 9348POPC   C4B49018  32.495  14.497   7.355
 9349POPC   NC349019  23.722  19.098   5.555
 9349POPC   PO449020  23.730  19.099   5.855
 9349POPC   GL149021  23.745  19.057   6.155
 9349POPC   GL249022  23.576  19.124   6.155
 9349POPC   C1A49023  23.683  19.056   6.455
 9349POPC   D2A49024  23.700  19.033   6.755
 9349POPC   C3A49025  23.756  19.014   7.055
 9349POPC   C4A49026  23.683  19.028   7.355
 9349POPC   C1B49027  23.540  19.224   6.455
 9349POPC   C2B49028  23.545  19.157   6.755
 9349POPC   C3B49029  23.457  19.150   7.055
 9349POPC   C4B49030  23.494  19.177   7.355
 9350POPC   NC349031  26.855   0.426   5.555
 9350POPC   PO449032  26.805   0.449   5.855
 9350POPC   GL149033  26.812   0.473   6.155
 9350POPC   GL249034  26.745   0.519   6.155
 9350POPC   C1A49035  26.832   0.485   6.455
 9350POPC   D2A49036  26.859   0.404   6.755
 9350POPC   C3A49037  26.829   0.455   7.055
 9350POPC   C4A49038  26.813   0.482   7.355
 9350POPC   C1B49039  26.655   0.631   6.455
 9350POPC   C2B49040  26.663   0.586   6.755
 9350POPC   C3B49041  26.652   0.661   7.055
 9350POPC   C4B49042  26.606   0.667   7.355
 9351POPC   NC349043  19.046  14.369   5.555
 9351POPC   PO449044  19.017  14.449   5.855
 9351POPC   GL149045  19.103  14.434   6.155
 9351POPC   GL249046  18.991  14.307   6.155
 9351POPC   C1A49047  19.091  14.384   6.455
 9351POPC   D2A49048  19.084  14.382   6.755
 9351POPC   C3A49049  19.047  14.400   7.055
 9351POPC   C4A49050  19.042  14.383   7.355
 9351POPC   C1B49051  18.901  14.186   6.455
 9351POPC   C2B49052  18.942  14.175   6.755
 9351POPC   C3B49053  18.952  14.197   7.055
 9351POPC   C4B49054  18.937  14.180   7.355
 9352POPC   NC349055  22.184   5.877   5.555
 9352POPC   PO449056  22.211   5.905   5.855
 9352POPC   GL149057  22.152   5.860   6.155
 9352POPC   GL249058  22.261   5.927   6.155
 9352POPC   C1A49059  22.152   5.917   6.455
 9352POPC   D2A49060  22.157   5.827   6.755
 9352POPC   C3A49061  22.123   5.852   7.055
 9352POPC   C4A49062  22.165   5.839   7.355
 9352POPC   C1B49063  22.282   6.063   6.455
 9352POPC   C2B49064  22.302   6.070   6.755
 9352POPC   C3B49065  22.280   6.103   7.055
 9352POPC   C4B49066  22.344   6.062   7.355
 9353POPC   NC349067  15.928   1.258   5.555
 9353POPC   PO449068  15.998   1.237   5.855
 9353POPC   GL149069  15.951   1.193   6.155
 9353POPC   GL249070  15.928   1.133   6.155
 9353POPC   C1A49071  15.996   1.252   6.455
 9353POPC   D2A49072  15.938   1.183   6.755
 9353POPC   C3A49073  15.988   1.249   7.055
 9353POPC   C4A49074  15.991   1.171   7.355
 9353POPC   C1B49075  15.951   0.967   6.455
 9353POPC   C2B49076  15.924   1.006   6.755
 9353POPC   C3B49077  15.979   1.004   7.055
 9353POPC   C4B49078  15.953   0.940   7.355
 9354POPC   NC349079   4.357  18.255   5.555
 9354POPC   PO449080   4.287  18.300   5.855
 9354POPC   GL149081   4.335  18.323   6.155
 9354POPC   GL249082   4.194  18.212   6.155
 9354POPC   C1A49083   4.323  18.291   6.455
 9354POPC   D2A49084   4.303  18.314   6.755
 9354POPC   C3A49085   4.348  18.251   7.055
 9354POPC   C4A49086   4.304  18.235   7.355
 9354POPC   C1B49087   4.050  18.220   6.455
 9354POPC   C2B49088   4.094  18.267   6.755
 9354POPC   C3B49089   4.090  18.228   7.055
 9354POPC   C4B49090   4.093  18.236   7.355
 9355POPC   NC349091  14.360   8.191   5.555
 9355POPC   PO449092  14.369   8.162   5.855
 9355POPC   GL149093  14.392   8.168   6.155
 9355POPC   GL249094  14.485   8.118   6.155
 9355POPC   C1A49095  14.416   8.228   6.455
 9355POPC   D2A49096  14.409   8.225   6.755
 9355POPC   C3A49097  14.423   8.204   7.055
 9355POPC   C4A49098  14.414   8.158   7.355
 9355POPC   C1B49099  14.533   7.924   6.455
 9355POPC   C2B49100  14.523   7.983   6.755
 9355POPC   C3B49101  14.485   7.928   7.055
 9355POPC   C4B49102  14.526   7.962   7.355
 9356POPC   NC349103  29.154  19.041   5.555
 9356POPC   PO449104  29.116  19.033   5.855
 9356POPC   GL149105  29.192  19.098   6.155
 9356POPC   GL249106  28.981  19.044   6.155
 9356POPC   C1A49107  29.170  19.066   6.455
 9356POPC   D2A49108  29.172  19.021   6.755
 9356POPC   C3A49109  29.162  19.029   7.055
 9356POPC   C4A49110  29.103  19.019   7.355
 9356POPC   C1B49111  28.909  19.076   6.455
 9356POPC   C2B49112  28.901  19.098   6.755
 9356POPC   C3B49113  28.899  19.106   7.055
 9356POPC   C4B49114  28.931  19.101   7.355
 9357POPC   NC349115  39.973  20.621   5.555
 9357POPC   PO449116  39.996  20.642   5.855
 9357POPC   GL149117  40.027  20.583   6.155
 9357POPC   GL249118  39.872  20.556   6.155
 9357POPC   C1A49119  40.046  20.634   6.455
 9357POPC   D2A49120  39.959  20.616   6.755
 9357POPC   C3A49121  39.982  20.598   7.055
 9357POPC   C4A49122  40.013  20.600   7.355
 9357POPC   C1B49123  39.784  20.454   6.455
 9357POPC   C2B49124  39.806  20.483   6.755
 9357POPC   C3B49125  39.787  20.460   7.055
 9357POPC   C4B49126  39.738  20.483   7.355
 9358POPC   NC349127  27.606  13.625   5.555
 9358POPC   PO449128  27.630  13.594   5.855
 9358POPC   GL149129  27.635  13.604   6.155
 9358POPC   GL249130  27.636  13.494   6.155
 9358POPC   C1A49131  27.547  13.609   6.455
 9358POPC   D2A49132  27.605  13.659   6.755
 9358POPC   C3A49133  27.597  13.631   7.055
 9358POPC   C4A49134  27.546  13.620   7.355
 9358POPC   C1B49135  27.605  13.362   6.455
 9358POPC   C2B49136  27.621  13.425   6.755
 9358POPC   C3B49137  27.621  13.401   7.055
 9358POPC   C4B49138  27.644  13.341   7.355
 9359POPC   NC349139  40.750  31.498   5.555
 9359POPC   PO449140  40.773  31.495   5.855
 9359POPC   GL149141  40.800  31.513   6.155
 9359POPC   GL249142  40.810  31.616   6.155
 9359POPC   C1A49143  40.804  31.449   6.455
 9359POPC   D2A49144  40.762  31.430   6.755
 9359POPC   C3A49145  40.824  31.504   7.055
 9359POPC   C4A49146  40.760  31.464   7.355
 9359POPC   C1B49147  40.776  31.760   6.455
 9359POPC   C2B49148  40.802  31.734   6.755
 9359POPC   C3B49149  40.866  31.731   7.055
 9359POPC   C4B49150  40.801  31.727   7.355
 9360POPC   NC349151  20.653  16.002   5.555
 9360POPC   PO449152  20.623  15.993   5.855
 9360POPC   GL149153  20.659  15.928   6.155
 9360POPC   GL249154  20.627  15.880   6.155
 9360POPC   C1A49155  20.594  15.986   6.455
 9360POPC   D2A49156  20.567  15.938   6.755
 9360POPC   C3A49157  20.590  15.973   7.055
 9360POPC   C4A49158  20.588  15.918   7.355
 9360POPC   C1B49159  20.594  15.682   6.455
 9360POPC   C2B49160  20.605  15.722   6.755
 9360POPC   C3B49161  20.605  15.715   7.055
 9360POPC   C4B49162  20.618  15.663   7.355
 9361POPC   NC349163  22.904   4.303   5.555
 9361POPC   PO449164  22.907   4.284   5.855
 9361POPC   GL149165  22.908   4.270   6.155
 9361POPC   GL249166  22.834   4.268   6.155
 9361POPC   C1A49167  22.922   4.293   6.455
 9361POPC   D2A49168  22.973   4.296   6.755
 9361POPC   C3A49169  22.948   4.306   7.055
 9361POPC   C4A49170  22.920   4.357   7.355
 9361POPC   C1B49171  22.676   4.351   6.455
 9361POPC   C2B49172  22.736   4.254   6.755
 9361POPC   C3B49173  22.677   4.283   7.055
 9361POPC   C4B49174  22.684   4.350   7.355
 9362POPC   NC349175  42.305   8.925   5.555
 9362POPC   PO449176  42.312   8.950   5.855
 9362POPC   GL149177  42.324   8.932   6.155
 9362POPC   GL249178  42.269   8.842   6.155
 9362POPC   C1A49179  42.333   8.943   6.455
 9362POPC   D2A49180  42.308   9.021   6.755
 9362POPC   C3A49181  42.319   8.993   7.055
 9362POPC   C4A49182  42.330   8.950   7.355
 9362POPC   C1B49183  42.251   8.777   6.455
 9362POPC   C2B49184  42.276   8.727   6.755
 9362POPC   C3B49185  42.268   8.780   7.055
 9362POPC   C4B49186  42.297   8.746   7.355
 9363POPC   NC349187  12.039  24.458   5.555
 9363POPC   PO449188  12.091  24.460   5.855
 9363POPC   GL149189  12.051  24.459   6.155
 9363POPC   GL249190  11.975  24.402   6.155
 9363POPC   C1A49191  12.074  24.475   6.455
 9363POPC   D2A49192  12.067  24.517   6.755
 9363POPC   C3A49193  12.054  24.502   7.055
 9363POPC   C4A49194  12.034  24.455   7.355
 9363POPC   C1B49195  11.916  24.268   6.455
 9363POPC   C2B49196  12.004  24.234   6.755
 9363POPC   C3B49197  11.975  24.301   7.055
 9363POPC   C4B49198  11.934  24.254   7.355
 9364POPC   NC349199  32.238   7.381   5.555
 9364POPC   PO449200  32.277   7.397   5.855
 9364POPC   GL149201  32.203   7.406   6.155
 9364POPC   GL249202  32.394   7.356   6.155
 9364POPC   C1A49203  32.275   7.381   6.455
 9364POPC   D2A49204  32.232   7.440   6.755
 9364POPC   C3A49205  32.248   7.434   7.055
 9364POPC   C4A49206  32.246   7.416   7.355
 9364POPC   C1B49207  32.440   7.231   6.455
 9364POPC   C2B49208  32.418   7.299   6.755
 9364POPC   C3B49209  32.434   7.258   7.055
 9364POPC   C4B49210  32.448   7.228   7.355
 9365POPC   NC349211   9.723   4.300   5.555
 9365POPC   PO449212   9.787   4.299   5.855
 9365POPC   GL149213   9.789   4.293   6.155
 9365POPC   GL249214   9.909   4.286   6.155
 9365POPC   C1A49215   9.735   4.332   6.455
 9365POPC   D2A49216   9.701   4.297   6.755
 9365POPC   C3A49217   9.780   4.315   7.055
 9365POPC   C4A49218   9.793   4.276   7.355
 9365POPC   C1B49219  10.033   4.255   6.455
 9365POPC   C2B49220   9.994   4.241   6.755
 9365POPC   C3B49221  10.006   4.245   7.055
 9365POPC   C4B49222   9.956   4.219   7.355
 9366POPC   NC349223  22.184  14.399   5.555
 9366POPC   PO449224  22.187  14.366   5.855
 9366POPC   GL149225  22.160  14.365   6.155
 9366POPC   GL249226  22.235  14.402   6.155
 9366POPC   C1A49227  22.117  14.397   6.455
 9366POPC   D2A49228  22.133  14.452   6.755
 9366POPC   C3A49229  22.191  14.438   7.055
 9366POPC   C4A49230  22.172  14.386   7.355
 9366POPC   C1B49231  22.413  14.442   6.455
 9366POPC   C2B49232  22.395  14.449   6.755
 9366POPC   C3B49233  22.365  14.423   7.055
 9366POPC   C4B49234  22.376  14.474   7.355
 9367POPC   NC349235  31.454  39.265   5.555
 9367POPC   PO449236  31.511  39.215   5.855
 9367POPC   GL149237  31.509  39.244   6.155
 9367POPC   GL249238  31.370  39.230   6.155
 9367POPC   C1A49239  31.476  39.248   6.455
 9367POPC   D2A49240  31.519  39.261   6.755
 9367POPC   C3A49241  31.513  39.233   7.055
 9367POPC   C4A49242  31.468  39.190   7.355
 9367POPC   C1B49243  31.183  39.246   6.455
 9367POPC   C2B49244  31.176  39.239   6.755
 9367POPC   C3B49245  31.265  39.185   7.055
 9367POPC   C4B49246  31.191  39.234   7.355
 9368POPC   NC349247  17.460  28.377   5.555
 9368POPC   PO449248  17.549  28.416   5.855
 9368POPC   GL149249  17.529  28.358   6.155
 9368POPC   GL249250  17.401  28.336   6.155
 9368POPC   C1A49251  17.497  28.391   6.455
 9368POPC   D2A49252  17.487  28.417   6.755
 9368POPC   C3A49253  17.475  28.372   7.055
 9368POPC   C4A49254  17.555  28.393   7.355
 9368POPC   C1B49255  17.318  28.195   6.455
 9368POPC   C2B49256  17.321  28.263   6.755
 9368POPC   C3B49257  17.322  28.188   7.055
 9368POPC   C4B49258  17.254  28.182   7.355
 9369POPC   NC349259   2.007  41.542   5.555
 9369POPC   PO449260   2.027  41.550   5.855
 9369POPC   GL149261   2.003  41.584   6.155
 9369POPC   GL249262   1.926  41.489   6.155
 9369POPC   C1A49263   1.949  41.527   6.455
 9369POPC   D2A49264   1.973  41.533   6.755
 9369POPC   C3A49265   1.964  41.532   7.055
 9369POPC   C4A49266   1.986  41.569   7.355
 9369POPC   C1B49267   1.832  41.388   6.455
 9369POPC   C2B49268   1.844  41.352   6.755
 9369POPC   C3B49269   1.891  41.296   7.055
 9369POPC   C4B49270   1.868  41.383   7.355
 9370POPC   NC349271   3.508  24.523   5.555
 9370POPC   PO449272   3.547  24.531   5.855
 9370POPC   GL149273   3.501  24.469   6.155
 9370POPC   GL249274   3.462  24.463   6.155
 9370POPC   C1A49275   3.584  24.488   6.455
 9370POPC   D2A49276   3.584  24.531   6.755
 9370POPC   C3A49277   3.535  24.495   7.055
 9370POPC   C4A49278   3.513  24.501   7.355
 9370POPC   C1B49279   3.329  24.462   6.455
 9370POPC   C2B49280   3.288  24.497   6.755
 9370POPC   C3B49281   3.329  24.505   7.055
 9370POPC   C4B49282   3.333  24.511   7.355
 9371POPC   NC349283  13.605  25.244   5.555
 9371POPC   PO449284  13.598  25.314   5.855
 9371POPC   GL149285  13.618  25.299   6.155
 9371POPC   GL249286  13.715  25.388   6.155
 9371POPC   C1A49287  13.598  25.279   6.455
 9371POPC   D2A49288  13.641  25.282   6.755
 9371POPC   C3A49289  13.635  25.220   7.055
 9371POPC   C4A49290  13.611  25.225   7.355
 9371POPC   C1B49291  13.717  25.462   6.455
 9371POPC   C2B49292  13.670  25.511   6.755
 9371POPC   C3B49293  13.734  25.479   7.055
 9371POPC   C4B49294  13.670  25.482   7.355
 9372POPC   NC349295  28.367  22.902   5.555
 9372POPC   PO449296  28.335  22.986   5.855
 9372POPC   GL149297  28.319  22.932   6.155
 9372POPC   GL249298  28.273  22.829   6.155
 9372POPC   C1A49299  28.322  22.890   6.455
 9372POPC   D2A49300  28.339  22.948   6.755
 9372POPC   C3A49301  28.373  22.961   7.055
 9372POPC   C4A49302  28.419  22.974   7.355
 9372POPC   C1B49303  28.256  22.769   6.455
 9372POPC   C2B49304  28.261  22.758   6.755
 9372POPC   C3B49305  28.168  22.767   7.055
 9372POPC   C4B49306  28.199  22.693   7.355
 9373POPC   NC349307   0.465  19.788   5.555
 9373POPC   PO449308   0.432  19.809   5.855
 9373POPC   GL149309   0.482  19.852   6.155
 9373POPC   GL249310   0.593  19.774   6.155
 9373POPC   C1A49311   0.407  19.873   6.455
 9373POPC   D2A49312   0.411  19.844   6.755
 9373POPC   C3A49313   0.420  19.787   7.055
 9373POPC   C4A49314   0.440  19.818   7.355
 9373POPC   C1B49315   0.661  19.687   6.455
 9373POPC   C2B49316   0.625  19.744   6.755
 9373POPC   C3B49317   0.630  19.659   7.055
 9373POPC   C4B49318   0.673  19.745   7.355
 9374POPC   NC349319   1.981  11.292   5.555
 9374POPC   PO449320   1.994  11.309   5.855
 9374POPC   GL149321   2.034  11.290   6.155
 9374POPC   GL249322   2.124  11.238   6.155
 9374POPC   C1A49323   1.983  11.315   6.455
 9374POPC   D2A49324   2.037  11.302   6.755
 9374POPC   C3A49325   1.997  11.304   7.055
 9374POPC   C4A49326   1.984  11.263   7.355
 9374POPC   C1B49327   2.235  11.208   6.455
 9374POPC   C2B49328   2.230  11.199   6.755
 9374POPC   C3B49329   2.172  11.149   7.055
 9374POPC   C4B49330   2.181  11.166   7.355
 9375POPC   NC349331  36.888  10.480   5.555
 9375POPC   PO449332  36.896  10.487   5.855
 9375POPC   GL149333  36.871  10.523   6.155
 9375POPC   GL249334  36.808  10.408   6.155
 9375POPC   C1A49335  36.858  10.506   6.455
 9375POPC   D2A49336  36.899  10.536   6.755
 9375POPC   C3A49337  36.873  10.503   7.055
 9375POPC   C4A49338  36.927  10.479   7.355
 9375POPC   C1B49339  36.709  10.331   6.455
 9375POPC   C2B49340  36.705  10.337   6.755
 9375POPC   C3B49341  36.717  10.356   7.055
 9375POPC   C4B49342  36.719  10.403   7.355
 9376POPC   NC349343  33.014  19.070   5.555
 9376POPC   PO449344  33.036  19.048   5.855
 9376POPC   GL149345  32.998  19.036   6.155
 9376POPC   GL249346  33.072  18.997   6.155
 9376POPC   C1A49347  33.034  19.095   6.455
 9376POPC   D2A49348  33.055  19.014   6.755
 9376POPC   C3A49349  33.036  19.076   7.055
 9376POPC   C4A49350  32.974  19.094   7.355
 9376POPC   C1B49351  33.197  18.888   6.455
 9376POPC   C2B49352  33.235  18.920   6.755
 9376POPC   C3B49353  33.161  18.882   7.055
 9376POPC   C4B49354  33.256  18.853   7.355
 9377POPC   NC349355   1.225  12.049   5.555
 9377POPC   PO449356   1.188  12.033   5.855
 9377POPC   GL149357   1.228  12.121   6.155
 9377POPC   GL249358   1.199  11.917   6.155
 9377POPC   C1A49359   1.250  12.123   6.455
 9377POPC   D2A49360   1.196  12.095   6.755
 9377POPC   C3A49361   1.206  12.083   7.055
 9377POPC   C4A49362   1.231  12.056   7.355
 9377POPC   C1B49363   1.128  11.841   6.455
 9377POPC   C2B49364   1.176  11.798   6.755
 9377POPC   C3B49365   1.156  11.790   7.055
 9377POPC   C4B49366   1.154  11.876   7.355
 9378POPC   NC349367  43.845  39.990   5.555
 9378POPC   PO449368  43.913  40.021   5.855
 9378POPC   GL149369  43.858  40.004   6.155
 9378POPC   GL249370  43.974  39.923   6.155
 9378POPC   C1A49371  43.901  40.007   6.455
 9378POPC   D2A49372  43.931  40.052   6.755
 9378POPC   C3A49373  43.920  40.000   7.055
 9378POPC   C4A49374  43.889  39.993   7.355
 9378POPC   C1B49375  44.121  39.897   6.455
 9378POPC   C2B49376  44.124  39.889   6.755
 9378POPC   C3B49377  44.146  39.895   7.055
 9378POPC   C4B49378  44.070  39.904   7.355
 9379POPC   NC349379  22.948  33.814   5.555
 9379POPC   PO449380  22.937  33.826   5.855
 9379POPC   GL149381  22.902  33.767   6.155
 9379POPC   GL249382  23.070  33.753   6.155
 9379POPC   C1A49383  22.900  33.783   6.455
 9379POPC   D2A49384  22.965  33.799   6.755
 9379POPC   C3A49385  22.930  33.826   7.055
 9379POPC   C4A49386  22.917  33.793   7.355
 9379POPC   C1B49387  23.123  33.590   6.455
 9379POPC   C2B49388  23.144  33.658   6.755
 9379POPC   C3B49389  23.160  33.621   7.055
 9379POPC   C4B49390  23.149  33.638   7.355
 9380POPC   NC349391  10.517  11.312   5.555
 9380POPC   PO449392  10.494  11.265   5.855
 9380POPC   GL149393  10.515  11.304   6.155
 9380POPC   GL249394  10.546  11.465   6.155
 9380POPC   C1A49395  10.556  11.339   6.455
 9380POPC   D2A49396  10.508  11.282   6.755
 9380POPC   C3A49397  10.520  11.261   7.055
 9380POPC   C4A49398  10.512  11.322   7.355
 9380POPC   C1B49399  10.535  11.537   6.455
 9380POPC   C2B49400  10.485  11.526   6.755
 9380POPC   C3B49401  10.561  11.528   7.055
 9380POPC   C4B49402  10.470  11.566   7.355
 9381POPC   NC349403  25.273  21.345   5.555
 9381POPC   PO449404  25.223  21.420   5.855
 9381POPC   GL149405  25.271  21.391   6.155
 9381POPC   GL249406  25.200  21.317   6.155
 9381POPC   C1A49407  25.259  21.348   6.455
 9381POPC   D2A49408  25.280  21.370   6.755
 9381POPC   C3A49409  25.269  21.407   7.055
 9381POPC   C4A49410  25.266  21.422   7.355
 9381POPC   C1B49411  25.119  21.244   6.455
 9381POPC   C2B49412  25.092  21.255   6.755
 9381POPC   C3B49413  25.070  21.226   7.055
 9381POPC   C4B49414  25.078  21.186   7.355
 9382POPC   NC349415  29.123  16.743   5.555
 9382POPC   PO449416  29.195  16.726   5.855
 9382POPC   GL149417  29.107  16.734   6.155
 9382POPC   GL249418  29.051  16.844   6.155
 9382POPC   C1A49419  29.163  16.735   6.455
 9382POPC   D2A49420  29.103  16.722   6.755
 9382POPC   C3A49421  29.185  16.694   7.055
 9382POPC   C4A49422  29.156  16.717   7.355
 9382POPC   C1B49423  29.033  16.930   6.455
 9382POPC   C2B49424  29.007  16.940   6.755
 9382POPC   C3B49425  29.000  16.976   7.055
 9382POPC   C4B49426  29.028  16.940   7.355
 9383POPC   NC349427   1.190  28.367   5.555
 9383POPC   PO449428   1.213  28.374   5.855
 9383POPC   GL149429   1.211  28.344   6.155
 9383POPC   GL249430   1.298  28.337   6.155
 9383POPC   C1A49431   1.223  28.372   6.455
 9383POPC   D2A49432   1.237  28.367   6.755
 9383POPC   C3A49433   1.176  28.365   7.055
 9383POPC   C4A49434   1.197  28.342   7.355
 9383POPC   C1B49435   1.441  28.387   6.455
 9383POPC   C2B49436   1.433  28.385   6.755
 9383POPC   C3B49437   1.426  28.436   7.055
 9383POPC   C4B49438   1.446  28.418   7.355
 9384POPC   NC349439  44.688  39.253   5.555
 9384POPC   PO449440  44.657  39.249   5.855
 9384POPC   GL149441  44.709  39.197   6.155
 9384POPC   GL249442  44.789  39.210   6.155
 9384POPC   C1A49443  44.665  39.191   6.455
 9384POPC   D2A49444  44.654  39.248   6.755
 9384POPC   C3A49445  44.644  39.216   7.055
 9384POPC   C4A49446  44.636  39.271   7.355
 9384POPC   C1B49447  44.867  39.219   6.455
 9384POPC   C2B49448  44.901  39.148   6.755
 9384POPC   C3B49449  44.884  39.226   7.055
 9384POPC   C4B49450  44.945  39.173   7.355
 9385POPC   NC349451  26.834  14.397   5.555
 9385POPC   PO449452  26.852  14.383   5.855
 9385POPC   GL149453  26.836  14.435   6.155
 9385POPC   GL249454  26.902  14.256   6.155
 9385POPC   C1A49455  26.834  14.414   6.455
 9385POPC   D2A49456  26.772  14.386   6.755
 9385POPC   C3A49457  26.853  14.416   7.055
 9385POPC   C4A49458  26.864  14.424   7.355
 9385POPC   C1B49459  26.988  14.222   6.455
 9385POPC   C2B49460  26.941  14.236   6.755
 9385POPC   C3B49461  26.980  14.173   7.055
 9385POPC   C4B49462  26.997  14.224   7.355
 9386POPC   NC349463  36.855  39.964   5.555
 9386POPC   PO449464  36.942  40.038   5.855
 9386POPC   GL149465  36.870  40.024   6.155
 9386POPC   GL249466  36.859  40.141   6.155
 9386POPC   C1A49467  36.949  39.980   6.455
 9386POPC   D2A49468  36.888  39.994   6.755
 9386POPC   C3A49469  36.921  40.047   7.055
 9386POPC   C4A49470  36.918  40.021   7.355
 9386POPC   C1B49471  36.834  40.225   6.455
 9386POPC   C2B49472  36.806  40.267   6.755
 9386POPC   C3B49473  36.785  40.189   7.055
 9386POPC   C4B49474  36.832  40.187   7.355
 9387POPC   NC349475  43.131  11.323   5.555
 9387POPC   PO449476  43.119  11.335   5.855
 9387POPC   GL149477  43.095  11.290   6.155
 9387POPC   GL249478  43.250  11.269   6.155
 9387POPC   C1A49479  43.069  11.264   6.455
 9387POPC   D2A49480  43.131  11.338   6.755
 9387POPC   C3A49481  43.062  11.304   7.055
 9387POPC   C4A49482  43.111  11.342   7.355
 9387POPC   C1B49483  43.340  11.167   6.455
 9387POPC   C2B49484  43.381  11.214   6.755
 9387POPC   C3B49485  43.366  11.233   7.055
 9387POPC   C4B49486  43.369  11.253   7.355
 9388POPC   NC349487  39.232  16.719   5.555
 9388POPC   PO449488  39.214  16.770   5.855
 9388POPC   GL149489  39.249  16.754   6.155
 9388POPC   GL249490  39.084  16.751   6.155
 9388POPC   C1A49491  39.256  16.727   6.455
 9388POPC   D2A49492  39.198  16.696   6.755
 9388POPC   C3A49493  39.195  16.707   7.055
 9388POPC   C4A49494  39.274  16.698   7.355
 9388POPC   C1B49495  38.957  16.795   6.455
 9388POPC   C2B49496  39.013  16.779   6.755
 9388POPC   C3B49497  38.993  16.806   7.055
 9388POPC   C4B49498  38.999  16.714   7.355
 9389POPC   NC349499   9.708  16.766   5.555
 9389POPC   PO449500   9.748  16.750   5.855
 9389POPC   GL149501   9.791  16.696   6.155
 9389POPC   GL249502   9.761  16.633   6.155
 9389POPC   C1A49503   9.789  16.713   6.455
 9389POPC   D2A49504   9.782  16.751   6.755
 9389POPC   C3A49505   9.778  16.735   7.055
 9389POPC   C4A49506   9.777  16.748   7.355
 9389POPC   C1B49507   9.813  16.509   6.455
 9389POPC   C2B49508   9.854  16.517   6.755
 9389POPC   C3B49509   9.817  16.517   7.055
 9389POPC   C4B49510   9.826  16.460   7.355
 9390POPC   NC349511  10.521  41.533   5.555
 9390POPC   PO449512  10.568  41.548   5.855
 9390POPC   GL149513  10.481  41.579   6.155
 9390POPC   GL249514  10.603  41.455   6.155
 9390POPC   C1A49515  10.543  41.515   6.455
 9390POPC   D2A49516  10.560  41.585   6.755
 9390POPC   C3A49517  10.543  41.562   7.055
 9390POPC   C4A49518  10.513  41.535   7.355
 9390POPC   C1B49519  10.587  41.294   6.455
 9390POPC   C2B49520  10.652  41.372   6.755
 9390POPC   C3B49521  10.580  41.343   7.055
 9390POPC   C4B49522  10.589  41.330   7.355
 9391POPC   NC349523  29.934   7.451   5.555
 9391POPC   PO449524  29.939   7.467   5.855
 9391POPC   GL149525  29.927   7.438   6.155
 9391POPC   GL249526  30.041   7.511   6.155
 9391POPC   C1A49527  29.958   7.438   6.455
 9391POPC   D2A49528  29.963   7.465   6.755
 9391POPC   C3A49529  29.955   7.409   7.055
 9391POPC   C4A49530  29.951   7.429   7.355
 9391POPC   C1B49531  30.168   7.536   6.455
 9391POPC   C2B49532  30.096   7.593   6.755
 9391POPC   C3B49533  30.090   7.532   7.055
 9391POPC   C4B49534  30.099   7.575   7.355
 9392POPC   NC349535  42.331   9.724   5.555
 9392POPC   PO449536  42.365   9.743   5.855
 9392POPC   GL149537  42.333   9.711   6.155
 9392POPC   GL249538  42.411   9.878   6.155
 9392POPC   C1A49539  42.316   9.737   6.455
 9392POPC   D2A49540  42.383   9.717   6.755
 9392POPC   C3A49541  42.297   9.767   7.055
 9392POPC   C4A49542  42.297   9.720   7.355
 9392POPC   C1B49543  42.466   9.925   6.455
 9392POPC   C2B49544  42.455   9.993   6.755
 9392POPC   C3B49545  42.488   9.944   7.055
 9392POPC   C4B49546  42.439   9.960   7.355
 9393POPC   NC349547  10.536  16.766   5.555
 9393POPC   PO449548  10.502  16.685   5.855
 9393POPC   GL149549  10.509  16.725   6.155
 9393POPC   GL249550  10.393  16.604   6.155
 9393POPC   C1A49551  10.481  16.713   6.455
 9393POPC   D2A49552  10.477  16.761   6.755
 9393POPC   C3A49553  10.527  16.686   7.055
 9393POPC   C4A49554  10.478  16.762   7.355
 9393POPC   C1B49555  10.405  16.592   6.455
 9393POPC   C2B49556  10.324  16.590   6.755
 9393POPC   C3B49557  10.350  16.552   7.055
 9393POPC   C4B49558  10.378  16.563   7.355
 9394POPC   NC349559   5.062   4.289   5.555
 9394POPC   PO449560   5.110   4.367   5.855
 9394POPC   GL149561   5.135   4.359   6.155
 9394POPC   GL249562   5.070   4.234   6.155
 9394POPC   C1A49563   5.108   4.277   6.455
 9394POPC   D2A49564   5.095   4.271   6.755
 9394POPC   C3A49565   5.088   4.289   7.055
 9394POPC   C4A49566   5.068   4.295   7.355
 9394POPC   C1B49567   4.955   4.110   6.455
 9394POPC   C2B49568   5.005   4.050   6.755
 9394POPC   C3B49569   4.986   4.098   7.055
 9394POPC   C4B49570   4.960   4.115   7.355
 9395POPC   NC349571   5.068  35.372   5.555
 9395POPC   PO449572   5.138  35.302   5.855
 9395POPC   GL149573   5.116  35.316   6.155
 9395POPC   GL249574   5.115  35.275   6.155
 9395POPC   C1A49575   5.119  35.310   6.455
 9395POPC   D2A49576   5.107  35.366   6.755
 9395POPC   C3A49577   5.142  35.307   7.055
 9395POPC   C4A49578   5.081  35.371   7.355
 9395POPC   C1B49579   5.160  35.064   6.455
 9395POPC   C2B49580   5.104  35.110   6.755
 9395POPC   C3B49581   5.155  35.111   7.055
 9395POPC   C4B49582   5.107  35.127   7.355
 9396POPC   NC349583  42.333  22.967   5.555
 9396POPC   PO449584  42.358  22.909   5.855
 9396POPC   GL149585  42.362  22.932   6.155
 9396POPC   GL249586  42.419  22.888   6.155
 9396POPC   C1A49587  42.359  22.901   6.455
 9396POPC   D2A49588  42.309  22.925   6.755
 9396POPC   C3A49589  42.310  22.942   7.055
 9396POPC   C4A49590  42.382  22.937   7.355
 9396POPC   C1B49591  42.578  22.854   6.455
 9396POPC   C2B49592  42.584  22.871   6.755
 9396POPC   C3B49593  42.589  22.908   7.055
 9396POPC   C4B49594  42.557  22.892   7.355
 9397POPC   NC349595  24.517  26.769   5.555
 9397POPC   PO449596  24.500  26.803   5.855
 9397POPC   GL149597  24.444  26.783   6.155
 9397POPC   GL249598  24.557  26.745   6.155
 9397POPC   C1A49599  24.511  26.796   6.455
 9397POPC   D2A49600  24.472  26.861   6.755
 9397POPC   C3A49601  24.502  26.801   7.055
 9397POPC   C4A49602  24.535  26.848   7.355
 9397POPC   C1B49603  24.644  26.623   6.455
 9397POPC   C2B49604  24.673  26.663   6.755
 9397POPC   C3B49605  24.657  26.629   7.055
 9397POPC   C4B49606  24.694  26.612   7.355
 9398POPC   NC349607  11.286  11.303   5.555
 9398POPC   PO449608  11.332  11.256   5.855
 9398POPC   GL149609  11.263  11.279   6.155
 9398POPC   GL249610  11.435  11.360   6.155
 9398POPC   C1A49611  11.315  11.327   6.455
 9398POPC   D2A49612  11.333  11.329   6.755
 9398POPC   C3A49613  11.304  11.291   7.055
 9398POPC   C4A49614  11.337  11.258   7.355
 9398POPC   C1B49615  11.557  11.417   6.455
 9398POPC   C2B49616  11.484  11.404   6.755
 9398POPC   C3B49617  11.461  11.407   7.055
 9398POPC   C4B49618  11.556  11.472   7.355
 9399POPC   NC349619  41.570   5.905   5.555
 9399POPC   PO449620  41.597   5.819   5.855
 9399POPC   GL149621  41.552   5.908   6.155
 9399POPC   GL249622  41.664   5.895   6.155
 9399POPC   C1A49623  41.533   5.845   6.455
 9399POPC   D2A49624  41.583   5.881   6.755
 9399POPC   C3A49625  41.517   5.832   7.055
 9399POPC   C4A49626  41.530   5.834   7.355
 9399POPC   C1B49627  41.822   5.853   6.455
 9399POPC   C2B49628  41.793   5.897   6.755
 9399POPC   C3B49629  41.844   5.864   7.055
 9399POPC   C4B49630  41.834   5.950   7.355
 9400POPC   NC349631   1.181  12.809   5.555
 9400POPC   PO449632   1.237  12.837   5.855
 9400POPC   GL149633   1.202  12.850   6.155
 9400POPC   GL249634   1.281  12.711   6.155
 9400POPC   C1A49635   1.216  12.889   6.455
 9400POPC   D2A49636   1.230  12.852   6.755
 9400POPC   C3A49637   1.175  12.853   7.055
 9400POPC   C4A49638   1.170  12.812   7.355
 9400POPC   C1B49639   1.422  12.646   6.455
 9400POPC   C2B49640   1.347  12.687   6.755
 9400POPC   C3B49641   1.374  12.662   7.055
 9400POPC   C4B49642   1.416  12.677   7.355
 9401POPC   NC349643  43.887  29.899   5.555
 9401POPC   PO449644  43.900  29.937   5.855
 9401POPC   GL149645  43.924  29.964   6.155
 9401POPC   GL249646  43.893  30.036   6.155
 9401POPC   C1A49647  43.908  29.896   6.455
 9401POPC   D2A49648  43.838  29.923   6.755
 9401POPC   C3A49649  43.916  29.965   7.055
 9401POPC   C4A49650  43.927  29.883   7.355
 9401POPC   C1B49651  43.872  30.152   6.455
 9401POPC   C2B49652  43.871  30.179   6.755
 9401POPC   C3B49653  43.853  30.207   7.055
 9401POPC   C4B49654  43.798  30.199   7.355
 9402POPC   NC349655  26.861  33.025   5.555
 9402POPC   PO449656  26.799  33.032   5.855
 9402POPC   GL149657  26.811  32.978   6.155
 9402POPC   GL249658  26.770  33.161   6.155
 9402POPC   C1A49659  26.772  33.042   6.455
 9402POPC   D2A49660  26.845  33.073   6.755
 9402POPC   C3A49661  26.816  33.041   7.055
 9402POPC   C4A49662  26.830  32.984   7.355
 9402POPC   C1B49663  26.744  33.234   6.455
 9402POPC   C2B49664  26.752  33.243   6.755
 9402POPC   C3B49665  26.754  33.226   7.055
 9402POPC   C4B49666  26.740  33.251   7.355
 9403POPC   NC349667  37.661  26.002   5.555
 9403POPC   PO449668  37.693  26.090   5.855
 9403POPC   GL149669  37.705  26.042   6.155
 9403POPC   GL249670  37.722  25.887   6.155
 9403POPC   C1A49671  37.635  26.077   6.455
 9403POPC   D2A49672  37.674  26.014   6.755
 9403POPC   C3A49673  37.655  26.044   7.055
 9403POPC   C4A49674  37.685  26.049   7.355
 9403POPC   C1B49675  37.786  25.768   6.455
 9403POPC   C2B49676  37.811  25.819   6.755
 9403POPC   C3B49677  37.755  25.850   7.055
 9403POPC   C4B49678  37.810  25.815   7.355
 9404POPC   NC349679  30.738  17.494   5.555
 9404POPC   PO449680  30.667  17.517   5.855
 9404POPC   GL149681  30.735  17.508   6.155
 9404POPC   GL249682  30.711  17.598   6.155
 9404POPC   C1A49683  30.725  17.509   6.455
 9404POPC   D2A49684  30.702  17.489   6.755
 9404POPC   C3A49685  30.716  17.551   7.055
 9404POPC   C4A49686  30.746  17.464   7.355
 9404POPC   C1B49687  30.793  17.789   6.455
 9404POPC   C2B49688  30.825  17.792   6.755
 9404POPC   C3B49689  30.767  17.758   7.055
 9404POPC   C4B49690  30.752  17.715   7.355
 9405POPC   NC349691  17.512  33.815   5.555
 9405POPC   PO449692  17.496  33.751   5.855
 9405POPC   GL149693  17.493  33.750   6.155
 9405POPC   GL249694  17.538  33.952   6.155
 9405POPC   C1A49695  17.546  33.829   6.455
 9405POPC   D2A49696  17.468  33.757   6.755
 9405POPC   C3A49697  17.465  33.753   7.055
 9405POPC   C4A49698  17.534  33.826   7.355
 9405POPC   C1B49699  17.645  33.990   6.455
 9405POPC   C2B49700  17.642  34.009   6.755
 9405POPC   C3B49701  17.633  34.030   7.055
 9405POPC   C4B49702  17.563  34.052   7.355
 9406POPC   NC349703   9.708   5.837   5.555
 9406POPC   PO449704   9.716   5.847   5.855
 9406POPC   GL149705   9.750   5.905   6.155
 9406POPC   GL249706   9.623   5.814   6.155
 9406POPC   C1A49707   9.772   5.859   6.455
 9406POPC   D2A49708   9.756   5.843   6.755
 9406POPC   C3A49709   9.746   5.882   7.055
 9406POPC   C4A49710   9.760   5.900   7.355
 9406POPC   C1B49711   9.553   5.740   6.455
 9406POPC   C2B49712   9.584   5.710   6.755
 9406POPC   C3B49713   9.488   5.701   7.055
 9406POPC   C4B49714   9.571   5.721   7.355
 9407POPC   NC349715  16.724  16.698   5.555
 9407POPC   PO449716  16.753  16.731   5.855
 9407POPC   GL149717  16.689  16.684   6.155
 9407POPC   GL249718  16.666  16.806   6.155
 9407POPC   C1A49719  16.724  16.774   6.455
 9407POPC   D2A49720  16.765  16.742   6.755
 9407POPC   C3A49721  16.723  16.687   7.055
 9407POPC   C4A49722  16.695  16.715   7.355
 9407POPC   C1B49723  16.515  16.883   6.455
 9407POPC   C2B49724  16.486  16.835   6.755
 9407POPC   C3B49725  16.544  16.816   7.055
 9407POPC   C4B49726  16.510  16.821   7.355
 9408POPC   NC349727  37.705  44.635   5.555
 9408POPC   PO449728  37.720  44.635   5.855
 9408POPC   GL149729  37.668  44.652   6.155
 9408POPC   GL249730  37.607  44.697   6.155
 9408POPC   C1A49731  37.704  44.648   6.455
 9408POPC   D2A49732  37.665  44.649   6.755
 9408POPC   C3A49733  37.705  44.661   7.055
 9408POPC   C4A49734  37.725  44.709   7.355
 9408POPC   C1B49735  37.491  44.800   6.455
 9408POPC   C2B49736  37.440  44.740   6.755
 9408POPC   C3B49737  37.412  44.769   7.055
 9408POPC   C4B49738  37.465  44.767   7.355
 9409POPC   NC349739  11.256  21.374   5.555
 9409POPC   PO449740  11.345  21.415   5.855
 9409POPC   GL149741  11.311  21.416   6.155
 9409POPC   GL249742  11.400  21.340   6.155
 9409POPC   C1A49743  11.250  21.364   6.455
 9409POPC   D2A49744  11.284  21.403   6.755
 9409POPC   C3A49745  11.323  21.340   7.055
 9409POPC   C4A49746  11.255  21.422   7.355
 9409POPC   C1B49747  11.549  21.271   6.455
 9409POPC   C2B49748  11.543  21.301   6.755
 9409POPC   C3B49749  11.489  21.272   7.055
 9409POPC   C4B49750  11.506  21.317   7.355
 9410POPC   NC349751  16.003  33.760   5.555
 9410POPC   PO449752  15.995  33.767   5.855
 9410POPC   GL149753  15.994  33.805   6.155
 9410POPC   GL249754  16.028  33.879   6.155
 9410POPC   C1A49755  15.939  33.815   6.455
 9410POPC   D2A49756  15.924  33.767   6.755
 9410POPC   C3A49757  15.938  33.810   7.055
 9410POPC   C4A49758  15.977  33.802   7.355
 9410POPC   C1B49759  16.145  33.836   6.455
 9410POPC   C2B49760  16.173  33.904   6.755
 9410POPC   C3B49761  16.179  33.855   7.055
 9410POPC   C4B49762  16.158  33.872   7.355
 9411POPC   NC349763  44.664  32.292   5.555
 9411POPC   PO449764  44.688  32.213   5.855
 9411POPC   GL149765  44.664  32.228   6.155
 9411POPC   GL249766  44.578  32.193   6.155
 9411POPC   C1A49767  44.654  32.246   6.455
 9411POPC   D2A49768  44.687  32.227   6.755
 9411POPC   C3A49769  44.711  32.276   7.055
 9411POPC   C4A49770  44.692  32.252   7.355
 9411POPC   C1B49771  44.407  32.180   6.455
 9411POPC   C2B49772  44.417  32.196   6.755
 9411POPC   C3B49773  44.386  32.200   7.055
 9411POPC   C4B49774  44.431  32.142   7.355
 9412POPC   NC349775  20.595  15.190   5.555
 9412POPC   PO449776  20.570  15.189   5.855
 9412POPC   GL149777  20.644  15.192   6.155
 9412POPC   GL249778  20.462  15.225   6.155
 9412POPC   C1A49779  20.589  15.210   6.455
 9412POPC   D2A49780  20.660  15.172   6.755
 9412POPC   C3A49781  20.606  15.175   7.055
 9412POPC   C4A49782  20.613  15.199   7.355
 9412POPC   C1B49783  20.391  15.317   6.455
 9412POPC   C2B49784  20.384  15.272   6.755
 9412POPC   C3B49785  20.380  15.328   7.055
 9412POPC   C4B49786  20.427  15.285   7.355
 9413POPC   NC349787  24.466  29.132   5.555
 9413POPC   PO449788  24.503  29.175   5.855
 9413POPC   GL149789  24.528  29.189   6.155
 9413POPC   GL249790  24.477  29.073   6.155
 9413POPC   C1A49791  24.518  29.190   6.455
 9413POPC   D2A49792  24.490  29.111   6.755
 9413POPC   C3A49793  24.514  29.142   7.055
 9413POPC   C4A49794  24.532  29.121   7.355
 9413POPC   C1B49795  24.384  28.897   6.455
 9413POPC   C2B49796  24.419  28.887   6.755
 9413POPC   C3B49797  24.409  28.937   7.055
 9413POPC   C4B49798  24.406  28.925   7.355
 9414POPC   NC349799  43.133  33.012   5.555
 9414POPC   PO449800  43.129  33.050   5.855
 9414POPC   GL149801  43.098  32.982   6.155
 9414POPC   GL249802  43.102  32.944   6.155
 9414POPC   C1A49803  43.121  32.990   6.455
 9414POPC   D2A49804  43.099  33.054   6.755
 9414POPC   C3A49805  43.097  33.024   7.055
 9414POPC   C4A49806  43.155  33.044   7.355
 9414POPC   C1B49807  43.114  32.747   6.455
 9414POPC   C2B49808  43.102  32.790   6.755
 9414POPC   C3B49809  43.076  32.782   7.055
 9414POPC   C4B49810  43.059  32.773   7.355
 9415POPC   NC349811  30.741  33.015   5.555
 9415POPC   PO449812  30.685  32.997   5.855
 9415POPC   GL149813  30.727  33.037   6.155
 9415POPC   GL249814  30.716  33.111   6.155
 9415POPC   C1A49815  30.718  33.059   6.455
 9415POPC   D2A49816  30.709  33.012   6.755
 9415POPC   C3A49817  30.685  32.993   7.055
 9415POPC   C4A49818  30.717  33.055   7.355
 9415POPC   C1B49819  30.754  33.311   6.455
 9415POPC   C2B49820  30.719  33.243   6.755
 9415POPC   C3B49821  30.771  33.249   7.055
 9415POPC   C4B49822  30.685  33.281   7.355
 9416POPC   NC349823  26.825   5.908   5.555
 9416POPC   PO449824  26.864   5.878   5.855
 9416POPC   GL149825  26.821   5.902   6.155
 9416POPC   GL249826  26.907   5.715   6.155
 9416POPC   C1A49827  26.827   5.860   6.455
 9416POPC   D2A49828  26.863   5.853   6.755
 9416POPC   C3A49829  26.774   5.840   7.055
 9416POPC   C4A49830  26.825   5.871   7.355
 9416POPC   C1B49831  26.880   5.603   6.455
 9416POPC   C2B49832  26.868   5.615   6.755
 9416POPC   C3B49833  26.866   5.618   7.055
 9416POPC   C4B49834  26.867   5.614   7.355
 9417POPC   NC349835  18.309  43.919   5.555
 9417POPC   PO449836  18.246  43.838   5.855
 9417POPC   GL149837  18.262  43.844   6.155
 9417POPC   GL249838  18.261  43.799   6.155
 9417POPC   C1A49839  18.243  43.924   6.455
 9417POPC   D2A49840  18.256  43.865   6.755
 9417POPC   C3A49841  18.241  43.858   7.055
 9417POPC   C4A49842  18.287  43.885   7.355
 9417POPC   C1B49843  18.219  43.643   6.455
 9417POPC   C2B49844  18.196  43.661   6.755
 9417POPC   C3B49845  18.238  43.664   7.055
 9417POPC   C4B49846  18.157  43.679   7.355
 9418POPC   NC349847  29.155  36.937   5.555
 9418POPC   PO449848  29.157  36.929   5.855
 9418POPC   GL149849  29.112  36.864   6.155
 9418POPC   GL249850  29.130  36.742   6.155
 9418POPC   C1A49851  29.175  36.928   6.455
 9418POPC   D2A49852  29.101  36.942   6.755
 9418POPC   C3A49853  29.145  36.914   7.055
 9418POPC   C4A49854  29.104  36.942   7.355
 9418POPC   C1B49855  29.119  36.626   6.455
 9418POPC   C2B49856  29.146  36.691   6.755
 9418POPC   C3B49857  29.112  36.628   7.055
 9418POPC   C4B49858  29.187  36.613   7.355
 9419POPC   NC349859   5.098  26.825   5.555
 9419POPC   PO449860   5.098  26.842   5.855
 9419POPC   GL149861   5.113  26.836   6.155
 9419POPC   GL249862   5.137  26.949   6.155
 9419POPC   C1A49863   5.072  26.772   6.455
 9419POPC   D2A49864   5.045  26.783   6.755
 9419POPC   C3A49865   5.062  26.785   7.055
 9419POPC   C4A49866   5.129  26.776   7.355
 9419POPC   C1B49867   5.231  27.087   6.455
 9419POPC   C2B49868   5.173  27.058   6.755
 9419POPC   C3B49869   5.187  27.017   7.055
 9419POPC   C4B49870   5.214  27.097   7.355
 9420POPC   NC349871   1.993  40.770   5.555
 9420POPC   PO449872   2.008  40.769   5.855
 9420POPC   GL149873   2.006  40.827   6.155
 9420POPC   GL249874   2.096  40.690   6.155
 9420POPC   C1A49875   1.987  40.830   6.455
 9420POPC   D2A49876   2.012  40.763   6.755
 9420POPC   C3A49877   1.961  40.765   7.055
 9420POPC   C4A49878   1.979  40.761   7.355
 9420POPC   C1B49879   2.258  40.645   6.455
 9420POPC   C2B49880   2.248  40.621   6.755
 9420POPC   C3B49881   2.246  40.662   7.055
 9420POPC   C4B49882   2.236  40.674   7.355
 9421POPC   NC349883   9.003  25.305   5.555
 9421POPC   PO449884   8.934  25.230   5.855
 9421POPC   GL149885   8.938  25.287   6.155
 9421POPC   GL249886   8.884  25.312   6.155
 9421POPC   C1A49887   8.945  25.299   6.455
 9421POPC   D2A49888   8.931  25.229   6.755
 9421POPC   C3A49889   9.020  25.281   7.055
 9421POPC   C4A49890   8.926  25.216   7.355
 9421POPC   C1B49891   8.775  25.399   6.455
 9421POPC   C2B49892   8.736  25.429   6.755
 9421POPC   C3B49893   8.752  25.423   7.055
 9421POPC   C4B49894   8.762  25.431   7.355
 9422POPC   NC349895  11.318  35.344   5.555
 9422POPC   PO449896  11.347  35.367   5.855
 9422POPC   GL149897  11.269  35.315   6.155
 9422POPC   GL249898  11.216  35.476   6.155
 9422POPC   C1A49899  11.274  35.372   6.455
 9422POPC   D2A49900  11.312  35.303   6.755
 9422POPC   C3A49901  11.273  35.389   7.055
 9422POPC   C4A49902  11.348  35.307   7.355
 9422POPC   C1B49903  11.175  35.564   6.455
 9422POPC   C2B49904  11.169  35.624   6.755
 9422POPC   C3B49905  11.159  35.590   7.055
 9422POPC   C4B49906  11.170  35.614   7.355
 9423POPC   NC349907  23.731  18.290   5.555
 9423POPC   PO449908  23.678  18.245   5.855
 9423POPC   GL149909  23.689  18.235   6.155
 9423POPC   GL249910  23.733  18.147   6.155
 9423POPC   C1A49911  23.743  18.327   6.455
 9423POPC   D2A49912  23.699  18.292   6.755
 9423POPC   C3A49913  23.670  18.310   7.055
 9423POPC   C4A49914  23.715  18.312   7.355
 9423POPC   C1B49915  23.842  18.033   6.455
 9423POPC   C2B49916  23.816  18.001   6.755
 9423POPC   C3B49917  23.820  18.048   7.055
 9423POPC   C4B49918  23.822  18.094   7.355
 9424POPC   NC349919  39.990  43.852   5.555
 9424POPC   PO449920  39.958  43.876   5.855
 9424POPC   GL149921  39.962  43.859   6.155
 9424POPC   GL249922  40.104  43.893   6.155
 9424POPC   C1A49923  40.044  43.871   6.455
 9424POPC   D2A49924  39.978  43.923   6.755
 9424POPC   C3A49925  39.981  43.887   7.055
 9424POPC   C4A49926  40.018  43.872   7.355
 9424POPC   C1B49927  40.216  43.975   6.455
 9424POPC   C2B49928  40.244  43.981   6.755
 9424POPC   C3B49929  40.246  43.964   7.055
 9424POPC   C4B49930  40.203  43.910   7.355
 9425POPC   NC349931  35.309  22.983   5.555
 9425POPC   PO449932  35.306  22.959   5.855
 9425POPC   GL149933  35.390  22.917   6.155
 9425POPC   GL249934  35.236  23.002   6.155
 9425POPC   C1A49935  35.396  22.926   6.455
 9425POPC   D2A49936  35.312  22.979   6.755
 9425POPC   C3A49937  35.319  22.972   7.055
 9425POPC   C4A49938  35.347  22.951   7.355
 9425POPC   C1B49939  35.193  23.133   6.455
 9425POPC   C2B49940  35.225  23.148   6.755
 9425POPC   C3B49941  35.207  23.182   7.055
 9425POPC   C4B49942  35.238  23.113   7.355
 9426POPC   NC349943   8.982  15.908   5.555
 9426POPC   PO449944   8.980  15.942   5.855
 9426POPC   GL149945   9.016  15.959   6.155
 9426POPC   GL249946   8.834  15.884   6.155
 9426POPC   C1A49947   8.936  15.950   6.455
 9426POPC   D2A49948   8.958  15.991   6.755
 9426POPC   C3A49949   8.983  15.998   7.055
 9426POPC   C4A49950   8.996  15.985   7.355
 9426POPC   C1B49951   8.749  15.809   6.455
 9426POPC   C2B49952   8.745  15.842   6.755
 9426POPC   C3B49953   8.784  15.773   7.055
 9426POPC   C4B49954   8.817  15.805   7.355
 9427POPC   NC349955  13.624  38.437   5.555
 9427POPC   PO449956  13.620  38.440   5.855
 9427POPC   GL149957  13.645  38.409   6.155
 9427POPC   GL249958  13.658  38.296   6.155
 9427POPC   C1A49959  13.653  38.427   6.455
 9427POPC   D2A49960  13.638  38.423   6.755
 9427POPC   C3A49961  13.676  38.428   7.055
 9427POPC   C4A49962  13.632  38.444   7.355
 9427POPC   C1B49963  13.611  38.187   6.455
 9427POPC   C2B49964  13.663  38.182   6.755
 9427POPC   C3B49965  13.634  38.244   7.055
 9427POPC   C4B49966  13.622  38.183   7.355
 9428POPC   NC349967   3.497   2.755   5.555
 9428POPC   PO449968   3.507   2.753   5.855
 9428POPC   GL149969   3.562   2.770   6.155
 9428POPC   GL249970   3.443   2.808   6.155
 9428POPC   C1A49971   3.517   2.729   6.455
 9428POPC   D2A49972   3.517   2.737   6.755
 9428POPC   C3A49973   3.582   2.803   7.055
 9428POPC   C4A49974   3.580   2.789   7.355
 9428POPC   C1B49975   3.258   2.795   6.455
 9428POPC   C2B49976   3.339   2.785   6.755
 9428POPC   C3B49977   3.272   2.811   7.055
 9428POPC   C4B49978   3.255   2.818   7.355
 9429POPC   NC349979   9.017  27.558   5.555
 9429POPC   PO449980   8.986  27.614   5.855
 9429POPC   GL149981   9.014  27.636   6.155
 9429POPC   GL249982   9.098  27.588   6.155
 9429POPC   C1A49983   8.926  27.623   6.455
 9429POPC   D2A49984   8.923  27.593   6.755
 9429POPC   C3A49985   8.959  27.600   7.055
 9429POPC   C4A49986   8.978  27.629   7.355
 9429POPC   C1B49987   9.172  27.562   6.455
 9429POPC   C2B49988   9.231  27.541   6.755
 9429POPC   C3B49989   9.183  27.571   7.055
 9429POPC   C4B49990   9.259  27.543   7.355
 9430POPC   NC349991  18.283  38.450   5.555
 9430POPC   PO449992  18.278  38.426   5.855
 9430POPC   GL149993  18.312  38.471   6.155
 9430POPC   GL249994  18.192  38.360   6.155
 9430POPC   C1A49995  18.319  38.423   6.455
 9430POPC   D2A49996  18.294  38.465   6.755
 9430POPC   C3A49997  18.302  38.428   7.055
 9430POPC   C4A49998  18.295  38.432   7.355
 9430POPC   C1B49999  18.223  38.210   6.455
 9430POPC   C2B50000  18.142  38.181   6.755
 9430POPC   C3B50001  18.196  38.185   7.055
 9430POPC   C4B50002  18.199  38.215   7.355
 9431POPC   NC350003  19.870  12.877   5.555
 9431POPC   PO450004  19.827  12.857   5.855
 9431POPC   GL150005  19.879  12.856   6.155
 9431POPC   GL250006  19.826  12.787   6.155
 9431POPC   C1A50007  19.836  12.871   6.455
 9431POPC   D2A50008  19.828  12.886   6.755
 9431POPC   C3A50009  19.860  12.833   7.055
 9431POPC   C4A50010  19.798  12.826   7.355
 9431POPC   C1B50011  19.777  12.650   6.455
 9431POPC   C2B50012  19.703  12.584   6.755
 9431POPC   C3B50013  19.732  12.662   7.055
 9431POPC   C4B50014  19.751  12.632   7.355
 9432POPC   NC350015  32.289  19.810   5.555
 9432POPC   PO450016  32.202  19.797   5.855
 9432POPC   GL150017  32.206  19.811   6.155
 9432POPC   GL250018  32.350  19.872   6.155
 9432POPC   C1A50019  32.199  19.834   6.455
 9432POPC   D2A50020  32.284  19.807   6.755
 9432POPC   C3A50021  32.214  19.874   7.055
 9432POPC   C4A50022  32.237  19.851   7.355
 9432POPC   C1B50023  32.508  19.907   6.455
 9432POPC   C2B50024  32.450  19.879   6.755
 9432POPC   C3B50025  32.513  19.960   7.055
 9432POPC   C4B50026  32.453  19.888   7.355
 9433POPC   NC350027  10.501   5.051   5.555
 9433POPC   PO450028  10.498   5.135   5.855
 9433POPC   GL150029  10.560   5.083   6.155
 9433POPC   GL250030  10.445   4.937   6.155
 9433POPC   C1A50031  10.556   5.051   6.455
 9433POPC   D2A50032  10.555   5.141   6.755
 9433POPC   C3A50033  10.516   5.124   7.055
 9433POPC   C4A50034  10.552   5.122   7.355
 9433POPC   C1B50035  10.455   4.824   6.455
 9433POPC   C2B50036  10.446   4.911   6.755
 9433POPC   C3B50037  10.413   4.885   7.055
 9433POPC   C4B50038  10.383   4.896   7.355
 9434POPC   NC350039  44.655  10.571   5.555
 9434POPC   PO450040  44.680  10.531   5.855
 9434POPC   GL150041  44.706  10.510   6.155
 9434POPC   GL250042  44.752  10.452   6.155
 9434POPC   C1A50043  44.668  10.537   6.455
 9434POPC   D2A50044  44.649  10.526   6.755
 9434POPC   C3A50045  44.625  10.480   7.055
 9434POPC   C4A50046  44.635  10.505   7.355
 9434POPC   C1B50047  44.908  10.509   6.455
 9434POPC   C2B50048  44.874  10.513   6.755
 9434POPC   C3B50049  44.885  10.434   7.055
 9434POPC   C4B50050  44.948  10.464   7.355
 9435POPC   NC350051  38.423  15.189   5.555
 9435POPC   PO450052  38.478  15.204   5.855
 9435POPC   GL150053  38.431  15.153   6.155
 9435POPC   GL250054  38.589  15.194   6.155
 9435POPC   C1A50055  38.475  15.183   6.455
 9435POPC   D2A50056  38.475  15.160   6.755
 9435POPC   C3A50057  38.465  15.183   7.055
 9435POPC   C4A50058  38.504  15.144   7.355
 9435POPC   C1B50059  38.691  15.080   6.455
 9435POPC   C2B50060  38.661  15.136   6.755
 9435POPC   C3B50061  38.658  15.107   7.055
 9435POPC   C4B50062  38.671  15.162   7.355
 9436POPC   NC350063  26.810  27.593   5.555
 9436POPC   PO450064  26.782  27.574   5.855
 9436POPC   GL150065  26.769  27.613   6.155
 9436POPC   GL250066  26.795  27.738   6.155
 9436POPC   C1A50067  26.830  27.636   6.455
 9436POPC   D2A50068  26.805  27.628   6.755
 9436POPC   C3A50069  26.809  27.554   7.055
 9436POPC   C4A50070  26.797  27.557   7.355
 9436POPC   C1B50071  26.670  27.789   6.455
 9436POPC   C2B50072  26.698  27.765   6.755
 9436POPC   C3B50073  26.734  27.852   7.055
 9436POPC   C4B50074  26.696  27.776   7.355
 9437POPC   NC350075   1.963  39.968   5.555
 9437POPC   PO450076   1.989  39.959   5.855
 9437POPC   GL150077   1.990  40.022   6.155
 9437POPC   GL250078   2.099  40.120   6.155
 9437POPC   C1A50079   2.006  39.992   6.455
 9437POPC   D2A50080   2.000  40.048   6.755
 9437POPC   C3A50081   1.977  40.056   7.055
 9437POPC   C4A50082   1.986  40.014   7.355
 9437POPC   C1B50083   2.157  40.183   6.455
 9437POPC   C2B50084   2.146  40.244   6.755
 9437POPC   C3B50085   2.086  40.203   7.055
 9437POPC   C4B50086   2.075  40.215   7.355
 9438POPC   NC350087  43.113  34.528   5.555
 9438POPC   PO450088  43.121  34.596   5.855
 9438POPC   GL150089  43.095  34.562   6.155
 9438POPC   GL250090  43.233  34.716   6.155
 9438POPC   C1A50091  43.078  34.598   6.455
 9438POPC   D2A50092  43.088  34.567   6.755
 9438POPC   C3A50093  43.136  34.595   7.055
 9438POPC   C4A50094  43.115  34.621   7.355
 9438POPC   C1B50095  43.251  34.797   6.455
 9438POPC   C2B50096  43.277  34.791   6.755
 9438POPC   C3B50097  43.317  34.808   7.055
 9438POPC   C4B50098  43.271  34.768   7.355
 9439POPC   NC350099  27.577   2.016   5.555
 9439POPC   PO450100  27.622   2.030   5.855
 9439POPC   GL150101  27.562   2.009   6.155
 9439POPC   GL250102  27.635   1.833   6.155
 9439POPC   C1A50103  27.629   1.956   6.455
 9439POPC   D2A50104  27.548   1.959   6.755
 9439POPC   C3A50105  27.599   1.964   7.055
 9439POPC   C4A50106  27.606   1.992   7.355
 9439POPC   C1B50107  27.637   1.777   6.455
 9439POPC   C2B50108  27.592   1.731   6.755
 9439POPC   C3B50109  27.620   1.698   7.055
 9439POPC   C4B50110  27.583   1.715   7.355
 9440POPC   NC350111  27.550  25.248   5.555
 9440POPC   PO450112  27.636  25.288   5.855
 9440POPC   GL150113  27.632  25.289   6.155
 9440POPC   GL250114  27.495  25.285   6.155
 9440POPC   C1A50115  27.604  25.231   6.455
 9440POPC   D2A50116  27.610  25.309   6.755
 9440POPC   C3A50117  27.563  25.274   7.055
 9440POPC   C4A50118  27.568  25.302   7.355
 9440POPC   C1B50119  27.342  25.358   6.455
 9440POPC   C2B50120  27.333  25.379   6.755
 9440POPC   C3B50121  27.381  25.300   7.055
 9440POPC   C4B50122  27.393  25.330   7.355
 9441POPC   NC350123  44.698  15.956   5.555
 9441POPC   PO450124  44.708  15.998   5.855
 9441POPC   GL150125  44.638  15.928   6.155
 9441POPC   GL250126  44.566  15.864   6.155
 9441POPC   C1A50127  44.657  16.000   6.455
 9441POPC   D2A50128  44.668  15.953   6.755
 9441POPC   C3A50129  44.621  15.992   7.055
 9441POPC   C4A50130  44.673  15.924   7.355
 9441POPC   C1B50131  44.506  15.741   6.455
 9441POPC   C2B50132  44.510  15.751   6.755
 9441POPC   C3B50133  44.543  15.759   7.055
 9441POPC   C4B50134  44.511  15.794   7.355
 9442POPC   NC350135  17.557  43.106   5.555
 9442POPC   PO450136  17.554  43.087   5.855
 9442POPC   GL150137  17.475  43.101   6.155
 9442POPC   GL250138  17.404  43.064   6.155
 9442POPC   C1A50139  17.526  43.087   6.455
 9442POPC   D2A50140  17.525  43.104   6.755
 9442POPC   C3A50141  17.473  43.115   7.055
 9442POPC   C4A50142  17.499  43.070   7.355
 9442POPC   C1B50143  17.222  43.012   6.455
 9442POPC   C2B50144  17.304  43.035   6.755
 9442POPC   C3B50145  17.300  43.047   7.055
 9442POPC   C4B50146  17.243  43.086   7.355
 9443POPC   NC350147  23.709   3.517   5.555
 9443POPC   PO450148  23.666   3.579   5.855
 9443POPC   GL150149  23.674   3.531   6.155
 9443POPC   GL250150  23.647   3.580   6.155
 9443POPC   C1A50151  23.712   3.542   6.455
 9443POPC   D2A50152  23.666   3.492   6.755
 9443POPC   C3A50153  23.703   3.589   7.055
 9443POPC   C4A50154  23.760   3.527   7.355
 9443POPC   C1B50155  23.471   3.679   6.455
 9443POPC   C2B50156  23.491   3.629   6.755
 9443POPC   C3B50157  23.489   3.648   7.055
 9443POPC   C4B50158  23.478   3.714   7.355
 9444POPC   NC350159  33.846   3.559   5.555
 9444POPC   PO450160  33.822   3.494   5.855
 9444POPC   GL150161  33.791   3.515   6.155
 9444POPC   GL250162  33.928   3.442   6.155
 9444POPC   C1A50163  33.766   3.494   6.455
 9444POPC   D2A50164  33.819   3.520   6.755
 9444POPC   C3A50165  33.786   3.519   7.055
 9444POPC   C4A50166  33.795   3.539   7.355
 9444POPC   C1B50167  34.037   3.414   6.455
 9444POPC   C2B50168  33.975   3.374   6.755
 9444POPC   C3B50169  34.048   3.398   7.055
 9444POPC   C4B50170  34.032   3.378   7.355
 9445POPC   NC350171   8.161  42.359   5.555
 9445POPC   PO450172   8.167  42.356   5.855
 9445POPC   GL150173   8.232  42.300   6.155
 9445POPC   GL250174   8.336  42.363   6.155
 9445POPC   C1A50175   8.207  42.336   6.455
 9445POPC   D2A50176   8.222  42.376   6.755
 9445POPC   C3A50177   8.157  42.371   7.055
 9445POPC   C4A50178   8.213  42.298   7.355
 9445POPC   C1B50179   8.454  42.363   6.455
 9445POPC   C2B50180   8.436  42.352   6.755
 9445POPC   C3B50181   8.491  42.341   7.055
 9445POPC   C4B50182   8.431  42.369   7.355
 9446POPC   NC350183  43.092  17.509   5.555
 9446POPC   PO450184  43.138  17.521   5.855
 9446POPC   GL150185  43.146  17.507   6.155
 9446POPC   GL250186  43.098  17.379   6.155
 9446POPC   C1A50187  43.095  17.497   6.455
 9446POPC   D2A50188  43.136  17.511   6.755
 9446POPC   C3A50189  43.104  17.474   7.055
 9446POPC   C4A50190  43.082  17.524   7.355
 9446POPC   C1B50191  43.077  17.284   6.455
 9446POPC   C2B50192  43.057  17.300   6.755
 9446POPC   C3B50193  43.053  17.217   7.055
 9446POPC   C4B50194  43.076  17.267   7.355
 9447POPC   NC350195  26.796  29.160   5.555
 9447POPC   PO450196  26.861  29.159   5.855
 9447POPC   GL150197  26.774  29.140   6.155
 9447POPC   GL250198  26.944  29.248   6.155
 9447POPC   C1A50199  26.837  29.134   6.455
 9447POPC   D2A50200  26.774  29.110   6.755
 9447POPC   C3A50201  26.781  29.117   7.055
 9447POPC   C4A50202  26.862  29.099   7.355
 9447POPC   C1B50203  27.053  29.321   6.455
 9447POPC   C2B50204  26.986  29.239   6.755
 9447POPC   C3B50205  27.021  29.292   7.055
 9447POPC   C4B50206  27.050  29.287   7.355
 9448POPC   NC350207   5.867   2.749   5.555
 9448POPC   PO450208   5.821   2.813   5.855
 9448POPC   GL150209   5.866   2.787   6.155
 9448POPC   GL250210   5.989   2.869   6.155
 9448POPC   C1A50211   5.826   2.727   6.455
 9448POPC   D2A50212   5.860   2.728   6.755
 9448POPC   C3A50213   5.853   2.791   7.055
 9448POPC   C4A50214   5.832   2.808   7.355
 9448POPC   C1B50215   6.026   2.961   6.455
 9448POPC   C2B50216   6.036   2.945   6.755
 9448POPC   C3B50217   6.092   2.963   7.055
 9448POPC   C4B50218   6.078   2.933   7.355
 9449POPC   NC350219  16.758  31.446   5.555
 9449POPC   PO450220  16.688  31.444   5.855
 9449POPC   GL150221  16.731  31.502   6.155
 9449POPC   GL250222  16.902  31.453   6.155
 9449POPC   C1A50223  16.770  31.451   6.455
 9449POPC   D2A50224  16.719  31.481   6.755
 9449POPC   C3A50225  16.701  31.426   7.055
 9449POPC   C4A50226  16.761  31.428   7.355
 9449POPC   C1B50227  16.997  31.549   6.455
 9449POPC   C2B50228  16.933  31.504   6.755
 9449POPC   C3B50229  16.970  31.492   7.055
 9449POPC   C4B50230  17.023  31.542   7.355
 9450POPC   NC350231  27.577  34.545   5.555
 9450POPC   PO450232  27.557  34.552   5.855
 9450POPC   GL150233  27.642  34.539   6.155
 9450POPC   GL250234  27.696  34.660   6.155
 9450POPC   C1A50235  27.621  34.593   6.455
 9450POPC   D2A50236  27.609  34.607   6.755
 9450POPC   C3A50237  27.630  34.528   7.055
 9450POPC   C4A50238  27.608  34.552   7.355
 9450POPC   C1B50239  27.813  34.746   6.455
 9450POPC   C2B50240  27.775  34.725   6.755
 9450POPC   C3B50241  27.833  34.669   7.055
 9450POPC   C4B50242  27.845  34.730   7.355
 9451POPC   NC350243  35.334  13.578   5.555
 9451POPC   PO450244  35.338  13.597   5.855
 9451POPC   GL150245  35.346  13.662   6.155
 9451POPC   GL250246  35.407  13.591   6.155
 9451POPC   C1A50247  35.388  13.589   6.455
 9451POPC   D2A50248  35.361  13.616   6.755
 9451POPC   C3A50249  35.344  13.585   7.055
 9451POPC   C4A50250  35.338  13.614   7.355
 9451POPC   C1B50251  35.575  13.451   6.455
 9451POPC   C2B50252  35.524  13.457   6.755
 9451POPC   C3B50253  35.554  13.476   7.055
 9451POPC   C4B50254  35.580  13.514   7.355
 9452POPC   NC350255  36.152  32.283   5.555
 9452POPC   PO450256  36.136  32.207   5.855
 9452POPC   GL150257  36.114  32.237   6.155
 9452POPC   GL250258  36.293  32.229   6.155
 9452POPC   C1A50259  36.100  32.255   6.455
 9452POPC   D2A50260  36.106  32.281   6.755
 9452POPC   C3A50261  36.176  32.275   7.055
 9452POPC   C4A50262  36.079  32.247   7.355
 9452POPC   C1B50263  36.358  32.200   6.455
 9452POPC   C2B50264  36.386  32.133   6.755
 9452POPC   C3B50265  36.382  32.156   7.055
 9452POPC   C4B50266  36.317  32.167   7.355
 9453POPC   NC350267   0.429  42.359   5.555
 9453POPC   PO450268   0.400  42.367   5.855
 9453POPC   GL150269   0.390  42.319   6.155
 9453POPC   GL250270   0.528  42.404   6.155
 9453POPC   C1A50271   0.451  42.314   6.455
 9453POPC   D2A50272   0.398  42.358   6.755
 9453POPC   C3A50273   0.469  42.313   7.055
 9453POPC   C4A50274   0.448  42.334   7.355
 9453POPC   C1B50275   0.622  42.401   6.455
 9453POPC   C2B50276   0.690  42.488   6.755
 9453POPC   C3B50277   0.641  42.433   7.055
 9453POPC   C4B50278   0.673  42.471   7.355
 9454POPC   NC350279  34.587  24.441   5.555
 9454POPC   PO450280  34.563  24.472   5.855
 9454POPC   GL150281  34.540  24.530   6.155
 9454POPC   GL250282  34.520  24.388   6.155
 9454POPC   C1A50283  34.625  24.493   6.455
 9454POPC   D2A50284  34.611  24.488   6.755
 9454POPC   C3A50285  34.609  24.496   7.055
 9454POPC   C4A50286  34.599  24.441   7.355
 9454POPC   C1B50287  34.443  24.317   6.455
 9454POPC   C2B50288  34.364  24.333   6.755
 9454POPC   C3B50289  34.378  24.336   7.055
 9454POPC   C4B50290  34.370  24.340   7.355
 9455POPC   NC350291   5.897  28.390   5.555
 9455POPC   PO450292   5.888  28.358   5.855
 9455POPC   GL150293   5.850  28.380   6.155
 9455POPC   GL250294   5.967  28.278   6.155
 9455POPC   C1A50295   5.849  28.328   6.455
 9455POPC   D2A50296   5.831  28.322   6.755
 9455POPC   C3A50297   5.867  28.330   7.055
 9455POPC   C4A50298   5.833  28.350   7.355
 9455POPC   C1B50299   5.930  28.162   6.455
 9455POPC   C2B50300   5.927  28.119   6.755
 9455POPC   C3B50301   5.944  28.122   7.055
 9455POPC   C4B50302   5.943  28.175   7.355
 9456POPC   NC350303  28.335   1.958   5.555
 9456POPC   PO450304  28.408   2.019   5.855
 9456POPC   GL150305  28.333   1.995   6.155
 9456POPC   GL250306  28.316   1.913   6.155
 9456POPC   C1A50307  28.382   1.998   6.455
 9456POPC   D2A50308  28.344   1.978   6.755
 9456POPC   C3A50309  28.412   1.951   7.055
 9456POPC   C4A50310  28.415   2.013   7.355
 9456POPC   C1B50311  28.257   1.703   6.455
 9456POPC   C2B50312  28.265   1.781   6.755
 9456POPC   C3B50313  28.344   1.719   7.055
 9456POPC   C4B50314  28.350   1.796   7.355
 9457POPC   NC350315   9.723  36.141   5.555
 9457POPC   PO450316   9.765  36.081   5.855
 9457POPC   GL150317   9.775  36.150   6.155
 9457POPC   GL250318   9.769  36.294   6.155
 9457POPC   C1A50319   9.780  36.172   6.455
 9457POPC   D2A50320   9.707  36.176   6.755
 9457POPC   C3A50321   9.789  36.108   7.055
 9457POPC   C4A50322   9.763  36.135   7.355
 9457POPC   C1B50323   9.864  36.413   6.455
 9457POPC   C2B50324   9.783  36.393   6.755
 9457POPC   C3B50325   9.814  36.367   7.055
 9457POPC   C4B50326   9.835  36.408   7.355
 9458POPC   NC350327  40.813  30.655   5.555
 9458POPC   PO450328  40.774  30.735   5.855
 9458POPC   GL150329  40.783  30.647   6.155
 9458POPC   GL250330  40.677  30.680   6.155
 9458POPC   C1A50331  40.745  30.745   6.455
 9458POPC   D2A50332  40.780  30.669   6.755
 9458POPC   C3A50333  40.828  30.654   7.055
 9458POPC   C4A50334  40.829  30.735   7.355
 9458POPC   C1B50335  40.521  30.673   6.455
 9458POPC   C2B50336  40.492  30.702   6.755
 9458POPC   C3B50337  40.497  30.684   7.055
 9458POPC   C4B50338  40.496  30.737   7.355
 9459POPC   NC350339   8.951  26.039   5.555
 9459POPC   PO450340   9.017  26.063   5.855
 9459POPC   GL150341   8.985  26.026   6.155
 9459POPC   GL250342   9.085  26.099   6.155
 9459POPC   C1A50343   9.006  26.025   6.455
 9459POPC   D2A50344   8.992  26.086   6.755
 9459POPC   C3A50345   8.928  26.048   7.055
 9459POPC   C4A50346   8.942  26.039   7.355
 9459POPC   C1B50347   9.120  26.184   6.455
 9459POPC   C2B50348   9.136  26.245   6.755
 9459POPC   C3B50349   9.116  26.232   7.055
 9459POPC   C4B50350   9.179  26.178   7.355
 9460POPC   NC350351   9.795  23.732   5.555
 9460POPC   PO450352   9.763  23.730   5.855
 9460POPC   GL150353   9.704  23.760   6.155
 9460POPC   GL250354   9.769  23.555   6.155
 9460POPC   C1A50355   9.731  23.696   6.455
 9460POPC   D2A50356   9.750  23.732   6.755
 9460POPC   C3A50357   9.794  23.704   7.055
 9460POPC   C4A50358   9.771  23.682   7.355
 9460POPC   C1B50359   9.849  23.485   6.455
 9460POPC   C2B50360   9.817  23.442   6.755
 9460POPC   C3B50361   9.846  23.460   7.055
 9460POPC   C4B50362   9.812  23.468   7.355
 9461POPC   NC350363  11.333   5.822   5.555
 9461POPC   PO450364  11.309   5.876   5.855
 9461POPC   GL150365  11.345   5.847   6.155
 9461POPC   GL250366  11.368   5.945   6.155
 9461POPC   C1A50367  11.286   5.828   6.455
 9461POPC   D2A50368  11.333   5.827   6.755
 9461POPC   C3A50369  11.302   5.834   7.055
 9461POPC   C4A50370  11.313   5.845   7.355
 9461POPC   C1B50371  11.553   6.002   6.455
 9461POPC   C2B50372  11.498   6.038   6.755
 9461POPC   C3B50373  11.502   5.952   7.055
 9461POPC   C4B50374  11.523   6.030   7.355
 9462POPC   NC350375  29.887  36.887   5.555
 9462POPC   PO450376  29.969  36.859   5.855
 9462POPC   GL150377  29.906  36.882   6.155
 9462POPC   GL250378  30.059  36.935   6.155
 9462POPC   C1A50379  29.958  36.890   6.455
 9462POPC   D2A50380  29.938  36.948   6.755
 9462POPC   C3A50381  29.932  36.893   7.055
 9462POPC   C4A50382  29.900  36.927   7.355
 9462POPC   C1B50383  30.174  36.989   6.455
 9462POPC   C2B50384  30.117  36.967   6.755
 9462POPC   C3B50385  30.135  37.023   7.055
 9462POPC   C4B50386  30.180  36.934   7.355
 9463POPC   NC350387   3.492  34.591   5.555
 9463POPC   PO450388   3.568  34.536   5.855
 9463POPC   GL150389   3.496  34.541   6.155
 9463POPC   GL250390   3.616  34.647   6.155
 9463POPC   C1A50391   3.531  34.580   6.455
 9463POPC   D2A50392   3.492  34.617   6.755
 9463POPC   C3A50393   3.528  34.588   7.055
 9463POPC   C4A50394   3.542  34.615   7.355
 9463POPC   C1B50395   3.694  34.776   6.455
 9463POPC   C2B50396   3.685  34.779   6.755
 9463POPC   C3B50397   3.640  34.778   7.055
 9463POPC   C4B50398   3.642  34.752   7.355
 9464POPC   NC350399  19.852  43.131   5.555
 9464POPC   PO450400  19.797  43.152   5.855
 9464POPC   GL150401  19.807  43.086   6.155
 9464POPC   GL250402  19.757  43.167   6.155
 9464POPC   C1A50403  19.819  43.121   6.455
 9464POPC   D2A50404  19.802  43.140   6.755
 9464POPC   C3A50405  19.791  43.116   7.055
 9464POPC   C4A50406  19.852  43.156   7.355
 9464POPC   C1B50407  19.623  43.297   6.455
 9464POPC   C2B50408  19.608  43.277   6.755
 9464POPC   C3B50409  19.596  43.307   7.055
 9464POPC   C4B50410  19.600  43.249   7.355
 9465POPC   NC350411   9.004  26.827   5.555
 9465POPC   PO450412   8.985  26.860   5.855
 9465POPC   GL150413   9.019  26.809   6.155
 9465POPC   GL250414   9.076  26.817   6.155
 9465POPC   C1A50415   8.997  26.840   6.455
 9465POPC   D2A50416   8.928  26.780   6.755
 9465POPC   C3A50417   8.980  26.813   7.055
 9465POPC   C4A50418   8.944  26.863   7.355
 9465POPC   C1B50419   9.171  26.710   6.455
 9465POPC   C2B50420   9.173  26.777   6.755
 9465POPC   C3B50421   9.178  26.745   7.055
 9465POPC   C4B50422   9.220  26.755   7.355
 9466POPC   NC350423  41.548  10.555   5.555
 9466POPC   PO450424  41.561  10.529   5.855
 9466POPC   GL150425  41.567  10.507   6.155
 9466POPC   GL250426  41.630  10.631   6.155
 9466POPC   C1A50427  41.547  10.528   6.455
 9466POPC   D2A50428  41.577  10.540   6.755
 9466POPC   C3A50429  41.530  10.516   7.055
 9466POPC   C4A50430  41.525  10.538   7.355
 9466POPC   C1B50431  41.666  10.725   6.455
 9466POPC   C2B50432  41.632  10.783   6.755
 9466POPC   C3B50433  41.642  10.712   7.055
 9466POPC   C4B50434  41.622  10.774   7.355
 9467POPC   NC350435  33.760  42.302   5.555
 9467POPC   PO450436  33.791  42.384   5.855
 9467POPC   GL150437  33.783  42.356   6.155
 9467POPC   GL250438  33.856  42.379   6.155
 9467POPC   C1A50439  33.778  42.351   6.455
 9467POPC   D2A50440  33.755  42.321   6.755
 9467POPC   C3A50441  33.770  42.380   7.055
 9467POPC   C4A50442  33.788  42.353   7.355
 9467POPC   C1B50443  34.048  42.460   6.455
 9467POPC   C2B50444  34.022  42.430   6.755
 9467POPC   C3B50445  34.048  42.456   7.055
 9467POPC   C4B50446  34.054  42.483   7.355
 9468POPC   NC350447  36.855  17.543   5.555
 9468POPC   PO450448  36.950  17.487   5.855
 9468POPC   GL150449  36.941  17.476   6.155
 9468POPC   GL250450  36.847  17.596   6.155
 9468POPC   C1A50451  36.889  17.550   6.455
 9468POPC   D2A50452  36.938  17.541   6.755
 9468POPC   C3A50453  36.897  17.554   7.055
 9468POPC   C4A50454  36.918  17.555   7.355
 9468POPC   C1B50455  36.718  17.641   6.455
 9468POPC   C2B50456  36.711  17.681   6.755
 9468POPC   C3B50457  36.721  17.637   7.055
 9468POPC   C4B50458  36.696  17.665   7.355
 9469POPC   NC350459  32.987   0.424   5.555
 9469POPC   PO450460  33.035   0.403   5.855
 9469POPC   GL150461  33.015   0.469   6.155
 9469POPC   GL250462  33.129   0.481   6.155
 9469POPC   C1A50463  32.981   0.418   6.455
 9469POPC   D2A50464  32.978   0.389   6.755
 9469POPC   C3A50465  32.977   0.484   7.055
 9469POPC   C4A50466  33.002   0.409   7.355
 9469POPC   C1B50467  33.250   0.588   6.455
 9469POPC   C2B50468  33.214   0.542   6.755
 9469POPC   C3B50469  33.259   0.596   7.055
 9469POPC   C4B50470  33.279   0.580   7.355
 9470POPC   NC350471   4.269  30.731   5.555
 9470POPC   PO450472   4.269  30.734   5.855
 9470POPC   GL150473   4.331  30.727   6.155
 9470POPC   GL250474   4.470  30.651   6.155
 9470POPC   C1A50475   4.296  30.648   6.455
 9470POPC   D2A50476   4.343  30.659   6.755
 9470POPC   C3A50477   4.362  30.677   7.055
 9470POPC   C4A50478   4.359  30.711   7.355
 9470POPC   C1B50479   4.568  30.639   6.455
 9470POPC   C2B50480   4.529  30.622   6.755
 9470POPC   C3B50481   4.612  30.647   7.055
 9470POPC   C4B50482   4.606  30.674   7.355
 9471POPC   NC350483  13.581  43.066   5.555
 9471POPC   PO450484  13.622  43.074   5.855
 9471POPC   GL150485  13.673  43.078   6.155
 9471POPC   GL250486  13.685  43.049   6.155
 9471POPC   C1A50487  13.610  43.086   6.455
 9471POPC   D2A50488  13.610  43.118   6.755
 9471POPC   C3A50489  13.652  43.133   7.055
 9471POPC   C4A50490  13.614  43.122   7.355
 9471POPC   C1B50491  13.824  42.984   6.455
 9471POPC   C2B50492  13.792  42.914   6.755
 9471POPC   C3B50493  13.774  42.987   7.055
 9471POPC   C4B50494  13.849  42.947   7.355
 9472POPC   NC350495   8.149   8.148   5.555
 9472POPC   PO450496   8.209   8.238   5.855
 9472POPC   GL150497   8.189   8.158   6.155
 9472POPC   GL250498   8.165   8.295   6.155
 9472POPC   C1A50499   8.177   8.214   6.455
 9472POPC   D2A50500   8.221   8.168   6.755
 9472POPC   C3A50501   8.223   8.220   7.055
 9472POPC   C4A50502   8.166   8.230   7.355
 9472POPC   C1B50503   8.140   8.395   6.455
 9472POPC   C2B50504   8.170   8.413   6.755
 9472POPC   C3B50505   8.164   8.450   7.055
 9472POPC   C4B50506   8.133   8.487   7.355
 9473POPC   NC350507  19.093  40.749   5.555
 9473POPC   PO450508  19.045  40.759   5.855
 9473POPC   GL150509  19.078  40.775   6.155
 9473POPC   GL250510  19.013  40.946   6.155
 9473POPC   C1A50511  19.081  40.755   6.455
 9473POPC   D2A50512  19.060  40.813   6.755
 9473POPC   C3A50513  19.066  40.802   7.055
 9473POPC   C4A50514  19.085  40.829   7.355
 9473POPC   C1B50515  18.997  41.034   6.455
 9473POPC   C2B50516  19.078  41.010   6.755
 9473POPC   C3B50517  19.038  41.064   7.055
 9473POPC   C4B50518  19.083  41.035   7.355
 9474POPC   NC350519  40.761  12.071   5.555
 9474POPC   PO450520  40.799  12.116   5.855
 9474POPC   GL150521  40.820  12.102   6.155
 9474POPC   GL250522  40.795  12.003   6.155
 9474POPC   C1A50523  40.760  12.033   6.455
 9474POPC   D2A50524  40.821  12.069   6.755
 9474POPC   C3A50525  40.741  12.030   7.055
 9474POPC   C4A50526  40.770  12.113   7.355
 9474POPC   C1B50527  40.881  11.848   6.455
 9474POPC   C2B50528  40.870  11.836   6.755
 9474POPC   C3B50529  40.827  11.868   7.055
 9474POPC   C4B50530  40.848  11.858   7.355
 9475POPC   NC350531   3.549   5.909   5.555
 9475POPC   PO450532   3.556   5.853   5.855
 9475POPC   GL150533   3.544   5.917   6.155
 9475POPC   GL250534   3.408   5.869   6.155
 9475POPC   C1A50535   3.515   5.831   6.455
 9475POPC   D2A50536   3.518   5.841   6.755
 9475POPC   C3A50537   3.554   5.844   7.055
 9475POPC   C4A50538   3.516   5.861   7.355
 9475POPC   C1B50539   3.279   5.808   6.455
 9475POPC   C2B50540   3.316   5.836   6.755
 9475POPC   C3B50541   3.328   5.796   7.055
 9475POPC   C4B50542   3.287   5.772   7.355
 9476POPC   NC350543  44.654  16.685   5.555
 9476POPC   PO450544  44.696  16.726   5.855
 9476POPC   GL150545  44.634  16.683   6.155
 9476POPC   GL250546  44.570  16.648   6.155
 9476POPC   C1A50547  44.656  16.743   6.455
 9476POPC   D2A50548  44.647  16.707   6.755
 9476POPC   C3A50549  44.645  16.768   7.055
 9476POPC   C4A50550  44.622  16.703   7.355
 9476POPC   C1B50551  44.530  16.517   6.455
 9476POPC   C2B50552  44.521  16.567   6.755
 9476POPC   C3B50553  44.562  16.535   7.055
 9476POPC   C4B50554  44.572  16.527   7.355
 9477POPC   NC350555   0.478  35.353   5.555
 9477POPC   PO450556   0.430  35.303   5.855
 9477POPC   GL150557   0.400  35.378   6.155
 9477POPC   GL250558   0.367  35.252   6.155
 9477POPC   C1A50559   0.450  35.345   6.455
 9477POPC   D2A50560   0.437  35.393   6.755
 9477POPC   C3A50561   0.427  35.382   7.055
 9477POPC   C4A50562   0.467  35.323   7.355
 9477POPC   C1B50563   0.238  35.154   6.455
 9477POPC   C2B50564   0.261  35.149   6.755
 9477POPC   C3B50565   0.294  35.120   7.055
 9477POPC   C4B50566   0.287  35.128   7.355
 9478POPC   NC350567   7.464   9.719   5.555
 9478POPC   PO450568   7.463   9.729   5.855
 9478POPC   GL150569   7.399   9.737   6.155
 9478POPC   GL250570   7.551   9.638   6.155
 9478POPC   C1A50571   7.373   9.731   6.455
 9478POPC   D2A50572   7.435   9.731   6.755
 9478POPC   C3A50573   7.410   9.781   7.055
 9478POPC   C4A50574   7.425   9.748   7.355
 9478POPC   C1B50575   7.618   9.523   6.455
 9478POPC   C2B50576   7.637   9.572   6.755
 9478POPC   C3B50577   7.566   9.562   7.055
 9478POPC   C4B50578   7.623   9.584   7.355
 9479POPC   NC350579  24.474  18.284   5.555
 9479POPC   PO450580  24.508  18.287   5.855
 9479POPC   GL150581  24.449  18.317   6.155
 9479POPC   GL250582  24.606  18.288   6.155
 9479POPC   C1A50583  24.469  18.244   6.455
 9479POPC   D2A50584  24.459  18.316   6.755
 9479POPC   C3A50585  24.440  18.237   7.055
 9479POPC   C4A50586  24.519  18.262   7.355
 9479POPC   C1B50587  24.765  18.328   6.455
 9479POPC   C2B50588  24.723  18.352   6.755
 9479POPC   C3B50589  24.690  18.384   7.055
 9479POPC   C4B50590  24.697  18.355   7.355
 9480POPC   NC350591  30.711  32.252   5.555
 9480POPC   PO450592  30.713  32.269   5.855
 9480POPC   GL150593  30.659  32.248   6.155
 9480POPC   GL250594  30.567  32.161   6.155
 9480POPC   C1A50595  30.719  32.280   6.455
 9480POPC   D2A50596  30.687  32.255   6.755
 9480POPC   C3A50597  30.727  32.278   7.055
 9480POPC   C4A50598  30.653  32.270   7.355
 9480POPC   C1B50599  30.447  32.173   6.455
 9480POPC   C2B50600  30.442  32.173   6.755
 9480POPC   C3B50601  30.493  32.159   7.055
 9480POPC   C4B50602  30.481  32.115   7.355
 9481POPC   NC350603  25.290  14.412   5.555
 9481POPC   PO450604  25.304  14.450   5.855
 9481POPC   GL150605  25.283  14.396   6.155
 9481POPC   GL250606  25.299  14.484   6.155
 9481POPC   C1A50607  25.243  14.428   6.455
 9481POPC   D2A50608  25.224  14.360   6.755
 9481POPC   C3A50609  25.243  14.445   7.055
 9481POPC   C4A50610  25.290  14.398   7.355
 9481POPC   C1B50611  25.358  14.573   6.455
 9481POPC   C2B50612  25.409  14.593   6.755
 9481POPC   C3B50613  25.407  14.657   7.055
 9481POPC   C4B50614  25.404  14.635   7.355
 9482POPC   NC350615  36.124   2.008   5.555
 9482POPC   PO450616  36.090   1.994   5.855
 9482POPC   GL150617  36.143   1.988   6.155
 9482POPC   GL250618  36.109   2.073   6.155
 9482POPC   C1A50619  36.102   1.966   6.455
 9482POPC   D2A50620  36.174   1.972   6.755
 9482POPC   C3A50621  36.174   1.961   7.055
 9482POPC   C4A50622  36.137   1.984   7.355
 9482POPC   C1B50623  36.058   2.288   6.455
 9482POPC   C2B50624  36.054   2.282   6.755
 9482POPC   C3B50625  36.060   2.212   7.055
 9482POPC   C4B50626  36.081   2.255   7.355
 9483POPC   NC350627  43.115  26.801   5.555
 9483POPC   PO450628  43.147  26.784   5.855
 9483POPC   GL150629  43.149  26.794   6.155
 9483POPC   GL250630  43.207  26.841   6.155
 9483POPC   C1A50631  43.069  26.833   6.455
 9483POPC   D2A50632  43.122  26.840   6.755
 9483POPC   C3A50633  43.136  26.795   7.055
 9483POPC   C4A50634  43.102  26.770   7.355
 9483POPC   C1B50635  43.277  26.961   6.455
 9483POPC   C2B50636  43.294  26.995   6.755
 9483POPC   C3B50637  43.302  26.962   7.055
 9483POPC   C4B50638  43.322  26.976   7.355
 9484POPC   NC350639  28.399   5.839   5.555
 9484POPC   PO450640  28.388   5.902   5.855
 9484POPC   GL150641  28.332   5.904   6.155
 9484POPC   GL250642  28.346   5.733   6.155
 9484POPC   C1A50643  28.412   5.910   6.455
 9484POPC   D2A50644  28.369   5.824   6.755
 9484POPC   C3A50645  28.334   5.839   7.055
 9484POPC   C4A50646  28.417   5.909   7.355
 9484POPC   C1B50647  28.421   5.625   6.455
 9484POPC   C2B50648  28.372   5.599   6.755
 9484POPC   C3B50649  28.419   5.647   7.055
 9484POPC   C4B50650  28.378   5.595   7.355
 9485POPC   NC350651   6.680  34.573   5.555
 9485POPC   PO450652   6.630  34.584   5.855
 9485POPC   GL150653   6.619  34.590   6.155
 9485POPC   GL250654   6.518  34.468   6.155
 9485POPC   C1A50655   6.598  34.607   6.455
 9485POPC   D2A50656   6.672  34.562   6.755
 9485POPC   C3A50657   6.661  34.547   7.055
 9485POPC   C4A50658   6.693  34.553   7.355
 9485POPC   C1B50659   6.520  34.396   6.455
 9485POPC   C2B50660   6.459  34.432   6.755
 9485POPC   C3B50661   6.496  34.387   7.055
 9485POPC   C4B50662   6.508  34.407   7.355
 9486POPC   NC350663  24.534   2.736   5.555
 9486POPC   PO450664  24.446   2.758   5.855
 9486POPC   GL150665  24.507   2.746   6.155
 9486POPC   GL250666  24.426   2.670   6.155
 9486POPC   C1A50667  24.485   2.796   6.455
 9486POPC   D2A50668  24.456   2.721   6.755
 9486POPC   C3A50669  24.477   2.719   7.055
 9486POPC   C4A50670  24.470   2.800   7.355
 9486POPC   C1B50671  24.401   2.518   6.455
 9486POPC   C2B50672  24.397   2.556   6.755
 9486POPC   C3B50673  24.399   2.518   7.055
 9486POPC   C4B50674  24.437   2.533   7.355
 9487POPC   NC350675  25.227  36.911   5.555
 9487POPC   PO450676  25.263  36.950   5.855
 9487POPC   GL150677  25.294  36.900   6.155
 9487POPC   GL250678  25.144  36.886   6.155
 9487POPC   C1A50679  25.290  36.884   6.455
 9487POPC   D2A50680  25.267  36.857   6.755
 9487POPC   C3A50681  25.221  36.922   7.055
 9487POPC   C4A50682  25.263  36.918   7.355
 9487POPC   C1B50683  25.014  36.771   6.455
 9487POPC   C2B50684  25.028  36.823   6.755
 9487POPC   C3B50685  25.038  36.856   7.055
 9487POPC   C4B50686  25.030  36.832   7.355
 9488POPC   NC350687   5.838  14.426   5.555
 9488POPC   PO450688   5.897  14.382   5.855
 9488POPC   GL150689   5.837  14.389   6.155
 9488POPC   GL250690   5.797  14.368   6.155
 9488POPC   C1A50691   5.870  14.393   6.455
 9488POPC   D2A50692   5.905  14.447   6.755
 9488POPC   C3A50693   5.916  14.414   7.055
 9488POPC   C4A50694   5.847  14.356   7.355
 9488POPC   C1B50695   5.652  14.295   6.455
 9488POPC   C2B50696   5.671  14.332   6.755
 9488POPC   C3B50697   5.643  14.321   7.055
 9488POPC   C4B50698   5.671  14.304   7.355
 9489POPC   NC350699  30.711  15.175   5.555
 9489POPC   PO450700  30.693  15.207   5.855
 9489POPC   GL150701  30.698  15.150   6.155
 9489POPC   GL250702  30.550  15.108   6.155
 9489POPC   C1A50703  30.711  15.165   6.455
 9489POPC   D2A50704  30.699  15.215   6.755
 9489POPC   C3A50705  30.663  15.154   7.055
 9489POPC   C4A50706  30.683  15.219   7.355
 9489POPC   C1B50707  30.466  15.124   6.455
 9489POPC   C2B50708  30.447  15.128   6.755
 9489POPC   C3B50709  30.466  15.139   7.055
 9489POPC   C4B50710  30.420  15.120   7.355
 9490POPC   NC350711  20.562  37.708   5.555
 9490POPC   PO450712  20.642  37.674   5.855
 9490POPC   GL150713  20.618  37.630   6.155
 9490POPC   GL250714  20.549  37.519   6.155
 9490POPC   C1A50715  20.647  37.665   6.455
 9490POPC   D2A50716  20.652  37.708   6.755
 9490POPC   C3A50717  20.575  37.672   7.055
 9490POPC   C4A50718  20.642  37.669   7.355
 9490POPC   C1B50719  20.531  37.444   6.455
 9490POPC   C2B50720  20.577  37.445   6.755
 9490POPC   C3B50721  20.542  37.443   7.055
 9490POPC   C4B50722  20.579  37.450   7.355
 9491POPC   NC350723  40.749   5.099   5.555
 9491POPC   PO450724  40.827   5.106   5.855
 9491POPC   GL150725  40.733   5.068   6.155
 9491POPC   GL250726  40.914   5.155   6.155
 9491POPC   C1A50727  40.793   5.122   6.455
 9491POPC   D2A50728  40.737   5.059   6.755
 9491POPC   C3A50729  40.816   5.068   7.055
 9491POPC   C4A50730  40.821   5.061   7.355
 9491POPC   C1B50731  41.068   5.189   6.455
 9491POPC   C2B50732  41.059   5.115   6.755
 9491POPC   C3B50733  40.996   5.141   7.055
 9491POPC   C4B50734  40.986   5.184   7.355
 9492POPC   NC350735  21.380  39.268   5.555
 9492POPC   PO450736  21.352  39.190   5.855
 9492POPC   GL150737  21.396  39.244   6.155
 9492POPC   GL250738  21.454  39.281   6.155
 9492POPC   C1A50739  21.410  39.246   6.455
 9492POPC   D2A50740  21.348  39.260   6.755
 9492POPC   C3A50741  21.397  39.249   7.055
 9492POPC   C4A50742  21.392  39.236   7.355
 9492POPC   C1B50743  21.637  39.369   6.455
 9492POPC   C2B50744  21.631  39.345   6.755
 9492POPC   C3B50745  21.647  39.342   7.055
 9492POPC   C4B50746  21.570  39.351   7.355
 9493POPC   NC350747  26.050  14.396   5.555
 9493POPC   PO450748  26.017  14.368   5.855
 9493POPC   GL150749  26.086  14.414   6.155
 9493POPC   GL250750  26.123  14.470   6.155
 9493POPC   C1A50751  26.070  14.391   6.455
 9493POPC   D2A50752  26.006  14.429   6.755
 9493POPC   C3A50753  26.020  14.389   7.055
 9493POPC   C4A50754  26.064  14.417   7.355
 9493POPC   C1B50755  26.121  14.659   6.455
 9493POPC   C2B50756  26.118  14.593   6.755
 9493POPC   C3B50757  26.136  14.651   7.055
 9493POPC   C4B50758  26.179  14.629   7.355
 9494POPC   NC350759  43.082   8.175   5.555
 9494POPC   PO450760  43.061   8.213   5.855
 9494POPC   GL150761  43.086   8.242   6.155
 9494POPC   GL250762  43.091   8.092   6.155
 9494POPC   C1A50763  43.147   8.236   6.455
 9494POPC   D2A50764  43.143   8.203   6.755
 9494POPC   C3A50765  43.078   8.185   7.055
 9494POPC   C4A50766  43.156   8.244   7.355
 9494POPC   C1B50767  43.146   7.974   6.455
 9494POPC   C2B50768  43.095   7.910   6.755
 9494POPC   C3B50769  43.108   7.967   7.055
 9494POPC   C4B50770  43.144   7.918   7.355
 9495POPC   NC350771  17.532  32.241   5.555
 9495POPC   PO450772  17.513  32.250   5.855
 9495POPC   GL150773  17.554  32.295   6.155
 9495POPC   GL250774  17.393  32.140   6.155
 9495POPC   C1A50775  17.544  32.291   6.455
 9495POPC   D2A50776  17.513  32.294   6.755
 9495POPC   C3A50777  17.521  32.240   7.055
 9495POPC   C4A50778  17.466  32.200   7.355
 9495POPC   C1B50779  17.335  32.154   6.455
 9495POPC   C2B50780  17.286  32.095   6.755
 9495POPC   C3B50781  17.342  32.138   7.055
 9495POPC   C4B50782  17.332  32.095   7.355
 9496POPC   NC350783   3.581   3.562   5.555
 9496POPC   PO450784   3.541   3.580   5.855
 9496POPC   GL150785   3.530   3.518   6.155
 9496POPC   GL250786   3.475   3.417   6.155
 9496POPC   C1A50787   3.583   3.566   6.455
 9496POPC   D2A50788   3.516   3.551   6.755
 9496POPC   C3A50789   3.500   3.557   7.055
 9496POPC   C4A50790   3.549   3.575   7.355
 9496POPC   C1B50791   3.400   3.316   6.455
 9496POPC   C2B50792   3.354   3.327   6.755
 9496POPC   C3B50793   3.392   3.336   7.055
 9496POPC   C4B50794   3.346   3.337   7.355
 9497POPC   NC350795  27.587  35.384   5.555
 9497POPC   PO450796  27.550  35.327   5.855
 9497POPC   GL150797  27.546  35.350   6.155
 9497POPC   GL250798  27.540  35.262   6.155
 9497POPC   C1A50799  27.574  35.314   6.455
 9497POPC   D2A50800  27.642  35.398   6.755
 9497POPC   C3A50801  27.559  35.354   7.055
 9497POPC   C4A50802  27.596  35.318   7.355
 9497POPC   C1B50803  27.445  35.166   6.455
 9497POPC   C2B50804  27.434  35.119   6.755
 9497POPC   C3B50805  27.397  35.120   7.055
 9497POPC   C4B50806  27.418  35.196   7.355
 9498POPC   NC350807  33.839  36.894   5.555
 9498POPC   PO450808  33.822  36.910   5.855
 9498POPC   GL150809  33.813  36.875   6.155
 9498POPC   GL250810  33.955  36.935   6.155
 9498POPC   C1A50811  33.772  36.920   6.455
 9498POPC   D2A50812  33.818  36.876   6.755
 9498POPC   C3A50813  33.755  36.881   7.055
 9498POPC   C4A50814  33.759  36.867   7.355
 9498POPC   C1B50815  34.025  36.895   6.455
 9498POPC   C2B50816  34.061  36.931   6.755
 9498POPC   C3B50817  34.096  36.984   7.055
 9498POPC   C4B50818  34.029  36.940   7.355
 9499POPC   NC350819  41.530  40.782   5.555
 9499POPC   PO450820  41.602  40.813   5.855
 9499POPC   GL150821  41.605  40.740   6.155
 9499POPC   GL250822  41.642  40.905   6.155
 9499POPC   C1A50823  41.544  40.818   6.455
 9499POPC   D2A50824  41.568  40.806   6.755
 9499POPC   C3A50825  41.510  40.794   7.055
 9499POPC   C4A50826  41.601  40.767   7.355
 9499POPC   C1B50827  41.639  41.026   6.455
 9499POPC   C2B50828  41.719  40.975   6.755
 9499POPC   C3B50829  41.735  40.987   7.055
 9499POPC   C4B50830  41.729  41.004   7.355
 9500POPC   NC350831  39.977  29.099   5.555
 9500POPC   PO450832  40.042  29.192   5.855
 9500POPC   GL150833  40.053  29.124   6.155
 9500POPC   GL250834  40.171  29.155   6.155
 9500POPC   C1A50835  40.040  29.110   6.455
 9500POPC   D2A50836  40.040  29.192   6.755
 9500POPC   C3A50837  40.038  29.177   7.055
 9500POPC   C4A50838  39.964  29.178   7.355
 9500POPC   C1B50839  40.237  29.077   6.455
 9500POPC   C2B50840  40.274  29.093   6.755
 9500POPC   C3B50841  40.250  29.065   7.055
 9500POPC   C4B50842  40.297  29.120   7.355
 9501POPC   NC350843  11.282  23.756   5.555
 9501POPC   PO450844  11.259  23.762   5.855
 9501POPC   GL150845  11.307  23.731   6.155
 9501POPC   GL250846  11.349  23.853   6.155
 9501POPC   C1A50847  11.280  23.751   6.455
 9501POPC   D2A50848  11.319  23.726   6.755
 9501POPC   C3A50849  11.349  23.743   7.055
 9501POPC   C4A50850  11.309  23.757   7.355
 9501POPC   C1B50851  11.469  23.919   6.455
 9501POPC   C2B50852  11.470  23.934   6.755
 9501POPC   C3B50853  11.406  23.961   7.055
 9501POPC   C4B50854  11.429  23.946   7.355
 9502POPC   NC350855  13.654  18.329   5.555
 9502POPC   PO450856  13.663  18.326   5.855
 9502POPC   GL150857  13.616  18.304   6.155
 9502POPC   GL250858  13.569  18.234   6.155
 9502POPC   C1A50859  13.588  18.239   6.455
 9502POPC   D2A50860  13.641  18.322   6.755
 9502POPC   C3A50861  13.669  18.251   7.055
 9502POPC   C4A50862  13.637  18.265   7.355
 9502POPC   C1B50863  13.477  18.163   6.455
 9502POPC   C2B50864  13.486  18.068   6.755
 9502POPC   C3B50865  13.430  18.157   7.055
 9502POPC   C4B50866  13.460  18.127   7.355
 9503POPC   NC350867  32.985  40.824   5.555
 9503POPC   PO450868  33.042  40.785   5.855
 9503POPC   GL150869  33.058  40.806   6.155
 9503POPC   GL250870  33.178  40.728   6.155
 9503POPC   C1A50871  33.017  40.797   6.455
 9503POPC   D2A50872  33.040  40.781   6.755
 9503POPC   C3A50873  32.985  40.764   7.055
 9503POPC   C4A50874  33.005  40.756   7.355
 9503POPC   C1B50875  33.277  40.671   6.455
 9503POPC   C2B50876  33.238  40.600   6.755
 9503POPC   C3B50877  33.268  40.600   7.055
 9503POPC   C4B50878  33.245  40.602   7.355
 9504POPC   NC350879   9.721  20.621   5.555
 9504POPC   PO450880   9.769  20.644   5.855
 9504POPC   GL150881   9.771  20.607   6.155
 9504POPC   GL250882   9.632  20.534   6.155
 9504POPC   C1A50883   9.721  20.565   6.455
 9504POPC   D2A50884   9.787  20.575   6.755
 9504POPC   C3A50885   9.759  20.608   7.055
 9504POPC   C4A50886   9.760  20.652   7.355
 9504POPC   C1B50887   9.511  20.478   6.455
 9504POPC   C2B50888   9.601  20.427   6.755
 9504POPC   C3B50889   9.546  20.427   7.055
 9504POPC   C4B50890   9.520  20.472   7.355
 9505POPC   NC350891  40.787  29.138   5.555
 9505POPC   PO450892  40.811  29.139   5.855
 9505POPC   GL150893  40.807  29.165   6.155
 9505POPC   GL250894  40.916  29.190   6.155
 9505POPC   C1A50895  40.740  29.146   6.455
 9505POPC   D2A50896  40.811  29.188   6.755
 9505POPC   C3A50897  40.766  29.151   7.055
 9505POPC   C4A50898  40.828  29.131   7.355
 9505POPC   C1B50899  41.008  29.327   6.455
 9505POPC   C2B50900  40.934  29.274   6.755
 9505POPC   C3B50901  40.977  29.258   7.055
 9505POPC   C4B50902  40.940  29.344   7.355
 9506POPC   NC350903  20.575  14.403   5.555
 9506POPC   PO450904  20.643  14.418   5.855
 9506POPC   GL150905  20.599  14.362   6.155
 9506POPC   GL250906  20.452  14.397   6.155
 9506POPC   C1A50907  20.601  14.364   6.455
 9506POPC   D2A50908  20.591  14.356   6.755
 9506POPC   C3A50909  20.628  14.409   7.055
 9506POPC   C4A50910  20.658  14.427   7.355
 9506POPC   C1B50911  20.381  14.505   6.455
 9506POPC   C2B50912  20.400  14.467   6.755
 9506POPC   C3B50913  20.366  14.414   7.055
 9506POPC   C4B50914  20.359  14.507   7.355
 9507POPC   NC350915   2.028  12.868   5.555
 9507POPC   PO450916   2.032  12.900   5.855
 9507POPC   GL150917   1.964  12.808   6.155
 9507POPC   GL250918   1.834  12.912   6.155
 9507POPC   C1A50919   1.962  12.872   6.455
 9507POPC   D2A50920   1.980  12.894   6.755
 9507POPC   C3A50921   1.994  12.805   7.055
 9507POPC   C4A50922   2.020  12.829   7.355
 9507POPC   C1B50923   1.796  12.989   6.455
 9507POPC   C2B50924   1.749  12.975   6.755
 9507POPC   C3B50925   1.798  12.945   7.055
 9507POPC   C4B50926   1.748  12.942   7.355
 9508POPC   NC350927  40.757   3.545   5.555
 9508POPC   PO450928  40.746   3.495   5.855
 9508POPC   GL150929  40.781   3.547   6.155
 9508POPC   GL250930  40.729   3.499   6.155
 9508POPC   C1A50931  40.763   3.523   6.455
 9508POPC   D2A50932  40.799   3.518   6.755
 9508POPC   C3A50933  40.760   3.493   7.055
 9508POPC   C4A50934  40.782   3.531   7.355
 9508POPC   C1B50935  40.545   3.410   6.455
 9508POPC   C2B50936  40.540   3.403   6.755
 9508POPC   C3B50937  40.534   3.428   7.055
 9508POPC   C4B50938  40.549   3.407   7.355
 9509POPC   NC350939  11.287   7.406   5.555
 9509POPC   PO450940  11.299   7.387   5.855
 9509POPC   GL150941  11.284   7.404   6.155
 9509POPC   GL250942  11.368   7.513   6.155
 9509POPC   C1A50943  11.279   7.414   6.455
 9509POPC   D2A50944  11.313   7.469   6.755
 9509POPC   C3A50945  11.277   7.456   7.055
 9509POPC   C4A50946  11.321   7.382   7.355
 9509POPC   C1B50947  11.526   7.567   6.455
 9509POPC   C2B50948  11.531   7.587   6.755
 9509POPC   C3B50949  11.485   7.538   7.055
 9509POPC   C4B50950  11.497   7.581   7.355
 9510POPC   NC350951  15.956  43.141   5.555
 9510POPC   PO450952  15.909  43.071   5.855
 9510POPC   GL150953  15.943  43.069   6.155
 9510POPC   GL250954  16.008  43.236   6.155
 9510POPC   C1A50955  15.908  43.127   6.455
 9510POPC   D2A50956  15.939  43.124   6.755
 9510POPC   C3A50957  15.954  43.160   7.055
 9510POPC   C4A50958  15.980  43.102   7.355
 9510POPC   C1B50959  16.004  43.360   6.455
 9510POPC   C2B50960  16.079  43.296   6.755
 9510POPC   C3B50961  16.042  43.347   7.055
 9510POPC   C4B50962  16.051  43.343   7.355
 9511POPC   NC350963  35.319   2.777   5.555
 9511POPC   PO450964  35.369   2.793   5.855
 9511POPC   GL150965  35.335   2.800   6.155
 9511POPC   GL250966  35.422   2.853   6.155
 9511POPC   C1A50967  35.374   2.743   6.455
 9511POPC   D2A50968  35.377   2.749   6.755
 9511POPC   C3A50969  35.303   2.738   7.055
 9511POPC   C4A50970  35.341   2.807   7.355
 9511POPC   C1B50971  35.528   2.897   6.455
 9511POPC   C2B50972  35.569   2.901   6.755
 9511POPC   C3B50973  35.508   2.932   7.055
 9511POPC   C4B50974  35.521   2.903   7.355
 9512POPC   NC350975  18.288  33.814   5.555
 9512POPC   PO450976  18.244  33.849   5.855
 9512POPC   GL150977  18.240  33.837   6.155
 9512POPC   GL250978  18.207  33.733   6.155
 9512POPC   C1A50979  18.301  33.760   6.455
 9512POPC   D2A50980  18.255  33.754   6.755
 9512POPC   C3A50981  18.272  33.830   7.055
 9512POPC   C4A50982  18.267  33.797   7.355
 9512POPC   C1B50983  18.215  33.560   6.455
 9512POPC   C2B50984  18.131  33.593   6.755
 9512POPC   C3B50985  18.164  33.617   7.055
 9512POPC   C4B50986  18.124  33.577   7.355
 9513POPC   NC350987  36.877  43.926   5.555
 9513POPC   PO450988  36.900  43.867   5.855
 9513POPC   GL150989  36.869  43.896   6.155
 9513POPC   GL250990  36.972  43.985   6.155
 9513POPC   C1A50991  36.915  43.885   6.455
 9513POPC   D2A50992  36.908  43.869   6.755
 9513POPC   C3A50993  36.924  43.909   7.055
 9513POPC   C4A50994  36.889  43.868   7.355
 9513POPC   C1B50995  37.097  44.106   6.455
 9513POPC   C2B50996  37.077  44.052   6.755
 9513POPC   C3B50997  37.059  44.088   7.055
 9513POPC   C4B50998  37.026  44.080   7.355
 9514POPC   NC350999  22.971   1.258   5.555
 9514POPC   PO451000  22.899   1.233   5.855
 9514POPC   GL151001  22.928   1.173   6.155
 9514POPC   GL251002  22.921   1.132   6.155
 9514POPC   C1A51003  22.950   1.177   6.455
 9514POPC   D2A51004  22.967   1.233   6.755
 9514POPC   C3A51005  22.961   1.249   7.055
 9514POPC   C4A51006  22.898   1.189   7.355
 9514POPC   C1B51007  22.932   0.946   6.455
 9514POPC   C2B51008  22.921   0.943   6.755
 9514POPC   C3B51009  22.950   0.970   7.055
 9514POPC   C4B51010  22.991   0.915   7.355
 9515POPC   NC351011  28.362  27.606   5.555
 9515POPC   PO451012  28.353  27.599   5.855
 9515POPC   GL151013  28.405  27.600   6.155
 9515POPC   GL251014  28.511  27.561   6.155
 9515POPC   C1A51015  28.401  27.561   6.455
 9515POPC   D2A51016  28.409  27.636   6.755
 9515POPC   C3A51017  28.356  27.562   7.055
 9515POPC   C4A51018  28.408  27.561   7.355
 9515POPC   C1B51019  28.583  27.484   6.455
 9515POPC   C2B51020  28.614  27.475   6.755
 9515POPC   C3B51021  28.588  27.458   7.055
 9515POPC   C4B51022  28.550  27.464   7.355
 9516POPC   NC351023  27.595  12.124   5.555
 9516POPC   PO451024  27.607  12.080   5.855
 9516POPC   GL151025  27.573  12.029   6.155
 9516POPC   GL251026  27.676  11.986   6.155
 9516POPC   C1A51027  27.589  12.110   6.455
 9516POPC   D2A51028  27.607  12.123   6.755
 9516POPC   C3A51029  27.579  12.097   7.055
 9516POPC   C4A51030  27.641  12.037   7.355
 9516POPC   C1B51031  27.762  11.819   6.455
 9516POPC   C2B51032  27.727  11.832   6.755
 9516POPC   C3B51033  27.742  11.841   7.055
 9516POPC   C4B51034  27.685  11.862   7.355
 9517POPC   NC351035   8.992  17.536   5.555
 9517POPC   PO451036   8.975  17.515   5.855
 9517POPC   GL151037   9.009  17.506   6.155
 9517POPC   GL251038   8.987  17.348   6.155
 9517POPC   C1A51039   9.011  17.519   6.455
 9517POPC   D2A51040   8.927  17.527   6.755
 9517POPC   C3A51041   8.953  17.468   7.055
 9517POPC   C4A51042   8.976  17.553   7.355
 9517POPC   C1B51043   8.997  17.230   6.455
 9517POPC   C2B51044   9.061  17.311   6.755
 9517POPC   C3B51045   9.068  17.278   7.055
 9517POPC   C4B51046   9.023  17.232   7.355
 9518POPC   NC351047  26.788  30.739   5.555
 9518POPC   PO451048  26.863  30.735   5.855
 9518POPC   GL151049  26.807  30.742   6.155
 9518POPC   GL251050  26.896  30.821   6.155
 9518POPC   C1A51051  26.833  30.722   6.455
 9518POPC   D2A51052  26.825  30.655   6.755
 9518POPC   C3A51053  26.855  30.736   7.055
 9518POPC   C4A51054  26.854  30.719   7.355
 9518POPC   C1B51055  26.927  30.881   6.455
 9518POPC   C2B51056  26.978  30.878   6.755
 9518POPC   C3B51057  26.941  30.892   7.055
 9518POPC   C4B51058  26.889  30.884   7.355
 9519POPC   NC351059   6.623  33.812   5.555
 9519POPC   PO451060   6.658  33.810   5.855
 9519POPC   GL151061   6.653  33.848   6.155
 9519POPC   GL251062   6.618  33.928   6.155
 9519POPC   C1A51063   6.630  33.757   6.455
 9519POPC   D2A51064   6.609  33.804   6.755
 9519POPC   C3A51065   6.636  33.836   7.055
 9519POPC   C4A51066   6.682  33.842   7.355
 9519POPC   C1B51067   6.528  33.975   6.455
 9519POPC   C2B51068   6.456  34.036   6.755
 9519POPC   C3B51069   6.529  33.984   7.055
 9519POPC   C4B51070   6.525  34.012   7.355
 9520POPC   NC351071  19.029  34.595   5.555
 9520POPC   PO451072  19.066  34.617   5.855
 9520POPC   GL151073  19.083  34.617   6.155
 9520POPC   GL251074  19.035  34.710   6.155
 9520POPC   C1A51075  19.091  34.553   6.455
 9520POPC   D2A51076  19.089  34.549   6.755
 9520POPC   C3A51077  19.103  34.531   7.055
 9520POPC   C4A51078  19.072  34.584   7.355
 9520POPC   C1B51079  19.124  34.783   6.455
 9520POPC   C2B51080  19.070  34.859   6.755
 9520POPC   C3B51081  19.082  34.849   7.055
 9520POPC   C4B51082  19.083  34.785   7.355
 9521POPC   NC351083  27.543   3.558   5.555
 9521POPC   PO451084  27.556   3.510   5.855
 9521POPC   GL151085  27.591   3.495   6.155
 9521POPC   GL251086  27.736   3.471   6.155
 9521POPC   C1A51087  27.577   3.572   6.455
 9521POPC   D2A51088  27.551   3.542   6.755
 9521POPC   C3A51089  27.576   3.520   7.055
 9521POPC   C4A51090  27.556   3.548   7.355
 9521POPC   C1B51091  27.772   3.465   6.455
 9521POPC   C2B51092  27.817   3.375   6.755
 9521POPC   C3B51093  27.772   3.387   7.055
 9521POPC   C4B51094  27.792   3.433   7.355
 9522POPC   NC351095  38.449  30.669   5.555
 9522POPC   PO451096  38.458  30.720   5.855
 9522POPC   GL151097  38.406  30.714   6.155
 9522POPC   GL251098  38.331  30.820   6.155
 9522POPC   C1A51099  38.486  30.654   6.455
 9522POPC   D2A51100  38.407  30.694   6.755
 9522POPC   C3A51101  38.479  30.655   7.055
 9522POPC   C4A51102  38.430  30.727   7.355
 9522POPC   C1B51103  38.259  30.910   6.455
 9522POPC   C2B51104  38.346  30.938   6.755
 9522POPC   C3B51105  38.268  30.889   7.055
 9522POPC   C4B51106  38.352  30.946   7.355
 9523POPC   NC351107  14.448  31.441   5.555
 9523POPC   PO451108  14.374  31.463   5.855
 9523POPC   GL151109  14.399  31.446   6.155
 9523POPC   GL251110  14.363  31.340   6.155
 9523POPC   C1A51111  14.360  31.425   6.455
 9523POPC   D2A51112  14.372  31.521   6.755
 9523POPC   C3A51113  14.447  31.440   7.055
 9523POPC   C4A51114  14.446  31.505   7.355
 9523POPC   C1B51115  14.294  31.215   6.455
 9523POPC   C2B51116  14.234  31.269   6.755
 9523POPC   C3B51117  14.313  31.230   7.055
 9523POPC   C4B51118  14.229  31.259   7.355
 9524POPC   NC351119  33.013   9.000   5.555
 9524POPC   PO451120  33.017   9.006   5.855
 9524POPC   GL151121  32.986   9.009   6.155
 9524POPC   GL251122  33.175   8.894   6.155
 9524POPC   C1A51123  33.034   9.012   6.455
 9524POPC   D2A51124  33.045   8.950   6.755
 9524POPC   C3A51125  33.057   9.007   7.055
 9524POPC   C4A51126  33.037   8.928   7.355
 9524POPC   C1B51127  33.266   8.910   6.455
 9524POPC   C2B51128  33.295   8.921   6.755
 9524POPC   C3B51129  33.233   8.935   7.055
 9524POPC   C4B51130  33.225   8.889   7.355
 9525POPC   NC351131   1.197  31.497   5.555
 9525POPC   PO451132   1.174  31.440   5.855
 9525POPC   GL151133   1.242  31.449   6.155
 9525POPC   GL251134   1.237  31.304   6.155
 9525POPC   C1A51135   1.230  31.439   6.455
 9525POPC   D2A51136   1.229  31.434   6.755
 9525POPC   C3A51137   1.173  31.462   7.055
 9525POPC   C4A51138   1.240  31.451   7.355
 9525POPC   C1B51139   1.211  31.181   6.455
 9525POPC   C2B51140   1.211  31.270   6.755
 9525POPC   C3B51141   1.173  31.244   7.055
 9525POPC   C4B51142   1.229  31.197   7.355
 9526POPC   NC351143  19.837  36.932   5.555
 9526POPC   PO451144  19.859  36.870   5.855
 9526POPC   GL151145  19.876  36.934   6.155
 9526POPC   GL251146  19.922  36.979   6.155
 9526POPC   C1A51147  19.863  36.890   6.455
 9526POPC   D2A51148  19.852  36.906   6.755
 9526POPC   C3A51149  19.830  36.894   7.055
 9526POPC   C4A51150  19.879  36.880   7.355
 9526POPC   C1B51151  19.936  37.086   6.455
 9526POPC   C2B51152  19.906  37.094   6.755
 9526POPC   C3B51153  19.954  37.120   7.055
 9526POPC   C4B51154  19.919  37.162   7.355
 9527POPC   NC351155  23.700  28.387   5.555
 9527POPC   PO451156  23.702  28.392   5.855
 9527POPC   GL151157  23.693  28.392   6.155
 9527POPC   GL251158  23.757  28.488   6.155
 9527POPC   C1A51159  23.753  28.389   6.455
 9527POPC   D2A51160  23.665  28.358   6.755
 9527POPC   C3A51161  23.724  28.410   7.055
 9527POPC   C4A51162  23.719  28.379   7.355
 9527POPC   C1B51163  23.790  28.630   6.455
 9527POPC   C2B51164  23.832  28.624   6.755
 9527POPC   C3B51165  23.855  28.563   7.055
 9527POPC   C4B51166  23.813  28.595   7.355
 9528POPC   NC351167  12.843  38.405   5.555
 9528POPC   PO451168  12.877  38.406   5.855
 9528POPC   GL151169  12.851  38.475   6.155
 9528POPC   GL251170  12.737  38.567   6.155
 9528POPC   C1A51171  12.866  38.452   6.455
 9528POPC   D2A51172  12.894  38.462   6.755
 9528POPC   C3A51173  12.877  38.422   7.055
 9528POPC   C4A51174  12.837  38.422   7.355
 9528POPC   C1B51175  12.638  38.659   6.455
 9528POPC   C2B51176  12.703  38.604   6.755
 9528POPC   C3B51177  12.640  38.630   7.055
 9528POPC   C4B51178  12.714  38.581   7.355
 9529POPC   NC351179  18.249  22.921   5.555
 9529POPC   PO451180  18.249  22.945   5.855
 9529POPC   GL151181  18.276  22.939   6.155
 9529POPC   GL251182  18.254  22.774   6.155
 9529POPC   C1A51183  18.235  22.978   6.455
 9529POPC   D2A51184  18.243  22.951   6.755
 9529POPC   C3A51185  18.331  22.900   7.055
 9529POPC   C4A51186  18.259  22.962   7.355
 9529POPC   C1B51187  18.248  22.706   6.455
 9529POPC   C2B51188  18.240  22.709   6.755
 9529POPC   C3B51189  18.265  22.725   7.055
 9529POPC   C4B51190  18.244  22.689   7.355
 9530POPC   NC351191  17.509  43.902   5.555
 9530POPC   PO451192  17.534  43.847   5.855
 9530POPC   GL151193  17.466  43.919   6.155
 9530POPC   GL251194  17.410  43.840   6.155
 9530POPC   C1A51195  17.460  43.869   6.455
 9530POPC   D2A51196  17.515  43.889   6.755
 9530POPC   C3A51197  17.498  43.921   7.055
 9530POPC   C4A51198  17.479  43.894   7.355
 9530POPC   C1B51199  17.232  43.836   6.455
 9530POPC   C2B51200  17.295  43.861   6.755
 9530POPC   C3B51201  17.216  43.858   7.055
 9530POPC   C4B51202  17.274  43.890   7.355
 9531POPC   NC351203  17.554  44.624   5.555
 9531POPC   PO451204  17.468  44.634   5.855
 9531POPC   GL151205  17.497  44.657   6.155
 9531POPC   GL251206  17.620  44.729   6.155
 9531POPC   C1A51207  17.541  44.619   6.455
 9531POPC   D2A51208  17.464  44.702   6.755
 9531POPC   C3A51209  17.469  44.686   7.055
 9531POPC   C4A51210  17.490  44.692   7.355
 9531POPC   C1B51211  17.664  44.835   6.455
 9531POPC   C2B51212  17.705  44.813   6.755
 9531POPC   C3B51213  17.694  44.877   7.055
 9531POPC   C4B51214  17.654  44.874   7.355
 9532POPC   NC351215   8.191  13.631   5.555
 9532POPC   PO451216   8.226  13.661   5.855
 9532POPC   GL151217   8.234  13.671   6.155
 9532POPC   GL251218   8.081  13.629   6.155
 9532POPC   C1A51219   8.174  13.664   6.455
 9532POPC   D2A51220   8.179  13.610   6.755
 9532POPC   C3A51221   8.236  13.593   7.055
 9532POPC   C4A51222   8.149  13.668   7.355
 9532POPC   C1B51223   7.955  13.687   6.455
 9532POPC   C2B51224   7.918  13.687   6.755
 9532POPC   C3B51225   7.933  13.694   7.055
 9532POPC   C4B51226   7.936  13.740   7.355
 9533POPC   NC351227  36.176  39.207   5.555
 9533POPC   PO451228  36.091  39.227   5.855
 9533POPC   GL151229  36.136  39.242   6.155
 9533POPC   GL251230  36.122  39.152   6.155
 9533POPC   C1A51231  36.139  39.245   6.455
 9533POPC   D2A51232  36.149  39.233   6.755
 9533POPC   C3A51233  36.138  39.245   7.055
 9533POPC   C4A51234  36.097  39.275   7.355
 9533POPC   C1B51235  36.069  38.974   6.455
 9533POPC   C2B51236  36.000  39.016   6.755
 9533POPC   C3B51237  36.051  38.953   7.055
 9533POPC   C4B51238  35.993  38.975   7.355
 9534POPC   NC351239  22.132  40.824   5.555
 9534POPC   PO451240  22.157  40.792   5.855
 9534POPC   GL151241  22.136  40.763   6.155
 9534POPC   GL251242  22.165  40.668   6.155
 9534POPC   C1A51243  22.112  40.806   6.455
 9534POPC   D2A51244  22.141  40.786   6.755
 9534POPC   C3A51245  22.126  40.794   7.055
 9534POPC   C4A51246  22.152  40.804   7.355
 9534POPC   C1B51247  22.266  40.561   6.455
 9534POPC   C2B51248  22.242  40.548   6.755
 9534POPC   C3B51249  22.282  40.505   7.055
 9534POPC   C4B51250  22.223  40.576   7.355
 9535POPC   NC351251  12.848  17.460   5.555
 9535POPC   PO451252  12.839  17.468   5.855
 9535POPC   GL151253  12.859  17.473   6.155
 9535POPC   GL251254  12.883  17.365   6.155
 9535POPC   C1A51255  12.872  17.555   6.455
 9535POPC   D2A51256  12.861  17.538   6.755
 9535POPC   C3A51257  12.811  17.538   7.055
 9535POPC   C4A51258  12.844  17.534   7.355
 9535POPC   C1B51259  12.950  17.256   6.455
 9535POPC   C2B51260  13.003  17.311   6.755
 9535POPC   C3B51261  12.966  17.283   7.055
 9535POPC   C4B51262  13.034  17.338   7.355
 9536POPC   NC351263  42.313  30.729   5.555
 9536POPC   PO451264  42.295  30.682   5.855
 9536POPC   GL151265  42.293  30.688   6.155
 9536POPC   GL251266  42.165  30.662   6.155
 9536POPC   C1A51267  42.291  30.673   6.455
 9536POPC   D2A51268  42.335  30.698   6.755
 9536POPC   C3A51269  42.326  30.725   7.055
 9536POPC   C4A51270  42.334  30.744   7.355
 9536POPC   C1B51271  42.118  30.723   6.455
 9536POPC   C2B51272  42.124  30.709   6.755
 9536POPC   C3B51273  42.068  30.661   7.055
 9536POPC   C4B51274  42.117  30.713   7.355
 9537POPC   NC351275  17.545  26.025   5.555
 9537POPC   PO451276  17.549  26.074   5.855
 9537POPC   GL151277  17.514  26.003   6.155
 9537POPC   GL251278  17.588  25.958   6.155
 9537POPC   C1A51279  17.512  26.082   6.455
 9537POPC   D2A51280  17.515  26.061   6.755
 9537POPC   C3A51281  17.496  25.994   7.055
 9537POPC   C4A51282  17.516  25.994   7.355
 9537POPC   C1B51283  17.608  25.770   6.455
 9537POPC   C2B51284  17.620  25.784   6.755
 9537POPC   C3B51285  17.638  25.780   7.055
 9537POPC   C4B51286  17.616  25.846   7.355
 9538POPC   NC351287  28.351  10.532   5.555
 9538POPC   PO451288  28.369  10.559   5.855
 9538POPC   GL151289  28.360  10.554   6.155
 9538POPC   GL251290  28.221  10.558   6.155
 9538POPC   C1A51291  28.397  10.557   6.455
 9538POPC   D2A51292  28.414  10.516   6.755
 9538POPC   C3A51293  28.348  10.560   7.055
 9538POPC   C4A51294  28.395  10.571   7.355
 9538POPC   C1B51295  28.156  10.538   6.455
 9538POPC   C2B51296  28.085  10.565   6.755
 9538POPC   C3B51297  28.098  10.496   7.055
 9538POPC   C4B51298  28.134  10.548   7.355
 9539POPC   NC351299  19.811  38.475   5.555
 9539POPC   PO451300  19.846  38.482   5.855
 9539POPC   GL151301  19.880  38.468   6.155
 9539POPC   GL251302  19.849  38.560   6.155
 9539POPC   C1A51303  19.839  38.480   6.455
 9539POPC   D2A51304  19.787  38.502   6.755
 9539POPC   C3A51305  19.865  38.424   7.055
 9539POPC   C4A51306  19.867  38.500   7.355
 9539POPC   C1B51307  19.769  38.681   6.455
 9539POPC   C2B51308  19.804  38.746   6.755
 9539POPC   C3B51309  19.767  38.720   7.055
 9539POPC   C4B51310  19.760  38.726   7.355
 9540POPC   NC351311  43.854  19.058   5.555
 9540POPC   PO451312  43.924  19.031   5.855
 9540POPC   GL151313  43.888  19.036   6.155
 9540POPC   GL251314  43.916  19.182   6.155
 9540POPC   C1A51315  43.911  19.015   6.455
 9540POPC   D2A51316  43.881  19.043   6.755
 9540POPC   C3A51317  43.855  19.018   7.055
 9540POPC   C4A51318  43.846  19.054   7.355
 9540POPC   C1B51319  43.921  19.300   6.455
 9540POPC   C2B51320  43.908  19.300   6.755
 9540POPC   C3B51321  43.863  19.332   7.055
 9540POPC   C4B51322  43.932  19.277   7.355
 9541POPC   NC351323  30.721  42.341   5.555
 9541POPC   PO451324  30.703  42.333   5.855
 9541POPC   GL151325  30.692  42.304   6.155
 9541POPC   GL251326  30.539  42.362   6.155
 9541POPC   C1A51327  30.693  42.315   6.455
 9541POPC   D2A51328  30.664  42.354   6.755
 9541POPC   C3A51329  30.656  42.362   7.055
 9541POPC   C4A51330  30.659  42.370   7.355
 9541POPC   C1B51331  30.469  42.463   6.455
 9541POPC   C2B51332  30.509  42.465   6.755
 9541POPC   C3B51333  30.511  42.379   7.055
 9541POPC   C4B51334  30.452  42.393   7.355
 9542POPC   NC351335  10.505  17.551   5.555
 9542POPC   PO451336  10.540  17.509   5.855
 9542POPC   GL151337  10.561  17.557   6.155
 9542POPC   GL251338  10.564  17.565   6.155
 9542POPC   C1A51339  10.567  17.543   6.455
 9542POPC   D2A51340  10.477  17.494   6.755
 9542POPC   C3A51341  10.526  17.473   7.055
 9542POPC   C4A51342  10.551  17.486   7.355
 9542POPC   C1B51343  10.652  17.664   6.455
 9542POPC   C2B51344  10.705  17.677   6.755
 9542POPC   C3B51345  10.624  17.695   7.055
 9542POPC   C4B51346  10.656  17.703   7.355
 9543POPC   NC351347   7.416   7.392   5.555
 9543POPC   PO451348   7.453   7.402   5.855
 9543POPC   GL151349   7.434   7.448   6.155
 9543POPC   GL251350   7.279   7.364   6.155
 9543POPC   C1A51351   7.455   7.456   6.455
 9543POPC   D2A51352   7.413   7.422   6.755
 9543POPC   C3A51353   7.441   7.436   7.055
 9543POPC   C4A51354   7.373   7.414   7.355
 9543POPC   C1B51355   7.204   7.351   6.455
 9543POPC   C2B51356   7.206   7.336   6.755
 9543POPC   C3B51357   7.176   7.336   7.055
 9543POPC   C4B51358   7.214   7.287   7.355
 9544POPC   NC351359  26.006  32.261   5.555
 9544POPC   PO451360  26.014  32.249   5.855
 9544POPC   GL151361  26.087  32.244   6.155
 9544POPC   GL251362  26.074  32.139   6.155
 9544POPC   C1A51363  26.025  32.219   6.455
 9544POPC   D2A51364  25.995  32.252   6.755
 9544POPC   C3A51365  26.070  32.202   7.055
 9544POPC   C4A51366  26.006  32.209   7.355
 9544POPC   C1B51367  26.063  32.031   6.455
 9544POPC   C2B51368  26.091  32.004   6.755
 9544POPC   C3B51369  26.095  32.048   7.055
 9544POPC   C4B51370  26.009  31.960   7.355
 9545POPC   NC351371  40.757   8.202   5.555
 9545POPC   PO451372  40.760   8.222   5.855
 9545POPC   GL151373  40.810   8.177   6.155
 9545POPC   GL251374  40.616   8.195   6.155
 9545POPC   C1A51375  40.763   8.244   6.455
 9545POPC   D2A51376  40.803   8.234   6.755
 9545POPC   C3A51377  40.791   8.218   7.055
 9545POPC   C4A51378  40.748   8.148   7.355
 9545POPC   C1B51379  40.526   8.274   6.455
 9545POPC   C2B51380  40.570   8.276   6.755
 9545POPC   C3B51381  40.537   8.247   7.055
 9545POPC   C4B51382  40.512   8.259   7.355
 9546POPC   NC351383  12.834   9.746   5.555
 9546POPC   PO451384  12.830   9.794   5.855
 9546POPC   GL151385  12.837   9.747   6.155
 9546POPC   GL251386  12.686   9.708   6.155
 9546POPC   C1A51387  12.843   9.735   6.455
 9546POPC   D2A51388  12.839   9.724   6.755
 9546POPC   C3A51389  12.835   9.779   7.055
 9546POPC   C4A51390  12.840   9.712   7.355
 9546POPC   C1B51391  12.633   9.724   6.455
 9546POPC   C2B51392  12.630   9.802   6.755
 9546POPC   C3B51393  12.597   9.779   7.055
 9546POPC   C4B51394  12.564   9.786   7.355
 9547POPC   NC351395   9.797  11.311   5.555
 9547POPC   PO451396   9.702  11.294   5.855
 9547POPC   GL151397   9.738  11.304   6.155
 9547POPC   GL251398   9.776  11.223   6.155
 9547POPC   C1A51399   9.770  11.346   6.455
 9547POPC   D2A51400   9.770  11.315   6.755
 9547POPC   C3A51401   9.741  11.274   7.055
 9547POPC   C4A51402   9.767  11.289   7.355
 9547POPC   C1B51403   9.892  11.117   6.455
 9547POPC   C2B51404   9.928  11.084   6.755
 9547POPC   C3B51405   9.901  11.071   7.055
 9547POPC   C4B51406   9.870  11.077   7.355
 9548POPC   NC351407  26.031  18.234   5.555
 9548POPC   PO451408  25.999  18.320   5.855
 9548POPC   GL151409  26.083  18.330   6.155
 9548POPC   GL251410  26.007  18.372   6.155
 9548POPC   C1A51411  26.033  18.237   6.455
 9548POPC   D2A51412  26.076  18.283   6.755
 9548POPC   C3A51413  26.017  18.251   7.055
 9548POPC   C4A51414  26.043  18.247   7.355
 9548POPC   C1B51415  26.036  18.518   6.455
 9548POPC   C2B51416  26.026  18.509   6.755
 9548POPC   C3B51417  26.071  18.489   7.055
 9548POPC   C4B51418  26.053  18.486   7.355
 9549POPC   NC351419  26.797  33.819   5.555
 9549POPC   PO451420  26.826  33.755   5.855
 9549POPC   GL151421  26.830  33.760   6.155
 9549POPC   GL251422  26.895  33.755   6.155
 9549POPC   C1A51423  26.864  33.764   6.455
 9549POPC   D2A51424  26.829  33.831   6.755
 9549POPC   C3A51425  26.863  33.771   7.055
 9549POPC   C4A51426  26.838  33.807   7.355
 9549POPC   C1B51427  26.960  33.616   6.455
 9549POPC   C2B51428  27.006  33.568   6.755
 9549POPC   C3B51429  27.007  33.568   7.055
 9549POPC   C4B51430  27.006  33.564   7.355
 9550POPC   NC351431  15.912  30.683   5.555
 9550POPC   PO451432  15.955  30.722   5.855
 9550POPC   GL151433  15.948  30.678   6.155
 9550POPC   GL251434  15.991  30.596   6.155
 9550POPC   C1A51435  15.963  30.687   6.455
 9550POPC   D2A51436  15.964  30.729   6.755
 9550POPC   C3A51437  15.947  30.658   7.055
 9550POPC   C4A51438  15.939  30.675   7.355
 9550POPC   C1B51439  15.919  30.429   6.455
 9550POPC   C2B51440  16.005  30.489   6.755
 9550POPC   C3B51441  16.001  30.459   7.055
 9550POPC   C4B51442  15.941  30.488   7.355
 9551POPC   NC351443  13.634  24.466   5.555
 9551POPC   PO451444  13.661  24.496   5.855
 9551POPC   GL151445  13.649  24.501   6.155
 9551POPC   GL251446  13.531  24.628   6.155
 9551POPC   C1A51447  13.628  24.529   6.455
 9551POPC   D2A51448  13.616  24.485   6.755
 9551POPC   C3A51449  13.621  24.504   7.055
 9551POPC   C4A51450  13.638  24.507   7.355
 9551POPC   C1B51451  13.428  24.631   6.455
 9551POPC   C2B51452  13.423  24.634   6.755
 9551POPC   C3B51453  13.427  24.691   7.055
 9551POPC   C4B51454  13.472  24.691   7.355
 9552POPC   NC351455  42.363  33.772   5.555
 9552POPC   PO451456  42.295  33.823   5.855
 9552POPC   GL151457  42.365  33.841   6.155
 9552POPC   GL251458  42.453  33.742   6.155
 9552POPC   C1A51459  42.360  33.763   6.455
 9552POPC   D2A51460  42.299  33.785   6.755
 9552POPC   C3A51461  42.382  33.800   7.055
 9552POPC   C4A51462  42.296  33.760   7.355
 9552POPC   C1B51463  42.620  33.749   6.455
 9552POPC   C2B51464  42.582  33.776   6.755
 9552POPC   C3B51465  42.569  33.741   7.055
 9552POPC   C4B51466  42.590  33.689   7.355
 9553POPC   NC351467  37.664  20.585   5.555
 9553POPC   PO451468  37.643  20.602   5.855
 9553POPC   GL151469  37.684  20.566   6.155
 9553POPC   GL251470  37.630  20.739   6.155
 9553POPC   C1A51471  37.658  20.651   6.455
 9553POPC   D2A51472  37.714  20.614   6.755
 9553POPC   C3A51473  37.631  20.646   7.055
 9553POPC   C4A51474  37.723  20.626   7.355
 9553POPC   C1B51475  37.670  20.847   6.455
 9553POPC   C2B51476  37.696  20.870   6.755
 9553POPC   C3B51477  37.663  20.865   7.055
 9553POPC   C4B51478  37.629  20.839   7.355
 9554POPC   NC351479  19.057  32.205   5.555
 9554POPC   PO451480  19.099  32.202   5.855
 9554POPC   GL151481  19.021  32.253   6.155
 9554POPC   GL251482  18.899  32.189   6.155
 9554POPC   C1A51483  19.030  32.276   6.455
 9554POPC   D2A51484  19.064  32.215   6.755
 9554POPC   C3A51485  19.063  32.207   7.055
 9554POPC   C4A51486  19.083  32.253   7.355
 9554POPC   C1B51487  18.808  32.182   6.455
 9554POPC   C2B51488  18.783  32.147   6.755
 9554POPC   C3B51489  18.844  32.133   7.055
 9554POPC   C4B51490  18.784  32.202   7.355
 9555POPC   NC351491  19.020  41.528   5.555
 9555POPC   PO451492  19.022  41.580   5.855
 9555POPC   GL151493  19.019  41.575   6.155
 9555POPC   GL251494  18.964  41.572   6.155
 9555POPC   C1A51495  19.088  41.527   6.455
 9555POPC   D2A51496  19.071  41.548   6.755
 9555POPC   C3A51497  19.038  41.535   7.055
 9555POPC   C4A51498  19.073  41.546   7.355
 9555POPC   C1B51499  18.779  41.631   6.455
 9555POPC   C2B51500  18.793  41.603   6.755
 9555POPC   C3B51501  18.778  41.649   7.055
 9555POPC   C4B51502  18.772  41.637   7.355
 9556POPC   NC351503  36.919  38.406   5.555
 9556POPC   PO451504  36.882  38.486   5.855
 9556POPC   GL151505  36.876  38.430   6.155
 9556POPC   GL251506  37.068  38.394   6.155
 9556POPC   C1A51507  36.906  38.415   6.455
 9556POPC   D2A51508  36.947  38.466   6.755
 9556POPC   C3A51509  36.915  38.448   7.055
 9556POPC   C4A51510  36.896  38.500   7.355
 9556POPC   C1B51511  37.187  38.408   6.455
 9556POPC   C2B51512  37.153  38.399   6.755
 9556POPC   C3B51513  37.142  38.379   7.055
 9556POPC   C4B51514  37.123  38.359   7.355
 9557POPC   NC351515  38.409  44.652   5.555
 9557POPC   PO451516  38.459  44.690   5.855
 9557POPC   GL151517  38.421  44.672   6.155
 9557POPC   GL251518  38.629  44.693   6.155
 9557POPC   C1A51519  38.467  44.640   6.455
 9557POPC   D2A51520  38.478  44.698   6.755
 9557POPC   C3A51521  38.408  44.639   7.055
 9557POPC   C4A51522  38.446  44.640   7.355
 9557POPC   C1B51523  38.693  44.665   6.455
 9557POPC   C2B51524  38.693  44.633   6.755
 9557POPC   C3B51525  38.684  44.642   7.055
 9557POPC   C4B51526  38.740  44.618   7.355
 9558POPC   NC351527  18.235  39.271   5.555
 9558POPC   PO451528  18.297  39.272   5.855
 9558POPC   GL151529  18.241  39.270   6.155
 9558POPC   GL251530  18.319  39.283   6.155
 9558POPC   C1A51531  18.252  39.242   6.455
 9558POPC   D2A51532  18.270  39.195   6.755
 9558POPC   C3A51533  18.327  39.241   7.055
 9558POPC   C4A51534  18.314  39.196   7.355
 9558POPC   C1B51535  18.437  39.384   6.455
 9558POPC   C2B51536  18.396  39.386   6.755
 9558POPC   C3B51537  18.490  39.429   7.055
 9558POPC   C4B51538  18.413  39.382   7.355
 9559POPC   NC351539  36.905  44.620   5.555
 9559POPC   PO451540  36.892  44.694   5.855
 9559POPC   GL151541  36.903  44.647   6.155
 9559POPC   GL251542  36.870  44.799   6.155
 9559POPC   C1A51543  36.945  44.674   6.455
 9559POPC   D2A51544  36.900  44.655   6.755
 9559POPC   C3A51545  36.896  44.661   7.055
 9559POPC   C4A51546  36.922  44.628   7.355
 9559POPC   C1B51547  36.933  44.887   6.455
 9559POPC   C2B51548  36.945  44.941   6.755
 9559POPC   C3B51549  36.904  44.878   7.055
 9559POPC   C4B51550  36.966  44.947   7.355
 9560POPC   NC351551   4.279   6.693   5.555
 9560POPC   PO451552   4.308   6.654   5.855
 9560POPC   GL151553   4.350   6.600   6.155
 9560POPC   GL251554   4.216   6.598   6.155
 9560POPC   C1A51555   4.354   6.666   6.455
 9560POPC   D2A51556   4.334   6.682   6.755
 9560POPC   C3A51557   4.316   6.668   7.055
 9560POPC   C4A51558   4.361   6.631   7.355
 9560POPC   C1B51559   4.129   6.431   6.455
 9560POPC   C2B51560   4.138   6.444   6.755
 9560POPC   C3B51561   4.128   6.440   7.055
 9560POPC   C4B51562   4.146   6.484   7.355
 9561POPC   NC351563  17.482  36.926   5.555
 9561POPC   PO451564  17.486  36.905   5.855
 9561POPC   GL151565  17.556  36.939   6.155
 9561POPC   GL251566  17.420  36.847   6.155
 9561POPC   C1A51567  17.517  36.894   6.455
 9561POPC   D2A51568  17.517  36.928   6.755
 9561POPC   C3A51569  17.537  36.925   7.055
 9561POPC   C4A51570  17.465  36.882   7.355
 9561POPC   C1B51571  17.282  36.769   6.455
 9561POPC   C2B51572  17.282  36.763   6.755
 9561POPC   C3B51573  17.319  36.796   7.055
 9561POPC   C4B51574  17.291  36.752   7.355
 9562POPC   NC351575  25.300   4.304   5.555
 9562POPC   PO451576  25.228   4.343   5.855
 9562POPC   GL151577  25.228   4.355   6.155
 9562POPC   GL251578  25.344   4.178   6.155
 9562POPC   C1A51579  25.261   4.334   6.455
 9562POPC   D2A51580  25.311   4.300   6.755
 9562POPC   C3A51581  25.281   4.319   7.055
 9562POPC   C4A51582  25.241   4.279   7.355
 9562POPC   C1B51583  25.422   4.072   6.455
 9562POPC   C2B51584  25.431   4.103   6.755
 9562POPC   C3B51585  25.376   4.133   7.055
 9562POPC   C4B51586  25.398   4.093   7.355
 9563POPC   NC351587  32.292  15.174   5.555
 9563POPC   PO451588  32.232  15.141   5.855
 9563POPC   GL151589  32.238  15.135   6.155
 9563POPC   GL251590  32.371  15.247   6.155
 9563POPC   C1A51591  32.257  15.166   6.455
 9563POPC   D2A51592  32.206  15.220   6.755
 9563POPC   C3A51593  32.236  15.225   7.055
 9563POPC   C4A51594  32.274  15.217   7.355
 9563POPC   C1B51595  32.402  15.358   6.455
 9563POPC   C2B51596  32.435  15.317   6.755
 9563POPC   C3B51597  32.452  15.363   7.055
 9563POPC   C4B51598  32.460  15.344   7.355
 9564POPC   NC351599  12.106  15.196   5.555
 9564POPC   PO451600  12.083  15.168   5.855
 9564POPC   GL151601  12.051  15.194   6.155
 9564POPC   GL251602  12.064  15.089   6.155
 9564POPC   C1A51603  12.047  15.169   6.455
 9564POPC   D2A51604  12.085  15.152   6.755
 9564POPC   C3A51605  12.031  15.136   7.055
 9564POPC   C4A51606  12.039  15.168   7.355
 9564POPC   C1B51607  11.972  14.928   6.455
 9564POPC   C2B51608  11.951  15.008   6.755
 9564POPC   C3B51609  11.959  14.950   7.055
 9564POPC   C4B51610  11.913  14.971   7.355
 9565POPC   NC351611  12.039   1.191   5.555
 9565POPC   PO451612  12.047   1.252   5.855
 9565POPC   GL151613  12.104   1.169   6.155
 9565POPC   GL251614  12.069   1.072   6.155
 9565POPC   C1A51615  12.061   1.263   6.455
 9565POPC   D2A51616  12.079   1.242   6.755
 9565POPC   C3A51617  12.041   1.238   7.055
 9565POPC   C4A51618  12.034   1.212   7.355
 9565POPC   C1B51619  12.037   0.964   6.455
 9565POPC   C2B51620  12.007   1.001   6.755
 9565POPC   C3B51621  12.059   0.992   7.055
 9565POPC   C4B51622  12.007   0.979   7.355
 9566POPC   NC351623   8.215  17.466   5.555
 9566POPC   PO451624   8.168  17.513   5.855
 9566POPC   GL151625   8.194  17.488   6.155
 9566POPC   GL251626   8.309  17.496   6.155
 9566POPC   C1A51627   8.179  17.462   6.455
 9566POPC   D2A51628   8.147  17.517   6.755
 9566POPC   C3A51629   8.232  17.493   7.055
 9566POPC   C4A51630   8.187  17.459   7.355
 9566POPC   C1B51631   8.472  17.496   6.455
 9566POPC   C2B51632   8.466  17.507   6.755
 9566POPC   C3B51633   8.458  17.435   7.055
 9566POPC   C4B51634   8.405  17.511   7.355
 9567POPC   NC351635  37.637  19.881   5.555
 9567POPC   PO451636  37.662  19.799   5.855
 9567POPC   GL151637  37.709  19.834   6.155
 9567POPC   GL251638  37.620  19.671   6.155
 9567POPC   C1A51639  37.668  19.863   6.455
 9567POPC   D2A51640  37.654  19.825   6.755
 9567POPC   C3A51641  37.634  19.865   7.055
 9567POPC   C4A51642  37.687  19.848   7.355
 9567POPC   C1B51643  37.678  19.621   6.455
 9567POPC   C2B51644  37.582  19.635   6.755
 9567POPC   C3B51645  37.590  19.612   7.055
 9567POPC   C4B51646  37.631  19.572   7.355
 9568POPC   NC351647  40.031   7.442   5.555
 9568POPC   PO451648  39.960   7.380   5.855
 9568POPC   GL151649  39.982   7.399   6.155
 9568POPC   GL251650  39.962   7.466   6.155
 9568POPC   C1A51651  40.033   7.372   6.455
 9568POPC   D2A51652  39.960   7.390   6.755
 9568POPC   C3A51653  40.049   7.374   7.055
 9568POPC   C4A51654  40.054   7.420   7.355
 9568POPC   C1B51655  39.789   7.635   6.455
 9568POPC   C2B51656  39.847   7.616   6.755
 9568POPC   C3B51657  39.875   7.640   7.055
 9568POPC   C4B51658  39.872   7.597   7.355
 9569POPC   NC351659   8.986  33.847   5.555
 9569POPC   PO451660   8.925  33.836   5.855
 9569POPC   GL151661   8.956  33.800   6.155
 9569POPC   GL251662   8.930  33.908   6.155
 9569POPC   C1A51663   9.020  33.765   6.455
 9569POPC   D2A51664   8.997  33.759   6.755
 9569POPC   C3A51665   9.020  33.756   7.055
 9569POPC   C4A51666   9.003  33.761   7.355
 9569POPC   C1B51667   8.792  33.996   6.455
 9569POPC   C2B51668   8.779  33.989   6.755
 9569POPC   C3B51669   8.808  33.978   7.055
 9569POPC   C4B51670   8.859  34.024   7.355
 9570POPC   NC351671  34.597  40.754   5.555
 9570POPC   PO451672  34.545  40.787   5.855
 9570POPC   GL151673  34.602  40.825   6.155
 9570POPC   GL251674  34.651  40.878   6.155
 9570POPC   C1A51675  34.528  40.773   6.455
 9570POPC   D2A51676  34.539  40.790   6.755
 9570POPC   C3A51677  34.546  40.777   7.055
 9570POPC   C4A51678  34.569  40.769   7.355
 9570POPC   C1B51679  34.795  40.969   6.455
 9570POPC   C2B51680  34.811  40.924   6.755
 9570POPC   C3B51681  34.733  40.907   7.055
 9570POPC   C4B51682  34.721  40.916   7.355
 9571POPC   NC351683  27.577  43.880   5.555
 9571POPC   PO451684  27.596  43.874   5.855
 9571POPC   GL151685  27.580  43.904   6.155
 9571POPC   GL251686  27.642  44.058   6.155
 9571POPC   C1A51687  27.638  43.858   6.455
 9571POPC   D2A51688  27.561  43.897   6.755
 9571POPC   C3A51689  27.579  43.909   7.055
 9571POPC   C4A51690  27.561  43.921   7.355
 9571POPC   C1B51691  27.620  44.105   6.455
 9571POPC   C2B51692  27.575  44.111   6.755
 9571POPC   C3B51693  27.666  44.114   7.055
 9571POPC   C4B51694  27.615  44.184   7.355
 9572POPC   NC351695  13.594   6.646   5.555
 9572POPC   PO451696  13.643   6.691   5.855
 9572POPC   GL151697  13.638   6.651   6.155
 9572POPC   GL251698  13.687   6.770   6.155
 9572POPC   C1A51699  13.675   6.657   6.455
 9572POPC   D2A51700  13.618   6.624   6.755
 9572POPC   C3A51701  13.627   6.659   7.055
 9572POPC   C4A51702  13.599   6.635   7.355
 9572POPC   C1B51703  13.792   6.860   6.455
 9572POPC   C2B51704  13.800   6.801   6.755
 9572POPC   C3B51705  13.734   6.811   7.055
 9572POPC   C4B51706  13.739   6.873   7.355
 9573POPC   NC351707  20.583  32.270   5.555
 9573POPC   PO451708  20.568  32.263   5.855
 9573POPC   GL151709  20.659  32.265   6.155
 9573POPC   GL251710  20.517  32.241   6.155
 9573POPC   C1A51711  20.573  32.216   6.455
 9573POPC   D2A51712  20.655  32.250   6.755
 9573POPC   C3A51713  20.642  32.218   7.055
 9573POPC   C4A51714  20.649  32.245   7.355
 9573POPC   C1B51715  20.378  32.265   6.455
 9573POPC   C2B51716  20.336  32.290   6.755
 9573POPC   C3B51717  20.341  32.262   7.055
 9573POPC   C4B51718  20.374  32.278   7.355
 9574POPC   NC351719  27.617   6.627   5.555
 9574POPC   PO451720  27.564   6.602   5.855
 9574POPC   GL151721  27.596   6.681   6.155
 9574POPC   GL251722  27.580   6.555   6.155
 9574POPC   C1A51723  27.570   6.632   6.455
 9574POPC   D2A51724  27.544   6.609   6.755
 9574POPC   C3A51725  27.640   6.639   7.055
 9574POPC   C4A51726  27.593   6.690   7.355
 9574POPC   C1B51727  27.637   6.391   6.455
 9574POPC   C2B51728  27.641   6.400   6.755
 9574POPC   C3B51729  27.696   6.398   7.055
 9574POPC   C4B51730  27.642   6.391   7.355
 9575POPC   NC351731  36.146  19.842   5.555
 9575POPC   PO451732  36.130  19.874   5.855
 9575POPC   GL151733  36.100  19.881   6.155
 9575POPC   GL251734  36.052  19.966   6.155
 9575POPC   C1A51735  36.166  19.875   6.455
 9575POPC   D2A51736  36.174  19.787   6.755
 9575POPC   C3A51737  36.104  19.852   7.055
 9575POPC   C4A51738  36.122  19.787   7.355
 9575POPC   C1B51739  35.963  20.071   6.455
 9575POPC   C2B51740  35.936  19.986   6.755
 9575POPC   C3B51741  36.009  20.001   7.055
 9575POPC   C4B51742  36.000  20.021   7.355
 9576POPC   NC351743  17.457  18.275   5.555
 9576POPC   PO451744  17.554  18.319   5.855
 9576POPC   GL151745  17.551  18.265   6.155
 9576POPC   GL251746  17.569  18.215   6.155
 9576POPC   C1A51747  17.536  18.292   6.455
 9576POPC   D2A51748  17.547  18.250   6.755
 9576POPC   C3A51749  17.505  18.300   7.055
 9576POPC   C4A51750  17.552  18.291   7.355
 9576POPC   C1B51751  17.704  18.116   6.455
 9576POPC   C2B51752  17.703  18.163   6.755
 9576POPC   C3B51753  17.701  18.114   7.055
 9576POPC   C4B51754  17.743  18.141   7.355
 9577POPC   NC351755  41.595  26.074   5.555
 9577POPC   PO451756  41.559  26.013   5.855
 9577POPC   GL151757  41.522  25.994   6.155
 9577POPC   GL251758  41.640  26.139   6.155
 9577POPC   C1A51759  41.600  26.048   6.455
 9577POPC   D2A51760  41.584  26.027   6.755
 9577POPC   C3A51761  41.555  25.993   7.055
 9577POPC   C4A51762  41.579  26.058   7.355
 9577POPC   C1B51763  41.611  26.285   6.455
 9577POPC   C2B51764  41.633  26.286   6.755
 9577POPC   C3B51765  41.600  26.297   7.055
 9577POPC   C4B51766  41.596  26.247   7.355
 9578POPC   NC351767  41.593  12.878   5.555
 9578POPC   PO451768  41.518  12.844   5.855
 9578POPC   GL151769  41.525  12.891   6.155
 9578POPC   GL251770  41.536  13.008   6.155
 9578POPC   C1A51771  41.596  12.828   6.455
 9578POPC   D2A51772  41.581  12.852   6.755
 9578POPC   C3A51773  41.577  12.814   7.055
 9578POPC   C4A51774  41.604  12.876   7.355
 9578POPC   C1B51775  41.560  13.064   6.455
 9578POPC   C2B51776  41.608  13.106   6.755
 9578POPC   C3B51777  41.624  13.081   7.055
 9578POPC   C4B51778  41.605  13.148   7.355
 9579POPC   NC351779  19.790   5.861   5.555
 9579POPC   PO451780  19.813   5.867   5.855
 9579POPC   GL151781  19.819   5.858   6.155
 9579POPC   GL251782  19.701   5.877   6.155
 9579POPC   C1A51783  19.828   5.839   6.455
 9579POPC   D2A51784  19.871   5.889   6.755
 9579POPC   C3A51785  19.868   5.903   7.055
 9579POPC   C4A51786  19.824   5.838   7.355
 9579POPC   C1B51787  19.562   5.912   6.455
 9579POPC   C2B51788  19.575   5.939   6.755
 9579POPC   C3B51789  19.630   5.927   7.055
 9579POPC   C4B51790  19.626   5.979   7.355
 9580POPC   NC351791  27.608   1.200   5.555
 9580POPC   PO451792  27.575   1.170   5.855
 9580POPC   GL151793  27.579   1.183   6.155
 9580POPC   GL251794  27.574   1.044   6.155
 9580POPC   C1A51795  27.595   1.196   6.455
 9580POPC   D2A51796  27.632   1.169   6.755
 9580POPC   C3A51797  27.559   1.246   7.055
 9580POPC   C4A51798  27.576   1.240   7.355
 9580POPC   C1B51799  27.654   0.932   6.455
 9580POPC   C2B51800  27.654   0.977   6.755
 9580POPC   C3B51801  27.595   0.920   7.055
 9580POPC   C4B51802  27.638   0.927   7.355
 9581POPC   NC351803   8.187   8.983   5.555
 9581POPC   PO451804   8.151   8.991   5.855
 9581POPC   GL151805   8.216   8.953   6.155
 9581POPC   GL251806   8.059   8.870   6.155
 9581POPC   C1A51807   8.244   8.948   6.455
 9581POPC   D2A51808   8.165   8.984   6.755
 9581POPC   C3A51809   8.159   8.994   7.055
 9581POPC   C4A51810   8.232   8.979   7.355
 9581POPC   C1B51811   8.012   8.854   6.455
 9581POPC   C2B51812   7.958   8.809   6.755
 9581POPC   C3B51813   8.000   8.809   7.055
 9581POPC   C4B51814   7.991   8.796   7.355
 9582POPC   NC351815  43.074  22.176   5.555
 9582POPC   PO451816  43.064  22.169   5.855
 9582POPC   GL151817  43.126  22.147   6.155
 9582POPC   GL251818  42.972  22.119   6.155
 9582POPC   C1A51819  43.094  22.176   6.455
 9582POPC   D2A51820  43.136  22.208   6.755
 9582POPC   C3A51821  43.138  22.142   7.055
 9582POPC   C4A51822  43.100  22.120   7.355
 9582POPC   C1B51823  42.911  22.063   6.455
 9582POPC   C2B51824  42.828  22.137   6.755
 9582POPC   C3B51825  42.823  22.099   7.055
 9582POPC   C4B51826  42.837  22.113   7.355
 9583POPC   NC351827  11.267   2.801   5.555
 9583POPC   PO451828  11.273   2.778   5.855
 9583POPC   GL151829  11.268   2.781   6.155
 9583POPC   GL251830  11.414   2.696   6.155
 9583POPC   C1A51831  11.304   2.802   6.455
 9583POPC   D2A51832  11.323   2.753   6.755
 9583POPC   C3A51833  11.263   2.794   7.055
 9583POPC   C4A51834  11.275   2.742   7.355
 9583POPC   C1B51835  11.541   2.741   6.455
 9583POPC   C2B51836  11.534   2.726   6.755
 9583POPC   C3B51837  11.548   2.731   7.055
 9583POPC   C4B51838  11.509   2.732   7.355
 9584POPC   NC351839  14.369  25.995   5.555
 9584POPC   PO451840  14.444  26.034   5.855
 9584POPC   GL151841  14.389  26.050   6.155
 9584POPC   GL251842  14.368  26.150   6.155
 9584POPC   C1A51843  14.394  26.023   6.455
 9584POPC   D2A51844  14.391  26.079   6.755
 9584POPC   C3A51845  14.380  26.071   7.055
 9584POPC   C4A51846  14.449  26.073   7.355
 9584POPC   C1B51847  14.339  26.293   6.455
 9584POPC   C2B51848  14.425  26.280   6.755
 9584POPC   C3B51849  14.376  26.301   7.055
 9584POPC   C4B51850  14.381  26.311   7.355
 9585POPC   NC351851   4.281  33.797   5.555
 9585POPC   PO451852   4.347  33.766   5.855
 9585POPC   GL151853   4.364  33.838   6.155
 9585POPC   GL251854   4.205  33.843   6.155
 9585POPC   C1A51855   4.284  33.817   6.455
 9585POPC   D2A51856   4.282  33.759   6.755
 9585POPC   C3A51857   4.319  33.753   7.055
 9585POPC   C4A51858   4.302  33.816   7.355
 9585POPC   C1B51859   4.127  33.929   6.455
 9585POPC   C2B51860   4.116  33.922   6.755
 9585POPC   C3B51861   4.120  33.947   7.055
 9585POPC   C4B51862   4.157  33.968   7.355
 9586POPC   NC351863  31.498   6.681   5.555
 9586POPC   PO451864  31.486   6.667   5.855
 9586POPC   GL151865  31.485   6.659   6.155
 9586POPC   GL251866  31.593   6.765   6.155
 9586POPC   C1A51867  31.474   6.613   6.455
 9586POPC   D2A51868  31.483   6.646   6.755
 9586POPC   C3A51869  31.430   6.672   7.055
 9586POPC   C4A51870  31.501   6.673   7.355
 9586POPC   C1B51871  31.594   6.838   6.455
 9586POPC   C2B51872  31.667   6.843   6.755
 9586POPC   C3B51873  31.590   6.838   7.055
 9586POPC   C4B51874  31.597   6.804   7.355
 9587POPC   NC351875  25.268   2.729   5.555
 9587POPC   PO451876  25.270   2.754   5.855
 9587POPC   GL151877  25.222   2.781   6.155
 9587POPC   GL251878  25.415   2.687   6.155
 9587POPC   C1A51879  25.275   2.766   6.455
 9587POPC   D2A51880  25.273   2.772   6.755
 9587POPC   C3A51881  25.249   2.753   7.055
 9587POPC   C4A51882  25.232   2.772   7.355
 9587POPC   C1B51883  25.458   2.638   6.455
 9587POPC   C2B51884  25.539   2.705   6.755
 9587POPC   C3B51885  25.519   2.632   7.055
 9587POPC   C4B51886  25.545   2.721   7.355
 9588POPC   NC351887  23.752   2.037   5.555
 9588POPC   PO451888  23.707   1.976   5.855
 9588POPC   GL151889  23.671   2.000   6.155
 9588POPC   GL251890  23.633   2.022   6.155
 9588POPC   C1A51891  23.680   1.994   6.455
 9588POPC   D2A51892  23.759   1.992   6.755
 9588POPC   C3A51893  23.724   1.982   7.055
 9588POPC   C4A51894  23.735   1.962   7.355
 9588POPC   C1B51895  23.481   2.042   6.455
 9588POPC   C2B51896  23.473   2.050   6.755
 9588POPC   C3B51897  23.478   1.997   7.055
 9588POPC   C4B51898  23.492   2.003   7.355
 9589POPC   NC351899  25.296  36.078   5.555
 9589POPC   PO451900  25.285  36.097   5.855
 9589POPC   GL151901  25.292  36.138   6.155
 9589POPC   GL251902  25.209  36.179   6.155
 9589POPC   C1A51903  25.271  36.175   6.455
 9589POPC   D2A51904  25.306  36.109   6.755
 9589POPC   C3A51905  25.290  36.128   7.055
 9589POPC   C4A51906  25.287  36.117   7.355
 9589POPC   C1B51907  25.080  36.321   6.455
 9589POPC   C2B51908  25.123  36.288   6.755
 9589POPC   C3B51909  25.057  36.303   7.055
 9589POPC   C4B51910  25.084  36.303   7.355
 9590POPC   NC351911  32.295  41.569   5.555
 9590POPC   PO451912  32.278  41.541   5.855
 9590POPC   GL151913  32.280  41.535   6.155
 9590POPC   GL251914  32.214  41.640   6.155
 9590POPC   C1A51915  32.223  41.512   6.455
 9590POPC   D2A51916  32.239  41.560   6.755
 9590POPC   C3A51917  32.216  41.539   7.055
 9590POPC   C4A51918  32.265  41.575   7.355
 9590POPC   C1B51919  32.200  41.828   6.455
 9590POPC   C2B51920  32.141  41.787   6.755
 9590POPC   C3B51921  32.181  41.826   7.055
 9590POPC   C4B51922  32.134  41.806   7.355
 9591POPC   NC351923  30.708   1.183   5.555
 9591POPC   PO451924  30.735   1.189   5.855
 9591POPC   GL151925  30.732   1.235   6.155
 9591POPC   GL251926  30.621   1.135   6.155
 9591POPC   C1A51927  30.718   1.198   6.455
 9591POPC   D2A51928  30.676   1.190   6.755
 9591POPC   C3A51929  30.728   1.237   7.055
 9591POPC   C4A51930  30.720   1.214   7.355
 9591POPC   C1B51931  30.568   1.004   6.455
 9591POPC   C2B51932  30.582   1.022   6.755
 9591POPC   C3B51933  30.588   1.002   7.055
 9591POPC   C4B51934  30.610   0.942   7.355
 9592POPC   NC351935  25.277  32.219   5.555
 9592POPC   PO451936  25.305  32.247   5.855
 9592POPC   GL151937  25.231  32.288   6.155
 9592POPC   GL251938  25.184  32.229   6.155
 9592POPC   C1A51939  25.302  32.285   6.455
 9592POPC   D2A51940  25.302  32.199   6.755
 9592POPC   C3A51941  25.246  32.298   7.055
 9592POPC   C4A51942  25.239  32.228   7.355
 9592POPC   C1B51943  25.062  32.239   6.455
 9592POPC   C2B51944  25.035  32.306   6.755
 9592POPC   C3B51945  25.009  32.247   7.055
 9592POPC   C4B51946  25.008  32.335   7.355
 9593POPC   NC351947  44.686  26.850   5.555
 9593POPC   PO451948  44.700  26.813   5.855
 9593POPC   GL151949  44.620  26.812   6.155
 9593POPC   GL251950  44.723  26.678   6.155
 9593POPC   C1A51951  44.625  26.789   6.455
 9593POPC   D2A51952  44.630  26.819   6.755
 9593POPC   C3A51953  44.703  26.826   7.055
 9593POPC   C4A51954  44.696  26.813   7.355
 9593POPC   C1B51955  44.780  26.601   6.455
 9593POPC   C2B51956  44.711  26.618   6.755
 9593POPC   C3B51957  44.791  26.624   7.055
 9593POPC   C4B51958  44.759  26.620   7.355
 9594POPC   NC351959   8.988  12.121   5.555
 9594POPC   PO451960   8.959  12.107   5.855
 9594POPC   GL151961   8.958  12.035   6.155
 9594POPC   GL251962   9.121  12.019   6.155
 9594POPC   C1A51963   8.979  12.048   6.455
 9594POPC   D2A51964   8.931  12.107   6.755
 9594POPC   C3A51965   8.962  12.087   7.055
 9594POPC   C4A51966   8.943  12.075   7.355
 9594POPC   C1B51967   9.175  12.021   6.455
 9594POPC   C2B51968   9.174  12.060   6.755
 9594POPC   C3B51969   9.215  12.026   7.055
 9594POPC   C4B51970   9.215  12.017   7.355
 9595POPC   NC351971  23.724  38.456   5.555
 9595POPC   PO451972  23.695  38.496   5.855
 9595POPC   GL151973  23.690  38.473   6.155
 9595POPC   GL251974  23.675  38.506   6.155
 9595POPC   C1A51975  23.732  38.411   6.455
 9595POPC   D2A51976  23.722  38.488   6.755
 9595POPC   C3A51977  23.702  38.454   7.055
 9595POPC   C4A51978  23.673  38.458   7.355
 9595POPC   C1B51979  23.501  38.625   6.455
 9595POPC   C2B51980  23.517  38.636   6.755
 9595POPC   C3B51981  23.572  38.674   7.055
 9595POPC   C4B51982  23.568  38.591   7.355
 9596POPC   NC351983   2.797   2.806   5.555
 9596POPC   PO451984   2.737   2.815   5.855
 9596POPC   GL151985   2.736   2.795   6.155
 9596POPC   GL251986   2.638   2.778   6.155
 9596POPC   C1A51987   2.793   2.751   6.455
 9596POPC   D2A51988   2.793   2.761   6.755
 9596POPC   C3A51989   2.815   2.740   7.055
 9596POPC   C4A51990   2.768   2.737   7.355
 9596POPC   C1B51991   2.552   2.761   6.455
 9596POPC   C2B51992   2.482   2.789   6.755
 9596POPC   C3B51993   2.491   2.804   7.055
 9596POPC   C4B51994   2.502   2.832   7.355
 9597POPC   NC351995  44.634   6.619   5.555
 9597POPC   PO451996  44.637   6.609   5.855
 9597POPC   GL151997  44.672   6.606   6.155
 9597POPC   GL251998  44.824   6.723   6.155
 9597POPC   C1A51999  44.689   6.654   6.455
 9597POPC   D2A52000  44.629   6.597   6.755
 9597POPC   C3A52001  44.709   6.640   7.055
 9597POPC   C4A52002  44.695   6.615   7.355
 9597POPC   C1B52003  44.936   6.768   6.455
 9597POPC   C2B52004  44.927   6.801   6.755
 9597POPC   C3B52005  44.864   6.798   7.055
 9597POPC   C4B52006  44.841   6.776   7.355
 9598POPC   NC352007  33.780  16.741   5.555
 9598POPC   PO452008  33.795  16.698   5.855
 9598POPC   GL152009  33.804  16.687   6.155
 9598POPC   GL252010  33.682  16.637   6.155
 9598POPC   C1A52011  33.761  16.766   6.455
 9598POPC   D2A52012  33.762  16.707   6.755
 9598POPC   C3A52013  33.789  16.761   7.055
 9598POPC   C4A52014  33.831  16.753   7.355
 9598POPC   C1B52015  33.580  16.632   6.455
 9598POPC   C2B52016  33.544  16.597   6.755
 9598POPC   C3B52017  33.597  16.648   7.055
 9598POPC   C4B52018  33.535  16.616   7.355
 9599POPC   NC352019  38.487  26.018   5.555
 9599POPC   PO452020  38.464  26.088   5.855
 9599POPC   GL152021  38.449  26.055   6.155
 9599POPC   GL252022  38.406  25.946   6.155
 9599POPC   C1A52023  38.430  26.025   6.455
 9599POPC   D2A52024  38.481  26.089   6.755
 9599POPC   C3A52025  38.412  26.085   7.055
 9599POPC   C4A52026  38.458  26.015   7.355
 9599POPC   C1B52027  38.375  25.804   6.455
 9599POPC   C2B52028  38.428  25.847   6.755
 9599POPC   C3B52029  38.415  25.811   7.055
 9599POPC   C4B52030  38.408  25.807   7.355
 9600POPC   NC352031   8.985  18.262   5.555
 9600POPC   PO452032   9.015  18.309   5.855
 9600POPC   GL152033   8.996  18.281   6.155
 9600POPC   GL252034   9.120  18.256   6.155
 9600POPC   C1A52035   8.926  18.256   6.455
 9600POPC   D2A52036   9.009  18.291   6.755
 9600POPC   C3A52037   9.005  18.250   7.055
 9600POPC   C4A52038   8.995  18.272   7.355
 9600POPC   C1B52039   9.192  18.266   6.455
 9600POPC   C2B52040   9.214  18.283   6.755
 9600POPC   C3B52041   9.244  18.252   7.055
 9600POPC   C4B52042   9.172  18.243   7.355
 9601POPC   NC352043  22.175  32.281   5.555
 9601POPC   PO452044  22.162  32.206   5.855
 9601POPC   GL152045  22.211  32.220   6.155
 9601POPC   GL252046  22.198  32.185   6.155
 9601POPC   C1A52047  22.123  32.257   6.455
 9601POPC   D2A52048  22.189  32.214   6.755
 9601POPC   C3A52049  22.125  32.258   7.055
 9601POPC   C4A52050  22.137  32.221   7.355
 9601POPC   C1B52051  22.317  32.018   6.455
 9601POPC   C2B52052  22.281  32.041   6.755
 9601POPC   C3B52053  22.295  32.063   7.055
 9601POPC   C4B52054  22.228  32.018   7.355
 9602POPC   NC352055  26.005  15.151   5.555
 9602POPC   PO452056  26.069  15.154   5.855
 9602POPC   GL152057  26.052  15.183   6.155
 9602POPC   GL252058  26.006  15.259   6.155
 9602POPC   C1A52059  26.017  15.140   6.455
 9602POPC   D2A52060  26.084  15.171   6.755
 9602POPC   C3A52061  26.065  15.161   7.055
 9602POPC   C4A52062  26.023  15.160   7.355
 9602POPC   C1B52063  25.839  15.346   6.455
 9602POPC   C2B52064  25.917  15.330   6.755
 9602POPC   C3B52065  25.831  15.324   7.055
 9602POPC   C4B52066  25.867  15.373   7.355
 9603POPC   NC352067  43.156  40.795   5.555
 9603POPC   PO452068  43.116  40.778   5.855
 9603POPC   GL152069  43.105  40.822   6.155
 9603POPC   GL252070  43.106  40.658   6.155
 9603POPC   C1A52071  43.118  40.816   6.455
 9603POPC   D2A52072  43.099  40.826   6.755
 9603POPC   C3A52073  43.119  40.811   7.055
 9603POPC   C4A52074  43.103  40.830   7.355
 9603POPC   C1B52075  43.138  40.546   6.455
 9603POPC   C2B52076  43.161  40.518   6.755
 9603POPC   C3B52077  43.131  40.551   7.055
 9603POPC   C4B52078  43.126  40.542   7.355
 9604POPC   NC352079  29.171  12.834   5.555
 9604POPC   PO452080  29.153  12.879   5.855
 9604POPC   GL152081  29.114  12.813   6.155
 9604POPC   GL252082  29.172  12.976   6.155
 9604POPC   C1A52083  29.101  12.819   6.455
 9604POPC   D2A52084  29.179  12.849   6.755
 9604POPC   C3A52085  29.135  12.870   7.055
 9604POPC   C4A52086  29.127  12.879   7.355
 9604POPC   C1B52087  29.255  13.058   6.455
 9604POPC   C2B52088  29.320  13.108   6.755
 9604POPC   C3B52089  29.230  13.021   7.055
 9604POPC   C4B52090  29.236  13.064   7.355
 9605POPC   NC352091   8.221  12.804   5.555
 9605POPC   PO452092   8.188  12.879   5.855
 9605POPC   GL152093   8.152  12.840   6.155
 9605POPC   GL252094   8.087  12.987   6.155
 9605POPC   C1A52095   8.176  12.850   6.455
 9605POPC   D2A52096   8.155  12.899   6.755
 9605POPC   C3A52097   8.224  12.834   7.055
 9605POPC   C4A52098   8.216  12.846   7.355
 9605POPC   C1B52099   8.061  13.030   6.455
 9605POPC   C2B52100   8.019  13.050   6.755
 9605POPC   C3B52101   7.990  13.052   7.055
 9605POPC   C4B52102   8.036  13.031   7.355
 9606POPC   NC352103   5.884  27.550   5.555
 9606POPC   PO452104   5.824  27.602   5.855
 9606POPC   GL152105   5.912  27.568   6.155
 9606POPC   GL252106   5.899  27.670   6.155
 9606POPC   C1A52107   5.872  27.626   6.455
 9606POPC   D2A52108   5.887  27.610   6.755
 9606POPC   C3A52109   5.871  27.546   7.055
 9606POPC   C4A52110   5.823  27.588   7.355
 9606POPC   C1B52111   5.885  27.866   6.455
 9606POPC   C2B52112   5.958  27.814   6.755
 9606POPC   C3B52113   5.915  27.817   7.055
 9606POPC   C4B52114   5.922  27.816   7.355
 9607POPC   NC352115  29.962  44.679   5.555
 9607POPC   PO452116  29.939  44.636   5.855
 9607POPC   GL152117  29.968  44.633   6.155
 9607POPC   GL252118  29.893  44.576   6.155
 9607POPC   C1A52119  29.964  44.658   6.455
 9607POPC   D2A52120  29.884  44.701   6.755
 9607POPC   C3A52121  29.887  44.621   7.055
 9607POPC   C4A52122  29.959  44.678   7.355
 9607POPC   C1B52123  29.805  44.434   6.455
 9607POPC   C2B52124  29.723  44.463   6.755
 9607POPC   C3B52125  29.744  44.459   7.055
 9607POPC   C4B52126  29.734  44.510   7.355
 9608POPC   NC352127   5.095   5.131   5.555
 9608POPC   PO452128   5.057   5.080   5.855
 9608POPC   GL152129   5.122   5.079   6.155
 9608POPC   GL252130   4.986   5.056   6.155
 9608POPC   C1A52131   5.101   5.131   6.455
 9608POPC   D2A52132   5.087   5.137   6.755
 9608POPC   C3A52133   5.057   5.125   7.055
 9608POPC   C4A52134   5.051   5.133   7.355
 9608POPC   C1B52135   4.877   4.942   6.455
 9608POPC   C2B52136   4.859   4.966   6.755
 9608POPC   C3B52137   4.897   4.999   7.055
 9608POPC   C4B52138   4.831   4.954   7.355
 9609POPC   NC352139  28.410  16.740   5.555
 9609POPC   PO452140  28.335  16.747   5.855
 9609POPC   GL152141  28.366  16.746   6.155
 9609POPC   GL252142  28.500  16.692   6.155
 9609POPC   C1A52143  28.325  16.753   6.455
 9609POPC   D2A52144  28.407  16.721   6.755
 9609POPC   C3A52145  28.335  16.684   7.055
 9609POPC   C4A52146  28.402  16.708   7.355
 9609POPC   C1B52147  28.626  16.742   6.455
 9609POPC   C2B52148  28.570  16.750   6.755
 9609POPC   C3B52149  28.655  16.750   7.055
 9609POPC   C4B52150  28.606  16.756   7.355
 9610POPC   NC352151  43.133  39.253   5.555
 9610POPC   PO452152  43.061  39.254   5.855
 9610POPC   GL152153  43.159  39.207   6.155
 9610POPC   GL252154  42.995  39.119   6.155
 9610POPC   C1A52155  43.143  39.247   6.455
 9610POPC   D2A52156  43.082  39.237   6.755
 9610POPC   C3A52157  43.065  39.238   7.055
 9610POPC   C4A52158  43.105  39.236   7.355
 9610POPC   C1B52159  42.946  39.061   6.455
 9610POPC   C2B52160  42.971  39.077   6.755
 9610POPC   C3B52161  42.935  39.012   7.055
 9610POPC   C4B52162  42.959  38.981   7.355
 9611POPC   NC352163  43.914  12.858   5.555
 9611POPC   PO452164  43.880  12.874   5.855
 9611POPC   GL152165  43.913  12.861   6.155
 9611POPC   GL252166  44.012  12.904   6.155
 9611POPC   C1A52167  43.867  12.824   6.455
 9611POPC   D2A52168  43.842  12.836   6.755
 9611POPC   C3A52169  43.902  12.898   7.055
 9611POPC   C4A52170  43.914  12.834   7.355
 9611POPC   C1B52171  44.078  12.924   6.455
 9611POPC   C2B52172  44.126  12.958   6.755
 9611POPC   C3B52173  44.140  12.992   7.055
 9611POPC   C4B52174  44.073  12.977   7.355
 9612POPC   NC352175  14.425   2.773   5.555
 9612POPC   PO452176  14.383   2.810   5.855
 9612POPC   GL152177  14.446   2.808   6.155
 9612POPC   GL252178  14.379   2.653   6.155
 9612POPC   C1A52179  14.354   2.721   6.455
 9612POPC   D2A52180  14.415   2.717   6.755
 9612POPC   C3A52181  14.438   2.725   7.055
 9612POPC   C4A52182  14.364   2.813   7.355
 9612POPC   C1B52183  14.367   2.550   6.455
 9612POPC   C2B52184  14.431   2.540   6.755
 9612POPC   C3B52185  14.422   2.535   7.055
 9612POPC   C4B52186  14.363   2.557   7.355
 9613POPC   NC352187   9.727   9.013   5.555
 9613POPC   PO452188   9.786   8.972   5.855
 9613POPC   GL152189   9.771   9.019   6.155
 9613POPC   GL252190   9.658   8.964   6.155
 9613POPC   C1A52191   9.775   9.021   6.455
 9613POPC   D2A52192   9.761   9.004   6.755
 9613POPC   C3A52193   9.796   8.966   7.055
 9613POPC   C4A52194   9.736   8.929   7.355
 9613POPC   C1B52195   9.549   8.904   6.455
 9613POPC   C2B52196   9.551   8.896   6.755
 9613POPC   C3B52197   9.481   8.905   7.055
 9613POPC   C4B52198   9.494   8.921   7.355
 9614POPC   NC352199   6.660  16.692   5.555
 9614POPC   PO452200   6.685  16.754   5.855
 9614POPC   GL152201   6.686  16.764   6.155
 9614POPC   GL252202   6.814  16.740   6.155
 9614POPC   C1A52203   6.663  16.723   6.455
 9614POPC   D2A52204   6.667  16.758   6.755
 9614POPC   C3A52205   6.611  16.768   7.055
 9614POPC   C4A52206   6.627  16.684   7.355
 9614POPC   C1B52207   6.900  16.778   6.455
 9614POPC   C2B52208   6.914  16.812   6.755
 9614POPC   C3B52209   6.852  16.789   7.055
 9614POPC   C4B52210   6.920  16.819   7.355
 9615POPC   NC352211  13.671  37.724   5.555
 9615POPC   PO452212  13.658  37.726   5.855
 9615POPC   GL152213  13.641  37.682   6.155
 9615POPC   GL252214  13.517  37.669   6.155
 9615POPC   C1A52215  13.659  37.712   6.455
 9615POPC   D2A52216  13.648  37.707   6.755
 9615POPC   C3A52217  13.655  37.718   7.055
 9615POPC   C4A52218  13.588  37.709   7.355
 9615POPC   C1B52219  13.344  37.643   6.455
 9615POPC   C2B52220  13.431  37.621   6.755
 9615POPC   C3B52221  13.430  37.623   7.055
 9615POPC   C4B52222  13.379  37.616   7.355
 9616POPC   NC352223  16.734   6.694   5.555
 9616POPC   PO452224  16.715   6.598   5.855
 9616POPC   GL152225  16.741   6.672   6.155
 9616POPC   GL252226  16.810   6.683   6.155
 9616POPC   C1A52227  16.712   6.665   6.455
 9616POPC   D2A52228  16.715   6.616   6.755
 9616POPC   C3A52229  16.694   6.679   7.055
 9616POPC   C4A52230  16.730   6.675   7.355
 9616POPC   C1B52231  17.010   6.670   6.455
 9616POPC   C2B52232  16.947   6.660   6.755
 9616POPC   C3B52233  17.018   6.657   7.055
 9616POPC   C4B52234  16.956   6.574   7.355
 9617POPC   NC352235  25.235  25.245   5.555
 9617POPC   PO452236  25.241  25.225   5.855
 9617POPC   GL152237  25.314  25.298   6.155
 9617POPC   GL252238  25.291  25.194   6.155
 9617POPC   C1A52239  25.308  25.268   6.455
 9617POPC   D2A52240  25.217  25.272   6.755
 9617POPC   C3A52241  25.258  25.278   7.055
 9617POPC   C4A52242  25.305  25.254   7.355
 9617POPC   C1B52243  25.410  25.026   6.455
 9617POPC   C2B52244  25.446  25.089   6.755
 9617POPC   C3B52245  25.388  25.081   7.055
 9617POPC   C4B52246  25.364  25.040   7.355
 9618POPC   NC352247  18.278  35.333   5.555
 9618POPC   PO452248  18.258  35.334   5.855
 9618POPC   GL152249  18.283  35.326   6.155
 9618POPC   GL252250  18.448  35.320   6.155
 9618POPC   C1A52251  18.303  35.347   6.455
 9618POPC   D2A52252  18.301  35.380   6.755
 9618POPC   C3A52253  18.305  35.324   7.055
 9618POPC   C4A52254  18.300  35.343   7.355
 9618POPC   C1B52255  18.481  35.367   6.455
 9618POPC   C2B52256  18.544  35.384   6.755
 9618POPC   C3B52257  18.500  35.382   7.055
 9618POPC   C4B52258  18.549  35.366   7.355
 9619POPC   NC352259   5.095  36.945   5.555
 9619POPC   PO452260   5.050  36.861   5.855
 9619POPC   GL152261   5.107  36.928   6.155
 9619POPC   GL252262   4.939  36.974   6.155
 9619POPC   C1A52263   5.111  36.951   6.455
 9619POPC   D2A52264   5.060  36.945   6.755
 9619POPC   C3A52265   5.130  36.934   7.055
 9619POPC   C4A52266   5.083  36.913   7.355
 9619POPC   C1B52267   4.893  37.059   6.455
 9619POPC   C2B52268   4.828  36.990   6.755
 9619POPC   C3B52269   4.837  37.066   7.055
 9619POPC   C4B52270   4.862  37.033   7.355
 9620POPC   NC352271  12.853  14.355   5.555
 9620POPC   PO452272  12.854  14.361   5.855
 9620POPC   GL152273  12.868  14.371   6.155
 9620POPC   GL252274  12.747  14.470   6.155
 9620POPC   C1A52275  12.809  14.390   6.455
 9620POPC   D2A52276  12.886  14.444   6.755
 9620POPC   C3A52277  12.829  14.371   7.055
 9620POPC   C4A52278  12.845  14.426   7.355
 9620POPC   C1B52279  12.783  14.659   6.455
 9620POPC   C2B52280  12.745  14.595   6.755
 9620POPC   C3B52281  12.754  14.641   7.055
 9620POPC   C4B52282  12.765  14.611   7.355
 9621POPC   NC352283  36.148  18.307   5.555
 9621POPC   PO452284  36.089  18.324   5.855
 9621POPC   GL152285  36.159  18.326   6.155
 9621POPC   GL252286  36.139  18.155   6.155
 9621POPC   C1A52287  36.178  18.302   6.455
 9621POPC   D2A52288  36.168  18.311   6.755
 9621POPC   C3A52289  36.122  18.247   7.055
 9621POPC   C4A52290  36.126  18.246   7.355
 9621POPC   C1B52291  36.181  18.002   6.455
 9621POPC   C2B52292  36.198  17.999   6.755
 9621POPC   C3B52293  36.166  18.038   7.055
 9621POPC   C4B52294  36.122  18.011   7.355
 9622POPC   NC352295   9.723  42.369   5.555
 9622POPC   PO452296   9.796  42.322   5.855
 9622POPC   GL152297   9.721  42.319   6.155
 9622POPC   GL252298   9.841  42.300   6.155
 9622POPC   C1A52299   9.744  42.294   6.455
 9622POPC   D2A52300   9.740  42.329   6.755
 9622POPC   C3A52301   9.713  42.329   7.055
 9622POPC   C4A52302   9.769  42.291   7.355
 9622POPC   C1B52303   9.973  42.348   6.455
 9622POPC   C2B52304  10.043  42.335   6.755
 9622POPC   C3B52305  10.012  42.319   7.055
 9622POPC   C4B52306  10.036  42.325   7.355
 9623POPC   NC352307   2.720   8.225   5.555
 9623POPC   PO452308   2.774   8.180   5.855
 9623POPC   GL152309   2.747   8.199   6.155
 9623POPC   GL252310   2.865   8.270   6.155
 9623POPC   C1A52311   2.745   8.195   6.455
 9623POPC   D2A52312   2.804   8.241   6.755
 9623POPC   C3A52313   2.728   8.159   7.055
 9623POPC   C4A52314   2.721   8.210   7.355
 9623POPC   C1B52315   2.859   8.406   6.455
 9623POPC   C2B52316   2.891   8.447   6.755
 9623POPC   C3B52317   2.856   8.392   7.055
 9623POPC   C4B52318   2.890   8.381   7.355
 9624POPC   NC352319  40.775  28.339   5.555
 9624POPC   PO452320  40.768  28.416   5.855
 9624POPC   GL152321  40.798  28.329   6.155
 9624POPC   GL252322  40.710  28.530   6.155
 9624POPC   C1A52323  40.757  28.324   6.455
 9624POPC   D2A52324  40.828  28.379   6.755
 9624POPC   C3A52325  40.770  28.333   7.055
 9624POPC   C4A52326  40.789  28.392   7.355
 9624POPC   C1B52327  40.754  28.625   6.455
 9624POPC   C2B52328  40.712  28.574   6.755
 9624POPC   C3B52329  40.721  28.592   7.055
 9624POPC   C4B52330  40.666  28.579   7.355
 9625POPC   NC352331  13.580  32.982   5.555
 9625POPC   PO452332  13.597  32.977   5.855
 9625POPC   GL152333  13.665  33.028   6.155
 9625POPC   GL252334  13.519  33.179   6.155
 9625POPC   C1A52335  13.640  32.992   6.455
 9625POPC   D2A52336  13.599  32.991   6.755
 9625POPC   C3A52337  13.621  33.066   7.055
 9625POPC   C4A52338  13.593  33.030   7.355
 9625POPC   C1B52339  13.531  33.262   6.455
 9625POPC   C2B52340  13.519  33.232   6.755
 9625POPC   C3B52341  13.540  33.287   7.055
 9625POPC   C4B52342  13.489  33.243   7.355
 9626POPC   NC352343  29.112  14.400   5.555
 9626POPC   PO452344  29.150  14.360   5.855
 9626POPC   GL152345  29.097  14.445   6.155
 9626POPC   GL252346  29.262  14.437   6.155
 9626POPC   C1A52347  29.184  14.402   6.455
 9626POPC   D2A52348  29.169  14.410   6.755
 9626POPC   C3A52349  29.154  14.366   7.055
 9626POPC   C4A52350  29.131  14.412   7.355
 9626POPC   C1B52351  29.350  14.482   6.455
 9626POPC   C2B52352  29.389  14.493   6.755
 9626POPC   C3B52353  29.321  14.542   7.055
 9626POPC   C4B52354  29.382  14.517   7.355
 9627POPC   NC352355  11.346  27.567   5.555
 9627POPC   PO452356  11.255  27.642   5.855
 9627POPC   GL152357  11.261  27.633   6.155
 9627POPC   GL252358  11.144  27.627   6.155
 9627POPC   C1A52359  11.349  27.641   6.455
 9627POPC   D2A52360  11.265  27.567   6.755
 9627POPC   C3A52361  11.309  27.577   7.055
 9627POPC   C4A52362  11.286  27.589   7.355
 9627POPC   C1B52363  11.110  27.665   6.455
 9627POPC   C2B52364  11.095  27.718   6.755
 9627POPC   C3B52365  11.065  27.681   7.055
 9627POPC   C4B52366  11.091  27.660   7.355
 9628POPC   NC352367  20.643  31.468   5.555
 9628POPC   PO452368  20.626  31.424   5.855
 9628POPC   GL152369  20.652  31.477   6.155
 9628POPC   GL252370  20.618  31.387   6.155
 9628POPC   C1A52371  20.633  31.511   6.455
 9628POPC   D2A52372  20.629  31.488   6.755
 9628POPC   C3A52373  20.646  31.481   7.055
 9628POPC   C4A52374  20.656  31.495   7.355
 9628POPC   C1B52375  20.759  31.264   6.455
 9628POPC   C2B52376  20.704  31.279   6.755
 9628POPC   C3B52377  20.760  31.202   7.055
 9628POPC   C4B52378  20.683  31.269   7.355
 9629POPC   NC352379  35.342  41.520   5.555
 9629POPC   PO452380  35.366  41.539   5.855
 9629POPC   GL152381  35.396  41.513   6.155
 9629POPC   GL252382  35.497  41.504   6.155
 9629POPC   C1A52383  35.315  41.588   6.455
 9629POPC   D2A52384  35.313  41.542   6.755
 9629POPC   C3A52385  35.365  41.548   7.055
 9629POPC   C4A52386  35.308  41.573   7.355
 9629POPC   C1B52387  35.590  41.373   6.455
 9629POPC   C2B52388  35.522  41.371   6.755
 9629POPC   C3B52389  35.518  41.451   7.055
 9629POPC   C4B52390  35.538  41.394   7.355
 9630POPC   NC352391  19.878  31.447   5.555
 9630POPC   PO452392  19.811  31.439   5.855
 9630POPC   GL152393  19.884  31.469   6.155
 9630POPC   GL252394  19.917  31.341   6.155
 9630POPC   C1A52395  19.787  31.428   6.455
 9630POPC   D2A52396  19.848  31.513   6.755
 9630POPC   C3A52397  19.878  31.495   7.055
 9630POPC   C4A52398  19.795  31.495   7.355
 9630POPC   C1B52399  19.933  31.201   6.455
 9630POPC   C2B52400  19.873  31.191   6.755
 9630POPC   C3B52401  19.906  31.244   7.055
 9630POPC   C4B52402  19.879  31.185   7.355
 9631POPC   NC352403  23.732  14.357   5.555
 9631POPC   PO452404  23.754  14.389   5.855
 9631POPC   GL152405  23.722  14.434   6.155
 9631POPC   GL252406  23.849  14.294   6.155
 9631POPC   C1A52407  23.676  14.394   6.455
 9631POPC   D2A52408  23.678  14.355   6.755
 9631POPC   C3A52409  23.687  14.452   7.055
 9631POPC   C4A52410  23.680  14.365   7.355
 9631POPC   C1B52411  23.930  14.276   6.455
 9631POPC   C2B52412  23.881  14.287   6.755
 9631POPC   C3B52413  23.899  14.270   7.055
 9631POPC   C4B52414  23.879  14.274   7.355
 9632POPC   NC352415  27.630   0.465   5.555
 9632POPC   PO452416  27.622   0.415   5.855
 9632POPC   GL152417  27.600   0.428   6.155
 9632POPC   GL252418  27.636   0.526   6.155
 9632POPC   C1A52419  27.632   0.407   6.455
 9632POPC   D2A52420  27.564   0.442   6.755
 9632POPC   C3A52421  27.569   0.394   7.055
 9632POPC   C4A52422  27.552   0.474   7.355
 9632POPC   C1B52423  27.696   0.595   6.455
 9632POPC   C2B52424  27.697   0.685   6.755
 9632POPC   C3B52425  27.751   0.633   7.055
 9632POPC   C4B52426  27.702   0.652   7.355
 9633POPC   NC352427  20.586  29.915   5.555
 9633POPC   PO452428  20.587  29.894   5.855
 9633POPC   GL152429  20.600  29.925   6.155
 9633POPC   GL252430  20.541  30.025   6.155
 9633POPC   C1A52431  20.646  29.935   6.455
 9633POPC   D2A52432  20.585  29.903   6.755
 9633POPC   C3A52433  20.650  29.956   7.055
 9633POPC   C4A52434  20.610  29.877   7.355
 9633POPC   C1B52435  20.408  30.100   6.455
 9633POPC   C2B52436  20.382  30.096   6.755
 9633POPC   C3B52437  20.390  30.063   7.055
 9633POPC   C4B52438  20.447  30.050   7.355
 9634POPC   NC352439  26.022  15.974   5.555
 9634POPC   PO452440  26.063  15.997   5.855
 9634POPC   GL152441  26.035  15.947   6.155
 9634POPC   GL252442  26.184  16.014   6.155
 9634POPC   C1A52443  26.078  15.967   6.455
 9634POPC   D2A52444  25.999  15.939   6.755
 9634POPC   C3A52445  26.001  15.954   7.055
 9634POPC   C4A52446  26.043  15.926   7.355
 9634POPC   C1B52447  26.335  15.988   6.455
 9634POPC   C2B52448  26.304  16.002   6.755
 9634POPC   C3B52449  26.297  16.002   7.055
 9634POPC   C4B52450  26.285  16.004   7.355
 9635POPC   NC352451  26.027  35.350   5.555
 9635POPC   PO452452  26.019  35.371   5.855
 9635POPC   GL152453  26.041  35.376   6.155
 9635POPC   GL252454  25.902  35.320   6.155
 9635POPC   C1A52455  26.000  35.375   6.455
 9635POPC   D2A52456  26.067  35.389   6.755
 9635POPC   C3A52457  26.064  35.314   7.055
 9635POPC   C4A52458  26.039  35.344   7.355
 9635POPC   C1B52459  25.799  35.331   6.455
 9635POPC   C2B52460  25.752  35.329   6.755
 9635POPC   C3B52461  25.782  35.353   7.055
 9635POPC   C4B52462  25.800  35.299   7.355
 9636POPC   NC352463  21.405  15.912   5.555
 9636POPC   PO452464  21.395  15.966   5.855
 9636POPC   GL152465  21.387  15.971   6.155
 9636POPC   GL252466  21.306  15.891   6.155
 9636POPC   C1A52467  21.397  15.962   6.455
 9636POPC   D2A52468  21.355  15.926   6.755
 9636POPC   C3A52469  21.413  15.970   7.055
 9636POPC   C4A52470  21.436  15.969   7.355
 9636POPC   C1B52471  21.250  15.721   6.455
 9636POPC   C2B52472  21.257  15.759   6.755
 9636POPC   C3B52473  21.217  15.775   7.055
 9636POPC   C4B52474  21.263  15.737   7.355
 9637POPC   NC352475  29.925   0.422   5.555
 9637POPC   PO452476  29.966   0.420   5.855
 9637POPC   GL152477  29.935   0.410   6.155
 9637POPC   GL252478  29.773   0.452   6.155
 9637POPC   C1A52479  29.968   0.404   6.455
 9637POPC   D2A52480  29.921   0.391   6.755
 9637POPC   C3A52481  29.951   0.401   7.055
 9637POPC   C4A52482  29.906   0.430   7.355
 9637POPC   C1B52483  29.630   0.373   6.455
 9637POPC   C2B52484  29.658   0.397   6.755
 9637POPC   C3B52485  29.705   0.437   7.055
 9637POPC   C4B52486  29.671   0.366   7.355
 9638POPC   NC352487  30.694   5.135   5.555
 9638POPC   PO452488  30.694   5.048   5.855
 9638POPC   GL152489  30.669   5.109   6.155
 9638POPC   GL252490  30.806   5.208   6.155
 9638POPC   C1A52491  30.723   5.138   6.455
 9638POPC   D2A52492  30.669   5.123   6.755
 9638POPC   C3A52493  30.739   5.060   7.055
 9638POPC   C4A52494  30.706   5.048   7.355
 9638POPC   C1B52495  30.829   5.305   6.455
 9638POPC   C2B52496  30.889   5.328   6.755
 9638POPC   C3B52497  30.799   5.332   7.055
 9638POPC   C4B52498  30.856   5.300   7.355
 9639POPC   NC352499  30.660  33.763   5.555
 9639POPC   PO452500  30.648  33.768   5.855
 9639POPC   GL152501  30.707  33.823   6.155
 9639POPC   GL252502  30.545  33.752   6.155
 9639POPC   C1A52503  30.725  33.768   6.455
 9639POPC   D2A52504  30.666  33.785   6.755
 9639POPC   C3A52505  30.701  33.837   7.055
 9639POPC   C4A52506  30.745  33.823   7.355
 9639POPC   C1B52507  30.453  33.673   6.455
 9639POPC   C2B52508  30.499  33.709   6.755
 9639POPC   C3B52509  30.443  33.704   7.055
 9639POPC   C4B52510  30.524  33.622   7.355
 9640POPC   NC352511   0.433  25.306   5.555
 9640POPC   PO452512   0.486  25.296   5.855
 9640POPC   GL152513   0.396  25.274   6.155
 9640POPC   GL252514   0.344  25.279   6.155
 9640POPC   C1A52515   0.486  25.258   6.455
 9640POPC   D2A52516   0.432  25.312   6.755
 9640POPC   C3A52517   0.446  25.287   7.055
 9640POPC   C4A52518   0.416  25.235   7.355
 9640POPC   C1B52519   0.228  25.210   6.455
 9640POPC   C2B52520   0.185  25.216   6.755
 9640POPC   C3B52521   0.168  25.176   7.055
 9640POPC   C4B52522   0.237  25.177   7.355
 9641POPC   NC352523  36.112  22.973   5.555
 9641POPC   PO452524  36.151  22.960   5.855
 9641POPC   GL152525  36.172  22.982   6.155
 9641POPC   GL252526  36.212  23.002   6.155
 9641POPC   C1A52527  36.124  22.904   6.455
 9641POPC   D2A52528  36.105  22.937   6.755
 9641POPC   C3A52529  36.140  22.986   7.055
 9641POPC   C4A52530  36.102  22.985   7.355
 9641POPC   C1B52531  36.304  23.117   6.455
 9641POPC   C2B52532  36.314  23.141   6.755
 9641POPC   C3B52533  36.297  23.071   7.055
 9641POPC   C4B52534  36.277  23.083   7.355
 9642POPC   NC352535  31.459   8.195   5.555
 9642POPC   PO452536  31.495   8.165   5.855
 9642POPC   GL152537  31.503   8.220   6.155
 9642POPC   GL252538  31.557   8.103   6.155
 9642POPC   C1A52539  31.501   8.177   6.455
 9642POPC   D2A52540  31.442   8.220   6.755
 9642POPC   C3A52541  31.445   8.167   7.055
 9642POPC   C4A52542  31.456   8.196   7.355
 9642POPC   C1B52543  31.591   7.938   6.455
 9642POPC   C2B52544  31.602   7.962   6.755
 9642POPC   C3B52545  31.561   7.983   7.055
 9642POPC   C4B52546  31.583   7.991   7.355
 9643POPC   NC352547  39.215  25.996   5.555
 9643POPC   PO452548  39.201  26.047   5.855
 9643POPC   GL152549  39.209  26.075   6.155
 9643POPC   GL252550  39.297  25.946   6.155
 9643POPC   C1A52551  39.196  26.008   6.455
 9643POPC   D2A52552  39.213  26.085   6.755
 9643POPC   C3A52553  39.190  26.065   7.055
 9643POPC   C4A52554  39.251  25.993   7.355
 9643POPC   C1B52555  39.385  25.817   6.455
 9643POPC   C2B52556  39.381  25.818   6.755
 9643POPC   C3B52557  39.339  25.826   7.055
 9643POPC   C4B52558  39.390  25.790   7.355
 9644POPC   NC352559  13.665  28.337   5.555
 9644POPC   PO452560  13.674  28.402   5.855
 9644POPC   GL152561  13.587  28.398   6.155
 9644POPC   GL252562  13.607  28.481   6.155
 9644POPC   C1A52563  13.581  28.361   6.455
 9644POPC   D2A52564  13.649  28.418   6.755
 9644POPC   C3A52565  13.596  28.332   7.055
 9644POPC   C4A52566  13.629  28.378   7.355
 9644POPC   C1B52567  13.546  28.633   6.455
 9644POPC   C2B52568  13.545  28.623   6.755
 9644POPC   C3B52569  13.548  28.578   7.055
 9644POPC   C4B52570  13.519  28.608   7.355
 9645POPC   NC352571  33.847  38.427   5.555
 9645POPC   PO452572  33.812  38.416   5.855
 9645POPC   GL152573  33.849  38.436   6.155
 9645POPC   GL252574  33.813  38.599   6.155
 9645POPC   C1A52575  33.764  38.442   6.455
 9645POPC   D2A52576  33.752  38.411   6.755
 9645POPC   C3A52577  33.813  38.440   7.055
 9645POPC   C4A52578  33.772  38.471   7.355
 9645POPC   C1B52579  33.773  38.707   6.455
 9645POPC   C2B52580  33.825  38.701   6.755
 9645POPC   C3B52581  33.818  38.726   7.055
 9645POPC   C4B52582  33.809  38.697   7.355
 9646POPC   NC352583  34.580  15.988   5.555
 9646POPC   PO452584  34.615  15.917   5.855
 9646POPC   GL152585  34.611  15.907   6.155
 9646POPC   GL252586  34.661  15.956   6.155
 9646POPC   C1A52587  34.548  15.981   6.455
 9646POPC   D2A52588  34.591  15.960   6.755
 9646POPC   C3A52589  34.597  15.957   7.055
 9646POPC   C4A52590  34.590  15.915   7.355
 9646POPC   C1B52591  34.794  15.982   6.455
 9646POPC   C2B52592  34.815  15.986   6.755
 9646POPC   C3B52593  34.850  15.974   7.055
 9646POPC   C4B52594  34.859  15.973   7.355
 9647POPC   NC352595  41.605  36.861   5.555
 9647POPC   PO452596  41.519  36.927   5.855
 9647POPC   GL152597  41.566  36.905   6.155
 9647POPC   GL252598  41.626  36.992   6.155
 9647POPC   C1A52599  41.544  36.901   6.455
 9647POPC   D2A52600  41.569  36.915   6.755
 9647POPC   C3A52601  41.525  36.885   7.055
 9647POPC   C4A52602  41.540  36.884   7.355
 9647POPC   C1B52603  41.705  37.152   6.455
 9647POPC   C2B52604  41.662  37.143   6.755
 9647POPC   C3B52605  41.708  37.122   7.055
 9647POPC   C4B52606  41.685  37.105   7.355
 9648POPC   NC352607  12.093  19.071   5.555
 9648POPC   PO452608  12.089  19.028   5.855
 9648POPC   GL152609  12.046  19.064   6.155
 9648POPC   GL252610  12.197  19.090   6.155
 9648POPC   C1A52611  12.062  19.029   6.455
 9648POPC   D2A52612  12.052  19.041   6.755
 9648POPC   C3A52613  12.056  19.097   7.055
 9648POPC   C4A52614  12.082  19.074   7.355
 9648POPC   C1B52615  12.348  19.039   6.455
 9648POPC   C2B52616  12.298  18.996   6.755
 9648POPC   C3B52617  12.319  19.001   7.055
 9648POPC   C4B52618  12.322  19.027   7.355
 9649POPC   NC352619  31.482  29.155   5.555
 9649POPC   PO452620  31.464  29.108   5.855
 9649POPC   GL152621  31.482  29.168   6.155
 9649POPC   GL252622  31.452  29.306   6.155
 9649POPC   C1A52623  31.496  29.138   6.455
 9649POPC   D2A52624  31.495  29.124   6.755
 9649POPC   C3A52625  31.471  29.110   7.055
 9649POPC   C4A52626  31.458  29.157   7.355
 9649POPC   C1B52627  31.468  29.367   6.455
 9649POPC   C2B52628  31.490  29.393   6.755
 9649POPC   C3B52629  31.391  29.377   7.055
 9649POPC   C4B52630  31.483  29.378   7.355
 9650POPC   NC352631  43.869  36.099   5.555
 9650POPC   PO452632  43.866  36.138   5.855
 9650POPC   GL152633  43.921  36.119   6.155
 9650POPC   GL252634  43.739  36.149   6.155
 9650POPC   C1A52635  43.873  36.176   6.455
 9650POPC   D2A52636  43.868  36.100   6.755
 9650POPC   C3A52637  43.849  36.142   7.055
 9650POPC   C4A52638  43.883  36.109   7.355
 9650POPC   C1B52639  43.626  36.119   6.455
 9650POPC   C2B52640  43.593  36.136   6.755
 9650POPC   C3B52641  43.679  36.080   7.055
 9650POPC   C4B52642  43.653  36.127   7.355
 9651POPC   NC352643  27.558  16.002   5.555
 9651POPC   PO452644  27.568  15.943   5.855
 9651POPC   GL152645  27.550  15.952   6.155
 9651POPC   GL252646  27.469  15.922   6.155
 9651POPC   C1A52647  27.622  15.952   6.455
 9651POPC   D2A52648  27.577  15.965   6.755
 9651POPC   C3A52649  27.546  15.923   7.055
 9651POPC   C4A52650  27.565  15.940   7.355
 9651POPC   C1B52651  27.353  15.842   6.455
 9651POPC   C2B52652  27.368  15.850   6.755
 9651POPC   C3B52653  27.365  15.853   7.055
 9651POPC   C4B52654  27.372  15.904   7.355
 9652POPC   NC352655  11.273  12.807   5.555
 9652POPC   PO452656  11.347  12.832   5.855
 9652POPC   GL152657  11.291  12.830   6.155
 9652POPC   GL252658  11.411  12.951   6.155
 9652POPC   C1A52659  11.317  12.874   6.455
 9652POPC   D2A52660  11.277  12.841   6.755
 9652POPC   C3A52661  11.344  12.815   7.055
 9652POPC   C4A52662  11.288  12.851   7.355
 9652POPC   C1B52663  11.550  12.966   6.455
 9652POPC   C2B52664  11.457  12.973   6.755
 9652POPC   C3B52665  11.516  13.025   7.055
 9652POPC   C4B52666  11.462  13.005   7.355
 9653POPC   NC352667  16.730  39.279   5.555
 9653POPC   PO452668  16.696  39.207   5.855
 9653POPC   GL152669  16.752  39.256   6.155
 9653POPC   GL252670  16.661  39.201   6.155
 9653POPC   C1A52671  16.708  39.247   6.455
 9653POPC   D2A52672  16.693  39.256   6.755
 9653POPC   C3A52673  16.721  39.182   7.055
 9653POPC   C4A52674  16.748  39.275   7.355
 9653POPC   C1B52675  16.538  39.072   6.455
 9653POPC   C2B52676  16.505  39.028   6.755
 9653POPC   C3B52677  16.522  39.110   7.055
 9653POPC   C4B52678  16.487  39.078   7.355
 9654POPC   NC352679  29.190  26.840   5.555
 9654POPC   PO452680  29.181  26.790   5.855
 9654POPC   GL152681  29.182  26.778   6.155
 9654POPC   GL252682  29.141  26.653   6.155
 9654POPC   C1A52683  29.115  26.829   6.455
 9654POPC   D2A52684  29.134  26.791   6.755
 9654POPC   C3A52685  29.187  26.817   7.055
 9654POPC   C4A52686  29.108  26.832   7.355
 9654POPC   C1B52687  29.251  26.565   6.455
 9654POPC   C2B52688  29.184  26.557   6.755
 9654POPC   C3B52689  29.220  26.598   7.055
 9654POPC   C4B52690  29.209  26.621   7.355
 9655POPC   NC352691   7.464  42.299   5.555
 9655POPC   PO452692   7.374  42.370   5.855
 9655POPC   GL152693   7.404  42.346   6.155
 9655POPC   GL252694   7.564  42.252   6.155
 9655POPC   C1A52695   7.438  42.334   6.455
 9655POPC   D2A52696   7.374  42.305   6.755
 9655POPC   C3A52697   7.464  42.298   7.055
 9655POPC   C4A52698   7.402  42.346   7.355
 9655POPC   C1B52699   7.663  42.206   6.455
 9655POPC   C2B52700   7.578  42.217   6.755
 9655POPC   C3B52701   7.632  42.141   7.055
 9655POPC   C4B52702   7.576  42.183   7.355
 9656POPC   NC352703  29.880  12.058   5.555
 9656POPC   PO452704  29.965  12.110   5.855
 9656POPC   GL152705  29.901  12.072   6.155
 9656POPC   GL252706  30.032  11.964   6.155
 9656POPC   C1A52707  29.947  12.091   6.455
 9656POPC   D2A52708  29.962  12.101   6.755
 9656POPC   C3A52709  29.963  12.056   7.055
 9656POPC   C4A52710  29.913  12.053   7.355
 9656POPC   C1B52711  30.102  11.956   6.455
 9656POPC   C2B52712  30.148  11.890   6.755
 9656POPC   C3B52713  30.076  11.918   7.055
 9656POPC   C4B52714  30.123  11.927   7.355
 9657POPC   NC352715  10.480  39.985   5.555
 9657POPC   PO452716  10.567  40.010   5.855
 9657POPC   GL152717  10.566  40.012   6.155
 9657POPC   GL252718  10.515  39.935   6.155
 9657POPC   C1A52719  10.491  39.965   6.455
 9657POPC   D2A52720  10.550  39.996   6.755
 9657POPC   C3A52721  10.523  39.986   7.055
 9657POPC   C4A52722  10.499  40.031   7.355
 9657POPC   C1B52723  10.402  39.826   6.455
 9657POPC   C2B52724  10.408  39.737   6.755
 9657POPC   C3B52725  10.376  39.818   7.055
 9657POPC   C4B52726  10.431  39.758   7.355
 9658POPC   NC352727  20.562  17.551   5.555
 9658POPC   PO452728  20.659  17.552   5.855
 9658POPC   GL152729  20.613  17.514   6.155
 9658POPC   GL252730  20.692  17.484   6.155
 9658POPC   C1A52731  20.642  17.482   6.455
 9658POPC   D2A52732  20.584  17.460   6.755
 9658POPC   C3A52733  20.579  17.529   7.055
 9658POPC   C4A52734  20.616  17.483   7.355
 9658POPC   C1B52735  20.802  17.412   6.455
 9658POPC   C2B52736  20.862  17.362   6.755
 9658POPC   C3B52737  20.853  17.407   7.055
 9658POPC   C4B52738  20.849  17.452   7.355
 9659POPC   NC352739   4.339   5.874   5.555
 9659POPC   PO452740   4.331   5.888   5.855
 9659POPC   GL152741   4.326   5.886   6.155
 9659POPC   GL252742   4.390   6.018   6.155
 9659POPC   C1A52743   4.340   5.890   6.455
 9659POPC   D2A52744   4.366   5.900   6.755
 9659POPC   C3A52745   4.309   5.842   7.055
 9659POPC   C4A52746   4.367   5.871   7.355
 9659POPC   C1B52747   4.481   6.021   6.455
 9659POPC   C2B52748   4.456   6.074   6.755
 9659POPC   C3B52749   4.461   6.062   7.055
 9659POPC   C4B52750   4.487   6.062   7.355
 9660POPC   NC352751  36.922  20.604   5.555
 9660POPC   PO452752  36.951  20.634   5.855
 9660POPC   GL152753  36.926  20.575   6.155
 9660POPC   GL252754  36.930  20.543   6.155
 9660POPC   C1A52755  36.914  20.648   6.455
 9660POPC   D2A52756  36.890  20.635   6.755
 9660POPC   C3A52757  36.944  20.575   7.055
 9660POPC   C4A52758  36.859  20.657   7.355
 9660POPC   C1B52759  36.990  20.348   6.455
 9660POPC   C2B52760  36.956  20.394   6.755
 9660POPC   C3B52761  37.006  20.384   7.055
 9660POPC   C4B52762  37.001  20.406   7.355
 9661POPC   NC352763  19.808   9.728   5.555
 9661POPC   PO452764  19.821   9.769   5.855
 9661POPC   GL152765  19.843   9.720   6.155
 9661POPC   GL252766  19.945   9.755   6.155
 9661POPC   C1A52767  19.862   9.787   6.455
 9661POPC   D2A52768  19.796   9.783   6.755
 9661POPC   C3A52769  19.798   9.703   7.055
 9661POPC   C4A52770  19.825   9.717   7.355
 9661POPC   C1B52771  20.132   9.703   6.455
 9661POPC   C2B52772  20.117   9.760   6.755
 9661POPC   C3B52773  20.039   9.716   7.055
 9661POPC   C4B52774  20.082   9.767   7.355
 9662POPC   NC352775  11.342  22.931   5.555
 9662POPC   PO452776  11.319  22.941   5.855
 9662POPC   GL152777  11.302  22.939   6.155
 9662POPC   GL252778  11.409  22.865   6.155
 9662POPC   C1A52779  11.258  22.968   6.455
 9662POPC   D2A52780  11.272  22.951   6.755
 9662POPC   C3A52781  11.305  22.943   7.055
 9662POPC   C4A52782  11.317  22.957   7.355
 9662POPC   C1B52783  11.482  22.796   6.455
 9662POPC   C2B52784  11.541  22.850   6.755
 9662POPC   C3B52785  11.527  22.767   7.055
 9662POPC   C4B52786  11.482  22.815   7.355
 9663POPC   NC352787  18.250  36.880   5.555
 9663POPC   PO452788  18.294  36.911   5.855
 9663POPC   GL152789  18.248  36.918   6.155
 9663POPC   GL252790  18.181  36.816   6.155
 9663POPC   C1A52791  18.298  36.882   6.455
 9663POPC   D2A52792  18.324  36.914   6.755
 9663POPC   C3A52793  18.287  36.892   7.055
 9663POPC   C4A52794  18.254  36.953   7.355
 9663POPC   C1B52795  18.059  36.750   6.455
 9663POPC   C2B52796  18.041  36.746   6.755
 9663POPC   C3B52797  18.033  36.764   7.055
 9663POPC   C4B52798  18.057  36.785   7.355
 9664POPC   NC352799   3.591  26.790   5.555
 9664POPC   PO452800   3.541  26.842   5.855
 9664POPC   GL152801   3.507  26.833   6.155
 9664POPC   GL252802   3.556  26.955   6.155
 9664POPC   C1A52803   3.494  26.856   6.455
 9664POPC   D2A52804   3.540  26.811   6.755
 9664POPC   C3A52805   3.499  26.768   7.055
 9664POPC   C4A52806   3.563  26.864   7.355
 9664POPC   C1B52807   3.676  27.081   6.455
 9664POPC   C2B52808   3.650  27.048   6.755
 9664POPC   C3B52809   3.636  27.089   7.055
 9664POPC   C4B52810   3.645  27.034   7.355
 9665POPC   NC352811  26.810  11.254   5.555
 9665POPC   PO452812  26.779  11.325   5.855
 9665POPC   GL152813  26.792  11.251   6.155
 9665POPC   GL252814  26.739  11.239   6.155
 9665POPC   C1A52815  26.805  11.262   6.455
 9665POPC   D2A52816  26.859  11.289   6.755
 9665POPC   C3A52817  26.774  11.312   7.055
 9665POPC   C4A52818  26.852  11.335   7.355
 9665POPC   C1B52819  26.586  11.227   6.455
 9665POPC   C2B52820  26.618  11.262   6.755
 9665POPC   C3B52821  26.614  11.190   7.055
 9665POPC   C4B52822  26.582  11.238   7.355
 9666POPC   NC352823  41.558  27.615   5.555
 9666POPC   PO452824  41.541  27.565   5.855
 9666POPC   GL152825  41.525  27.603   6.155
 9666POPC   GL252826  41.648  27.599   6.155
 9666POPC   C1A52827  41.595  27.610   6.455
 9666POPC   D2A52828  41.555  27.606   6.755
 9666POPC   C3A52829  41.562  27.643   7.055
 9666POPC   C4A52830  41.542  27.601   7.355
 9666POPC   C1B52831  41.824  27.658   6.455
 9666POPC   C2B52832  41.808  27.633   6.755
 9666POPC   C3B52833  41.849  27.651   7.055
 9666POPC   C4B52834  41.834  27.651   7.355
 9667POPC   NC352835  32.978  12.100   5.555
 9667POPC   PO452836  32.995  12.099   5.855
 9667POPC   GL152837  33.074  12.117   6.155
 9667POPC   GL252838  32.990  11.967   6.155
 9667POPC   C1A52839  33.001  12.043   6.455
 9667POPC   D2A52840  32.998  12.031   6.755
 9667POPC   C3A52841  32.995  12.029   7.055
 9667POPC   C4A52842  33.061  12.111   7.355
 9667POPC   C1B52843  33.082  11.849   6.455
 9667POPC   C2B52844  33.050  11.825   6.755
 9667POPC   C3B52845  33.004  11.848   7.055
 9667POPC   C4B52846  33.067  11.787   7.355
 9668POPC   NC352847  41.574  37.691   5.555
 9668POPC   PO452848  41.564  37.670   5.855
 9668POPC   GL152849  41.538  37.689   6.155
 9668POPC   GL252850  41.501  37.571   6.155
 9668POPC   C1A52851  41.549  37.704   6.455
 9668POPC   D2A52852  41.602  37.634   6.755
 9668POPC   C3A52853  41.562  37.719   7.055
 9668POPC   C4A52854  41.515  37.714   7.355
 9668POPC   C1B52855  41.399  37.571   6.455
 9668POPC   C2B52856  41.402  37.506   6.755
 9668POPC   C3B52857  41.309  37.543   7.055
 9668POPC   C4B52858  41.351  37.550   7.355
 9669POPC   NC352859  36.097   1.182   5.555
 9669POPC   PO452860  36.161   1.243   5.855
 9669POPC   GL152861  36.123   1.174   6.155
 9669POPC   GL252862  36.065   1.273   6.155
 9669POPC   C1A52863  36.159   1.204   6.455
 9669POPC   D2A52864  36.114   1.201   6.755
 9669POPC   C3A52865  36.159   1.213   7.055
 9669POPC   C4A52866  36.132   1.182   7.355
 9669POPC   C1B52867  35.944   1.364   6.455
 9669POPC   C2B52868  35.981   1.352   6.755
 9669POPC   C3B52869  35.904   1.346   7.055
 9669POPC   C4B52870  35.920   1.377   7.355
 9670POPC   NC352871  36.856  22.114   5.555
 9670POPC   PO452872  36.878  22.117   5.855
 9670POPC   GL152873  36.899  22.130   6.155
 9670POPC   GL252874  36.902  22.241   6.155
 9670POPC   C1A52875  36.928  22.160   6.455
 9670POPC   D2A52876  36.872  22.180   6.755
 9670POPC   C3A52877  36.898  22.153   7.055
 9670POPC   C4A52878  36.919  22.154   7.355
 9670POPC   C1B52879  36.935  22.397   6.455
 9670POPC   C2B52880  36.917  22.457   6.755
 9670POPC   C3B52881  36.931  22.380   7.055
 9670POPC   C4B52882  36.941  22.451   7.355
 9671POPC   NC352883  20.566  35.361   5.555
 9671POPC   PO452884  20.601  35.323   5.855
 9671POPC   GL152885  20.578  35.330   6.155
 9671POPC   GL252886  20.552  35.237   6.155
 9671POPC   C1A52887  20.593  35.309   6.455
 9671POPC   D2A52888  20.583  35.351   6.755
 9671POPC   C3A52889  20.642  35.345   7.055
 9671POPC   C4A52890  20.583  35.357   7.355
 9671POPC   C1B52891  20.489  35.183   6.455
 9671POPC   C2B52892  20.452  35.145   6.755
 9671POPC   C3B52893  20.456  35.156   7.055
 9671POPC   C4B52894  20.419  35.106   7.355
 9672POPC   NC352895   9.776  36.869   5.555
 9672POPC   PO452896   9.753  36.882   5.855
 9672POPC   GL152897   9.763  36.896   6.155
 9672POPC   GL252898   9.835  36.873   6.155
 9672POPC   C1A52899   9.775  36.924   6.455
 9672POPC   D2A52900   9.749  36.925   6.755
 9672POPC   C3A52901   9.716  36.909   7.055
 9672POPC   C4A52902   9.779  36.939   7.355
 9672POPC   C1B52903   9.954  36.812   6.455
 9672POPC   C2B52904  10.015  36.827   6.755
 9672POPC   C3B52905  10.005  36.802   7.055
 9672POPC   C4B52906  10.003  36.878   7.355
 9673POPC   NC352907  33.821  28.366   5.555
 9673POPC   PO452908  33.849  28.364   5.855
 9673POPC   GL152909  33.843  28.355   6.155
 9673POPC   GL252910  33.804  28.260   6.155
 9673POPC   C1A52911  33.801  28.390   6.455
 9673POPC   D2A52912  33.759  28.391   6.755
 9673POPC   C3A52913  33.763  28.376   7.055
 9673POPC   C4A52914  33.805  28.398   7.355
 9673POPC   C1B52915  33.817  28.162   6.455
 9673POPC   C2B52916  33.852  28.074   6.755
 9673POPC   C3B52917  33.775  28.149   7.055
 9673POPC   C4B52918  33.831  28.124   7.355
 9674POPC   NC352919   8.160  15.987   5.555
 9674POPC   PO452920   8.185  15.962   5.855
 9674POPC   GL152921   8.199  15.995   6.155
 9674POPC   GL252922   8.270  16.045   6.155
 9674POPC   C1A52923   8.212  15.972   6.455
 9674POPC   D2A52924   8.147  15.983   6.755
 9674POPC   C3A52925   8.167  15.995   7.055
 9674POPC   C4A52926   8.176  15.926   7.355
 9674POPC   C1B52927   8.378  16.155   6.455
 9674POPC   C2B52928   8.314  16.110   6.755
 9674POPC   C3B52929   8.353  16.163   7.055
 9674POPC   C4B52930   8.336  16.136   7.355
 9675POPC   NC352931  30.742  25.221   5.555
 9675POPC   PO452932  30.656  25.306   5.855
 9675POPC   GL152933  30.710  25.253   6.155
 9675POPC   GL252934  30.753  25.179   6.155
 9675POPC   C1A52935  30.694  25.217   6.455
 9675POPC   D2A52936  30.682  25.296   6.755
 9675POPC   C3A52937  30.726  25.226   7.055
 9675POPC   C4A52938  30.736  25.219   7.355
 9675POPC   C1B52939  30.737  25.037   6.455
 9675POPC   C2B52940  30.756  25.034   6.755
 9675POPC   C3B52941  30.790  25.061   7.055
 9675POPC   C4B52942  30.779  25.024   7.355
 9676POPC   NC352943  12.027   5.845   5.555
 9676POPC   PO452944  12.031   5.885   5.855
 9676POPC   GL152945  12.040   5.902   6.155
 9676POPC   GL252946  12.032   5.776   6.155
 9676POPC   C1A52947  12.121   5.829   6.455
 9676POPC   D2A52948  12.032   5.828   6.755
 9676POPC   C3A52949  12.085   5.871   7.055
 9676POPC   C4A52950  12.049   5.903   7.355
 9676POPC   C1B52951  11.945   5.660   6.455
 9676POPC   C2B52952  11.970   5.623   6.755
 9676POPC   C3B52953  11.926   5.695   7.055
 9676POPC   C4B52954  11.941   5.692   7.355
 9677POPC   NC352955   4.349  44.688   5.555
 9677POPC   PO452956   4.299  44.684   5.855
 9677POPC   GL152957   4.305  44.659   6.155
 9677POPC   GL252958   4.217  44.753   6.155
 9677POPC   C1A52959   4.360  44.617   6.455
 9677POPC   D2A52960   4.322  44.654   6.755
 9677POPC   C3A52961   4.295  44.664   7.055
 9677POPC   C4A52962   4.314  44.707   7.355
 9677POPC   C1B52963   4.164  44.809   6.455
 9677POPC   C2B52964   4.130  44.838   6.755
 9677POPC   C3B52965   4.105  44.863   7.055
 9677POPC   C4B52966   4.107  44.847   7.355
 9678POPC   NC352967  39.970  18.254   5.555
 9678POPC   PO452968  40.035  18.236   5.855
 9678POPC   GL152969  40.037  18.307   6.155
 9678POPC   GL252970  39.900  18.233   6.155
 9678POPC   C1A52971  40.048  18.263   6.455
 9678POPC   D2A52972  40.034  18.316   6.755
 9678POPC   C3A52973  40.015  18.260   7.055
 9678POPC   C4A52974  40.000  18.257   7.355
 9678POPC   C1B52975  39.820  18.128   6.455
 9678POPC   C2B52976  39.744  18.114   6.755
 9678POPC   C3B52977  39.792  18.174   7.055
 9678POPC   C4B52978  39.808  18.129   7.355
 9679POPC   NC352979  29.162  28.358   5.555
 9679POPC   PO452980  29.160  28.328   5.855
 9679POPC   GL152981  29.184  28.380   6.155
 9679POPC   GL252982  29.266  28.399   6.155
 9679POPC   C1A52983  29.194  28.358   6.455
 9679POPC   D2A52984  29.186  28.326   6.755
 9679POPC   C3A52985  29.148  28.371   7.055
 9679POPC   C4A52986  29.134  28.356   7.355
 9679POPC   C1B52987  29.428  28.373   6.455
 9679POPC   C2B52988  29.430  28.398   6.755
 9679POPC   C3B52989  29.425  28.314   7.055
 9679POPC   C4B52990  29.383  28.329   7.355
 9680POPC   NC352991   5.102   8.236   5.555
 9680POPC   PO452992   5.051   8.205   5.855
 9680POPC   GL152993   5.051   8.154   6.155
 9680POPC   GL252994   5.032   8.342   6.155
 9680POPC   C1A52995   5.131   8.168   6.455
 9680POPC   D2A52996   5.128   8.229   6.755
 9680POPC   C3A52997   5.087   8.153   7.055
 9680POPC   C4A52998   5.064   8.175   7.355
 9680POPC   C1B52999   4.994   8.376   6.455
 9680POPC   C2B53000   5.000   8.407   6.755
 9680POPC   C3B53001   4.976   8.441   7.055
 9680POPC   C4B53002   4.978   8.417   7.355
 9681POPC   NC353003  43.871  38.449   5.555
 9681POPC   PO453004  43.858  38.494   5.855
 9681POPC   GL153005  43.903  38.417   6.155
 9681POPC   GL253006  44.019  38.344   6.155
 9681POPC   C1A53007  43.893  38.432   6.455
 9681POPC   D2A53008  43.840  38.488   6.755
 9681POPC   C3A53009  43.877  38.500   7.055
 9681POPC   C4A53010  43.848  38.481   7.355
 9681POPC   C1B53011  44.115  38.318   6.455
 9681POPC   C2B53012  44.102  38.309   6.755
 9681POPC   C3B53013  44.080  38.301   7.055
 9681POPC   C4B53014  44.090  38.275   7.355
 9682POPC   NC353015  12.120  28.359   5.555
 9682POPC   PO453016  12.070  28.360   5.855
 9682POPC   GL153017  12.051  28.408   6.155
 9682POPC   GL253018  11.994  28.340   6.155
 9682POPC   C1A53019  12.067  28.343   6.455
 9682POPC   D2A53020  12.124  28.359   6.755
 9682POPC   C3A53021  12.051  28.338   7.055
 9682POPC   C4A53022  12.035  28.381   7.355
 9682POPC   C1B53023  11.822  28.210   6.455
 9682POPC   C2B53024  11.891  28.288   6.755
 9682POPC   C3B53025  11.836  28.274   7.055
 9682POPC   C4B53026  11.904  28.215   7.355
 9683POPC   NC353027  33.050  37.657   5.555
 9683POPC   PO453028  33.044  37.644   5.855
 9683POPC   GL153029  33.014  37.634   6.155
 9683POPC   GL253030  32.957  37.585   6.155
 9683POPC   C1A53031  33.001  37.687   6.455
 9683POPC   D2A53032  33.046  37.715   6.755
 9683POPC   C3A53033  33.044  37.697   7.055
 9683POPC   C4A53034  33.037  37.641   7.355
 9683POPC   C1B53035  32.912  37.392   6.455
 9683POPC   C2B53036  32.937  37.431   6.755
 9683POPC   C3B53037  32.992  37.433   7.055
 9683POPC   C4B53038  32.986  37.427   7.355
 9684POPC   NC353039  26.797  36.130   5.555
 9684POPC   PO453040  26.811  36.117   5.855
 9684POPC   GL153041  26.841  36.158   6.155
 9684POPC   GL253042  26.716  36.126   6.155
 9684POPC   C1A53043  26.774  36.122   6.455
 9684POPC   D2A53044  26.786  36.092   6.755
 9684POPC   C3A53045  26.845  36.107   7.055
 9684POPC   C4A53046  26.786  36.091   7.355
 9684POPC   C1B53047  26.553  36.008   6.455
 9684POPC   C2B53048  26.627  36.039   6.755
 9684POPC   C3B53049  26.571  36.025   7.055
 9684POPC   C4B53050  26.555  36.065   7.355
 9685POPC   NC353051  39.959  12.041   5.555
 9685POPC   PO453052  40.030  12.091   5.855
 9685POPC   GL153053  39.989  12.111   6.155
 9685POPC   GL253054  39.928  12.162   6.155
 9685POPC   C1A53055  39.978  12.100   6.455
 9685POPC   D2A53056  40.010  12.046   6.755
 9685POPC   C3A53057  39.990  12.043   7.055
 9685POPC   C4A53058  40.026  12.064   7.355
 9685POPC   C1B53059  39.905  12.351   6.455
 9685POPC   C2B53060  39.925  12.348   6.755
 9685POPC   C3B53061  39.910  12.346   7.055
 9685POPC   C4B53062  39.901  12.326   7.355
 9686POPC   NC353063  15.161  36.129   5.555
 9686POPC   PO453064  15.151  36.161   5.855
 9686POPC   GL153065  15.157  36.090   6.155
 9686POPC   GL253066  15.271  36.124   6.155
 9686POPC   C1A53067  15.210  36.165   6.455
 9686POPC   D2A53068  15.190  36.096   6.755
 9686POPC   C3A53069  15.171  36.172   7.055
 9686POPC   C4A53070  15.174  36.134   7.355
 9686POPC   C1B53071  15.400  36.169   6.455
 9686POPC   C2B53072  15.429  36.140   6.755
 9686POPC   C3B53073  15.448  36.128   7.055
 9686POPC   C4B53074  15.437  36.152   7.355
 9687POPC   NC353075  15.997  38.424   5.555
 9687POPC   PO453076  15.945  38.420   5.855
 9687POPC   GL153077  15.975  38.476   6.155
 9687POPC   GL253078  15.793  38.494   6.155
 9687POPC   C1A53079  15.969  38.492   6.455
 9687POPC   D2A53080  15.912  38.494   6.755
 9687POPC   C3A53081  15.982  38.428   7.055
 9687POPC   C4A53082  15.995  38.414   7.355
 9687POPC   C1B53083  15.696  38.577   6.455
 9687POPC   C2B53084  15.762  38.546   6.755
 9687POPC   C3B53085  15.669  38.523   7.055
 9687POPC   C4B53086  15.715  38.583   7.355
 9688POPC   NC353087   3.525  22.926   5.555
 9688POPC   PO453088   3.540  22.979   5.855
 9688POPC   GL153089   3.563  22.895   6.155
 9688POPC   GL253090   3.422  23.003   6.155
 9688POPC   C1A53091   3.554  22.984   6.455
 9688POPC   D2A53092   3.562  22.932   6.755
 9688POPC   C3A53093   3.540  22.974   7.055
 9688POPC   C4A53094   3.520  22.969   7.355
 9688POPC   C1B53095   3.318  23.045   6.455
 9688POPC   C2B53096   3.267  23.061   6.755
 9688POPC   C3B53097   3.274  23.017   7.055
 9688POPC   C4B53098   3.268  23.013   7.355
 9689POPC   NC353099  13.580  39.221   5.555
 9689POPC   PO453100  13.632  39.262   5.855
 9689POPC   GL153101  13.629  39.226   6.155
 9689POPC   GL253102  13.560  39.289   6.155
 9689POPC   C1A53103  13.625  39.214   6.455
 9689POPC   D2A53104  13.594  39.226   6.755
 9689POPC   C3A53105  13.627  39.255   7.055
 9689POPC   C4A53106  13.641  39.257   7.355
 9689POPC   C1B53107  13.404  39.357   6.455
 9689POPC   C2B53108  13.474  39.398   6.755
 9689POPC   C3B53109  13.472  39.406   7.055
 9689POPC   C4B53110  13.400  39.427   7.355
 9690POPC   NC353111  39.998  37.665   5.555
 9690POPC   PO453112  39.996  37.666   5.855
 9690POPC   GL153113  39.961  37.696   6.155
 9690POPC   GL253114  39.853  37.751   6.155
 9690POPC   C1A53115  40.031  37.719   6.455
 9690POPC   D2A53116  39.977  37.651   6.755
 9690POPC   C3A53117  40.017  37.689   7.055
 9690POPC   C4A53118  40.045  37.632   7.355
 9690POPC   C1B53119  39.831  37.834   6.455
 9690POPC   C2B53120  39.775  37.781   6.755
 9690POPC   C3B53121  39.764  37.791   7.055
 9690POPC   C4B53122  39.783  37.820   7.355
 9691POPC   NC353123  12.028   8.241   5.555
 9691POPC   PO453124  12.065   8.179   5.855
 9691POPC   GL153125  12.065   8.149   6.155
 9691POPC   GL253126  11.943   8.279   6.155
 9691POPC   C1A53127  12.100   8.162   6.455
 9691POPC   D2A53128  12.028   8.181   6.755
 9691POPC   C3A53129  12.068   8.219   7.055
 9691POPC   C4A53130  12.066   8.163   7.355
 9691POPC   C1B53131  11.835   8.371   6.455
 9691POPC   C2B53132  11.899   8.340   6.755
 9691POPC   C3B53133  11.869   8.344   7.055
 9691POPC   C4B53134  11.898   8.307   7.355
 9692POPC   NC353135  24.524   0.400   5.555
 9692POPC   PO453136  24.486   0.439   5.855
 9692POPC   GL153137  24.452   0.450   6.155
 9692POPC   GL253138  24.385   0.547   6.155
 9692POPC   C1A53139  24.464   0.452   6.455
 9692POPC   D2A53140  24.508   0.470   6.755
 9692POPC   C3A53141  24.499   0.453   7.055
 9692POPC   C4A53142  24.475   0.452   7.355
 9692POPC   C1B53143  24.270   0.534   6.455
 9692POPC   C2B53144  24.288   0.601   6.755
 9692POPC   C3B53145  24.246   0.524   7.055
 9692POPC   C4B53146  24.273   0.582   7.355
 9693POPC   NC353147  24.488  25.303   5.555
 9693POPC   PO453148  24.495  25.291   5.855
 9693POPC   GL153149  24.536  25.257   6.155
 9693POPC   GL253150  24.478  25.355   6.155
 9693POPC   C1A53151  24.524  25.226   6.455
 9693POPC   D2A53152  24.450  25.270   6.755
 9693POPC   C3A53153  24.476  25.261   7.055
 9693POPC   C4A53154  24.465  25.293   7.355
 9693POPC   C1B53155  24.372  25.508   6.455
 9693POPC   C2B53156  24.372  25.497   6.755
 9693POPC   C3B53157  24.359  25.454   7.055
 9693POPC   C4B53158  24.389  25.472   7.355
 9694POPC   NC353159  22.164  24.446   5.555
 9694POPC   PO453160  22.183  24.472   5.855
 9694POPC   GL153161  22.190  24.525   6.155
 9694POPC   GL253162  22.233  24.575   6.155
 9694POPC   C1A53163  22.206  24.537   6.455
 9694POPC   D2A53164  22.146  24.465   6.755
 9694POPC   C3A53165  22.142  24.535   7.055
 9694POPC   C4A53166  22.140  24.536   7.355
 9694POPC   C1B53167  22.422  24.621   6.455
 9694POPC   C2B53168  22.360  24.602   6.755
 9694POPC   C3B53169  22.398  24.608   7.055
 9694POPC   C4B53170  22.372  24.643   7.355
 9695POPC   NC353171  10.568   9.001   5.555
 9695POPC   PO453172  10.486   8.947   5.855
 9695POPC   GL153173  10.482   8.923   6.155
 9695POPC   GL253174  10.568   8.857   6.155
 9695POPC   C1A53175  10.564   8.961   6.455
 9695POPC   D2A53176  10.500   9.005   6.755
 9695POPC   C3A53177  10.545   8.924   7.055
 9695POPC   C4A53178  10.553   8.943   7.355
 9695POPC   C1B53179  10.675   8.794   6.455
 9695POPC   C2B53180  10.691   8.725   6.755
 9695POPC   C3B53181  10.650   8.717   7.055
 9695POPC   C4B53182  10.688   8.751   7.355
 9696POPC   NC353183  19.102   2.729   5.555
 9696POPC   PO453184  19.073   2.743   5.855
 9696POPC   GL153185  19.068   2.793   6.155
 9696POPC   GL253186  19.192   2.751   6.155
 9696POPC   C1A53187  19.061   2.812   6.455
 9696POPC   D2A53188  19.062   2.787   6.755
 9696POPC   C3A53189  19.039   2.798   7.055
 9696POPC   C4A53190  19.086   2.815   7.355
 9696POPC   C1B53191  19.266   2.646   6.455
 9696POPC   C2B53192  19.259   2.675   6.755
 9696POPC   C3B53193  19.323   2.690   7.055
 9696POPC   C4B53194  19.347   2.704   7.355
 9697POPC   NC353195   3.535   8.201   5.555
 9697POPC   PO453196   3.582   8.234   5.855
 9697POPC   GL153197   3.587   8.186   6.155
 9697POPC   GL253198   3.500   8.106   6.155
 9697POPC   C1A53199   3.590   8.149   6.455
 9697POPC   D2A53200   3.570   8.239   6.755
 9697POPC   C3A53201   3.526   8.182   7.055
 9697POPC   C4A53202   3.590   8.234   7.355
 9697POPC   C1B53203   3.461   7.953   6.455
 9697POPC   C2B53204   3.446   7.964   6.755
 9697POPC   C3B53205   3.386   8.016   7.055
 9697POPC   C4B53206   3.419   7.954   7.355
 9698POPC   NC353207  14.378  16.719   5.555
 9698POPC   PO453208  14.409  16.688   5.855
 9698POPC   GL153209  14.374  16.768   6.155
 9698POPC   GL253210  14.325  16.653   6.155
 9698POPC   C1A53211  14.411  16.704   6.455
 9698POPC   D2A53212  14.412  16.700   6.755
 9698POPC   C3A53213  14.372  16.745   7.055
 9698POPC   C4A53214  14.435  16.683   7.355
 9698POPC   C1B53215  14.141  16.636   6.455
 9698POPC   C2B53216  14.182  16.618   6.755
 9698POPC   C3B53217  14.224  16.614   7.055
 9698POPC   C4B53218  14.177  16.633   7.355
 9699POPC   NC353219  16.760   5.113   5.555
 9699POPC   PO453220  16.738   5.060   5.855
 9699POPC   GL153221  16.683   5.106   6.155
 9699POPC   GL253222  16.765   4.938   6.155
 9699POPC   C1A53223  16.731   5.091   6.455
 9699POPC   D2A53224  16.720   5.064   6.755
 9699POPC   C3A53225  16.781   5.084   7.055
 9699POPC   C4A53226  16.769   5.054   7.355
 9699POPC   C1B53227  16.745   4.815   6.455
 9699POPC   C2B53228  16.747   4.892   6.755
 9699POPC   C3B53229  16.725   4.877   7.055
 9699POPC   C4B53230  16.800   4.882   7.355
 9700POPC   NC353231  12.072   0.460   5.555
 9700POPC   PO453232  12.057   0.473   5.855
 9700POPC   GL153233  12.100   0.402   6.155
 9700POPC   GL253234  12.133   0.556   6.155
 9700POPC   C1A53235  12.103   0.454   6.455
 9700POPC   D2A53236  12.083   0.413   6.755
 9700POPC   C3A53237  12.083   0.475   7.055
 9700POPC   C4A53238  12.110   0.440   7.355
 9700POPC   C1B53239  12.272   0.683   6.455
 9700POPC   C2B53240  12.228   0.642   6.755
 9700POPC   C3B53241  12.210   0.678   7.055
 9700POPC   C4B53242  12.232   0.625   7.355
 9701POPC   NC353243  22.115  28.383   5.555
 9701POPC   PO453244  22.136  28.411   5.855
 9701POPC   GL153245  22.179  28.373   6.155
 9701POPC   GL253246  22.033  28.431   6.155
 9701POPC   C1A53247  22.207  28.330   6.455
 9701POPC   D2A53248  22.114  28.412   6.755
 9701POPC   C3A53249  22.177  28.353   7.055
 9701POPC   C4A53250  22.116  28.366   7.355
 9701POPC   C1B53251  21.944  28.496   6.455
 9701POPC   C2B53252  21.986  28.540   6.755
 9701POPC   C3B53253  21.937  28.557   7.055
 9701POPC   C4B53254  21.983  28.483   7.355
 9702POPC   NC353255  24.515  28.341   5.555
 9702POPC   PO453256  24.467  28.343   5.855
 9702POPC   GL153257  24.463  28.416   6.155
 9702POPC   GL253258  24.338  28.436   6.155
 9702POPC   C1A53259  24.472  28.343   6.455
 9702POPC   D2A53260  24.487  28.400   6.755
 9702POPC   C3A53261  24.462  28.332   7.055
 9702POPC   C4A53262  24.472  28.347   7.355
 9702POPC   C1B53263  24.233  28.496   6.455
 9702POPC   C2B53264  24.250  28.482   6.755
 9702POPC   C3B53265  24.298  28.469   7.055
 9702POPC   C4B53266  24.241  28.509   7.355
 9703POPC   NC353267  34.533  43.856   5.555
 9703POPC   PO453268  34.586  43.923   5.855
 9703POPC   GL153269  34.568  43.891   6.155
 9703POPC   GL253270  34.463  43.861   6.155
 9703POPC   C1A53271  34.538  43.886   6.455
 9703POPC   D2A53272  34.612  43.849   6.755
 9703POPC   C3A53273  34.545  43.879   7.055
 9703POPC   C4A53274  34.572  43.853   7.355
 9703POPC   C1B53275  34.373  43.943   6.455
 9703POPC   C2B53276  34.342  43.912   6.755
 9703POPC   C3B53277  34.281  43.968   7.055
 9703POPC   C4B53278  34.365  43.948   7.355
 9704POPC   NC353279  12.030  40.012   5.555
 9704POPC   PO453280  12.071  40.052   5.855
 9704POPC   GL153281  12.101  40.052   6.155
 9704POPC   GL253282  12.033  40.081   6.155
 9704POPC   C1A53283  12.056  40.045   6.455
 9704POPC   D2A53284  12.062  40.029   6.755
 9704POPC   C3A53285  12.033  39.960   7.055
 9704POPC   C4A53286  12.054  40.013   7.355
 9704POPC   C1B53287  11.978  40.251   6.455
 9704POPC   C2B53288  11.958  40.266   6.755
 9704POPC   C3B53289  11.940  40.205   7.055
 9704POPC   C4B53290  11.996  40.274   7.355
 9705POPC   NC353291  11.320  44.671   5.555
 9705POPC   PO453292  11.254  44.694   5.855
 9705POPC   GL153293  11.253  44.620   6.155
 9705POPC   GL253294  11.250  44.552   6.155
 9705POPC   C1A53295  11.335  44.660   6.455
 9705POPC   D2A53296  11.292  44.668   6.755
 9705POPC   C3A53297  11.252  44.632   7.055
 9705POPC   C4A53298  11.271  44.684   7.355
 9705POPC   C1B53299  11.120  44.477   6.455
 9705POPC   C2B53300  11.137  44.492   6.755
 9705POPC   C3B53301  11.109  44.496   7.055
 9705POPC   C4B53302  11.114  44.434   7.355
 9706POPC   NC353303  15.969  37.636   5.555
 9706POPC   PO453304  15.987  37.712   5.855
 9706POPC   GL153305  15.920  37.655   6.155
 9706POPC   GL253306  15.953  37.539   6.155
 9706POPC   C1A53307  16.000  37.717   6.455
 9706POPC   D2A53308  15.924  37.721   6.755
 9706POPC   C3A53309  15.921  37.649   7.055
 9706POPC   C4A53310  15.926  37.727   7.355
 9706POPC   C1B53311  15.941  37.447   6.455
 9706POPC   C2B53312  15.967  37.430   6.755
 9706POPC   C3B53313  15.957  37.407   7.055
 9706POPC   C4B53314  16.000  37.435   7.355
 9707POPC   NC353315   2.797  31.463   5.555
 9707POPC   PO453316   2.721  31.456   5.855
 9707POPC   GL153317   2.801  31.469   6.155
 9707POPC   GL253318   2.719  31.421   6.155
 9707POPC   C1A53319   2.773  31.518   6.455
 9707POPC   D2A53320   2.778  31.520   6.755
 9707POPC   C3A53321   2.755  31.521   7.055
 9707POPC   C4A53322   2.774  31.491   7.355
 9707POPC   C1B53323   2.577  31.346   6.455
 9707POPC   C2B53324   2.526  31.319   6.755
 9707POPC   C3B53325   2.548  31.330   7.055
 9707POPC   C4B53326   2.599  31.296   7.355
 9708POPC   NC353327  43.856  25.243   5.555
 9708POPC   PO453328  43.925  25.238   5.855
 9708POPC   GL153329  43.924  25.220   6.155
 9708POPC   GL253330  43.869  25.149   6.155
 9708POPC   C1A53331  43.871  25.298   6.455
 9708POPC   D2A53332  43.856  25.268   6.755
 9708POPC   C3A53333  43.838  25.287   7.055
 9708POPC   C4A53334  43.934  25.292   7.355
 9708POPC   C1B53335  43.762  25.076   6.455
 9708POPC   C2B53336  43.771  25.057   6.755
 9708POPC   C3B53337  43.800  25.066   7.055
 9708POPC   C4B53338  43.764  25.021   7.355
 9709POPC   NC353339  40.764  15.989   5.555
 9709POPC   PO453340  40.759  15.971   5.855
 9709POPC   GL153341  40.770  15.914   6.155
 9709POPC   GL253342  40.866  15.992   6.155
 9709POPC   C1A53343  40.782  15.909   6.455
 9709POPC   D2A53344  40.757  15.907   6.755
 9709POPC   C3A53345  40.826  15.911   7.055
 9709POPC   C4A53346  40.828  16.003   7.355
 9709POPC   C1B53347  41.059  15.955   6.455
 9709POPC   C2B53348  41.040  15.926   6.755
 9709POPC   C3B53349  41.029  15.944   7.055
 9709POPC   C4B53350  41.046  15.955   7.355
 9710POPC   NC353351  18.290  37.631   5.555
 9710POPC   PO453352  18.315  37.675   5.855
 9710POPC   GL153353  18.270  37.690   6.155
 9710POPC   GL253354  18.148  37.671   6.155
 9710POPC   C1A53355  18.287  37.663   6.455
 9710POPC   D2A53356  18.329  37.682   6.755
 9710POPC   C3A53357  18.296  37.659   7.055
 9710POPC   C4A53358  18.327  37.693   7.355
 9710POPC   C1B53359  18.062  37.616   6.455
 9710POPC   C2B53360  18.006  37.648   6.755
 9710POPC   C3B53361  18.020  37.675   7.055
 9710POPC   C4B53362  18.050  37.590   7.355
 9711POPC   NC353363  43.120  41.523   5.555
 9711POPC   PO453364  43.158  41.540   5.855
 9711POPC   GL153365  43.145  41.597   6.155
 9711POPC   GL253366  43.075  41.649   6.155
 9711POPC   C1A53367  43.136  41.534   6.455
 9711POPC   D2A53368  43.081  41.529   6.755
 9711POPC   C3A53369  43.124  41.545   7.055
 9711POPC   C4A53370  43.062  41.544   7.355
 9711POPC   C1B53371  43.007  41.755   6.455
 9711POPC   C2B53372  43.012  41.815   6.755
 9711POPC   C3B53373  43.084  41.768   7.055
 9711POPC   C4B53374  43.078  41.842   7.355
 9712POPC   NC353375  21.421  31.443   5.555
 9712POPC   PO453376  21.367  31.483   5.855
 9712POPC   GL153377  21.362  31.494   6.155
 9712POPC   GL253378  21.444  31.356   6.155
 9712POPC   C1A53379  21.377  31.444   6.455
 9712POPC   D2A53380  21.367  31.494   6.755
 9712POPC   C3A53381  21.372  31.500   7.055
 9712POPC   C4A53382  21.345  31.433   7.355
 9712POPC   C1B53383  21.465  31.228   6.455
 9712POPC   C2B53384  21.516  31.231   6.755
 9712POPC   C3B53385  21.447  31.279   7.055
 9712POPC   C4B53386  21.478  31.282   7.355
 9713POPC   NC353387  27.552  18.263   5.555
 9713POPC   PO453388  27.577  18.291   5.855
 9713POPC   GL153389  27.590  18.319   6.155
 9713POPC   GL253390  27.631  18.399   6.155
 9713POPC   C1A53391  27.639  18.281   6.455
 9713POPC   D2A53392  27.608  18.241   6.755
 9713POPC   C3A53393  27.573  18.280   7.055
 9713POPC   C4A53394  27.632  18.298   7.355
 9713POPC   C1B53395  27.732  18.522   6.455
 9713POPC   C2B53396  27.722  18.466   6.755
 9713POPC   C3B53397  27.694  18.506   7.055
 9713POPC   C4B53398  27.720  18.555   7.355
 9714POPC   NC353399  43.116  37.688   5.555
 9714POPC   PO453400  43.151  37.714   5.855
 9714POPC   GL153401  43.067  37.680   6.155
 9714POPC   GL253402  43.282  37.607   6.155
 9714POPC   C1A53403  43.137  37.673   6.455
 9714POPC   D2A53404  43.154  37.655   6.755
 9714POPC   C3A53405  43.150  37.639   7.055
 9714POPC   C4A53406  43.082  37.727   7.355
 9714POPC   C1B53407  43.374  37.587   6.455
 9714POPC   C2B53408  43.312  37.659   6.755
 9714POPC   C3B53409  43.340  37.641   7.055
 9714POPC   C4B53410  43.329  37.675   7.355
 9715POPC   NC353411  19.065  13.629   5.555
 9715POPC   PO453412  19.014  13.667   5.855
 9715POPC   GL153413  19.009  13.650   6.155
 9715POPC   GL253414  19.151  13.520   6.155
 9715POPC   C1A53415  19.069  13.599   6.455
 9715POPC   D2A53416  19.062  13.578   6.755
 9715POPC   C3A53417  19.009  13.622   7.055
 9715POPC   C4A53418  19.018  13.645   7.355
 9715POPC   C1B53419  19.238  13.426   6.455
 9715POPC   C2B53420  19.206  13.467   6.755
 9715POPC   C3B53421  19.234  13.461   7.055
 9715POPC   C4B53422  19.210  13.391   7.355
 9716POPC   NC353423  39.227  10.529   5.555
 9716POPC   PO453424  39.224  10.504   5.855
 9716POPC   GL153425  39.264  10.532   6.155
 9716POPC   GL253426  39.231  10.676   6.155
 9716POPC   C1A53427  39.217  10.476   6.455
 9716POPC   D2A53428  39.261  10.502   6.755
 9716POPC   C3A53429  39.203  10.507   7.055
 9716POPC   C4A53430  39.184  10.549   7.355
 9716POPC   C1B53431  39.259  10.795   6.455
 9716POPC   C2B53432  39.196  10.795   6.755
 9716POPC   C3B53433  39.200  10.803   7.055
 9716POPC   C4B53434  39.222  10.823   7.355
 9717POPC   NC353435  11.305  38.409   5.555
 9717POPC   PO453436  11.252  38.415   5.855
 9717POPC   GL153437  11.286  38.411   6.155
 9717POPC   GL253438  11.176  38.438   6.155
 9717POPC   C1A53439  11.262  38.446   6.455
 9717POPC   D2A53440  11.317  38.407   6.755
 9717POPC   C3A53441  11.305  38.462   7.055
 9717POPC   C4A53442  11.289  38.447   7.355
 9717POPC   C1B53443  11.033  38.476   6.455
 9717POPC   C2B53444  11.053  38.424   6.755
 9717POPC   C3B53445  11.026  38.433   7.055
 9717POPC   C4B53446  11.070  38.465   7.355
 9718POPC   NC353447  36.922  22.899   5.555
 9718POPC   PO453448  36.892  22.981   5.855
 9718POPC   GL153449  36.912  22.970   6.155
 9718POPC   GL253450  36.975  22.853   6.155
 9718POPC   C1A53451  36.894  22.907   6.455
 9718POPC   D2A53452  36.870  22.975   6.755
 9718POPC   C3A53453  36.889  22.919   7.055
 9718POPC   C4A53454  36.900  22.974   7.355
 9718POPC   C1B53455  36.980  22.730   6.455
 9718POPC   C2B53456  37.000  22.687   6.755
 9718POPC   C3B53457  36.960  22.678   7.055
 9718POPC   C4B53458  36.925  22.740   7.355
 9719POPC   NC353459  14.445  34.554   5.555
 9719POPC   PO453460  14.419  34.611   5.855
 9719POPC   GL153461  14.414  34.581   6.155
 9719POPC   GL253462  14.429  34.679   6.155
 9719POPC   C1A53463  14.427  34.574   6.455
 9719POPC   D2A53464  14.374  34.611   6.755
 9719POPC   C3A53465  14.408  34.598   7.055
 9719POPC   C4A53466  14.427  34.532   7.355
 9719POPC   C1B53467  14.465  34.768   6.455
 9719POPC   C2B53468  14.486  34.859   6.755
 9719POPC   C3B53469  14.471  34.759   7.055
 9719POPC   C4B53470  14.462  34.795   7.355
 9720POPC   NC353471  22.911  24.464   5.555
 9720POPC   PO453472  22.930  24.481   5.855
 9720POPC   GL153473  22.955  24.530   6.155
 9720POPC   GL253474  22.938  24.636   6.155
 9720POPC   C1A53475  22.946  24.469   6.455
 9720POPC   D2A53476  22.923  24.518   6.755
 9720POPC   C3A53477  22.893  24.499   7.055
 9720POPC   C4A53478  22.933  24.537   7.355
 9720POPC   C1B53479  22.913  24.699   6.455
 9720POPC   C2B53480  22.859  24.734   6.755
 9720POPC   C3B53481  22.875  24.741   7.055
 9720POPC   C4B53482  22.901  24.712   7.355
 9721POPC   NC353483   7.375  26.004   5.555
 9721POPC   PO453484   7.455  26.031   5.855
 9721POPC   GL153485   7.470  26.057   6.155
 9721POPC   GL253486   7.487  25.974   6.155
 9721POPC   C1A53487   7.422  26.078   6.455
 9721POPC   D2A53488   7.467  26.004   6.755
 9721POPC   C3A53489   7.427  26.005   7.055
 9721POPC   C4A53490   7.395  26.085   7.355
 9721POPC   C1B53491   7.624  25.910   6.455
 9721POPC   C2B53492   7.622  25.916   6.755
 9721POPC   C3B53493   7.621  25.920   7.055
 9721POPC   C4B53494   7.665  25.961   7.355
 9722POPC   NC353495  28.342  14.448   5.555
 9722POPC   PO453496  28.372  14.415   5.855
 9722POPC   GL153497  28.354  14.382   6.155
 9722POPC   GL253498  28.343  14.272   6.155
 9722POPC   C1A53499  28.340  14.433   6.455
 9722POPC   D2A53500  28.321  14.382   6.755
 9722POPC   C3A53501  28.334  14.387   7.055
 9722POPC   C4A53502  28.388  14.382   7.355
 9722POPC   C1B53503  28.238  14.160   6.455
 9722POPC   C2B53504  28.178  14.203   6.755
 9722POPC   C3B53505  28.183  14.173   7.055
 9722POPC   C4B53506  28.254  14.240   7.355
 9723POPC   NC353507   2.810  42.285   5.555
 9723POPC   PO453508   2.779  42.293   5.855
 9723POPC   GL153509   2.750  42.358   6.155
 9723POPC   GL253510   2.745  42.416   6.155
 9723POPC   C1A53511   2.778  42.310   6.455
 9723POPC   D2A53512   2.745  42.298   6.755
 9723POPC   C3A53513   2.786  42.338   7.055
 9723POPC   C4A53514   2.790  42.357   7.355
 9723POPC   C1B53515   2.792  42.603   6.455
 9723POPC   C2B53516   2.754  42.574   6.755
 9723POPC   C3B53517   2.763  42.572   7.055
 9723POPC   C4B53518   2.793  42.623   7.355
 9724POPC   NC353519  30.732  19.835   5.555
 9724POPC   PO453520  30.713  19.800   5.855
 9724POPC   GL153521  30.731  19.822   6.155
 9724POPC   GL253522  30.595  19.914   6.155
 9724POPC   C1A53523  30.686  19.872   6.455
 9724POPC   D2A53524  30.694  19.797   6.755
 9724POPC   C3A53525  30.739  19.840   7.055
 9724POPC   C4A53526  30.746  19.831   7.355
 9724POPC   C1B53527  30.462  19.936   6.455
 9724POPC   C2B53528  30.523  19.965   6.755
 9724POPC   C3B53529  30.440  19.974   7.055
 9724POPC   C4B53530  30.464  19.939   7.355
 9725POPC   NC353531  32.280  12.101   5.555
 9725POPC   PO453532  32.213  12.123   5.855
 9725POPC   GL153533  32.235  12.080   6.155
 9725POPC   GL253534  32.146  12.207   6.155
 9725POPC   C1A53535  32.225  12.042   6.455
 9725POPC   D2A53536  32.265  12.060   6.755
 9725POPC   C3A53537  32.238  12.080   7.055
 9725POPC   C4A53538  32.285  12.034   7.355
 9725POPC   C1B53539  32.084  12.276   6.455
 9725POPC   C2B53540  32.100  12.201   6.755
 9725POPC   C3B53541  32.080  12.245   7.055
 9725POPC   C4B53542  32.014  12.224   7.355
 9726POPC   NC353543  42.372  39.967   5.555
 9726POPC   PO453544  42.372  40.038   5.855
 9726POPC   GL153545  42.320  40.003   6.155
 9726POPC   GL253546  42.274  39.946   6.155
 9726POPC   C1A53547  42.322  39.974   6.455
 9726POPC   D2A53548  42.291  39.961   6.755
 9726POPC   C3A53549  42.320  39.959   7.055
 9726POPC   C4A53550  42.369  40.049   7.355
 9726POPC   C1B53551  42.146  39.879   6.455
 9726POPC   C2B53552  42.115  39.901   6.755
 9726POPC   C3B53553  42.095  39.911   7.055
 9726POPC   C4B53554  42.110  39.897   7.355
 9727POPC   NC353555  39.215  44.701   5.555
 9727POPC   PO453556  39.186  44.701   5.855
 9727POPC   GL153557  39.215  44.690   6.155
 9727POPC   GL253558  39.115  44.758   6.155
 9727POPC   C1A53559  39.261  44.657   6.455
 9727POPC   D2A53560  39.281  44.651   6.755
 9727POPC   C3A53561  39.192  44.622   7.055
 9727POPC   C4A53562  39.203  44.688   7.355
 9727POPC   C1B53563  38.993  44.791   6.455
 9727POPC   C2B53564  39.039  44.814   6.755
 9727POPC   C3B53565  39.070  44.844   7.055
 9727POPC   C4B53566  39.032  44.839   7.355
 9728POPC   NC353567   3.497  32.979   5.555
 9728POPC   PO453568   3.507  33.000   5.855
 9728POPC   GL153569   3.585  33.023   6.155
 9728POPC   GL253570   3.608  33.054   6.155
 9728POPC   C1A53571   3.512  33.016   6.455
 9728POPC   D2A53572   3.565  33.056   6.755
 9728POPC   C3A53573   3.537  33.015   7.055
 9728POPC   C4A53574   3.522  33.008   7.355
 9728POPC   C1B53575   3.751  33.162   6.455
 9728POPC   C2B53576   3.729  33.215   6.755
 9728POPC   C3B53577   3.704  33.133   7.055
 9728POPC   C4B53578   3.716  33.151   7.355
 9729POPC   NC353579  16.771  33.754   5.555
 9729POPC   PO453580  16.767  33.848   5.855
 9729POPC   GL153581  16.776  33.806   6.155
 9729POPC   GL253582  16.605  33.857   6.155
 9729POPC   C1A53583  16.735  33.791   6.455
 9729POPC   D2A53584  16.756  33.819   6.755
 9729POPC   C3A53585  16.696  33.809   7.055
 9729POPC   C4A53586  16.713  33.812   7.355
 9729POPC   C1B53587  16.587  33.997   6.455
 9729POPC   C2B53588  16.573  33.982   6.755
 9729POPC   C3B53589  16.505  33.983   7.055
 9729POPC   C4B53590  16.584  33.958   7.355
 9730POPC   NC353591   5.910  15.907   5.555
 9730POPC   PO453592   5.904  15.989   5.855
 9730POPC   GL153593   5.869  15.950   6.155
 9730POPC   GL253594   5.979  15.898   6.155
 9730POPC   C1A53595   5.834  15.971   6.455
 9730POPC   D2A53596   5.903  16.004   6.755
 9730POPC   C3A53597   5.915  15.999   7.055
 9730POPC   C4A53598   5.873  15.925   7.355
 9730POPC   C1B53599   6.025  15.761   6.455
 9730POPC   C2B53600   6.062  15.792   6.755
 9730POPC   C3B53601   6.012  15.774   7.055
 9730POPC   C4B53602   6.012  15.787   7.355
 9731POPC   NC353603   1.225   8.957   5.555
 9731POPC   PO453604   1.247   8.935   5.855
 9731POPC   GL153605   1.214   8.949   6.155
 9731POPC   GL253606   1.117   9.024   6.155
 9731POPC   C1A53607   1.246   8.997   6.455
 9731POPC   D2A53608   1.212   8.932   6.755
 9731POPC   C3A53609   1.185   8.985   7.055
 9731POPC   C4A53610   1.232   8.999   7.355
 9731POPC   C1B53611   1.040   9.117   6.455
 9731POPC   C2B53612   1.007   9.132   6.755
 9731POPC   C3B53613   1.053   9.145   7.055
 9731POPC   C4B53614   1.044   9.167   7.355
 9732POPC   NC353615  25.229  11.263   5.555
 9732POPC   PO453616  25.250  11.335   5.855
 9732POPC   GL153617  25.216  11.292   6.155
 9732POPC   GL253618  25.295  11.138   6.155
 9732POPC   C1A53619  25.291  11.338   6.455
 9732POPC   D2A53620  25.307  11.339   6.755
 9732POPC   C3A53621  25.311  11.260   7.055
 9732POPC   C4A53622  25.262  11.310   7.355
 9732POPC   C1B53623  25.395  11.105   6.455
 9732POPC   C2B53624  25.409  11.105   6.755
 9732POPC   C3B53625  25.349  11.094   7.055
 9732POPC   C4B53626  25.412  11.099   7.355
 9733POPC   NC353627  15.161  43.935   5.555
 9733POPC   PO453628  15.220  43.893   5.855
 9733POPC   GL153629  15.156  43.844   6.155
 9733POPC   GL253630  15.096  43.964   6.155
 9733POPC   C1A53631  15.204  43.851   6.455
 9733POPC   D2A53632  15.213  43.847   6.755
 9733POPC   C3A53633  15.146  43.918   7.055
 9733POPC   C4A53634  15.188  43.889   7.355
 9733POPC   C1B53635  14.993  44.036   6.455
 9733POPC   C2B53636  14.989  44.099   6.755
 9733POPC   C3B53637  15.020  44.102   7.055
 9733POPC   C4B53638  15.016  44.085   7.355
 9734POPC   NC353639   1.197  40.024   5.555
 9734POPC   PO453640   1.221  39.976   5.855
 9734POPC   GL153641   1.210  40.017   6.155
 9734POPC   GL253642   1.125  40.044   6.155
 9734POPC   C1A53643   1.178  40.052   6.455
 9734POPC   D2A53644   1.249  40.015   6.755
 9734POPC   C3A53645   1.170  39.991   7.055
 9734POPC   C4A53646   1.171  40.016   7.355
 9734POPC   C1B53647   0.926  40.087   6.455
 9734POPC   C2B53648   0.932  40.024   6.755
 9734POPC   C3B53649   0.991  40.077   7.055
 9734POPC   C4B53650   0.945  40.022   7.355
 9735POPC   NC353651   5.101  31.438   5.555
 9735POPC   PO453652   5.117  31.506   5.855
 9735POPC   GL153653   5.127  31.428   6.155
 9735POPC   GL253654   4.974  31.389   6.155
 9735POPC   C1A53655   5.087  31.473   6.455
 9735POPC   D2A53656   5.053  31.461   6.755
 9735POPC   C3A53657   5.083  31.441   7.055
 9735POPC   C4A53658   5.111  31.442   7.355
 9735POPC   C1B53659   4.975  31.271   6.455
 9735POPC   C2B53660   4.964  31.238   6.755
 9735POPC   C3B53661   4.931  31.238   7.055
 9735POPC   C4B53662   4.944  31.320   7.355
 9736POPC   NC353663  29.885  10.525   5.555
 9736POPC   PO453664  29.908  10.511   5.855
 9736POPC   GL153665  29.897  10.561   6.155
 9736POPC   GL253666  29.929  10.683   6.155
 9736POPC   C1A53667  29.877  10.491   6.455
 9736POPC   D2A53668  29.947  10.522   6.755
 9736POPC   C3A53669  29.930  10.516   7.055
 9736POPC   C4A53670  29.914  10.501   7.355
 9736POPC   C1B53671  29.956  10.779   6.455
 9736POPC   C2B53672  29.978  10.727   6.755
 9736POPC   C3B53673  30.024  10.776   7.055
 9736POPC   C4B53674  29.962  10.761   7.355
 9737POPC   NC353675  32.270  25.275   5.555
 9737POPC   PO453676  32.258  25.241   5.855
 9737POPC   GL153677  32.231  25.228   6.155
 9737POPC   GL253678  32.235  25.388   6.155
 9737POPC   C1A53679  32.241  25.278   6.455
 9737POPC   D2A53680  32.222  25.241   6.755
 9737POPC   C3A53681  32.222  25.243   7.055
 9737POPC   C4A53682  32.243  25.237   7.355
 9737POPC   C1B53683  32.121  25.526   6.455
 9737POPC   C2B53684  32.140  25.509   6.755
 9737POPC   C3B53685  32.151  25.544   7.055
 9737POPC   C4B53686  32.183  25.457   7.355
 9738POPC   NC353687  32.254   5.877   5.555
 9738POPC   PO453688  32.260   5.882   5.855
 9738POPC   GL153689  32.293   5.880   6.155
 9738POPC   GL253690  32.133   5.927   6.155
 9738POPC   C1A53691  32.237   5.885   6.455
 9738POPC   D2A53692  32.224   5.894   6.755
 9738POPC   C3A53693  32.289   5.841   7.055
 9738POPC   C4A53694  32.266   5.894   7.355
 9738POPC   C1B53695  32.013   5.992   6.455
 9738POPC   C2B53696  32.005   6.002   6.755
 9738POPC   C3B53697  32.032   6.019   7.055
 9738POPC   C4B53698  32.028   5.973   7.355
 9739POPC   NC353699  16.780  43.065   5.555
 9739POPC   PO453700  16.735  43.126   5.855
 9739POPC   GL153701  16.748  43.096   6.155
 9739POPC   GL253702  16.718  42.975   6.155
 9739POPC   C1A53703  16.727  43.095   6.455
 9739POPC   D2A53704  16.740  43.081   6.755
 9739POPC   C3A53705  16.741  43.083   7.055
 9739POPC   C4A53706  16.683  43.149   7.355
 9739POPC   C1B53707  16.800  42.894   6.455
 9739POPC   C2B53708  16.749  42.831   6.755
 9739POPC   C3B53709  16.710  42.837   7.055
 9739POPC   C4B53710  16.707  42.818   7.355
 9740POPC   NC353711  10.485  10.506   5.555
 9740POPC   PO453712  10.533  10.559   5.855
 9740POPC   GL153713  10.549  10.495   6.155
 9740POPC   GL253714  10.422  10.525   6.155
 9740POPC   C1A53715  10.495  10.506   6.455
 9740POPC   D2A53716  10.526  10.483   6.755
 9740POPC   C3A53717  10.567  10.541   7.055
 9740POPC   C4A53718  10.500  10.505   7.355
 9740POPC   C1B53719  10.298  10.634   6.455
 9740POPC   C2B53720  10.335  10.650   6.755
 9740POPC   C3B53721  10.333  10.606   7.055
 9740POPC   C4B53722  10.269  10.578   7.355
 9741POPC   NC353723  33.803  14.424   5.555
 9741POPC   PO453724  33.801  14.408   5.855
 9741POPC   GL153725  33.815  14.408   6.155
 9741POPC   GL253726  33.703  14.354   6.155
 9741POPC   C1A53727  33.788  14.431   6.455
 9741POPC   D2A53728  33.800  14.417   6.755
 9741POPC   C3A53729  33.784  14.368   7.055
 9741POPC   C4A53730  33.845  14.404   7.355
 9741POPC   C1B53731  33.637  14.257   6.455
 9741POPC   C2B53732  33.632  14.250   6.755
 9741POPC   C3B53733  33.608  14.291   7.055
 9741POPC   C4B53734  33.576  14.305   7.355
 9742POPC   NC353735  14.371  38.417   5.555
 9742POPC   PO453736  14.426  38.473   5.855
 9742POPC   GL153737  14.426  38.412   6.155
 9742POPC   GL253738  14.455  38.601   6.155
 9742POPC   C1A53739  14.399  38.463   6.455
 9742POPC   D2A53740  14.432  38.410   6.755
 9742POPC   C3A53741  14.379  38.473   7.055
 9742POPC   C4A53742  14.365  38.469   7.355
 9742POPC   C1B53743  14.406  38.716   6.455
 9742POPC   C2B53744  14.413  38.714   6.755
 9742POPC   C3B53745  14.385  38.715   7.055
 9742POPC   C4B53746  14.416  38.665   7.355
 9743POPC   NC353747   9.758  12.856   5.555
 9743POPC   PO453748   9.795  12.830   5.855
 9743POPC   GL153749   9.785  12.882   6.155
 9743POPC   GL253750   9.576  12.844   6.155
 9743POPC   C1A53751   9.705  12.823   6.455
 9743POPC   D2A53752   9.702  12.864   6.755
 9743POPC   C3A53753   9.782  12.852   7.055
 9743POPC   C4A53754   9.777  12.814   7.355
 9743POPC   C1B53755   9.465  12.835   6.455
 9743POPC   C2B53756   9.513  12.882   6.755
 9743POPC   C3B53757   9.479  12.843   7.055
 9743POPC   C4B53758   9.455  12.817   7.355
 9744POPC   NC353759  11.306  26.845   5.555
 9744POPC   PO453760  11.251  26.837   5.855
 9744POPC   GL153761  11.281  26.770   6.155
 9744POPC   GL253762  11.212  26.744   6.155
 9744POPC   C1A53763  11.257  26.802   6.455
 9744POPC   D2A53764  11.324  26.787   6.755
 9744POPC   C3A53765  11.276  26.796   7.055
 9744POPC   C4A53766  11.308  26.864   7.355
 9744POPC   C1B53767  11.168  26.585   6.455
 9744POPC   C2B53768  11.212  26.592   6.755
 9744POPC   C3B53769  11.224  26.629   7.055
 9744POPC   C4B53770  11.211  26.590   7.355
 9745POPC   NC353771  26.016  43.871   5.555
 9745POPC   PO453772  26.013  43.891   5.855
 9745POPC   GL153773  26.061  43.837   6.155
 9745POPC   GL253774  26.067  43.754   6.155
 9745POPC   C1A53775  26.056  43.919   6.455
 9745POPC   D2A53776  26.063  43.870   6.755
 9745POPC   C3A53777  26.038  43.851   7.055
 9745POPC   C4A53778  26.042  43.882   7.355
 9745POPC   C1B53779  26.154  43.707   6.455
 9745POPC   C2B53780  26.102  43.622   6.755
 9745POPC   C3B53781  26.131  43.652   7.055
 9745POPC   C4B53782  26.177  43.700   7.355
 9746POPC   NC353783  11.258   8.958   5.555
 9746POPC   PO453784  11.316   8.983   5.855
 9746POPC   GL153785  11.277   9.006   6.155
 9746POPC   GL253786  11.192   9.093   6.155
 9746POPC   C1A53787  11.294   8.988   6.455
 9746POPC   D2A53788  11.313   8.972   6.755
 9746POPC   C3A53789  11.309   8.930   7.055
 9746POPC   C4A53790  11.299   9.021   7.355
 9746POPC   C1B53791  11.074   9.093   6.455
 9746POPC   C2B53792  11.117   9.110   6.755
 9746POPC   C3B53793  11.137   9.092   7.055
 9746POPC   C4B53794  11.053   9.108   7.355
 9747POPC   NC353795  22.185   2.027   5.555
 9747POPC   PO453796  22.165   1.951   5.855
 9747POPC   GL153797  22.122   2.013   6.155
 9747POPC   GL253798  22.073   1.916   6.155
 9747POPC   C1A53799  22.204   1.955   6.455
 9747POPC   D2A53800  22.182   1.994   6.755
 9747POPC   C3A53801  22.129   2.028   7.055
 9747POPC   C4A53802  22.173   2.019   7.355
 9747POPC   C1B53803  22.014   1.787   6.455
 9747POPC   C2B53804  21.991   1.812   6.755
 9747POPC   C3B53805  22.052   1.829   7.055
 9747POPC   C4B53806  22.069   1.802   7.355
 9748POPC   NC353807   7.448  28.325   5.555
 9748POPC   PO453808   7.373  28.414   5.855
 9748POPC   GL153809   7.434  28.415   6.155
 9748POPC   GL253810   7.349  28.289   6.155
 9748POPC   C1A53811   7.408  28.330   6.455
 9748POPC   D2A53812   7.389  28.391   6.755
 9748POPC   C3A53813   7.456  28.404   7.055
 9748POPC   C4A53814   7.389  28.418   7.355
 9748POPC   C1B53815   7.280  28.094   6.455
 9748POPC   C2B53816   7.343  28.113   6.755
 9748POPC   C3B53817   7.298  28.177   7.055
 9748POPC   C4B53818   7.322  28.102   7.355
 9749POPC   NC353819  12.823  15.180   5.555
 9749POPC   PO453820  12.822  15.208   5.855
 9749POPC   GL153821  12.842  15.132   6.155
 9749POPC   GL253822  12.783  15.075   6.155
 9749POPC   C1A53823  12.861  15.152   6.455
 9749POPC   D2A53824  12.851  15.137   6.755
 9749POPC   C3A53825  12.841  15.153   7.055
 9749POPC   C4A53826  12.822  15.229   7.355
 9749POPC   C1B53827  12.793  14.891   6.455
 9749POPC   C2B53828  12.801  14.911   6.755
 9749POPC   C3B53829  12.790  14.928   7.055
 9749POPC   C4B53830  12.771  14.904   7.355
 9750POPC   NC353831  26.828   8.934   5.555
 9750POPC   PO453832  26.784   9.000   5.855
 9750POPC   GL153833  26.840   9.010   6.155
 9750POPC   GL253834  26.703   9.064   6.155
 9750POPC   C1A53835  26.831   8.925   6.455
 9750POPC   D2A53836  26.773   8.976   6.755
 9750POPC   C3A53837  26.867   8.950   7.055
 9750POPC   C4A53838  26.825   8.991   7.355
 9750POPC   C1B53839  26.596   9.062   6.455
 9750POPC   C2B53840  26.558   9.125   6.755
 9750POPC   C3B53841  26.543   9.104   7.055
 9750POPC   C4B53842  26.560   9.105   7.355
 9751POPC   NC353843  38.409  23.738   5.555
 9751POPC   PO453844  38.429  23.744   5.855
 9751POPC   GL153845  38.412  23.712   6.155
 9751POPC   GL253846  38.350  23.707   6.155
 9751POPC   C1A53847  38.416  23.716   6.455
 9751POPC   D2A53848  38.428  23.681   6.755
 9751POPC   C3A53849  38.490  23.735   7.055
 9751POPC   C4A53850  38.490  23.736   7.355
 9751POPC   C1B53851  38.229  23.741   6.455
 9751POPC   C2B53852  38.253  23.780   6.755
 9751POPC   C3B53853  38.202  23.788   7.055
 9751POPC   C4B53854  38.229  23.801   7.355
 9752POPC   NC353855   4.280  38.405   5.555
 9752POPC   PO453856   4.358  38.455   5.855
 9752POPC   GL153857   4.273  38.500   6.155
 9752POPC   GL253858   4.397  38.458   6.155
 9752POPC   C1A53859   4.302  38.408   6.455
 9752POPC   D2A53860   4.345  38.435   6.755
 9752POPC   C3A53861   4.332  38.473   7.055
 9752POPC   C4A53862   4.361  38.468   7.355
 9752POPC   C1B53863   4.517  38.531   6.455
 9752POPC   C2B53864   4.594  38.534   6.755
 9752POPC   C3B53865   4.521  38.500   7.055
 9752POPC   C4B53866   4.515  38.517   7.355
 9753POPC   NC353867  33.753  40.028   5.555
 9753POPC   PO453868  33.816  39.966   5.855
 9753POPC   GL153869  33.785  40.008   6.155
 9753POPC   GL253870  33.810  39.888   6.155
 9753POPC   C1A53871  33.804  40.002   6.455
 9753POPC   D2A53872  33.799  40.002   6.755
 9753POPC   C3A53873  33.816  40.012   7.055
 9753POPC   C4A53874  33.825  40.029   7.355
 9753POPC   C1B53875  33.786  39.708   6.455
 9753POPC   C2B53876  33.846  39.777   6.755
 9753POPC   C3B53877  33.771  39.714   7.055
 9753POPC   C4B53878  33.801  39.744   7.355
 9754POPC   NC353879  34.540  42.288   5.555
 9754POPC   PO453880  34.603  42.318   5.855
 9754POPC   GL153881  34.601  42.301   6.155
 9754POPC   GL253882  34.452  42.356   6.155
 9754POPC   C1A53883  34.543  42.296   6.455
 9754POPC   D2A53884  34.608  42.341   6.755
 9754POPC   C3A53885  34.605  42.372   7.055
 9754POPC   C4A53886  34.529  42.384   7.355
 9754POPC   C1B53887  34.332  42.316   6.455
 9754POPC   C2B53888  34.372  42.313   6.755
 9754POPC   C3B53889  34.339  42.345   7.055
 9754POPC   C4B53890  34.318  42.297   7.355
 9755POPC   NC353891  41.599  29.936   5.555
 9755POPC   PO453892  41.529  29.952   5.855
 9755POPC   GL153893  41.607  29.916   6.155
 9755POPC   GL253894  41.577  29.767   6.155
 9755POPC   C1A53895  41.550  29.934   6.455
 9755POPC   D2A53896  41.535  29.965   6.755
 9755POPC   C3A53897  41.543  29.901   7.055
 9755POPC   C4A53898  41.556  29.872   7.355
 9755POPC   C1B53899  41.587  29.682   6.455
 9755POPC   C2B53900  41.642  29.633   6.755
 9755POPC   C3B53901  41.630  29.672   7.055
 9755POPC   C4B53902  41.555  29.643   7.355
 9756POPC   NC353903  43.882  28.400   5.555
 9756POPC   PO453904  43.925  28.383   5.855
 9756POPC   GL153905  43.921  28.337   6.155
 9756POPC   GL253906  43.835  28.414   6.155
 9756POPC   C1A53907  43.891  28.341   6.455
 9756POPC   D2A53908  43.903  28.379   6.755
 9756POPC   C3A53909  43.848  28.325   7.055
 9756POPC   C4A53910  43.893  28.356   7.355
 9756POPC   C1B53911  43.695  28.537   6.455
 9756POPC   C2B53912  43.709  28.546   6.755
 9756POPC   C3B53913  43.756  28.551   7.055
 9756POPC   C4B53914  43.704  28.596   7.355
 9757POPC   NC353915  21.342  25.301   5.555
 9757POPC   PO453916  21.417  25.243   5.855
 9757POPC   GL153917  21.396  25.243   6.155
 9757POPC   GL253918  21.312  25.323   6.155
 9757POPC   C1A53919  21.395  25.256   6.455
 9757POPC   D2A53920  21.417  25.280   6.755
 9757POPC   C3A53921  21.341  25.273   7.055
 9757POPC   C4A53922  21.376  25.252   7.355
 9757POPC   C1B53923  21.193  25.373   6.455
 9757POPC   C2B53924  21.196  25.342   6.755
 9757POPC   C3B53925  21.205  25.351   7.055
 9757POPC   C4B53926  21.185  25.348   7.355
 9758POPC   NC353927  43.075  38.485   5.555
 9758POPC   PO453928  43.145  38.479   5.855
 9758POPC   GL153929  43.123  38.498   6.155
 9758POPC   GL253930  42.942  38.471   6.155
 9758POPC   C1A53931  43.078  38.466   6.455
 9758POPC   D2A53932  43.087  38.468   6.755
 9758POPC   C3A53933  43.061  38.447   7.055
 9758POPC   C4A53934  43.152  38.467   7.355
 9758POPC   C1B53935  42.833  38.414   6.455
 9758POPC   C2B53936  42.866  38.401   6.755
 9758POPC   C3B53937  42.909  38.457   7.055
 9758POPC   C4B53938  42.852  38.405   7.355
 9759POPC   NC353939   2.769  23.669   5.555
 9759POPC   PO453940   2.810  23.758   5.855
 9759POPC   GL153941   2.784  23.696   6.155
 9759POPC   GL253942   2.835  23.597   6.155
 9759POPC   C1A53943   2.804  23.673   6.455
 9759POPC   D2A53944   2.809  23.671   6.755
 9759POPC   C3A53945   2.721  23.679   7.055
 9759POPC   C4A53946   2.768  23.682   7.355
 9759POPC   C1B53947   2.898  23.553   6.455
 9759POPC   C2B53948   2.938  23.540   6.755
 9759POPC   C3B53949   2.913  23.541   7.055
 9759POPC   C4B53950   2.863  23.495   7.355
 9760POPC   NC353951  23.723  24.479   5.555
 9760POPC   PO453952  23.748  24.518   5.855
 9760POPC   GL153953  23.745  24.518   6.155
 9760POPC   GL253954  23.775  24.389   6.155
 9760POPC   C1A53955  23.732  24.513   6.455
 9760POPC   D2A53956  23.733  24.498   6.755
 9760POPC   C3A53957  23.710  24.469   7.055
 9760POPC   C4A53958  23.706  24.457   7.355
 9760POPC   C1B53959  23.736  24.284   6.455
 9760POPC   C2B53960  23.739  24.228   6.755
 9760POPC   C3B53961  23.777  24.204   7.055
 9760POPC   C4B53962  23.760  24.282   7.355
 9761POPC   NC353963  40.028  26.854   5.555
 9761POPC   PO453964  39.964  26.856   5.855
 9761POPC   GL153965  39.976  26.807   6.155
 9761POPC   GL253966  39.950  26.729   6.155
 9761POPC   C1A53967  39.996  26.814   6.455
 9761POPC   D2A53968  40.014  26.840   6.755
 9761POPC   C3A53969  39.958  26.786   7.055
 9761POPC   C4A53970  39.984  26.815   7.355
 9761POPC   C1B53971  39.848  26.671   6.455
 9761POPC   C2B53972  39.849  26.632   6.755
 9761POPC   C3B53973  39.852  26.681   7.055
 9761POPC   C4B53974  39.796  26.682   7.355
 9762POPC   NC353975  31.448  43.929   5.555
 9762POPC   PO453976  31.449  43.888   5.855
 9762POPC   GL153977  31.500  43.920   6.155
 9762POPC   GL253978  31.567  43.752   6.155
 9762POPC   C1A53979  31.505  43.857   6.455
 9762POPC   D2A53980  31.510  43.856   6.755
 9762POPC   C3A53981  31.499  43.863   7.055
 9762POPC   C4A53982  31.424  43.868   7.355
 9762POPC   C1B53983  31.688  43.745   6.455
 9762POPC   C2B53984  31.674  43.691   6.755
 9762POPC   C3B53985  31.686  43.737   7.055
 9762POPC   C4B53986  31.686  43.682   7.355
 9763POPC   NC353987  33.014  25.288   5.555
 9763POPC   PO453988  33.029  25.219   5.855
 9763POPC   GL153989  33.048  25.217   6.155
 9763POPC   GL253990  32.919  25.400   6.155
 9763POPC   C1A53991  33.074  25.304   6.455
 9763POPC   D2A53992  33.045  25.252   6.755
 9763POPC   C3A53993  33.047  25.279   7.055
 9763POPC   C4A53994  33.047  25.285   7.355
 9763POPC   C1B53995  32.878  25.466   6.455
 9763POPC   C2B53996  32.945  25.462   6.755
 9763POPC   C3B53997  32.909  25.520   7.055
 9763POPC   C4B53998  32.876  25.446   7.355
 9764POPC   NC353999  17.473  29.141   5.555
 9764POPC   PO454000  17.541  29.191   5.855
 9764POPC   GL154001  17.527  29.176   6.155
 9764POPC   GL254002  17.645  29.086   6.155
 9764POPC   C1A54003  17.516  29.178   6.455
 9764POPC   D2A54004  17.509  29.106   6.755
 9764POPC   C3A54005  17.465  29.194   7.055
 9764POPC   C4A54006  17.481  29.128   7.355
 9764POPC   C1B54007  17.725  29.013   6.455
 9764POPC   C2B54008  17.741  29.083   6.755
 9764POPC   C3B54009  17.766  29.069   7.055
 9764POPC   C4B54010  17.719  29.057   7.355
 9765POPC   NC354011  28.325  15.188   5.555
 9765POPC   PO454012  28.401  15.176   5.855
 9765POPC   GL154013  28.319  15.158   6.155
 9765POPC   GL254014  28.226  15.161   6.155
 9765POPC   C1A54015  28.333  15.221   6.455
 9765POPC   D2A54016  28.383  15.165   6.755
 9765POPC   C3A54017  28.345  15.176   7.055
 9765POPC   C4A54018  28.350  15.175   7.355
 9765POPC   C1B54019  28.080  15.172   6.455
 9765POPC   C2B54020  28.155  15.168   6.755
 9765POPC   C3B54021  28.070  15.174   7.055
 9765POPC   C4B54022  28.081  15.174   7.355
 9766POPC   NC354023  33.796  34.607   5.555
 9766POPC   PO454024  33.848  34.566   5.855
 9766POPC   GL154025  33.760  34.569   6.155
 9766POPC   GL254026  33.796  34.457   6.155
 9766POPC   C1A54027  33.768  34.550   6.455
 9766POPC   D2A54028  33.850  34.586   6.755
 9766POPC   C3A54029  33.800  34.560   7.055
 9766POPC   C4A54030  33.838  34.577   7.355
 9766POPC   C1B54031  33.739  34.294   6.455
 9766POPC   C2B54032  33.757  34.362   6.755
 9766POPC   C3B54033  33.689  34.388   7.055
 9766POPC   C4B54034  33.708  34.383   7.355
 9767POPC   NC354035   1.167  42.307   5.555
 9767POPC   PO454036   1.172  42.335   5.855
 9767POPC   GL154037   1.178  42.383   6.155
 9767POPC   GL254038   1.286  42.488   6.155
 9767POPC   C1A54039   1.255  42.324   6.455
 9767POPC   D2A54040   1.186  42.293   6.755
 9767POPC   C3A54041   1.202  42.287   7.055
 9767POPC   C4A54042   1.241  42.343   7.355
 9767POPC   C1B54043   1.304  42.571   6.455
 9767POPC   C2B54044   1.363  42.519   6.755
 9767POPC   C3B54045   1.339  42.581   7.055
 9767POPC   C4B54046   1.316  42.590   7.355
 9768POPC   NC354047  22.198  43.884   5.555
 9768POPC   PO454048  22.146  43.893   5.855
 9768POPC   GL154049  22.156  43.885   6.155
 9768POPC   GL254050  22.324  43.836   6.155
 9768POPC   C1A54051  22.166  43.920   6.455
 9768POPC   D2A54052  22.145  43.902   6.755
 9768POPC   C3A54053  22.160  43.911   7.055
 9768POPC   C4A54054  22.173  43.930   7.355
 9768POPC   C1B54055  22.404  43.781   6.455
 9768POPC   C2B54056  22.416  43.859   6.755
 9768POPC   C3B54057  22.375  43.829   7.055
 9768POPC   C4B54058  22.369  43.861   7.355
 9769POPC   NC354059  36.143  40.738   5.555
 9769POPC   PO454060  36.091  40.749   5.855
 9769POPC   GL154061  36.167  40.737   6.155
 9769POPC   GL254062  36.266  40.816   6.155
 9769POPC   C1A54063  36.121  40.775   6.455
 9769POPC   D2A54064  36.136  40.751   6.755
 9769POPC   C3A54065  36.159  40.743   7.055
 9769POPC   C4A54066  36.092  40.809   7.355
 9769POPC   C1B54067  36.371  40.857   6.455
 9769POPC   C2B54068  36.351  40.940   6.755
 9769POPC   C3B54069  36.398  40.869   7.055
 9769POPC   C4B54070  36.337  40.916   7.355
 9770POPC   NC354071  19.076  38.438   5.555
 9770POPC   PO454072  19.051  38.489   5.855
 9770POPC   GL154073  19.057  38.433   6.155
 9770POPC   GL254074  19.163  38.427   6.155
 9770POPC   C1A54075  19.039  38.406   6.455
 9770POPC   D2A54076  19.064  38.428   6.755
 9770POPC   C3A54077  19.094  38.493   7.055
 9770POPC   C4A54078  19.075  38.481   7.355
 9770POPC   C1B54079  19.345  38.474   6.455
 9770POPC   C2B54080  19.315  38.427   6.755
 9770POPC   C3B54081  19.336  38.485   7.055
 9770POPC   C4B54082  19.338  38.499   7.355
 9771POPC   NC354083   7.382  41.540   5.555
 9771POPC   PO454084   7.433  41.532   5.855
 9771POPC   GL154085   7.429  41.543   6.155
 9771POPC   GL254086   7.540  41.505   6.155
 9771POPC   C1A54087   7.419  41.520   6.455
 9771POPC   D2A54088   7.407  41.515   6.755
 9771POPC   C3A54089   7.427  41.567   7.055
 9771POPC   C4A54090   7.389  41.560   7.355
 9771POPC   C1B54091   7.658  41.417   6.455
 9771POPC   C2B54092   7.615  41.368   6.755
 9771POPC   C3B54093   7.666  41.443   7.055
 9771POPC   C4B54094   7.640  41.439   7.355
 9772POPC   NC354095  24.499  19.854   5.555
 9772POPC   PO454096  24.525  19.880   5.855
 9772POPC   GL154097  24.536  19.797   6.155
 9772POPC   GL254098  24.556  19.911   6.155
 9772POPC   C1A54099  24.471  19.858   6.455
 9772POPC   D2A54100  24.508  19.830   6.755
 9772POPC   C3A54101  24.486  19.824   7.055
 9772POPC   C4A54102  24.474  19.857   7.355
 9772POPC   C1B54103  24.682  19.900   6.455
 9772POPC   C2B54104  24.693  19.906   6.755
 9772POPC   C3B54105  24.713  19.968   7.055
 9772POPC   C4B54106  24.696  19.941   7.355
 9773POPC   NC354107   5.911  31.453   5.555
 9773POPC   PO454108   5.900  31.422   5.855
 9773POPC   GL154109   5.858  31.449   6.155
 9773POPC   GL254110   5.954  31.506   6.155
 9773POPC   C1A54111   5.822  31.462   6.455
 9773POPC   D2A54112   5.858  31.498   6.755
 9773POPC   C3A54113   5.826  31.432   7.055
 9773POPC   C4A54114   5.840  31.473   7.355
 9773POPC   C1B54115   6.065  31.536   6.455
 9773POPC   C2B54116   6.098  31.568   6.755
 9773POPC   C3B54117   6.118  31.529   7.055
 9773POPC   C4B54118   6.061  31.533   7.355
 9774POPC   NC354119  14.394  30.662   5.555
 9774POPC   PO454120  14.442  30.705   5.855
 9774POPC   GL154121  14.364  30.683   6.155
 9774POPC   GL254122  14.474  30.790   6.155
 9774POPC   C1A54123  14.384  30.665   6.455
 9774POPC   D2A54124  14.381  30.692   6.755
 9774POPC   C3A54125  14.364  30.683   7.055
 9774POPC   C4A54126  14.387  30.672   7.355
 9774POPC   C1B54127  14.594  30.796   6.455
 9774POPC   C2B54128  14.593  30.791   6.755
 9774POPC   C3B54129  14.567  30.822   7.055
 9774POPC   C4B54130  14.623  30.875   7.355
 9775POPC   NC354131   4.352  36.083   5.555
 9775POPC   PO454132   4.316  36.169   5.855
 9775POPC   GL154133   4.305  36.155   6.155
 9775POPC   GL254134   4.368  35.991   6.155
 9775POPC   C1A54135   4.324  36.162   6.455
 9775POPC   D2A54136   4.337  36.108   6.755
 9775POPC   C3A54137   4.305  36.100   7.055
 9775POPC   C4A54138   4.360  36.146   7.355
 9775POPC   C1B54139   4.365  35.904   6.455
 9775POPC   C2B54140   4.408  35.922   6.755
 9775POPC   C3B54141   4.415  35.851   7.055
 9775POPC   C4B54142   4.352  35.852   7.355
 9776POPC   NC354143  33.001  32.990   5.555
 9776POPC   PO454144  33.040  33.070   5.855
 9776POPC   GL154145  33.041  33.064   6.155
 9776POPC   GL254146  32.937  32.926   6.155
 9776POPC   C1A54147  33.001  32.991   6.455
 9776POPC   D2A54148  33.056  33.029   6.755
 9776POPC   C3A54149  32.984  32.999   7.055
 9776POPC   C4A54150  33.044  32.981   7.355
 9776POPC   C1B54151  32.978  32.775   6.455
 9776POPC   C2B54152  32.931  32.760   6.755
 9776POPC   C3B54153  32.921  32.813   7.055
 9776POPC   C4B54154  32.900  32.758   7.355
 9777POPC   NC354155  43.078  16.773   5.555
 9777POPC   PO454156  43.068  16.741   5.855
 9777POPC   GL154157  43.082  16.722   6.155
 9777POPC   GL254158  42.964  16.683   6.155
 9777POPC   C1A54159  43.124  16.715   6.455
 9777POPC   D2A54160  43.141  16.688   6.755
 9777POPC   C3A54161  43.101  16.722   7.055
 9777POPC   C4A54162  43.107  16.757   7.355
 9777POPC   C1B54163  42.895  16.556   6.455
 9777POPC   C2B54164  42.913  16.564   6.755
 9777POPC   C3B54165  42.871  16.634   7.055
 9777POPC   C4B54166  42.873  16.611   7.355
 9778POPC   NC354167  15.922  35.320   5.555
 9778POPC   PO454168  15.972  35.302   5.855
 9778POPC   GL154169  15.985  35.395   6.155
 9778POPC   GL254170  15.884  35.437   6.155
 9778POPC   C1A54171  15.990  35.394   6.455
 9778POPC   D2A54172  15.962  35.356   6.755
 9778POPC   C3A54173  15.967  35.387   7.055
 9778POPC   C4A54174  15.968  35.382   7.355
 9778POPC   C1B54175  15.760  35.408   6.455
 9778POPC   C2B54176  15.737  35.415   6.755
 9778POPC   C3B54177  15.702  35.420   7.055
 9778POPC   C4B54178  15.681  35.474   7.355
 9779POPC   NC354179  21.363  40.042   5.555
 9779POPC   PO454180  21.342  39.976   5.855
 9779POPC   GL154181  21.405  39.984   6.155
 9779POPC   GL254182  21.451  39.864   6.155
 9779POPC   C1A54183  21.371  39.977   6.455
 9779POPC   D2A54184  21.406  39.969   6.755
 9779POPC   C3A54185  21.434  40.021   7.055
 9779POPC   C4A54186  21.426  40.034   7.355
 9779POPC   C1B54187  21.588  39.870   6.455
 9779POPC   C2B54188  21.554  39.841   6.755
 9779POPC   C3B54189  21.567  39.844   7.055
 9779POPC   C4B54190  21.588  39.776   7.355
 9780POPC   NC354191  15.140   5.098   5.555
 9780POPC   PO454192  15.170   5.135   5.855
 9780POPC   GL154193  15.214   5.087   6.155
 9780POPC   GL254194  15.095   4.950   6.155
 9780POPC   C1A54195  15.194   5.137   6.455
 9780POPC   D2A54196  15.184   5.072   6.755
 9780POPC   C3A54197  15.151   5.094   7.055
 9780POPC   C4A54198  15.187   5.080   7.355
 9780POPC   C1B54199  15.084   4.894   6.455
 9780POPC   C2B54200  15.133   4.861   6.755
 9780POPC   C3B54201  15.059   4.815   7.055
 9780POPC   C4B54202  15.136   4.844   7.355
 9781POPC   NC354203  19.874  20.636   5.555
 9781POPC   PO454204  19.828  20.579   5.855
 9781POPC   GL154205  19.807  20.603   6.155
 9781POPC   GL254206  19.940  20.651   6.155
 9781POPC   C1A54207  19.881  20.608   6.455
 9781POPC   D2A54208  19.818  20.626   6.755
 9781POPC   C3A54209  19.816  20.567   7.055
 9781POPC   C4A54210  19.806  20.563   7.355
 9781POPC   C1B54211  20.050  20.571   6.455
 9781POPC   C2B54212  20.099  20.601   6.755
 9781POPC   C3B54213  20.130  20.587   7.055
 9781POPC   C4B54214  20.080  20.590   7.355
 9782POPC   NC354215  30.716  20.598   5.555
 9782POPC   PO454216  30.658  20.594   5.855
 9782POPC   GL154217  30.699  20.606   6.155
 9782POPC   GL254218  30.604  20.656   6.155
 9782POPC   C1A54219  30.679  20.611   6.455
 9782POPC   D2A54220  30.729  20.602   6.755
 9782POPC   C3A54221  30.728  20.647   7.055
 9782POPC   C4A54222  30.671  20.580   7.355
 9782POPC   C1B54223  30.474  20.694   6.455
 9782POPC   C2B54224  30.454  20.632   6.755
 9782POPC   C3B54225  30.472  20.631   7.055
 9782POPC   C4B54226  30.465  20.644   7.355
 9783POPC   NC354227   2.033  17.513   5.555
 9783POPC   PO454228   1.976  17.523   5.855
 9783POPC   GL154229   1.965  17.493   6.155
 9783POPC   GL254230   1.945  17.424   6.155
 9783POPC   C1A54231   1.977  17.485   6.455
 9783POPC   D2A54232   2.008  17.534   6.755
 9783POPC   C3A54233   2.028  17.537   7.055
 9783POPC   C4A54234   1.955  17.540   7.355
 9783POPC   C1B54235   1.835  17.269   6.455
 9783POPC   C2B54236   1.827  17.321   6.755
 9783POPC   C3B54237   1.903  17.305   7.055
 9783POPC   C4B54238   1.867  17.254   7.355
 9784POPC   NC354239   6.649  12.068   5.555
 9784POPC   PO454240   6.647  12.046   5.855
 9784POPC   GL154241   6.652  12.086   6.155
 9784POPC   GL254242   6.782  12.058   6.155
 9784POPC   C1A54243   6.663  12.067   6.455
 9784POPC   D2A54244   6.654  12.042   6.755
 9784POPC   C3A54245   6.622  12.026   7.055
 9784POPC   C4A54246   6.693  12.067   7.355
 9784POPC   C1B54247   6.924  12.015   6.455
 9784POPC   C2B54248   6.872  12.054   6.755
 9784POPC   C3B54249   6.917  12.023   7.055
 9784POPC   C4B54250   6.871  12.046   7.355
 9785POPC   NC354251   8.215  15.149   5.555
 9785POPC   PO454252   8.228  15.170   5.855
 9785POPC   GL154253   8.202  15.218   6.155
 9785POPC   GL254254   8.276  15.187   6.155
 9785POPC   C1A54255   8.227  15.145   6.455
 9785POPC   D2A54256   8.157  15.172   6.755
 9785POPC   C3A54257   8.219  15.157   7.055
 9785POPC   C4A54258   8.183  15.176   7.355
 9785POPC   C1B54259   8.401  15.162   6.455
 9785POPC   C2B54260   8.492  15.200   6.755
 9785POPC   C3B54261   8.460  15.148   7.055
 9785POPC   C4B54262   8.463  15.168   7.355
 9786POPC   NC354263   0.461  10.520   5.555
 9786POPC   PO454264   0.394  10.517   5.855
 9786POPC   GL154265   0.445  10.536   6.155
 9786POPC   GL254266   0.513  10.624   6.155
 9786POPC   C1A54267   0.388  10.536   6.455
 9786POPC   D2A54268   0.400  10.531   6.755
 9786POPC   C3A54269   0.488  10.533   7.055
 9786POPC   C4A54270   0.434  10.542   7.355
 9786POPC   C1B54271   0.483  10.793   6.455
 9786POPC   C2B54272   0.528  10.799   6.755
 9786POPC   C3B54273   0.558  10.757   7.055
 9786POPC   C4B54274   0.497  10.755   7.355
 9787POPC   NC354275   1.171  13.613   5.555
 9787POPC   PO454276   1.210  13.631   5.855
 9787POPC   GL154277   1.167  13.595   6.155
 9787POPC   GL254278   1.251  13.704   6.155
 9787POPC   C1A54279   1.199  13.595   6.455
 9787POPC   D2A54280   1.236  13.626   6.755
 9787POPC   C3A54281   1.253  13.640   7.055
 9787POPC   C4A54282   1.191  13.593   7.355
 9787POPC   C1B54283   1.286  13.925   6.455
 9787POPC   C2B54284   1.263  13.890   6.755
 9787POPC   C3B54285   1.241  13.844   7.055
 9787POPC   C4B54286   1.240  13.919   7.355
 9788POPC   NC354287  36.124  24.462   5.555
 9788POPC   PO454288  36.145  24.527   5.855
 9788POPC   GL154289  36.135  24.452   6.155
 9788POPC   GL254290  36.141  24.328   6.155
 9788POPC   C1A54291  36.162  24.475   6.455
 9788POPC   D2A54292  36.168  24.534   6.755
 9788POPC   C3A54293  36.095  24.539   7.055
 9788POPC   C4A54294  36.122  24.492   7.355
 9788POPC   C1B54295  36.166  24.221   6.455
 9788POPC   C2B54296  36.145  24.234   6.755
 9788POPC   C3B54297  36.149  24.216   7.055
 9788POPC   C4B54298  36.218  24.258   7.355
 9789POPC   NC354299  33.037  22.928   5.555
 9789POPC   PO454300  32.999  22.888   5.855
 9789POPC   GL154301  32.988  22.933   6.155
 9789POPC   GL254302  33.104  22.820   6.155
 9789POPC   C1A54303  32.992  22.898   6.455
 9789POPC   D2A54304  33.067  22.930   6.755
 9789POPC   C3A54305  33.038  22.974   7.055
 9789POPC   C4A54306  32.987  22.933   7.355
 9789POPC   C1B54307  33.106  22.688   6.455
 9789POPC   C2B54308  33.036  22.682   6.755
 9789POPC   C3B54309  33.118  22.649   7.055
 9789POPC   C4B54310  33.130  22.730   7.355
 9790POPC   NC354311  21.356  18.259   5.555
 9790POPC   PO454312  21.398  18.327   5.855
 9790POPC   GL154313  21.345  18.319   6.155
 9790POPC   GL254314  21.366  18.140   6.155
 9790POPC   C1A54315  21.399  18.311   6.455
 9790POPC   D2A54316  21.396  18.258   6.755
 9790POPC   C3A54317  21.403  18.308   7.055
 9790POPC   C4A54318  21.393  18.313   7.355
 9790POPC   C1B54319  21.378  18.069   6.455
 9790POPC   C2B54320  21.453  18.046   6.755
 9790POPC   C3B54321  21.378  17.990   7.055
 9790POPC   C4B54322  21.474  18.042   7.355
 9791POPC   NC354323  20.606   8.934   5.555
 9791POPC   PO454324  20.567   8.948   5.855
 9791POPC   GL154325  20.607   8.989   6.155
 9791POPC   GL254326  20.619   9.119   6.155
 9791POPC   C1A54327  20.634   8.999   6.455
 9791POPC   D2A54328  20.654   9.007   6.755
 9791POPC   C3A54329  20.633   9.001   7.055
 9791POPC   C4A54330  20.582   8.994   7.355
 9791POPC   C1B54331  20.525   9.198   6.455
 9791POPC   C2B54332  20.504   9.173   6.755
 9791POPC   C3B54333  20.551   9.189   7.055
 9791POPC   C4B54334  20.563   9.245   7.355
 9792POPC   NC354335  18.299  31.485   5.555
 9792POPC   PO454336  18.276  31.504   5.855
 9792POPC   GL154337  18.278  31.442   6.155
 9792POPC   GL254338  18.135  31.450   6.155
 9792POPC   C1A54339  18.283  31.438   6.455
 9792POPC   D2A54340  18.305  31.458   6.755
 9792POPC   C3A54341  18.287  31.516   7.055
 9792POPC   C4A54342  18.303  31.501   7.355
 9792POPC   C1B54343  18.025  31.381   6.455
 9792POPC   C2B54344  18.046  31.333   6.755
 9792POPC   C3B54345  18.043  31.329   7.055
 9792POPC   C4B54346  18.024  31.411   7.355
 9793POPC   NC354347  11.341   4.274   5.555
 9793POPC   PO454348  11.347   4.366   5.855
 9793POPC   GL154349  11.304   4.282   6.155
 9793POPC   GL254350  11.414   4.438   6.155
 9793POPC   C1A54351  11.295   4.288   6.455
 9793POPC   D2A54352  11.298   4.300   6.755
 9793POPC   C3A54353  11.286   4.289   7.055
 9793POPC   C4A54354  11.274   4.362   7.355
 9793POPC   C1B54355  11.453   4.539   6.455
 9793POPC   C2B54356  11.479   4.526   6.755
 9793POPC   C3B54357  11.449   4.498   7.055
 9793POPC   C4B54358  11.450   4.488   7.355
 9794POPC   NC354359  43.068  29.951   5.555
 9794POPC   PO454360  43.158  29.907   5.855
 9794POPC   GL154361  43.112  29.922   6.155
 9794POPC   GL254362  43.123  29.796   6.155
 9794POPC   C1A54363  43.151  29.899   6.455
 9794POPC   D2A54364  43.076  29.917   6.755
 9794POPC   C3A54365  43.113  29.948   7.055
 9794POPC   C4A54366  43.104  29.933   7.355
 9794POPC   C1B54367  43.059  29.663   6.455
 9794POPC   C2B54368  43.046  29.650   6.755
 9794POPC   C3B54369  43.078  29.643   7.055
 9794POPC   C4B54370  43.022  29.687   7.355
 9795POPC   NC354371   3.500  21.376   5.555
 9795POPC   PO454372   3.552  21.400   5.855
 9795POPC   GL154373   3.515  21.426   6.155
 9795POPC   GL254374   3.468  21.338   6.155
 9795POPC   C1A54375   3.512  21.415   6.455
 9795POPC   D2A54376   3.561  21.355   6.755
 9795POPC   C3A54377   3.541  21.418   7.055
 9795POPC   C4A54378   3.495  21.348   7.355
 9795POPC   C1B54379   3.362  21.243   6.455
 9795POPC   C2B54380   3.329  21.197   6.755
 9795POPC   C3B54381   3.396  21.237   7.055
 9795POPC   C4B54382   3.303  21.224   7.355
 9796POPC   NC354383   6.596  15.141   5.555
 9796POPC   PO454384   6.615  15.219   5.855
 9796POPC   GL154385   6.654  15.131   6.155
 9796POPC   GL254386   6.729  15.202   6.155
 9796POPC   C1A54387   6.687  15.213   6.455
 9796POPC   D2A54388   6.621  15.201   6.755
 9796POPC   C3A54389   6.655  15.226   7.055
 9796POPC   C4A54390   6.615  15.143   7.355
 9796POPC   C1B54391   6.833  15.325   6.455
 9796POPC   C2B54392   6.852  15.277   6.755
 9796POPC   C3B54393   6.902  15.328   7.055
 9796POPC   C4B54394   6.877  15.278   7.355
 9797POPC   NC354395  11.302  13.622   5.555
 9797POPC   PO454396  11.324  13.647   5.855
 9797POPC   GL154397  11.261  13.632   6.155
 9797POPC   GL254398  11.391  13.698   6.155
 9797POPC   C1A54399  11.321  13.637   6.455
 9797POPC   D2A54400  11.297  13.600   6.755
 9797POPC   C3A54401  11.269  13.636   7.055
 9797POPC   C4A54402  11.307  13.664   7.355
 9797POPC   C1B54403  11.507  13.813   6.455
 9797POPC   C2B54404  11.486  13.780   6.755
 9797POPC   C3B54405  11.473  13.782   7.055
 9797POPC   C4B54406  11.500  13.837   7.355
 9798POPC   NC354407  22.179  26.078   5.555
 9798POPC   PO454408  22.133  26.024   5.855
 9798POPC   GL154409  22.144  25.999   6.155
 9798POPC   GL254410  22.017  26.101   6.155
 9798POPC   C1A54411  22.148  26.081   6.455
 9798POPC   D2A54412  22.151  26.088   6.755
 9798POPC   C3A54413  22.159  26.063   7.055
 9798POPC   C4A54414  22.197  26.062   7.355
 9798POPC   C1B54415  21.925  26.160   6.455
 9798POPC   C2B54416  21.935  26.128   6.755
 9798POPC   C3B54417  21.967  26.164   7.055
 9798POPC   C4B54418  21.978  26.155   7.355
 9799POPC   NC354419  32.236  15.948   5.555
 9799POPC   PO454420  32.227  15.927   5.855
 9799POPC   GL154421  32.205  15.978   6.155
 9799POPC   GL254422  32.165  15.957   6.155
 9799POPC   C1A54423  32.269  15.928   6.455
 9799POPC   D2A54424  32.266  15.955   6.755
 9799POPC   C3A54425  32.265  15.987   7.055
 9799POPC   C4A54426  32.210  15.993   7.355
 9799POPC   C1B54427  31.973  15.908   6.455
 9799POPC   C2B54428  32.038  15.878   6.755
 9799POPC   C3B54429  32.038  15.931   7.055
 9799POPC   C4B54430  32.053  15.859   7.355
 9800POPC   NC354431  39.263  27.586   5.555
 9800POPC   PO454432  39.216  27.624   5.855
 9800POPC   GL154433  39.248  27.568   6.155
 9800POPC   GL254434  39.118  27.539   6.155
 9800POPC   C1A54435  39.191  27.595   6.455
 9800POPC   D2A54436  39.238  27.568   6.755
 9800POPC   C3A54437  39.203  27.593   7.055
 9800POPC   C4A54438  39.230  27.619   7.355
 9800POPC   C1B54439  38.964  27.478   6.455
 9800POPC   C2B54440  38.985  27.532   6.755
 9800POPC   C3B54441  38.958  27.546   7.055
 9800POPC   C4B54442  38.984  27.541   7.355
 9801POPC   NC354443  37.642  16.684   5.555
 9801POPC   PO454444  37.684  16.681   5.855
 9801POPC   GL154445  37.664  16.705   6.155
 9801POPC   GL254446  37.732  16.686   6.155
 9801POPC   C1A54447  37.663  16.703   6.455
 9801POPC   D2A54448  37.726  16.776   6.755
 9801POPC   C3A54449  37.650  16.703   7.055
 9801POPC   C4A54450  37.672  16.731   7.355
 9801POPC   C1B54451  37.906  16.630   6.455
 9801POPC   C2B54452  37.856  16.613   6.755
 9801POPC   C3B54453  37.911  16.551   7.055
 9801POPC   C4B54454  37.859  16.582   7.355
 9802POPC   NC354455   3.556  15.992   5.555
 9802POPC   PO454456   3.506  15.941   5.855
 9802POPC   GL154457   3.505  15.912   6.155
 9802POPC   GL254458   3.619  15.940   6.155
 9802POPC   C1A54459   3.545  15.926   6.455
 9802POPC   D2A54460   3.515  15.955   6.755
 9802POPC   C3A54461   3.546  15.938   7.055
 9802POPC   C4A54462   3.552  15.941   7.355
 9802POPC   C1B54463   3.793  15.970   6.455
 9802POPC   C2B54464   3.794  15.913   6.755
 9802POPC   C3B54465   3.806  15.970   7.055
 9802POPC   C4B54466   3.775  15.959   7.355
 9803POPC   NC354467  30.705  12.868   5.555
 9803POPC   PO454468  30.679  12.815   5.855
 9803POPC   GL154469  30.677  12.804   6.155
 9803POPC   GL254470  30.779  12.767   6.155
 9803POPC   C1A54471  30.702  12.872   6.455
 9803POPC   D2A54472  30.729  12.888   6.755
 9803POPC   C3A54473  30.651  12.839   7.055
 9803POPC   C4A54474  30.666  12.840   7.355
 9803POPC   C1B54475  30.966  12.720   6.455
 9803POPC   C2B54476  30.965  12.761   6.755
 9803POPC   C3B54477  30.896  12.801   7.055
 9803POPC   C4B54478  30.945  12.780   7.355
 9804POPC   NC354479  35.303  24.462   5.555
 9804POPC   PO454480  35.363  24.458   5.855
 9804POPC   GL154481  35.391  24.463   6.155
 9804POPC   GL254482  35.279  24.594   6.155
 9804POPC   C1A54483  35.306  24.455   6.455
 9804POPC   D2A54484  35.338  24.462   6.755
 9804POPC   C3A54485  35.302  24.453   7.055
 9804POPC   C4A54486  35.302  24.499   7.355
 9804POPC   C1B54487  35.243  24.726   6.455
 9804POPC   C2B54488  35.295  24.710   6.755
 9804POPC   C3B54489  35.254  24.735   7.055
 9804POPC   C4B54490  35.238  24.721   7.355
 9805POPC   NC354491  22.983  21.358   5.555
 9805POPC   PO454492  22.892  21.350   5.855
 9805POPC   GL154493  22.893  21.398   6.155
 9805POPC   GL254494  23.012  21.528   6.155
 9805POPC   C1A54495  22.937  21.426   6.455
 9805POPC   D2A54496  22.946  21.339   6.755
 9805POPC   C3A54497  22.899  21.379   7.055
 9805POPC   C4A54498  22.933  21.396   7.355
 9805POPC   C1B54499  23.011  21.581   6.455
 9805POPC   C2B54500  23.006  21.601   6.755
 9805POPC   C3B54501  22.964  21.637   7.055
 9805POPC   C4B54502  23.038  21.679   7.355
 9806POPC   NC354503  23.675  15.987   5.555
 9806POPC   PO454504  23.685  15.952   5.855
 9806POPC   GL154505  23.741  15.999   6.155
 9806POPC   GL254506  23.712  16.053   6.155
 9806POPC   C1A54507  23.751  15.925   6.455
 9806POPC   D2A54508  23.748  15.992   6.755
 9806POPC   C3A54509  23.665  15.917   7.055
 9806POPC   C4A54510  23.715  15.990   7.355
 9806POPC   C1B54511  23.781  16.230   6.455
 9806POPC   C2B54512  23.804  16.154   6.755
 9806POPC   C3B54513  23.733  16.170   7.055
 9806POPC   C4B54514  23.743  16.213   7.355
 9807POPC   NC354515  17.517  26.819   5.555
 9807POPC   PO454516  17.546  26.802   5.855
 9807POPC   GL154517  17.534  26.831   6.155
 9807POPC   GL254518  17.434  26.737   6.155
 9807POPC   C1A54519  17.533  26.833   6.455
 9807POPC   D2A54520  17.477  26.849   6.755
 9807POPC   C3A54521  17.506  26.806   7.055
 9807POPC   C4A54522  17.528  26.863   7.355
 9807POPC   C1B54523  17.273  26.780   6.455
 9807POPC   C2B54524  17.315  26.698   6.755
 9807POPC   C3B54525  17.308  26.783   7.055
 9807POPC   C4B54526  17.256  26.795   7.355
 9808POPC   NC354527  34.617  14.368   5.555
 9808POPC   PO454528  34.612  14.421   5.855
 9808POPC   GL154529  34.545  14.421   6.155
 9808POPC   GL254530  34.599  14.489   6.155
 9808POPC   C1A54531  34.552  14.416   6.455
 9808POPC   D2A54532  34.602  14.446   6.755
 9808POPC   C3A54533  34.581  14.441   7.055
 9808POPC   C4A54534  34.526  14.446   7.355
 9808POPC   C1B54535  34.499  14.647   6.455
 9808POPC   C2B54536  34.557  14.686   6.755
 9808POPC   C3B54537  34.522  14.643   7.055
 9808POPC   C4B54538  34.521  14.653   7.355
 9809POPC   NC354539  22.974  12.104   5.555
 9809POPC   PO454540  22.975  12.026   5.855
 9809POPC   GL154541  22.930  12.098   6.155
 9809POPC   GL254542  22.976  11.940   6.155
 9809POPC   C1A54543  22.934  12.093   6.455
 9809POPC   D2A54544  22.899  12.033   6.755
 9809POPC   C3A54545  22.956  12.055   7.055
 9809POPC   C4A54546  22.935  12.078   7.355
 9809POPC   C1B54547  22.927  11.858   6.455
 9809POPC   C2B54548  22.930  11.784   6.755
 9809POPC   C3B54549  22.935  11.852   7.055
 9809POPC   C4B54550  22.915  11.833   7.355
 9810POPC   NC354551  29.889  14.423   5.555
 9810POPC   PO454552  29.890  14.420   5.855
 9810POPC   GL154553  29.898  14.359   6.155
 9810POPC   GL254554  30.028  14.501   6.155
 9810POPC   C1A54555  29.887  14.427   6.455
 9810POPC   D2A54556  29.932  14.358   6.755
 9810POPC   C3A54557  29.880  14.411   7.055
 9810POPC   C4A54558  29.927  14.447   7.355
 9810POPC   C1B54559  30.070  14.607   6.455
 9810POPC   C2B54560  30.137  14.610   6.755
 9810POPC   C3B54561  30.055  14.562   7.055
 9810POPC   C4B54562  30.124  14.617   7.355
 9811POPC   NC354563   1.945   4.365   5.555
 9811POPC   PO454564   1.952   4.302   5.855
 9811POPC   GL154565   1.962   4.294   6.155
 9811POPC   GL254566   1.948   4.159   6.155
 9811POPC   C1A54567   1.949   4.341   6.455
 9811POPC   D2A54568   1.985   4.292   6.755
 9811POPC   C3A54569   2.030   4.338   7.055
 9811POPC   C4A54570   2.028   4.341   7.355
 9811POPC   C1B54571   1.968   4.088   6.455
 9811POPC   C2B54572   1.954   4.061   6.755
 9811POPC   C3B54573   1.943   4.097   7.055
 9811POPC   C4B54574   1.966   4.022   7.355
 9812POPC   NC354575   1.229   6.687   5.555
 9812POPC   PO454576   1.258   6.598   5.855
 9812POPC   GL154577   1.237   6.661   6.155
 9812POPC   GL254578   1.108   6.552   6.155
 9812POPC   C1A54579   1.194   6.602   6.455
 9812POPC   D2A54580   1.183   6.625   6.755
 9812POPC   C3A54581   1.168   6.601   7.055
 9812POPC   C4A54582   1.239   6.659   7.355
 9812POPC   C1B54583   0.940   6.507   6.455
 9812POPC   C2B54584   1.001   6.544   6.755
 9812POPC   C3B54585   1.013   6.534   7.055
 9812POPC   C4B54586   0.944   6.577   7.355
 9813POPC   NC354587  33.815  15.930   5.555
 9813POPC   PO454588  33.769  15.933   5.855
 9813POPC   GL154589  33.777  15.907   6.155
 9813POPC   GL254590  33.827  15.849   6.155
 9813POPC   C1A54591  33.803  15.945   6.455
 9813POPC   D2A54592  33.805  15.953   6.755
 9813POPC   C3A54593  33.826  15.939   7.055
 9813POPC   C4A54594  33.778  15.960   7.355
 9813POPC   C1B54595  33.812  15.747   6.455
 9813POPC   C2B54596  33.816  15.724   6.755
 9813POPC   C3B54597  33.901  15.663   7.055
 9813POPC   C4B54598  33.849  15.693   7.355
 9814POPC   NC354599  28.346  20.625   5.555
 9814POPC   PO454600  28.347  20.613   5.855
 9814POPC   GL154601  28.349  20.653   6.155
 9814POPC   GL254602  28.448  20.626   6.155
 9814POPC   C1A54603  28.389  20.595   6.455
 9814POPC   D2A54604  28.401  20.614   6.755
 9814POPC   C3A54605  28.341  20.645   7.055
 9814POPC   C4A54606  28.418  20.631   7.355
 9814POPC   C1B54607  28.611  20.608   6.455
 9814POPC   C2B54608  28.587  20.577   6.755
 9814POPC   C3B54609  28.645  20.540   7.055
 9814POPC   C4B54610  28.667  20.612   7.355
 9815POPC   NC354611   8.972  20.593   5.555
 9815POPC   PO454612   8.998  20.653   5.855
 9815POPC   GL154613   8.968  20.651   6.155
 9815POPC   GL254614   8.922  20.767   6.155
 9815POPC   C1A54615   8.939  20.655   6.455
 9815POPC   D2A54616   9.002  20.566   6.755
 9815POPC   C3A54617   8.957  20.585   7.055
 9815POPC   C4A54618   8.997  20.591   7.355
 9815POPC   C1B54619   8.926  20.834   6.455
 9815POPC   C2B54620   8.935  20.832   6.755
 9815POPC   C3B54621   8.902  20.817   7.055
 9815POPC   C4B54622   8.887  20.850   7.355
 9816POPC   NC354623   8.215  43.839   5.555
 9816POPC   PO454624   8.207  43.851   5.855
 9816POPC   GL154625   8.196  43.866   6.155
 9816POPC   GL254626   8.099  43.788   6.155
 9816POPC   C1A54627   8.202  43.850   6.455
 9816POPC   D2A54628   8.209  43.914   6.755
 9816POPC   C3A54629   8.190  43.898   7.055
 9816POPC   C4A54630   8.167  43.903   7.355
 9816POPC   C1B54631   7.961  43.725   6.455
 9816POPC   C2B54632   7.939  43.721   6.755
 9816POPC   C3B54633   8.022  43.744   7.055
 9816POPC   C4B54634   7.998  43.751   7.355
 9817POPC   NC354635  32.239  34.603   5.555
 9817POPC   PO454636  32.230  34.538   5.855
 9817POPC   GL154637  32.269  34.595   6.155
 9817POPC   GL254638  32.287  34.711   6.155
 9817POPC   C1A54639  32.205  34.615   6.455
 9817POPC   D2A54640  32.202  34.562   6.755
 9817POPC   C3A54641  32.271  34.531   7.055
 9817POPC   C4A54642  32.273  34.607   7.355
 9817POPC   C1B54643  32.295  34.774   6.455
 9817POPC   C2B54644  32.257  34.786   6.755
 9817POPC   C3B54645  32.240  34.797   7.055
 9817POPC   C4B54646  32.323  34.800   7.355
 9818POPC   NC354647  39.212   2.783   5.555
 9818POPC   PO454648  39.205   2.738   5.855
 9818POPC   GL154649  39.186   2.786   6.155
 9818POPC   GL254650  39.058   2.824   6.155
 9818POPC   C1A54651  39.222   2.754   6.455
 9818POPC   D2A54652  39.222   2.767   6.755
 9818POPC   C3A54653  39.211   2.749   7.055
 9818POPC   C4A54654  39.182   2.764   7.355
 9818POPC   C1B54655  39.021   2.802   6.455
 9818POPC   C2B54656  39.023   2.747   6.755
 9818POPC   C3B54657  38.976   2.740   7.055
 9818POPC   C4B54658  38.981   2.826   7.355
 9819POPC   NC354659  21.337  12.805   5.555
 9819POPC   PO454660  21.341  12.901   5.855
 9819POPC   GL154661  21.430  12.870   6.155
 9819POPC   GL254662  21.346  12.965   6.155
 9819POPC   C1A54663  21.372  12.876   6.455
 9819POPC   D2A54664  21.418  12.892   6.755
 9819POPC   C3A54665  21.406  12.842   7.055
 9819POPC   C4A54666  21.345  12.862   7.355
 9819POPC   C1B54667  21.328  13.132   6.455
 9819POPC   C2B54668  21.381  13.144   6.755
 9819POPC   C3B54669  21.309  13.125   7.055
 9819POPC   C4B54670  21.299  13.105   7.355
 9820POPC   NC354671  19.042  36.082   5.555
 9820POPC   PO454672  19.027  36.114   5.855
 9820POPC   GL154673  19.089  36.101   6.155
 9820POPC   GL254674  18.924  36.061   6.155
 9820POPC   C1A54675  19.072  36.158   6.455
 9820POPC   D2A54676  19.109  36.126   6.755
 9820POPC   C3A54677  19.021  36.116   7.055
 9820POPC   C4A54678  19.083  36.177   7.355
 9820POPC   C1B54679  18.875  35.981   6.455
 9820POPC   C2B54680  18.854  35.921   6.755
 9820POPC   C3B54681  18.909  35.970   7.055
 9820POPC   C4B54682  18.931  35.940   7.355
 9821POPC   NC354683  40.005  15.166   5.555
 9821POPC   PO454684  40.020  15.137   5.855
 9821POPC   GL154685  40.022  15.169   6.155
 9821POPC   GL254686  40.091  15.176   6.155
 9821POPC   C1A54687  40.054  15.132   6.455
 9821POPC   D2A54688  40.047  15.185   6.755
 9821POPC   C3A54689  39.958  15.144   7.055
 9821POPC   C4A54690  40.040  15.220   7.355
 9821POPC   C1B54691  40.261  15.054   6.455
 9821POPC   C2B54692  40.253  15.130   6.755
 9821POPC   C3B54693  40.209  15.132   7.055
 9821POPC   C4B54694  40.221  15.057   7.355
 9822POPC   NC354695   0.461   8.196   5.555
 9822POPC   PO454696   0.417   8.244   5.855
 9822POPC   GL154697   0.413   8.225   6.155
 9822POPC   GL254698   0.470   8.041   6.155
 9822POPC   C1A54699   0.439   8.221   6.455
 9822POPC   D2A54700   0.433   8.215   6.755
 9822POPC   C3A54701   0.478   8.195   7.055
 9822POPC   C4A54702   0.421   8.229   7.355
 9822POPC   C1B54703   0.570   7.934   6.455
 9822POPC   C2B54704   0.582   8.002   6.755
 9822POPC   C3B54705   0.506   8.009   7.055
 9822POPC   C4B54706   0.538   7.965   7.355
 9823POPC   NC354707  35.312  20.645   5.555
 9823POPC   PO454708  35.320  20.626   5.855
 9823POPC   GL154709  35.395  20.614   6.155
 9823POPC   GL254710  35.272  20.665   6.155
 9823POPC   C1A54711  35.351  20.600   6.455
 9823POPC   D2A54712  35.344  20.563   6.755
 9823POPC   C3A54713  35.333  20.655   7.055
 9823POPC   C4A54714  35.396  20.602   7.355
 9823POPC   C1B54715  35.064  20.725   6.455
 9823POPC   C2B54716  35.113  20.632   6.755
 9823POPC   C3B54717  35.153  20.645   7.055
 9823POPC   C4B54718  35.100  20.660   7.355
 9824POPC   NC354719  29.893   3.533   5.555
 9824POPC   PO454720  29.942   3.531   5.855
 9824POPC   GL154721  29.879   3.541   6.155
 9824POPC   GL254722  30.032   3.457   6.155
 9824POPC   C1A54723  29.918   3.570   6.455
 9824POPC   D2A54724  29.946   3.538   6.755
 9824POPC   C3A54725  29.926   3.532   7.055
 9824POPC   C4A54726  29.964   3.531   7.355
 9824POPC   C1B54727  30.185   3.473   6.455
 9824POPC   C2B54728  30.144   3.463   6.755
 9824POPC   C3B54729  30.152   3.434   7.055
 9824POPC   C4B54730  30.177   3.449   7.355
 9825POPC   NC354731   2.009   3.515   5.555
 9825POPC   PO454732   2.027   3.534   5.855
 9825POPC   GL154733   1.998   3.571   6.155
 9825POPC   GL254734   2.071   3.654   6.155
 9825POPC   C1A54735   2.003   3.526   6.455
 9825POPC   D2A54736   1.987   3.501   6.755
 9825POPC   C3A54737   2.015   3.497   7.055
 9825POPC   C4A54738   1.975   3.557   7.355
 9825POPC   C1B54739   2.183   3.748   6.455
 9825POPC   C2B54740   2.206   3.724   6.755
 9825POPC   C3B54741   2.215   3.678   7.055
 9825POPC   C4B54742   2.215   3.664   7.355
 9826POPC   NC354743   0.427   5.143   5.555
 9826POPC   PO454744   0.402   5.082   5.855
 9826POPC   GL154745   0.452   5.062   6.155
 9826POPC   GL254746   0.537   4.998   6.155
 9826POPC   C1A54747   0.419   5.122   6.455
 9826POPC   D2A54748   0.463   5.127   6.755
 9826POPC   C3A54749   0.485   5.064   7.055
 9826POPC   C4A54750   0.395   5.132   7.355
 9826POPC   C1B54751   0.550   4.891   6.455
 9826POPC   C2B54752   0.590   4.894   6.755
 9826POPC   C3B54753   0.518   4.913   7.055
 9826POPC   C4B54754   0.582   4.874   7.355
 9827POPC   NC354755  35.318  19.797   5.555
 9827POPC   PO454756  35.352  19.884   5.855
 9827POPC   GL154757  35.361  19.803   6.155
 9827POPC   GL254758  35.353  19.920   6.155
 9827POPC   C1A54759  35.322  19.840   6.455
 9827POPC   D2A54760  35.344  19.848   6.755
 9827POPC   C3A54761  35.316  19.868   7.055
 9827POPC   C4A54762  35.359  19.823   7.355
 9827POPC   C1B54763  35.337  20.043   6.455
 9827POPC   C2B54764  35.340  20.078   6.755
 9827POPC   C3B54765  35.289  20.110   7.055
 9827POPC   C4B54766  35.380  20.090   7.355
 9828POPC   NC354767  34.551  15.150   5.555
 9828POPC   PO454768  34.544  15.175   5.855
 9828POPC   GL154769  34.547  15.174   6.155
 9828POPC   GL254770  34.714  15.180   6.155
 9828POPC   C1A54771  34.600  15.197   6.455
 9828POPC   D2A54772  34.534  15.142   6.755
 9828POPC   C3A54773  34.588  15.139   7.055
 9828POPC   C4A54774  34.577  15.189   7.355
 9828POPC   C1B54775  34.829  15.182   6.455
 9828POPC   C2B54776  34.854  15.149   6.755
 9828POPC   C3B54777  34.819  15.096   7.055
 9828POPC   C4B54778  34.854  15.164   7.355
 9829POPC   NC354779  33.011  36.890   5.555
 9829POPC   PO454780  32.985  36.924   5.855
 9829POPC   GL154781  33.012  36.947   6.155
 9829POPC   GL254782  33.064  37.034   6.155
 9829POPC   C1A54783  32.999  36.873   6.455
 9829POPC   D2A54784  33.027  36.947   6.755
 9829POPC   C3A54785  33.042  36.917   7.055
 9829POPC   C4A54786  32.985  36.940   7.355
 9829POPC   C1B54787  33.147  37.158   6.455
 9829POPC   C2B54788  33.107  37.091   6.755
 9829POPC   C3B54789  33.135  37.144   7.055
 9829POPC   C4B54790  33.116  37.133   7.355
 9830POPC   NC354791   2.020  22.912   5.555
 9830POPC   PO454792   1.967  22.957   5.855
 9830POPC   GL154793   2.013  22.923   6.155
 9830POPC   GL254794   2.069  22.999   6.155
 9830POPC   C1A54795   2.016  22.923   6.455
 9830POPC   D2A54796   1.968  22.963   6.755
 9830POPC   C3A54797   2.031  22.928   7.055
 9830POPC   C4A54798   1.959  22.901   7.355
 9830POPC   C1B54799   2.261  23.052   6.455
 9830POPC   C2B54800   2.210  22.989   6.755
 9830POPC   C3B54801   2.261  23.051   7.055
 9830POPC   C4B54802   2.266  23.017   7.355
 9831POPC   NC354803  34.602  36.943   5.555
 9831POPC   PO454804  34.533  36.929   5.855
 9831POPC   GL154805  34.577  36.941   6.155
 9831POPC   GL254806  34.591  37.057   6.155
 9831POPC   C1A54807  34.553  36.948   6.455
 9831POPC   D2A54808  34.570  36.952   6.755
 9831POPC   C3A54809  34.613  36.946   7.055
 9831POPC   C4A54810  34.532  36.873   7.355
 9831POPC   C1B54811  34.596  37.141   6.455
 9831POPC   C2B54812  34.554  37.172   6.755
 9831POPC   C3B54813  34.616  37.133   7.055
 9831POPC   C4B54814  34.611  37.158   7.355
 9832POPC   NC354815  27.637  44.676   5.555
 9832POPC   PO454816  27.634  44.708   5.855
 9832POPC   GL154817  27.584  44.630   6.155
 9832POPC   GL254818  27.658  44.797   6.155
 9832POPC   C1A54819  27.569  44.642   6.455
 9832POPC   D2A54820  27.565  44.670   6.755
 9832POPC   C3A54821  27.544  44.665   7.055
 9832POPC   C4A54822  27.554  44.652   7.355
 9832POPC   C1B54823  27.663  44.852   6.455
 9832POPC   C2B54824  27.710  44.932   6.755
 9832POPC   C3B54825  27.631  44.859   7.055
 9832POPC   C4B54826  27.704  44.891   7.355
 9833POPC   NC354827  36.930  13.610   5.555
 9833POPC   PO454828  36.923  13.584   5.855
 9833POPC   GL154829  36.947  13.613   6.155
 9833POPC   GL254830  36.999  13.635   6.155
 9833POPC   C1A54831  36.877  13.674   6.455
 9833POPC   D2A54832  36.916  13.612   6.755
 9833POPC   C3A54833  36.926  13.658   7.055
 9833POPC   C4A54834  36.923  13.586   7.355
 9833POPC   C1B54835  37.151  13.627   6.455
 9833POPC   C2B54836  37.152  13.665   6.755
 9833POPC   C3B54837  37.143  13.623   7.055
 9833POPC   C4B54838  37.185  13.661   7.355
 9834POPC   NC354839   3.562   9.706   5.555
 9834POPC   PO454840   3.572   9.731   5.855
 9834POPC   GL154841   3.524   9.719   6.155
 9834POPC   GL254842   3.606   9.664   6.155
 9834POPC   C1A54843   3.573   9.710   6.455
 9834POPC   D2A54844   3.499   9.741   6.755
 9834POPC   C3A54845   3.574   9.775   7.055
 9834POPC   C4A54846   3.588   9.755   7.355
 9834POPC   C1B54847   3.535   9.463   6.455
 9834POPC   C2B54848   3.561   9.519   6.755
 9834POPC   C3B54849   3.609   9.472   7.055
 9834POPC   C4B54850   3.584   9.543   7.355
 9835POPC   NC354851  42.380  29.886   5.555
 9835POPC   PO454852  42.341  29.963   5.855
 9835POPC   GL154853  42.346  29.940   6.155
 9835POPC   GL254854  42.349  29.833   6.155
 9835POPC   C1A54855  42.299  29.940   6.455
 9835POPC   D2A54856  42.370  29.913   6.755
 9835POPC   C3A54857  42.384  29.912   7.055
 9835POPC   C4A54858  42.337  29.969   7.355
 9835POPC   C1B54859  42.317  29.703   6.455
 9835POPC   C2B54860  42.281  29.634   6.755
 9835POPC   C3B54861  42.296  29.656   7.055
 9835POPC   C4B54862  42.302  29.629   7.355
 9836POPC   NC354863  22.986  28.363   5.555
 9836POPC   PO454864  22.974  28.405   5.855
 9836POPC   GL154865  22.907  28.375   6.155
 9836POPC   GL254866  22.838  28.218   6.155
 9836POPC   C1A54867  22.916  28.383   6.455
 9836POPC   D2A54868  22.930  28.332   6.755
 9836POPC   C3A54869  22.943  28.332   7.055
 9836POPC   C4A54870  22.964  28.399   7.355
 9836POPC   C1B54871  22.878  28.182   6.455
 9836POPC   C2B54872  22.864  28.178   6.755
 9836POPC   C3B54873  22.825  28.149   7.055
 9836POPC   C4B54874  22.791  28.111   7.355
 9837POPC   NC354875  12.049  36.124   5.555
 9837POPC   PO454876  12.074  36.126   5.855
 9837POPC   GL154877  12.099  36.096   6.155
 9837POPC   GL254878  11.993  36.112   6.155
 9837POPC   C1A54879  12.072  36.082   6.455
 9837POPC   D2A54880  12.077  36.085   6.755
 9837POPC   C3A54881  12.061  36.110   7.055
 9837POPC   C4A54882  12.113  36.135   7.355
 9837POPC   C1B54883  11.794  36.070   6.455
 9837POPC   C2B54884  11.779  36.100   6.755
 9837POPC   C3B54885  11.803  36.101   7.055
 9837POPC   C4B54886  11.785  36.055   7.355
 9838POPC   NC354887  22.204   1.264   5.555
 9838POPC   PO454888  22.186   1.213   5.855
 9838POPC   GL154889  22.126   1.226   6.155
 9838POPC   GL254890  22.173   1.079   6.155
 9838POPC   C1A54891  22.194   1.185   6.455
 9838POPC   D2A54892  22.160   1.196   6.755
 9838POPC   C3A54893  22.192   1.232   7.055
 9838POPC   C4A54894  22.209   1.214   7.355
 9838POPC   C1B54895  22.133   0.928   6.455
 9838POPC   C2B54896  22.152   0.979   6.755
 9838POPC   C3B54897  22.167   0.936   7.055
 9838POPC   C4B54898  22.206   0.924   7.355
 9839POPC   NC354899  36.941  11.295   5.555
 9839POPC   PO454900  36.924  11.346   5.855
 9839POPC   GL154901  36.894  11.327   6.155
 9839POPC   GL254902  36.935  11.152   6.155
 9839POPC   C1A54903  36.917  11.335   6.455
 9839POPC   D2A54904  36.943  11.334   6.755
 9839POPC   C3A54905  36.874  11.256   7.055
 9839POPC   C4A54906  36.902  11.304   7.355
 9839POPC   C1B54907  37.074  11.088   6.455
 9839POPC   C2B54908  37.032  11.074   6.755
 9839POPC   C3B54909  37.036  11.127   7.055
 9839POPC   C4B54910  37.084  11.085   7.355
 9840POPC   NC354911  15.182  40.033   5.555
 9840POPC   PO454912  15.137  39.964   5.855
 9840POPC   GL154913  15.214  40.007   6.155
 9840POPC   GL254914  15.320  40.065   6.155
 9840POPC   C1A54915  15.174  40.035   6.455
 9840POPC   D2A54916  15.155  40.053   6.755
 9840POPC   C3A54917  15.172  39.997   7.055
 9840POPC   C4A54918  15.212  40.049   7.355
 9840POPC   C1B54919  15.371  40.148   6.455
 9840POPC   C2B54920  15.319  40.155   6.755
 9840POPC   C3B54921  15.380  40.122   7.055
 9840POPC   C4B54922  15.394  40.188   7.355
 9841POPC   NC354923  41.561  28.383   5.555
 9841POPC   PO454924  41.567  28.336   5.855
 9841POPC   GL154925  41.567  28.373   6.155
 9841POPC   GL254926  41.666  28.466   6.155
 9841POPC   C1A54927  41.525  28.387   6.455
 9841POPC   D2A54928  41.603  28.329   6.755
 9841POPC   C3A54929  41.594  28.353   7.055
 9841POPC   C4A54930  41.550  28.350   7.355
 9841POPC   C1B54931  41.757  28.509   6.455
 9841POPC   C2B54932  41.776  28.541   6.755
 9841POPC   C3B54933  41.801  28.456   7.055
 9841POPC   C4B54934  41.798  28.532   7.355
 9842POPC   NC354935  11.278  16.730   5.555
 9842POPC   PO454936  11.342  16.718   5.855
 9842POPC   GL154937  11.266  16.687   6.155
 9842POPC   GL254938  11.211  16.796   6.155
 9842POPC   C1A54939  11.294  16.743   6.455
 9842POPC   D2A54940  11.289  16.690   6.755
 9842POPC   C3A54941  11.251  16.720   7.055
 9842POPC   C4A54942  11.262  16.683   7.355
 9842POPC   C1B54943  11.146  16.946   6.455
 9842POPC   C2B54944  11.142  16.863   6.755
 9842POPC   C3B54945  11.079  16.907   7.055
 9842POPC   C4B54946  11.130  16.862   7.355
 9843POPC   NC354947  29.926   2.793   5.555
 9843POPC   PO454948  29.931   2.723   5.855
 9843POPC   GL154949  29.954   2.769   6.155
 9843POPC   GL254950  29.985   2.664   6.155
 9843POPC   C1A54951  29.970   2.718   6.455
 9843POPC   D2A54952  29.890   2.808   6.755
 9843POPC   C3A54953  29.896   2.800   7.055
 9843POPC   C4A54954  29.900   2.723   7.355
 9843POPC   C1B54955  30.072   2.616   6.455
 9843POPC   C2B54956  30.144   2.625   6.755
 9843POPC   C3B54957  30.062   2.608   7.055
 9843POPC   C4B54958  30.124   2.555   7.355
 9844POPC   NC354959  33.011  38.503   5.555
 9844POPC   PO454960  33.001  38.487   5.855
 9844POPC   GL154961  32.980  38.441   6.155
 9844POPC   GL254962  33.076  38.356   6.155
 9844POPC   C1A54963  32.994  38.462   6.455
 9844POPC   D2A54964  33.022  38.418   6.755
 9844POPC   C3A54965  33.007  38.486   7.055
 9844POPC   C4A54966  32.995  38.416   7.355
 9844POPC   C1B54967  33.114  38.212   6.455
 9844POPC   C2B54968  33.038  38.202   6.755
 9844POPC   C3B54969  33.087  38.173   7.055
 9844POPC   C4B54970  33.050  38.233   7.355
 9845POPC   NC354971  29.970  29.921   5.555
 9845POPC   PO454972  29.901  29.922   5.855
 9845POPC   GL154973  29.877  29.914   6.155
 9845POPC   GL254974  29.925  29.830   6.155
 9845POPC   C1A54975  29.960  29.882   6.455
 9845POPC   D2A54976  29.926  29.962   6.755
 9845POPC   C3A54977  29.916  29.899   7.055
 9845POPC   C4A54978  29.927  29.940   7.355
 9845POPC   C1B54979  29.856  29.696   6.455
 9845POPC   C2B54980  29.942  29.663   6.755
 9845POPC   C3B54981  29.934  29.706   7.055
 9845POPC   C4B54982  29.895  29.623   7.355
 9846POPC   NC354983   1.199  15.132   5.555
 9846POPC   PO454984   1.235  15.178   5.855
 9846POPC   GL154985   1.243  15.201   6.155
 9846POPC   GL254986   1.191  15.102   6.155
 9846POPC   C1A54987   1.253  15.181   6.455
 9846POPC   D2A54988   1.174  15.170   6.755
 9846POPC   C3A54989   1.192  15.217   7.055
 9846POPC   C4A54990   1.192  15.173   7.355
 9846POPC   C1B54991   1.246  14.910   6.455
 9846POPC   C2B54992   1.261  14.966   6.755
 9846POPC   C3B54993   1.192  14.904   7.055
 9846POPC   C4B54994   1.231  14.919   7.355
 9847POPC   NC354995  42.331   4.350   5.555
 9847POPC   PO454996  42.314   4.363   5.855
 9847POPC   GL154997  42.319   4.305   6.155
 9847POPC   GL254998  42.444   4.375   6.155
 9847POPC   C1A54999  42.315   4.327   6.455
 9847POPC   D2A55000  42.343   4.319   6.755
 9847POPC   C3A55001  42.307   4.280   7.055
 9847POPC   C4A55002  42.287   4.353   7.355
 9847POPC   C1B55003  42.609   4.324   6.455
 9847POPC   C2B55004  42.553   4.388   6.755
 9847POPC   C3B55005  42.597   4.342   7.055
 9847POPC   C4B55006  42.610   4.336   7.355
 9848POPC   NC355007  12.827  33.830   5.555
 9848POPC   PO455008  12.891  33.757   5.855
 9848POPC   GL155009  12.850  33.813   6.155
 9848POPC   GL255010  12.800  33.692   6.155
 9848POPC   C1A55011  12.877  33.837   6.455
 9848POPC   D2A55012  12.851  33.755   6.755
 9848POPC   C3A55013  12.829  33.824   7.055
 9848POPC   C4A55014  12.802  33.832   7.355
 9848POPC   C1B55015  12.670  33.617   6.455
 9848POPC   C2B55016  12.708  33.594   6.755
 9848POPC   C3B55017  12.688  33.552   7.055
 9848POPC   C4B55018  12.683  33.628   7.355
 9849POPC   NC355019  27.642  11.306   5.555
 9849POPC   PO455020  27.621  11.294   5.855
 9849POPC   GL155021  27.612  11.277   6.155
 9849POPC   GL255022  27.422  11.316   6.155
 9849POPC   C1A55023  27.550  11.252   6.455
 9849POPC   D2A55024  27.597  11.328   6.755
 9849POPC   C3A55025  27.555  11.259   7.055
 9849POPC   C4A55026  27.625  11.275   7.355
 9849POPC   C1B55027  27.383  11.332   6.455
 9849POPC   C2B55028  27.390  11.346   6.755
 9849POPC   C3B55029  27.325  11.277   7.055
 9849POPC   C4B55030  27.370  11.359   7.355
 9850POPC   NC355031   1.964  33.059   5.555
 9850POPC   PO455032   1.974  33.069   5.855
 9850POPC   GL155033   2.004  33.025   6.155
 9850POPC   GL255034   2.075  33.066   6.155
 9850POPC   C1A55035   1.960  32.984   6.455
 9850POPC   D2A55036   2.020  32.991   6.755
 9850POPC   C3A55037   1.948  32.984   7.055
 9850POPC   C4A55038   2.014  33.047   7.355
 9850POPC   C1B55039   2.203  33.001   6.455
 9850POPC   C2B55040   2.225  33.013   6.755
 9850POPC   C3B55041   2.269  33.037   7.055
 9850POPC   C4B55042   2.277  33.087   7.355
 9851POPC   NC355043  32.256  17.460   5.555
 9851POPC   PO455044  32.231  17.536   5.855
 9851POPC   GL155045  32.223  17.528   6.155
 9851POPC   GL255046  32.136  17.401   6.155
 9851POPC   C1A55047  32.200  17.545   6.455
 9851POPC   D2A55048  32.218  17.527   6.755
 9851POPC   C3A55049  32.238  17.490   7.055
 9851POPC   C4A55050  32.247  17.462   7.355
 9851POPC   C1B55051  32.081  17.298   6.455
 9851POPC   C2B55052  32.054  17.362   6.755
 9851POPC   C3B55053  32.046  17.312   7.055
 9851POPC   C4B55054  32.118  17.380   7.355
 9852POPC   NC355055  40.052  16.686   5.555
 9852POPC   PO455056  39.960  16.719   5.855
 9852POPC   GL155057  40.006  16.682   6.155
 9852POPC   GL255058  40.012  16.862   6.155
 9852POPC   C1A55059  39.961  16.741   6.455
 9852POPC   D2A55060  40.048  16.747   6.755
 9852POPC   C3A55061  40.020  16.723   7.055
 9852POPC   C4A55062  40.003  16.767   7.355
 9852POPC   C1B55063  39.956  16.934   6.455
 9852POPC   C2B55064  39.914  16.991   6.755
 9852POPC   C3B55065  39.969  17.025   7.055
 9852POPC   C4B55066  39.929  17.022   7.355
 9853POPC   NC355067  14.377  27.642   5.555
 9853POPC   PO455068  14.360  27.620   5.855
 9853POPC   GL155069  14.422  27.616   6.155
 9853POPC   GL255070  14.569  27.596   6.155
 9853POPC   C1A55071  14.431  27.617   6.455
 9853POPC   D2A55072  14.413  27.579   6.755
 9853POPC   C3A55073  14.450  27.593   7.055
 9853POPC   C4A55074  14.445  27.601   7.355
 9853POPC   C1B55075  14.692  27.573   6.455
 9853POPC   C2B55076  14.620  27.531   6.755
 9853POPC   C3B55077  14.629  27.517   7.055
 9853POPC   C4B55078  14.678  27.493   7.355
 9854POPC   NC355079   9.732  15.203   5.555
 9854POPC   PO455080   9.744  15.185   5.855
 9854POPC   GL155081   9.795  15.212   6.155
 9854POPC   GL255082   9.754  15.342   6.155
 9854POPC   C1A55083   9.726  15.218   6.455
 9854POPC   D2A55084   9.729  15.161   6.755
 9854POPC   C3A55085   9.735  15.219   7.055
 9854POPC   C4A55086   9.788  15.226   7.355
 9854POPC   C1B55087   9.700  15.411   6.455
 9854POPC   C2B55088   9.757  15.439   6.755
 9854POPC   C3B55089   9.762  15.475   7.055
 9854POPC   C4B55090   9.782  15.443   7.355
 9855POPC   NC355091  20.584  19.041   5.555
 9855POPC   PO455092  20.574  19.013   5.855
 9855POPC   GL155093  20.599  19.018   6.155
 9855POPC   GL255094  20.716  19.019   6.155
 9855POPC   C1A55095  20.585  19.023   6.455
 9855POPC   D2A55096  20.623  19.082   6.755
 9855POPC   C3A55097  20.657  19.018   7.055
 9855POPC   C4A55098  20.604  19.012   7.355
 9855POPC   C1B55099  20.883  19.087   6.455
 9855POPC   C2B55100  20.819  19.075   6.755
 9855POPC   C3B55101  20.903  19.095   7.055
 9855POPC   C4B55102  20.892  19.006   7.355
 9856POPC   NC355103  15.166  35.303   5.555
 9856POPC   PO455104  15.220  35.359   5.855
 9856POPC   GL155105  15.139  35.331   6.155
 9856POPC   GL255106  15.300  35.312   6.155
 9856POPC   C1A55107  15.215  35.375   6.455
 9856POPC   D2A55108  15.209  35.375   6.755
 9856POPC   C3A55109  15.207  35.399   7.055
 9856POPC   C4A55110  15.207  35.378   7.355
 9856POPC   C1B55111  15.350  35.238   6.455
 9856POPC   C2B55112  15.413  35.163   6.755
 9856POPC   C3B55113  15.369  35.196   7.055
 9856POPC   C4B55114  15.348  35.185   7.355
 9857POPC   NC355115  42.383  18.278   5.555
 9857POPC   PO455116  42.383  18.293   5.855
 9857POPC   GL155117  42.363  18.261   6.155
 9857POPC   GL255118  42.290  18.175   6.155
 9857POPC   C1A55119  42.365  18.312   6.455
 9857POPC   D2A55120  42.308  18.291   6.755
 9857POPC   C3A55121  42.318  18.321   7.055
 9857POPC   C4A55122  42.311  18.292   7.355
 9857POPC   C1B55123  42.179  18.108   6.455
 9857POPC   C2B55124  42.150  18.098   6.755
 9857POPC   C3B55125  42.163  18.107   7.055
 9857POPC   C4B55126  42.173  18.118   7.355
 9858POPC   NC355127  34.586  29.894   5.555
 9858POPC   PO455128  34.581  29.882   5.855
 9858POPC   GL155129  34.536  29.899   6.155
 9858POPC   GL255130  34.658  29.979   6.155
 9858POPC   C1A55131  34.537  29.956   6.455
 9858POPC   D2A55132  34.558  29.943   6.755
 9858POPC   C3A55133  34.546  29.903   7.055
 9858POPC   C4A55134  34.570  29.924   7.355
 9858POPC   C1B55135  34.784  30.005   6.455
 9858POPC   C2B55136  34.818  29.997   6.755
 9858POPC   C3B55137  34.826  30.068   7.055
 9858POPC   C4B55138  34.773  30.091   7.355
 9859POPC   NC355139  43.845  22.938   5.555
 9859POPC   PO455140  43.860  22.968   5.855
 9859POPC   GL155141  43.858  22.921   6.155
 9859POPC   GL255142  44.005  22.869   6.155
 9859POPC   C1A55143  43.891  22.965   6.455
 9859POPC   D2A55144  43.917  22.929   6.755
 9859POPC   C3A55145  43.844  22.896   7.055
 9859POPC   C4A55146  43.887  22.905   7.355
 9859POPC   C1B55147  44.159  22.929   6.455
 9859POPC   C2B55148  44.143  22.837   6.755
 9859POPC   C3B55149  44.153  22.845   7.055
 9859POPC   C4B55150  44.166  22.888   7.355
 9860POPC   NC355151  20.621  28.341   5.555
 9860POPC   PO455152  20.571  28.331   5.855
 9860POPC   GL155153  20.629  28.345   6.155
 9860POPC   GL255154  20.675  28.226   6.155
 9860POPC   C1A55155  20.614  28.328   6.455
 9860POPC   D2A55156  20.634  28.364   6.755
 9860POPC   C3A55157  20.651  28.376   7.055
 9860POPC   C4A55158  20.594  28.398   7.355
 9860POPC   C1B55159  20.716  28.128   6.455
 9860POPC   C2B55160  20.753  28.105   6.755
 9860POPC   C3B55161  20.757  28.117   7.055
 9860POPC   C4B55162  20.734  28.133   7.355
 9861POPC   NC355163  22.918  29.948   5.555
 9861POPC   PO455164  22.969  29.886   5.855
 9861POPC   GL155165  22.965  29.941   6.155
 9861POPC   GL255166  23.104  29.944   6.155
 9861POPC   C1A55167  22.904  29.961   6.455
 9861POPC   D2A55168  22.964  29.893   6.755
 9861POPC   C3A55169  22.965  29.917   7.055
 9861POPC   C4A55170  22.917  29.882   7.355
 9861POPC   C1B55171  23.179  29.869   6.455
 9861POPC   C2B55172  23.149  29.929   6.755
 9861POPC   C3B55173  23.212  29.921   7.055
 9861POPC   C4B55174  23.182  29.918   7.355
 9862POPC   NC355175   1.225  38.485   5.555
 9862POPC   PO455176   1.200  38.412   5.855
 9862POPC   GL155177   1.218  38.465   6.155
 9862POPC   GL255178   1.297  38.547   6.155
 9862POPC   C1A55179   1.186  38.505   6.455
 9862POPC   D2A55180   1.165  38.413   6.755
 9862POPC   C3A55181   1.172  38.504   7.055
 9862POPC   C4A55182   1.216  38.472   7.355
 9862POPC   C1B55183   1.392  38.576   6.455
 9862POPC   C2B55184   1.422  38.614   6.755
 9862POPC   C3B55185   1.425  38.625   7.055
 9862POPC   C4B55186   1.421  38.588   7.355
 9863POPC   NC355187   1.962  15.197   5.555
 9863POPC   PO455188   1.993  15.147   5.855
 9863POPC   GL155189   1.987  15.161   6.155
 9863POPC   GL255190   1.995  15.289   6.155
 9863POPC   C1A55191   1.971  15.202   6.455
 9863POPC   D2A55192   1.971  15.144   6.755
 9863POPC   C3A55193   1.996  15.166   7.055
 9863POPC   C4A55194   2.033  15.169   7.355
 9863POPC   C1B55195   2.057  15.430   6.455
 9863POPC   C2B55196   2.086  15.403   6.755
 9863POPC   C3B55197   2.013  15.404   7.055
 9863POPC   C4B55198   2.050  15.439   7.355
 9864POPC   NC355199  23.690  19.868   5.555
 9864POPC   PO455200  23.714  19.870   5.855
 9864POPC   GL155201  23.700  19.878   6.155
 9864POPC   GL255202  23.622  19.787   6.155
 9864POPC   C1A55203  23.741  19.836   6.455
 9864POPC   D2A55204  23.718  19.795   6.755
 9864POPC   C3A55205  23.690  19.802   7.055
 9864POPC   C4A55206  23.682  19.876   7.355
 9864POPC   C1B55207  23.473  19.831   6.455
 9864POPC   C2B55208  23.481  19.804   6.755
 9864POPC   C3B55209  23.459  19.845   7.055
 9864POPC   C4B55210  23.449  19.787   7.355
 9865POPC   NC355211  32.222   0.470   5.555
 9865POPC   PO455212  32.278   0.433   5.855
 9865POPC   GL155213  32.207   0.421   6.155
 9865POPC   GL255214  32.352   0.408   6.155
 9865POPC   C1A55215  32.263   0.433   6.455
 9865POPC   D2A55216  32.246   0.401   6.755
 9865POPC   C3A55217  32.199   0.451   7.055
 9865POPC   C4A55218  32.260   0.402   7.355
 9865POPC   C1B55219  32.537   0.401   6.455
 9865POPC   C2B55220  32.540   0.417   6.755
 9865POPC   C3B55221  32.501   0.480   7.055
 9865POPC   C4B55222  32.543   0.431   7.355
 9866POPC   NC355223  22.936  36.159   5.555
 9866POPC   PO455224  22.972  36.107   5.855
 9866POPC   GL155225  22.890  36.141   6.155
 9866POPC   GL255226  22.815  36.165   6.155
 9866POPC   C1A55227  22.971  36.085   6.455
 9866POPC   D2A55228  22.945  36.086   6.755
 9866POPC   C3A55229  22.981  36.092   7.055
 9866POPC   C4A55230  22.907  36.135   7.355
 9866POPC   C1B55231  22.726  36.263   6.455
 9866POPC   C2B55232  22.768  36.238   6.755
 9866POPC   C3B55233  22.681  36.296   7.055
 9866POPC   C4B55234  22.718  36.242   7.355
 9867POPC   NC355235   0.461  21.394   5.555
 9867POPC   PO455236   0.474  21.436   5.855
 9867POPC   GL155237   0.390  21.414   6.155
 9867POPC   GL255238   0.327  21.471   6.155
 9867POPC   C1A55239   0.403  21.425   6.455
 9867POPC   D2A55240   0.440  21.369   6.755
 9867POPC   C3A55241   0.462  21.354   7.055
 9867POPC   C4A55242   0.410  21.354   7.355
 9867POPC   C1B55243   0.239  21.574   6.455
 9867POPC   C2B55244   0.272  21.546   6.755
 9867POPC   C3B55245   0.267  21.577   7.055
 9867POPC   C4B55246   0.307  21.556   7.355
 9868POPC   NC355247  44.691   9.741   5.555
 9868POPC   PO455248  44.626   9.782   5.855
 9868POPC   GL155249  44.642   9.755   6.155
 9868POPC   GL255250  44.729   9.887   6.155
 9868POPC   C1A55251  44.706   9.745   6.455
 9868POPC   D2A55252  44.670   9.730   6.755
 9868POPC   C3A55253  44.688   9.754   7.055
 9868POPC   C4A55254  44.626   9.715   7.355
 9868POPC   C1B55255  44.755   9.997   6.455
 9868POPC   C2B55256  44.786   9.925   6.755
 9868POPC   C3B55257  44.769   9.958   7.055
 9868POPC   C4B55258  44.778   9.913   7.355
 9869POPC   NC355259  15.982  27.619   5.555
 9869POPC   PO455260  15.908  27.601   5.855
 9869POPC   GL155261  15.983  27.577   6.155
 9869POPC   GL255262  15.829  27.554   6.155
 9869POPC   C1A55263  15.995  27.631   6.455
 9869POPC   D2A55264  16.002  27.630   6.755
 9869POPC   C3A55265  15.959  27.591   7.055
 9869POPC   C4A55266  15.930  27.589   7.355
 9869POPC   C1B55267  15.672  27.548   6.455
 9869POPC   C2B55268  15.757  27.542   6.755
 9869POPC   C3B55269  15.764  27.494   7.055
 9869POPC   C4B55270  15.761  27.557   7.355
 9870POPC   NC355271   2.717  10.574   5.555
 9870POPC   PO455272   2.776  10.530   5.855
 9870POPC   GL155273   2.765  10.532   6.155
 9870POPC   GL255274   2.671  10.604   6.155
 9870POPC   C1A55275   2.722  10.506   6.455
 9870POPC   D2A55276   2.729  10.487   6.755
 9870POPC   C3A55277   2.724  10.499   7.055
 9870POPC   C4A55278   2.789  10.547   7.355
 9870POPC   C1B55279   2.528  10.605   6.455
 9870POPC   C2B55280   2.480  10.605   6.755
 9870POPC   C3B55281   2.494  10.551   7.055
 9870POPC   C4B55282   2.518  10.579   7.355
 9871POPC   NC355283   4.315   3.538   5.555
 9871POPC   PO455284   4.343   3.572   5.855
 9871POPC   GL155285   4.344   3.520   6.155
 9871POPC   GL255286   4.419   3.436   6.155
 9871POPC   C1A55287   4.334   3.567   6.455
 9871POPC   D2A55288   4.268   3.492   6.755
 9871POPC   C3A55289   4.363   3.548   7.055
 9871POPC   C4A55290   4.278   3.571   7.355
 9871POPC   C1B55291   4.431   3.301   6.455
 9871POPC   C2B55292   4.484   3.313   6.755
 9871POPC   C3B55293   4.401   3.279   7.055
 9871POPC   C4B55294   4.467   3.374   7.355
 9872POPC   NC355295  12.879  27.580   5.555
 9872POPC   PO455296  12.855  27.611   5.855
 9872POPC   GL155297  12.874  27.585   6.155
 9872POPC   GL255298  12.962  27.636   6.155
 9872POPC   C1A55299  12.845  27.609   6.455
 9872POPC   D2A55300  12.883  27.633   6.755
 9872POPC   C3A55301  12.872  27.642   7.055
 9872POPC   C4A55302  12.806  27.577   7.355
 9872POPC   C1B55303  13.123  27.721   6.455
 9872POPC   C2B55304  13.104  27.638   6.755
 9872POPC   C3B55305  13.083  27.655   7.055
 9872POPC   C4B55306  13.050  27.713   7.355
 9873POPC   NC355307   4.312   8.951   5.555
 9873POPC   PO455308   4.274   8.998   5.855
 9873POPC   GL155309   4.322   8.975   6.155
 9873POPC   GL255310   4.379   9.041   6.155
 9873POPC   C1A55311   4.316   8.979   6.455
 9873POPC   D2A55312   4.333   9.022   6.755
 9873POPC   C3A55313   4.354   8.952   7.055
 9873POPC   C4A55314   4.304   8.940   7.355
 9873POPC   C1B55315   4.445   9.224   6.455
 9873POPC   C2B55316   4.409   9.201   6.755
 9873POPC   C3B55317   4.434   9.204   7.055
 9873POPC   C4B55318   4.432   9.214   7.355
 9874POPC   NC355319  36.877  19.875   5.555
 9874POPC   PO455320  36.930  19.811   5.855
 9874POPC   GL155321  36.949  19.813   6.155
 9874POPC   GL255322  36.820  19.959   6.155
 9874POPC   C1A55323  36.937  19.820   6.455
 9874POPC   D2A55324  36.926  19.859   6.755
 9874POPC   C3A55325  36.879  19.819   7.055
 9874POPC   C4A55326  36.948  19.824   7.355
 9874POPC   C1B55327  36.675  19.952   6.455
 9874POPC   C2B55328  36.700  20.006   6.755
 9874POPC   C3B55329  36.679  20.001   7.055
 9874POPC   C4B55330  36.713  20.014   7.355
 9875POPC   NC355331  44.641  14.373   5.555
 9875POPC   PO455332  44.707  14.375   5.855
 9875POPC   GL155333  44.708  14.451   6.155
 9875POPC   GL255334  44.586  14.309   6.155
 9875POPC   C1A55335  44.687  14.433   6.455
 9875POPC   D2A55336  44.663  14.421   6.755
 9875POPC   C3A55337  44.647  14.387   7.055
 9875POPC   C4A55338  44.623  14.391   7.355
 9875POPC   C1B55339  44.417  14.226   6.455
 9875POPC   C2B55340  44.493  14.235   6.755
 9875POPC   C3B55341  44.485  14.249   7.055
 9875POPC   C4B55342  44.477  14.259   7.355
 9876POPC   NC355343  28.328   1.181   5.555
 9876POPC   PO455344  28.332   1.208   5.855
 9876POPC   GL155345  28.362   1.186   6.155
 9876POPC   GL255346  28.228   1.213   6.155
 9876POPC   C1A55347  28.349   1.260   6.455
 9876POPC   D2A55348  28.347   1.193   6.755
 9876POPC   C3A55349  28.355   1.242   7.055
 9876POPC   C4A55350  28.384   1.185   7.355
 9876POPC   C1B55351  28.165   1.122   6.455
 9876POPC   C2B55352  28.161   1.110   6.755
 9876POPC   C3B55353  28.142   1.147   7.055
 9876POPC   C4B55354  28.159   1.173   7.355
 9877POPC   NC355355  22.153  39.260   5.555
 9877POPC   PO455356  22.151  39.200   5.855
 9877POPC   GL155357  22.113  39.274   6.155
 9877POPC   GL255358  22.334  39.224   6.155
 9877POPC   C1A55359  22.183  39.243   6.455
 9877POPC   D2A55360  22.178  39.211   6.755
 9877POPC   C3A55361  22.121  39.184   7.055
 9877POPC   C4A55362  22.129  39.193   7.355
 9877POPC   C1B55363  22.369  39.247   6.455
 9877POPC   C2B55364  22.394  39.298   6.755
 9877POPC   C3B55365  22.447  39.265   7.055
 9877POPC   C4B55366  22.439  39.237   7.355
 9878POPC   NC355367  12.102  34.574   5.555
 9878POPC   PO455368  12.040  34.547   5.855
 9878POPC   GL155369  12.056  34.613   6.155
 9878POPC   GL255370  12.016  34.412   6.155
 9878POPC   C1A55371  12.118  34.557   6.455
 9878POPC   D2A55372  12.043  34.529   6.755
 9878POPC   C3A55373  12.121  34.607   7.055
 9878POPC   C4A55374  12.060  34.603   7.355
 9878POPC   C1B55375  11.960  34.343   6.455
 9878POPC   C2B55376  11.966  34.371   6.755
 9878POPC   C3B55377  12.024  34.339   7.055
 9878POPC   C4B55378  11.952  34.387   7.355
 9879POPC   NC355379  33.009  43.855   5.555
 9879POPC   PO455380  33.036  43.931   5.855
 9879POPC   GL155381  33.042  43.859   6.155
 9879POPC   GL255382  33.032  43.961   6.155
 9879POPC   C1A55383  33.066  43.853   6.455
 9879POPC   D2A55384  33.026  43.868   6.755
 9879POPC   C3A55385  33.034  43.924   7.055
 9879POPC   C4A55386  33.061  43.879   7.355
 9879POPC   C1B55387  32.995  44.090   6.455
 9879POPC   C2B55388  32.997  44.092   6.755
 9879POPC   C3B55389  33.035  44.132   7.055
 9879POPC   C4B55390  32.953  44.163   7.355
 9880POPC   NC355391  10.551  43.934   5.555
 9880POPC   PO455392  10.488  43.886   5.855
 9880POPC   GL155393  10.530  43.903   6.155
 9880POPC   GL255394  10.623  43.875   6.155
 9880POPC   C1A55395  10.528  43.868   6.455
 9880POPC   D2A55396  10.533  43.906   6.755
 9880POPC   C3A55397  10.506  43.888   7.055
 9880POPC   C4A55398  10.558  43.869   7.355
 9880POPC   C1B55399  10.810  43.889   6.455
 9880POPC   C2B55400  10.773  43.854   6.755
 9880POPC   C3B55401  10.780  43.833   7.055
 9880POPC   C4B55402  10.763  43.888   7.355
 9881POPC   NC355403   6.627  28.374   5.555
 9881POPC   PO455404   6.694  28.401   5.855
 9881POPC   GL155405   6.631  28.410   6.155
 9881POPC   GL255406   6.672  28.271   6.155
 9881POPC   C1A55407   6.622  28.378   6.455
 9881POPC   D2A55408   6.682  28.373   6.755
 9881POPC   C3A55409   6.637  28.392   7.055
 9881POPC   C4A55410   6.648  28.407   7.355
 9881POPC   C1B55411   6.729  28.084   6.455
 9881POPC   C2B55412   6.649  28.169   6.755
 9881POPC   C3B55413   6.673  28.166   7.055
 9881POPC   C4B55414   6.674  28.131   7.355
 9882POPC   NC355415  12.084  26.792   5.555
 9882POPC   PO455416  12.026  26.792   5.855
 9882POPC   GL155417  12.033  26.768   6.155
 9882POPC   GL255418  11.957  26.885   6.155
 9882POPC   C1A55419  12.050  26.802   6.455
 9882POPC   D2A55420  12.060  26.775   6.755
 9882POPC   C3A55421  12.029  26.810   7.055
 9882POPC   C4A55422  12.098  26.850   7.355
 9882POPC   C1B55423  11.942  26.974   6.455
 9882POPC   C2B55424  11.959  26.983   6.755
 9882POPC   C3B55425  11.935  26.992   7.055
 9882POPC   C4B55426  11.897  26.980   7.355
 9883POPC   NC355427  40.038  27.579   5.555
 9883POPC   PO455428  40.028  27.615   5.855
 9883POPC   GL155429  39.993  27.622   6.155
 9883POPC   GL255430  39.906  27.660   6.155
 9883POPC   C1A55431  40.043  27.629   6.455
 9883POPC   D2A55432  40.007  27.603   6.755
 9883POPC   C3A55433  39.964  27.591   7.055
 9883POPC   C4A55434  39.976  27.544   7.355
 9883POPC   C1B55435  39.804  27.691   6.455
 9883POPC   C2B55436  39.746  27.628   6.755
 9883POPC   C3B55437  39.733  27.695   7.055
 9883POPC   C4B55438  39.819  27.635   7.355
 9884POPC   NC355439  10.555  39.262   5.555
 9884POPC   PO455440  10.532  39.192   5.855
 9884POPC   GL155441  10.519  39.188   6.155
 9884POPC   GL255442  10.653  39.260   6.155
 9884POPC   C1A55443  10.550  39.186   6.455
 9884POPC   D2A55444  10.503  39.257   6.755
 9884POPC   C3A55445  10.532  39.248   7.055
 9884POPC   C4A55446  10.512  39.252   7.355
 9884POPC   C1B55447  10.773  39.204   6.455
 9884POPC   C2B55448  10.797  39.259   6.755
 9884POPC   C3B55449  10.791  39.219   7.055
 9884POPC   C4B55450  10.792  39.204   7.355
 9885POPC   NC355451  43.151  19.825   5.555
 9885POPC   PO455452  43.131  19.870   5.855
 9885POPC   GL155453  43.067  19.866   6.155
 9885POPC   GL255454  43.197  19.696   6.155
 9885POPC   C1A55455  43.098  19.820   6.455
 9885POPC   D2A55456  43.094  19.846   6.755
 9885POPC   C3A55457  43.118  19.835   7.055
 9885POPC   C4A55458  43.150  19.880   7.355
 9885POPC   C1B55459  43.231  19.617   6.455
 9885POPC   C2B55460  43.303  19.625   6.755
 9885POPC   C3B55461  43.299  19.647   7.055
 9885POPC   C4B55462  43.278  19.655   7.355
 9886POPC   NC355463  31.453  28.379   5.555
 9886POPC   PO455464  31.456  28.360   5.855
 9886POPC   GL155465  31.493  28.336   6.155
 9886POPC   GL255466  31.548  28.420   6.155
 9886POPC   C1A55467  31.503  28.416   6.455
 9886POPC   D2A55468  31.509  28.361   6.755
 9886POPC   C3A55469  31.510  28.361   7.055
 9886POPC   C4A55470  31.470  28.412   7.355
 9886POPC   C1B55471  31.721  28.358   6.455
 9886POPC   C2B55472  31.746  28.348   6.755
 9886POPC   C3B55473  31.703  28.389   7.055
 9886POPC   C4B55474  31.748  28.381   7.355
 9887POPC   NC355475  34.550  30.694   5.555
 9887POPC   PO455476  34.531  30.675   5.855
 9887POPC   GL155477  34.534  30.690   6.155
 9887POPC   GL255478  34.640  30.791   6.155
 9887POPC   C1A55479  34.604  30.733   6.455
 9887POPC   D2A55480  34.605  30.733   6.755
 9887POPC   C3A55481  34.613  30.662   7.055
 9887POPC   C4A55482  34.527  30.743   7.355
 9887POPC   C1B55483  34.683  30.953   6.455
 9887POPC   C2B55484  34.695  30.875   6.755
 9887POPC   C3B55485  34.653  30.922   7.055
 9887POPC   C4B55486  34.727  30.916   7.355
 9888POPC   NC355487   0.395  14.353   5.555
 9888POPC   PO455488   0.471  14.413   5.855
 9888POPC   GL155489   0.446  14.445   6.155
 9888POPC   GL255490   0.366  14.381   6.155
 9888POPC   C1A55491   0.415  14.448   6.455
 9888POPC   D2A55492   0.409  14.400   6.755
 9888POPC   C3A55493   0.435  14.355   7.055
 9888POPC   C4A55494   0.449  14.370   7.355
 9888POPC   C1B55495   0.177  14.341   6.455
 9888POPC   C2B55496   0.247  14.355   6.755
 9888POPC   C3B55497   0.197  14.289   7.055
 9888POPC   C4B55498   0.172  14.318   7.355
 9889POPC   NC355499  16.751  40.827   5.555
 9889POPC   PO455500  16.684  40.819   5.855
 9889POPC   GL155501  16.736  40.738   6.155
 9889POPC   GL255502  16.618  40.825   6.155
 9889POPC   C1A55503  16.683  40.737   6.455
 9889POPC   D2A55504  16.724  40.768   6.755
 9889POPC   C3A55505  16.704  40.766   7.055
 9889POPC   C4A55506  16.737  40.780   7.355
 9889POPC   C1B55507  16.461  40.782   6.455
 9889POPC   C2B55508  16.484  40.857   6.755
 9889POPC   C3B55509  16.481  40.764   7.055
 9889POPC   C4B55510  16.520  40.832   7.355
 9890POPC   NC355511  12.884  16.695   5.555
 9890POPC   PO455512  12.856  16.780   5.855
 9890POPC   GL155513  12.864  16.709   6.155
 9890POPC   GL255514  12.950  16.782   6.155
 9890POPC   C1A55515  12.832  16.780   6.455
 9890POPC   D2A55516  12.819  16.712   6.755
 9890POPC   C3A55517  12.831  16.766   7.055
 9890POPC   C4A55518  12.875  16.732   7.355
 9890POPC   C1B55519  13.066  16.689   6.455
 9890POPC   C2B55520  13.151  16.689   6.755
 9890POPC   C3B55521  13.145  16.717   7.055
 9890POPC   C4B55522  13.080  16.733   7.355
 9891POPC   NC355523  12.074   7.394   5.555
 9891POPC   PO455524  12.060   7.445   5.855
 9891POPC   GL155525  12.117   7.445   6.155
 9891POPC   GL255526  12.076   7.291   6.155
 9891POPC   C1A55527  12.064   7.382   6.455
 9891POPC   D2A55528  12.040   7.398   6.755
 9891POPC   C3A55529  12.040   7.462   7.055
 9891POPC   C4A55530  12.033   7.470   7.355
 9891POPC   C1B55531  12.128   7.181   6.455
 9891POPC   C2B55532  12.119   7.172   6.755
 9891POPC   C3B55533  12.065   7.161   7.055
 9891POPC   C4B55534  12.073   7.218   7.355
 9892POPC   NC355535  26.832   6.640   5.555
 9892POPC   PO455536  26.772   6.600   5.855
 9892POPC   GL155537  26.866   6.675   6.155
 9892POPC   GL255538  26.672   6.674   6.155
 9892POPC   C1A55539  26.772   6.626   6.455
 9892POPC   D2A55540  26.771   6.639   6.755
 9892POPC   C3A55541  26.853   6.671   7.055
 9892POPC   C4A55542  26.779   6.640   7.355
 9892POPC   C1B55543  26.603   6.698   6.455
 9892POPC   C2B55544  26.623   6.775   6.755
 9892POPC   C3B55545  26.604   6.776   7.055
 9892POPC   C4B55546  26.622   6.781   7.355
 9893POPC   NC355547  23.687  27.558   5.555
 9893POPC   PO455548  23.694  27.604   5.855
 9893POPC   GL155549  23.693  27.630   6.155
 9893POPC   GL255550  23.682  27.751   6.155
 9893POPC   C1A55551  23.694  27.567   6.455
 9893POPC   D2A55552  23.691  27.628   6.755
 9893POPC   C3A55553  23.665  27.603   7.055
 9893POPC   C4A55554  23.709  27.615   7.355
 9893POPC   C1B55555  23.643  27.858   6.455
 9893POPC   C2B55556  23.697  27.792   6.755
 9893POPC   C3B55557  23.648  27.876   7.055
 9893POPC   C4B55558  23.694  27.847   7.355
 9894POPC   NC355559  26.075  22.136   5.555
 9894POPC   PO455560  26.090  22.149   5.855
 9894POPC   GL155561  26.052  22.125   6.155
 9894POPC   GL255562  25.955  22.199   6.155
 9894POPC   C1A55563  26.072  22.145   6.455
 9894POPC   D2A55564  26.071  22.114   6.755
 9894POPC   C3A55565  26.015  22.123   7.055
 9894POPC   C4A55566  26.078  22.158   7.355
 9894POPC   C1B55567  25.864  22.319   6.455
 9894POPC   C2B55568  25.886  22.349   6.755
 9894POPC   C3B55569  25.834  22.353   7.055
 9894POPC   C4B55570  25.819  22.325   7.355
 9895POPC   NC355571   2.038   7.457   5.555
 9895POPC   PO455572   2.029   7.404   5.855
 9895POPC   GL155573   1.970   7.457   6.155
 9895POPC   GL255574   1.934   7.293   6.155
 9895POPC   C1A55575   2.006   7.414   6.455
 9895POPC   D2A55576   2.007   7.459   6.755
 9895POPC   C3A55577   1.946   7.385   7.055
 9895POPC   C4A55578   1.986   7.393   7.355
 9895POPC   C1B55579   1.992   7.222   6.455
 9895POPC   C2B55580   1.958   7.192   6.755
 9895POPC   C3B55581   1.978   7.146   7.055
 9895POPC   C4B55582   1.934   7.147   7.355
 9896POPC   NC355583  26.080  22.932   5.555
 9896POPC   PO455584  26.080  22.983   5.855
 9896POPC   GL155585  26.010  22.919   6.155
 9896POPC   GL255586  25.896  22.912   6.155
 9896POPC   C1A55587  26.077  22.911   6.455
 9896POPC   D2A55588  26.088  22.974   6.755
 9896POPC   C3A55589  26.037  22.926   7.055
 9896POPC   C4A55590  26.015  22.917   7.355
 9896POPC   C1B55591  25.859  22.798   6.455
 9896POPC   C2B55592  25.816  22.785   6.755
 9896POPC   C3B55593  25.847  22.856   7.055
 9896POPC   C4B55594  25.781  22.822   7.355
 9897POPC   NC355595  28.355  22.170   5.555
 9897POPC   PO455596  28.372  22.135   5.855
 9897POPC   GL155597  28.326  22.160   6.155
 9897POPC   GL255598  28.302  22.228   6.155
 9897POPC   C1A55599  28.371  22.129   6.455
 9897POPC   D2A55600  28.366  22.203   6.755
 9897POPC   C3A55601  28.415  22.161   7.055
 9897POPC   C4A55602  28.380  22.171   7.355
 9897POPC   C1B55603  28.201  22.283   6.455
 9897POPC   C2B55604  28.162  22.285   6.755
 9897POPC   C3B55605  28.195  22.339   7.055
 9897POPC   C4B55606  28.203  22.282   7.355
 9898POPC   NC355607  15.924  40.781   5.555
 9898POPC   PO455608  15.976  40.791   5.855
 9898POPC   GL155609  15.925  40.736   6.155
 9898POPC   GL255610  15.978  40.687   6.155
 9898POPC   C1A55611  15.908  40.797   6.455
 9898POPC   D2A55612  15.996  40.775   6.755
 9898POPC   C3A55613  15.971  40.810   7.055
 9898POPC   C4A55614  15.967  40.754   7.355
 9898POPC   C1B55615  15.948  40.576   6.455
 9898POPC   C2B55616  16.039  40.491   6.755
 9898POPC   C3B55617  15.947  40.562   7.055
 9898POPC   C4B55618  15.956  40.520   7.355
 9899POPC   NC355619  32.989  26.036   5.555
 9899POPC   PO455620  33.028  26.074   5.855
 9899POPC   GL155621  33.025  26.037   6.155
 9899POPC   GL255622  33.038  25.944   6.155
 9899POPC   C1A55623  33.069  26.078   6.455
 9899POPC   D2A55624  33.070  26.083   6.755
 9899POPC   C3A55625  33.059  26.059   7.055
 9899POPC   C4A55626  33.074  26.091   7.355
 9899POPC   C1B55627  33.060  25.755   6.455
 9899POPC   C2B55628  33.026  25.759   6.755
 9899POPC   C3B55629  33.058  25.824   7.055
 9899POPC   C4B55630  33.053  25.745   7.355
 9900POPC   NC355631  28.347   5.050   5.555
 9900POPC   PO455632  28.329   5.097   5.855
 9900POPC   GL155633  28.378   5.109   6.155
 9900POPC   GL255634  28.246   5.125   6.155
 9900POPC   C1A55635  28.336   5.070   6.455
 9900POPC   D2A55636  28.325   5.128   6.755
 9900POPC   C3A55637  28.359   5.061   7.055
 9900POPC   C4A55638  28.386   5.088   7.355
 9900POPC   C1B55639  28.095   5.125   6.455
 9900POPC   C2B55640  28.148   5.092   6.755
 9900POPC   C3B55641  28.134   5.065   7.055
 9900POPC   C4B55642  28.123   5.106   7.355
 9901POPC   NC355643  15.950  31.430   5.555
 9901POPC   PO455644  15.934  31.515   5.855
 9901POPC   GL155645  15.984  31.470   6.155
 9901POPC   GL255646  16.026  31.623   6.155
 9901POPC   C1A55647  15.991  31.452   6.455
 9901POPC   D2A55648  15.938  31.498   6.755
 9901POPC   C3A55649  15.940  31.432   7.055
 9901POPC   C4A55650  15.993  31.433   7.355
 9901POPC   C1B55651  16.067  31.664   6.455
 9901POPC   C2B55652  16.060  31.696   6.755
 9901POPC   C3B55653  16.105  31.696   7.055
 9901POPC   C4B55654  16.028  31.678   7.355
 9902POPC   NC355655   6.673  39.194   5.555
 9902POPC   PO455656   6.661  39.250   5.855
 9902POPC   GL155657   6.649  39.222   6.155
 9902POPC   GL255658   6.612  39.347   6.155
 9902POPC   C1A55659   6.668  39.235   6.455
 9902POPC   D2A55660   6.624  39.188   6.755
 9902POPC   C3A55661   6.636  39.188   7.055
 9902POPC   C4A55662   6.685  39.253   7.355
 9902POPC   C1B55663   6.613  39.476   6.455
 9902POPC   C2B55664   6.632  39.474   6.755
 9902POPC   C3B55665   6.608  39.524   7.055
 9902POPC   C4B55666   6.551  39.452   7.355
 9903POPC   NC355667   0.434  26.002   5.555
 9903POPC   PO455668   0.473  26.001   5.855
 9903POPC   GL155669   0.453  26.002   6.155
 9903POPC   GL255670   0.327  26.031   6.155
 9903POPC   C1A55671   0.463  25.992   6.455
 9903POPC   D2A55672   0.428  26.019   6.755
 9903POPC   C3A55673   0.421  26.003   7.055
 9903POPC   C4A55674   0.399  26.008   7.355
 9903POPC   C1B55675   0.199  25.948   6.455
 9903POPC   C2B55676   0.146  26.002   6.755
 9903POPC   C3B55677   0.194  25.987   7.055
 9903POPC   C4B55678   0.199  26.035   7.355
 9904POPC   NC355679  32.226  16.693   5.555
 9904POPC   PO455680  32.281  16.755   5.855
 9904POPC   GL155681  32.295  16.686   6.155
 9904POPC   GL255682  32.174  16.621   6.155
 9904POPC   C1A55683  32.285  16.752   6.455
 9904POPC   D2A55684  32.258  16.749   6.755
 9904POPC   C3A55685  32.236  16.720   7.055
 9904POPC   C4A55686  32.275  16.768   7.355
 9904POPC   C1B55687  32.004  16.554   6.455
 9904POPC   C2B55688  32.006  16.648   6.755
 9904POPC   C3B55689  32.051  16.556   7.055
 9904POPC   C4B55690  32.074  16.606   7.355
 9905POPC   NC355691  15.910  26.024   5.555
 9905POPC   PO455692  15.966  26.091   5.855
 9905POPC   GL155693  15.928  26.054   6.155
 9905POPC   GL255694  15.959  26.213   6.155
 9905POPC   C1A55695  15.969  26.020   6.455
 9905POPC   D2A55696  15.996  25.999   6.755
 9905POPC   C3A55697  15.917  26.025   7.055
 9905POPC   C4A55698  15.952  25.995   7.355
 9905POPC   C1B55699  15.852  26.313   6.455
 9905POPC   C2B55700  15.899  26.306   6.755
 9905POPC   C3B55701  15.869  26.303   7.055
 9905POPC   C4B55702  15.901  26.258   7.355
 9906POPC   NC355703   4.284  29.132   5.555
 9906POPC   PO455704   4.294  29.174   5.855
 9906POPC   GL155705   4.322  29.181   6.155
 9906POPC   GL255706   4.248  29.255   6.155
 9906POPC   C1A55707   4.319  29.101   6.455
 9906POPC   D2A55708   4.269  29.142   6.755
 9906POPC   C3A55709   4.301  29.101   7.055
 9906POPC   C4A55710   4.288  29.155   7.355
 9906POPC   C1B55711   4.266  29.402   6.455
 9906POPC   C2B55712   4.238  29.418   6.755
 9906POPC   C3B55713   4.256  29.369   7.055
 9906POPC   C4B55714   4.297  29.343   7.355
 9907POPC   NC355715  33.850  24.537   5.555
 9907POPC   PO455716  33.831  24.519   5.855
 9907POPC   GL155717  33.843  24.527   6.155
 9907POPC   GL255718  33.712  24.592   6.155
 9907POPC   C1A55719  33.750  24.517   6.455
 9907POPC   D2A55720  33.796  24.523   6.755
 9907POPC   C3A55721  33.798  24.493   7.055
 9907POPC   C4A55722  33.809  24.532   7.355
 9907POPC   C1B55723  33.703  24.724   6.455
 9907POPC   C2B55724  33.648  24.683   6.755
 9907POPC   C3B55725  33.720  24.676   7.055
 9907POPC   C4B55726  33.715  24.745   7.355
 9908POPC   NC355727  21.378   4.304   5.555
 9908POPC   PO455728  21.374   4.345   5.855
 9908POPC   GL155729  21.422   4.322   6.155
 9908POPC   GL255730  21.237   4.336   6.155
 9908POPC   C1A55731  21.348   4.333   6.455
 9908POPC   D2A55732  21.420   4.314   6.755
 9908POPC   C3A55733  21.425   4.349   7.055
 9908POPC   C4A55734  21.358   4.288   7.355
 9908POPC   C1B55735  21.135   4.378   6.455
 9908POPC   C2B55736  21.195   4.441   6.755
 9908POPC   C3B55737  21.207   4.461   7.055
 9908POPC   C4B55738  21.158   4.443   7.355
 9909POPC   NC355739  40.052  19.867   5.555
 9909POPC   PO455740  40.054  19.876   5.855
 9909POPC   GL155741  40.038  19.863   6.155
 9909POPC   GL255742  39.927  19.799   6.155
 9909POPC   C1A55743  40.050  19.883   6.455
 9909POPC   D2A55744  40.007  19.833   6.755
 9909POPC   C3A55745  40.057  19.815   7.055
 9909POPC   C4A55746  39.979  19.862   7.355
 9909POPC   C1B55747  39.783  19.683   6.455
 9909POPC   C2B55748  39.818  19.665   6.755
 9909POPC   C3B55749  39.839  19.638   7.055
 9909POPC   C4B55750  39.777  19.712   7.355
 9910POPC   NC355751  10.561   4.305   5.555
 9910POPC   PO455752  10.538   4.301   5.855
 9910POPC   GL155753  10.515   4.293   6.155
 9910POPC   GL255754  10.463   4.414   6.155
 9910POPC   C1A55755  10.560   4.295   6.455
 9910POPC   D2A55756  10.475   4.287   6.755
 9910POPC   C3A55757  10.527   4.304   7.055
 9910POPC   C4A55758  10.504   4.347   7.355
 9910POPC   C1B55759  10.360   4.421   6.455
 9910POPC   C2B55760  10.334   4.460   6.755
 9910POPC   C3B55761  10.303   4.446   7.055
 9910POPC   C4B55762  10.361   4.462   7.355
 9911POPC   NC355763  22.157  40.034   5.555
 9911POPC   PO455764  22.116  40.019   5.855
 9911POPC   GL155765  22.146  40.001   6.155
 9911POPC   GL255766  22.183  39.937   6.155
 9911POPC   C1A55767  22.206  39.998   6.455
 9911POPC   D2A55768  22.114  40.012   6.755
 9911POPC   C3A55769  22.178  40.042   7.055
 9911POPC   C4A55770  22.149  40.004   7.355
 9911POPC   C1B55771  22.255  39.732   6.455
 9911POPC   C2B55772  22.285  39.770   6.755
 9911POPC   C3B55773  22.207  39.769   7.055
 9911POPC   C4B55774  22.246  39.760   7.355
 9912POPC   NC355775  36.142   4.348   5.555
 9912POPC   PO455776  36.128   4.284   5.855
 9912POPC   GL155777  36.081   4.360   6.155
 9912POPC   GL255778  36.008   4.372   6.155
 9912POPC   C1A55779  36.107   4.285   6.455
 9912POPC   D2A55780  36.131   4.340   6.755
 9912POPC   C3A55781  36.158   4.359   7.055
 9912POPC   C4A55782  36.145   4.308   7.355
 9912POPC   C1B55783  35.904   4.334   6.455
 9912POPC   C2B55784  35.898   4.413   6.755
 9912POPC   C3B55785  35.899   4.406   7.055
 9912POPC   C4B55786  35.910   4.393   7.355
 9913POPC   NC355787  20.607  22.930   5.555
 9913POPC   PO455788  20.646  22.918   5.855
 9913POPC   GL155789  20.624  22.976   6.155
 9913POPC   GL255790  20.690  22.932   6.155
 9913POPC   C1A55791  20.655  22.960   6.455
 9913POPC   D2A55792  20.608  22.892   6.755
 9913POPC   C3A55793  20.623  22.947   7.055
 9913POPC   C4A55794  20.572  22.896   7.355
 9913POPC   C1B55795  20.872  23.020   6.455
 9913POPC   C2B55796  20.819  23.031   6.755
 9913POPC   C3B55797  20.816  22.988   7.055
 9913POPC   C4B55798  20.806  22.993   7.355
 9914POPC   NC355799  42.334  36.087   5.555
 9914POPC   PO455800  42.383  36.129   5.855
 9914POPC   GL155801  42.367  36.157   6.155
 9914POPC   GL255802  42.386  36.238   6.155
 9914POPC   C1A55803  42.370  36.147   6.455
 9914POPC   D2A55804  42.346  36.116   6.755
 9914POPC   C3A55805  42.347  36.173   7.055
 9914POPC   C4A55806  42.350  36.144   7.355
 9914POPC   C1B55807  42.352  36.346   6.455
 9914POPC   C2B55808  42.355  36.362   6.755
 9914POPC   C3B55809  42.313  36.412   7.055
 9914POPC   C4B55810  42.348  36.382   7.355
 9915POPC   NC355811   2.012  30.662   5.555
 9915POPC   PO455812   1.980  30.727   5.855
 9915POPC   GL155813   2.004  30.717   6.155
 9915POPC   GL255814   2.095  30.734   6.155
 9915POPC   C1A55815   1.942  30.737   6.455
 9915POPC   D2A55816   2.014  30.736   6.755
 9915POPC   C3A55817   1.980  30.650   7.055
 9915POPC   C4A55818   1.955  30.712   7.355
 9915POPC   C1B55819   2.229  30.792   6.455
 9915POPC   C2B55820   2.166  30.819   6.755
 9915POPC   C3B55821   2.174  30.803   7.055
 9915POPC   C4B55822   2.186  30.799   7.355
 9916POPC   NC355823  33.038  27.634   5.555
 9916POPC   PO455824  33.020  27.607   5.855
 9916POPC   GL155825  33.024  27.576   6.155
 9916POPC   GL255826  32.989  27.503   6.155
 9916POPC   C1A55827  33.068  27.551   6.455
 9916POPC   D2A55828  32.998  27.552   6.755
 9916POPC   C3A55829  33.044  27.548   7.055
 9916POPC   C4A55830  33.028  27.615   7.355
 9916POPC   C1B55831  32.921  27.380   6.455
 9916POPC   C2B55832  32.904  27.432   6.755
 9916POPC   C3B55833  32.831  27.360   7.055
 9916POPC   C4B55834  32.848  27.400   7.355
 9917POPC   NC355835   5.137  24.465   5.555
 9917POPC   PO455836   5.066  24.518   5.855
 9917POPC   GL155837   5.087  24.523   6.155
 9917POPC   GL255838   5.004  24.415   6.155
 9917POPC   C1A55839   5.085  24.500   6.455
 9917POPC   D2A55840   5.128  24.445   6.755
 9917POPC   C3A55841   5.076  24.447   7.055
 9917POPC   C4A55842   5.121  24.506   7.355
 9917POPC   C1B55843   4.961  24.255   6.455
 9917POPC   C2B55844   4.925  24.300   6.755
 9917POPC   C3B55845   4.921  24.290   7.055
 9917POPC   C4B55846   4.935  24.286   7.355
 9918POPC   NC355847  17.483  25.242   5.555
 9918POPC   PO455848  17.516  25.228   5.855
 9918POPC   GL155849  17.488  25.235   6.155
 9918POPC   GL255850  17.566  25.165   6.155
 9918POPC   C1A55851  17.457  25.293   6.455
 9918POPC   D2A55852  17.475  25.260   6.755
 9918POPC   C3A55853  17.551  25.270   7.055
 9918POPC   C4A55854  17.525  25.299   7.355
 9918POPC   C1B55855  17.552  25.044   6.455
 9918POPC   C2B55856  17.527  24.992   6.755
 9918POPC   C3B55857  17.518  25.064   7.055
 9918POPC   C4B55858  17.575  25.012   7.355
 9919POPC   NC355859  23.676  34.619   5.555
 9919POPC   PO455860  23.674  34.552   5.855
 9919POPC   GL155861  23.759  34.566   6.155
 9919POPC   GL255862  23.630  34.641   6.155
 9919POPC   C1A55863  23.695  34.625   6.455
 9919POPC   D2A55864  23.677  34.553   6.755
 9919POPC   C3A55865  23.685  34.582   7.055
 9919POPC   C4A55866  23.689  34.610   7.355
 9919POPC   C1B55867  23.536  34.720   6.455
 9919POPC   C2B55868  23.539  34.759   6.755
 9919POPC   C3B55869  23.533  34.755   7.055
 9919POPC   C4B55870  23.533  34.778   7.355
 9920POPC   NC355871   2.801  43.078   5.555
 9920POPC   PO455872   2.801  43.115   5.855
 9920POPC   GL155873   2.799  43.159   6.155
 9920POPC   GL255874   2.665  43.140   6.155
 9920POPC   C1A55875   2.752  43.115   6.455
 9920POPC   D2A55876   2.782  43.081   6.755
 9920POPC   C3A55877   2.777  43.089   7.055
 9920POPC   C4A55878   2.743  43.117   7.355
 9920POPC   C1B55879   2.613  43.255   6.455
 9920POPC   C2B55880   2.598  43.218   6.755
 9920POPC   C3B55881   2.521  43.256   7.055
 9920POPC   C4B55882   2.614  43.239   7.355
 9921POPC   NC355883   5.044   5.866   5.555
 9921POPC   PO455884   5.057   5.829   5.855
 9921POPC   GL155885   5.093   5.885   6.155
 9921POPC   GL255886   5.086   5.780   6.155
 9921POPC   C1A55887   5.111   5.887   6.455
 9921POPC   D2A55888   5.086   5.918   6.755
 9921POPC   C3A55889   5.122   5.902   7.055
 9921POPC   C4A55890   5.136   5.844   7.355
 9921POPC   C1B55891   5.031   5.672   6.455
 9921POPC   C2B55892   5.022   5.671   6.755
 9921POPC   C3B55893   5.087   5.669   7.055
 9921POPC   C4B55894   5.050   5.674   7.355
 9922POPC   NC355895   4.336  14.450   5.555
 9922POPC   PO455896   4.349  14.401   5.855
 9922POPC   GL155897   4.284  14.424   6.155
 9922POPC   GL255898   4.415  14.483   6.155
 9922POPC   C1A55899   4.345  14.365   6.455
 9922POPC   D2A55900   4.284  14.372   6.755
 9922POPC   C3A55901   4.338  14.415   7.055
 9922POPC   C4A55902   4.315  14.376   7.355
 9922POPC   C1B55903   4.475  14.648   6.455
 9922POPC   C2B55904   4.444  14.650   6.755
 9922POPC   C3B55905   4.479  14.570   7.055
 9922POPC   C4B55906   4.407  14.605   7.355
 9923POPC   NC355907   2.751  41.566   5.555
 9923POPC   PO455908   2.747  41.606   5.855
 9923POPC   GL155909   2.747  41.563   6.155
 9923POPC   GL255910   2.714  41.653   6.155
 9923POPC   C1A55911   2.728  41.561   6.455
 9923POPC   D2A55912   2.790  41.523   6.755
 9923POPC   C3A55913   2.777  41.568   7.055
 9923POPC   C4A55914   2.783  41.511   7.355
 9923POPC   C1B55915   2.596  41.724   6.455
 9923POPC   C2B55916   2.568  41.677   6.755
 9923POPC   C3B55917   2.544  41.750   7.055
 9923POPC   C4B55918   2.571  41.737   7.355
 9924POPC   NC355919  14.429  17.470   5.555
 9924POPC   PO455920  14.378  17.458   5.855
 9924POPC   GL155921  14.364  17.492   6.155
 9924POPC   GL255922  14.492  17.543   6.155
 9924POPC   C1A55923  14.449  17.536   6.455
 9924POPC   D2A55924  14.371  17.543   6.755
 9924POPC   C3A55925  14.434  17.515   7.055
 9924POPC   C4A55926  14.366  17.542   7.355
 9924POPC   C1B55927  14.620  17.675   6.455
 9924POPC   C2B55928  14.635  17.580   6.755
 9924POPC   C3B55929  14.606  17.634   7.055
 9924POPC   C4B55930  14.638  17.665   7.355
 9925POPC   NC355931  14.389  29.194   5.555
 9925POPC   PO455932  14.375  29.154   5.855
 9925POPC   GL155933  14.424  29.101   6.155
 9925POPC   GL255934  14.256  29.105   6.155
 9925POPC   C1A55935  14.387  29.133   6.455
 9925POPC   D2A55936  14.405  29.132   6.755
 9925POPC   C3A55937  14.434  29.095   7.055
 9925POPC   C4A55938  14.377  29.117   7.355
 9925POPC   C1B55939  14.150  29.081   6.455
 9925POPC   C2B55940  14.152  29.089   6.755
 9925POPC   C3B55941  14.139  29.090   7.055
 9925POPC   C4B55942  14.179  29.052   7.355
 9926POPC   NC355943  32.993  30.652   5.555
 9926POPC   PO455944  33.037  30.676   5.855
 9926POPC   GL155945  32.989  30.655   6.155
 9926POPC   GL255946  33.114  30.762   6.155
 9926POPC   C1A55947  32.990  30.653   6.455
 9926POPC   D2A55948  33.007  30.658   6.755
 9926POPC   C3A55949  33.019  30.695   7.055
 9926POPC   C4A55950  33.052  30.712   7.355
 9926POPC   C1B55951  33.212  30.781   6.455
 9926POPC   C2B55952  33.277  30.799   6.755
 9926POPC   C3B55953  33.226  30.871   7.055
 9926POPC   C4B55954  33.221  30.823   7.355
 9927POPC   NC355955  12.829  12.872   5.555
 9927POPC   PO455956  12.815  12.875   5.855
 9927POPC   GL155957  12.869  12.877   6.155
 9927POPC   GL255958  12.810  12.775   6.155
 9927POPC   C1A55959  12.845  12.894   6.455
 9927POPC   D2A55960  12.850  12.878   6.755
 9927POPC   C3A55961  12.827  12.851   7.055
 9927POPC   C4A55962  12.888  12.876   7.355
 9927POPC   C1B55963  12.691  12.673   6.455
 9927POPC   C2B55964  12.726  12.683   6.755
 9927POPC   C3B55965  12.731  12.674   7.055
 9927POPC   C4B55966  12.746  12.625   7.355
 9928POPC   NC355967  12.874  39.961   5.555
 9928POPC   PO455968  12.877  40.043   5.855
 9928POPC   GL155969  12.831  40.036   6.155
 9928POPC   GL255970  13.006  39.933   6.155
 9928POPC   C1A55971  12.896  40.054   6.455
 9928POPC   D2A55972  12.805  40.035   6.755
 9928POPC   C3A55973  12.833  39.971   7.055
 9928POPC   C4A55974  12.854  39.957   7.355
 9928POPC   C1B55975  13.068  39.897   6.455
 9928POPC   C2B55976  13.052  39.942   6.755
 9928POPC   C3B55977  13.129  39.975   7.055
 9928POPC   C4B55978  13.041  39.928   7.355
 9929POPC   NC355979  36.869  24.449   5.555
 9929POPC   PO455980  36.943  24.460   5.855
 9929POPC   GL155981  36.879  24.524   6.155
 9929POPC   GL255982  37.021  24.407   6.155
 9929POPC   C1A55983  36.950  24.444   6.455
 9929POPC   D2A55984  36.929  24.484   6.755
 9929POPC   C3A55985  36.941  24.484   7.055
 9929POPC   C4A55986  36.947  24.504   7.355
 9929POPC   C1B55987  37.170  24.448   6.455
 9929POPC   C2B55988  37.117  24.431   6.755
 9929POPC   C3B55989  37.142  24.396   7.055
 9929POPC   C4B55990  37.167  24.446   7.355
 9930POPC   NC355991   5.128  29.158   5.555
 9930POPC   PO455992   5.123  29.111   5.855
 9930POPC   GL155993   5.135  29.169   6.155
 9930POPC   GL255994   4.986  28.994   6.155
 9930POPC   C1A55995   5.048  29.116   6.455
 9930POPC   D2A55996   5.121  29.102   6.755
 9930POPC   C3A55997   5.142  29.191   7.055
 9930POPC   C4A55998   5.114  29.155   7.355
 9930POPC   C1B55999   4.990  28.950   6.455
 9930POPC   C2B56000   4.924  28.935   6.755
 9930POPC   C3B56001   4.964  28.910   7.055
 9930POPC   C4B56002   4.969  28.927   7.355
 9931POPC   NC356003   5.085  41.531   5.555
 9931POPC   PO456004   5.101  41.552   5.855
 9931POPC   GL156005   5.120  41.594   6.155
 9931POPC   GL256006   5.087  41.650   6.155
 9931POPC   C1A56007   5.053  41.551   6.455
 9931POPC   D2A56008   5.077  41.544   6.755
 9931POPC   C3A56009   5.100  41.529   7.055
 9931POPC   C4A56010   5.134  41.533   7.355
 9931POPC   C1B56011   5.134  41.814   6.455
 9931POPC   C2B56012   5.144  41.819   6.755
 9931POPC   C3B56013   5.142  41.756   7.055
 9931POPC   C4B56014   5.134  41.765   7.355
 9932POPC   NC356015   0.413  17.475   5.555
 9932POPC   PO456016   0.392  17.544   5.855
 9932POPC   GL156017   0.445  17.534   6.155
 9932POPC   GL256018   0.506  17.636   6.155
 9932POPC   C1A56019   0.393  17.466   6.455
 9932POPC   D2A56020   0.444  17.537   6.755
 9932POPC   C3A56021   0.421  17.502   7.055
 9932POPC   C4A56022   0.405  17.534   7.355
 9932POPC   C1B56023   0.618  17.664   6.455
 9932POPC   C2B56024   0.548  17.662   6.755
 9932POPC   C3B56025   0.568  17.674   7.055
 9932POPC   C4B56026   0.593  17.731   7.355
 9933POPC   NC356027  34.572   1.967   5.555
 9933POPC   PO456028  34.622   1.992   5.855
 9933POPC   GL156029  34.550   1.952   6.155
 9933POPC   GL256030  34.635   1.932   6.155
 9933POPC   C1A56031  34.599   2.030   6.455
 9933POPC   D2A56032  34.580   1.948   6.755
 9933POPC   C3A56033  34.573   1.966   7.055
 9933POPC   C4A56034  34.539   1.948   7.355
 9933POPC   C1B56035  34.773   1.804   6.455
 9933POPC   C2B56036  34.757   1.787   6.755
 9933POPC   C3B56037  34.753   1.778   7.055
 9933POPC   C4B56038  34.706   1.770   7.355
 9934POPC   NC356039  12.824  34.610   5.555
 9934POPC   PO456040  12.866  34.576   5.855
 9934POPC   GL156041  12.847  34.547   6.155
 9934POPC   GL256042  12.766  34.501   6.155
 9934POPC   C1A56043  12.821  34.595   6.455
 9934POPC   D2A56044  12.853  34.575   6.755
 9934POPC   C3A56045  12.871  34.562   7.055
 9934POPC   C4A56046  12.848  34.560   7.355
 9934POPC   C1B56047  12.705  34.337   6.455
 9934POPC   C2B56048  12.714  34.337   6.755
 9934POPC   C3B56049  12.760  34.392   7.055
 9934POPC   C4B56050  12.717  34.317   7.355
 9935POPC   NC356051  12.896   5.836   5.555
 9935POPC   PO456052  12.816   5.918   5.855
 9935POPC   GL156053  12.870   5.886   6.155
 9935POPC   GL256054  13.004   5.900   6.155
 9935POPC   C1A56055  12.850   5.902   6.455
 9935POPC   D2A56056  12.808   5.882   6.755
 9935POPC   C3A56057  12.861   5.889   7.055
 9935POPC   C4A56058  12.878   5.860   7.355
 9935POPC   C1B56059  13.066   5.957   6.455
 9935POPC   C2B56060  13.067   5.930   6.755
 9935POPC   C3B56061  13.110   5.918   7.055
 9935POPC   C4B56062  13.123   5.908   7.355
 9936POPC   NC356063  12.107  44.637   5.555
 9936POPC   PO456064  12.064  44.694   5.855
 9936POPC   GL156065  12.066  44.689   6.155
 9936POPC   GL256066  11.949  44.599   6.155
 9936POPC   C1A56067  12.085  44.641   6.455
 9936POPC   D2A56068  12.086  44.689   6.755
 9936POPC   C3A56069  12.055  44.630   7.055
 9936POPC   C4A56070  12.044  44.670   7.355
 9936POPC   C1B56071  11.874  44.604   6.455
 9936POPC   C2B56072  11.891  44.545   6.755
 9936POPC   C3B56073  11.827  44.524   7.055
 9936POPC   C4B56074  11.873  44.593   7.355
 9937POPC   NC356075  36.923   2.721   5.555
 9937POPC   PO456076  36.925   2.751   5.855
 9937POPC   GL156077  36.860   2.811   6.155
 9937POPC   GL256078  36.848   2.709   6.155
 9937POPC   C1A56079  36.921   2.773   6.455
 9937POPC   D2A56080  36.920   2.782   6.755
 9937POPC   C3A56081  36.898   2.746   7.055
 9937POPC   C4A56082  36.930   2.749   7.355
 9937POPC   C1B56083  36.767   2.546   6.455
 9937POPC   C2B56084  36.793   2.585   6.755
 9937POPC   C3B56085  36.726   2.547   7.055
 9937POPC   C4B56086  36.751   2.590   7.355
 9938POPC   NC356087  15.137   3.509   5.555
 9938POPC   PO456088  15.147   3.565   5.855
 9938POPC   GL156089  15.195   3.586   6.155
 9938POPC   GL256090  15.160   3.620   6.155
 9938POPC   C1A56091  15.142   3.553   6.455
 9938POPC   D2A56092  15.152   3.567   6.755
 9938POPC   C3A56093  15.144   3.541   7.055
 9938POPC   C4A56094  15.217   3.590   7.355
 9938POPC   C1B56095  15.155   3.771   6.455
 9938POPC   C2B56096  15.141   3.796   6.755
 9938POPC   C3B56097  15.170   3.770   7.055
 9938POPC   C4B56098  15.117   3.812   7.355
 9939POPC   NC356099  36.098  16.755   5.555
 9939POPC   PO456100  36.121  16.753   5.855
 9939POPC   GL156101  36.095  16.691   6.155
 9939POPC   GL256102  36.226  16.679   6.155
 9939POPC   C1A56103  36.109  16.730   6.455
 9939POPC   D2A56104  36.173  16.760   6.755
 9939POPC   C3A56105  36.135  16.700   7.055
 9939POPC   C4A56106  36.156  16.738   7.355
 9939POPC   C1B56107  36.299  16.608   6.455
 9939POPC   C2B56108  36.284  16.605   6.755
 9939POPC   C3B56109  36.309  16.519   7.055
 9939POPC   C4B56110  36.354  16.533   7.355
 9940POPC   NC356111  39.189   5.917   5.555
 9940POPC   PO456112  39.272   5.835   5.855
 9940POPC   GL156113  39.213   5.856   6.155
 9940POPC   GL256114  39.365   5.988   6.155
 9940POPC   C1A56115  39.246   5.917   6.455
 9940POPC   D2A56116  39.224   5.898   6.755
 9940POPC   C3A56117  39.226   5.836   7.055
 9940POPC   C4A56118  39.275   5.824   7.355
 9940POPC   C1B56119  39.389   6.083   6.455
 9940POPC   C2B56120  39.369   6.025   6.755
 9940POPC   C3B56121  39.363   6.009   7.055
 9940POPC   C4B56122  39.449   6.067   7.355
 9941POPC   NC356123  28.345   7.468   5.555
 9941POPC   PO456124  28.415   7.412   5.855
 9941POPC   GL156125  28.351   7.411   6.155
 9941POPC   GL256126  28.298   7.352   6.155
 9941POPC   C1A56127  28.334   7.471   6.455
 9941POPC   D2A56128  28.321   7.396   6.755
 9941POPC   C3A56129  28.332   7.376   7.055
 9941POPC   C4A56130  28.378   7.411   7.355
 9941POPC   C1B56131  28.098   7.370   6.455
 9941POPC   C2B56132  28.079   7.355   6.755
 9941POPC   C3B56133  28.123   7.376   7.055
 9941POPC   C4B56134  28.100   7.361   7.355
 9942POPC   NC356135  28.358  12.828   5.555
 9942POPC   PO456136  28.399  12.808   5.855
 9942POPC   GL156137  28.341  12.814   6.155
 9942POPC   GL256138  28.329  12.682   6.155
 9942POPC   C1A56139  28.379  12.843   6.455
 9942POPC   D2A56140  28.419  12.880   6.755
 9942POPC   C3A56141  28.399  12.895   7.055
 9942POPC   C4A56142  28.401  12.869   7.355
 9942POPC   C1B56143  28.360  12.608   6.455
 9942POPC   C2B56144  28.411  12.559   6.755
 9942POPC   C3B56145  28.373  12.644   7.055
 9942POPC   C4B56146  28.337  12.595   7.355
 9943POPC   NC356147   1.206  36.172   5.555
 9943POPC   PO456148   1.223  36.175   5.855
 9943POPC   GL156149   1.194  36.157   6.155
 9943POPC   GL256150   1.279  36.221   6.155
 9943POPC   C1A56151   1.164  36.130   6.455
 9943POPC   D2A56152   1.235  36.138   6.755
 9943POPC   C3A56153   1.171  36.130   7.055
 9943POPC   C4A56154   1.220  36.147   7.355
 9943POPC   C1B56155   1.322  36.318   6.455
 9943POPC   C2B56156   1.266  36.325   6.755
 9943POPC   C3B56157   1.338  36.327   7.055
 9943POPC   C4B56158   1.351  36.314   7.355
 9944POPC   NC356159  37.637   5.073   5.555
 9944POPC   PO456160  37.729   5.121   5.855
 9944POPC   GL156161  37.674   5.141   6.155
 9944POPC   GL256162  37.572   5.036   6.155
 9944POPC   C1A56163  37.631   5.076   6.455
 9944POPC   D2A56164  37.651   5.120   6.755
 9944POPC   C3A56165  37.685   5.050   7.055
 9944POPC   C4A56166  37.653   5.079   7.355
 9944POPC   C1B56167  37.460   5.029   6.455
 9944POPC   C2B56168  37.396   5.050   6.755
 9944POPC   C3B56169  37.465   5.033   7.055
 9944POPC   C4B56170  37.405   5.012   7.355
 9945POPC   NC356171  44.672  42.301   5.555
 9945POPC   PO456172  44.623  42.356   5.855
 9945POPC   GL156173  44.678  42.289   6.155
 9945POPC   GL256174  44.815  42.284   6.155
 9945POPC   C1A56175  44.615  42.308   6.455
 9945POPC   D2A56176  44.692  42.369   6.755
 9945POPC   C3A56177  44.689  42.295   7.055
 9945POPC   C4A56178  44.660  42.289   7.355
 9945POPC   C1B56179  44.869  42.214   6.455
 9945POPC   C2B56180  44.924  42.259   6.755
 9945POPC   C3B56181  44.877  42.244   7.055
 9945POPC   C4B56182  44.915  42.199   7.355
 9946POPC   NC356183  12.851  20.567   5.555
 9946POPC   PO456184  12.871  20.599   5.855
 9946POPC   GL156185  12.879  20.639   6.155
 9946POPC   GL256186  12.999  20.555   6.155
 9946POPC   C1A56187  12.858  20.621   6.455
 9946POPC   D2A56188  12.868  20.621   6.755
 9946POPC   C3A56189  12.901  20.660   7.055
 9946POPC   C4A56190  12.822  20.601   7.355
 9946POPC   C1B56191  13.081  20.498   6.455
 9946POPC   C2B56192  13.012  20.438   6.755
 9946POPC   C3B56193  13.027  20.429   7.055
 9946POPC   C4B56194  13.033  20.427   7.355
 9947POPC   NC356195  38.445  40.757   5.555
 9947POPC   PO456196  38.491  40.824   5.855
 9947POPC   GL156197  38.428  40.828   6.155
 9947POPC   GL256198  38.509  40.883   6.155
 9947POPC   C1A56199  38.438  40.795   6.455
 9947POPC   D2A56200  38.456  40.825   6.755
 9947POPC   C3A56201  38.505  40.763   7.055
 9947POPC   C4A56202  38.448  40.760   7.355
 9947POPC   C1B56203  38.517  41.027   6.455
 9947POPC   C2B56204  38.479  41.055   6.755
 9947POPC   C3B56205  38.442  41.075   7.055
 9947POPC   C4B56206  38.462  41.062   7.355
 9948POPC   NC356207  40.043  42.330   5.555
 9948POPC   PO456208  40.006  42.351   5.855
 9948POPC   GL156209  39.977  42.367   6.155
 9948POPC   GL256210  40.159  42.316   6.155
 9948POPC   C1A56211  39.984  42.337   6.455
 9948POPC   D2A56212  39.987  42.312   6.755
 9948POPC   C3A56213  40.003  42.365   7.055
 9948POPC   C4A56214  40.057  42.350   7.355
 9948POPC   C1B56215  40.179  42.253   6.455
 9948POPC   C2B56216  40.245  42.254   6.755
 9948POPC   C3B56217  40.187  42.229   7.055
 9948POPC   C4B56218  40.269  42.205   7.355
 9949POPC   NC356219  12.116  41.544   5.555
 9949POPC   PO456220  12.038  41.542   5.855
 9949POPC   GL156221  12.104  41.605   6.155
 9949POPC   GL256222  12.003  41.715   6.155
 9949POPC   C1A56223  12.104  41.546   6.455
 9949POPC   D2A56224  12.036  41.518   6.755
 9949POPC   C3A56225  12.060  41.547   7.055
 9949POPC   C4A56226  12.070  41.528   7.355
 9949POPC   C1B56227  11.983  41.817   6.455
 9949POPC   C2B56228  11.980  41.772   6.755
 9949POPC   C3B56229  12.005  41.803   7.055
 9949POPC   C4B56230  11.969  41.791   7.355
 9950POPC   NC356231  12.826   1.230   5.555
 9950POPC   PO456232  12.844   1.164   5.855
 9950POPC   GL156233  12.822   1.204   6.155
 9950POPC   GL256234  12.806   1.129   6.155
 9950POPC   C1A56235  12.886   1.221   6.455
 9950POPC   D2A56236  12.887   1.246   6.755
 9950POPC   C3A56237  12.805   1.259   7.055
 9950POPC   C4A56238  12.853   1.196   7.355
 9950POPC   C1B56239  12.777   0.943   6.455
 9950POPC   C2B56240  12.831   0.991   6.755
 9950POPC   C3B56241  12.766   0.997   7.055
 9950POPC   C4B56242  12.846   0.979   7.355
 9951POPC   NC356243   3.497  17.498   5.555
 9951POPC   PO456244   3.508  17.529   5.855
 9951POPC   GL156245   3.544  17.512   6.155
 9951POPC   GL256246   3.552  17.634   6.155
 9951POPC   C1A56247   3.530  17.527   6.455
 9951POPC   D2A56248   3.558  17.513   6.755
 9951POPC   C3A56249   3.551  17.506   7.055
 9951POPC   C4A56250   3.509  17.469   7.355
 9951POPC   C1B56251   3.508  17.791   6.455
 9951POPC   C2B56252   3.494  17.787   6.755
 9951POPC   C3B56253   3.562  17.740   7.055
 9951POPC   C4B56254   3.538  17.786   7.355
 9952POPC   NC356255  14.361   8.977   5.555
 9952POPC   PO456256  14.384   8.936   5.855
 9952POPC   GL156257  14.404   9.008   6.155
 9952POPC   GL256258  14.410   9.059   6.155
 9952POPC   C1A56259  14.411   9.012   6.455
 9952POPC   D2A56260  14.370   8.936   6.755
 9952POPC   C3A56261  14.393   8.981   7.055
 9952POPC   C4A56262  14.375   8.930   7.355
 9952POPC   C1B56263  14.434   9.195   6.455
 9952POPC   C2B56264  14.470   9.241   6.755
 9952POPC   C3B56265  14.444   9.191   7.055
 9952POPC   C4B56266  14.500   9.173   7.355
 9953POPC   NC356267  39.251  23.673   5.555
 9953POPC   PO456268  39.231  23.690   5.855
 9953POPC   GL156269  39.210  23.730   6.155
 9953POPC   GL256270  39.389  23.759   6.155
 9953POPC   C1A56271  39.255  23.672   6.455
 9953POPC   D2A56272  39.279  23.761   6.755
 9953POPC   C3A56273  39.203  23.728   7.055
 9953POPC   C4A56274  39.198  23.678   7.355
 9953POPC   C1B56275  39.465  23.855   6.455
 9953POPC   C2B56276  39.422  23.819   6.755
 9953POPC   C3B56277  39.441  23.885   7.055
 9953POPC   C4B56278  39.450  23.824   7.355
 9954POPC   NC356279  40.739  12.842   5.555
 9954POPC   PO456280  40.796  12.866   5.855
 9954POPC   GL156281  40.743  12.832   6.155
 9954POPC   GL256282  40.795  12.965   6.155
 9954POPC   C1A56283  40.828  12.825   6.455
 9954POPC   D2A56284  40.782  12.880   6.755
 9954POPC   C3A56285  40.757  12.810   7.055
 9954POPC   C4A56286  40.760  12.836   7.355
 9954POPC   C1B56287  40.760  13.090   6.455
 9954POPC   C2B56288  40.802  13.140   6.755
 9954POPC   C3B56289  40.732  13.082   7.055
 9954POPC   C4B56290  40.702  13.054   7.355
 9955POPC   NC356291  17.493  32.990   5.555
 9955POPC   PO456292  17.553  33.029   5.855
 9955POPC   GL156293  17.461  33.056   6.155
 9955POPC   GL256294  17.436  33.183   6.155
 9955POPC   C1A56295  17.539  33.039   6.455
 9955POPC   D2A56296  17.500  33.011   6.755
 9955POPC   C3A56297  17.498  33.038   7.055
 9955POPC   C4A56298  17.479  32.996   7.355
 9955POPC   C1B56299  17.424  33.239   6.455
 9955POPC   C2B56300  17.348  33.281   6.755
 9955POPC   C3B56301  17.421  33.238   7.055
 9955POPC   C4B56302  17.400  33.278   7.355
 9956POPC   NC356303  16.708  41.515   5.555
 9956POPC   PO456304  16.712  41.522   5.855
 9956POPC   GL156305  16.699  41.595   6.155
 9956POPC   GL256306  16.735  41.687   6.155
 9956POPC   C1A56307  16.697  41.560   6.455
 9956POPC   D2A56308  16.735  41.584   6.755
 9956POPC   C3A56309  16.692  41.571   7.055
 9956POPC   C4A56310  16.711  41.555   7.355
 9956POPC   C1B56311  16.848  41.797   6.455
 9956POPC   C2B56312  16.806  41.816   6.755
 9956POPC   C3B56313  16.787  41.817   7.055
 9956POPC   C4B56314  16.787  41.762   7.355
 9957POPC   NC356315   1.178  33.020   5.555
 9957POPC   PO456316   1.202  32.985   5.855
 9957POPC   GL156317   1.241  33.051   6.155
 9957POPC   GL256318   1.295  33.173   6.155
 9957POPC   C1A56319   1.166  33.049   6.455
 9957POPC   D2A56320   1.196  33.030   6.755
 9957POPC   C3A56321   1.225  32.990   7.055
 9957POPC   C4A56322   1.256  33.039   7.355
 9957POPC   C1B56323   1.410  33.248   6.455
 9957POPC   C2B56324   1.358  33.235   6.755
 9957POPC   C3B56325   1.371  33.191   7.055
 9957POPC   C4B56326   1.317  33.228   7.355
 9958POPC   NC356327  43.857  40.828   5.555
 9958POPC   PO456328  43.882  40.808   5.855
 9958POPC   GL156329  43.934  40.793   6.155
 9958POPC   GL256330  43.867  40.926   6.155
 9958POPC   C1A56331  43.896  40.752   6.455
 9958POPC   D2A56332  43.927  40.768   6.755
 9958POPC   C3A56333  43.878  40.744   7.055
 9958POPC   C4A56334  43.915  40.770   7.355
 9958POPC   C1B56335  43.901  40.996   6.455
 9958POPC   C2B56336  43.900  41.002   6.755
 9958POPC   C3B56337  43.872  41.056   7.055
 9958POPC   C4B56338  43.911  41.036   7.355
 9959POPC   NC356339  19.860  37.697   5.555
 9959POPC   PO456340  19.803  37.690   5.855
 9959POPC   GL156341  19.853  37.647   6.155
 9959POPC   GL256342  19.764  37.804   6.155
 9959POPC   C1A56343  19.836  37.649   6.455
 9959POPC   D2A56344  19.807  37.712   6.755
 9959POPC   C3A56345  19.813  37.677   7.055
 9959POPC   C4A56346  19.832  37.690   7.355
 9959POPC   C1B56347  19.810  37.953   6.455
 9959POPC   C2B56348  19.795  37.966   6.755
 9959POPC   C3B56349  19.743  37.969   7.055
 9959POPC   C4B56350  19.787  37.909   7.355
 9960POPC   NC356351   4.304   9.730   5.555
 9960POPC   PO456352   4.353   9.753   5.855
 9960POPC   GL156353   4.281   9.795   6.155
 9960POPC   GL256354   4.176   9.733   6.155
 9960POPC   C1A56355   4.292   9.769   6.455
 9960POPC   D2A56356   4.323   9.766   6.755
 9960POPC   C3A56357   4.331   9.785   7.055
 9960POPC   C4A56358   4.302   9.717   7.355
 9960POPC   C1B56359   4.105   9.664   6.455
 9960POPC   C2B56360   4.133   9.615   6.755
 9960POPC   C3B56361   4.059   9.627   7.055
 9960POPC   C4B56362   4.066   9.661   7.355
 9961POPC   NC356363  23.688  42.313   5.555
 9961POPC   PO456364  23.699  42.376   5.855
 9961POPC   GL156365  23.722  42.350   6.155
 9961POPC   GL256366  23.574  42.333   6.155
 9961POPC   C1A56367  23.682  42.377   6.455
 9961POPC   D2A56368  23.713  42.362   6.755
 9961POPC   C3A56369  23.711  42.306   7.055
 9961POPC   C4A56370  23.724  42.334   7.355
 9961POPC   C1B56371  23.518  42.228   6.455
 9961POPC   C2B56372  23.429  42.280   6.755
 9961POPC   C3B56373  23.476  42.269   7.055
 9961POPC   C4B56374  23.517  42.219   7.355
 9962POPC   NC356375  26.808  15.172   5.555
 9962POPC   PO456376  26.843  15.202   5.855
 9962POPC   GL156377  26.842  15.176   6.155
 9962POPC   GL256378  26.762  15.099   6.155
 9962POPC   C1A56379  26.806  15.214   6.455
 9962POPC   D2A56380  26.850  15.213   6.755
 9962POPC   C3A56381  26.800  15.165   7.055
 9962POPC   C4A56382  26.808  15.137   7.355
 9962POPC   C1B56383  26.809  14.934   6.455
 9962POPC   C2B56384  26.750  14.953   6.755
 9962POPC   C3B56385  26.813  14.917   7.055
 9962POPC   C4B56386  26.813  14.941   7.355
 9963POPC   NC356387   5.837  40.800   5.555
 9963POPC   PO456388   5.826  40.788   5.855
 9963POPC   GL156389   5.859  40.756   6.155
 9963POPC   GL256390   5.993  40.738   6.155
 9963POPC   C1A56391   5.834  40.801   6.455
 9963POPC   D2A56392   5.860  40.775   6.755
 9963POPC   C3A56393   5.829  40.758   7.055
 9963POPC   C4A56394   5.885  40.768   7.355
 9963POPC   C1B56395   6.109  40.702   6.455
 9963POPC   C2B56396   6.142  40.674   6.755
 9963POPC   C3B56397   6.104  40.713   7.055
 9963POPC   C4B56398   6.072  40.685   7.355
 9964POPC   NC356399   1.962  36.933   5.555
 9964POPC   PO456400   1.954  36.926   5.855
 9964POPC   GL156401   1.964  36.901   6.155
 9964POPC   GL256402   1.996  37.030   6.155
 9964POPC   C1A56403   1.951  36.909   6.455
 9964POPC   D2A56404   2.035  36.859   6.755
 9964POPC   C3A56405   1.984  36.913   7.055
 9964POPC   C4A56406   1.992  36.937   7.355
 9964POPC   C1B56407   1.941  37.149   6.455
 9964POPC   C2B56408   1.963  37.110   6.755
 9964POPC   C3B56409   1.968  37.112   7.055
 9964POPC   C4B56410   1.915  37.138   7.355
 9965POPC   NC356411  34.572  38.429   5.555
 9965POPC   PO456412  34.544  38.456   5.855
 9965POPC   GL156413  34.541  38.460   6.155
 9965POPC   GL256414  34.705  38.479   6.155
 9965POPC   C1A56415  34.537  38.429   6.455
 9965POPC   D2A56416  34.590  38.455   6.755
 9965POPC   C3A56417  34.599  38.445   7.055
 9965POPC   C4A56418  34.582  38.423   7.355
 9965POPC   C1B56419  34.815  38.451   6.455
 9965POPC   C2B56420  34.835  38.461   6.755
 9965POPC   C3B56421  34.850  38.445   7.055
 9965POPC   C4B56422  34.842  38.458   7.355
 9966POPC   NC356423  31.522  14.453   5.555
 9966POPC   PO456424  31.446  14.354   5.855
 9966POPC   GL156425  31.455  14.417   6.155
 9966POPC   GL256426  31.385  14.259   6.155
 9966POPC   C1A56427  31.507  14.427   6.455
 9966POPC   D2A56428  31.469  14.416   6.755
 9966POPC   C3A56429  31.512  14.364   7.055
 9966POPC   C4A56430  31.462  14.429   7.355
 9966POPC   C1B56431  31.435  14.146   6.455
 9966POPC   C2B56432  31.347  14.179   6.755
 9966POPC   C3B56433  31.399  14.151   7.055
 9966POPC   C4B56434  31.429  14.170   7.355
 9967POPC   NC356435  25.287   2.007   5.555
 9967POPC   PO456436  25.315   2.013   5.855
 9967POPC   GL156437  25.242   2.026   6.155
 9967POPC   GL256438  25.105   2.001   6.155
 9967POPC   C1A56439  25.294   1.968   6.455
 9967POPC   D2A56440  25.241   1.945   6.755
 9967POPC   C3A56441  25.272   1.987   7.055
 9967POPC   C4A56442  25.289   1.958   7.355
 9967POPC   C1B56443  25.042   1.936   6.455
 9967POPC   C2B56444  24.975   1.905   6.755
 9967POPC   C3B56445  25.002   1.923   7.055
 9967POPC   C4B56446  25.043   1.921   7.355
 9968POPC   NC356447  36.869  42.289   5.555
 9968POPC   PO456448  36.913  42.305   5.855
 9968POPC   GL156449  36.867  42.333   6.155
 9968POPC   GL256450  36.964  42.479   6.155
 9968POPC   C1A56451  36.876  42.337   6.455
 9968POPC   D2A56452  36.870  42.285   6.755
 9968POPC   C3A56453  36.925  42.333   7.055
 9968POPC   C4A56454  36.890  42.292   7.355
 9968POPC   C1B56455  36.982  42.547   6.455
 9968POPC   C2B56456  36.949  42.583   6.755
 9968POPC   C3B56457  36.915  42.626   7.055
 9968POPC   C4B56458  36.947  42.557   7.355
 9969POPC   NC356459  42.353   8.148   5.555
 9969POPC   PO456460  42.313   8.200   5.855
 9969POPC   GL156461  42.321   8.224   6.155
 9969POPC   GL256462  42.370   8.057   6.155
 9969POPC   C1A56463  42.285   8.201   6.455
 9969POPC   D2A56464  42.337   8.168   6.755
 9969POPC   C3A56465  42.293   8.230   7.055
 9969POPC   C4A56466  42.299   8.158   7.355
 9969POPC   C1B56467  42.500   7.996   6.455
 9969POPC   C2B56468  42.465   8.003   6.755
 9969POPC   C3B56469  42.419   7.954   7.055
 9969POPC   C4B56470  42.404   7.947   7.355
 9970POPC   NC356471  16.747   0.440   5.555
 9970POPC   PO456472  16.750   0.476   5.855
 9970POPC   GL156473  16.690   0.395   6.155
 9970POPC   GL256474  16.623   0.368   6.155
 9970POPC   C1A56475  16.689   0.459   6.455
 9970POPC   D2A56476  16.687   0.397   6.755
 9970POPC   C3A56477  16.774   0.443   7.055
 9970POPC   C4A56478  16.716   0.414   7.355
 9970POPC   C1B56479  16.517   0.300   6.455
 9970POPC   C2B56480  16.489   0.305   6.755
 9970POPC   C3B56481  16.505   0.346   7.055
 9970POPC   C4B56482  16.512   0.308   7.355
 9971POPC   NC356483  25.238  19.102   5.555
 9971POPC   PO456484  25.233  19.097   5.855
 9971POPC   GL156485  25.268  19.055   6.155
 9971POPC   GL256486  25.285  18.918   6.155
 9971POPC   C1A56487  25.285  19.029   6.455
 9971POPC   D2A56488  25.242  19.024   6.755
 9971POPC   C3A56489  25.280  19.014   7.055
 9971POPC   C4A56490  25.219  19.109   7.355
 9971POPC   C1B56491  25.396  18.823   6.455
 9971POPC   C2B56492  25.429  18.880   6.755
 9971POPC   C3B56493  25.380  18.817   7.055
 9971POPC   C4B56494  25.362  18.818   7.355
 9972POPC   NC356495  12.808  37.684   5.555
 9972POPC   PO456496  12.856  37.701   5.855
 9972POPC   GL156497  12.833  37.705   6.155
 9972POPC   GL256498  12.921  37.820   6.155
 9972POPC   C1A56499  12.852  37.644   6.455
 9972POPC   D2A56500  12.814  37.670   6.755
 9972POPC   C3A56501  12.891  37.709   7.055
 9972POPC   C4A56502  12.807  37.666   7.355
 9972POPC   C1B56503  12.987  37.857   6.455
 9972POPC   C2B56504  13.053  37.870   6.755
 9972POPC   C3B56505  13.032  37.919   7.055
 9972POPC   C4B56506  13.056  37.841   7.355
 9973POPC   NC356507  34.545  27.631   5.555
 9973POPC   PO456508  34.538  27.630   5.855
 9973POPC   GL156509  34.589  27.631   6.155
 9973POPC   GL256510  34.658  27.614   6.155
 9973POPC   C1A56511  34.586  27.577   6.455
 9973POPC   D2A56512  34.597  27.579   6.755
 9973POPC   C3A56513  34.551  27.606   7.055
 9973POPC   C4A56514  34.537  27.565   7.355
 9973POPC   C1B56515  34.791  27.553   6.455
 9973POPC   C2B56516  34.791  27.518   6.755
 9973POPC   C3B56517  34.773  27.577   7.055
 9973POPC   C4B56518  34.789  27.520   7.355
 9974POPC   NC356519  38.407  26.787   5.555
 9974POPC   PO456520  38.450  26.824   5.855
 9974POPC   GL156521  38.440  26.807   6.155
 9974POPC   GL256522  38.427  26.989   6.155
 9974POPC   C1A56523  38.470  26.820   6.455
 9974POPC   D2A56524  38.463  26.788   6.755
 9974POPC   C3A56525  38.453  26.786   7.055
 9974POPC   C4A56526  38.480  26.798   7.355
 9974POPC   C1B56527  38.518  27.113   6.455
 9974POPC   C2B56528  38.529  27.045   6.755
 9974POPC   C3B56529  38.440  27.048   7.055
 9974POPC   C4B56530  38.483  27.089   7.355
 9975POPC   NC356531  20.606  41.589   5.555
 9975POPC   PO456532  20.592  41.512   5.855
 9975POPC   GL156533  20.597  41.593   6.155
 9975POPC   GL256534  20.544  41.390   6.155
 9975POPC   C1A56535  20.593  41.602   6.455
 9975POPC   D2A56536  20.636  41.551   6.755
 9975POPC   C3A56537  20.603  41.546   7.055
 9975POPC   C4A56538  20.659  41.522   7.355
 9975POPC   C1B56539  20.562  41.282   6.455
 9975POPC   C2B56540  20.570  41.364   6.755
 9975POPC   C3B56541  20.549  41.339   7.055
 9975POPC   C4B56542  20.578  41.287   7.355
 9976POPC   NC356543  28.377  43.865   5.555
 9976POPC   PO456544  28.364  43.840   5.855
 9976POPC   GL156545  28.399  43.895   6.155
 9976POPC   GL256546  28.240  43.805   6.155
 9976POPC   C1A56547  28.362  43.853   6.455
 9976POPC   D2A56548  28.378  43.905   6.755
 9976POPC   C3A56549  28.370  43.901   7.055
 9976POPC   C4A56550  28.325  43.892   7.355
 9976POPC   C1B56551  28.213  43.715   6.455
 9976POPC   C2B56552  28.161  43.658   6.755
 9976POPC   C3B56553  28.234  43.707   7.055
 9976POPC   C4B56554  28.154  43.721   7.355
 9977POPC   NC356555  32.244  22.119   5.555
 9977POPC   PO456556  32.229  22.175   5.855
 9977POPC   GL156557  32.277  22.194   6.155
 9977POPC   GL256558  32.088  22.132   6.155
 9977POPC   C1A56559  32.252  22.164   6.455
 9977POPC   D2A56560  32.205  22.151   6.755
 9977POPC   C3A56561  32.275  22.173   7.055
 9977POPC   C4A56562  32.244  22.137   7.355
 9977POPC   C1B56563  32.025  22.145   6.455
 9977POPC   C2B56564  31.960  22.087   6.755
 9977POPC   C3B56565  32.031  22.182   7.055
 9977POPC   C4B56566  31.955  22.169   7.355
 9978POPC   NC356567  43.095  23.729   5.555
 9978POPC   PO456568  43.067  23.664   5.855
 9978POPC   GL156569  43.127  23.754   6.155
 9978POPC   GL256570  43.114  23.568   6.155
 9978POPC   C1A56571  43.134  23.664   6.455
 9978POPC   D2A56572  43.122  23.693   6.755
 9978POPC   C3A56573  43.071  23.758   7.055
 9978POPC   C4A56574  43.071  23.748   7.355
 9978POPC   C1B56575  43.221  23.512   6.455
 9978POPC   C2B56576  43.226  23.433   6.755
 9978POPC   C3B56577  43.213  23.524   7.055
 9978POPC   C4B56578  43.169  23.499   7.355
 9979POPC   NC356579  33.073  28.389   5.555
 9979POPC   PO456580  33.030  28.367   5.855
 9979POPC   GL156581  33.001  28.386   6.155
 9979POPC   GL256582  33.120  28.376   6.155
 9979POPC   C1A56583  33.030  28.368   6.455
 9979POPC   D2A56584  32.989  28.343   6.755
 9979POPC   C3A56585  33.017  28.364   7.055
 9979POPC   C4A56586  32.982  28.354   7.355
 9979POPC   C1B56587  33.252  28.484   6.455
 9979POPC   C2B56588  33.277  28.424   6.755
 9979POPC   C3B56589  33.229  28.480   7.055
 9979POPC   C4B56590  33.227  28.482   7.355
 9980POPC   NC356591  34.530  32.210   5.555
 9980POPC   PO456592  34.585  32.205   5.855
 9980POPC   GL156593  34.618  32.288   6.155
 9980POPC   GL256594  34.684  32.259   6.155
 9980POPC   C1A56595  34.591  32.201   6.455
 9980POPC   D2A56596  34.594  32.288   6.755
 9980POPC   C3A56597  34.584  32.268   7.055
 9980POPC   C4A56598  34.541  32.269   7.355
 9980POPC   C1B56599  34.798  32.198   6.455
 9980POPC   C2B56600  34.856  32.236   6.755
 9980POPC   C3B56601  34.845  32.182   7.055
 9980POPC   C4B56602  34.775  32.201   7.355
 9981POPC   NC356603  21.347  19.863   5.555
 9981POPC   PO456604  21.350  19.880   5.855
 9981POPC   GL156605  21.381  19.801   6.155
 9981POPC   GL256606  21.245  19.947   6.155
 9981POPC   C1A56607  21.409  19.858   6.455
 9981POPC   D2A56608  21.359  19.790   6.755
 9981POPC   C3A56609  21.380  19.857   7.055
 9981POPC   C4A56610  21.362  19.793   7.355
 9981POPC   C1B56611  21.230  19.975   6.455
 9981POPC   C2B56612  21.212  19.944   6.755
 9981POPC   C3B56613  21.184  19.992   7.055
 9981POPC   C4B56614  21.210  20.016   7.355
 9982POPC   NC356615  33.807  39.268   5.555
 9982POPC   PO456616  33.793  39.209   5.855
 9982POPC   GL156617  33.758  39.262   6.155
 9982POPC   GL256618  33.865  39.102   6.155
 9982POPC   C1A56619  33.794  39.247   6.455
 9982POPC   D2A56620  33.792  39.184   6.755
 9982POPC   C3A56621  33.820  39.231   7.055
 9982POPC   C4A56622  33.757  39.273   7.355
 9982POPC   C1B56623  33.973  39.081   6.455
 9982POPC   C2B56624  33.917  38.996   6.755
 9982POPC   C3B56625  33.931  39.080   7.055
 9982POPC   C4B56626  33.963  39.017   7.355
 9983POPC   NC356627  17.460  41.586   5.555
 9983POPC   PO456628  17.540  41.547   5.855
 9983POPC   GL156629  17.517  41.552   6.155
 9983POPC   GL256630  17.519  41.436   6.155
 9983POPC   C1A56631  17.469  41.566   6.455
 9983POPC   D2A56632  17.548  41.566   6.755
 9983POPC   C3A56633  17.485  41.539   7.055
 9983POPC   C4A56634  17.508  41.529   7.355
 9983POPC   C1B56635  17.624  41.362   6.455
 9983POPC   C2B56636  17.608  41.337   6.755
 9983POPC   C3B56637  17.622  41.335   7.055
 9983POPC   C4B56638  17.607  41.330   7.355
 9984POPC   NC356639   9.706  40.026   5.555
 9984POPC   PO456640   9.719  39.977   5.855
 9984POPC   GL156641   9.781  40.006   6.155
 9984POPC   GL256642   9.822  40.091   6.155
 9984POPC   C1A56643   9.711  40.030   6.455
 9984POPC   D2A56644   9.769  40.010   6.755
 9984POPC   C3A56645   9.761  39.977   7.055
 9984POPC   C4A56646   9.788  39.983   7.355
 9984POPC   C1B56647  10.004  40.116   6.455
 9984POPC   C2B56648   9.938  40.150   6.755
 9984POPC   C3B56649   9.934  40.101   7.055
 9984POPC   C4B56650   9.966  40.177   7.355
 9985POPC   NC356651  16.740  28.364   5.555
 9985POPC   PO456652  16.743  28.338   5.855
 9985POPC   GL156653  16.736  28.390   6.155
 9985POPC   GL256654  16.764  28.425   6.155
 9985POPC   C1A56655  16.725  28.325   6.455
 9985POPC   D2A56656  16.763  28.360   6.755
 9985POPC   C3A56657  16.697  28.404   7.055
 9985POPC   C4A56658  16.727  28.369   7.355
 9985POPC   C1B56659  16.932  28.581   6.455
 9985POPC   C2B56660  16.849  28.599   6.755
 9985POPC   C3B56661  16.852  28.583   7.055
 9985POPC   C4B56662  16.917  28.578   7.355
 9986POPC   NC356663  38.471  15.935   5.555
 9986POPC   PO456664  38.420  15.941   5.855
 9986POPC   GL156665  38.438  15.934   6.155
 9986POPC   GL256666  38.305  16.064   6.155
 9986POPC   C1A56667  38.448  15.952   6.455
 9986POPC   D2A56668  38.491  15.971   6.755
 9986POPC   C3A56669  38.469  15.957   7.055
 9986POPC   C4A56670  38.474  15.993   7.355
 9986POPC   C1B56671  38.200  16.056   6.455
 9986POPC   C2B56672  38.191  16.095   6.755
 9986POPC   C3B56673  38.268  16.040   7.055
 9986POPC   C4B56674  38.288  16.112   7.355
 9987POPC   NC356675  12.104  38.470   5.555
 9987POPC   PO456676  12.089  38.449   5.855
 9987POPC   GL156677  12.102  38.451   6.155
 9987POPC   GL256678  12.241  38.469   6.155
 9987POPC   C1A56679  12.094  38.428   6.455
 9987POPC   D2A56680  12.050  38.417   6.755
 9987POPC   C3A56681  12.112  38.443   7.055
 9987POPC   C4A56682  12.102  38.426   7.355
 9987POPC   C1B56683  12.282  38.490   6.455
 9987POPC   C2B56684  12.346  38.491   6.755
 9987POPC   C3B56685  12.271  38.566   7.055
 9987POPC   C4B56686  12.345  38.571   7.355
 9988POPC   NC356687  10.506   9.753   5.555
 9988POPC   PO456688  10.561   9.724   5.855
 9988POPC   GL156689  10.544   9.708   6.155
 9988POPC   GL256690  10.443   9.821   6.155
 9988POPC   C1A56691  10.538   9.726   6.455
 9988POPC   D2A56692  10.518   9.723   6.755
 9988POPC   C3A56693  10.530   9.709   7.055
 9988POPC   C4A56694  10.475   9.733   7.355
 9988POPC   C1B56695  10.285   9.839   6.455
 9988POPC   C2B56696  10.317   9.846   6.755
 9988POPC   C3B56697  10.275   9.890   7.055
 9988POPC   C4B56698  10.281   9.902   7.355
 9989POPC   NC356699  28.381   8.937   5.555
 9989POPC   PO456700  28.380   8.980   5.855
 9989POPC   GL156701  28.328   8.933   6.155
 9989POPC   GL256702  28.500   8.864   6.155
 9989POPC   C1A56703  28.342   8.950   6.455
 9989POPC   D2A56704  28.387   8.929   6.755
 9989POPC   C3A56705  28.343   8.973   7.055
 9989POPC   C4A56706  28.330   8.925   7.355
 9989POPC   C1B56707  28.595   8.809   6.455
 9989POPC   C2B56708  28.578   8.856   6.755
 9989POPC   C3B56709  28.604   8.838   7.055
 9989POPC   C4B56710  28.606   8.858   7.355
 9990POPC   NC356711  26.845  12.109   5.555
 9990POPC   PO456712  26.799  12.120   5.855
 9990POPC   GL156713  26.805  12.040   6.155
 9990POPC   GL256714  26.766  11.913   6.155
 9990POPC   C1A56715  26.836  12.026   6.455
 9990POPC   D2A56716  26.863  12.086   6.755
 9990POPC   C3A56717  26.831  12.110   7.055
 9990POPC   C4A56718  26.800  12.073   7.355
 9990POPC   C1B56719  26.758  11.854   6.455
 9990POPC   C2B56720  26.771  11.790   6.755
 9990POPC   C3B56721  26.771  11.850   7.055
 9990POPC   C4B56722  26.791  11.850   7.355
 9991POPC   NC356723  16.725  37.717   5.555
 9991POPC   PO456724  16.726  37.682   5.855
 9991POPC   GL156725  16.701  37.648   6.155
 9991POPC   GL256726  16.805  37.742   6.155
 9991POPC   C1A56727  16.738  37.660   6.455
 9991POPC   D2A56728  16.763  37.649   6.755
 9991POPC   C3A56729  16.754  37.699   7.055
 9991POPC   C4A56730  16.724  37.714   7.355
 9991POPC   C1B56731  17.018  37.741   6.455
 9991POPC   C2B56732  16.950  37.706   6.755
 9991POPC   C3B56733  16.974  37.748   7.055
 9991POPC   C4B56734  16.934  37.759   7.355
 9992POPC   NC356735  18.248  28.388   5.555
 9992POPC   PO456736  18.262  28.338   5.855
 9992POPC   GL156737  18.331  28.406   6.155
 9992POPC   GL256738  18.415  28.273   6.155
 9992POPC   C1A56739  18.327  28.399   6.455
 9992POPC   D2A56740  18.269  28.403   6.755
 9992POPC   C3A56741  18.233  28.360   7.055
 9992POPC   C4A56742  18.247  28.351   7.355
 9992POPC   C1B56743  18.466  28.248   6.455
 9992POPC   C2B56744  18.463  28.272   6.755
 9992POPC   C3B56745  18.495  28.290   7.055
 9992POPC   C4B56746  18.547  28.221   7.355
 9993POPC   NC356747  21.365  19.017   5.555
 9993POPC   PO456748  21.387  19.016   5.855
 9993POPC   GL156749  21.421  19.097   6.155
 9993POPC   GL256750  21.253  19.064   6.155
 9993POPC   C1A56751  21.406  19.073   6.455
 9993POPC   D2A56752  21.436  19.068   6.755
 9993POPC   C3A56753  21.427  19.051   7.055
 9993POPC   C4A56754  21.402  19.016   7.355
 9993POPC   C1B56755  21.141  19.085   6.455
 9993POPC   C2B56756  21.157  19.071   6.755
 9993POPC   C3B56757  21.152  19.108   7.055
 9993POPC   C4B56758  21.149  19.087   7.355
 9994POPC   NC356759  24.491  23.704   5.555
 9994POPC   PO456760  24.459  23.720   5.855
 9994POPC   GL156761  24.524  23.678   6.155
 9994POPC   GL256762  24.618  23.753   6.155
 9994POPC   C1A56763  24.539  23.746   6.455
 9994POPC   D2A56764  24.498  23.739   6.755
 9994POPC   C3A56765  24.503  23.719   7.055
 9994POPC   C4A56766  24.496  23.757   7.355
 9994POPC   C1B56767  24.656  23.803   6.455
 9994POPC   C2B56768  24.700  23.812   6.755
 9994POPC   C3B56769  24.691  23.852   7.055
 9994POPC   C4B56770  24.674  23.818   7.355
 9995POPC   NC356771  39.240  12.073   5.555
 9995POPC   PO456772  39.196  12.083   5.855
 9995POPC   GL156773  39.209  12.064   6.155
 9995POPC   GL256774  39.160  12.185   6.155
 9995POPC   C1A56775  39.232  12.057   6.455
 9995POPC   D2A56776  39.204  12.118   6.755
 9995POPC   C3A56777  39.245  12.049   7.055
 9995POPC   C4A56778  39.262  12.095   7.355
 9995POPC   C1B56779  39.172  12.289   6.455
 9995POPC   C2B56780  39.097  12.349   6.755
 9995POPC   C3B56781  39.092  12.272   7.055
 9995POPC   C4B56782  39.081  12.309   7.355
 9996POPC   NC356783  29.890   8.197   5.555
 9996POPC   PO456784  29.905   8.205   5.855
 9996POPC   GL156785  29.928   8.183   6.155
 9996POPC   GL256786  29.787   8.226   6.155
 9996POPC   C1A56787  29.908   8.243   6.455
 9996POPC   D2A56788  29.903   8.208   6.755
 9996POPC   C3A56789  29.950   8.233   7.055
 9996POPC   C4A56790  29.934   8.225   7.355
 9996POPC   C1B56791  29.631   8.241   6.455
 9996POPC   C2B56792  29.697   8.255   6.755
 9996POPC   C3B56793  29.640   8.200   7.055
 9996POPC   C4B56794  29.719   8.180   7.355
 9997POPC   NC356795  41.585  16.685   5.555
 9997POPC   PO456796  41.578  16.753   5.855
 9997POPC   GL156797  41.582  16.703   6.155
 9997POPC   GL256798  41.705  16.670   6.155
 9997POPC   C1A56799  41.586  16.755   6.455
 9997POPC   D2A56800  41.529  16.767   6.755
 9997POPC   C3A56801  41.564  16.771   7.055
 9997POPC   C4A56802  41.598  16.774   7.355
 9997POPC   C1B56803  41.838  16.625   6.455
 9997POPC   C2B56804  41.777  16.645   6.755
 9997POPC   C3B56805  41.831  16.640   7.055
 9997POPC   C4B56806  41.792  16.630   7.355
 9998POPC   NC356807  40.771  39.253   5.555
 9998POPC   PO456808  40.808  39.221   5.855
 9998POPC   GL156809  40.811  39.218   6.155
 9998POPC   GL256810  40.818  39.101   6.155
 9998POPC   C1A56811  40.794  39.212   6.455
 9998POPC   D2A56812  40.775  39.243   6.755
 9998POPC   C3A56813  40.747  39.254   7.055
 9998POPC   C4A56814  40.827  39.248   7.355
 9998POPC   C1B56815  40.739  38.996   6.455
 9998POPC   C2B56816  40.719  39.020   6.755
 9998POPC   C3B56817  40.797  38.991   7.055
 9998POPC   C4B56818  40.745  39.024   7.355
 9999POPC   NC356819   6.596  36.087   5.555
 9999POPC   PO456820   6.636  36.162   5.855
 9999POPC   GL156821   6.634  36.121   6.155
 9999POPC   GL256822   6.701  36.182   6.155
 9999POPC   C1A56823   6.639  36.159   6.455
 9999POPC   D2A56824   6.612  36.158   6.755
 9999POPC   C3A56825   6.663  36.103   7.055
 9999POPC   C4A56826   6.609  36.083   7.355
 9999POPC   C1B56827   6.788  36.303   6.455
 9999POPC   C2B56828   6.818  36.331   6.755
 9999POPC   C3B56829   6.797  36.342   7.055
 9999POPC   C4B56830   6.821  36.331   7.355
10000POPC   NC356831  23.707  25.245   5.555
10000POPC   PO456832  23.689  25.216   5.855
10000POPC   GL156833  23.670  25.309   6.155
10000POPC   GL256834  23.746  25.107   6.155
10000POPC   C1A56835  23.669  25.257   6.455
10000POPC   D2A56836  23.735  25.311   6.755
10000POPC   C3A56837  23.724  25.270   7.055
10000POPC   C4A56838  23.697  25.305   7.355
10000POPC   C1B56839  23.692  25.044   6.455
10000POPC   C2B56840  23.739  25.020   6.755
10000POPC   C3B56841  23.694  24.967   7.055
10000POPC   C4B56842  23.746  25.000   7.355
10001POPC   NC356843   3.577   7.427   5.555
10001POPC   PO456844   3.549   7.459   5.855
10001POPC   GL156845   3.537   7.409   6.155
10001POPC   GL256846   3.584   7.552   6.155
10001POPC   C1A56847   3.526   7.429   6.455
10001POPC   D2A56848   3.503   7.438   6.755
10001POPC   C3A56849   3.583   7.455   7.055
10001POPC   C4A56850   3.556   7.444   7.355
10001POPC   C1B56851   3.536   7.718   6.455
10001POPC   C2B56852   3.515   7.672   6.755
10001POPC   C3B56853   3.599   7.674   7.055
10001POPC   C4B56854   3.516   7.647   7.355
10002POPC   NC356855  26.800  13.633   5.555
10002POPC   PO456856  26.859  13.621   5.855
10002POPC   GL156857  26.826  13.613   6.155
10002POPC   GL256858  26.834  13.707   6.155
10002POPC   C1A56859  26.836  13.665   6.455
10002POPC   D2A56860  26.849  13.639   6.755
10002POPC   C3A56861  26.817  13.663   7.055
10002POPC   C4A56862  26.845  13.605   7.355
10002POPC   C1B56863  26.898  13.897   6.455
10002POPC   C2B56864  26.967  13.859   6.755
10002POPC   C3B56865  26.899  13.803   7.055
10002POPC   C4B56866  26.903  13.858   7.355
10003POPC   NC356867  13.620  42.330   5.555
10003POPC   PO456868  13.610  42.324   5.855
10003POPC   GL156869  13.651  42.286   6.155
10003POPC   GL256870  13.684  42.476   6.155
10003POPC   C1A56871  13.663  42.304   6.455
10003POPC   D2A56872  13.609  42.293   6.755
10003POPC   C3A56873  13.639  42.289   7.055
10003POPC   C4A56874  13.601  42.323   7.355
10003POPC   C1B56875  13.616  42.591   6.455
10003POPC   C2B56876  13.696  42.563   6.755
10003POPC   C3B56877  13.615  42.617   7.055
10003POPC   C4B56878  13.616  42.575   7.355
10004POPC   NC356879  33.818  29.888   5.555
10004POPC   PO456880  33.786  29.896   5.855
10004POPC   GL156881  33.776  29.910   6.155
10004POPC   GL256882  33.934  30.024   6.155
10004POPC   C1A56883  33.760  29.920   6.455
10004POPC   D2A56884  33.760  29.888   6.755
10004POPC   C3A56885  33.795  29.905   7.055
10004POPC   C4A56886  33.817  29.895   7.355
10004POPC   C1B56887  34.030  30.063   6.455
10004POPC   C2B56888  33.974  30.008   6.755
10004POPC   C3B56889  33.979  30.006   7.055
10004POPC   C4B56890  34.014  30.051   7.355
10005POPC   NC356891  30.714  10.532   5.555
10005POPC   PO456892  30.708  10.567   5.855
10005POPC   GL156893  30.708  10.496   6.155
10005POPC   GL256894  30.762  10.596   6.155
10005POPC   C1A56895  30.698  10.516   6.455
10005POPC   D2A56896  30.733  10.535   6.755
10005POPC   C3A56897  30.744  10.489   7.055
10005POPC   C4A56898  30.711  10.513   7.355
10005POPC   C1B56899  30.919  10.625   6.455
10005POPC   C2B56900  30.941  10.635   6.755
10005POPC   C3B56901  30.947  10.670   7.055
10005POPC   C4B56902  30.970  10.583   7.355
10006POPC   NC356903  44.615  43.064   5.555
10006POPC   PO456904  44.702  43.068   5.855
10006POPC   GL156905  44.699  43.154   6.155
10006POPC   GL256906  44.819  43.174   6.155
10006POPC   C1A56907  44.615  43.147   6.455
10006POPC   D2A56908  44.655  43.076   6.755
10006POPC   C3A56909  44.700  43.126   7.055
10006POPC   C4A56910  44.710  43.088   7.355
10006POPC   C1B56911  44.862  43.148   6.455
10006POPC   C2B56912  44.950  43.177   6.755
10006POPC   C3B56913  44.949  43.131   7.055
10006POPC   C4B56914  44.955  43.156   7.355
10007POPC   NC356915  37.659   0.423   5.555
10007POPC   PO456916  37.650   0.482   5.855
10007POPC   GL156917  37.701   0.462   6.155
10007POPC   GL256918  37.623   0.363   6.155
10007POPC   C1A56919  37.643   0.422   6.455
10007POPC   D2A56920  37.711   0.449   6.755
10007POPC   C3A56921  37.699   0.408   7.055
10007POPC   C4A56922  37.647   0.470   7.355
10007POPC   C1B56923  37.473   0.267   6.455
10007POPC   C2B56924  37.457   0.252   6.755
10007POPC   C3B56925  37.487   0.245   7.055
10007POPC   C4B56926  37.513   0.282   7.355
10008POPC   NC356927  40.794  26.063   5.555
10008POPC   PO456928  40.734  26.057   5.855
10008POPC   GL156929  40.749  26.053   6.155
10008POPC   GL256930  40.719  25.925   6.155
10008POPC   C1A56931  40.788  26.034   6.455
10008POPC   D2A56932  40.737  25.999   6.755
10008POPC   C3A56933  40.778  26.029   7.055
10008POPC   C4A56934  40.802  26.077   7.355
10008POPC   C1B56935  40.586  25.827   6.455
10008POPC   C2B56936  40.622  25.879   6.755
10008POPC   C3B56937  40.608  25.832   7.055
10008POPC   C4B56938  40.624  25.855   7.355
10009POPC   NC356939  19.808  25.995   5.555
10009POPC   PO456940  19.845  26.087   5.855
10009POPC   GL156941  19.829  25.998   6.155
10009POPC   GL256942  19.941  26.107   6.155
10009POPC   C1A56943  19.811  26.021   6.455
10009POPC   D2A56944  19.862  26.018   6.755
10009POPC   C3A56945  19.835  26.021   7.055
10009POPC   C4A56946  19.810  26.026   7.355
10009POPC   C1B56947  19.984  26.232   6.455
10009POPC   C2B56948  20.040  26.273   6.755
10009POPC   C3B56949  20.014  26.280   7.055
10009POPC   C4B56950  20.015  26.264   7.355
10010POPC   NC356951  38.433   2.758   5.555
10010POPC   PO456952  38.457   2.765   5.855
10010POPC   GL156953  38.460   2.808   6.155
10010POPC   GL256954  38.560   2.800   6.155
10010POPC   C1A56955  38.431   2.716   6.455
10010POPC   D2A56956  38.483   2.764   6.755
10010POPC   C3A56957  38.492   2.750   7.055
10010POPC   C4A56958  38.489   2.764   7.355
10010POPC   C1B56959  38.703   2.904   6.455
10010POPC   C2B56960  38.699   2.898   6.755
10010POPC   C3B56961  38.691   2.908   7.055
10010POPC   C4B56962  38.655   2.899   7.355
10011POPC   NC356963  10.484   5.871   5.555
10011POPC   PO456964  10.548   5.853   5.855
10011POPC   GL156965  10.530   5.859   6.155
10011POPC   GL256966  10.437   5.900   6.155
10011POPC   C1A56967  10.524   5.846   6.455
10011POPC   D2A56968  10.501   5.918   6.755
10011POPC   C3A56969  10.574   5.827   7.055
10011POPC   C4A56970  10.516   5.842   7.355
10011POPC   C1B56971  10.299   5.932   6.455
10011POPC   C2B56972  10.259   5.989   6.755
10011POPC   C3B56973  10.276   6.008   7.055
10011POPC   C4B56974  10.288   5.997   7.355
10012POPC   NC356975   2.763  38.480   5.555
10012POPC   PO456976   2.732  38.467   5.855
10012POPC   GL156977   2.757  38.452   6.155
10012POPC   GL256978   2.797  38.297   6.155
10012POPC   C1A56979   2.737  38.495   6.455
10012POPC   D2A56980   2.757  38.505   6.755
10012POPC   C3A56981   2.767  38.497   7.055
10012POPC   C4A56982   2.740  38.485   7.355
10012POPC   C1B56983   2.774  38.198   6.455
10012POPC   C2B56984   2.834  38.247   6.755
10012POPC   C3B56985   2.787  38.173   7.055
10012POPC   C4B56986   2.802  38.194   7.355
10013POPC   NC356987  38.477  14.452   5.555
10013POPC   PO456988  38.439  14.389   5.855
10013POPC   GL156989  38.499  14.409   6.155
10013POPC   GL256990  38.295  14.390   6.155
10013POPC   C1A56991  38.466  14.427   6.455
10013POPC   D2A56992  38.423  14.377   6.755
10013POPC   C3A56993  38.474  14.445   7.055
10013POPC   C4A56994  38.407  14.415   7.355
10013POPC   C1B56995  38.202  14.334   6.455
10013POPC   C2B56996  38.248  14.256   6.755
10013POPC   C3B56997  38.186  14.277   7.055
10013POPC   C4B56998  38.200  14.328   7.355
10014POPC   NC356999  12.071  40.770   5.555
10014POPC   PO457000  12.057  40.791   5.855
10014POPC   GL157001  12.036  40.800   6.155
10014POPC   GL257002  12.196  40.855   6.155
10014POPC   C1A57003  12.056  40.830   6.455
10014POPC   D2A57004  12.044  40.810   6.755
10014POPC   C3A57005  12.040  40.799   7.055
10014POPC   C4A57006  12.079  40.797   7.355
10014POPC   C1B57007  12.268  40.890   6.455
10014POPC   C2B57008  12.277  40.930   6.755
10014POPC   C3B57009  12.297  40.871   7.055
10014POPC   C4B57010  12.306  40.904   7.355
10015POPC   NC357011  12.116  15.920   5.555
10015POPC   PO457012  12.107  15.971   5.855
10015POPC   GL157013  12.051  15.976   6.155
10015POPC   GL257014  12.103  15.796   6.155
10015POPC   C1A57015  12.066  15.992   6.455
10015POPC   D2A57016  12.043  16.001   6.755
10015POPC   C3A57017  12.084  15.981   7.055
10015POPC   C4A57018  12.097  15.959   7.355
10015POPC   C1B57019  12.068  15.658   6.455
10015POPC   C2B57020  12.030  15.712   6.755
10015POPC   C3B57021  12.065  15.719   7.055
10015POPC   C4B57022  12.043  15.670   7.355
10016POPC   NC357023   3.523  14.389   5.555
10016POPC   PO457024   3.531  14.418   5.855
10016POPC   GL157025   3.505  14.416   6.155
10016POPC   GL257026   3.429  14.371   6.155
10016POPC   C1A57027   3.518  14.375   6.455
10016POPC   D2A57028   3.518  14.429   6.755
10016POPC   C3A57029   3.557  14.429   7.055
10016POPC   C4A57030   3.586  14.425   7.355
10016POPC   C1B57031   3.354  14.279   6.455
10016POPC   C2B57032   3.323  14.252   6.755
10016POPC   C3B57033   3.338  14.205   7.055
10016POPC   C4B57034   3.319  14.270   7.355
10017POPC   NC357035  33.049   3.549   5.555
10017POPC   PO457036  33.018   3.561   5.855
10017POPC   GL157037  33.053   3.587   6.155
10017POPC   GL257038  33.093   3.400   6.155
10017POPC   C1A57039  33.018   3.560   6.455
10017POPC   D2A57040  32.991   3.546   6.755
10017POPC   C3A57041  33.052   3.568   7.055
10017POPC   C4A57042  33.062   3.534   7.355
10017POPC   C1B57043  33.220   3.326   6.455
10017POPC   C2B57044  33.213   3.358   6.755
10017POPC   C3B57045  33.206   3.315   7.055
10017POPC   C4B57046  33.191   3.392   7.355
10018POPC   NC357047  25.298  33.849   5.555
10018POPC   PO457048  25.216  33.799   5.855
10018POPC   GL157049  25.223  33.815   6.155
10018POPC   GL257050  25.364  33.749   6.155
10018POPC   C1A57051  25.242  33.821   6.455
10018POPC   D2A57052  25.286  33.814   6.755
10018POPC   C3A57053  25.278  33.849   7.055
10018POPC   C4A57054  25.271  33.794   7.355
10018POPC   C1B57055  25.382  33.590   6.455
10018POPC   C2B57056  25.467  33.645   6.755
10018POPC   C3B57057  25.462  33.580   7.055
10018POPC   C4B57058  25.401  33.618   7.355
10019POPC   NC357059  15.993  36.868   5.555
10019POPC   PO457060  15.952  36.897   5.855
10019POPC   GL157061  15.967  36.878   6.155
10019POPC   GL257062  16.117  36.907   6.155
10019POPC   C1A57063  15.911  36.937   6.455
10019POPC   D2A57064  15.999  36.934   6.755
10019POPC   C3A57065  15.970  36.894   7.055
10019POPC   C4A57066  15.945  36.917   7.355
10019POPC   C1B57067  16.237  36.829   6.455
10019POPC   C2B57068  16.247  36.839   6.755
10019POPC   C3B57069  16.232  36.820   7.055
10019POPC   C4B57070  16.242  36.866   7.355
10020POPC   NC357071  36.116  14.365   5.555
10020POPC   PO457072  36.119  14.446   5.855
10020POPC   GL157073  36.095  14.409   6.155
10020POPC   GL257074  36.284  14.483   6.155
10020POPC   C1A57075  36.165  14.422   6.455
10020POPC   D2A57076  36.083  14.396   6.755
10020POPC   C3A57077  36.079  14.438   7.055
10020POPC   C4A57078  36.114  14.438   7.355
10020POPC   C1B57079  36.330  14.499   6.455
10020POPC   C2B57080  36.372  14.561   6.755
10020POPC   C3B57081  36.388  14.479   7.055
10020POPC   C4B57082  36.341  14.537   7.355
10021POPC   NC357083  43.134  40.012   5.555
10021POPC   PO457084  43.082  40.021   5.855
10021POPC   GL157085  43.101  40.005   6.155
10021POPC   GL257086  43.152  40.130   6.155
10021POPC   C1A57087  43.127  40.054   6.455
10021POPC   D2A57088  43.150  39.973   6.755
10021POPC   C3A57089  43.100  40.009   7.055
10021POPC   C4A57090  43.142  39.988   7.355
10021POPC   C1B57091  43.182  40.218   6.455
10021POPC   C2B57092  43.119  40.287   6.755
10021POPC   C3B57093  43.113  40.299   7.055
10021POPC   C4B57094  43.168  40.244   7.355
10022POPC   NC357095  29.096   6.660   5.555
10022POPC   PO457096  29.096   6.673   5.855
10022POPC   GL157097  29.106   6.675   6.155
10022POPC   GL257098  29.038   6.659   6.155
10022POPC   C1A57099  29.142   6.636   6.455
10022POPC   D2A57100  29.170   6.686   6.755
10022POPC   C3A57101  29.113   6.656   7.055
10022POPC   C4A57102  29.169   6.622   7.355
10022POPC   C1B57103  28.903   6.584   6.455
10022POPC   C2B57104  28.942   6.646   6.755
10022POPC   C3B57105  28.896   6.607   7.055
10022POPC   C4B57106  28.857   6.644   7.355
10023POPC   NC357107  41.583   5.113   5.555
10023POPC   PO457108  41.601   5.086   5.855
10023POPC   GL157109  41.575   5.097   6.155
10023POPC   GL257110  41.712   5.043   6.155
10023POPC   C1A57111  41.534   5.130   6.455
10023POPC   D2A57112  41.535   5.093   6.755
10023POPC   C3A57113  41.571   5.106   7.055
10023POPC   C4A57114  41.596   5.128   7.355
10023POPC   C1B57115  41.836   5.033   6.455
10023POPC   C2B57116  41.782   4.969   6.755
10023POPC   C3B57117  41.830   5.052   7.055
10023POPC   C4B57118  41.788   4.967   7.355
10024POPC   NC357119   5.887   4.356   5.555
10024POPC   PO457120   5.873   4.328   5.855
10024POPC   GL157121   5.828   4.317   6.155
10024POPC   GL257122   5.759   4.377   6.155
10024POPC   C1A57123   5.901   4.308   6.455
10024POPC   D2A57124   5.826   4.304   6.755
10024POPC   C3A57125   5.879   4.349   7.055
10024POPC   C4A57126   5.858   4.337   7.355
10024POPC   C1B57127   5.629   4.364   6.455
10024POPC   C2B57128   5.609   4.343   6.755
10024POPC   C3B57129   5.606   4.291   7.055
10024POPC   C4B57130   5.602   4.322   7.355
10025POPC   NC357131   0.453  22.939   5.555
10025POPC   PO457132   0.388  22.976   5.855
10025POPC   GL157133   0.411  22.938   6.155
10025POPC   GL257134   0.459  22.840   6.155
10025POPC   C1A57135   0.447  22.902   6.455
10025POPC   D2A57136   0.409  22.987   6.755
10025POPC   C3A57137   0.403  22.957   7.055
10025POPC   C4A57138   0.487  22.955   7.355
10025POPC   C1B57139   0.380  22.720   6.455
10025POPC   C2B57140   0.394  22.715   6.755
10025POPC   C3B57141   0.402  22.654   7.055
10025POPC   C4B57142   0.383  22.687   7.355
10026POPC   NC357143  15.136   7.407   5.555
10026POPC   PO457144  15.167   7.441   5.855
10026POPC   GL157145  15.155   7.423   6.155
10026POPC   GL257146  15.294   7.467   6.155
10026POPC   C1A57147  15.196   7.465   6.455
10026POPC   D2A57148  15.189   7.459   6.755
10026POPC   C3A57149  15.215   7.447   7.055
10026POPC   C4A57150  15.145   7.404   7.355
10026POPC   C1B57151  15.379   7.471   6.455
10026POPC   C2B57152  15.397   7.422   6.755
10026POPC   C3B57153  15.423   7.500   7.055
10026POPC   C4B57154  15.440   7.478   7.355
10027POPC   NC357155  17.501  39.988   5.555
10027POPC   PO457156  17.545  39.986   5.855
10027POPC   GL157157  17.526  40.004   6.155
10027POPC   GL257158  17.550  40.176   6.155
10027POPC   C1A57159  17.462  40.002   6.455
10027POPC   D2A57160  17.511  39.982   6.755
10027POPC   C3A57161  17.526  40.017   7.055
10027POPC   C4A57162  17.490  40.020   7.355
10027POPC   C1B57163  17.570  40.212   6.455
10027POPC   C2B57164  17.548  40.202   6.755
10027POPC   C3B57165  17.540  40.250   7.055
10027POPC   C4B57166  17.526  40.278   7.355
10028POPC   NC357167   1.170  22.120   5.555
10028POPC   PO457168   1.222  22.153   5.855
10028POPC   GL157169   1.208  22.122   6.155
10028POPC   GL257170   1.138  22.254   6.155
10028POPC   C1A57171   1.236  22.134   6.455
10028POPC   D2A57172   1.216  22.178   6.755
10028POPC   C3A57173   1.164  22.203   7.055
10028POPC   C4A57174   1.188  22.142   7.355
10028POPC   C1B57175   1.045  22.347   6.455
10028POPC   C2B57176   1.101  22.324   6.755
10028POPC   C3B57177   1.102  22.363   7.055
10028POPC   C4B57178   1.119  22.402   7.355
10029POPC   NC357179  27.563   5.895   5.555
10029POPC   PO457180  27.619   5.835   5.855
10029POPC   GL157181  27.583   5.873   6.155
10029POPC   GL257182  27.641   5.804   6.155
10029POPC   C1A57183  27.616   5.900   6.455
10029POPC   D2A57184  27.561   5.820   6.755
10029POPC   C3A57185  27.550   5.866   7.055
10029POPC   C4A57186  27.629   5.854   7.355
10029POPC   C1B57187  27.783   5.680   6.455
10029POPC   C2B57188  27.705   5.654   6.755
10029POPC   C3B57189  27.767   5.674   7.055
10029POPC   C4B57190  27.736   5.630   7.355
10030POPC   NC357191  40.748   7.433   5.555
10030POPC   PO457192  40.790   7.420   5.855
10030POPC   GL157193  40.828   7.463   6.155
10030POPC   GL257194  40.827   7.317   6.155
10030POPC   C1A57195  40.784   7.392   6.455
10030POPC   D2A57196  40.809   7.406   6.755
10030POPC   C3A57197  40.826   7.372   7.055
10030POPC   C4A57198  40.793   7.417   7.355
10030POPC   C1B57199  40.798   7.151   6.455
10030POPC   C2B57200  40.856   7.188   6.755
10030POPC   C3B57201  40.792   7.193   7.055
10030POPC   C4B57202  40.873   7.215   7.355
10031POPC   NC357203   5.891  33.829   5.555
10031POPC   PO457204   5.838  33.779   5.855
10031POPC   GL157205   5.847  33.812   6.155
10031POPC   GL257206   5.716  33.844   6.155
10031POPC   C1A57207   5.909  33.822   6.455
10031POPC   D2A57208   5.887  33.769   6.755
10031POPC   C3A57209   5.857  33.846   7.055
10031POPC   C4A57210   5.882  33.762   7.355
10031POPC   C1B57211   5.666  33.877   6.455
10031POPC   C2B57212   5.663  33.829   6.755
10031POPC   C3B57213   5.579  33.859   7.055
10031POPC   C4B57214   5.619  33.849   7.355
10032POPC   NC357215   7.396  10.560   5.555
10032POPC   PO457216   7.374  10.532   5.855
10032POPC   GL157217   7.435  10.564   6.155
10032POPC   GL257218   7.302  10.638   6.155
10032POPC   C1A57219   7.412  10.511   6.455
10032POPC   D2A57220   7.422  10.548   6.755
10032POPC   C3A57221   7.456  10.544   7.055
10032POPC   C4A57222   7.388  10.490   7.355
10032POPC   C1B57223   7.243  10.621   6.455
10032POPC   C2B57224   7.242  10.604   6.755
10032POPC   C3B57225   7.180  10.692   7.055
10032POPC   C4B57226   7.157  10.630   7.355
10033POPC   NC357227  43.920   9.767   5.555
10033POPC   PO457228  43.882   9.779   5.855
10033POPC   GL157229  43.841   9.751   6.155
10033POPC   GL257230  43.894   9.828   6.155
10033POPC   C1A57231  43.859   9.782   6.455
10033POPC   D2A57232  43.919   9.794   6.755
10033POPC   C3A57233  43.906   9.710   7.055
10033POPC   C4A57234  43.922   9.764   7.355
10033POPC   C1B57235  43.879   9.954   6.455
10033POPC   C2B57236  43.854   9.989   6.755
10033POPC   C3B57237  43.934  10.046   7.055
10033POPC   C4B57238  43.907   9.950   7.355
10034POPC   NC357239  26.819  44.622   5.555
10034POPC   PO457240  26.806  44.658   5.855
10034POPC   GL157241  26.781  44.645   6.155
10034POPC   GL257242  26.753  44.620   6.155
10034POPC   C1A57243  26.812  44.689   6.455
10034POPC   D2A57244  26.786  44.643   6.755
10034POPC   C3A57245  26.804  44.655   7.055
10034POPC   C4A57246  26.787  44.625   7.355
10034POPC   C1B57247  26.618  44.450   6.455
10034POPC   C2B57248  26.595  44.449   6.755
10034POPC   C3B57249  26.639  44.523   7.055
10034POPC   C4B57250  26.663  44.467   7.355
10035POPC   NC357251  11.278  42.328   5.555
10035POPC   PO457252  11.303  42.304   5.855
10035POPC   GL157253  11.272  42.359   6.155
10035POPC   GL257254  11.201  42.322   6.155
10035POPC   C1A57255  11.307  42.349   6.455
10035POPC   D2A57256  11.294  42.342   6.755
10035POPC   C3A57257  11.349  42.290   7.055
10035POPC   C4A57258  11.265  42.381   7.355
10035POPC   C1B57259  11.020  42.338   6.455
10035POPC   C2B57260  11.082  42.341   6.755
10035POPC   C3B57261  11.088  42.388   7.055
10035POPC   C4B57262  11.079  42.432   7.355
10036POPC   NC357263  33.812  12.808   5.555
10036POPC   PO457264  33.835  12.831   5.855
10036POPC   GL157265  33.793  12.830   6.155
10036POPC   GL257266  33.868  12.879   6.155
10036POPC   C1A57267  33.814  12.826   6.455
10036POPC   D2A57268  33.754  12.844   6.755
10036POPC   C3A57269  33.831  12.833   7.055
10036POPC   C4A57270  33.757  12.810   7.355
10036POPC   C1B57271  33.982  13.005   6.455
10036POPC   C2B57272  34.015  12.948   6.755
10036POPC   C3B57273  34.027  12.974   7.055
10036POPC   C4B57274  34.026  12.983   7.355
10037POPC   NC357275   1.181  16.708   5.555
10037POPC   PO457276   1.201  16.717   5.855
10037POPC   GL157277   1.174  16.735   6.155
10037POPC   GL257278   1.268  16.631   6.155
10037POPC   C1A57279   1.219  16.686   6.455
10037POPC   D2A57280   1.168  16.732   6.755
10037POPC   C3A57281   1.201  16.769   7.055
10037POPC   C4A57282   1.182  16.692   7.355
10037POPC   C1B57283   1.353  16.539   6.455
10037POPC   C2B57284   1.320  16.496   6.755
10037POPC   C3B57285   1.378  16.507   7.055
10037POPC   C4B57286   1.347  16.468   7.355
10038POPC   NC357287  40.027  39.977   5.555
10038POPC   PO457288  39.966  40.001   5.855
10038POPC   GL157289  39.999  40.021   6.155
10038POPC   GL257290  39.947  39.911   6.155
10038POPC   C1A57291  40.012  40.046   6.455
10038POPC   D2A57292  40.004  40.046   6.755
10038POPC   C3A57293  40.008  40.045   7.055
10038POPC   C4A57294  40.039  40.020   7.355
10038POPC   C1B57295  39.843  39.810   6.455
10038POPC   C2B57296  39.873  39.816   6.755
10038POPC   C3B57297  39.863  39.846   7.055
10038POPC   C4B57298  39.874  39.807   7.355
10039POPC   NC357299  22.976  42.341   5.555
10039POPC   PO457300  22.972  42.301   5.855
10039POPC   GL157301  22.969  42.373   6.155
10039POPC   GL257302  23.021  42.377   6.155
10039POPC   C1A57303  22.953  42.328   6.455
10039POPC   D2A57304  22.957  42.303   6.755
10039POPC   C3A57305  22.910  42.370   7.055
10039POPC   C4A57306  22.950  42.292   7.355
10039POPC   C1B57307  23.179  42.397   6.455
10039POPC   C2B57308  23.197  42.467   6.755
10039POPC   C3B57309  23.147  42.381   7.055
10039POPC   C4B57310  23.203  42.381   7.355
10040POPC   NC357311  41.589  42.311   5.555
10040POPC   PO457312  41.519  42.315   5.855
10040POPC   GL157313  41.591  42.340   6.155
10040POPC   GL257314  41.440  42.395   6.155
10040POPC   C1A57315  41.517  42.338   6.455
10040POPC   D2A57316  41.602  42.334   6.755
10040POPC   C3A57317  41.539  42.321   7.055
10040POPC   C4A57318  41.537  42.320   7.355
10040POPC   C1B57319  41.331  42.433   6.455
10040POPC   C2B57320  41.345  42.372   6.755
10040POPC   C3B57321  41.327  42.396   7.055
10040POPC   C4B57322  41.305  42.412   7.355
10041POPC   NC357323  26.803   2.765   5.555
10041POPC   PO457324  26.854   2.744   5.855
10041POPC   GL157325  26.836   2.736   6.155
10041POPC   GL257326  26.654   2.809   6.155
10041POPC   C1A57327  26.825   2.735   6.455
10041POPC   D2A57328  26.793   2.813   6.755
10041POPC   C3A57329  26.827   2.761   7.055
10041POPC   C4A57330  26.849   2.735   7.355
10041POPC   C1B57331  26.551   2.866   6.455
10041POPC   C2B57332  26.578   2.835   6.755
10041POPC   C3B57333  26.628   2.881   7.055
10041POPC   C4B57334  26.540   2.831   7.355
10042POPC   NC357335  27.561  17.547   5.555
10042POPC   PO457336  27.633  17.461   5.855
10042POPC   GL157337  27.561  17.537   6.155
10042POPC   GL257338  27.453  17.405   6.155
10042POPC   C1A57339  27.617  17.464   6.455
10042POPC   D2A57340  27.582  17.509   6.755
10042POPC   C3A57341  27.559  17.460   7.055
10042POPC   C4A57342  27.635  17.537   7.355
10042POPC   C1B57343  27.357  17.374   6.455
10042POPC   C2B57344  27.405  17.435   6.755
10042POPC   C3B57345  27.388  17.415   7.055
10042POPC   C4B57346  27.394  17.385   7.355
10043POPC   NC357347  36.864  18.272   5.555
10043POPC   PO457348  36.887  18.319   5.855
10043POPC   GL157349  36.901  18.245   6.155
10043POPC   GL257350  36.883  18.445   6.155
10043POPC   C1A57351  36.926  18.264   6.455
10043POPC   D2A57352  36.948  18.241   6.755
10043POPC   C3A57353  36.907  18.255   7.055
10043POPC   C4A57354  36.891  18.239   7.355
10043POPC   C1B57355  36.963  18.556   6.455
10043POPC   C2B57356  36.942  18.565   6.755
10043POPC   C3B57357  36.966  18.580   7.055
10043POPC   C4B57358  36.905  18.499   7.355
10044POPC   NC357359  15.142  26.789   5.555
10044POPC   PO457360  15.181  26.790   5.855
10044POPC   GL157361  15.162  26.826   6.155
10044POPC   GL257362  15.157  26.932   6.155
10044POPC   C1A57363  15.191  26.782   6.455
10044POPC   D2A57364  15.179  26.830   6.755
10044POPC   C3A57365  15.219  26.860   7.055
10044POPC   C4A57366  15.171  26.830   7.355
10044POPC   C1B57367  15.132  27.049   6.455
10044POPC   C2B57368  15.061  27.067   6.755
10044POPC   C3B57369  15.108  27.074   7.055
10044POPC   C4B57370  15.098  27.077   7.355
10045POPC   NC357371  15.977  42.345   5.555
10045POPC   PO457372  15.965  42.312   5.855
10045POPC   GL157373  15.919  42.363   6.155
10045POPC   GL257374  16.043  42.225   6.155
10045POPC   C1A57375  15.915  42.360   6.455
10045POPC   D2A57376  15.975  42.289   6.755
10045POPC   C3A57377  15.908  42.345   7.055
10045POPC   C4A57378  15.967  42.323   7.355
10045POPC   C1B57379  16.030  42.066   6.455
10045POPC   C2B57380  16.099  42.115   6.755
10045POPC   C3B57381  16.027  42.150   7.055
10045POPC   C4B57382  16.083  42.153   7.355
10046POPC   NC357383  20.646   7.375   5.555
10046POPC   PO457384  20.625   7.458   5.855
10046POPC   GL157385  20.618   7.468   6.155
10046POPC   GL257386  20.559   7.544   6.155
10046POPC   C1A57387  20.579   7.387   6.455
10046POPC   D2A57388  20.562   7.435   6.755
10046POPC   C3A57389  20.612   7.465   7.055
10046POPC   C4A57390  20.576   7.424   7.355
10046POPC   C1B57391  20.469   7.663   6.455
10046POPC   C2B57392  20.517   7.618   6.755
10046POPC   C3B57393  20.488   7.620   7.055
10046POPC   C4B57394  20.512   7.583   7.355
10047POPC   NC357395  15.177  32.247   5.555
10047POPC   PO457396  15.174  32.237   5.855
10047POPC   GL157397  15.177  32.215   6.155
10047POPC   GL257398  15.210  32.329   6.155
10047POPC   C1A57399  15.143  32.297   6.455
10047POPC   D2A57400  15.188  32.246   6.755
10047POPC   C3A57401  15.171  32.280   7.055
10047POPC   C4A57402  15.228  32.198   7.355
10047POPC   C1B57403  15.288  32.497   6.455
10047POPC   C2B57404  15.277  32.409   6.755
10047POPC   C3B57405  15.272  32.463   7.055
10047POPC   C4B57406  15.311  32.489   7.355
10048POPC   NC357407  16.697  26.824   5.555
10048POPC   PO457408  16.682  26.865   5.855
10048POPC   GL157409  16.735  26.798   6.155
10048POPC   GL257410  16.883  26.706   6.155
10048POPC   C1A57411  16.684  26.772   6.455
10048POPC   D2A57412  16.704  26.822   6.755
10048POPC   C3A57413  16.691  26.838   7.055
10048POPC   C4A57414  16.687  26.801   7.355
10048POPC   C1B57415  16.911  26.680   6.455
10048POPC   C2B57416  16.932  26.646   6.755
10048POPC   C3B57417  16.933  26.690   7.055
10048POPC   C4B57418  16.926  26.703   7.355
10049POPC   NC357419   8.203  39.190   5.555
10049POPC   PO457420   8.235  39.255   5.855
10049POPC   GL157421   8.173  39.181   6.155
10049POPC   GL257422   8.246  39.367   6.155
10049POPC   C1A57423   8.243  39.194   6.455
10049POPC   D2A57424   8.218  39.222   6.755
10049POPC   C3A57425   8.159  39.263   7.055
10049POPC   C4A57426   8.220  39.197   7.355
10049POPC   C1B57427   8.388  39.390   6.455
10049POPC   C2B57428   8.330  39.458   6.755
10049POPC   C3B57429   8.382  39.432   7.055
10049POPC   C4B57430   8.362  39.457   7.355
10050POPC   NC357431  31.502   4.297   5.555
10050POPC   PO457432  31.514   4.351   5.855
10050POPC   GL157433  31.433   4.312   6.155
10050POPC   GL257434  31.519   4.476   6.155
10050POPC   C1A57435  31.483   4.278   6.455
10050POPC   D2A57436  31.445   4.293   6.755
10050POPC   C3A57437  31.481   4.271   7.055
10050POPC   C4A57438  31.500   4.321   7.355
10050POPC   C1B57439  31.535   4.574   6.455
10050POPC   C2B57440  31.550   4.535   6.755
10050POPC   C3B57441  31.491   4.514   7.055
10050POPC   C4B57442  31.533   4.524   7.355
10051POPC   NC357443   5.097  34.563   5.555
10051POPC   PO457444   5.106  34.563   5.855
10051POPC   GL157445   5.138  34.598   6.155
10051POPC   GL257446   4.954  34.605   6.155
10051POPC   C1A57447   5.093  34.584   6.455
10051POPC   D2A57448   5.083  34.614   6.755
10051POPC   C3A57449   5.104  34.584   7.055
10051POPC   C4A57450   5.045  34.591   7.355
10051POPC   C1B57451   4.805  34.603   6.455
10051POPC   C2B57452   4.861  34.634   6.755
10051POPC   C3B57453   4.821  34.588   7.055
10051POPC   C4B57454   4.889  34.559   7.355
10052POPC   NC357455  18.270  41.573   5.555
10052POPC   PO457456  18.321  41.558   5.855
10052POPC   GL157457  18.295  41.597   6.155
10052POPC   GL257458  18.171  41.452   6.155
10052POPC   C1A57459  18.260  41.513   6.455
10052POPC   D2A57460  18.263  41.548   6.755
10052POPC   C3A57461  18.259  41.601   7.055
10052POPC   C4A57462  18.259  41.571   7.355
10052POPC   C1B57463  18.142  41.335   6.455
10052POPC   C2B57464  18.085  41.425   6.755
10052POPC   C3B57465  18.122  41.431   7.055
10052POPC   C4B57466  18.124  41.340   7.355
10053POPC   NC357467  18.250   0.432   5.555
10053POPC   PO457468  18.329   0.458   5.855
10053POPC   GL157469  18.235   0.423   6.155
10053POPC   GL257470  18.215   0.535   6.155
10053POPC   C1A57471  18.278   0.451   6.455
10053POPC   D2A57472  18.237   0.445   6.755
10053POPC   C3A57473  18.241   0.463   7.055
10053POPC   C4A57474  18.246   0.454   7.355
10053POPC   C1B57475  18.129   0.689   6.455
10053POPC   C2B57476  18.178   0.697   6.755
10053POPC   C3B57477  18.162   0.657   7.055
10053POPC   C4B57478  18.205   0.645   7.355
10054POPC   NC357479  43.062  32.265   5.555
10054POPC   PO457480  43.102  32.294   5.855
10054POPC   GL157481  43.096  32.293   6.155
10054POPC   GL257482  43.041  32.126   6.155
10054POPC   C1A57483  43.123  32.239   6.455
10054POPC   D2A57484  43.134  32.288   6.755
10054POPC   C3A57485  43.121  32.294   7.055
10054POPC   C4A57486  43.092  32.290   7.355
10054POPC   C1B57487  42.986  32.097   6.455
10054POPC   C2B57488  42.944  32.006   6.755
10054POPC   C3B57489  42.949  32.027   7.055
10054POPC   C4B57490  42.984  32.052   7.355
10055POPC   NC357491  28.376   3.497   5.555
10055POPC   PO457492  28.401   3.509   5.855
10055POPC   GL157493  28.334   3.578   6.155
10055POPC   GL257494  28.450   3.576   6.155
10055POPC   C1A57495  28.392   3.534   6.455
10055POPC   D2A57496  28.343   3.536   6.755
10055POPC   C3A57497  28.344   3.508   7.055
10055POPC   C4A57498  28.399   3.505   7.355
10055POPC   C1B57499  28.646   3.570   6.455
10055POPC   C2B57500  28.652   3.508   6.755
10055POPC   C3B57501  28.572   3.549   7.055
10055POPC   C4B57502  28.650   3.487   7.355
10056POPC   NC357503  34.579  19.864   5.555
10056POPC   PO457504  34.617  19.803   5.855
10056POPC   GL157505  34.561  19.855   6.155
10056POPC   GL257506  34.558  19.687   6.155
10056POPC   C1A57507  34.528  19.852   6.455
10056POPC   D2A57508  34.539  19.788   6.755
10056POPC   C3A57509  34.549  19.802   7.055
10056POPC   C4A57510  34.572  19.868   7.355
10056POPC   C1B57511  34.486  19.599   6.455
10056POPC   C2B57512  34.442  19.583   6.755
10056POPC   C3B57513  34.420  19.585   7.055
10056POPC   C4B57514  34.468  19.634   7.355
10057POPC   NC357515   2.729  36.109   5.555
10057POPC   PO457516   2.751  36.093   5.855
10057POPC   GL157517   2.781  36.168   6.155
10057POPC   GL257518   2.914  36.079   6.155
10057POPC   C1A57519   2.813  36.104   6.455
10057POPC   D2A57520   2.744  36.143   6.755
10057POPC   C3A57521   2.726  36.174   7.055
10057POPC   C4A57522   2.779  36.172   7.355
10057POPC   C1B57523   3.012  36.067   6.455
10057POPC   C2B57524   2.996  36.083   6.755
10057POPC   C3B57525   2.964  36.101   7.055
10057POPC   C4B57526   2.969  36.109   7.355
10058POPC   NC357527   5.104   1.204   5.555
10058POPC   PO457528   5.121   1.233   5.855
10058POPC   GL157529   5.105   1.210   6.155
10058POPC   GL257530   5.042   1.356   6.155
10058POPC   C1A57531   5.087   1.172   6.455
10058POPC   D2A57532   5.044   1.228   6.755
10058POPC   C3A57533   5.067   1.192   7.055
10058POPC   C4A57534   5.077   1.204   7.355
10058POPC   C1B57535   4.923   1.387   6.455
10058POPC   C2B57536   4.975   1.394   6.755
10058POPC   C3B57537   4.916   1.394   7.055
10058POPC   C4B57538   4.932   1.417   7.355
10059POPC   NC357539  16.762  29.181   5.555
10059POPC   PO457540  16.712  29.126   5.855
10059POPC   GL157541  16.779  29.131   6.155
10059POPC   GL257542  16.619  29.266   6.155
10059POPC   C1A57543  16.727  29.181   6.455
10059POPC   D2A57544  16.767  29.105   6.755
10059POPC   C3A57545  16.696  29.108   7.055
10059POPC   C4A57546  16.705  29.169   7.355
10059POPC   C1B57547  16.594  29.389   6.455
10059POPC   C2B57548  16.591  29.369   6.755
10059POPC   C3B57549  16.528  29.352   7.055
10059POPC   C4B57550  16.572  29.382   7.355
10060POPC   NC357551   2.716  32.982   5.555
10060POPC   PO457552   2.807  33.062   5.855
10060POPC   GL157553   2.799  33.057   6.155
10060POPC   GL257554   2.788  32.942   6.155
10060POPC   C1A57555   2.723  33.041   6.455
10060POPC   D2A57556   2.792  32.985   6.755
10060POPC   C3A57557   2.756  33.005   7.055
10060POPC   C4A57558   2.815  33.037   7.355
10060POPC   C1B57559   2.692  32.821   6.455
10060POPC   C2B57560   2.678  32.793   6.755
10060POPC   C3B57561   2.715  32.820   7.055
10060POPC   C4B57562   2.710  32.742   7.355
10061POPC   NC357563  13.665   1.234   5.555
10061POPC   PO457564  13.634   1.229   5.855
10061POPC   GL157565  13.634   1.252   6.155
10061POPC   GL257566  13.472   1.181   6.155
10061POPC   C1A57567  13.609   1.243   6.455
10061POPC   D2A57568  13.583   1.185   6.755
10061POPC   C3A57569  13.659   1.176   7.055
10061POPC   C4A57570  13.610   1.261   7.355
10061POPC   C1B57571  13.340   1.198   6.455
10061POPC   C2B57572  13.345   1.260   6.755
10061POPC   C3B57573  13.410   1.251   7.055
10061POPC   C4B57574  13.357   1.281   7.355
10062POPC   NC357575  31.431  26.796   5.555
10062POPC   PO457576  31.478  26.841   5.855
10062POPC   GL157577  31.464  26.776   6.155
10062POPC   GL257578  31.313  26.904   6.155
10062POPC   C1A57579  31.468  26.836   6.455
10062POPC   D2A57580  31.425  26.831   6.755
10062POPC   C3A57581  31.499  26.810   7.055
10062POPC   C4A57582  31.449  26.804   7.355
10062POPC   C1B57583  31.287  26.948   6.455
10062POPC   C2B57584  31.229  26.951   6.755
10062POPC   C3B57585  31.281  26.932   7.055
10062POPC   C4B57586  31.238  26.966   7.355
10063POPC   NC357587  24.502   1.187   5.555
10063POPC   PO457588  24.538   1.253   5.855
10063POPC   GL157589  24.461   1.229   6.155
10063POPC   GL257590  24.409   1.175   6.155
10063POPC   C1A57591  24.523   1.200   6.455
10063POPC   D2A57592  24.535   1.190   6.755
10063POPC   C3A57593  24.478   1.263   7.055
10063POPC   C4A57594  24.540   1.234   7.355
10063POPC   C1B57595  24.297   1.089   6.455
10063POPC   C2B57596  24.224   1.134   6.755
10063POPC   C3B57597  24.295   1.135   7.055
10063POPC   C4B57598  24.290   1.075   7.355
10064POPC   NC357599  43.113  12.875   5.555
10064POPC   PO457600  43.147  12.811   5.855
10064POPC   GL157601  43.111  12.827   6.155
10064POPC   GL257602  43.054  12.744   6.155
10064POPC   C1A57603  43.070  12.876   6.455
10064POPC   D2A57604  43.113  12.853   6.755
10064POPC   C3A57605  43.146  12.864   7.055
10064POPC   C4A57606  43.154  12.896   7.355
10064POPC   C1B57607  42.939  12.663   6.455
10064POPC   C2B57608  42.936  12.607   6.755
10064POPC   C3B57609  42.982  12.679   7.055
10064POPC   C4B57610  42.964  12.672   7.355
10065POPC   NC357611  12.853  41.555   5.555
10065POPC   PO457612  12.802  41.540   5.855
10065POPC   GL157613  12.832  41.574   6.155
10065POPC   GL257614  12.767  41.697   6.155
10065POPC   C1A57615  12.871  41.541   6.455
10065POPC   D2A57616  12.886  41.557   6.755
10065POPC   C3A57617  12.824  41.529   7.055
10065POPC   C4A57618  12.889  41.607   7.355
10065POPC   C1B57619  12.802  41.778   6.455
10065POPC   C2B57620  12.798  41.794   6.755
10065POPC   C3B57621  12.789  41.754   7.055
10065POPC   C4B57622  12.723  41.832   7.355
10066POPC   NC357623  22.195  13.642   5.555
10066POPC   PO457624  22.112  13.611   5.855
10066POPC   GL157625  22.201  13.613   6.155
10066POPC   GL257626  22.210  13.790   6.155
10066POPC   C1A57627  22.207  13.585   6.455
10066POPC   D2A57628  22.210  13.635   6.755
10066POPC   C3A57629  22.113  13.588   7.055
10066POPC   C4A57630  22.134  13.637   7.355
10066POPC   C1B57631  22.195  13.858   6.455
10066POPC   C2B57632  22.216  13.839   6.755
10066POPC   C3B57633  22.232  13.828   7.055
10066POPC   C4B57634  22.225  13.833   7.355
10067POPC   NC357635  33.764  43.074   5.555
10067POPC   PO457636  33.756  43.114   5.855
10067POPC   GL157637  33.796  43.105   6.155
10067POPC   GL257638  33.884  43.209   6.155
10067POPC   C1A57639  33.827  43.061   6.455
10067POPC   D2A57640  33.830  43.087   6.755
10067POPC   C3A57641  33.837  43.142   7.055
10067POPC   C4A57642  33.761  43.119   7.355
10067POPC   C1B57643  34.046  43.220   6.455
10067POPC   C2B57644  34.033  43.256   6.755
10067POPC   C3B57645  33.978  43.193   7.055
10067POPC   C4B57646  34.033  43.195   7.355
10068POPC   NC357647   8.200   9.710   5.555
10068POPC   PO457648   8.223   9.756   5.855
10068POPC   GL157649   8.244   9.700   6.155
10068POPC   GL257650   8.118   9.643   6.155
10068POPC   C1A57651   8.161   9.711   6.455
10068POPC   D2A57652   8.151   9.730   6.755
10068POPC   C3A57653   8.246   9.699   7.055
10068POPC   C4A57654   8.163   9.789   7.355
10068POPC   C1B57655   8.059   9.494   6.455
10068POPC   C2B57656   8.099   9.494   6.755
10068POPC   C3B57657   8.118   9.554   7.055
10068POPC   C4B57658   8.121   9.518   7.355
10069POPC   NC357659   0.446  29.891   5.555
10069POPC   PO457660   0.416  29.896   5.855
10069POPC   GL157661   0.399  29.887   6.155
10069POPC   GL257662   0.357  29.829   6.155
10069POPC   C1A57663   0.471  29.913   6.455
10069POPC   D2A57664   0.392  29.898   6.755
10069POPC   C3A57665   0.420  29.965   7.055
10069POPC   C4A57666   0.440  29.908   7.355
10069POPC   C1B57667   0.243  29.850   6.455
10069POPC   C2B57668   0.241  29.864   6.755
10069POPC   C3B57669   0.180  29.873   7.055
10069POPC   C4B57670   0.231  29.806   7.355
10070POPC   NC357671  41.544  15.981   5.555
10070POPC   PO457672  41.595  15.976   5.855
10070POPC   GL157673  41.510  15.935   6.155
10070POPC   GL257674  41.498  16.042   6.155
10070POPC   C1A57675  41.565  15.927   6.455
10070POPC   D2A57676  41.538  15.915   6.755
10070POPC   C3A57677  41.546  15.921   7.055
10070POPC   C4A57678  41.545  15.960   7.355
10070POPC   C1B57679  41.457  16.216   6.455
10070POPC   C2B57680  41.406  16.145   6.755
10070POPC   C3B57681  41.394  16.167   7.055
10070POPC   C4B57682  41.394  16.219   7.355
10071POPC   NC357683  12.868  43.866   5.555
10071POPC   PO457684  12.866  43.919   5.855
10071POPC   GL157685  12.867  43.885   6.155
10071POPC   GL257686  12.742  43.858   6.155
10071POPC   C1A57687  12.887  43.888   6.455
10071POPC   D2A57688  12.895  43.930   6.755
10071POPC   C3A57689  12.881  43.873   7.055
10071POPC   C4A57690  12.838  43.842   7.355
10071POPC   C1B57691  12.606  43.704   6.455
10071POPC   C2B57692  12.596  43.730   6.755
10071POPC   C3B57693  12.632  43.717   7.055
10071POPC   C4B57694  12.654  43.708   7.355
10072POPC   NC357695  32.205  26.847   5.555
10072POPC   PO457696  32.205  26.837   5.855
10072POPC   GL157697  32.254  26.799   6.155
10072POPC   GL257698  32.340  26.855   6.155
10072POPC   C1A57699  32.273  26.773   6.455
10072POPC   D2A57700  32.282  26.832   6.755
10072POPC   C3A57701  32.223  26.809   7.055
10072POPC   C4A57702  32.297  26.854   7.355
10072POPC   C1B57703  32.508  26.938   6.455
10072POPC   C2B57704  32.523  26.885   6.755
10072POPC   C3B57705  32.489  26.888   7.055
10072POPC   C4B57706  32.485  26.868   7.355
10073POPC   NC357707  38.414  25.244   5.555
10073POPC   PO457708  38.467  25.251   5.855
10073POPC   GL157709  38.491  25.222   6.155
10073POPC   GL257710  38.458  25.433   6.155
10073POPC   C1A57711  38.450  25.305   6.455
10073POPC   D2A57712  38.471  25.266   6.755
10073POPC   C3A57713  38.423  25.224   7.055
10073POPC   C4A57714  38.457  25.297   7.355
10073POPC   C1B57715  38.446  25.500   6.455
10073POPC   C2B57716  38.415  25.508   6.755
10073POPC   C3B57717  38.482  25.489   7.055
10073POPC   C4B57718  38.395  25.472   7.355
10074POPC   NC357719  24.518  15.931   5.555
10074POPC   PO457720  24.472  15.941   5.855
10074POPC   GL157721  24.516  16.001   6.155
10074POPC   GL257722  24.534  15.858   6.155
10074POPC   C1A57723  24.514  15.910   6.455
10074POPC   D2A57724  24.497  15.912   6.755
10074POPC   C3A57725  24.499  15.999   7.055
10074POPC   C4A57726  24.440  15.958   7.355
10074POPC   C1B57727  24.695  15.753   6.455
10074POPC   C2B57728  24.607  15.803   6.755
10074POPC   C3B57729  24.656  15.802   7.055
10074POPC   C4B57730  24.613  15.764   7.355
10075POPC   NC357731   3.526  38.495   5.555
10075POPC   PO457732   3.570  38.425   5.855
10075POPC   GL157733   3.585  38.500   6.155
10075POPC   GL257734   3.686  38.477   6.155
10075POPC   C1A57735   3.513  38.470   6.455
10075POPC   D2A57736   3.559  38.503   6.755
10075POPC   C3A57737   3.526  38.428   7.055
10075POPC   C4A57738   3.565  38.499   7.355
10075POPC   C1B57739   3.784  38.608   6.455
10075POPC   C2B57740   3.733  38.585   6.755
10075POPC   C3B57741   3.791  38.565   7.055
10075POPC   C4B57742   3.774  38.575   7.355
10076POPC   NC357743  30.662  26.776   5.555
10076POPC   PO457744  30.676  26.802   5.855
10076POPC   GL157745  30.713  26.774   6.155
10076POPC   GL257746  30.630  26.749   6.155
10076POPC   C1A57747  30.692  26.775   6.455
10076POPC   D2A57748  30.688  26.860   6.755
10076POPC   C3A57749  30.720  26.839   7.055
10076POPC   C4A57750  30.737  26.829   7.355
10076POPC   C1B57751  30.461  26.704   6.455
10076POPC   C2B57752  30.521  26.658   6.755
10076POPC   C3B57753  30.488  26.729   7.055
10076POPC   C4B57754  30.486  26.687   7.355
10077POPC   NC357755  40.764  32.208   5.555
10077POPC   PO457756  40.774  32.283   5.855
10077POPC   GL157757  40.829  32.296   6.155
10077POPC   GL257758  40.938  32.165   6.155
10077POPC   C1A57759  40.793  32.248   6.455
10077POPC   D2A57760  40.760  32.250   6.755
10077POPC   C3A57761  40.752  32.220   7.055
10077POPC   C4A57762  40.788  32.217   7.355
10077POPC   C1B57763  41.045  32.132   6.455
10077POPC   C2B57764  41.023  32.185   6.755
10077POPC   C3B57765  41.010  32.159   7.055
10077POPC   C4B57766  41.049  32.162   7.355
10078POPC   NC357767  28.321  26.059   5.555
10078POPC   PO457768  28.354  26.043   5.855
10078POPC   GL157769  28.329  26.016   6.155
10078POPC   GL257770  28.498  26.088   6.155
10078POPC   C1A57771  28.382  26.008   6.455
10078POPC   D2A57772  28.399  26.053   6.755
10078POPC   C3A57773  28.396  26.059   7.055
10078POPC   C4A57774  28.328  26.062   7.355
10078POPC   C1B57775  28.564  26.267   6.455
10078POPC   C2B57776  28.504  26.196   6.755
10078POPC   C3B57777  28.575  26.251   7.055
10078POPC   C4B57778  28.508  26.245   7.355
10079POPC   NC357779   4.340  15.159   5.555
10079POPC   PO457780   4.268  15.153   5.855
10079POPC   GL157781   4.339  15.193   6.155
10079POPC   GL257782   4.226  15.253   6.155
10079POPC   C1A57783   4.301  15.145   6.455
10079POPC   D2A57784   4.317  15.217   6.755
10079POPC   C3A57785   4.274  15.176   7.055
10079POPC   C4A57786   4.348  15.187   7.355
10079POPC   C1B57787   4.126  15.283   6.455
10079POPC   C2B57788   4.149  15.337   6.755
10079POPC   C3B57789   4.090  15.314   7.055
10079POPC   C4B57790   4.124  15.309   7.355
10080POPC   NC357791   4.314  26.084   5.555
10080POPC   PO457792   4.322  26.081   5.855
10080POPC   GL157793   4.314  26.023   6.155
10080POPC   GL257794   4.390  26.171   6.155
10080POPC   C1A57795   4.293  26.025   6.455
10080POPC   D2A57796   4.269  25.996   6.755
10080POPC   C3A57797   4.312  26.023   7.055
10080POPC   C4A57798   4.356  26.065   7.355
10080POPC   C1B57799   4.522  26.156   6.455
10080POPC   C2B57800   4.550  26.251   6.755
10080POPC   C3B57801   4.548  26.169   7.055
10080POPC   C4B57802   4.485  26.213   7.355
10081POPC   NC357803  19.846  16.681   5.555
10081POPC   PO457804  19.836  16.755   5.855
10081POPC   GL157805  19.884  16.764   6.155
10081POPC   GL257806  19.704  16.637   6.155
10081POPC   C1A57807  19.818  16.685   6.455
10081POPC   D2A57808  19.790  16.773   6.755
10081POPC   C3A57809  19.814  16.740   7.055
10081POPC   C4A57810  19.837  16.719   7.355
10081POPC   C1B57811  19.574  16.638   6.455
10081POPC   C2B57812  19.570  16.620   6.755
10081POPC   C3B57813  19.626  16.628   7.055
10081POPC   C4B57814  19.567  16.598   7.355
10082POPC   NC357815   4.283  15.935   5.555
10082POPC   PO457816   4.333  15.971   5.855
10082POPC   GL157817   4.338  15.957   6.155
10082POPC   GL257818   4.276  15.883   6.155
10082POPC   C1A57819   4.345  15.937   6.455
10082POPC   D2A57820   4.342  15.928   6.755
10082POPC   C3A57821   4.360  16.005   7.055
10082POPC   C4A57822   4.298  15.919   7.355
10082POPC   C1B57823   4.207  15.783   6.455
10082POPC   C2B57824   4.210  15.758   6.755
10082POPC   C3B57825   4.200  15.757   7.055
10082POPC   C4B57826   4.187  15.775   7.355
10083POPC   NC357827  44.689  34.623   5.555
10083POPC   PO457828  44.630  34.543   5.855
10083POPC   GL157829  44.711  34.625   6.155
10083POPC   GL257830  44.561  34.669   6.155
10083POPC   C1A57831  44.616  34.556   6.455
10083POPC   D2A57832  44.676  34.572   6.755
10083POPC   C3A57833  44.657  34.619   7.055
10083POPC   C4A57834  44.624  34.589   7.355
10083POPC   C1B57835  44.445  34.774   6.455
10083POPC   C2B57836  44.459  34.800   6.755
10083POPC   C3B57837  44.533  34.748   7.055
10083POPC   C4B57838  44.517  34.775   7.355
10084POPC   NC357839  19.039  31.488   5.555
10084POPC   PO457840  19.083  31.491   5.855
10084POPC   GL157841  19.031  31.509   6.155
10084POPC   GL257842  19.203  31.448   6.155
10084POPC   C1A57843  19.012  31.438   6.455
10084POPC   D2A57844  19.088  31.460   6.755
10084POPC   C3A57845  19.077  31.485   7.055
10084POPC   C4A57846  19.033  31.457   7.355
10084POPC   C1B57847  19.324  31.340   6.455
10084POPC   C2B57848  19.276  31.404   6.755
10084POPC   C3B57849  19.317  31.407   7.055
10084POPC   C4B57850  19.282  31.349   7.355
10085POPC   NC357851  20.625   9.792   5.555
10085POPC   PO457852  20.646   9.738   5.855
10085POPC   GL157853  20.600   9.776   6.155
10085POPC   GL257854  20.708   9.819   6.155
10085POPC   C1A57855  20.580   9.780   6.455
10085POPC   D2A57856  20.598   9.772   6.755
10085POPC   C3A57857  20.650   9.752   7.055
10085POPC   C4A57858  20.595   9.731   7.355
10085POPC   C1B57859  20.802   9.820   6.455
10085POPC   C2B57860  20.786   9.870   6.755
10085POPC   C3B57861  20.788   9.880   7.055
10085POPC   C4B57862  20.858   9.861   7.355
10086POPC   NC357863  35.352  22.211   5.555
10086POPC   PO457864  35.347  22.192   5.855
10086POPC   GL157865  35.360  22.147   6.155
10086POPC   GL257866  35.494  22.165   6.155
10086POPC   C1A57867  35.306  22.118   6.455
10086POPC   D2A57868  35.367  22.138   6.755
10086POPC   C3A57869  35.367  22.133   7.055
10086POPC   C4A57870  35.344  22.148   7.355
10086POPC   C1B57871  35.592  22.235   6.455
10086POPC   C2B57872  35.629  22.268   6.755
10086POPC   C3B57873  35.594  22.274   7.055
10086POPC   C4B57874  35.629  22.249   7.355
10087POPC   NC357875  25.304  18.312   5.555
10087POPC   PO457876  25.232  18.255   5.855
10087POPC   GL157877  25.307  18.253   6.155
10087POPC   GL257878  25.166  18.361   6.155
10087POPC   C1A57879  25.265  18.316   6.455
10087POPC   D2A57880  25.313  18.280   6.755
10087POPC   C3A57881  25.278  18.233   7.055
10087POPC   C4A57882  25.304  18.326   7.355
10087POPC   C1B57883  25.065  18.429   6.455
10087POPC   C2B57884  25.062  18.439   6.755
10087POPC   C3B57885  25.128  18.435   7.055
10087POPC   C4B57886  25.142  18.440   7.355
10088POPC   NC357887  34.582   1.196   5.555
10088POPC   PO457888  34.625   1.248   5.855
10088POPC   GL157889  34.600   1.200   6.155
10088POPC   GL257890  34.706   1.183   6.155
10088POPC   C1A57891  34.621   1.250   6.455
10088POPC   D2A57892  34.553   1.166   6.755
10088POPC   C3A57893  34.580   1.258   7.055
10088POPC   C4A57894  34.551   1.166   7.355
10088POPC   C1B57895  34.813   1.159   6.455
10088POPC   C2B57896  34.868   1.188   6.755
10088POPC   C3B57897  34.784   1.162   7.055
10088POPC   C4B57898  34.864   1.162   7.355
10089POPC   NC357899  36.138  21.347   5.555
10089POPC   PO457900  36.147  21.347   5.855
10089POPC   GL157901  36.151  21.392   6.155
10089POPC   GL257902  36.164  21.525   6.155
10089POPC   C1A57903  36.086  21.384   6.455
10089POPC   D2A57904  36.122  21.364   6.755
10089POPC   C3A57905  36.137  21.398   7.055
10089POPC   C4A57906  36.172  21.419   7.355
10089POPC   C1B57907  36.066  21.652   6.455
10089POPC   C2B57908  36.060  21.588   6.755
10089POPC   C3B57909  36.075  21.615   7.055
10089POPC   C4B57910  36.131  21.669   7.355
10090POPC   NC357911  22.120  27.569   5.555
10090POPC   PO457912  22.141  27.627   5.855
10090POPC   GL157913  22.155  27.600   6.155
10090POPC   GL257914  22.065  27.649   6.155
10090POPC   C1A57915  22.134  27.632   6.455
10090POPC   D2A57916  22.154  27.577   6.755
10090POPC   C3A57917  22.130  27.586   7.055
10090POPC   C4A57918  22.151  27.610   7.355
10090POPC   C1B57919  21.889  27.606   6.455
10090POPC   C2B57920  21.872  27.581   6.755
10090POPC   C3B57921  21.869  27.648   7.055
10090POPC   C4B57922  21.961  27.575   7.355
10091POPC   NC357923   1.212  11.289   5.555
10091POPC   PO457924   1.215  11.283   5.855
10091POPC   GL157925   1.256  11.346   6.155
10091POPC   GL257926   1.318  11.390   6.155
10091POPC   C1A57927   1.214  11.334   6.455
10091POPC   D2A57928   1.222  11.331   6.755
10091POPC   C3A57929   1.239  11.287   7.055
10091POPC   C4A57930   1.176  11.273   7.355
10091POPC   C1B57931   1.454  11.395   6.455
10091POPC   C2B57932   1.444  11.446   6.755
10091POPC   C3B57933   1.410  11.451   7.055
10091POPC   C4B57934   1.433  11.463   7.355
10092POPC   NC357935  15.949  22.932   5.555
10092POPC   PO457936  15.949  22.960   5.855
10092POPC   GL157937  15.986  22.952   6.155
10092POPC   GL257938  16.022  23.068   6.155
10092POPC   C1A57939  15.988  22.948   6.455
10092POPC   D2A57940  15.975  22.982   6.755
10092POPC   C3A57941  15.934  22.922   7.055
10092POPC   C4A57942  15.953  22.894   7.355
10092POPC   C1B57943  16.090  23.140   6.455
10092POPC   C2B57944  16.111  23.135   6.755
10092POPC   C3B57945  16.129  23.143   7.055
10092POPC   C4B57946  16.121  23.085   7.355
10093POPC   NC357947   2.026  29.966   5.555
10093POPC   PO457948   1.958  29.946   5.855
10093POPC   GL157949   1.988  29.949   6.155
10093POPC   GL257950   1.920  30.060   6.155
10093POPC   C1A57951   1.968  29.914   6.455
10093POPC   D2A57952   2.019  29.924   6.755
10093POPC   C3A57953   2.012  29.879   7.055
10093POPC   C4A57954   2.003  29.946   7.355
10093POPC   C1B57955   1.871  30.141   6.455
10093POPC   C2B57956   1.788  30.102   6.755
10093POPC   C3B57957   1.874  30.109   7.055
10093POPC   C4B57958   1.875  30.128   7.355
10094POPC   NC357959  25.224  28.382   5.555
10094POPC   PO457960  25.305  28.333   5.855
10094POPC   GL157961  25.264  28.358   6.155
10094POPC   GL257962  25.140  28.332   6.155
10094POPC   C1A57963  25.216  28.327   6.455
10094POPC   D2A57964  25.231  28.367   6.755
10094POPC   C3A57965  25.298  28.357   7.055
10094POPC   C4A57966  25.241  28.363   7.355
10094POPC   C1B57967  25.000  28.344   6.455
10094POPC   C2B57968  24.997  28.290   6.755
10094POPC   C3B57969  24.975  28.354   7.055
10094POPC   C4B57970  24.971  28.316   7.355
10095POPC   NC357971   4.339  39.983   5.555
10095POPC   PO457972   4.320  39.970   5.855
10095POPC   GL157973   4.311  40.031   6.155
10095POPC   GL257974   4.303  40.104   6.155
10095POPC   C1A57975   4.277  40.017   6.455
10095POPC   D2A57976   4.323  39.997   6.755
10095POPC   C3A57977   4.334  39.968   7.055
10095POPC   C4A57978   4.335  40.039   7.355
10095POPC   C1B57979   4.246  40.251   6.455
10095POPC   C2B57980   4.221  40.274   6.755
10095POPC   C3B57981   4.299  40.288   7.055
10095POPC   C4B57982   4.260  40.241   7.355
10096POPC   NC357983  44.650   8.956   5.555
10096POPC   PO457984  44.673   8.983   5.855
10096POPC   GL157985  44.654   8.993   6.155
10096POPC   GL257986  44.644   9.138   6.155
10096POPC   C1A57987  44.689   8.940   6.455
10096POPC   D2A57988  44.620   9.009   6.755
10096POPC   C3A57989  44.622   8.923   7.055
10096POPC   C4A57990  44.687   9.005   7.355
10096POPC   C1B57991  44.682   9.191   6.455
10096POPC   C2B57992  44.596   9.213   6.755
10096POPC   C3B57993  44.593   9.175   7.055
10096POPC   C4B57994  44.667   9.175   7.355
10097POPC   NC357995  11.281  17.495   5.555
10097POPC   PO457996  11.290  17.476   5.855
10097POPC   GL157997  11.338  17.459   6.155
10097POPC   GL257998  11.341  17.641   6.155
10097POPC   C1A57999  11.262  17.472   6.455
10097POPC   D2A58000  11.257  17.485   6.755
10097POPC   C3A58001  11.274  17.482   7.055
10097POPC   C4A58002  11.265  17.480   7.355
10097POPC   C1B58003  11.429  17.702   6.455
10097POPC   C2B58004  11.421  17.758   6.755
10097POPC   C3B58005  11.476  17.667   7.055
10097POPC   C4B58006  11.483  17.710   7.355
10098POPC   NC358007   0.425  31.480   5.555
10098POPC   PO458008   0.408  31.459   5.855
10098POPC   GL158009   0.450  31.483   6.155
10098POPC   GL258010   0.344  31.562   6.155
10098POPC   C1A58011   0.411  31.459   6.455
10098POPC   D2A58012   0.453  31.517   6.755
10098POPC   C3A58013   0.464  31.424   7.055
10098POPC   C4A58014   0.435  31.497   7.355
10098POPC   C1B58015   0.316  31.671   6.455
10098POPC   C2B58016   0.320  31.733   6.755
10098POPC   C3B58017   0.389  31.673   7.055
10098POPC   C4B58018   0.313  31.660   7.355
10099POPC   NC358019  44.650  25.259   5.555
10099POPC   PO458020  44.651  25.253   5.855
10099POPC   GL158021  44.635  25.262   6.155
10099POPC   GL258022  44.711  25.126   6.155
10099POPC   C1A58023  44.665  25.236   6.455
10099POPC   D2A58024  44.641  25.244   6.755
10099POPC   C3A58025  44.684  25.229   7.055
10099POPC   C4A58026  44.620  25.314   7.355
10099POPC   C1B58027  44.851  25.054   6.455
10099POPC   C2B58028  44.850  25.074   6.755
10099POPC   C3B58029  44.808  25.081   7.055
10099POPC   C4B58030  44.810  25.102   7.355
10100POPC   NC358031  29.191  30.709   5.555
10100POPC   PO458032  29.177  30.651   5.855
10100POPC   GL158033  29.156  30.657   6.155
10100POPC   GL258034  29.032  30.653   6.155
10100POPC   C1A58035  29.121  30.735   6.455
10100POPC   D2A58036  29.186  30.697   6.755
10100POPC   C3A58037  29.174  30.709   7.055
10100POPC   C4A58038  29.101  30.706   7.355
10100POPC   C1B58039  28.919  30.582   6.455
10100POPC   C2B58040  28.911  30.533   6.755
10100POPC   C3B58041  28.934  30.541   7.055
10100POPC   C4B58042  28.932  30.573   7.355
10101POPC   NC358043  23.676  44.680   5.555
10101POPC   PO458044  23.726  44.682   5.855
10101POPC   GL158045  23.686  44.668   6.155
10101POPC   GL258046  23.602  44.684   6.155
10101POPC   C1A58047  23.741  44.701   6.455
10101POPC   D2A58048  23.710  44.695   6.755
10101POPC   C3A58049  23.740  44.615   7.055
10101POPC   C4A58050  23.761  44.690   7.355
10101POPC   C1B58051  23.489  44.759   6.455
10101POPC   C2B58052  23.448  44.774   6.755
10101POPC   C3B58053  23.495  44.780   7.055
10101POPC   C4B58054  23.480  44.790   7.355
10102POPC   NC358055  32.266  12.861   5.555
10102POPC   PO458056  32.255  12.806   5.855
10102POPC   GL158057  32.204  12.890   6.155
10102POPC   GL258058  32.262  12.942   6.155
10102POPC   C1A58059  32.267  12.897   6.455
10102POPC   D2A58060  32.200  12.878   6.755
10102POPC   C3A58061  32.200  12.845   7.055
10102POPC   C4A58062  32.279  12.898   7.355
10102POPC   C1B58063  32.167  13.097   6.455
10102POPC   C2B58064  32.262  13.062   6.755
10102POPC   C3B58065  32.218  13.103   7.055
10102POPC   C4B58066  32.167  13.148   7.355
10103POPC   NC358067  29.963  18.289   5.555
10103POPC   PO458068  29.914  18.293   5.855
10103POPC   GL158069  29.897  18.291   6.155
10103POPC   GL258070  29.997  18.397   6.155
10103POPC   C1A58071  29.962  18.244   6.455
10103POPC   D2A58072  29.908  18.252   6.755
10103POPC   C3A58073  29.899  18.254   7.055
10103POPC   C4A58074  29.968  18.253   7.355
10103POPC   C1B58075  30.141  18.470   6.455
10103POPC   C2B58076  30.094  18.446   6.755
10103POPC   C3B58077  30.130  18.412   7.055
10103POPC   C4B58078  30.088  18.463   7.355
10104POPC   NC358079  36.946  41.518   5.555
10104POPC   PO458080  36.860  41.527   5.855
10104POPC   GL158081  36.909  41.510   6.155
10104POPC   GL258082  36.958  41.676   6.155
10104POPC   C1A58083  36.907  41.526   6.455
10104POPC   D2A58084  36.885  41.557   6.755
10104POPC   C3A58085  36.927  41.526   7.055
10104POPC   C4A58086  36.928  41.600   7.355
10104POPC   C1B58087  37.115  41.740   6.455
10104POPC   C2B58088  37.126  41.729   6.755
10104POPC   C3B58089  37.137  41.733   7.055
10104POPC   C4B58090  37.135  41.745   7.355
10105POPC   NC358091  10.521  22.920   5.555
10105POPC   PO458092  10.485  22.938   5.855
10105POPC   GL158093  10.544  22.943   6.155
10105POPC   GL258094  10.534  23.058   6.155
10105POPC   C1A58095  10.556  22.987   6.455
10105POPC   D2A58096  10.512  22.963   6.755
10105POPC   C3A58097  10.536  22.919   7.055
10105POPC   C4A58098  10.530  22.986   7.355
10105POPC   C1B58099  10.563  23.166   6.455
10105POPC   C2B58100  10.536  23.177   6.755
10105POPC   C3B58101  10.554  23.155   7.055
10105POPC   C4B58102  10.596  23.209   7.355
10106POPC   NC358103  43.891  26.042   5.555
10106POPC   PO458104  43.913  26.070   5.855
10106POPC   GL158105  43.852  26.039   6.155
10106POPC   GL258106  43.803  26.010   6.155
10106POPC   C1A58107  43.880  26.012   6.455
10106POPC   D2A58108  43.857  26.091   6.755
10106POPC   C3A58109  43.928  26.067   7.055
10106POPC   C4A58110  43.841  26.077   7.355
10106POPC   C1B58111  43.698  25.939   6.455
10106POPC   C2B58112  43.669  25.975   6.755
10106POPC   C3B58113  43.629  25.988   7.055
10106POPC   C4B58114  43.602  25.956   7.355
10107POPC   NC358115  18.289  32.242   5.555
10107POPC   PO458116  18.301  32.205   5.855
10107POPC   GL158117  18.293  32.240   6.155
10107POPC   GL258118  18.429  32.177   6.155
10107POPC   C1A58119  18.285  32.201   6.455
10107POPC   D2A58120  18.295  32.286   6.755
10107POPC   C3A58121  18.312  32.276   7.055
10107POPC   C4A58122  18.321  32.287   7.355
10107POPC   C1B58123  18.562  32.138   6.455
10107POPC   C2B58124  18.556  32.183   6.755
10107POPC   C3B58125  18.525  32.161   7.055
10107POPC   C4B58126  18.534  32.166   7.355
10108POPC   NC358127  26.828  21.408   5.555
10108POPC   PO458128  26.861  21.374   5.855
10108POPC   GL158129  26.860  21.344   6.155
10108POPC   GL258130  26.898  21.389   6.155
10108POPC   C1A58131  26.825  21.341   6.455
10108POPC   D2A58132  26.770  21.374   6.755
10108POPC   C3A58133  26.785  21.359   7.055
10108POPC   C4A58134  26.830  21.346   7.355
10108POPC   C1B58135  27.074  21.408   6.455
10108POPC   C2B58136  27.083  21.390   6.755
10108POPC   C3B58137  27.017  21.477   7.055
10108POPC   C4B58138  27.093  21.450   7.355
10109POPC   NC358139  31.498  26.052   5.555
10109POPC   PO458140  31.517  26.010   5.855
10109POPC   GL158141  31.442  26.052   6.155
10109POPC   GL258142  31.435  26.147   6.155
10109POPC   C1A58143  31.504  26.018   6.455
10109POPC   D2A58144  31.435  26.032   6.755
10109POPC   C3A58145  31.487  26.024   7.055
10109POPC   C4A58146  31.439  26.041   7.355
10109POPC   C1B58147  31.397  26.268   6.455
10109POPC   C2B58148  31.433  26.240   6.755
10109POPC   C3B58149  31.395  26.276   7.055
10109POPC   C4B58150  31.440  26.323   7.355
10110POPC   NC358151  44.629  11.294   5.555
10110POPC   PO458152  44.614  11.344   5.855
10110POPC   GL158153  44.700  11.316   6.155
10110POPC   GL258154  44.674  11.154   6.155
10110POPC   C1A58155  44.650  11.270   6.455
10110POPC   D2A58156  44.690  11.325   6.755
10110POPC   C3A58157  44.709  11.330   7.055
10110POPC   C4A58158  44.674  11.306   7.355
10110POPC   C1B58159  44.705  11.050   6.455
10110POPC   C2B58160  44.733  11.022   6.755
10110POPC   C3B58161  44.714  11.049   7.055
10110POPC   C4B58162  44.726  11.061   7.355
10111POPC   NC358163  26.042  21.382   5.555
10111POPC   PO458164  26.086  21.389   5.855
10111POPC   GL158165  26.090  21.363   6.155
10111POPC   GL258166  26.011  21.285   6.155
10111POPC   C1A58167  26.087  21.405   6.455
10111POPC   D2A58168  26.082  21.406   6.755
10111POPC   C3A58169  26.060  21.406   7.055
10111POPC   C4A58170  26.064  21.436   7.355
10111POPC   C1B58171  26.014  21.156   6.455
10111POPC   C2B58172  26.036  21.147   6.755
10111POPC   C3B58173  26.011  21.095   7.055
10111POPC   C4B58174  26.014  21.147   7.355
10112POPC   NC358175  19.821  25.231   5.555
10112POPC   PO458176  19.884  25.229   5.855
10112POPC   GL158177  19.811  25.265   6.155
10112POPC   GL258178  19.747  25.159   6.155
10112POPC   C1A58179  19.805  25.271   6.455
10112POPC   D2A58180  19.848  25.228   6.755
10112POPC   C3A58181  19.837  25.284   7.055
10112POPC   C4A58182  19.832  25.232   7.355
10112POPC   C1B58183  19.741  25.068   6.455
10112POPC   C2B58184  19.730  25.046   6.755
10112POPC   C3B58185  19.732  25.088   7.055
10112POPC   C4B58186  19.738  25.035   7.355
10113POPC   NC358187  21.394  13.655   5.555
10113POPC   PO458188  21.346  13.644   5.855
10113POPC   GL158189  21.342  13.614   6.155
10113POPC   GL258190  21.293  13.617   6.155
10113POPC   C1A58191  21.413  13.581   6.455
10113POPC   D2A58192  21.433  13.633   6.755
10113POPC   C3A58193  21.410  13.672   7.055
10113POPC   C4A58194  21.339  13.641   7.355
10113POPC   C1B58195  21.147  13.690   6.455
10113POPC   C2B58196  21.096  13.674   6.755
10113POPC   C3B58197  21.131  13.629   7.055
10113POPC   C4B58198  21.130  13.624   7.355
10114POPC   NC358199   5.058  39.218   5.555
10114POPC   PO458200   5.056  39.255   5.855
10114POPC   GL158201   5.062  39.245   6.155
10114POPC   GL258202   5.098  39.400   6.155
10114POPC   C1A58203   5.118  39.250   6.455
10114POPC   D2A58204   5.052  39.245   6.755
10114POPC   C3A58205   5.088  39.227   7.055
10114POPC   C4A58206   5.086  39.280   7.355
10114POPC   C1B58207   5.061  39.495   6.455
10114POPC   C2B58208   5.044  39.451   6.755
10114POPC   C3B58209   5.016  39.447   7.055
10114POPC   C4B58210   5.063  39.467   7.355
10115POPC   NC358211  36.874  29.893   5.555
10115POPC   PO458212  36.925  29.970   5.855
10115POPC   GL158213  36.947  29.915   6.155
10115POPC   GL258214  36.985  30.027   6.155
10115POPC   C1A58215  36.900  29.927   6.455
10115POPC   D2A58216  36.893  29.932   6.755
10115POPC   C3A58217  36.879  29.892   7.055
10115POPC   C4A58218  36.880  29.879   7.355
10115POPC   C1B58219  37.054  30.082   6.455
10115POPC   C2B58220  37.041  30.130   6.755
10115POPC   C3B58221  37.115  30.131   7.055
10115POPC   C4B58222  37.079  30.070   7.355
10116POPC   NC358223  30.703  14.394   5.555
10116POPC   PO458224  30.695  14.423   5.855
10116POPC   GL158225  30.698  14.422   6.155
10116POPC   GL258226  30.771  14.274   6.155
10116POPC   C1A58227  30.746  14.422   6.455
10116POPC   D2A58228  30.738  14.452   6.755
10116POPC   C3A58229  30.695  14.387   7.055
10116POPC   C4A58230  30.711  14.393   7.355
10116POPC   C1B58231  30.795  14.242   6.455
10116POPC   C2B58232  30.875  14.174   6.755
10116POPC   C3B58233  30.873  14.167   7.055
10116POPC   C4B58234  30.790  14.151   7.355
10117POPC   NC358235  23.716  22.927   5.555
10117POPC   PO458236  23.717  22.966   5.855
10117POPC   GL158237  23.709  22.958   6.155
10117POPC   GL258238  23.693  22.862   6.155
10117POPC   C1A58239  23.743  22.891   6.455
10117POPC   D2A58240  23.704  22.946   6.755
10117POPC   C3A58241  23.667  22.967   7.055
10117POPC   C4A58242  23.690  22.927   7.355
10117POPC   C1B58243  23.726  22.641   6.455
10117POPC   C2B58244  23.771  22.683   6.755
10117POPC   C3B58245  23.714  22.705   7.055
10117POPC   C4B58246  23.771  22.684   7.355
10118POPC   NC358247  40.760   1.945   5.555
10118POPC   PO458248  40.788   2.030   5.855
10118POPC   GL158249  40.745   2.013   6.155
10118POPC   GL258250  40.657   1.899   6.155
10118POPC   C1A58251  40.795   1.976   6.455
10118POPC   D2A58252  40.825   1.964   6.755
10118POPC   C3A58253  40.750   1.947   7.055
10118POPC   C4A58254  40.750   2.031   7.355
10118POPC   C1B58255  40.565   1.919   6.455
10118POPC   C2B58256  40.600   1.926   6.755
10118POPC   C3B58257  40.579   1.862   7.055
10118POPC   C4B58258  40.527   1.930   7.355
10119POPC   NC358259  39.272  40.007   5.555
10119POPC   PO458260  39.217  40.000   5.855
10119POPC   GL158261  39.214  40.002   6.155
10119POPC   GL258262  39.318  40.044   6.155
10119POPC   C1A58263  39.225  40.054   6.455
10119POPC   D2A58264  39.227  40.015   6.755
10119POPC   C3A58265  39.264  39.966   7.055
10119POPC   C4A58266  39.252  39.981   7.355
10119POPC   C1B58267  39.489  40.153   6.455
10119POPC   C2B58268  39.419  40.123   6.755
10119POPC   C3B58269  39.485  40.137   7.055
10119POPC   C4B58270  39.495  40.127   7.355
10120POPC   NC358271  16.693  32.203   5.555
10120POPC   PO458272  16.703  32.252   5.855
10120POPC   GL158273  16.780  32.232   6.155
10120POPC   GL258274  16.655  32.152   6.155
10120POPC   C1A58275  16.712  32.203   6.455
10120POPC   D2A58276  16.686  32.233   6.755
10120POPC   C3A58277  16.690  32.277   7.055
10120POPC   C4A58278  16.695  32.219   7.355
10120POPC   C1B58279  16.524  32.089   6.455
10120POPC   C2B58280  16.565  32.115   6.755
10120POPC   C3B58281  16.577  32.078   7.055
10120POPC   C4B58282  16.503  32.122   7.355
10121POPC   NC358283  20.575  43.911   5.555
10121POPC   PO458284  20.654  43.911   5.855
10121POPC   GL158285  20.625  43.842   6.155
10121POPC   GL258286  20.755  43.854   6.155
10121POPC   C1A58287  20.598  43.921   6.455
10121POPC   D2A58288  20.570  43.870   6.755
10121POPC   C3A58289  20.602  43.918   7.055
10121POPC   C4A58290  20.623  43.914   7.355
10121POPC   C1B58291  20.858  43.899   6.455
10121POPC   C2B58292  20.904  43.817   6.755
10121POPC   C3B58293  20.859  43.820   7.055
10121POPC   C4B58294  20.869  43.856   7.355
10122POPC   NC358295  18.319   5.119   5.555
10122POPC   PO458296  18.301   5.086   5.855
10122POPC   GL158297  18.271   5.137   6.155
10122POPC   GL258298  18.197   5.009   6.155
10122POPC   C1A58299  18.246   5.067   6.455
10122POPC   D2A58300  18.253   5.123   6.755
10122POPC   C3A58301  18.312   5.053   7.055
10122POPC   C4A58302  18.253   5.057   7.355
10122POPC   C1B58303  18.068   4.932   6.455
10122POPC   C2B58304  18.088   4.913   6.755
10122POPC   C3B58305  18.084   4.931   7.055
10122POPC   C4B58306  18.074   4.979   7.355
10123POPC   NC358307  14.389  26.845   5.555
10123POPC   PO458308  14.384  26.829   5.855
10123POPC   GL158309  14.369  26.840   6.155
10123POPC   GL258310  14.384  26.965   6.155
10123POPC   C1A58311  14.400  26.846   6.455
10123POPC   D2A58312  14.414  26.816   6.755
10123POPC   C3A58313  14.373  26.777   7.055
10123POPC   C4A58314  14.367  26.823   7.355
10123POPC   C1B58315  14.305  27.067   6.455
10123POPC   C2B58316  14.298  27.021   6.755
10123POPC   C3B58317  14.375  27.026   7.055
10123POPC   C4B58318  14.375  27.018   7.355
10124POPC   NC358319   5.871  36.125   5.555
10124POPC   PO458320   5.868  36.078   5.855
10124POPC   GL158321   5.864  36.132   6.155
10124POPC   GL258322   5.785  36.232   6.155
10124POPC   C1A58323   5.887  36.129   6.455
10124POPC   D2A58324   5.835  36.142   6.755
10124POPC   C3A58325   5.847  36.168   7.055
10124POPC   C4A58326   5.820  36.078   7.355
10124POPC   C1B58327   5.666  36.334   6.455
10124POPC   C2B58328   5.673  36.305   6.755
10124POPC   C3B58329   5.687  36.311   7.055
10124POPC   C4B58330   5.730  36.294   7.355
10125POPC   NC358331  40.810  14.393   5.555
10125POPC   PO458332  40.747  14.363   5.855
10125POPC   GL158333  40.823  14.430   6.155
10125POPC   GL258334  40.818  14.301   6.155
10125POPC   C1A58335  40.809  14.355   6.455
10125POPC   D2A58336  40.779  14.390   6.755
10125POPC   C3A58337  40.766  14.430   7.055
10125POPC   C4A58338  40.795  14.424   7.355
10125POPC   C1B58339  40.746  14.198   6.455
10125POPC   C2B58340  40.788  14.197   6.755
10125POPC   C3B58341  40.831  14.173   7.055
10125POPC   C4B58342  40.758  14.165   7.355
10126POPC   NC358343  27.604  28.344   5.555
10126POPC   PO458344  27.598  28.345   5.855
10126POPC   GL158345  27.608  28.371   6.155
10126POPC   GL258346  27.486  28.250   6.155
10126POPC   C1A58347  27.618  28.324   6.455
10126POPC   D2A58348  27.605  28.336   6.755
10126POPC   C3A58349  27.572  28.349   7.055
10126POPC   C4A58350  27.618  28.339   7.355
10126POPC   C1B58351  27.444  28.188   6.455
10126POPC   C2B58352  27.469  28.232   6.755
10126POPC   C3B58353  27.447  28.161   7.055
10126POPC   C4B58354  27.373  28.218   7.355
10127POPC   NC358355  21.373  37.657   5.555
10127POPC   PO458356  21.397  37.673   5.855
10127POPC   GL158357  21.356  37.699   6.155
10127POPC   GL258358  21.256  37.690   6.155
10127POPC   C1A58359  21.383  37.658   6.455
10127POPC   D2A58360  21.344  37.722   6.755
10127POPC   C3A58361  21.366  37.675   7.055
10127POPC   C4A58362  21.424  37.722   7.355
10127POPC   C1B58363  21.113  37.709   6.455
10127POPC   C2B58364  21.156  37.751   6.755
10127POPC   C3B58365  21.141  37.704   7.055
10127POPC   C4B58366  21.113  37.755   7.355
10128POPC   NC358367  22.152   2.741   5.555
10128POPC   PO458368  22.206   2.762   5.855
10128POPC   GL158369  22.205   2.737   6.155
10128POPC   GL258370  22.205   2.879   6.155
10128POPC   C1A58371  22.185   2.722   6.455
10128POPC   D2A58372  22.194   2.792   6.755
10128POPC   C3A58373  22.153   2.735   7.055
10128POPC   C4A58374  22.133   2.803   7.355
10128POPC   C1B58375  22.288   3.014   6.455
10128POPC   C2B58376  22.309   2.942   6.755
10128POPC   C3B58377  22.239   3.022   7.055
10128POPC   C4B58378  22.225   2.951   7.355
10129POPC   NC358379  41.535  41.576   5.555
10129POPC   PO458380  41.560  41.526   5.855
10129POPC   GL158381  41.548  41.516   6.155
10129POPC   GL258382  41.452  41.651   6.155
10129POPC   C1A58383  41.604  41.571   6.455
10129POPC   D2A58384  41.583  41.519   6.755
10129POPC   C3A58385  41.552  41.543   7.055
10129POPC   C4A58386  41.589  41.528   7.355
10129POPC   C1B58387  41.418  41.750   6.455
10129POPC   C2B58388  41.411  41.760   6.755
10129POPC   C3B58389  41.323  41.752   7.055
10129POPC   C4B58390  41.340  41.740   7.355
10130POPC   NC358391  29.129   9.769   5.555
10130POPC   PO458392  29.156   9.737   5.855
10130POPC   GL158393  29.182   9.795   6.155
10130POPC   GL258394  29.232   9.672   6.155
10130POPC   C1A58395  29.166   9.710   6.455
10130POPC   D2A58396  29.168   9.786   6.755
10130POPC   C3A58397  29.184   9.716   7.055
10130POPC   C4A58398  29.167   9.737   7.355
10130POPC   C1B58399  29.320   9.616   6.455
10130POPC   C2B58400  29.344   9.598   6.755
10130POPC   C3B58401  29.315   9.647   7.055
10130POPC   C4B58402  29.314   9.561   7.355
10131POPC   NC358403  41.525   7.454   5.555
10131POPC   PO458404  41.581   7.435   5.855
10131POPC   GL158405  41.519   7.446   6.155
10131POPC   GL258406  41.389   7.433   6.155
10131POPC   C1A58407  41.513   7.434   6.455
10131POPC   D2A58408  41.568   7.421   6.755
10131POPC   C3A58409  41.562   7.381   7.055
10131POPC   C4A58410  41.581   7.383   7.355
10131POPC   C1B58411  41.330   7.358   6.455
10131POPC   C2B58412  41.335   7.394   6.755
10131POPC   C3B58413  41.310   7.377   7.055
10131POPC   C4B58414  41.305   7.379   7.355
10132POPC   NC358415  38.446   1.166   5.555
10132POPC   PO458416  38.444   1.239   5.855
10132POPC   GL158417  38.425   1.224   6.155
10132POPC   GL258418  38.503   1.096   6.155
10132POPC   C1A58419  38.493   1.172   6.455
10132POPC   D2A58420  38.447   1.235   6.755
10132POPC   C3A58421  38.499   1.229   7.055
10132POPC   C4A58422  38.408   1.239   7.355
10132POPC   C1B58423  38.498   0.947   6.455
10132POPC   C2B58424  38.526   0.975   6.755
10132POPC   C3B58425  38.549   0.944   7.055
10132POPC   C4B58426  38.524   0.962   7.355
10133POPC   NC358427  17.537  31.443   5.555
10133POPC   PO458428  17.517  31.425   5.855
10133POPC   GL158429  17.527  31.431   6.155
10133POPC   GL258430  17.399  31.398   6.155
10133POPC   C1A58431  17.524  31.488   6.455
10133POPC   D2A58432  17.485  31.430   6.755
10133POPC   C3A58433  17.526  31.481   7.055
10133POPC   C4A58434  17.556  31.449   7.355
10133POPC   C1B58435  17.284  31.346   6.455
10133POPC   C2B58436  17.249  31.403   6.755
10133POPC   C3B58437  17.229  31.385   7.055
10133POPC   C4B58438  17.315  31.350   7.355
10134POPC   NC358439  26.072  42.328   5.555
10134POPC   PO458440  25.992  42.325   5.855
10134POPC   GL158441  26.001  42.358   6.155
10134POPC   GL258442  26.153  42.394   6.155
10134POPC   C1A58443  26.020  42.301   6.455
10134POPC   D2A58444  26.067  42.296   6.755
10134POPC   C3A58445  26.021  42.353   7.055
10134POPC   C4A58446  26.013  42.361   7.355
10134POPC   C1B58447  26.316  42.401   6.455
10134POPC   C2B58448  26.281  42.346   6.755
10134POPC   C3B58449  26.255  42.411   7.055
10134POPC   C4B58450  26.292  42.412   7.355
10135POPC   NC358451  36.943   4.304   5.555
10135POPC   PO458452  36.872   4.310   5.855
10135POPC   GL158453  36.894   4.298   6.155
10135POPC   GL258454  36.935   4.415   6.155
10135POPC   C1A58455  36.870   4.358   6.455
10135POPC   D2A58456  36.915   4.343   6.755
10135POPC   C3A58457  36.858   4.310   7.055
10135POPC   C4A58458  36.936   4.275   7.355
10135POPC   C1B58459  37.023   4.565   6.455
10135POPC   C2B58460  37.043   4.515   6.755
10135POPC   C3B58461  36.992   4.494   7.055
10135POPC   C4B58462  36.968   4.495   7.355
10136POPC   NC358463  39.198  43.897   5.555
10136POPC   PO458464  39.184  43.910   5.855
10136POPC   GL158465  39.244  43.932   6.155
10136POPC   GL258466  39.133  43.898   6.155
10136POPC   C1A58467  39.241  43.890   6.455
10136POPC   D2A58468  39.248  43.859   6.755
10136POPC   C3A58469  39.199  43.851   7.055
10136POPC   C4A58470  39.210  43.884   7.355
10136POPC   C1B58471  38.982  43.923   6.455
10136POPC   C2B58472  38.971  43.948   6.755
10136POPC   C3B58473  39.012  43.952   7.055
10136POPC   C4B58474  38.943  43.964   7.355
10137POPC   NC358475  20.567  20.586   5.555
10137POPC   PO458476  20.593  20.609   5.855
10137POPC   GL158477  20.565  20.598   6.155
10137POPC   GL258478  20.718  20.581   6.155
10137POPC   C1A58479  20.619  20.568   6.455
10137POPC   D2A58480  20.595  20.562   6.755
10137POPC   C3A58481  20.619  20.651   7.055
10137POPC   C4A58482  20.630  20.625   7.355
10137POPC   C1B58483  20.865  20.436   6.455
10137POPC   C2B58484  20.817  20.480   6.755
10137POPC   C3B58485  20.796  20.488   7.055
10137POPC   C4B58486  20.817  20.431   7.355
10138POPC   NC358487  31.519  34.613   5.555
10138POPC   PO458488  31.456  34.567   5.855
10138POPC   GL158489  31.480  34.597   6.155
10138POPC   GL258490  31.511  34.670   6.155
10138POPC   C1A58491  31.477  34.602   6.455
10138POPC   D2A58492  31.430  34.616   6.755
10138POPC   C3A58493  31.467  34.530   7.055
10138POPC   C4A58494  31.451  34.572   7.355
10138POPC   C1B58495  31.590  34.794   6.455
10138POPC   C2B58496  31.565  34.845   6.755
10138POPC   C3B58497  31.584  34.843   7.055
10138POPC   C4B58498  31.508  34.767   7.355
10139POPC   NC358499  37.651  13.675   5.555
10139POPC   PO458500  37.713  13.602   5.855
10139POPC   GL158501  37.698  13.630   6.155
10139POPC   GL258502  37.695  13.485   6.155
10139POPC   C1A58503  37.701  13.632   6.455
10139POPC   D2A58504  37.718  13.674   6.755
10139POPC   C3A58505  37.724  13.602   7.055
10139POPC   C4A58506  37.666  13.585   7.355
10139POPC   C1B58507  37.640  13.352   6.455
10139POPC   C2B58508  37.656  13.353   6.755
10139POPC   C3B58509  37.640  13.377   7.055
10139POPC   C4B58510  37.707  13.374   7.355
10140POPC   NC358511  25.266  24.459   5.555
10140POPC   PO458512  25.312  24.468   5.855
10140POPC   GL158513  25.273  24.516   6.155
10140POPC   GL258514  25.176  24.615   6.155
10140POPC   C1A58515  25.308  24.465   6.455
10140POPC   D2A58516  25.240  24.535   6.755
10140POPC   C3A58517  25.245  24.507   7.055
10140POPC   C4A58518  25.314  24.449   7.355
10140POPC   C1B58519  25.041  24.662   6.455
10140POPC   C2B58520  25.097  24.637   6.755
10140POPC   C3B58521  25.037  24.697   7.055
10140POPC   C4B58522  25.040  24.612   7.355
10141POPC   NC358523  40.029   8.966   5.555
10141POPC   PO458524  40.009   8.959   5.855
10141POPC   GL158525  39.980   8.947   6.155
10141POPC   GL258526  39.996   8.834   6.155
10141POPC   C1A58527  40.053   8.996   6.455
10141POPC   D2A58528  39.961   9.013   6.755
10141POPC   C3A58529  39.962   9.008   7.055
10141POPC   C4A58530  40.022   9.016   7.355
10141POPC   C1B58531  39.849   8.759   6.455
10141POPC   C2B58532  39.926   8.803   6.755
10141POPC   C3B58533  39.885   8.771   7.055
10141POPC   C4B58534  39.851   8.759   7.355
10142POPC   NC358535  41.533  14.379   5.555
10142POPC   PO458536  41.516  14.356   5.855
10142POPC   GL158537  41.536  14.398   6.155
10142POPC   GL258538  41.596  14.304   6.155
10142POPC   C1A58539  41.525  14.439   6.455
10142POPC   D2A58540  41.514  14.415   6.755
10142POPC   C3A58541  41.599  14.453   7.055
10142POPC   C4A58542  41.598  14.388   7.355
10142POPC   C1B58543  41.730  14.148   6.455
10142POPC   C2B58544  41.684  14.148   6.755
10142POPC   C3B58545  41.685  14.159   7.055
10142POPC   C4B58546  41.696  14.205   7.355
10143POPC   NC358547  29.923  12.839   5.555
10143POPC   PO458548  29.932  12.885   5.855
10143POPC   GL158549  29.880  12.899   6.155
10143POPC   GL258550  29.959  13.013   6.155
10143POPC   C1A58551  29.958  12.852   6.455
10143POPC   D2A58552  29.871  12.830   6.755
10143POPC   C3A58553  29.905  12.811   7.055
10143POPC   C4A58554  29.951  12.897   7.355
10143POPC   C1B58555  30.022  13.092   6.455
10143POPC   C2B58556  29.977  13.058   6.755
10143POPC   C3B58557  30.001  13.039   7.055
10143POPC   C4B58558  30.045  13.104   7.355
10144POPC   NC358559  37.718  29.918   5.555
10144POPC   PO458560  37.694  29.897   5.855
10144POPC   GL158561  37.652  29.967   6.155
10144POPC   GL258562  37.564  29.802   6.155
10144POPC   C1A58563  37.679  29.895   6.455
10144POPC   D2A58564  37.677  29.906   6.755
10144POPC   C3A58565  37.653  29.937   7.055
10144POPC   C4A58566  37.659  29.918   7.355
10144POPC   C1B58567  37.457  29.766   6.455
10144POPC   C2B58568  37.507  29.758   6.755
10144POPC   C3B58569  37.514  29.810   7.055
10144POPC   C4B58570  37.448  29.792   7.355
10145POPC   NC358571   5.137  40.034   5.555
10145POPC   PO458572   5.049  39.975   5.855
10145POPC   GL158573   5.116  39.988   6.155
10145POPC   GL258574   5.211  39.922   6.155
10145POPC   C1A58575   5.124  40.003   6.455
10145POPC   D2A58576   5.087  40.054   6.755
10145POPC   C3A58577   5.131  39.986   7.055
10145POPC   C4A58578   5.135  39.982   7.355
10145POPC   C1B58579   5.347  39.942   6.455
10145POPC   C2B58580   5.328  39.917   6.755
10145POPC   C3B58581   5.301  39.886   7.055
10145POPC   C4B58582   5.314  39.918   7.355
10146POPC   NC358583  40.818  11.345   5.555
10146POPC   PO458584  40.798  11.275   5.855
10146POPC   GL158585  40.773  11.323   6.155
10146POPC   GL258586  40.708  11.166   6.155
10146POPC   C1A58587  40.774  11.328   6.455
10146POPC   D2A58588  40.813  11.318   6.755
10146POPC   C3A58589  40.761  11.311   7.055
10146POPC   C4A58590  40.818  11.298   7.355
10146POPC   C1B58591  40.679  11.122   6.455
10146POPC   C2B58592  40.666  11.036   6.755
10146POPC   C3B58593  40.717  11.085   7.055
10146POPC   C4B58594  40.705  11.114   7.355
10147POPC   NC358595  40.056  41.568   5.555
10147POPC   PO458596  39.979  41.550   5.855
10147POPC   GL158597  39.969  41.606   6.155
10147POPC   GL258598  39.956  41.633   6.155
10147POPC   C1A58599  39.978  41.591   6.455
10147POPC   D2A58600  40.025  41.528   6.755
10147POPC   C3A58601  39.967  41.560   7.055
10147POPC   C4A58602  40.028  41.605   7.355
10147POPC   C1B58603  39.777  41.732   6.455
10147POPC   C2B58604  39.869  41.689   6.755
10147POPC   C3B58605  39.865  41.709   7.055
10147POPC   C4B58606  39.819  41.730   7.355
10148POPC   NC358607  10.516  26.776   5.555
10148POPC   PO458608  10.538  26.824   5.855
10148POPC   GL158609  10.537  26.850   6.155
10148POPC   GL258610  10.462  26.729   6.155
10148POPC   C1A58611  10.551  26.858   6.455
10148POPC   D2A58612  10.534  26.847   6.755
10148POPC   C3A58613  10.569  26.800   7.055
10148POPC   C4A58614  10.560  26.813   7.355
10148POPC   C1B58615  10.360  26.608   6.455
10148POPC   C2B58616  10.333  26.682   6.755
10148POPC   C3B58617  10.318  26.621   7.055
10148POPC   C4B58618  10.375  26.668   7.355
10149POPC   NC358619   1.210  20.577   5.555
10149POPC   PO458620   1.258  20.590   5.855
10149POPC   GL158621   1.202  20.620   6.155
10149POPC   GL258622   1.306  20.497   6.155
10149POPC   C1A58623   1.174  20.627   6.455
10149POPC   D2A58624   1.227  20.652   6.755
10149POPC   C3A58625   1.182  20.639   7.055
10149POPC   C4A58626   1.198  20.632   7.355
10149POPC   C1B58627   1.456  20.434   6.455
10149POPC   C2B58628   1.417  20.491   6.755
10149POPC   C3B58629   1.365  20.461   7.055
10149POPC   C4B58630   1.458  20.451   7.355
10150POPC   NC358631  43.104  33.792   5.555
10150POPC   PO458632  43.063  33.827   5.855
10150POPC   GL158633  43.152  33.841   6.155
10150POPC   GL258634  43.224  33.748   6.155
10150POPC   C1A58635  43.068  33.824   6.455
10150POPC   D2A58636  43.079  33.848   6.755
10150POPC   C3A58637  43.097  33.767   7.055
10150POPC   C4A58638  43.086  33.810   7.355
10150POPC   C1B58639  43.375  33.776   6.455
10150POPC   C2B58640  43.397  33.751   6.755
10150POPC   C3B58641  43.318  33.741   7.055
10150POPC   C4B58642  43.370  33.788   7.355
10151POPC   NC358643  22.159  26.773   5.555
10151POPC   PO458644  22.113  26.822   5.855
10151POPC   GL158645  22.138  26.807   6.155
10151POPC   GL258646  22.250  26.924   6.155
10151POPC   C1A58647  22.180  26.838   6.455
10151POPC   D2A58648  22.168  26.850   6.755
10151POPC   C3A58649  22.150  26.827   7.055
10151POPC   C4A58650  22.148  26.782   7.355
10151POPC   C1B58651  22.237  27.018   6.455
10151POPC   C2B58652  22.230  27.035   6.755
10151POPC   C3B58653  22.280  27.032   7.055
10151POPC   C4B58654  22.225  27.071   7.355
10152POPC   NC358655  25.275  22.157   5.555
10152POPC   PO458656  25.315  22.150   5.855
10152POPC   GL158657  25.249  22.131   6.155
10152POPC   GL258658  25.175  22.131   6.155
10152POPC   C1A58659  25.251  22.146   6.455
10152POPC   D2A58660  25.286  22.112   6.755
10152POPC   C3A58661  25.221  22.169   7.055
10152POPC   C4A58662  25.227  22.197   7.355
10152POPC   C1B58663  25.011  22.128   6.455
10152POPC   C2B58664  24.977  22.087   6.755
10152POPC   C3B58665  25.011  22.099   7.055
10152POPC   C4B58666  25.007  22.141   7.355
10153POPC   NC358667  32.291  26.060   5.555
10153POPC   PO458668  32.278  26.010   5.855
10153POPC   GL158669  32.240  26.006   6.155
10153POPC   GL258670  32.302  26.158   6.155
10153POPC   C1A58671  32.281  26.012   6.455
10153POPC   D2A58672  32.275  26.060   6.755
10153POPC   C3A58673  32.270  26.006   7.055
10153POPC   C4A58674  32.216  26.069   7.355
10153POPC   C1B58675  32.409  26.221   6.455
10153POPC   C2B58676  32.435  26.190   6.755
10153POPC   C3B58677  32.375  26.264   7.055
10153POPC   C4B58678  32.391  26.253   7.355
10154POPC   NC358679  43.885  19.808   5.555
10154POPC   PO458680  43.856  19.818   5.855
10154POPC   GL158681  43.874  19.827   6.155
10154POPC   GL258682  43.790  19.897   6.155
10154POPC   C1A58683  43.918  19.807   6.455
10154POPC   D2A58684  43.881  19.843   6.755
10154POPC   C3A58685  43.919  19.861   7.055
10154POPC   C4A58686  43.851  19.840   7.355
10154POPC   C1B58687  43.639  19.921   6.455
10154POPC   C2B58688  43.677  19.837   6.755
10154POPC   C3B58689  43.619  19.917   7.055
10154POPC   C4B58690  43.680  19.903   7.355
10155POPC   NC358691  39.252   1.168   5.555
10155POPC   PO458692  39.234   1.208   5.855
10155POPC   GL158693  39.207   1.192   6.155
10155POPC   GL258694  39.231   1.048   6.155
10155POPC   C1A58695  39.184   1.179   6.455
10155POPC   D2A58696  39.211   1.208   6.755
10155POPC   C3A58697  39.196   1.208   7.055
10155POPC   C4A58698  39.279   1.238   7.355
10155POPC   C1B58699  39.150   1.024   6.455
10155POPC   C2B58700  39.115   0.950   6.755
10155POPC   C3B58701  39.175   0.972   7.055
10155POPC   C4B58702  39.157   0.944   7.355
10156POPC   NC358703  29.948  32.229   5.555
10156POPC   PO458704  29.874  32.256   5.855
10156POPC   GL158705  29.967  32.273   6.155
10156POPC   GL258706  30.073  32.245   6.155
10156POPC   C1A58707  29.885  32.226   6.455
10156POPC   D2A58708  29.939  32.221   6.755
10156POPC   C3A58709  29.961  32.251   7.055
10156POPC   C4A58710  29.906  32.296   7.355
10156POPC   C1B58711  30.154  32.330   6.455
10156POPC   C2B58712  30.160  32.321   6.755
10156POPC   C3B58713  30.116  32.355   7.055
10156POPC   C4B58714  30.126  32.297   7.355
10157POPC   NC358715  38.453   8.219   5.555
10157POPC   PO458716  38.410   8.221   5.855
10157POPC   GL158717  38.483   8.202   6.155
10157POPC   GL258718  38.545   8.250   6.155
10157POPC   C1A58719  38.487   8.214   6.455
10157POPC   D2A58720  38.446   8.164   6.755
10157POPC   C3A58721  38.414   8.207   7.055
10157POPC   C4A58722  38.446   8.242   7.355
10157POPC   C1B58723  38.664   8.211   6.455
10157POPC   C2B58724  38.738   8.218   6.755
10157POPC   C3B58725  38.725   8.241   7.055
10157POPC   C4B58726  38.655   8.281   7.355
10158POPC   NC358727  10.544  13.639   5.555
10158POPC   PO458728  10.497  13.614   5.855
10158POPC   GL158729  10.482  13.613   6.155
10158POPC   GL258730  10.625  13.673   6.155
10158POPC   C1A58731  10.496  13.646   6.455
10158POPC   D2A58732  10.555  13.603   6.755
10158POPC   C3A58733  10.556  13.672   7.055
10158POPC   C4A58734  10.544  13.640   7.355
10158POPC   C1B58735  10.753  13.746   6.455
10158POPC   C2B58736  10.773  13.693   6.755
10158POPC   C3B58737  10.739  13.766   7.055
10158POPC   C4B58738  10.739  13.672   7.355
10159POPC   NC358739  21.353   5.137   5.555
10159POPC   PO458740  21.371   5.137   5.855
10159POPC   GL158741  21.409   5.074   6.155
10159POPC   GL258742  21.505   4.971   6.155
10159POPC   C1A58743  21.402   5.072   6.455
10159POPC   D2A58744  21.410   5.057   6.755
10159POPC   C3A58745  21.398   5.106   7.055
10159POPC   C4A58746  21.352   5.108   7.355
10159POPC   C1B58747  21.559   4.892   6.455
10159POPC   C2B58748  21.513   4.955   6.755
10159POPC   C3B58749  21.581   4.935   7.055
10159POPC   C4B58750  21.529   4.866   7.355
10160POPC   NC358751  42.381  13.618   5.555
10160POPC   PO458752  42.305  13.630   5.855
10160POPC   GL158753  42.355  13.587   6.155
10160POPC   GL258754  42.266  13.706   6.155
10160POPC   C1A58755  42.381  13.618   6.455
10160POPC   D2A58756  42.298  13.678   6.755
10160POPC   C3A58757  42.372  13.597   7.055
10160POPC   C4A58758  42.346  13.641   7.355
10160POPC   C1B58759  42.167  13.805   6.455
10160POPC   C2B58760  42.193  13.778   6.755
10160POPC   C3B58761  42.230  13.822   7.055
10160POPC   C4B58762  42.187  13.875   7.355
10161POPC   NC358763  42.344   5.057   5.555
10161POPC   PO458764  42.372   5.058   5.855
10161POPC   GL158765  42.318   5.067   6.155
10161POPC   GL258766  42.300   4.984   6.155
10161POPC   C1A58767  42.360   5.072   6.455
10161POPC   D2A58768  42.286   5.045   6.755
10161POPC   C3A58769  42.287   5.066   7.055
10161POPC   C4A58770  42.331   5.051   7.355
10161POPC   C1B58771  42.303   4.807   6.455
10161POPC   C2B58772  42.271   4.816   6.755
10161POPC   C3B58773  42.303   4.891   7.055
10161POPC   C4B58774  42.354   4.870   7.355
10162POPC   NC358775   4.272  32.242   5.555
10162POPC   PO458776   4.303  32.274   5.855
10162POPC   GL158777   4.364  32.234   6.155
10162POPC   GL258778   4.291  32.402   6.155
10162POPC   C1A58779   4.342  32.220   6.455
10162POPC   D2A58780   4.361  32.288   6.755
10162POPC   C3A58781   4.310  32.264   7.055
10162POPC   C4A58782   4.276  32.240   7.355
10162POPC   C1B58783   4.189  32.458   6.455
10162POPC   C2B58784   4.214  32.422   6.755
10162POPC   C3B58785   4.193  32.494   7.055
10162POPC   C4B58786   4.224  32.410   7.355
10163POPC   NC358787   3.568  13.663   5.555
10163POPC   PO458788   3.529  13.621   5.855
10163POPC   GL158789   3.571  13.636   6.155
10163POPC   GL258790   3.626  13.558   6.155
10163POPC   C1A58791   3.589  13.646   6.455
10163POPC   D2A58792   3.493  13.656   6.755
10163POPC   C3A58793   3.568  13.646   7.055
10163POPC   C4A58794   3.524  13.586   7.355
10163POPC   C1B58795   3.648  13.397   6.455
10163POPC   C2B58796   3.694  13.479   6.755
10163POPC   C3B58797   3.673  13.439   7.055
10163POPC   C4B58798   3.652  13.409   7.355
10164POPC   NC358799  19.828  27.550   5.555
10164POPC   PO458800  19.851  27.618   5.855
10164POPC   GL158801  19.799  27.624   6.155
10164POPC   GL258802  19.900  27.494   6.155
10164POPC   C1A58803  19.785  27.545   6.455
10164POPC   D2A58804  19.850  27.607   6.755
10164POPC   C3A58805  19.850  27.609   7.055
10164POPC   C4A58806  19.798  27.560   7.355
10164POPC   C1B58807  19.947  27.361   6.455
10164POPC   C2B58808  19.918  27.333   6.755
10164POPC   C3B58809  19.957  27.421   7.055
10164POPC   C4B58810  19.990  27.322   7.355
10165POPC   NC358811  12.027  27.605   5.555
10165POPC   PO458812  12.104  27.550   5.855
10165POPC   GL158813  12.096  27.622   6.155
10165POPC   GL258814  12.185  27.493   6.155
10165POPC   C1A58815  12.027  27.580   6.455
10165POPC   D2A58816  12.106  27.562   6.755
10165POPC   C3A58817  12.102  27.613   7.055
10165POPC   C4A58818  12.093  27.554   7.355
10165POPC   C1B58819  12.281  27.461   6.455
10165POPC   C2B58820  12.234  27.425   6.755
10165POPC   C3B58821  12.271  27.405   7.055
10165POPC   C4B58822  12.246  27.471   7.355
10166POPC   NC358823  41.551  20.638   5.555
10166POPC   PO458824  41.535  20.649   5.855
10166POPC   GL158825  41.529  20.573   6.155
10166POPC   GL258826  41.594  20.726   6.155
10166POPC   C1A58827  41.597  20.657   6.455
10166POPC   D2A58828  41.608  20.615   6.755
10166POPC   C3A58829  41.590  20.656   7.055
10166POPC   C4A58830  41.564  20.621   7.355
10166POPC   C1B58831  41.578  20.886   6.455
10166POPC   C2B58832  41.581  20.882   6.755
10166POPC   C3B58833  41.579  20.890   7.055
10166POPC   C4B58834  41.655  20.835   7.355
10167POPC   NC358835  31.449  18.275   5.555
10167POPC   PO458836  31.518  18.264   5.855
10167POPC   GL158837  31.460  18.252   6.155
10167POPC   GL258838  31.520  18.411   6.155
10167POPC   C1A58839  31.499  18.260   6.455
10167POPC   D2A58840  31.456  18.301   6.755
10167POPC   C3A58841  31.472  18.332   7.055
10167POPC   C4A58842  31.459  18.269   7.355
10167POPC   C1B58843  31.572  18.561   6.455
10167POPC   C2B58844  31.530  18.465   6.755
10167POPC   C3B58845  31.575  18.487   7.055
10167POPC   C4B58846  31.596  18.481   7.355
10168POPC   NC358847   3.590  23.736   5.555
10168POPC   PO458848   3.551  23.699   5.855
10168POPC   GL158849   3.535  23.680   6.155
10168POPC   GL258850   3.566  23.813   6.155
10168POPC   C1A58851   3.526  23.674   6.455
10168POPC   D2A58852   3.540  23.756   6.755
10168POPC   C3A58853   3.530  23.683   7.055
10168POPC   C4A58854   3.581  23.688   7.355
10168POPC   C1B58855   3.670  23.892   6.455
10168POPC   C2B58856   3.625  23.948   6.755
10168POPC   C3B58857   3.716  23.952   7.055
10168POPC   C4B58858   3.699  23.916   7.355
10169POPC   NC358859  41.531  17.479   5.555
10169POPC   PO458860  41.539  17.496   5.855
10169POPC   GL158861  41.539  17.521   6.155
10169POPC   GL258862  41.425  17.510   6.155
10169POPC   C1A58863  41.600  17.467   6.455
10169POPC   D2A58864  41.594  17.544   6.755
10169POPC   C3A58865  41.583  17.519   7.055
10169POPC   C4A58866  41.522  17.475   7.355
10169POPC   C1B58867  41.291  17.429   6.455
10169POPC   C2B58868  41.312  17.405   6.755
10169POPC   C3B58869  41.296  17.430   7.055
10169POPC   C4B58870  41.290  17.413   7.355
10170POPC   NC358871  39.194  41.522   5.555
10170POPC   PO458872  39.210  41.537   5.855
10170POPC   GL158873  39.201  41.536   6.155
10170POPC   GL258874  39.231  41.653   6.155
10170POPC   C1A58875  39.257  41.594   6.455
10170POPC   D2A58876  39.267  41.516   6.755
10170POPC   C3A58877  39.252  41.608   7.055
10170POPC   C4A58878  39.226  41.570   7.355
10170POPC   C1B58879  39.258  41.816   6.455
10170POPC   C2B58880  39.268  41.806   6.755
10170POPC   C3B58881  39.315  41.752   7.055
10170POPC   C4B58882  39.283  41.816   7.355
10171POPC   NC358883  20.567   0.438   5.555
10171POPC   PO458884  20.628   0.467   5.855
10171POPC   GL158885  20.598   0.460   6.155
10171POPC   GL258886  20.531   0.420   6.155
10171POPC   C1A58887  20.579   0.442   6.455
10171POPC   D2A58888  20.614   0.467   6.755
10171POPC   C3A58889  20.613   0.424   7.055
10171POPC   C4A58890  20.622   0.406   7.355
10171POPC   C1B58891  20.430   0.348   6.455
10171POPC   C2B58892  20.389   0.345   6.755
10171POPC   C3B58893  20.401   0.372   7.055
10171POPC   C4B58894  20.425   0.315   7.355
10172POPC   NC358895  28.369  26.841   5.555
10172POPC   PO458896  28.360  26.793   5.855
10172POPC   GL158897  28.342  26.835   6.155
10172POPC   GL258898  28.314  26.939   6.155
10172POPC   C1A58899  28.324  26.790   6.455
10172POPC   D2A58900  28.385  26.809   6.755
10172POPC   C3A58901  28.384  26.812   7.055
10172POPC   C4A58902  28.329  26.823   7.355
10172POPC   C1B58903  28.199  27.003   6.455
10172POPC   C2B58904  28.283  27.057   6.755
10172POPC   C3B58905  28.234  27.050   7.055
10172POPC   C4B58906  28.239  27.066   7.355
10173POPC   NC358907  19.095  12.041   5.555
10173POPC   PO458908  19.042  12.092   5.855
10173POPC   GL158909  19.011  12.071   6.155
10173POPC   GL258910  19.040  12.154   6.155
10173POPC   C1A58911  19.037  12.043   6.455
10173POPC   D2A58912  19.074  12.085   6.755
10173POPC   C3A58913  19.037  12.046   7.055
10173POPC   C4A58914  19.107  12.037   7.355
10173POPC   C1B58915  18.962  12.321   6.455
10173POPC   C2B58916  19.015  12.356   6.755
10173POPC   C3B58917  18.958  12.295   7.055
10173POPC   C4B58918  18.993  12.284   7.355
10174POPC   NC358919  30.725  43.847   5.555
10174POPC   PO458920  30.697  43.839   5.855
10174POPC   GL158921  30.708  43.917   6.155
10174POPC   GL258922  30.669  43.740   6.155
10174POPC   C1A58923  30.733  43.865   6.455
10174POPC   D2A58924  30.689  43.846   6.755
10174POPC   C3A58925  30.700  43.880   7.055
10174POPC   C4A58926  30.687  43.838   7.355
10174POPC   C1B58927  30.600  43.667   6.455
10174POPC   C2B58928  30.651  43.666   6.755
10174POPC   C3B58929  30.597  43.661   7.055
10174POPC   C4B58930  30.594  43.646   7.355
10175POPC   NC358931  15.913  44.633   5.555
10175POPC   PO458932  15.961  44.702   5.855
10175POPC   GL158933  15.995  44.708   6.155
10175POPC   GL258934  15.905  44.710   6.155
10175POPC   C1A58935  15.907  44.617   6.455
10175POPC   D2A58936  15.966  44.625   6.755
10175POPC   C3A58937  15.999  44.618   7.055
10175POPC   C4A58938  15.952  44.633   7.355
10175POPC   C1B58939  15.772  44.771   6.455
10175POPC   C2B58940  15.769  44.841   6.755
10175POPC   C3B58941  15.729  44.864   7.055
10175POPC   C4B58942  15.712  44.805   7.355
10176POPC   NC358943  14.415  29.920   5.555
10176POPC   PO458944  14.408  29.929   5.855
10176POPC   GL158945  14.414  29.937   6.155
10176POPC   GL258946  14.376  30.038   6.155
10176POPC   C1A58947  14.424  29.926   6.455
10176POPC   D2A58948  14.429  29.952   6.755
10176POPC   C3A58949  14.384  29.927   7.055
10176POPC   C4A58950  14.414  29.880   7.355
10176POPC   C1B58951  14.403  30.206   6.455
10176POPC   C2B58952  14.475  30.177   6.755
10176POPC   C3B58953  14.402  30.201   7.055
10176POPC   C4B58954  14.479  30.216   7.355
10177POPC   NC358955  10.486  27.567   5.555
10177POPC   PO458956  10.549  27.634   5.855
10177POPC   GL158957  10.497  27.643   6.155
10177POPC   GL258958  10.411  27.499   6.155
10177POPC   C1A58959  10.553  27.622   6.455
10177POPC   D2A58960  10.536  27.630   6.755
10177POPC   C3A58961  10.475  27.600   7.055
10177POPC   C4A58962  10.553  27.603   7.355
10177POPC   C1B58963  10.307  27.485   6.455
10177POPC   C2B58964  10.268  27.459   6.755
10177POPC   C3B58965  10.330  27.431   7.055
10177POPC   C4B58966  10.294  27.442   7.355
10178POPC   NC358967  27.616   7.402   5.555
10178POPC   PO458968  27.635   7.452   5.855
10178POPC   GL158969  27.564   7.459   6.155
10178POPC   GL258970  27.625   7.556   6.155
10178POPC   C1A58971  27.619   7.385   6.455
10178POPC   D2A58972  27.631   7.386   6.755
10178POPC   C3A58973  27.639   7.401   7.055
10178POPC   C4A58974  27.625   7.377   7.355
10178POPC   C1B58975  27.587   7.640   6.455
10178POPC   C2B58976  27.607   7.660   6.755
10178POPC   C3B58977  27.636   7.634   7.055
10178POPC   C4B58978  27.565   7.715   7.355
10179POPC   NC358979  44.652  36.877   5.555
10179POPC   PO458980  44.628  36.935   5.855
10179POPC   GL158981  44.640  36.942   6.155
10179POPC   GL258982  44.676  36.786   6.155
10179POPC   C1A58983  44.657  36.939   6.455
10179POPC   D2A58984  44.700  36.906   6.755
10179POPC   C3A58985  44.671  36.949   7.055
10179POPC   C4A58986  44.678  36.880   7.355
10179POPC   C1B58987  44.779  36.676   6.455
10179POPC   C2B58988  44.740  36.635   6.755
10179POPC   C3B58989  44.745  36.657   7.055
10179POPC   C4B58990  44.730  36.683   7.355
10180POPC   NC358991  19.068  35.402   5.555
10180POPC   PO458992  19.038  35.325   5.855
10180POPC   GL158993  19.085  35.345   6.155
10180POPC   GL258994  19.022  35.257   6.155
10180POPC   C1A58995  19.070  35.353   6.455
10180POPC   D2A58996  19.030  35.313   6.755
10180POPC   C3A58997  19.014  35.326   7.055
10180POPC   C4A58998  19.023  35.323   7.355
10180POPC   C1B58999  18.861  35.150   6.455
10180POPC   C2B59000  18.948  35.159   6.755
10180POPC   C3B59001  18.863  35.162   7.055
10180POPC   C4B59002  18.940  35.108   7.355
10181POPC   NC359003   6.638  13.598   5.555
10181POPC   PO459004   6.689  13.627   5.855
10181POPC   GL159005   6.648  13.583   6.155
10181POPC   GL259006   6.813  13.681   6.155
10181POPC   C1A59007   6.654  13.601   6.455
10181POPC   D2A59008   6.623  13.602   6.755
10181POPC   C3A59009   6.623  13.663   7.055
10181POPC   C4A59010   6.638  13.656   7.355
10181POPC   C1B59011   6.865  13.655   6.455
10181POPC   C2B59012   6.910  13.614   6.755
10181POPC   C3B59013   6.917  13.653   7.055
10181POPC   C4B59014   6.905  13.668   7.355
10182POPC   NC359015  32.290  23.704   5.555
10182POPC   PO459016  32.225  23.717   5.855
10182POPC   GL159017  32.228  23.727   6.155
10182POPC   GL259018  32.187  23.573   6.155
10182POPC   C1A59019  32.205  23.747   6.455
10182POPC   D2A59020  32.204  23.737   6.755
10182POPC   C3A59021  32.266  23.684   7.055
10182POPC   C4A59022  32.258  23.747   7.355
10182POPC   C1B59023  32.209  23.462   6.455
10182POPC   C2B59024  32.146  23.480   6.755
10182POPC   C3B59025  32.241  23.449   7.055
10182POPC   C4B59026  32.164  23.424   7.355
10183POPC   NC359027  35.371  42.345   5.555
10183POPC   PO459028  35.313  42.346   5.855
10183POPC   GL159029  35.361  42.319   6.155
10183POPC   GL259030  35.425  42.341   6.155
10183POPC   C1A59031  35.396  42.298   6.455
10183POPC   D2A59032  35.324  42.369   6.755
10183POPC   C3A59033  35.396  42.373   7.055
10183POPC   C4A59034  35.387  42.303   7.355
10183POPC   C1B59035  35.594  42.394   6.455
10183POPC   C2B59036  35.572  42.409   6.755
10183POPC   C3B59037  35.597  42.424   7.055
10183POPC   C4B59038  35.551  42.434   7.355
10184POPC   NC359039  38.425  12.111   5.555
10184POPC   PO459040  38.463  12.102   5.855
10184POPC   GL159041  38.412  12.101   6.155
10184POPC   GL259042  38.356  12.079   6.155
10184POPC   C1A59043  38.447  12.034   6.455
10184POPC   D2A59044  38.484  12.098   6.755
10184POPC   C3A59045  38.417  12.051   7.055
10184POPC   C4A59046  38.443  12.092   7.355
10184POPC   C1B59047  38.240  11.970   6.455
10184POPC   C2B59048  38.237  11.986   6.755
10184POPC   C3B59049  38.189  12.001   7.055
10184POPC   C4B59050  38.178  12.014   7.355
10185POPC   NC359051  14.403  36.855   5.555
10185POPC   PO459052  14.438  36.901   5.855
10185POPC   GL159053  14.412  36.864   6.155
10185POPC   GL259054  14.248  36.867   6.155
10185POPC   C1A59055  14.366  36.854   6.455
10185POPC   D2A59056  14.398  36.938   6.755
10185POPC   C3A59057  14.378  36.897   7.055
10185POPC   C4A59058  14.372  36.912   7.355
10185POPC   C1B59059  14.205  36.843   6.455
10185POPC   C2B59060  14.150  36.842   6.755
10185POPC   C3B59061  14.117  36.815   7.055
10185POPC   C4B59062  14.167  36.814   7.355
10186POPC   NC359063  10.493  15.185   5.555
10186POPC   PO459064  10.527  15.196   5.855
10186POPC   GL159065  10.505  15.174   6.155
10186POPC   GL259066  10.585  15.261   6.155
10186POPC   C1A59067  10.560  15.224   6.455
10186POPC   D2A59068  10.535  15.171   6.755
10186POPC   C3A59069  10.520  15.202   7.055
10186POPC   C4A59070  10.561  15.184   7.355
10186POPC   C1B59071  10.624  15.463   6.455
10186POPC   C2B59072  10.596  15.462   6.755
10186POPC   C3B59073  10.564  15.407   7.055
10186POPC   C4B59074  10.652  15.426   7.355
10187POPC   NC359075  44.668  18.327   5.555
10187POPC   PO459076  44.704  18.311   5.855
10187POPC   GL159077  44.634  18.269   6.155
10187POPC   GL259078  44.608  18.237   6.155
10187POPC   C1A59079  44.694  18.299   6.455
10187POPC   D2A59080  44.666  18.259   6.755
10187POPC   C3A59081  44.655  18.240   7.055
10187POPC   C4A59082  44.679  18.251   7.355
10187POPC   C1B59083  44.420  18.076   6.455
10187POPC   C2B59084  44.453  18.142   6.755
10187POPC   C3B59085  44.421  18.102   7.055
10187POPC   C4B59086  44.503  18.165   7.355
10188POPC   NC359087  36.874  27.603   5.555
10188POPC   PO459088  36.932  27.604   5.855
10188POPC   GL159089  36.883  27.611   6.155
10188POPC   GL259090  36.839  27.490   6.155
10188POPC   C1A59091  36.917  27.631   6.455
10188POPC   D2A59092  36.880  27.625   6.755
10188POPC   C3A59093  36.896  27.634   7.055
10188POPC   C4A59094  36.880  27.634   7.355
10188POPC   C1B59095  36.846  27.335   6.455
10188POPC   C2B59096  36.861  27.387   6.755
10188POPC   C3B59097  36.825  27.338   7.055
10188POPC   C4B59098  36.883  27.382   7.355
10189POPC   NC359099  21.404  16.725   5.555
10189POPC   PO459100  21.361  16.735   5.855
10189POPC   GL159101  21.396  16.707   6.155
10189POPC   GL259102  21.497  16.755   6.155
10189POPC   C1A59103  21.390  16.730   6.455
10189POPC   D2A59104  21.352  16.695   6.755
10189POPC   C3A59105  21.413  16.685   7.055
10189POPC   C4A59106  21.407  16.681   7.355
10189POPC   C1B59107  21.603  16.730   6.455
10189POPC   C2B59108  21.607  16.779   6.755
10189POPC   C3B59109  21.668  16.774   7.055
10189POPC   C4B59110  21.600  16.707   7.355
10190POPC   NC359111   8.195  34.611   5.555
10190POPC   PO459112   8.180  34.527   5.855
10190POPC   GL159113   8.242  34.608   6.155
10190POPC   GL259114   8.268  34.478   6.155
10190POPC   C1A59115   8.180  34.561   6.455
10190POPC   D2A59116   8.228  34.560   6.755
10190POPC   C3A59117   8.187  34.596   7.055
10190POPC   C4A59118   8.207  34.601   7.355
10190POPC   C1B59119   8.204  34.288   6.455
10190POPC   C2B59120   8.281  34.320   6.755
10190POPC   C3B59121   8.214  34.298   7.055
10190POPC   C4B59122   8.197  34.335   7.355
10191POPC   NC359123  15.149   5.899   5.555
10191POPC   PO459124  15.168   5.881   5.855
10191POPC   GL159125  15.217   5.885   6.155
10191POPC   GL259126  15.247   5.970   6.155
10191POPC   C1A59127  15.194   5.911   6.455
10191POPC   D2A59128  15.224   5.839   6.755
10191POPC   C3A59129  15.141   5.828   7.055
10191POPC   C4A59130  15.209   5.896   7.355
10191POPC   C1B59131  15.273   6.072   6.455
10191POPC   C2B59132  15.230   6.097   6.755
10191POPC   C3B59133  15.222   6.140   7.055
10191POPC   C4B59134  15.189   6.096   7.355
10192POPC   NC359135  33.820  27.594   5.555
10192POPC   PO459136  33.751  27.606   5.855
10192POPC   GL159137  33.828  27.546   6.155
10192POPC   GL259138  33.870  27.723   6.155
10192POPC   C1A59139  33.785  27.608   6.455
10192POPC   D2A59140  33.782  27.589   6.755
10192POPC   C3A59141  33.824  27.636   7.055
10192POPC   C4A59142  33.798  27.580   7.355
10192POPC   C1B59143  33.943  27.811   6.455
10192POPC   C2B59144  33.959  27.784   6.755
10192POPC   C3B59145  33.967  27.784   7.055
10192POPC   C4B59146  33.961  27.841   7.355
10193POPC   NC359147  44.674  12.890   5.555
10193POPC   PO459148  44.640  12.862   5.855
10193POPC   GL159149  44.658  12.807   6.155
10193POPC   GL259150  44.612  12.967   6.155
10193POPC   C1A59151  44.698  12.831   6.455
10193POPC   D2A59152  44.708  12.847   6.755
10193POPC   C3A59153  44.698  12.840   7.055
10193POPC   C4A59154  44.660  12.854   7.355
10193POPC   C1B59155  44.484  13.030   6.455
10193POPC   C2B59156  44.484  13.068   6.755
10193POPC   C3B59157  44.516  13.028   7.055
10193POPC   C4B59158  44.474  13.084   7.355
10194POPC   NC359159  37.631  30.709   5.555
10194POPC   PO459160  37.679  30.731   5.855
10194POPC   GL159161  37.664  30.694   6.155
10194POPC   GL259162  37.768  30.810   6.155
10194POPC   C1A59163  37.721  30.732   6.455
10194POPC   D2A59164  37.724  30.703   6.755
10194POPC   C3A59165  37.729  30.648   7.055
10194POPC   C4A59166  37.637  30.745   7.355
10194POPC   C1B59167  37.822  30.902   6.455
10194POPC   C2B59168  37.744  30.950   6.755
10194POPC   C3B59169  37.770  30.926   7.055
10194POPC   C4B59170  37.809  30.923   7.355
10195POPC   NC359171   7.425  26.802   5.555
10195POPC   PO459172   7.373  26.777   5.855
10195POPC   GL159173   7.437  26.780   6.155
10195POPC   GL259174   7.467  26.903   6.155
10195POPC   C1A59175   7.383  26.867   6.455
10195POPC   D2A59176   7.417  26.838   6.755
10195POPC   C3A59177   7.437  26.781   7.055
10195POPC   C4A59178   7.397  26.824   7.355
10195POPC   C1B59179   7.487  27.094   6.455
10195POPC   C2B59180   7.491  27.027   6.755
10195POPC   C3B59181   7.488  27.078   7.055
10195POPC   C4B59182   7.485  27.040   7.355
10196POPC   NC359183  41.569  19.024   5.555
10196POPC   PO459184  41.597  19.063   5.855
10196POPC   GL159185  41.548  19.010   6.155
10196POPC   GL259186  41.479  19.103   6.155
10196POPC   C1A59187  41.509  19.024   6.455
10196POPC   D2A59188  41.577  19.017   6.755
10196POPC   C3A59189  41.588  19.092   7.055
10196POPC   C4A59190  41.552  19.094   7.355
10196POPC   C1B59191  41.305  19.137   6.455
10196POPC   C2B59192  41.362  19.165   6.755
10196POPC   C3B59193  41.303  19.181   7.055
10196POPC   C4B59194  41.299  19.172   7.355
10197POPC   NC359195  33.073  20.619   5.555
10197POPC   PO459196  33.019  20.645   5.855
10197POPC   GL159197  33.049  20.602   6.155
10197POPC   GL259198  32.872  20.651   6.155
10197POPC   C1A59199  33.034  20.587   6.455
10197POPC   D2A59200  33.003  20.643   6.755
10197POPC   C3A59201  32.987  20.599   7.055
10197POPC   C4A59202  33.006  20.588   7.355
10197POPC   C1B59203  32.803  20.759   6.455
10197POPC   C2B59204  32.838  20.804   6.755
10197POPC   C3B59205  32.846  20.771   7.055
10197POPC   C4B59206  32.820  20.725   7.355
10198POPC   NC359207  24.509  22.892   5.555
10198POPC   PO459208  24.448  22.944   5.855
10198POPC   GL159209  24.530  22.965   6.155
10198POPC   GL259210  24.370  22.978   6.155
10198POPC   C1A59211  24.506  22.964   6.455
10198POPC   D2A59212  24.501  22.964   6.755
10198POPC   C3A59213  24.441  22.984   7.055
10198POPC   C4A59214  24.482  22.963   7.355
10198POPC   C1B59215  24.260  23.085   6.455
10198POPC   C2B59216  24.233  23.042   6.755
10198POPC   C3B59217  24.303  23.030   7.055
10198POPC   C4B59218  24.219  23.064   7.355
10199POPC   NC359219  15.169  29.891   5.555
10199POPC   PO459220  15.172  29.953   5.855
10199POPC   GL159221  15.176  29.873   6.155
10199POPC   GL259222  15.251  30.040   6.155
10199POPC   C1A59223  15.160  29.932   6.455
10199POPC   D2A59224  15.196  29.918   6.755
10199POPC   C3A59225  15.153  29.948   7.055
10199POPC   C4A59226  15.146  29.894   7.355
10199POPC   C1B59227  15.256  30.117   6.455
10199POPC   C2B59228  15.341  30.184   6.755
10199POPC   C3B59229  15.284  30.163   7.055
10199POPC   C4B59230  15.318  30.117   7.355
10200POPC   NC359231  21.397  28.353   5.555
10200POPC   PO459232  21.360  28.388   5.855
10200POPC   GL159233  21.357  28.374   6.155
10200POPC   GL259234  21.366  28.476   6.155
10200POPC   C1A59235  21.343  28.390   6.455
10200POPC   D2A59236  21.392  28.401   6.755
10200POPC   C3A59237  21.433  28.327   7.055
10200POPC   C4A59238  21.368  28.322   7.355
10200POPC   C1B59239  21.356  28.648   6.455
10200POPC   C2B59240  21.350  28.563   6.755
10200POPC   C3B59241  21.357  28.638   7.055
10200POPC   C4B59242  21.360  28.635   7.355
10201POPC   NC359243  26.045  29.154   5.555
10201POPC   PO459244  26.033  29.181   5.855
10201POPC   GL159245  26.075  29.142   6.155
10201POPC   GL259246  26.072  29.244   6.155
10201POPC   C1A59247  26.009  29.130   6.455
10201POPC   D2A59248  26.089  29.108   6.755
10201POPC   C3A59249  26.041  29.139   7.055
10201POPC   C4A59250  26.037  29.115   7.355
10201POPC   C1B59251  26.087  29.392   6.455
10201POPC   C2B59252  26.042  29.357   6.755
10201POPC   C3B59253  26.124  29.353   7.055
10201POPC   C4B59254  26.126  29.384   7.355
10202POPC   NC359255  26.799  41.531   5.555
10202POPC   PO459256  26.819  41.609   5.855
10202POPC   GL159257  26.780  41.570   6.155
10202POPC   GL259258  26.893  41.604   6.155
10202POPC   C1A59259  26.867  41.561   6.455
10202POPC   D2A59260  26.803  41.557   6.755
10202POPC   C3A59261  26.859  41.584   7.055
10202POPC   C4A59262  26.796  41.547   7.355
10202POPC   C1B59263  27.036  41.738   6.455
10202POPC   C2B59264  27.027  41.708   6.755
10202POPC   C3B59265  26.989  41.779   7.055
10202POPC   C4B59266  26.981  41.684   7.355
10203POPC   NC359267  21.391  43.104   5.555
10203POPC   PO459268  21.398  43.155   5.855
10203POPC   GL159269  21.389  43.110   6.155
10203POPC   GL259270  21.414  42.966   6.155
10203POPC   C1A59271  21.344  43.160   6.455
10203POPC   D2A59272  21.360  43.063   6.755
10203POPC   C3A59273  21.416  43.093   7.055
10203POPC   C4A59274  21.411  43.124   7.355
10203POPC   C1B59275  21.509  42.921   6.455
10203POPC   C2B59276  21.519  42.854   6.755
10203POPC   C3B59277  21.455  42.873   7.055
10203POPC   C4B59278  21.470  42.885   7.355
10204POPC   NC359279  29.916   5.096   5.555
10204POPC   PO459280  29.895   5.055   5.855
10204POPC   GL159281  29.927   5.104   6.155
10204POPC   GL259282  29.825   5.152   6.155
10204POPC   C1A59283  29.959   5.105   6.455
10204POPC   D2A59284  29.876   5.098   6.755
10204POPC   C3A59285  29.913   5.108   7.055
10204POPC   C4A59286  29.968   5.066   7.355
10204POPC   C1B59287  29.800   5.301   6.455
10204POPC   C2B59288  29.777   5.341   6.755
10204POPC   C3B59289  29.770   5.323   7.055
10204POPC   C4B59290  29.796   5.261   7.355
10205POPC   NC359291  19.816  29.943   5.555
10205POPC   PO459292  19.874  29.933   5.855
10205POPC   GL159293  19.791  29.962   6.155
10205POPC   GL259294  19.721  29.980   6.155
10205POPC   C1A59295  19.820  29.906   6.455
10205POPC   D2A59296  19.845  29.937   6.755
10205POPC   C3A59297  19.852  29.958   7.055
10205POPC   C4A59298  19.817  29.924   7.355
10205POPC   C1B59299  19.627  30.014   6.455
10205POPC   C2B59300  19.649  30.051   6.755
10205POPC   C3B59301  19.633  30.091   7.055
10205POPC   C4B59302  19.605  30.055   7.355
10206POPC   NC359303   5.824   5.889   5.555
10206POPC   PO459304   5.904   5.894   5.855
10206POPC   GL159305   5.887   5.913   6.155
10206POPC   GL259306   5.807   5.787   6.155
10206POPC   C1A59307   5.831   5.885   6.455
10206POPC   D2A59308   5.910   5.841   6.755
10206POPC   C3A59309   5.909   5.828   7.055
10206POPC   C4A59310   5.882   5.843   7.355
10206POPC   C1B59311   5.827   5.621   6.455
10206POPC   C2B59312   5.808   5.627   6.755
10206POPC   C3B59313   5.754   5.608   7.055
10206POPC   C4B59314   5.752   5.593   7.355
10207POPC   NC359315  14.371  22.946   5.555
10207POPC   PO459316  14.421  22.943   5.855
10207POPC   GL159317  14.435  22.966   6.155
10207POPC   GL259318  14.337  23.051   6.155
10207POPC   C1A59319  14.379  22.938   6.455
10207POPC   D2A59320  14.406  22.944   6.755
10207POPC   C3A59321  14.445  22.955   7.055
10207POPC   C4A59322  14.363  22.893   7.355
10207POPC   C1B59323  14.322  23.130   6.455
10207POPC   C2B59324  14.288  23.179   6.755
10207POPC   C3B59325  14.295  23.196   7.055
10207POPC   C4B59326  14.318  23.153   7.355
10208POPC   NC359327   5.882   6.612   5.555
10208POPC   PO459328   5.909   6.607   5.855
10208POPC   GL159329   5.866   6.636   6.155
10208POPC   GL259330   5.791   6.747   6.155
10208POPC   C1A59331   5.909   6.598   6.455
10208POPC   D2A59332   5.847   6.633   6.755
10208POPC   C3A59333   5.849   6.615   7.055
10208POPC   C4A59334   5.888   6.612   7.355
10208POPC   C1B59335   5.847   6.911   6.455
10208POPC   C2B59336   5.777   6.885   6.755
10208POPC   C3B59337   5.781   6.846   7.055
10208POPC   C4B59338   5.805   6.907   7.355
10209POPC   NC359339  17.517  42.339   5.555
10209POPC   PO459340  17.477  42.336   5.855
10209POPC   GL159341  17.504  42.295   6.155
10209POPC   GL259342  17.597  42.253   6.155
10209POPC   C1A59343  17.490  42.360   6.455
10209POPC   D2A59344  17.542  42.345   6.755
10209POPC   C3A59345  17.495  42.352   7.055
10209POPC   C4A59346  17.521  42.345   7.355
10209POPC   C1B59347  17.604  42.174   6.455
10209POPC   C2B59348  17.647  42.115   6.755
10209POPC   C3B59349  17.657  42.149   7.055
10209POPC   C4B59350  17.610  42.111   7.355
10210POPC   NC359351  22.136  29.114   5.555
10210POPC   PO459352  22.171  29.097   5.855
10210POPC   GL159353  22.135  29.121   6.155
10210POPC   GL259354  22.152  29.237   6.155
10210POPC   C1A59355  22.193  29.145   6.455
10210POPC   D2A59356  22.197  29.180   6.755
10210POPC   C3A59357  22.193  29.121   7.055
10210POPC   C4A59358  22.150  29.147   7.355
10210POPC   C1B59359  22.129  29.402   6.455
10210POPC   C2B59360  22.164  29.360   6.755
10210POPC   C3B59361  22.135  29.358   7.055
10210POPC   C4B59362  22.211  29.414   7.355
10211POPC   NC359363  33.762  33.799   5.555
10211POPC   PO459364  33.819  33.825   5.855
10211POPC   GL159365  33.842  33.772   6.155
10211POPC   GL259366  33.640  33.857   6.155
10211POPC   C1A59367  33.753  33.802   6.455
10211POPC   D2A59368  33.758  33.836   6.755
10211POPC   C3A59369  33.776  33.762   7.055
10211POPC   C4A59370  33.789  33.808   7.355
10211POPC   C1B59371  33.535  33.871   6.455
10211POPC   C2B59372  33.513  33.864   6.755
10211POPC   C3B59373  33.598  33.813   7.055
10211POPC   C4B59374  33.575  33.896   7.355
10212POPC   NC359375  29.134   5.060   5.555
10212POPC   PO459376  29.141   5.086   5.855
10212POPC   GL159377  29.159   5.129   6.155
10212POPC   GL259378  29.221   4.993   6.155
10212POPC   C1A59379  29.131   5.062   6.455
10212POPC   D2A59380  29.095   5.109   6.755
10212POPC   C3A59381  29.157   5.103   7.055
10212POPC   C4A59382  29.121   5.091   7.355
10212POPC   C1B59383  29.382   4.968   6.455
10212POPC   C2B59384  29.309   4.887   6.755
10212POPC   C3B59385  29.344   4.979   7.055
10212POPC   C4B59386  29.375   4.950   7.355
10213POPC   NC359387   3.571  31.468   5.555
10213POPC   PO459388   3.502  31.501   5.855
10213POPC   GL159389   3.499  31.493   6.155
10213POPC   GL259390   3.499  31.582   6.155
10213POPC   C1A59391   3.551  31.441   6.455
10213POPC   D2A59392   3.578  31.435   6.755
10213POPC   C3A59393   3.492  31.478   7.055
10213POPC   C4A59394   3.590  31.456   7.355
10213POPC   C1B59395   3.366  31.669   6.455
10213POPC   C2B59396   3.399  31.679   6.755
10213POPC   C3B59397   3.391  31.666   7.055
10213POPC   C4B59398   3.390  31.699   7.355
10214POPC   NC359399  31.475  15.142   5.555
10214POPC   PO459400  31.441  15.214   5.855
10214POPC   GL159401  31.488  15.179   6.155
10214POPC   GL259402  31.606  15.225   6.155
10214POPC   C1A59403  31.445  15.177   6.455
10214POPC   D2A59404  31.465  15.224   6.755
10214POPC   C3A59405  31.519  15.138   7.055
10214POPC   C4A59406  31.497  15.135   7.355
10214POPC   C1B59407  31.688  15.273   6.455
10214POPC   C2B59408  31.672  15.271   6.755
10214POPC   C3B59409  31.692  15.252   7.055
10214POPC   C4B59410  31.734  15.308   7.355
10215POPC   NC359411  34.571   4.344   5.555
10215POPC   PO459412  34.588   4.276   5.855
10215POPC   GL159413  34.601   4.311   6.155
10215POPC   GL259414  34.697   4.381   6.155
10215POPC   C1A59415  34.544   4.345   6.455
10215POPC   D2A59416  34.601   4.329   6.755
10215POPC   C3A59417  34.598   4.307   7.055
10215POPC   C4A59418  34.602   4.353   7.355
10215POPC   C1B59419  34.799   4.444   6.455
10215POPC   C2B59420  34.782   4.490   6.755
10215POPC   C3B59421  34.753   4.476   7.055
10215POPC   C4B59422  34.716   4.448   7.355
10216POPC   NC359423   4.291   4.308   5.555
10216POPC   PO459424   4.343   4.276   5.855
10216POPC   GL159425   4.326   4.364   6.155
10216POPC   GL259426   4.392   4.349   6.155
10216POPC   C1A59427   4.325   4.362   6.455
10216POPC   D2A59428   4.304   4.288   6.755
10216POPC   C3A59429   4.295   4.268   7.055
10216POPC   C4A59430   4.298   4.285   7.355
10216POPC   C1B59431   4.574   4.436   6.455
10216POPC   C2B59432   4.544   4.426   6.755
10216POPC   C3B59433   4.584   4.386   7.055
10216POPC   C4B59434   4.584   4.393   7.355
10217POPC   NC359435  38.499   0.405   5.555
10217POPC   PO459436  38.427   0.453   5.855
10217POPC   GL159437  38.476   0.411   6.155
10217POPC   GL259438  38.417   0.319   6.155
10217POPC   C1A59439  38.406   0.480   6.455
10217POPC   D2A59440  38.489   0.402   6.755
10217POPC   C3A59441  38.424   0.444   7.055
10217POPC   C4A59442  38.465   0.443   7.355
10217POPC   C1B59443  38.391   0.241   6.455
10217POPC   C2B59444  38.387   0.180   6.755
10217POPC   C3B59445  38.431   0.165   7.055
10217POPC   C4B59446  38.451   0.161   7.355
10218POPC   NC359447  40.001   8.154   5.555
10218POPC   PO459448  40.028   8.202   5.855
10218POPC   GL159449  39.988   8.193   6.155
10218POPC   GL259450  39.871   8.221   6.155
10218POPC   C1A59451  40.017   8.155   6.455
10218POPC   D2A59452  39.967   8.240   6.755
10218POPC   C3A59453  40.048   8.166   7.055
10218POPC   C4A59454  39.996   8.168   7.355
10218POPC   C1B59455  39.792   8.231   6.455
10218POPC   C2B59456  39.799   8.296   6.755
10218POPC   C3B59457  39.757   8.221   7.055
10218POPC   C4B59458  39.753   8.294   7.355
10219POPC   NC359459  43.901  15.134   5.555
10219POPC   PO459460  43.921  15.141   5.855
10219POPC   GL159461  43.867  15.164   6.155
10219POPC   GL259462  43.964  15.288   6.155
10219POPC   C1A59463  43.904  15.202   6.455
10219POPC   D2A59464  43.869  15.187   6.755
10219POPC   C3A59465  43.885  15.131   7.055
10219POPC   C4A59466  43.893  15.189   7.355
10219POPC   C1B59467  44.064  15.305   6.455
10219POPC   C2B59468  44.125  15.271   6.755
10219POPC   C3B59469  44.141  15.315   7.055
10219POPC   C4B59470  44.057  15.303   7.355
10220POPC   NC359471  33.035  15.201   5.555
10220POPC   PO459472  32.985  15.141   5.855
10220POPC   GL159473  33.059  15.186   6.155
10220POPC   GL259474  33.024  15.082   6.155
10220POPC   C1A59475  33.071  15.131   6.455
10220POPC   D2A59476  33.024  15.149   6.755
10220POPC   C3A59477  33.017  15.203   7.055
10220POPC   C4A59478  33.014  15.139   7.355
10220POPC   C1B59479  33.060  14.956   6.455
10220POPC   C2B59480  33.035  14.917   6.755
10220POPC   C3B59481  33.052  14.903   7.055
10220POPC   C4B59482  33.061  14.897   7.355
10221POPC   NC359483  41.566  15.183   5.555
10221POPC   PO459484  41.529  15.166   5.855
10221POPC   GL159485  41.586  15.190   6.155
10221POPC   GL259486  41.540  15.298   6.155
10221POPC   C1A59487  41.527  15.145   6.455
10221POPC   D2A59488  41.599  15.159   6.755
10221POPC   C3A59489  41.524  15.180   7.055
10221POPC   C4A59490  41.548  15.184   7.355
10221POPC   C1B59491  41.579  15.391   6.455
10221POPC   C2B59492  41.515  15.413   6.755
10221POPC   C3B59493  41.531  15.460   7.055
10221POPC   C4B59494  41.569  15.382   7.355
10222POPC   NC359495  43.848  31.424   5.555
10222POPC   PO459496  43.924  31.465   5.855
10222POPC   GL159497  43.860  31.443   6.155
10222POPC   GL259498  43.874  31.635   6.155
10222POPC   C1A59499  43.903  31.515   6.455
10222POPC   D2A59500  43.861  31.458   6.755
10222POPC   C3A59501  43.923  31.455   7.055
10222POPC   C4A59502  43.887  31.466   7.355
10222POPC   C1B59503  43.858  31.692   6.455
10222POPC   C2B59504  43.902  31.680   6.755
10222POPC   C3B59505  43.890  31.726   7.055
10222POPC   C4B59506  43.859  31.717   7.355
10223POPC   NC359507  17.549  38.433   5.555
10223POPC   PO459508  17.492  38.497   5.855
10223POPC   GL159509  17.461  38.416   6.155
10223POPC   GL259510  17.394  38.556   6.155
10223POPC   C1A59511  17.497  38.465   6.455
10223POPC   D2A59512  17.532  38.500   6.755
10223POPC   C3A59513  17.544  38.462   7.055
10223POPC   C4A59514  17.486  38.422   7.355
10223POPC   C1B59515  17.283  38.590   6.455
10223POPC   C2B59516  17.333  38.679   6.755
10223POPC   C3B59517  17.292  38.637   7.055
10223POPC   C4B59518  17.304  38.663   7.355
10224POPC   NC359519  42.337  29.131   5.555
10224POPC   PO459520  42.338  29.132   5.855
10224POPC   GL159521  42.346  29.181   6.155
10224POPC   GL259522  42.265  29.040   6.155
10224POPC   C1A59523  42.328  29.150   6.455
10224POPC   D2A59524  42.343  29.127   6.755
10224POPC   C3A59525  42.378  29.188   7.055
10224POPC   C4A59526  42.287  29.129   7.355
10224POPC   C1B59527  42.152  29.014   6.455
10224POPC   C2B59528  42.121  29.001   6.755
10224POPC   C3B59529  42.160  28.975   7.055
10224POPC   C4B59530  42.088  28.954   7.355
10225POPC   NC359531   0.463   6.600   5.555
10225POPC   PO459532   0.427   6.623   5.855
10225POPC   GL159533   0.423   6.610   6.155
10225POPC   GL259534   0.351   6.762   6.155
10225POPC   C1A59535   0.395   6.616   6.455
10225POPC   D2A59536   0.402   6.607   6.755
10225POPC   C3A59537   0.390   6.689   7.055
10225POPC   C4A59538   0.436   6.658   7.355
10225POPC   C1B59539   0.203   6.789   6.455
10225POPC   C2B59540   0.190   6.810   6.755
10225POPC   C3B59541   0.230   6.799   7.055
10225POPC   C4B59542   0.258   6.751   7.355
10226POPC   NC359543  17.483  10.541   5.555
10226POPC   PO459544  17.524  10.494   5.855
10226POPC   GL159545  17.544  10.510   6.155
10226POPC   GL259546  17.530  10.372   6.155
10226POPC   C1A59547  17.486  10.564   6.455
10226POPC   D2A59548  17.526  10.523   6.755
10226POPC   C3A59549  17.469  10.520   7.055
10226POPC   C4A59550  17.532  10.518   7.355
10226POPC   C1B59551  17.484  10.245   6.455
10226POPC   C2B59552  17.549  10.260   6.755
10226POPC   C3B59553  17.541  10.273   7.055
10226POPC   C4B59554  17.517  10.286   7.355
10227POPC   NC359555  44.674   5.828   5.555
10227POPC   PO459556  44.650   5.899   5.855
10227POPC   GL159557  44.686   5.868   6.155
10227POPC   GL259558  44.687   5.709   6.155
10227POPC   C1A59559  44.660   5.849   6.455
10227POPC   D2A59560  44.647   5.877   6.755
10227POPC   C3A59561  44.636   5.839   7.055
10227POPC   C4A59562  44.656   5.829   7.355
10227POPC   C1B59563  44.732   5.630   6.455
10227POPC   C2B59564  44.771   5.581   6.755
10227POPC   C3B59565  44.698   5.622   7.055
10227POPC   C4B59566  44.683   5.580   7.355
10228POPC   NC359567  13.596   3.534   5.555
10228POPC   PO459568  13.635   3.561   5.855
10228POPC   GL159569  13.644   3.570   6.155
10228POPC   GL259570  13.578   3.394   6.155
10228POPC   C1A59571  13.583   3.520   6.455
10228POPC   D2A59572  13.622   3.529   6.755
10228POPC   C3A59573  13.644   3.499   7.055
10228POPC   C4A59574  13.664   3.555   7.355
10228POPC   C1B59575  13.585   3.325   6.455
10228POPC   C2B59576  13.569   3.330   6.755
10228POPC   C3B59577  13.496   3.292   7.055
10228POPC   C4B59578  13.545   3.300   7.355
10229POPC   NC359579  15.920  29.110   5.555
10229POPC   PO459580  15.981  29.180   5.855
10229POPC   GL159581  15.905  29.163   6.155
10229POPC   GL259582  15.817  29.170   6.155
10229POPC   C1A59583  15.932  29.178   6.455
10229POPC   D2A59584  15.942  29.164   6.755
10229POPC   C3A59585  15.967  29.096   7.055
10229POPC   C4A59586  15.981  29.101   7.355
10229POPC   C1B59587  15.738  29.132   6.455
10229POPC   C2B59588  15.662  29.165   6.755
10229POPC   C3B59589  15.700  29.205   7.055
10229POPC   C4B59590  15.724  29.170   7.355
10230POPC   NC359591  10.522  19.860   5.555
10230POPC   PO459592  10.504  19.788   5.855
10230POPC   GL159593  10.512  19.795   6.155
10230POPC   GL259594  10.421  19.869   6.155
10230POPC   C1A59595  10.545  19.800   6.455
10230POPC   D2A59596  10.540  19.875   6.755
10230POPC   C3A59597  10.530  19.847   7.055
10230POPC   C4A59598  10.561  19.837   7.355
10230POPC   C1B59599  10.322  19.922   6.455
10230POPC   C2B59600  10.304  19.898   6.755
10230POPC   C3B59601  10.319  19.898   7.055
10230POPC   C4B59602  10.250  19.939   7.355
10231POPC   NC359603   5.047  12.828   5.555
10231POPC   PO459604   5.072  12.842   5.855
10231POPC   GL159605   5.127  12.875   6.155
10231POPC   GL259606   5.110  12.716   6.155
10231POPC   C1A59607   5.051  12.873   6.455
10231POPC   D2A59608   5.048  12.841   6.755
10231POPC   C3A59609   5.049  12.834   7.055
10231POPC   C4A59610   5.053  12.882   7.355
10231POPC   C1B59611   5.141  12.577   6.455
10231POPC   C2B59612   5.098  12.640   6.755
10231POPC   C3B59613   5.069  12.571   7.055
10231POPC   C4B59614   5.100  12.621   7.355
10232POPC   NC359615  33.806  25.248   5.555
10232POPC   PO459616  33.770  25.246   5.855
10232POPC   GL159617  33.799  25.267   6.155
10232POPC   GL259618  33.838  25.152   6.155
10232POPC   C1A59619  33.759  25.228   6.455
10232POPC   D2A59620  33.829  25.261   6.755
10232POPC   C3A59621  33.835  25.234   7.055
10232POPC   C4A59622  33.814  25.237   7.355
10232POPC   C1B59623  33.835  24.984   6.455
10232POPC   C2B59624  33.792  24.966   6.755
10232POPC   C3B59625  33.742  25.044   7.055
10232POPC   C4B59626  33.786  24.974   7.355
10233POPC   NC359627   3.559  37.670   5.555
10233POPC   PO459628   3.498  37.688   5.855
10233POPC   GL159629   3.514  37.676   6.155
10233POPC   GL259630   3.449  37.535   6.155
10233POPC   C1A59631   3.506  37.729   6.455
10233POPC   D2A59632   3.584  37.673   6.755
10233POPC   C3A59633   3.549  37.706   7.055
10233POPC   C4A59634   3.504  37.670   7.355
10233POPC   C1B59635   3.371  37.501   6.455
10233POPC   C2B59636   3.396  37.477   6.755
10233POPC   C3B59637   3.380  37.439   7.055
10233POPC   C4B59638   3.382  37.498   7.355
10234POPC   NC359639  43.922  24.493   5.555
10234POPC   PO459640  43.923  24.533   5.855
10234POPC   GL159641  43.847  24.448   6.155
10234POPC   GL259642  43.796  24.496   6.155
10234POPC   C1A59643  43.918  24.503   6.455
10234POPC   D2A59644  43.844  24.508   6.755
10234POPC   C3A59645  43.871  24.486   7.055
10234POPC   C4A59646  43.890  24.486   7.355
10234POPC   C1B59647  43.611  24.508   6.455
10234POPC   C2B59648  43.603  24.547   6.755
10234POPC   C3B59649  43.661  24.593   7.055
10234POPC   C4B59650  43.679  24.572   7.355
10235POPC   NC359651  44.701  33.807   5.555
10235POPC   PO459652  44.669  33.834   5.855
10235POPC   GL159653  44.686  33.796   6.155
10235POPC   GL259654  44.756  33.742   6.155
10235POPC   C1A59655  44.668  33.777   6.455
10235POPC   D2A59656  44.666  33.822   6.755
10235POPC   C3A59657  44.646  33.776   7.055
10235POPC   C4A59658  44.624  33.831   7.355
10235POPC   C1B59659  44.915  33.718   6.455
10235POPC   C2B59660  44.873  33.695   6.755
10235POPC   C3B59661  44.920  33.725   7.055
10235POPC   C4B59662  44.916  33.676   7.355
10236POPC   NC359663   2.029  13.649   5.555
10236POPC   PO459664   2.007  13.589   5.855
10236POPC   GL159665   1.995  13.622   6.155
10236POPC   GL259666   1.942  13.778   6.155
10236POPC   C1A59667   2.023  13.639   6.455
10236POPC   D2A59668   2.017  13.659   6.755
10236POPC   C3A59669   1.995  13.654   7.055
10236POPC   C4A59670   2.019  13.582   7.355
10236POPC   C1B59671   1.914  13.879   6.455
10236POPC   C2B59672   1.859  13.865   6.755
10236POPC   C3B59673   1.888  13.822   7.055
10236POPC   C4B59674   1.905  13.902   7.355
10237POPC   NC359675  41.598  22.952   5.555
10237POPC   PO459676  41.558  22.950   5.855
10237POPC   GL159677  41.572  22.909   6.155
10237POPC   GL259678  41.679  22.993   6.155
10237POPC   C1A59679  41.534  22.923   6.455
10237POPC   D2A59680  41.594  22.896   6.755
10237POPC   C3A59681  41.566  22.893   7.055
10237POPC   C4A59682  41.537  22.940   7.355
10237POPC   C1B59683  41.747  23.104   6.455
10237POPC   C2B59684  41.684  23.147   6.755
10237POPC   C3B59685  41.669  23.155   7.055
10237POPC   C4B59686  41.696  23.153   7.355
10238POPC   NC359687   4.295   5.134   5.555
10238POPC   PO459688   4.319   5.068   5.855
10238POPC   GL159689   4.359   5.076   6.155
10238POPC   GL259690   4.443   5.145   6.155
10238POPC   C1A59691   4.293   5.078   6.455
10238POPC   D2A59692   4.313   5.055   6.755
10238POPC   C3A59693   4.297   5.122   7.055
10238POPC   C4A59694   4.275   5.138   7.355
10238POPC   C1B59695   4.612   5.138   6.455
10238POPC   C2B59696   4.539   5.112   6.755
10238POPC   C3B59697   4.615   5.105   7.055
10238POPC   C4B59698   4.526   5.113   7.355
10239POPC   NC359699  19.840  28.353   5.555
10239POPC   PO459700  19.875  28.412   5.855
10239POPC   GL159701  19.858  28.322   6.155
10239POPC   GL259702  19.734  28.361   6.155
10239POPC   C1A59703  19.852  28.415   6.455
10239POPC   D2A59704  19.846  28.357   6.755
10239POPC   C3A59705  19.842  28.393   7.055
10239POPC   C4A59706  19.792  28.354   7.355
10239POPC   C1B59707  19.587  28.408   6.455
10239POPC   C2B59708  19.639  28.443   6.755
10239POPC   C3B59709  19.563  28.433   7.055
10239POPC   C4B59710  19.583  28.406   7.355
10240POPC   NC359711  16.720   4.363   5.555
10240POPC   PO459712  16.700   4.337   5.855
10240POPC   GL159713  16.687   4.271   6.155
10240POPC   GL259714  16.787   4.223   6.155
10240POPC   C1A59715  16.720   4.329   6.455
10240POPC   D2A59716  16.737   4.319   6.755
10240POPC   C3A59717  16.772   4.360   7.055
10240POPC   C4A59718  16.744   4.275   7.355
10240POPC   C1B59719  16.927   4.099   6.455
10240POPC   C2B59720  16.895   4.148   6.755
10240POPC   C3B59721  16.957   4.178   7.055
10240POPC   C4B59722  16.888   4.160   7.355
10241POPC   NC359723   2.028  25.298   5.555
10241POPC   PO459724   1.996  25.263   5.855
10241POPC   GL159725   1.957  25.237   6.155
10241POPC   GL259726   2.134  25.195   6.155
10241POPC   C1A59727   2.029  25.244   6.455
10241POPC   D2A59728   2.001  25.279   6.755
10241POPC   C3A59729   2.003  25.239   7.055
10241POPC   C4A59730   2.038  25.312   7.355
10241POPC   C1B59731   2.157  25.156   6.455
10241POPC   C2B59732   2.205  25.082   6.755
10241POPC   C3B59733   2.230  25.093   7.055
10241POPC   C4B59734   2.223  25.157   7.355
10242POPC   NC359735   1.949  43.923   5.555
10242POPC   PO459736   1.950  43.856   5.855
10242POPC   GL159737   1.997  43.890   6.155
10242POPC   GL259738   2.035  43.771   6.155
10242POPC   C1A59739   2.017  43.934   6.455
10242POPC   D2A59740   1.952  43.850   6.755
10242POPC   C3A59741   2.029  43.894   7.055
10242POPC   C4A59742   2.002  43.839   7.355
10242POPC   C1B59743   1.990  43.648   6.455
10242POPC   C2B59744   2.063  43.668   6.755
10242POPC   C3B59745   2.033  43.641   7.055
10242POPC   C4B59746   1.998  43.633   7.355
10243POPC   NC359747  24.521  43.151   5.555
10243POPC   PO459748  24.503  43.160   5.855
10243POPC   GL159749  24.454  43.098   6.155
10243POPC   GL259750  24.362  43.163   6.155
10243POPC   C1A59751  24.451  43.137   6.455
10243POPC   D2A59752  24.508  43.158   6.755
10243POPC   C3A59753  24.535  43.123   7.055
10243POPC   C4A59754  24.504  43.076   7.355
10243POPC   C1B59755  24.295  43.174   6.455
10243POPC   C2B59756  24.297  43.226   6.755
10243POPC   C3B59757  24.242  43.176   7.055
10243POPC   C4B59758  24.293  43.254   7.355
10244POPC   NC359759  33.818   5.073   5.555
10244POPC   PO459760  33.751   5.116   5.855
10244POPC   GL159761  33.827   5.058   6.155
10244POPC   GL259762  33.752   4.983   6.155
10244POPC   C1A59763  33.750   5.103   6.455
10244POPC   D2A59764  33.824   5.111   6.755
10244POPC   C3A59765  33.829   5.118   7.055
10244POPC   C4A59766  33.832   5.086   7.355
10244POPC   C1B59767  33.677   4.859   6.455
10244POPC   C2B59768  33.661   4.905   6.755
10244POPC   C3B59769  33.634   4.915   7.055
10244POPC   C4B59770  33.657   4.840   7.355
10245POPC   NC359771   1.245  37.657   5.555
10245POPC   PO459772   1.210  37.678   5.855
10245POPC   GL159773   1.227  37.714   6.155
10245POPC   GL259774   1.059  37.685   6.155
10245POPC   C1A59775   1.214  37.717   6.455
10245POPC   D2A59776   1.263  37.686   6.755
10245POPC   C3A59777   1.261  37.669   7.055
10245POPC   C4A59778   1.175  37.678   7.355
10245POPC   C1B59779   0.948  37.637   6.455
10245POPC   C2B59780   0.950  37.668   6.755
10245POPC   C3B59781   0.994  37.626   7.055
10245POPC   C4B59782   0.953  37.663   7.355
10246POPC   NC359783  14.429  40.815   5.555
10246POPC   PO459784  14.404  40.769   5.855
10246POPC   GL159785  14.375  40.745   6.155
10246POPC   GL259786  14.447  40.949   6.155
10246POPC   C1A59787  14.425  40.791   6.455
10246POPC   D2A59788  14.416  40.747   6.755
10246POPC   C3A59789  14.371  40.783   7.055
10246POPC   C4A59790  14.440  40.809   7.355
10246POPC   C1B59791  14.447  40.981   6.455
10246POPC   C2B59792  14.455  41.042   6.755
10246POPC   C3B59793  14.454  41.016   7.055
10246POPC   C4B59794  14.451  41.012   7.355
10247POPC   NC359795  19.061  26.045   5.555
10247POPC   PO459796  19.100  26.070   5.855
10247POPC   GL159797  19.072  26.034   6.155
10247POPC   GL259798  18.951  26.059   6.155
10247POPC   C1A59799  19.097  26.040   6.455
10247POPC   D2A59800  19.067  26.034   6.755
10247POPC   C3A59801  19.055  25.998   7.055
10247POPC   C4A59802  19.052  26.009   7.355
10247POPC   C1B59803  18.817  26.027   6.455
10247POPC   C2B59804  18.799  26.005   6.755
10247POPC   C3B59805  18.779  26.004   7.055
10247POPC   C4B59806  18.795  25.994   7.355
10248POPC   NC359807  13.640  32.211   5.555
10248POPC   PO459808  13.667  32.200   5.855
10248POPC   GL159809  13.630  32.239   6.155
10248POPC   GL259810  13.542  32.369   6.155
10248POPC   C1A59811  13.649  32.199   6.455
10248POPC   D2A59812  13.587  32.260   6.755
10248POPC   C3A59813  13.626  32.232   7.055
10248POPC   C4A59814  13.669  32.279   7.355
10248POPC   C1B59815  13.387  32.366   6.455
10248POPC   C2B59816  13.388  32.430   6.755
10248POPC   C3B59817  13.421  32.453   7.055
10248POPC   C4B59818  13.418  32.451   7.355
10249POPC   NC359819  33.026  44.647   5.555
10249POPC   PO459820  33.018  44.693   5.855
10249POPC   GL159821  32.987  44.652   6.155
10249POPC   GL259822  33.132  44.554   6.155
10249POPC   C1A59823  33.016  44.658   6.455
10249POPC   D2A59824  33.011  44.616   6.755
10249POPC   C3A59825  32.979  44.643   7.055
10249POPC   C4A59826  33.071  44.675   7.355
10249POPC   C1B59827  33.188  44.438   6.455
10249POPC   C2B59828  33.188  44.480   6.755
10249POPC   C3B59829  33.120  44.450   7.055
10249POPC   C4B59830  33.150  44.452   7.355
10250POPC   NC359831  14.429  36.147   5.555
10250POPC   PO459832  14.431  36.146   5.855
10250POPC   GL159833  14.394  36.168   6.155
10250POPC   GL259834  14.353  36.222   6.155
10250POPC   C1A59835  14.405  36.111   6.455
10250POPC   D2A59836  14.445  36.172   6.755
10250POPC   C3A59837  14.357  36.139   7.055
10250POPC   C4A59838  14.382  36.121   7.355
10250POPC   C1B59839  14.402  36.337   6.455
10250POPC   C2B59840  14.375  36.420   6.755
10250POPC   C3B59841  14.329  36.372   7.055
10250POPC   C4B59842  14.328  36.375   7.355
10251POPC   NC359843   3.544  44.652   5.555
10251POPC   PO459844   3.537  44.622   5.855
10251POPC   GL159845   3.566  44.634   6.155
10251POPC   GL259846   3.580  44.560   6.155
10251POPC   C1A59847   3.511  44.663   6.455
10251POPC   D2A59848   3.508  44.660   6.755
10251POPC   C3A59849   3.563  44.615   7.055
10251POPC   C4A59850   3.534  44.664   7.355
10251POPC   C1B59851   3.553  44.425   6.455
10251POPC   C2B59852   3.591  44.371   6.755
10251POPC   C3B59853   3.586  44.375   7.055
10251POPC   C4B59854   3.583  44.449   7.355
10252POPC   NC359855  34.582   0.480   5.555
10252POPC   PO459856  34.565   0.406   5.855
10252POPC   GL159857  34.610   0.438   6.155
10252POPC   GL259858  34.661   0.575   6.155
10252POPC   C1A59859  34.536   0.423   6.455
10252POPC   D2A59860  34.527   0.467   6.755
10252POPC   C3A59861  34.611   0.484   7.055
10252POPC   C4A59862  34.569   0.431   7.355
10252POPC   C1B59863  34.650   0.666   6.455
10252POPC   C2B59864  34.700   0.652   6.755
10252POPC   C3B59865  34.701   0.708   7.055
10252POPC   C4B59866  34.624   0.665   7.355
10253POPC   NC359867  29.106  33.833   5.555
10253POPC   PO459868  29.109  33.845   5.855
10253POPC   GL159869  29.181  33.827   6.155
10253POPC   GL259870  29.239  33.791   6.155
10253POPC   C1A59871  29.162  33.824   6.455
10253POPC   D2A59872  29.189  33.830   6.755
10253POPC   C3A59873  29.177  33.780   7.055
10253POPC   C4A59874  29.138  33.849   7.355
10253POPC   C1B59875  29.364  33.771   6.455
10253POPC   C2B59876  29.375  33.818   6.755
10253POPC   C3B59877  29.375  33.789   7.055
10253POPC   C4B59878  29.356  33.834   7.355
10254POPC   NC359879   2.783   0.435   5.555
10254POPC   PO459880   2.745   0.424   5.855
10254POPC   GL159881   2.800   0.445   6.155
10254POPC   GL259882   2.655   0.302   6.155
10254POPC   C1A59883   2.729   0.469   6.455
10254POPC   D2A59884   2.739   0.392   6.755
10254POPC   C3A59885   2.811   0.440   7.055
10254POPC   C4A59886   2.744   0.435   7.355
10254POPC   C1B59887   2.656   0.202   6.455
10254POPC   C2B59888   2.576   0.287   6.755
10254POPC   C3B59889   2.646   0.251   7.055
10254POPC   C4B59890   2.606   0.236   7.355
10255POPC   NC359891  22.889  34.558   5.555
10255POPC   PO459892  22.931  34.593   5.855
10255POPC   GL159893  22.925  34.589   6.155
10255POPC   GL259894  22.822  34.646   6.155
10255POPC   C1A59895  22.981  34.582   6.455
10255POPC   D2A59896  22.937  34.547   6.755
10255POPC   C3A59897  22.921  34.527   7.055
10255POPC   C4A59898  22.898  34.548   7.355
10255POPC   C1B59899  22.787  34.758   6.455
10255POPC   C2B59900  22.790  34.788   6.755
10255POPC   C3B59901  22.797  34.744   7.055
10255POPC   C4B59902  22.739  34.734   7.355
10256POPC   NC359903  38.448   5.132   5.555
10256POPC   PO459904  38.455   5.119   5.855
10256POPC   GL159905  38.482   5.085   6.155
10256POPC   GL259906  38.415   5.155   6.155
10256POPC   C1A59907  38.502   5.077   6.455
10256POPC   D2A59908  38.500   5.103   6.755
10256POPC   C3A59909  38.473   5.070   7.055
10256POPC   C4A59910  38.451   5.086   7.355
10256POPC   C1B59911  38.272   5.263   6.455
10256POPC   C2B59912  38.255   5.287   6.755
10256POPC   C3B59913  38.327   5.258   7.055
10256POPC   C4B59914  38.301   5.241   7.355
10257POPC   NC359915  39.193  30.657   5.555
10257POPC   PO459916  39.267  30.674   5.855
10257POPC   GL159917  39.196  30.648   6.155
10257POPC   GL259918  39.129  30.637   6.155
10257POPC   C1A59919  39.249  30.691   6.455
10257POPC   D2A59920  39.203  30.696   6.755
10257POPC   C3A59921  39.211  30.734   7.055
10257POPC   C4A59922  39.261  30.649   7.355
10257POPC   C1B59923  38.971  30.596   6.455
10257POPC   C2B59924  39.001  30.688   6.755
10257POPC   C3B59925  39.033  30.676   7.055
10257POPC   C4B59926  39.027  30.620   7.355
10258POPC   NC359927  16.688  44.640   5.555
10258POPC   PO459928  16.759  44.613   5.855
10258POPC   GL159929  16.746  44.688   6.155
10258POPC   GL259930  16.863  44.624   6.155
10258POPC   C1A59931  16.700  44.697   6.455
10258POPC   D2A59932  16.695  44.687   6.755
10258POPC   C3A59933  16.690  44.631   7.055
10258POPC   C4A59934  16.710  44.637   7.355
10258POPC   C1B59935  16.942  44.497   6.455
10258POPC   C2B59936  16.960  44.553   6.755
10258POPC   C3B59937  16.985  44.549   7.055
10258POPC   C4B59938  16.914  44.572   7.355
10259POPC   NC359939  27.569  15.229   5.555
10259POPC   PO459940  27.577  15.196   5.855
10259POPC   GL159941  27.595  15.224   6.155
10259POPC   GL259942  27.644  15.302   6.155
10259POPC   C1A59943  27.616  15.165   6.455
10259POPC   D2A59944  27.581  15.187   6.755
10259POPC   C3A59945  27.616  15.217   7.055
10259POPC   C4A59946  27.621  15.174   7.355
10259POPC   C1B59947  27.806  15.333   6.455
10259POPC   C2B59948  27.789  15.401   6.755
10259POPC   C3B59949  27.730  15.368   7.055
10259POPC   C4B59950  27.791  15.319   7.355
10260POPC   NC359951  10.527   8.173   5.555
10260POPC   PO459952  10.567   8.237   5.855
10260POPC   GL159953  10.571   8.246   6.155
10260POPC   GL259954  10.449   8.225   6.155
10260POPC   C1A59955  10.567   8.184   6.455
10260POPC   D2A59956  10.515   8.162   6.755
10260POPC   C3A59957  10.532   8.213   7.055
10260POPC   C4A59958  10.480   8.245   7.355
10260POPC   C1B59959  10.324   8.252   6.455
10260POPC   C2B59960  10.268   8.178   6.755
10260POPC   C3B59961  10.317   8.225   7.055
10260POPC   C4B59962  10.243   8.186   7.355
10261POPC   NC359963  29.116  34.531   5.555
10261POPC   PO459964  29.114  34.599   5.855
10261POPC   GL159965  29.109  34.552   6.155
10261POPC   GL259966  29.063  34.625   6.155
10261POPC   C1A59967  29.126  34.582   6.455
10261POPC   D2A59968  29.180  34.541   6.755
10261POPC   C3A59969  29.163  34.559   7.055
10261POPC   C4A59970  29.100  34.593   7.355
10261POPC   C1B59971  28.998  34.711   6.455
10261POPC   C2B59972  28.971  34.743   6.755
10261POPC   C3B59973  28.962  34.805   7.055
10261POPC   C4B59974  28.999  34.792   7.355
10262POPC   NC359975   9.766  10.567   5.555
10262POPC   PO459976   9.735  10.522   5.855
10262POPC   GL159977   9.766  10.540   6.155
10262POPC   GL259978   9.645  10.446   6.155
10262POPC   C1A59979   9.749  10.568   6.455
10262POPC   D2A59980   9.773  10.484   6.755
10262POPC   C3A59981   9.704  10.478   7.055
10262POPC   C4A59982   9.706  10.498   7.355
10262POPC   C1B59983   9.521  10.426   6.455
10262POPC   C2B59984   9.496  10.385   6.755
10262POPC   C3B59985   9.486  10.433   7.055
10262POPC   C4B59986   9.528  10.371   7.355
10263POPC   NC359987  21.355  23.709   5.555
10263POPC   PO459988  21.390  23.711   5.855
10263POPC   GL159989  21.355  23.732   6.155
10263POPC   GL259990  21.408  23.608   6.155
10263POPC   C1A59991  21.414  23.727   6.455
10263POPC   D2A59992  21.376  23.756   6.755
10263POPC   C3A59993  21.373  23.752   7.055
10263POPC   C4A59994  21.401  23.686   7.355
10263POPC   C1B59995  21.350  23.504   6.455
10263POPC   C2B59996  21.332  23.490   6.755
10263POPC   C3B59997  21.335  23.427   7.055
10263POPC   C4B59998  21.398  23.499   7.355
10264POPC   NC359999  43.926  12.086   5.555
10264POPC   PO460000  43.871  12.029   5.855
10264POPC   GL160001  43.846  12.095   6.155
10264POPC   GL260002  43.818  12.181   6.155
10264POPC   C1A60003  43.909  12.116   6.455
10264POPC   D2A60004  43.934  12.102   6.755
10264POPC   C3A60005  43.848  12.068   7.055
10264POPC   C4A60006  43.906  12.079   7.355
10264POPC   C1B60007  43.699  12.224   6.455
10264POPC   C2B60008  43.674  12.203   6.755
10264POPC   C3B60009  43.648  12.208   7.055
10264POPC   C4B60010  43.701  12.145   7.355
10265POPC   NC360011  15.194   0.397   5.555
10265POPC   PO460012  15.191   0.440   5.855
10265POPC   GL160013  15.170   0.453   6.155
10265POPC   GL260014  15.311   0.328   6.155
10265POPC   C1A60015  15.226   0.479   6.455
10265POPC   D2A60016  15.190   0.423   6.755
10265POPC   C3A60017  15.181   0.467   7.055
10265POPC   C4A60018  15.185   0.409   7.355
10265POPC   C1B60019  15.385   0.295   6.455
10265POPC   C2B60020  15.408   0.346   6.755
10265POPC   C3B60021  15.387   0.289   7.055
10265POPC   C4B60022  15.426   0.259   7.355
10266POPC   NC360023  37.728  27.635   5.555
10266POPC   PO460024  37.725  27.586   5.855
10266POPC   GL160025  37.727  27.610   6.155
10266POPC   GL260026  37.636  27.716   6.155
10266POPC   C1A60027  37.635  27.639   6.455
10266POPC   D2A60028  37.705  27.636   6.755
10266POPC   C3A60029  37.700  27.608   7.055
10266POPC   C4A60030  37.651  27.563   7.355
10266POPC   C1B60031  37.562  27.860   6.455
10266POPC   C2B60032  37.618  27.823   6.755
10266POPC   C3B60033  37.548  27.816   7.055
10266POPC   C4B60034  37.605  27.871   7.355
10267POPC   NC360035  19.824   3.512   5.555
10267POPC   PO460036  19.841   3.540   5.855
10267POPC   GL160037  19.832   3.517   6.155
10267POPC   GL260038  19.908   3.614   6.155
10267POPC   C1A60039  19.801   3.535   6.455
10267POPC   D2A60040  19.846   3.529   6.755
10267POPC   C3A60041  19.826   3.522   7.055
10267POPC   C4A60042  19.853   3.587   7.355
10267POPC   C1B60043  20.043   3.628   6.455
10267POPC   C2B60044  20.058   3.613   6.755
10267POPC   C3B60045  20.060   3.642   7.055
10267POPC   C4B60046  20.050   3.592   7.355
10268POPC   NC360047  11.272  22.140   5.555
10268POPC   PO460048  11.323  22.119   5.855
10268POPC   GL160049  11.262  22.203   6.155
10268POPC   GL260050  11.163  22.159   6.155
10268POPC   C1A60051  11.296  22.189   6.455
10268POPC   D2A60052  11.337  22.175   6.755
10268POPC   C3A60053  11.288  22.207   7.055
10268POPC   C4A60054  11.347  22.185   7.355
10268POPC   C1B60055  11.040  22.102   6.455
10268POPC   C2B60056  11.082  22.131   6.755
10268POPC   C3B60057  11.029  22.071   7.055
10268POPC   C4B60058  11.068  22.061   7.355
10269POPC   NC360059  43.072  27.549   5.555
10269POPC   PO460060  43.093  27.569   5.855
10269POPC   GL160061  43.105  27.615   6.155
10269POPC   GL260062  43.089  27.746   6.155
10269POPC   C1A60063  43.085  27.568   6.455
10269POPC   D2A60064  43.151  27.586   6.755
10269POPC   C3A60065  43.076  27.580   7.055
10269POPC   C4A60066  43.108  27.560   7.355
10269POPC   C1B60067  43.052  27.858   6.455
10269POPC   C2B60068  43.067  27.835   6.755
10269POPC   C3B60069  43.051  27.832   7.055
10269POPC   C4B60070  43.035  27.789   7.355
10270POPC   NC360071  37.704  40.760   5.555
10270POPC   PO460072  37.659  40.810   5.855
10270POPC   GL160073  37.631  40.826   6.155
10270POPC   GL260074  37.601  40.716   6.155
10270POPC   C1A60075  37.678  40.800   6.455
10270POPC   D2A60076  37.719  40.764   6.755
10270POPC   C3A60077  37.672  40.774   7.055
10270POPC   C4A60078  37.674  40.826   7.355
10270POPC   C1B60079  37.435  40.686   6.455
10270POPC   C2B60080  37.486  40.679   6.755
10270POPC   C3B60081  37.485  40.762   7.055
10270POPC   C4B60082  37.469  40.694   7.355
10271POPC   NC360083  36.078  35.336   5.555
10271POPC   PO460084  36.157  35.395   5.855
10271POPC   GL160085  36.085  35.390   6.155
10271POPC   GL260086  36.191  35.268   6.155
10271POPC   C1A60087  36.142  35.364   6.455
10271POPC   D2A60088  36.163  35.388   6.755
10271POPC   C3A60089  36.128  35.302   7.055
10271POPC   C4A60090  36.090  35.343   7.355
10271POPC   C1B60091  36.173  35.129   6.455
10271POPC   C2B60092  36.257  35.132   6.755
10271POPC   C3B60093  36.228  35.121   7.055
10271POPC   C4B60094  36.168  35.088   7.355
10272POPC   NC360095  22.150  19.873   5.555
10272POPC   PO460096  22.180  19.786   5.855
10272POPC   GL160097  22.168  19.824   6.155
10272POPC   GL260098  22.293  19.754   6.155
10272POPC   C1A60099  22.115  19.804   6.455
10272POPC   D2A60100  22.142  19.814   6.755
10272POPC   C3A60101  22.183  19.820   7.055
10272POPC   C4A60102  22.145  19.794   7.355
10272POPC   C1B60103  22.353  19.699   6.455
10272POPC   C2B60104  22.401  19.738   6.755
10272POPC   C3B60105  22.357  19.724   7.055
10272POPC   C4B60106  22.326  19.661   7.355
10273POPC   NC360107  39.197  20.634   5.555
10273POPC   PO460108  39.279  20.656   5.855
10273POPC   GL160109  39.256  20.605   6.155
10273POPC   GL260110  39.385  20.574   6.155
10273POPC   C1A60111  39.261  20.564   6.455
10273POPC   D2A60112  39.199  20.612   6.755
10273POPC   C3A60113  39.263  20.645   7.055
10273POPC   C4A60114  39.260  20.644   7.355
10273POPC   C1B60115  39.470  20.528   6.455
10273POPC   C2B60116  39.486  20.542   6.755
10273POPC   C3B60117  39.497  20.546   7.055
10273POPC   C4B60118  39.520  20.594   7.355
10274POPC   NC360119   0.432  27.639   5.555
10274POPC   PO460120   0.460  27.580   5.855
10274POPC   GL160121   0.477  27.604   6.155
10274POPC   GL260122   0.481  27.505   6.155
10274POPC   C1A60123   0.483  27.550   6.455
10274POPC   D2A60124   0.421  27.566   6.755
10274POPC   C3A60125   0.478  27.597   7.055
10274POPC   C4A60126   0.438  27.609   7.355
10274POPC   C1B60127   0.465  27.304   6.455
10274POPC   C2B60128   0.464  27.381   6.755
10274POPC   C3B60129   0.520  27.332   7.055
10274POPC   C4B60130   0.508  27.325   7.355
10275POPC   NC360131  33.758  32.993   5.555
10275POPC   PO460132  33.753  32.988   5.855
10275POPC   GL160133  33.836  32.983   6.155
10275POPC   GL260134  33.883  32.884   6.155
10275POPC   C1A60135  33.776  33.017   6.455
10275POPC   D2A60136  33.847  32.982   6.755
10275POPC   C3A60137  33.761  33.032   7.055
10275POPC   C4A60138  33.836  33.015   7.355
10275POPC   C1B60139  33.959  32.793   6.455
10275POPC   C2B60140  33.894  32.774   6.755
10275POPC   C3B60141  33.931  32.796   7.055
10275POPC   C4B60142  33.930  32.787   7.355
10276POPC   NC360143  12.089  32.251   5.555
10276POPC   PO460144  12.110  32.217   5.855
10276POPC   GL160145  12.059  32.209   6.155
10276POPC   GL260146  11.977  32.220   6.155
10276POPC   C1A60147  12.114  32.271   6.455
10276POPC   D2A60148  12.074  32.279   6.755
10276POPC   C3A60149  12.047  32.276   7.055
10276POPC   C4A60150  12.051  32.266   7.355
10276POPC   C1B60151  11.857  32.143   6.455
10276POPC   C2B60152  11.806  32.165   6.755
10276POPC   C3B60153  11.828  32.096   7.055
10276POPC   C4B60154  11.876  32.134   7.355
10277POPC   NC360155  23.733  16.690   5.555
10277POPC   PO460156  23.675  16.713   5.855
10277POPC   GL160157  23.676  16.692   6.155
10277POPC   GL260158  23.714  16.811   6.155
10277POPC   C1A60159  23.674  16.748   6.455
10277POPC   D2A60160  23.734  16.773   6.755
10277POPC   C3A60161  23.696  16.696   7.055
10277POPC   C4A60162  23.703  16.716   7.355
10277POPC   C1B60163  23.791  16.978   6.455
10277POPC   C2B60164  23.774  17.001   6.755
10277POPC   C3B60165  23.789  16.998   7.055
10277POPC   C4B60166  23.780  16.972   7.355
10278POPC   NC360167  38.458  19.094   5.555
10278POPC   PO460168  38.488  19.068   5.855
10278POPC   GL160169  38.463  19.079   6.155
10278POPC   GL260170  38.444  19.131   6.155
10278POPC   C1A60171  38.413  19.094   6.455
10278POPC   D2A60172  38.406  19.039   6.755
10278POPC   C3A60173  38.453  19.047   7.055
10278POPC   C4A60174  38.466  19.020   7.355
10278POPC   C1B60175  38.414  19.279   6.455
10278POPC   C2B60176  38.425  19.278   6.755
10278POPC   C3B60177  38.383  19.303   7.055
10278POPC   C4B60178  38.409  19.331   7.355
10279POPC   NC360179  34.607   3.525   5.555
10279POPC   PO460180  34.561   3.578   5.855
10279POPC   GL160181  34.563   3.561   6.155
10279POPC   GL260182  34.449   3.560   6.155
10279POPC   C1A60183  34.625   3.513   6.455
10279POPC   D2A60184  34.540   3.573   6.755
10279POPC   C3A60185  34.611   3.543   7.055
10279POPC   C4A60186  34.549   3.572   7.355
10279POPC   C1B60187  34.303   3.559   6.455
10279POPC   C2B60188  34.312   3.581   6.755
10279POPC   C3B60189  34.326   3.540   7.055
10279POPC   C4B60190  34.335   3.609   7.355
10280POPC   NC360191  30.697  13.649   5.555
10280POPC   PO460192  30.744  13.642   5.855
10280POPC   GL160193  30.648  13.649   6.155
10280POPC   GL260194  30.575  13.671   6.155
10280POPC   C1A60195  30.710  13.654   6.455
10280POPC   D2A60196  30.698  13.587   6.755
10280POPC   C3A60197  30.744  13.645   7.055
10280POPC   C4A60198  30.740  13.580   7.355
10280POPC   C1B60199  30.462  13.786   6.455
10280POPC   C2B60200  30.491  13.799   6.755
10280POPC   C3B60201  30.520  13.802   7.055
10280POPC   C4B60202  30.499  13.770   7.355
10281POPC   NC360203  12.898   8.181   5.555
10281POPC   PO460204  12.875   8.186   5.855
10281POPC   GL160205  12.822   8.156   6.155
10281POPC   GL260206  12.806   8.267   6.155
10281POPC   C1A60207  12.866   8.243   6.455
10281POPC   D2A60208  12.812   8.217   6.755
10281POPC   C3A60209  12.815   8.235   7.055
10281POPC   C4A60210  12.821   8.199   7.355
10281POPC   C1B60211  12.737   8.432   6.455
10281POPC   C2B60212  12.687   8.403   6.755
10281POPC   C3B60213  12.652   8.394   7.055
10281POPC   C4B60214  12.710   8.386   7.355
10282POPC   NC360215   3.514  10.490   5.555
10282POPC   PO460216   3.572  10.495   5.855
10282POPC   GL160217   3.509  10.542   6.155
10282POPC   GL260218   3.618  10.424   6.155
10282POPC   C1A60219   3.531  10.554   6.455
10282POPC   D2A60220   3.553  10.532   6.755
10282POPC   C3A60221   3.501  10.523   7.055
10282POPC   C4A60222   3.495  10.563   7.355
10282POPC   C1B60223   3.662  10.359   6.455
10282POPC   C2B60224   3.638  10.337   6.755
10282POPC   C3B60225   3.665  10.309   7.055
10282POPC   C4B60226   3.658  10.273   7.355
10283POPC   NC360227   0.418  34.574   5.555
10283POPC   PO460228   0.436  34.619   5.855
10283POPC   GL160229   0.433  34.621   6.155
10283POPC   GL260230   0.478  34.431   6.155
10283POPC   C1A60231   0.466  34.544   6.455
10283POPC   D2A60232   0.446  34.535   6.755
10283POPC   C3A60233   0.421  34.601   7.055
10283POPC   C4A60234   0.433  34.553   7.355
10283POPC   C1B60235   0.483  34.378   6.455
10283POPC   C2B60236   0.513  34.297   6.755
10283POPC   C3B60237   0.525  34.327   7.055
10283POPC   C4B60238   0.441  34.317   7.355
10284POPC   NC360239  23.703  39.972   5.555
10284POPC   PO460240  23.733  40.040   5.855
10284POPC   GL160241  23.738  39.964   6.155
10284POPC   GL260242  23.880  40.029   6.155
10284POPC   C1A60243  23.729  39.965   6.455
10284POPC   D2A60244  23.722  39.997   6.755
10284POPC   C3A60245  23.718  40.020   7.055
10284POPC   C4A60246  23.728  39.960   7.355
10284POPC   C1B60247  23.990  40.102   6.455
10284POPC   C2B60248  23.962  40.055   6.755
10284POPC   C3B60249  23.928  40.132   7.055
10284POPC   C4B60250  23.900  40.070   7.355
10285POPC   NC360251  15.201  41.571   5.555
10285POPC   PO460252  15.197  41.552   5.855
10285POPC   GL160253  15.206  41.593   6.155
10285POPC   GL260254  15.228  41.707   6.155
10285POPC   C1A60255  15.140  41.566   6.455
10285POPC   D2A60256  15.154  41.548   6.755
10285POPC   C3A60257  15.170  41.595   7.055
10285POPC   C4A60258  15.181  41.565   7.355
10285POPC   C1B60259  15.179  41.780   6.455
10285POPC   C2B60260  15.178  41.782   6.755
10285POPC   C3B60261  15.191  41.808   7.055
10285POPC   C4B60262  15.199  41.845   7.355
10286POPC   NC360263   3.534  36.856   5.555
10286POPC   PO460264   3.522  36.933   5.855
10286POPC   GL160265   3.536  36.877   6.155
10286POPC   GL260266   3.517  36.829   6.155
10286POPC   C1A60267   3.534  36.921   6.455
10286POPC   D2A60268   3.511  36.877   6.755
10286POPC   C3A60269   3.589  36.911   7.055
10286POPC   C4A60270   3.499  36.908   7.355
10286POPC   C1B60271   3.449  36.662   6.455
10286POPC   C2B60272   3.449  36.653   6.755
10286POPC   C3B60273   3.404  36.641   7.055
10286POPC   C4B60274   3.421  36.717   7.355
10287POPC   NC360275   5.122  36.113   5.555
10287POPC   PO460276   5.128  36.172   5.855
10287POPC   GL160277   5.065  36.156   6.155
10287POPC   GL260278   5.039  36.024   6.155
10287POPC   C1A60279   5.141  36.137   6.455
10287POPC   D2A60280   5.122  36.085   6.755
10287POPC   C3A60281   5.100  36.164   7.055
10287POPC   C4A60282   5.062  36.173   7.355
10287POPC   C1B60283   4.953  35.871   6.455
10287POPC   C2B60284   4.935  35.865   6.755
10287POPC   C3B60285   4.931  35.941   7.055
10287POPC   C4B60286   4.988  35.891   7.355
10288POPC   NC360287  31.461   5.110   5.555
10288POPC   PO460288  31.456   5.053   5.855
10288POPC   GL160289  31.490   5.130   6.155
10288POPC   GL260290  31.544   5.234   6.155
10288POPC   C1A60291  31.489   5.129   6.455
10288POPC   D2A60292  31.467   5.137   6.755
10288POPC   C3A60293  31.520   5.122   7.055
10288POPC   C4A60294  31.470   5.067   7.355
10288POPC   C1B60295  31.678   5.244   6.455
10288POPC   C2B60296  31.666   5.303   6.755
10288POPC   C3B60297  31.668   5.234   7.055
10288POPC   C4B60298  31.658   5.303   7.355
10289POPC   NC360299  19.872  44.697   5.555
10289POPC   PO460300  19.826  44.668   5.855
10289POPC   GL160301  19.864  44.680   6.155
10289POPC   GL260302  19.829  44.575   6.155
10289POPC   C1A60303  19.883  44.698   6.455
10289POPC   D2A60304  19.857  44.669   6.755
10289POPC   C3A60305  19.797  44.698   7.055
10289POPC   C4A60306  19.820  44.651   7.355
10289POPC   C1B60307  19.868  44.419   6.455
10289POPC   C2B60308  19.918  44.472   6.755
10289POPC   C3B60309  19.911  44.404   7.055
10289POPC   C4B60310  19.938  44.379   7.355
10290POPC   NC360311  31.440  12.028   5.555
10290POPC   PO460312  31.480  12.083   5.855
10290POPC   GL160313  31.446  12.042   6.155
10290POPC   GL260314  31.524  11.986   6.155
10290POPC   C1A60315  31.496  12.088   6.455
10290POPC   D2A60316  31.507  12.112   6.755
10290POPC   C3A60317  31.473  12.093   7.055
10290POPC   C4A60318  31.431  12.105   7.355
10290POPC   C1B60319  31.674  11.886   6.455
10290POPC   C2B60320  31.656  11.978   6.755
10290POPC   C3B60321  31.635  11.908   7.055
10290POPC   C4B60322  31.693  11.896   7.355
10291POPC   NC360323  32.201  19.075   5.555
10291POPC   PO460324  32.202  19.039   5.855
10291POPC   GL160325  32.259  19.089   6.155
10291POPC   GL260326  32.164  18.954   6.155
10291POPC   C1A60327  32.257  19.074   6.455
10291POPC   D2A60328  32.260  19.044   6.755
10291POPC   C3A60329  32.250  19.070   7.055
10291POPC   C4A60330  32.296  19.011   7.355
10291POPC   C1B60331  32.083  18.872   6.455
10291POPC   C2B60332  32.114  18.821   6.755
10291POPC   C3B60333  32.134  18.888   7.055
10291POPC   C4B60334  32.113  18.881   7.355
10292POPC   NC360335  31.440  16.693   5.555
10292POPC   PO460336  31.426  16.733   5.855
10292POPC   GL160337  31.501  16.700   6.155
10292POPC   GL260338  31.330  16.663   6.155
10292POPC   C1A60339  31.423  16.684   6.455
10292POPC   D2A60340  31.466  16.697   6.755
10292POPC   C3A60341  31.455  16.753   7.055
10292POPC   C4A60342  31.434  16.774   7.355
10292POPC   C1B60343  31.228  16.599   6.455
10292POPC   C2B60344  31.221  16.584   6.755
10292POPC   C3B60345  31.289  16.571   7.055
10292POPC   C4B60346  31.264  16.632   7.355
10293POPC   NC360347   1.191  22.967   5.555
10293POPC   PO460348   1.171  22.897   5.855
10293POPC   GL160349   1.252  22.973   6.155
10293POPC   GL260350   1.120  22.964   6.155
10293POPC   C1A60351   1.215  22.980   6.455
10293POPC   D2A60352   1.234  22.929   6.755
10293POPC   C3A60353   1.197  22.913   7.055
10293POPC   C4A60354   1.181  22.986   7.355
10293POPC   C1B60355   0.966  22.874   6.455
10293POPC   C2B60356   0.947  22.950   6.755
10293POPC   C3B60357   0.976  22.885   7.055
10293POPC   C4B60358   0.974  22.917   7.355
10294POPC   NC360359  20.618  12.103   5.555
10294POPC   PO460360  20.587  12.100   5.855
10294POPC   GL160361  20.588  12.115   6.155
10294POPC   GL260362  20.516  11.965   6.155
10294POPC   C1A60363  20.585  12.102   6.455
10294POPC   D2A60364  20.639  12.058   6.755
10294POPC   C3A60365  20.641  12.043   7.055
10294POPC   C4A60366  20.608  12.126   7.355
10294POPC   C1B60367  20.507  11.912   6.455
10294POPC   C2B60368  20.441  11.841   6.755
10294POPC   C3B60369  20.450  11.901   7.055
10294POPC   C4B60370  20.478  11.889   7.355
10295POPC   NC360371  40.032  14.376   5.555
10295POPC   PO460372  39.992  14.397   5.855
10295POPC   GL160373  40.025  14.413   6.155
10295POPC   GL260374  40.055  14.482   6.155
10295POPC   C1A60375  40.015  14.428   6.455
10295POPC   D2A60376  39.962  14.398   6.755
10295POPC   C3A60377  40.004  14.436   7.055
10295POPC   C4A60378  40.000  14.366   7.355
10295POPC   C1B60379  40.129  14.571   6.455
10295POPC   C2B60380  40.195  14.596   6.755
10295POPC   C3B60381  40.209  14.638   7.055
10295POPC   C4B60382  40.177  14.567   7.355
10296POPC   NC360383  19.026  39.959   5.555
10296POPC   PO460384  19.103  40.017   5.855
10296POPC   GL160385  19.072  40.015   6.155
10296POPC   GL260386  19.204  39.955   6.155
10296POPC   C1A60387  19.011  40.011   6.455
10296POPC   D2A60388  19.087  39.980   6.755
10296POPC   C3A60389  19.078  39.995   7.055
10296POPC   C4A60390  19.069  40.011   7.355
10296POPC   C1B60391  19.279  39.948   6.455
10296POPC   C2B60392  19.348  39.896   6.755
10296POPC   C3B60393  19.318  39.972   7.055
10296POPC   C4B60394  19.294  39.918   7.355
10297POPC   NC360395  15.187  36.944   5.555
10297POPC   PO460396  15.216  36.923   5.855
10297POPC   GL160397  15.183  36.872   6.155
10297POPC   GL260398  15.115  36.774   6.155
10297POPC   C1A60399  15.201  36.927   6.455
10297POPC   D2A60400  15.210  36.909   6.755
10297POPC   C3A60401  15.129  36.854   7.055
10297POPC   C4A60402  15.201  36.890   7.355
10297POPC   C1B60403  15.054  36.651   6.455
10297POPC   C2B60404  15.083  36.701   6.755
10297POPC   C3B60405  15.029  36.680   7.055
10297POPC   C4B60406  15.036  36.688   7.355
10298POPC   NC360407  20.627  38.412   5.555
10298POPC   PO460408  20.637  38.473   5.855
10298POPC   GL160409  20.571  38.466   6.155
10298POPC   GL260410  20.667  38.555   6.155
10298POPC   C1A60411  20.612  38.419   6.455
10298POPC   D2A60412  20.625  38.447   6.755
10298POPC   C3A60413  20.633  38.453   7.055
10298POPC   C4A60414  20.613  38.407   7.355
10298POPC   C1B60415  20.643  38.697   6.455
10298POPC   C2B60416  20.640  38.673   6.755
10298POPC   C3B60417  20.636  38.704   7.055
10298POPC   C4B60418  20.640  38.694   7.355
10299POPC   NC360419  37.688  22.198   5.555
10299POPC   PO460420  37.708  22.209   5.855
10299POPC   GL160421  37.727  22.184   6.155
10299POPC   GL260422  37.629  22.121   6.155
10299POPC   C1A60423  37.680  22.150   6.455
10299POPC   D2A60424  37.701  22.165   6.755
10299POPC   C3A60425  37.678  22.194   7.055
10299POPC   C4A60426  37.632  22.133   7.355
10299POPC   C1B60427  37.513  22.012   6.455
10299POPC   C2B60428  37.531  22.001   6.755
10299POPC   C3B60429  37.452  22.035   7.055
10299POPC   C4B60430  37.438  22.045   7.355
10300POPC   NC360431  32.281  24.458   5.555
10300POPC   PO460432  32.241  24.513   5.855
10300POPC   GL160433  32.273  24.529   6.155
10300POPC   GL260434  32.165  24.356   6.155
10300POPC   C1A60435  32.228  24.476   6.455
10300POPC   D2A60436  32.245  24.533   6.755
10300POPC   C3A60437  32.207  24.482   7.055
10300POPC   C4A60438  32.286  24.482   7.355
10300POPC   C1B60439  32.114  24.278   6.455
10300POPC   C2B60440  32.105  24.246   6.755
10300POPC   C3B60441  32.088  24.283   7.055
10300POPC   C4B60442  32.133  24.337   7.355
10301POPC   NC360443  22.935  22.918   5.555
10301POPC   PO460444  22.930  22.924   5.855
10301POPC   GL160445  22.941  22.977   6.155
10301POPC   GL260446  22.820  23.018   6.155
10301POPC   C1A60447  22.985  22.948   6.455
10301POPC   D2A60448  22.912  22.978   6.755
10301POPC   C3A60449  22.955  22.931   7.055
10301POPC   C4A60450  22.924  22.952   7.355
10301POPC   C1B60451  22.679  23.043   6.455
10301POPC   C2B60452  22.669  23.009   6.755
10301POPC   C3B60453  22.703  23.001   7.055
10301POPC   C4B60454  22.666  23.012   7.355
10302POPC   NC360455  29.120  32.246   5.555
10302POPC   PO460456  29.142  32.265   5.855
10302POPC   GL160457  29.178  32.245   6.155
10302POPC   GL260458  29.298  32.269   6.155
10302POPC   C1A60459  29.133  32.279   6.455
10302POPC   D2A60460  29.147  32.261   6.755
10302POPC   C3A60461  29.098  32.258   7.055
10302POPC   C4A60462  29.156  32.211   7.355
10302POPC   C1B60463  29.343  32.334   6.455
10302POPC   C2B60464  29.372  32.324   6.755
10302POPC   C3B60465  29.333  32.297   7.055
10302POPC   C4B60466  29.376  32.344   7.355
10303POPC   NC360467  31.514  36.942   5.555
10303POPC   PO460468  31.495  36.875   5.855
10303POPC   GL160469  31.499  36.924   6.155
10303POPC   GL260470  31.390  36.896   6.155
10303POPC   C1A60471  31.473  36.951   6.455
10303POPC   D2A60472  31.494  36.937   6.755
10303POPC   C3A60473  31.458  36.913   7.055
10303POPC   C4A60474  31.451  36.925   7.355
10303POPC   C1B60475  31.179  36.896   6.455
10303POPC   C2B60476  31.226  36.865   6.755
10303POPC   C3B60477  31.173  36.871   7.055
10303POPC   C4B60478  31.249  36.905   7.355
10304POPC   NC360479  32.233  33.008   5.555
10304POPC   PO460480  32.281  33.070   5.855
10304POPC   GL160481  32.215  33.000   6.155
10304POPC   GL260482  32.167  32.879   6.155
10304POPC   C1A60483  32.245  33.016   6.455
10304POPC   D2A60484  32.226  33.033   6.755
10304POPC   C3A60485  32.253  33.010   7.055
10304POPC   C4A60486  32.233  33.039   7.355
10304POPC   C1B60487  32.072  32.817   6.455
10304POPC   C2B60488  32.112  32.797   6.755
10304POPC   C3B60489  32.134  32.849   7.055
10304POPC   C4B60490  32.073  32.810   7.355
10305POPC   NC360491  43.112  14.423   5.555
10305POPC   PO460492  43.080  14.413   5.855
10305POPC   GL160493  43.121  14.407   6.155
10305POPC   GL260494  43.086  14.247   6.155
10305POPC   C1A60495  43.123  14.390   6.455
10305POPC   D2A60496  43.092  14.404   6.755
10305POPC   C3A60497  43.131  14.391   7.055
10305POPC   C4A60498  43.084  14.368   7.355
10305POPC   C1B60499  43.005  14.155   6.455
10305POPC   C2B60500  43.069  14.119   6.755
10305POPC   C3B60501  43.013  14.184   7.055
10305POPC   C4B60502  43.079  14.129   7.355
10306POPC   NC360503   4.270  29.913   5.555
10306POPC   PO460504   4.341  29.928   5.855
10306POPC   GL160505   4.281  29.969   6.155
10306POPC   GL260506   4.454  30.047   6.155
10306POPC   C1A60507   4.316  29.931   6.455
10306POPC   D2A60508   4.300  29.968   6.755
10306POPC   C3A60509   4.349  29.898   7.055
10306POPC   C4A60510   4.292  29.913   7.355
10306POPC   C1B60511   4.485  30.122   6.455
10306POPC   C2B60512   4.533  30.032   6.755
10306POPC   C3B60513   4.531  30.042   7.055
10306POPC   C4B60514   4.501  30.101   7.355
10307POPC   NC360515  13.607  33.844   5.555
10307POPC   PO460516  13.671  33.779   5.855
10307POPC   GL160517  13.605  33.844   6.155
10307POPC   GL260518  13.524  33.821   6.155
10307POPC   C1A60519  13.670  33.786   6.455
10307POPC   D2A60520  13.663  33.775   6.755
10307POPC   C3A60521  13.603  33.807   7.055
10307POPC   C4A60522  13.646  33.828   7.355
10307POPC   C1B60523  13.336  33.870   6.455
10307POPC   C2B60524  13.363  33.863   6.755
10307POPC   C3B60525  13.338  33.831   7.055
10307POPC   C4B60526  13.349  33.821   7.355
10308POPC   NC360527  27.634  19.051   5.555
10308POPC   PO460528  27.573  19.011   5.855
10308POPC   GL160529  27.629  19.015   6.155
10308POPC   GL260530  27.427  19.126   6.155
10308POPC   C1A60531  27.627  19.025   6.455
10308POPC   D2A60532  27.565  19.075   6.755
10308POPC   C3A60533  27.638  19.093   7.055
10308POPC   C4A60534  27.558  19.024   7.355
10308POPC   C1B60535  27.313  19.115   6.455
10308POPC   C2B60536  27.381  19.113   6.755
10308POPC   C3B60537  27.339  19.097   7.055
10308POPC   C4B60538  27.338  19.089   7.355
10309POPC   NC360539  23.764   5.088   5.555
10309POPC   PO460540  23.701   5.047   5.855
10309POPC   GL160541  23.709   5.062   6.155
10309POPC   GL260542  23.790   4.995   6.155
10309POPC   C1A60543  23.720   5.058   6.455
10309POPC   D2A60544  23.740   5.055   6.755
10309POPC   C3A60545  23.677   5.118   7.055
10309POPC   C4A60546  23.693   5.110   7.355
10309POPC   C1B60547  23.921   4.983   6.455
10309POPC   C2B60548  23.941   4.922   6.755
10309POPC   C3B60549  23.920   4.955   7.055
10309POPC   C4B60550  23.907   4.921   7.355
10310POPC   NC360551  33.813  31.455   5.555
10310POPC   PO460552  33.788  31.440   5.855
10310POPC   GL160553  33.805  31.509   6.155
10310POPC   GL260554  33.697  31.398   6.155
10310POPC   C1A60555  33.789  31.466   6.455
10310POPC   D2A60556  33.780  31.424   6.755
10310POPC   C3A60557  33.758  31.433   7.055
10310POPC   C4A60558  33.772  31.433   7.355
10310POPC   C1B60559  33.678  31.270   6.455
10310POPC   C2B60560  33.589  31.303   6.755
10310POPC   C3B60561  33.589  31.329   7.055
10310POPC   C4B60562  33.686  31.278   7.355
10311POPC   NC360563  18.255  26.023   5.555
10311POPC   PO460564  18.286  26.017   5.855
10311POPC   GL160565  18.258  26.057   6.155
10311POPC   GL260566  18.191  25.938   6.155
10311POPC   C1A60567  18.308  26.022   6.455
10311POPC   D2A60568  18.300  25.995   6.755
10311POPC   C3A60569  18.295  25.996   7.055
10311POPC   C4A60570  18.281  26.003   7.355
10311POPC   C1B60571  18.156  25.780   6.455
10311POPC   C2B60572  18.115  25.787   6.755
10311POPC   C3B60573  18.116  25.803   7.055
10311POPC   C4B60574  18.171  25.870   7.355
10312POPC   NC360575  23.690  13.608   5.555
10312POPC   PO460576  23.749  13.581   5.855
10312POPC   GL160577  23.706  13.604   6.155
10312POPC   GL260578  23.819  13.544   6.155
10312POPC   C1A60579  23.722  13.650   6.455
10312POPC   D2A60580  23.697  13.634   6.755
10312POPC   C3A60581  23.722  13.612   7.055
10312POPC   C4A60582  23.702  13.582   7.355
10312POPC   C1B60583  23.888  13.430   6.455
10312POPC   C2B60584  23.852  13.455   6.755
10312POPC   C3B60585  23.874  13.402   7.055
10312POPC   C4B60586  23.815  13.379   7.355
10313POPC   NC360587  28.402  41.511   5.555
10313POPC   PO460588  28.355  41.556   5.855
10313POPC   GL160589  28.373  41.534   6.155
10313POPC   GL260590  28.481  41.551   6.155
10313POPC   C1A60591  28.395  41.595   6.455
10313POPC   D2A60592  28.397  41.593   6.755
10313POPC   C3A60593  28.326  41.538   7.055
10313POPC   C4A60594  28.384  41.511   7.355
10313POPC   C1B60595  28.578  41.631   6.455
10313POPC   C2B60596  28.570  41.577   6.755
10313POPC   C3B60597  28.651  41.666   7.055
10313POPC   C4B60598  28.587  41.605   7.355
10314POPC   NC360599  29.165  11.268   5.555
10314POPC   PO460600  29.170  11.345   5.855
10314POPC   GL160601  29.173  11.258   6.155
10314POPC   GL260602  29.113  11.198   6.155
10314POPC   C1A60603  29.152  11.329   6.455
10314POPC   D2A60604  29.095  11.292   6.755
10314POPC   C3A60605  29.165  11.323   7.055
10314POPC   C4A60606  29.176  11.265   7.355
10314POPC   C1B60607  29.080  11.040   6.455
10314POPC   C2B60608  29.047  11.099   6.755
10314POPC   C3B60609  29.090  11.105   7.055
10314POPC   C4B60610  29.045  11.031   7.355
10315POPC   NC360611  43.133  26.033   5.555
10315POPC   PO460612  43.100  26.021   5.855
10315POPC   GL160613  43.109  26.072   6.155
10315POPC   GL260614  43.160  25.968   6.155
10315POPC   C1A60615  43.137  26.027   6.455
10315POPC   D2A60616  43.080  26.090   6.755
10315POPC   C3A60617  43.144  26.000   7.055
10315POPC   C4A60618  43.140  26.083   7.355
10315POPC   C1B60619  43.232  25.847   6.455
10315POPC   C2B60620  43.263  25.868   6.755
10315POPC   C3B60621  43.183  25.821   7.055
10315POPC   C4B60622  43.204  25.863   7.355
10316POPC   NC360623  30.676  11.265   5.555
10316POPC   PO460624  30.685  11.312   5.855
10316POPC   GL160625  30.728  11.257   6.155
10316POPC   GL260626  30.829  11.330   6.155
10316POPC   C1A60627  30.702  11.330   6.455
10316POPC   D2A60628  30.709  11.301   6.755
10316POPC   C3A60629  30.698  11.279   7.055
10316POPC   C4A60630  30.708  11.332   7.355
10316POPC   C1B60631  30.990  11.241   6.455
10316POPC   C2B60632  30.986  11.322   6.755
10316POPC   C3B60633  30.993  11.239   7.055
10316POPC   C4B60634  30.916  11.321   7.355
10317POPC   NC360635  42.311  10.560   5.555
10317POPC   PO460636  42.301  10.533   5.855
10317POPC   GL160637  42.373  10.489   6.155
10317POPC   GL260638  42.385  10.363   6.155
10317POPC   C1A60639  42.299  10.564   6.455
10317POPC   D2A60640  42.293  10.522   6.755
10317POPC   C3A60641  42.357  10.484   7.055
10317POPC   C4A60642  42.337  10.489   7.355
10317POPC   C1B60643  42.432  10.252   6.455
10317POPC   C2B60644  42.414  10.293   6.755
10317POPC   C3B60645  42.476  10.278   7.055
10317POPC   C4B60646  42.395  10.261   7.355
10318POPC   NC360647   1.190  17.553   5.555
10318POPC   PO460648   1.253  17.509   5.855
10318POPC   GL160649   1.247  17.521   6.155
10318POPC   GL260650   1.325  17.612   6.155
10318POPC   C1A60651   1.207  17.477   6.455
10318POPC   D2A60652   1.201  17.474   6.755
10318POPC   C3A60653   1.236  17.523   7.055
10318POPC   C4A60654   1.255  17.482   7.355
10318POPC   C1B60655   1.413  17.676   6.455
10318POPC   C2B60656   1.379  17.740   6.755
10318POPC   C3B60657   1.326  17.664   7.055
10318POPC   C4B60658   1.375  17.743   7.355
10319POPC   NC360659  39.253   1.990   5.555
10319POPC   PO460660  39.271   2.016   5.855
10319POPC   GL160661  39.229   1.947   6.155
10319POPC   GL260662  39.216   1.898   6.155
10319POPC   C1A60663  39.196   1.988   6.455
10319POPC   D2A60664  39.242   1.955   6.755
10319POPC   C3A60665  39.210   1.998   7.055
10319POPC   C4A60666  39.240   1.986   7.355
10319POPC   C1B60667  39.260   1.726   6.455
10319POPC   C2B60668  39.259   1.747   6.755
10319POPC   C3B60669  39.197   1.784   7.055
10319POPC   C4B60670  39.169   1.738   7.355
10320POPC   NC360671   5.874  16.706   5.555
10320POPC   PO460672   5.843  16.723   5.855
10320POPC   GL160673   5.853  16.749   6.155
10320POPC   GL260674   5.740  16.804   6.155
10320POPC   C1A60675   5.900  16.698   6.455
10320POPC   D2A60676   5.834  16.702   6.755
10320POPC   C3A60677   5.886  16.697   7.055
10320POPC   C4A60678   5.841  16.722   7.355
10320POPC   C1B60679   5.610  16.836   6.455
10320POPC   C2B60680   5.679  16.855   6.755
10320POPC   C3B60681   5.675  16.821   7.055
10320POPC   C4B60682   5.623  16.866   7.355
10321POPC   NC360683  22.148  15.196   5.555
10321POPC   PO460684  22.159  15.139   5.855
10321POPC   GL160685  22.149  15.154   6.155
10321POPC   GL260686  22.071  15.131   6.155
10321POPC   C1A60687  22.122  15.145   6.455
10321POPC   D2A60688  22.125  15.182   6.755
10321POPC   C3A60689  22.147  15.141   7.055
10321POPC   C4A60690  22.158  15.143   7.355
10321POPC   C1B60691  21.974  15.009   6.455
10321POPC   C2B60692  21.909  15.042   6.755
10321POPC   C3B60693  21.940  15.093   7.055
10321POPC   C4B60694  21.971  15.005   7.355
10322POPC   NC360695  27.583   4.343   5.555
10322POPC   PO460696  27.553   4.321   5.855
10322POPC   GL160697  27.576   4.289   6.155
10322POPC   GL260698  27.463   4.310   6.155
10322POPC   C1A60699  27.579   4.320   6.455
10322POPC   D2A60700  27.602   4.293   6.755
10322POPC   C3A60701  27.588   4.334   7.055
10322POPC   C4A60702  27.585   4.292   7.355
10322POPC   C1B60703  27.340   4.336   6.455
10322POPC   C2B60704  27.297   4.349   6.755
10322POPC   C3B60705  27.370   4.336   7.055
10322POPC   C4B60706  27.348   4.294   7.355
10323POPC   NC360707  26.084  26.075   5.555
10323POPC   PO460708  26.089  26.021   5.855
10323POPC   GL160709  26.091  26.017   6.155
10323POPC   GL260710  26.132  26.121   6.155
10323POPC   C1A60711  26.043  25.996   6.455
10323POPC   D2A60712  26.034  26.035   6.755
10323POPC   C3A60713  26.089  26.078   7.055
10323POPC   C4A60714  26.053  26.041   7.355
10323POPC   C1B60715  26.267  26.168   6.455
10323POPC   C2B60716  26.244  26.152   6.755
10323POPC   C3B60717  26.289  26.131   7.055
10323POPC   C4B60718  26.303  26.185   7.355
10324POPC   NC360719  43.895  22.199   5.555
10324POPC   PO460720  43.889  22.187   5.855
10324POPC   GL160721  43.917  22.142   6.155
10324POPC   GL260722  44.038  22.216   6.155
10324POPC   C1A60723  43.916  22.203   6.455
10324POPC   D2A60724  43.866  22.196   6.755
10324POPC   C3A60725  43.901  22.201   7.055
10324POPC   C4A60726  43.859  22.124   7.355
10324POPC   C1B60727  44.148  22.239   6.455
10324POPC   C2B60728  44.100  22.202   6.755
10324POPC   C3B60729  44.080  22.196   7.055
10324POPC   C4B60730  44.096  22.232   7.355
10325POPC   NC360731  34.578  26.863   5.555
10325POPC   PO460732  34.547  26.838   5.855
10325POPC   GL160733  34.573  26.773   6.155
10325POPC   GL260734  34.698  26.839   6.155
10325POPC   C1A60735  34.608  26.848   6.455
10325POPC   D2A60736  34.581  26.794   6.755
10325POPC   C3A60737  34.576  26.800   7.055
10325POPC   C4A60738  34.549  26.839   7.355
10325POPC   C1B60739  34.794  26.914   6.455
10325POPC   C2B60740  34.831  26.886   6.755
10325POPC   C3B60741  34.858  26.915   7.055
10325POPC   C4B60742  34.837  26.897   7.355
10326POPC   NC360743  44.655  13.598   5.555
10326POPC   PO460744  44.696  13.653   5.855
10326POPC   GL160745  44.690  13.629   6.155
10326POPC   GL260746  44.749  13.658   6.155
10326POPC   C1A60747  44.612  13.672   6.455
10326POPC   D2A60748  44.654  13.670   6.755
10326POPC   C3A60749  44.669  13.622   7.055
10326POPC   C4A60750  44.684  13.669   7.355
10326POPC   C1B60751  44.863  13.661   6.455
10326POPC   C2B60752  44.888  13.719   6.755
10326POPC   C3B60753  44.936  13.753   7.055
10326POPC   C4B60754  44.852  13.743   7.355
10327POPC   NC360755   0.487  40.743   5.555
10327POPC   PO460756   0.448  40.761   5.855
10327POPC   GL160757   0.454  40.807   6.155
10327POPC   GL260758   0.411  40.659   6.155
10327POPC   C1A60759   0.417  40.802   6.455
10327POPC   D2A60760   0.464  40.827   6.755
10327POPC   C3A60761   0.459  40.781   7.055
10327POPC   C4A60762   0.481  40.750   7.355
10327POPC   C1B60763   0.311  40.561   6.455
10327POPC   C2B60764   0.366  40.511   6.755
10327POPC   C3B60765   0.296  40.531   7.055
10327POPC   C4B60766   0.325  40.593   7.355
10328POPC   NC360767   2.719   7.468   5.555
10328POPC   PO460768   2.749   7.371   5.855
10328POPC   GL160769   2.726   7.421   6.155
10328POPC   GL260770   2.683   7.508   6.155
10328POPC   C1A60771   2.769   7.420   6.455
10328POPC   D2A60772   2.770   7.446   6.755
10328POPC   C3A60773   2.782   7.457   7.055
10328POPC   C4A60774   2.800   7.394   7.355
10328POPC   C1B60775   2.624   7.550   6.455
10328POPC   C2B60776   2.563   7.632   6.755
10328POPC   C3B60777   2.568   7.626   7.055
10328POPC   C4B60778   2.625   7.542   7.355
10329POPC   NC360779  37.696   1.999   5.555
10329POPC   PO460780  37.701   2.019   5.855
10329POPC   GL160781  37.703   2.021   6.155
10329POPC   GL260782  37.759   2.031   6.155
10329POPC   C1A60783  37.706   1.996   6.455
10329POPC   D2A60784  37.683   1.984   6.755
10329POPC   C3A60785  37.719   1.966   7.055
10329POPC   C4A60786  37.706   2.025   7.355
10329POPC   C1B60787  37.908   2.170   6.455
10329POPC   C2B60788  37.858   2.195   6.755
10329POPC   C3B60789  37.922   2.128   7.055
10329POPC   C4B60790  37.831   2.179   7.355
10330POPC   NC360791   6.684  39.959   5.555
10330POPC   PO460792   6.688  39.986   5.855
10330POPC   GL160793   6.645  39.970   6.155
10330POPC   GL260794   6.668  40.132   6.155
10330POPC   C1A60795   6.667  40.001   6.455
10330POPC   D2A60796   6.631  40.020   6.755
10330POPC   C3A60797   6.614  40.023   7.055
10330POPC   C4A60798   6.651  40.048   7.355
10330POPC   C1B60799   6.630  40.244   6.455
10330POPC   C2B60800   6.635  40.298   6.755
10330POPC   C3B60801   6.651  40.273   7.055
10330POPC   C4B60802   6.596  40.298   7.355
10331POPC   NC360803  43.065  12.057   5.555
10331POPC   PO460804  43.066  12.032   5.855
10331POPC   GL160805  43.142  12.060   6.155
10331POPC   GL260806  43.165  12.029   6.155
10331POPC   C1A60807  43.081  12.037   6.455
10331POPC   D2A60808  43.080  12.074   6.755
10331POPC   C3A60809  43.157  12.118   7.055
10331POPC   C4A60810  43.155  12.121   7.355
10331POPC   C1B60811  43.287  11.919   6.455
10331POPC   C2B60812  43.361  11.880   6.755
10331POPC   C3B60813  43.331  11.890   7.055
10331POPC   C4B60814  43.315  11.939   7.355
10332POPC   NC360815  43.155  35.342   5.555
10332POPC   PO460816  43.148  35.306   5.855
10332POPC   GL160817  43.150  35.378   6.155
10332POPC   GL260818  43.112  35.432   6.155
10332POPC   C1A60819  43.083  35.341   6.455
10332POPC   D2A60820  43.120  35.319   6.755
10332POPC   C3A60821  43.069  35.305   7.055
10332POPC   C4A60822  43.116  35.333   7.355
10332POPC   C1B60823  42.980  35.536   6.455
10332POPC   C2B60824  42.978  35.535   6.755
10332POPC   C3B60825  42.993  35.540   7.055
10332POPC   C4B60826  43.017  35.549   7.355
10333POPC   NC360827  43.875  33.007   5.555
10333POPC   PO460828  43.919  33.058   5.855
10333POPC   GL160829  43.876  32.982   6.155
10333POPC   GL260830  43.931  32.890   6.155
10333POPC   C1A60831  43.854  33.024   6.455
10333POPC   D2A60832  43.837  32.995   6.755
10333POPC   C3A60833  43.851  32.987   7.055
10333POPC   C4A60834  43.879  33.060   7.355
10333POPC   C1B60835  44.092  32.791   6.455
10333POPC   C2B60836  44.017  32.857   6.755
10333POPC   C3B60837  44.082  32.857   7.055
10333POPC   C4B60838  44.068  32.847   7.355
10334POPC   NC360839  21.399  32.287   5.555
10334POPC   PO460840  21.370  32.203   5.855
10334POPC   GL160841  21.356  32.254   6.155
10334POPC   GL260842  21.457  32.318   6.155
10334POPC   C1A60843  21.406  32.234   6.455
10334POPC   D2A60844  21.356  32.256   6.755
10334POPC   C3A60845  21.392  32.233   7.055
10334POPC   C4A60846  21.379  32.261   7.355
10334POPC   C1B60847  21.650  32.392   6.455
10334POPC   C2B60848  21.624  32.375   6.755
10334POPC   C3B60849  21.613  32.346   7.055
10334POPC   C4B60850  21.666  32.311   7.355
10335POPC   NC360851  18.247  12.104   5.555
10335POPC   PO460852  18.307  12.090   5.855
10335POPC   GL160853  18.313  12.065   6.155
10335POPC   GL260854  18.160  11.938   6.155
10335POPC   C1A60855  18.235  12.078   6.455
10335POPC   D2A60856  18.282  12.027   6.755
10335POPC   C3A60857  18.326  12.087   7.055
10335POPC   C4A60858  18.322  12.066   7.355
10335POPC   C1B60859  18.162  11.894   6.455
10335POPC   C2B60860  18.117  11.906   6.755
10335POPC   C3B60861  18.086  11.889   7.055
10335POPC   C4B60862  18.094  11.851   7.355
10336POPC   NC360863  26.000  29.886   5.555
10336POPC   PO460864  26.002  29.887   5.855
10336POPC   GL160865  26.067  29.919   6.155
10336POPC   GL260866  26.106  30.024   6.155
10336POPC   C1A60867  26.006  29.897   6.455
10336POPC   D2A60868  26.014  29.921   6.755
10336POPC   C3A60869  26.020  29.942   7.055
10336POPC   C4A60870  26.047  29.922   7.355
10336POPC   C1B60871  26.073  30.195   6.455
10336POPC   C2B60872  26.077  30.178   6.755
10336POPC   C3B60873  26.088  30.144   7.055
10336POPC   C4B60874  26.167  30.153   7.355
10337POPC   NC360875   1.959  22.196   5.555
10337POPC   PO460876   1.971  22.163   5.855
10337POPC   GL160877   1.999  22.125   6.155
10337POPC   GL260878   1.970  22.083   6.155
10337POPC   C1A60879   2.030  22.141   6.455
10337POPC   D2A60880   2.019  22.176   6.755
10337POPC   C3A60881   2.001  22.187   7.055
10337POPC   C4A60882   2.033  22.114   7.355
10337POPC   C1B60883   1.894  21.923   6.455
10337POPC   C2B60884   1.843  21.965   6.755
10337POPC   C3B60885   1.898  21.956   7.055
10337POPC   C4B60886   1.893  21.915   7.355
10338POPC   NC360887  21.407  22.979   5.555
10338POPC   PO460888  21.435  22.934   5.855
10338POPC   GL160889  21.365  22.944   6.155
10338POPC   GL260890  21.377  22.829   6.155
10338POPC   C1A60891  21.432  22.918   6.455
10338POPC   D2A60892  21.430  22.920   6.755
10338POPC   C3A60893  21.355  22.945   7.055
10338POPC   C4A60894  21.416  22.936   7.355
10338POPC   C1B60895  21.294  22.720   6.455
10338POPC   C2B60896  21.293  22.760   6.755
10338POPC   C3B60897  21.327  22.712   7.055
10338POPC   C4B60898  21.312  22.720   7.355
10339POPC   NC360899  26.817  34.532   5.555
10339POPC   PO460900  26.769  34.595   5.855
10339POPC   GL160901  26.825  34.544   6.155
10339POPC   GL260902  26.754  34.505   6.155
10339POPC   C1A60903  26.824  34.565   6.455
10339POPC   D2A60904  26.806  34.531   6.755
10339POPC   C3A60905  26.793  34.552   7.055
10339POPC   C4A60906  26.808  34.571   7.355
10339POPC   C1B60907  26.601  34.443   6.455
10339POPC   C2B60908  26.643  34.349   6.755
10339POPC   C3B60909  26.654  34.404   7.055
10339POPC   C4B60910  26.649  34.430   7.355
10340POPC   NC360911  19.849  36.177   5.555
10340POPC   PO460912  19.828  36.158   5.855
10340POPC   GL160913  19.822  36.142   6.155
10340POPC   GL260914  19.699  36.069   6.155
10340POPC   C1A60915  19.836  36.105   6.455
10340POPC   D2A60916  19.831  36.115   6.755
10340POPC   C3A60917  19.878  36.133   7.055
10340POPC   C4A60918  19.793  36.083   7.355
10340POPC   C1B60919  19.622  36.158   6.455
10340POPC   C2B60920  19.627  36.077   6.755
10340POPC   C3B60921  19.609  36.119   7.055
10340POPC   C4B60922  19.614  36.101   7.355
10341POPC   NC360923  43.100  15.975   5.555
10341POPC   PO460924  43.092  15.913   5.855
10341POPC   GL160925  43.078  15.999   6.155
10341POPC   GL260926  42.981  15.907   6.155
10341POPC   C1A60927  43.104  15.919   6.455
10341POPC   D2A60928  43.132  15.973   6.755
10341POPC   C3A60929  43.114  15.911   7.055
10341POPC   C4A60930  43.109  15.988   7.355
10341POPC   C1B60931  42.891  15.830   6.455
10341POPC   C2B60932  42.975  15.805   6.755
10341POPC   C3B60933  42.889  15.740   7.055
10341POPC   C4B60934  42.957  15.740   7.355
10342POPC   NC360935  12.864  44.692   5.555
10342POPC   PO460936  12.845  44.659   5.855
10342POPC   GL160937  12.887  44.693   6.155
10342POPC   GL260938  13.001  44.644   6.155
10342POPC   C1A60939  12.814  44.615   6.455
10342POPC   D2A60940  12.834  44.617   6.755
10342POPC   C3A60941  12.815  44.707   7.055
10342POPC   C4A60942  12.820  44.637   7.355
10342POPC   C1B60943  13.050  44.562   6.455
10342POPC   C2B60944  13.095  44.560   6.755
10342POPC   C3B60945  13.029  44.509   7.055
10342POPC   C4B60946  13.126  44.540   7.355
10343POPC   NC360947  42.356  16.768   5.555
10343POPC   PO460948  42.340  16.742   5.855
10343POPC   GL160949  42.337  16.734   6.155
10343POPC   GL260950  42.495  16.753   6.155
10343POPC   C1A60951  42.384  16.720   6.455
10343POPC   D2A60952  42.331  16.709   6.755
10343POPC   C3A60953  42.371  16.779   7.055
10343POPC   C4A60954  42.323  16.747   7.355
10343POPC   C1B60955  42.565  16.786   6.455
10343POPC   C2B60956  42.592  16.824   6.755
10343POPC   C3B60957  42.530  16.809   7.055
10343POPC   C4B60958  42.567  16.826   7.355
10344POPC   NC360959  38.447  20.607   5.555
10344POPC   PO460960  38.451  20.625   5.855
10344POPC   GL160961  38.475  20.594   6.155
10344POPC   GL260962  38.413  20.737   6.155
10344POPC   C1A60963  38.467  20.596   6.455
10344POPC   D2A60964  38.424  20.638   6.755
10344POPC   C3A60965  38.457  20.642   7.055
10344POPC   C4A60966  38.495  20.656   7.355
10344POPC   C1B60967  38.271  20.758   6.455
10344POPC   C2B60968  38.259  20.807   6.755
10344POPC   C3B60969  38.276  20.834   7.055
10344POPC   C4B60970  38.319  20.777   7.355
10345POPC   NC360971  15.134  38.432   5.555
10345POPC   PO460972  15.224  38.410   5.855
10345POPC   GL160973  15.170  38.408   6.155
10345POPC   GL260974  15.133  38.536   6.155
10345POPC   C1A60975  15.169  38.464   6.455
10345POPC   D2A60976  15.170  38.456   6.755
10345POPC   C3A60977  15.226  38.431   7.055
10345POPC   C4A60978  15.143  38.425   7.355
10345POPC   C1B60979  15.094  38.662   6.455
10345POPC   C2B60980  15.131  38.716   6.755
10345POPC   C3B60981  15.155  38.701   7.055
10345POPC   C4B60982  15.160  38.693   7.355
10346POPC   NC360983  25.298   5.852   5.555
10346POPC   PO460984  25.292   5.860   5.855
10346POPC   GL160985  25.229   5.826   6.155
10346POPC   GL260986  25.325   5.970   6.155
10346POPC   C1A60987  25.278   5.869   6.455
10346POPC   D2A60988  25.298   5.868   6.755
10346POPC   C3A60989  25.274   5.886   7.055
10346POPC   C4A60990  25.312   5.900   7.355
10346POPC   C1B60991  25.501   6.031   6.455
10346POPC   C2B60992  25.481   5.972   6.755
10346POPC   C3B60993  25.524   5.999   7.055
10346POPC   C4B60994  25.479   5.952   7.355
10347POPC   NC360995  28.324   8.199   5.555
10347POPC   PO460996  28.357   8.174   5.855
10347POPC   GL160997  28.368   8.162   6.155
10347POPC   GL260998  28.464   8.341   6.155
10347POPC   C1A60999  28.344   8.196   6.455
10347POPC   D2A61000  28.377   8.200   6.755
10347POPC   C3A61001  28.373   8.218   7.055
10347POPC   C4A61002  28.383   8.190   7.355
10347POPC   C1B61003  28.482   8.449   6.455
10347POPC   C2B61004  28.500   8.431   6.755
10347POPC   C3B61005  28.514   8.429   7.055
10347POPC   C4B61006  28.532   8.404   7.355
10348POPC   NC361007  40.758  10.476   5.555
10348POPC   PO461008  40.825  10.539   5.855
10348POPC   GL161009  40.787  10.490   6.155
10348POPC   GL261010  40.695  10.559   6.155
10348POPC   C1A61011  40.740  10.499   6.455
10348POPC   D2A61012  40.820  10.488   6.755
10348POPC   C3A61013  40.783  10.494   7.055
10348POPC   C4A61014  40.759  10.482   7.355
10348POPC   C1B61015  40.526  10.632   6.455
10348POPC   C2B61016  40.560  10.596   6.755
10348POPC   C3B61017  40.544  10.601   7.055
10348POPC   C4B61018  40.541  10.604   7.355
10349POPC   NC361019  43.072   4.338   5.555
10349POPC   PO461020  43.102   4.347   5.855
10349POPC   GL161021  43.145   4.354   6.155
10349POPC   GL261022  43.252   4.260   6.155
10349POPC   C1A61023  43.075   4.366   6.455
10349POPC   D2A61024  43.140   4.338   6.755
10349POPC   C3A61025  43.118   4.330   7.055
10349POPC   C4A61026  43.159   4.356   7.355
10349POPC   C1B61027  43.361   4.245   6.455
10349POPC   C2B61028  43.377   4.190   6.755
10349POPC   C3B61029  43.318   4.240   7.055
10349POPC   C4B61030  43.300   4.234   7.355
10350POPC   NC361031  36.156  27.576   5.555
10350POPC   PO461032  36.112  27.588   5.855
10350POPC   GL161033  36.093  27.549   6.155
10350POPC   GL261034  36.289  27.580   6.155
10350POPC   C1A61035  36.089  27.609   6.455
10350POPC   D2A61036  36.093  27.601   6.755
10350POPC   C3A61037  36.144  27.587   7.055
10350POPC   C4A61038  36.078  27.574   7.355
10350POPC   C1B61039  36.350  27.539   6.455
10350POPC   C2B61040  36.388  27.561   6.755
10350POPC   C3B61041  36.389  27.577   7.055
10350POPC   C4B61042  36.426  27.537   7.355
10351POPC   NC361043  12.888   3.495   5.555
10351POPC   PO461044  12.877   3.504   5.855
10351POPC   GL161045  12.880   3.536   6.155
10351POPC   GL261046  12.894   3.376   6.155
10351POPC   C1A61047  12.866   3.523   6.455
10351POPC   D2A61048  12.873   3.545   6.755
10351POPC   C3A61049  12.826   3.527   7.055
10351POPC   C4A61050  12.825   3.589   7.355
10351POPC   C1B61051  12.875   3.246   6.455
10351POPC   C2B61052  12.883   3.267   6.755
10351POPC   C3B61053  12.931   3.293   7.055
10351POPC   C4B61054  12.934   3.306   7.355
10352POPC   NC361055  22.142  25.307   5.555
10352POPC   PO461056  22.142  25.222   5.855
10352POPC   GL161057  22.212  25.277   6.155
10352POPC   GL261058  22.307  25.295   6.155
10352POPC   C1A61059  22.132  25.293   6.455
10352POPC   D2A61060  22.115  25.277   6.755
10352POPC   C3A61061  22.160  25.261   7.055
10352POPC   C4A61062  22.118  25.274   7.355
10352POPC   C1B61063  22.382  25.202   6.455
10352POPC   C2B61064  22.406  25.278   6.755
10352POPC   C3B61065  22.383  25.252   7.055
10352POPC   C4B61066  22.461  25.213   7.355
10353POPC   NC361067  22.122  20.640   5.555
10353POPC   PO461068  22.180  20.652   5.855
10353POPC   GL161069  22.204  20.632   6.155
10353POPC   GL261070  22.248  20.578   6.155
10353POPC   C1A61071  22.141  20.652   6.455
10353POPC   D2A61072  22.168  20.573   6.755
10353POPC   C3A61073  22.136  20.647   7.055
10353POPC   C4A61074  22.122  20.608   7.355
10353POPC   C1B61075  22.343  20.473   6.455
10353POPC   C2B61076  22.344  20.443   6.755
10353POPC   C3B61077  22.329  20.438   7.055
10353POPC   C4B61078  22.327  20.419   7.355
10354POPC   NC361079  36.893   2.038   5.555
10354POPC   PO461080  36.896   1.959   5.855
10354POPC   GL161081  36.872   1.989   6.155
10354POPC   GL261082  36.991   2.049   6.155
10354POPC   C1A61083  36.912   2.037   6.455
10354POPC   D2A61084  36.879   1.956   6.755
10354POPC   C3A61085  36.870   2.005   7.055
10354POPC   C4A61086  36.941   1.988   7.355
10354POPC   C1B61087  37.034   2.180   6.455
10354POPC   C2B61088  37.021   2.255   6.755
10354POPC   C3B61089  37.001   2.180   7.055
10354POPC   C4B61090  37.032   2.216   7.355
10355POPC   NC361091  25.309  39.957   5.555
10355POPC   PO461092  25.289  40.054   5.855
10355POPC   GL161093  25.218  39.974   6.155
10355POPC   GL261094  25.281  39.887   6.155
10355POPC   C1A61095  25.298  40.052   6.455
10355POPC   D2A61096  25.224  40.021   6.755
10355POPC   C3A61097  25.243  39.990   7.055
10355POPC   C4A61098  25.303  40.045   7.355
10355POPC   C1B61099  25.265  39.711   6.455
10355POPC   C2B61100  25.237  39.785   6.755
10355POPC   C3B61101  25.268  39.754   7.055
10355POPC   C4B61102  25.263  39.751   7.355
10356POPC   NC361103  22.176  18.239   5.555
10356POPC   PO461104  22.186  18.298   5.855
10356POPC   GL161105  22.205  18.318   6.155
10356POPC   GL261106  22.160  18.160   6.155
10356POPC   C1A61107  22.180  18.281   6.455
10356POPC   D2A61108  22.131  18.243   6.755
10356POPC   C3A61109  22.207  18.281   7.055
10356POPC   C4A61110  22.147  18.327   7.355
10356POPC   C1B61111  22.205  18.022   6.455
10356POPC   C2B61112  22.170  18.067   6.755
10356POPC   C3B61113  22.180  18.005   7.055
10356POPC   C4B61114  22.176  18.076   7.355
10357POPC   NC361115  40.010  25.228   5.555
10357POPC   PO461116  39.968  25.294   5.855
10357POPC   GL161117  40.048  25.274   6.155
10357POPC   GL261118  40.139  25.141   6.155
10357POPC   C1A61119  40.000  25.270   6.455
10357POPC   D2A61120  39.964  25.218   6.755
10357POPC   C3A61121  40.002  25.294   7.055
10357POPC   C4A61122  40.001  25.278   7.355
10357POPC   C1B61123  40.180  25.097   6.455
10357POPC   C2B61124  40.248  25.126   6.755
10357POPC   C3B61125  40.212  25.142   7.055
10357POPC   C4B61126  40.182  25.122   7.355
10358POPC   NC361127  33.796   8.978   5.555
10358POPC   PO461128  33.803   8.949   5.855
10358POPC   GL161129  33.766   8.960   6.155
10358POPC   GL261130  33.636   8.919   6.155
10358POPC   C1A61131  33.834   9.020   6.455
10358POPC   D2A61132  33.779   8.989   6.755
10358POPC   C3A61133  33.820   8.933   7.055
10358POPC   C4A61134  33.847   9.007   7.355
10358POPC   C1B61135  33.544   8.901   6.455
10358POPC   C2B61136  33.534   8.922   6.755
10358POPC   C3B61137  33.529   8.877   7.055
10358POPC   C4B61138  33.584   8.886   7.355
10359POPC   NC361139   1.951  33.834   5.555
10359POPC   PO461140   1.979  33.815   5.855
10359POPC   GL161141   2.016  33.781   6.155
10359POPC   GL261142   2.103  33.835   6.155
10359POPC   C1A61143   2.006  33.809   6.455
10359POPC   D2A61144   1.975  33.819   6.755
10359POPC   C3A61145   1.989  33.834   7.055
10359POPC   C4A61146   1.993  33.850   7.355
10359POPC   C1B61147   2.199  33.780   6.455
10359POPC   C2B61148   2.264  33.792   6.755
10359POPC   C3B61149   2.279  33.850   7.055
10359POPC   C4B61150   2.253  33.762   7.355
10360POPC   NC361151  39.994  21.387   5.555
10360POPC   PO461152  39.990  21.372   5.855
10360POPC   GL161153  39.990  21.370   6.155
10360POPC   GL261154  40.088  21.318   6.155
10360POPC   C1A61155  39.961  21.369   6.455
10360POPC   D2A61156  39.967  21.373   6.755
10360POPC   C3A61157  39.959  21.374   7.055
10360POPC   C4A61158  39.970  21.412   7.355
10360POPC   C1B61159  40.180  21.264   6.455
10360POPC   C2B61160  40.255  21.286   6.755
10360POPC   C3B61161  40.246  21.298   7.055
10360POPC   C4B61162  40.203  21.305   7.355
10361POPC   NC361163  43.879  21.411   5.555
10361POPC   PO461164  43.861  21.363   5.855
10361POPC   GL161165  43.916  21.416   6.155
10361POPC   GL261166  43.800  21.387   6.155
10361POPC   C1A61167  43.934  21.384   6.455
10361POPC   D2A61168  43.862  21.396   6.755
10361POPC   C3A61169  43.837  21.340   7.055
10361POPC   C4A61170  43.836  21.428   7.355
10361POPC   C1B61171  43.596  21.341   6.455
10361POPC   C2B61172  43.603  21.327   6.755
10361POPC   C3B61173  43.652  21.369   7.055
10361POPC   C4B61174  43.606  21.380   7.355
10362POPC   NC361175   9.753  17.533   5.555
10362POPC   PO461176   9.707  17.509   5.855
10362POPC   GL161177   9.718  17.542   6.155
10362POPC   GL261178   9.793  17.357   6.155
10362POPC   C1A61179   9.717  17.492   6.455
10362POPC   D2A61180   9.783  17.502   6.755
10362POPC   C3A61181   9.768  17.472   7.055
10362POPC   C4A61182   9.772  17.502   7.355
10362POPC   C1B61183   9.803  17.271   6.455
10362POPC   C2B61184   9.837  17.277   6.755
10362POPC   C3B61185   9.861  17.297   7.055
10362POPC   C4B61186   9.810  17.307   7.355
10363POPC   NC361187  29.928  20.575   5.555
10363POPC   PO461188  29.915  20.601   5.855
10363POPC   GL161189  29.883  20.597   6.155
10363POPC   GL261190  30.018  20.504   6.155
10363POPC   C1A61191  29.912  20.648   6.455
10363POPC   D2A61192  29.887  20.602   6.755
10363POPC   C3A61193  29.968  20.619   7.055
10363POPC   C4A61194  29.942  20.609   7.355
10363POPC   C1B61195  30.145  20.448   6.455
10363POPC   C2B61196  30.088  20.447   6.755
10363POPC   C3B61197  30.090  20.497   7.055
10363POPC   C4B61198  30.073  20.498   7.355
10364POPC   NC361199  19.098   3.538   5.555
10364POPC   PO461200  19.019   3.570   5.855
10364POPC   GL161201  19.069   3.535   6.155
10364POPC   GL261202  19.020   3.699   6.155
10364POPC   C1A61203  19.018   3.530   6.455
10364POPC   D2A61204  19.081   3.520   6.755
10364POPC   C3A61205  19.055   3.572   7.055
10364POPC   C4A61206  19.038   3.530   7.355
10364POPC   C1B61207  19.057   3.766   6.455
10364POPC   C2B61208  19.057   3.841   6.755
10364POPC   C3B61209  19.067   3.743   7.055
10364POPC   C4B61210  19.008   3.778   7.355
10365POPC   NC361211  24.475  22.185   5.555
10365POPC   PO461212  24.494  22.199   5.855
10365POPC   GL161213  24.473  22.200   6.155
10365POPC   GL261214  24.370  22.050   6.155
10365POPC   C1A61215  24.479  22.113   6.455
10365POPC   D2A61216  24.511  22.199   6.755
10365POPC   C3A61217  24.507  22.121   7.055
10365POPC   C4A61218  24.481  22.159   7.355
10365POPC   C1B61219  24.308  22.024   6.455
10365POPC   C2B61220  24.273  21.994   6.755
10365POPC   C3B61221  24.260  22.034   7.055
10365POPC   C4B61222  24.350  21.998   7.355
10366POPC   NC361223  33.004  10.501   5.555
10366POPC   PO461224  32.989  10.563   5.855
10366POPC   GL161225  33.012  10.520   6.155
10366POPC   GL261226  32.952  10.651   6.155
10366POPC   C1A61227  32.979  10.573   6.455
10366POPC   D2A61228  32.997  10.500   6.755
10366POPC   C3A61229  33.037  10.563   7.055
10366POPC   C4A61230  33.044  10.546   7.355
10366POPC   C1B61231  32.844  10.777   6.455
10366POPC   C2B61232  32.933  10.774   6.755
10366POPC   C3B61233  32.934  10.701   7.055
10366POPC   C4B61234  32.850  10.729   7.355
10367POPC   NC361235  42.289  27.630   5.555
10367POPC   PO461236  42.364  27.604   5.855
10367POPC   GL161237  42.329  27.614   6.155
10367POPC   GL261238  42.385  27.660   6.155
10367POPC   C1A61239  42.380  27.607   6.455
10367POPC   D2A61240  42.384  27.545   6.755
10367POPC   C3A61241  42.324  27.621   7.055
10367POPC   C4A61242  42.382  27.563   7.355
10367POPC   C1B61243  42.456  27.808   6.455
10367POPC   C2B61244  42.444  27.822   6.755
10367POPC   C3B61245  42.526  27.784   7.055
10367POPC   C4B61246  42.466  27.796   7.355
10368POPC   NC361247  14.417  39.250   5.555
10368POPC   PO461248  14.375  39.272   5.855
10368POPC   GL161249  14.400  39.250   6.155
10368POPC   GL261250  14.276  39.273   6.155
10368POPC   C1A61251  14.418  39.239   6.455
10368POPC   D2A61252  14.394  39.247   6.755
10368POPC   C3A61253  14.394  39.257   7.055
10368POPC   C4A61254  14.447  39.187   7.355
10368POPC   C1B61255  14.175  39.202   6.455
10368POPC   C2B61256  14.134  39.227   6.755
10368POPC   C3B61257  14.129  39.246   7.055
10368POPC   C4B61258  14.127  39.204   7.355
10369POPC   NC361259  43.890  33.799   5.555
10369POPC   PO461260  43.880  33.766   5.855
10369POPC   GL161261  43.853  33.793   6.155
10369POPC   GL261262  43.971  33.794   6.155
10369POPC   C1A61263  43.869  33.789   6.455
10369POPC   D2A61264  43.905  33.845   6.755
10369POPC   C3A61265  43.931  33.831   7.055
10369POPC   C4A61266  43.861  33.807   7.355
10369POPC   C1B61267  44.129  33.744   6.455
10369POPC   C2B61268  44.069  33.709   6.755
10369POPC   C3B61269  44.165  33.729   7.055
10369POPC   C4B61270  44.127  33.692   7.355
10370POPC   NC361271   8.997   8.148   5.555
10370POPC   PO461272   8.952   8.195   5.855
10370POPC   GL161273   8.971   8.150   6.155
10370POPC   GL261274   8.903   8.272   6.155
10370POPC   C1A61275   8.967   8.183   6.455
10370POPC   D2A61276   8.949   8.237   6.755
10370POPC   C3A61277   8.925   8.191   7.055
10370POPC   C4A61278   8.991   8.221   7.355
10370POPC   C1B61279   8.851   8.476   6.455
10370POPC   C2B61280   8.902   8.390   6.755
10370POPC   C3B61281   8.861   8.418   7.055
10370POPC   C4B61282   8.850   8.408   7.355
10371POPC   NC361283   2.782  33.778   5.555
10371POPC   PO461284   2.814  33.756   5.855
10371POPC   GL161285   2.781  33.776   6.155
10371POPC   GL261286   2.837  33.727   6.155
10371POPC   C1A61287   2.754  33.801   6.455
10371POPC   D2A61288   2.814  33.794   6.755
10371POPC   C3A61289   2.746  33.811   7.055
10371POPC   C4A61290   2.726  33.847   7.355
10371POPC   C1B61291   2.945  33.692   6.455
10371POPC   C2B61292   2.995  33.632   6.755
10371POPC   C3B61293   2.962  33.689   7.055
10371POPC   C4B61294   2.949  33.659   7.355
10372POPC   NC361295  40.023  17.523   5.555
10372POPC   PO461296  39.968  17.527   5.855
10372POPC   GL161297  40.056  17.514   6.155
10372POPC   GL261298  39.920  17.500   6.155
10372POPC   C1A61299  39.973  17.530   6.455
10372POPC   D2A61300  40.047  17.458   6.755
10372POPC   C3A61301  39.991  17.526   7.055
10372POPC   C4A61302  39.961  17.528   7.355
10372POPC   C1B61303  39.719  17.454   6.455
10372POPC   C2B61304  39.725  17.449   6.755
10372POPC   C3B61305  39.722  17.440   7.055
10372POPC   C4B61306  39.710  17.472   7.355
10373POPC   NC361307  16.704   7.446   5.555
10373POPC   PO461308  16.756   7.407   5.855
10373POPC   GL161309  16.774   7.452   6.155
10373POPC   GL261310  16.660   7.338   6.155
10373POPC   C1A61311  16.690   7.410   6.455
10373POPC   D2A61312  16.716   7.372   6.755
10373POPC   C3A61313  16.733   7.470   7.055
10373POPC   C4A61314  16.750   7.387   7.355
10373POPC   C1B61315  16.537   7.272   6.455
10373POPC   C2B61316  16.523   7.240   6.755
10373POPC   C3B61317  16.562   7.207   7.055
10373POPC   C4B61318  16.505   7.281   7.355
10374POPC   NC361319  40.777   6.685   5.555
10374POPC   PO461320  40.827   6.673   5.855
10374POPC   GL161321  40.802   6.655   6.155
10374POPC   GL261322  40.797   6.737   6.155
10374POPC   C1A61323  40.801   6.686   6.455
10374POPC   D2A61324  40.805   6.654   6.755
10374POPC   C3A61325  40.768   6.622   7.055
10374POPC   C4A61326  40.744   6.674   7.355
10374POPC   C1B61327  40.797   6.907   6.455
10374POPC   C2B61328  40.788   6.884   6.755
10374POPC   C3B61329  40.792   6.877   7.055
10374POPC   C4B61330  40.827   6.840   7.355
10375POPC   NC361331  23.742  36.169   5.555
10375POPC   PO461332  23.745  36.109   5.855
10375POPC   GL161333  23.755  36.102   6.155
10375POPC   GL261334  23.702  36.007   6.155
10375POPC   C1A61335  23.687  36.176   6.455
10375POPC   D2A61336  23.725  36.107   6.755
10375POPC   C3A61337  23.708  36.102   7.055
10375POPC   C4A61338  23.671  36.169   7.355
10375POPC   C1B61339  23.686  35.926   6.455
10375POPC   C2B61340  23.701  35.841   6.755
10375POPC   C3B61341  23.666  35.885   7.055
10375POPC   C4B61342  23.711  35.847   7.355
10376POPC   NC361343   1.994  12.071   5.555
10376POPC   PO461344   2.001  12.043   5.855
10376POPC   GL161345   1.941  12.067   6.155
10376POPC   GL261346   1.922  11.920   6.155
10376POPC   C1A61347   1.968  12.092   6.455
10376POPC   D2A61348   2.032  12.064   6.755
10376POPC   C3A61349   2.030  12.038   7.055
10376POPC   C4A61350   1.958  12.119   7.355
10376POPC   C1B61351   1.906  11.843   6.455
10376POPC   C2B61352   1.871  11.847   6.755
10376POPC   C3B61353   1.946  11.795   7.055
10376POPC   C4B61354   1.907  11.806   7.355
10377POPC   NC361355  36.158   0.439   5.555
10377POPC   PO461356  36.143   0.404   5.855
10377POPC   GL161357  36.176   0.428   6.155
10377POPC   GL261358  35.960   0.478   6.155
10377POPC   C1A61359  36.167   0.432   6.455
10377POPC   D2A61360  36.168   0.440   6.755
10377POPC   C3A61361  36.145   0.421   7.055
10377POPC   C4A61362  36.129   0.479   7.355
10377POPC   C1B61363  35.853   0.434   6.455
10377POPC   C2B61364  35.838   0.385   6.755
10377POPC   C3B61365  35.916   0.471   7.055
10377POPC   C4B61366  35.855   0.476   7.355
10378POPC   NC361367  15.188  43.099   5.555
10378POPC   PO461368  15.194  43.072   5.855
10378POPC   GL161369  15.205  43.088   6.155
10378POPC   GL261370  15.047  43.123   6.155
10378POPC   C1A61371  15.198  43.157   6.455
10378POPC   D2A61372  15.178  43.081   6.755
10378POPC   C3A61373  15.209  43.149   7.055
10378POPC   C4A61374  15.220  43.096   7.355
10378POPC   C1B61375  14.906  43.047   6.455
10378POPC   C2B61376  14.911  43.092   6.755
10378POPC   C3B61377  14.965  43.035   7.055
10378POPC   C4B61378  14.972  43.036   7.355
10379POPC   NC361379  38.443   5.890   5.555
10379POPC   PO461380  38.417   5.843   5.855
10379POPC   GL161381  38.424   5.906   6.155
10379POPC   GL261382  38.300   5.959   6.155
10379POPC   C1A61383  38.471   5.870   6.455
10379POPC   D2A61384  38.453   5.821   6.755
10379POPC   C3A61385  38.494   5.832   7.055
10379POPC   C4A61386  38.504   5.835   7.355
10379POPC   C1B61387  38.235   5.960   6.455
10379POPC   C2B61388  38.193   5.977   6.755
10379POPC   C3B61389  38.269   6.042   7.055
10379POPC   C4B61390  38.211   6.020   7.355
10380POPC   NC361391  22.116  35.367   5.555
10380POPC   PO461392  22.159  35.341   5.855
10380POPC   GL161393  22.211  35.358   6.155
10380POPC   GL261394  22.237  35.475   6.155
10380POPC   C1A61395  22.148  35.378   6.455
10380POPC   D2A61396  22.192  35.348   6.755
10380POPC   C3A61397  22.156  35.359   7.055
10380POPC   C4A61398  22.170  35.362   7.355
10380POPC   C1B61399  22.341  35.530   6.455
10380POPC   C2B61400  22.337  35.587   6.755
10380POPC   C3B61401  22.339  35.585   7.055
10380POPC   C4B61402  22.334  35.576   7.355
10381POPC   NC361403   2.752  14.413   5.555
10381POPC   PO461404   2.730  14.424   5.855
10381POPC   GL161405   2.807  14.416   6.155
10381POPC   GL261406   2.768  14.275   6.155
10381POPC   C1A61407   2.813  14.398   6.455
10381POPC   D2A61408   2.756  14.418   6.755
10381POPC   C3A61409   2.798  14.386   7.055
10381POPC   C4A61410   2.761  14.395   7.355
10381POPC   C1B61411   2.883  14.214   6.455
10381POPC   C2B61412   2.890  14.181   6.755
10381POPC   C3B61413   2.811  14.177   7.055
10381POPC   C4B61414   2.851  14.210   7.355
10382POPC   NC361415  22.208  17.459   5.555
10382POPC   PO461416  22.144  17.463   5.855
10382POPC   GL161417  22.208  17.545   6.155
10382POPC   GL261418  22.188  17.389   6.155
10382POPC   C1A61419  22.176  17.547   6.455
10382POPC   D2A61420  22.211  17.511   6.755
10382POPC   C3A61421  22.121  17.533   7.055
10382POPC   C4A61422  22.153  17.500   7.355
10382POPC   C1B61423  22.206  17.313   6.455
10382POPC   C2B61424  22.280  17.318   6.755
10382POPC   C3B61425  22.268  17.282   7.055
10382POPC   C4B61426  22.216  17.235   7.355
10383POPC   NC361427  31.429  15.981   5.555
10383POPC   PO461428  31.438  15.957   5.855
10383POPC   GL161429  31.436  15.943   6.155
10383POPC   GL261430  31.396  15.832   6.155
10383POPC   C1A61431  31.497  15.936   6.455
10383POPC   D2A61432  31.472  15.989   6.755
10383POPC   C3A61433  31.439  15.933   7.055
10383POPC   C4A61434  31.460  15.913   7.355
10383POPC   C1B61435  31.309  15.794   6.455
10383POPC   C2B61436  31.321  15.802   6.755
10383POPC   C3B61437  31.304  15.822   7.055
10383POPC   C4B61438  31.279  15.761   7.355
10384POPC   NC361439   5.884  12.071   5.555
10384POPC   PO461440   5.916  12.048   5.855
10384POPC   GL161441   5.852  12.101   6.155
10384POPC   GL261442   5.820  11.956   6.155
10384POPC   C1A61443   5.887  12.071   6.455
10384POPC   D2A61444   5.888  12.065   6.755
10384POPC   C3A61445   5.840  12.053   7.055
10384POPC   C4A61446   5.886  12.087   7.355
10384POPC   C1B61447   5.741  11.854   6.455
10384POPC   C2B61448   5.734  11.860   6.755
10384POPC   C3B61449   5.699  11.886   7.055
10384POPC   C4B61450   5.749  11.839   7.355
10385POPC   NC361451  29.902  36.094   5.555
10385POPC   PO461452  29.962  36.097   5.855
10385POPC   GL161453  29.914  36.147   6.155
10385POPC   GL261454  30.068  36.086   6.155
10385POPC   C1A61455  29.930  36.165   6.455
10385POPC   D2A61456  29.922  36.115   6.755
10385POPC   C3A61457  29.933  36.140   7.055
10385POPC   C4A61458  29.887  36.165   7.355
10385POPC   C1B61459  30.198  36.076   6.455
10385POPC   C2B61460  30.189  36.121   6.755
10385POPC   C3B61461  30.168  36.151   7.055
10385POPC   C4B61462  30.199  36.075   7.355
10386POPC   NC361463   2.786  24.536   5.555
10386POPC   PO461464   2.741  24.471   5.855
10386POPC   GL161465   2.743  24.514   6.155
10386POPC   GL261466   2.779  24.565   6.155
10386POPC   C1A61467   2.767  24.525   6.455
10386POPC   D2A61468   2.762  24.481   6.755
10386POPC   C3A61469   2.759  24.531   7.055
10386POPC   C4A61470   2.767  24.482   7.355
10386POPC   C1B61471   2.730  24.769   6.455
10386POPC   C2B61472   2.796  24.701   6.755
10386POPC   C3B61473   2.715  24.781   7.055
10386POPC   C4B61474   2.719  24.705   7.355
10387POPC   NC361475  29.140  10.569   5.555
10387POPC   PO461476  29.098  10.507   5.855
10387POPC   GL161477  29.163  10.518   6.155
10387POPC   GL261478  29.110  10.403   6.155
10387POPC   C1A61479  29.165  10.522   6.455
10387POPC   D2A61480  29.192  10.529   6.755
10387POPC   C3A61481  29.130  10.476   7.055
10387POPC   C4A61482  29.147  10.538   7.355
10387POPC   C1B61483  29.087  10.305   6.455
10387POPC   C2B61484  29.054  10.244   6.755
10387POPC   C3B61485  29.075  10.271   7.055
10387POPC   C4B61486  29.124  10.238   7.355
10388POPC   NC361487  22.169   4.356   5.555
10388POPC   PO461488  22.191   4.304   5.855
10388POPC   GL161489  22.195   4.321   6.155
10388POPC   GL261490  22.021   4.202   6.155
10388POPC   C1A61491  22.176   4.349   6.455
10388POPC   D2A61492  22.169   4.301   6.755
10388POPC   C3A61493  22.154   4.356   7.055
10388POPC   C4A61494  22.197   4.350   7.355
10388POPC   C1B61495  21.997   4.167   6.455
10388POPC   C2B61496  21.945   4.136   6.755
10388POPC   C3B61497  21.947   4.155   7.055
10388POPC   C4B61498  21.969   4.138   7.355
10389POPC   NC361499  30.655  31.426   5.555
10389POPC   PO461500  30.664  31.507   5.855
10389POPC   GL161501  30.728  31.433   6.155
10389POPC   GL261502  30.629  31.381   6.155
10389POPC   C1A61503  30.679  31.515   6.455
10389POPC   D2A61504  30.686  31.430   6.755
10389POPC   C3A61505  30.689  31.520   7.055
10389POPC   C4A61506  30.709  31.427   7.355
10389POPC   C1B61507  30.662  31.251   6.455
10389POPC   C2B61508  30.612  31.252   6.755
10389POPC   C3B61509  30.636  31.277   7.055
10389POPC   C4B61510  30.602  31.251   7.355
10390POPC   NC361511  26.859  35.348   5.555
10390POPC   PO461512  26.851  35.354   5.855
10390POPC   GL161513  26.827  35.341   6.155
10390POPC   GL261514  26.895  35.469   6.155
10390POPC   C1A61515  26.848  35.347   6.455
10390POPC   D2A61516  26.819  35.396   6.755
10390POPC   C3A61517  26.776  35.310   7.055
10390POPC   C4A61518  26.836  35.388   7.355
10390POPC   C1B61519  26.993  35.595   6.455
10390POPC   C2B61520  26.946  35.572   6.755
10390POPC   C3B61521  26.990  35.598   7.055
10390POPC   C4B61522  26.918  35.612   7.355
10391POPC   NC361523  32.983  13.649   5.555
10391POPC   PO461524  33.059  13.607   5.855
10391POPC   GL161525  32.975  13.652   6.155
10391POPC   GL261526  32.939  13.531   6.155
10391POPC   C1A61527  32.992  13.617   6.455
10391POPC   D2A61528  33.042  13.621   6.755
10391POPC   C3A61529  32.982  13.601   7.055
10391POPC   C4A61530  32.987  13.655   7.355
10391POPC   C1B61531  32.795  13.530   6.455
10391POPC   C2B61532  32.807  13.513   6.755
10391POPC   C3B61533  32.783  13.523   7.055
10391POPC   C4B61534  32.783  13.459   7.355
10392POPC   NC361535  35.332  18.315   5.555
10392POPC   PO461536  35.336  18.261   5.855
10392POPC   GL161537  35.316  18.301   6.155
10392POPC   GL261538  35.502  18.348   6.155
10392POPC   C1A61539  35.366  18.306   6.455
10392POPC   D2A61540  35.356  18.270   6.755
10392POPC   C3A61541  35.385  18.327   7.055
10392POPC   C4A61542  35.322  18.280   7.355
10392POPC   C1B61543  35.573  18.459   6.455
10392POPC   C2B61544  35.532  18.394   6.755
10392POPC   C3B61545  35.562  18.479   7.055
10392POPC   C4B61546  35.582  18.456   7.355
10393POPC   NC361547  40.796  15.165   5.555
10393POPC   PO461548  40.810  15.170   5.855
10393POPC   GL161549  40.822  15.145   6.155
10393POPC   GL261550  40.890  15.149   6.155
10393POPC   C1A61551  40.762  15.209   6.455
10393POPC   D2A61552  40.804  15.187   6.755
10393POPC   C3A61553  40.818  15.212   7.055
10393POPC   C4A61554  40.745  15.149   7.355
10393POPC   C1B61555  41.052  15.169   6.455
10393POPC   C2B61556  41.055  15.168   6.755
10393POPC   C3B61557  40.987  15.157   7.055
10393POPC   C4B61558  41.070  15.161   7.355
10394POPC   NC361559  43.147   9.738   5.555
10394POPC   PO461560  43.107   9.756   5.855
10394POPC   GL161561  43.123   9.769   6.155
10394POPC   GL261562  42.947   9.727   6.155
10394POPC   C1A61563  43.134   9.727   6.455
10394POPC   D2A61564  43.104   9.714   6.755
10394POPC   C3A61565  43.144   9.773   7.055
10394POPC   C4A61566  43.139   9.750   7.355
10394POPC   C1B61567  42.826   9.755   6.455
10394POPC   C2B61568  42.866   9.774   6.755
10394POPC   C3B61569  42.831   9.759   7.055
10394POPC   C4B61570  42.814   9.734   7.355
10395POPC   NC361571  31.517   3.515   5.555
10395POPC   PO461572  31.457   3.575   5.855
10395POPC   GL161573  31.509   3.585   6.155
10395POPC   GL261574  31.521   3.422   6.155
10395POPC   C1A61575  31.483   3.572   6.455
10395POPC   D2A61576  31.505   3.534   6.755
10395POPC   C3A61577  31.473   3.508   7.055
10395POPC   C4A61578  31.498   3.525   7.355
10395POPC   C1B61579  31.492   3.296   6.455
10395POPC   C2B61580  31.458   3.296   6.755
10395POPC   C3B61581  31.436   3.271   7.055
10395POPC   C4B61582  31.501   3.277   7.355
10396POPC   NC361583  22.972  23.678   5.555
10396POPC   PO461584  22.984  23.717   5.855
10396POPC   GL161585  22.931  23.674   6.155
10396POPC   GL261586  22.967  23.588   6.155
10396POPC   C1A61587  22.981  23.690   6.455
10396POPC   D2A61588  22.962  23.719   6.755
10396POPC   C3A61589  22.947  23.747   7.055
10396POPC   C4A61590  22.942  23.677   7.355
10396POPC   C1B61591  23.076  23.499   6.455
10396POPC   C2B61592  23.007  23.528   6.755
10396POPC   C3B61593  23.026  23.533   7.055
10396POPC   C4B61594  23.094  23.473   7.355
10397POPC   NC361595   5.918  29.916   5.555
10397POPC   PO461596   5.881  29.937   5.855
10397POPC   GL161597   5.849  29.919   6.155
10397POPC   GL261598   5.760  29.904   6.155
10397POPC   C1A61599   5.858  29.943   6.455
10397POPC   D2A61600   5.878  29.939   6.755
10397POPC   C3A61601   5.854  29.933   7.055
10397POPC   C4A61602   5.839  29.967   7.355
10397POPC   C1B61603   5.626  30.026   6.455
10397POPC   C2B61604   5.673  29.937   6.755
10397POPC   C3B61605   5.672  29.953   7.055
10397POPC   C4B61606   5.662  29.958   7.355
10398POPC   NC361607  26.831  12.864   5.555
10398POPC   PO461608  26.811  12.846   5.855
10398POPC   GL161609  26.784  12.891   6.155
10398POPC   GL261610  26.946  12.982   6.155
10398POPC   C1A61611  26.804  12.883   6.455
10398POPC   D2A61612  26.839  12.871   6.755
10398POPC   C3A61613  26.812  12.819   7.055
10398POPC   C4A61614  26.835  12.826   7.355
10398POPC   C1B61615  26.933  13.000   6.455
10398POPC   C2B61616  26.941  13.058   6.755
10398POPC   C3B61617  26.931  13.068   7.055
10398POPC   C4B61618  26.975  13.061   7.355
10399POPC   NC361619  32.248  10.568   5.555
10399POPC   PO461620  32.254  10.494   5.855
10399POPC   GL161621  32.287  10.495   6.155
10399POPC   GL261622  32.290  10.358   6.155
10399POPC   C1A61623  32.249  10.505   6.455
10399POPC   D2A61624  32.201  10.547   6.755
10399POPC   C3A61625  32.223  10.511   7.055
10399POPC   C4A61626  32.200  10.562   7.355
10399POPC   C1B61627  32.200  10.319   6.455
10399POPC   C2B61628  32.229  10.285   6.755
10399POPC   C3B61629  32.278  10.272   7.055
10399POPC   C4B61630  32.209  10.245   7.355
10400POPC   NC361631  25.315  34.560   5.555
10400POPC   PO461632  25.285  34.542   5.855
10400POPC   GL161633  25.269  34.595   6.155
10400POPC   GL261634  25.267  34.678   6.155
10400POPC   C1A61635  25.281  34.587   6.455
10400POPC   D2A61636  25.243  34.602   6.755
10400POPC   C3A61637  25.221  34.597   7.055
10400POPC   C4A61638  25.277  34.566   7.355
10400POPC   C1B61639  25.316  34.840   6.455
10400POPC   C2B61640  25.306  34.804   6.755
10400POPC   C3B61641  25.324  34.839   7.055
10400POPC   C4B61642  25.279  34.834   7.355
10401POPC   NC361643  24.518  42.303   5.555
10401POPC   PO461644  24.456  42.307   5.855
10401POPC   GL161645  24.494  42.305   6.155
10401POPC   GL261646  24.436  42.394   6.155
10401POPC   C1A61647  24.531  42.298   6.455
10401POPC   D2A61648  24.524  42.368   6.755
10401POPC   C3A61649  24.448  42.321   7.055
10401POPC   C4A61650  24.482  42.305   7.355
10401POPC   C1B61651  24.334  42.440   6.455
10401POPC   C2B61652  24.240  42.437   6.755
10401POPC   C3B61653  24.303  42.524   7.055
10401POPC   C4B61654  24.285  42.526   7.355
10402POPC   NC361655  15.224  29.173   5.555
10402POPC   PO461656  15.154  29.171   5.855
10402POPC   GL161657  15.208  29.122   6.155
10402POPC   GL261658  15.120  29.035   6.155
10402POPC   C1A61659  15.180  29.194   6.455
10402POPC   D2A61660  15.186  29.114   6.755
10402POPC   C3A61661  15.131  29.132   7.055
10402POPC   C4A61662  15.203  29.181   7.355
10402POPC   C1B61663  15.006  28.894   6.455
10402POPC   C2B61664  15.042  28.922   6.755
10402POPC   C3B61665  15.067  28.918   7.055
10402POPC   C4B61666  15.020  28.981   7.355
10403POPC   NC361667  26.796   5.061   5.555
10403POPC   PO461668  26.791   5.131   5.855
10403POPC   GL161669  26.827   5.138   6.155
10403POPC   GL261670  26.866   4.991   6.155
10403POPC   C1A61671  26.823   5.106   6.455
10403POPC   D2A61672  26.806   5.066   6.755
10403POPC   C3A61673  26.777   5.070   7.055
10403POPC   C4A61674  26.791   5.083   7.355
10403POPC   C1B61675  26.946   4.879   6.455
10403POPC   C2B61676  26.983   4.897   6.755
10403POPC   C3B61677  26.910   4.921   7.055
10403POPC   C4B61678  26.955   4.841   7.355
10404POPC   NC361679  39.982  13.647   5.555
10404POPC   PO461680  39.994  13.646   5.855
10404POPC   GL161681  39.991  13.612   6.155
10404POPC   GL261682  39.981  13.706   6.155
10404POPC   C1A61683  40.020  13.585   6.455
10404POPC   D2A61684  40.021  13.663   6.755
10404POPC   C3A61685  40.008  13.641   7.055
10404POPC   C4A61686  40.034  13.636   7.355
10404POPC   C1B61687  39.896  13.807   6.455
10404POPC   C2B61688  39.892  13.836   6.755
10404POPC   C3B61689  39.916  13.861   7.055
10404POPC   C4B61690  39.837  13.885   7.355
10405POPC   NC361691  29.100   4.300   5.555
10405POPC   PO461692  29.179   4.286   5.855
10405POPC   GL161693  29.185   4.340   6.155
10405POPC   GL261694  29.037   4.287   6.155
10405POPC   C1A61695  29.104   4.324   6.455
10405POPC   D2A61696  29.101   4.279   6.755
10405POPC   C3A61697  29.159   4.329   7.055
10405POPC   C4A61698  29.135   4.365   7.355
10405POPC   C1B61699  28.849   4.305   6.455
10405POPC   C2B61700  28.881   4.359   6.755
10405POPC   C3B61701  28.867   4.335   7.055
10405POPC   C4B61702  28.928   4.322   7.355
10406POPC   NC361703  22.906  25.297   5.555
10406POPC   PO461704  22.967  25.246   5.855
10406POPC   GL161705  22.890  25.248   6.155
10406POPC   GL261706  22.863  25.193   6.155
10406POPC   C1A61707  22.985  25.284   6.455
10406POPC   D2A61708  22.918  25.280   6.755
10406POPC   C3A61709  22.939  25.274   7.055
10406POPC   C4A61710  22.894  25.244   7.355
10406POPC   C1B61711  22.702  25.150   6.455
10406POPC   C2B61712  22.689  25.179   6.755
10406POPC   C3B61713  22.671  25.128   7.055
10406POPC   C4B61714  22.747  25.171   7.355
10407POPC   NC361715  37.712  19.049   5.555
10407POPC   PO461716  37.715  19.104   5.855
10407POPC   GL161717  37.642  19.025   6.155
10407POPC   GL261718  37.559  19.099   6.155
10407POPC   C1A61719  37.649  19.026   6.455
10407POPC   D2A61720  37.650  19.018   6.755
10407POPC   C3A61721  37.645  19.023   7.055
10407POPC   C4A61722  37.706  19.102   7.355
10407POPC   C1B61723  37.480  19.113   6.455
10407POPC   C2B61724  37.472  19.062   6.755
10407POPC   C3B61725  37.442  19.122   7.055
10407POPC   C4B61726  37.432  19.030   7.355
10408POPC   NC361727  32.263  22.949   5.555
10408POPC   PO461728  32.296  22.893   5.855
10408POPC   GL161729  32.227  22.888   6.155
10408POPC   GL261730  32.400  23.025   6.155
10408POPC   C1A61731  32.231  22.960   6.455
10408POPC   D2A61732  32.231  22.896   6.755
10408POPC   C3A61733  32.278  22.898   7.055
10408POPC   C4A61734  32.230  22.890   7.355
10408POPC   C1B61735  32.424  23.032   6.455
10408POPC   C2B61736  32.496  23.033   6.755
10408POPC   C3B61737  32.500  23.060   7.055
10408POPC   C4B61738  32.477  23.003   7.355
10409POPC   NC361739  26.826   4.286   5.555
10409POPC   PO461740  26.823   4.310   5.855
10409POPC   GL161741  26.850   4.281   6.155
10409POPC   GL261742  26.967   4.351   6.155
10409POPC   C1A61743  26.776   4.361   6.455
10409POPC   D2A61744  26.802   4.313   6.755
10409POPC   C3A61745  26.799   4.360   7.055
10409POPC   C4A61746  26.788   4.331   7.355
10409POPC   C1B61747  27.024   4.390   6.455
10409POPC   C2B61748  27.089   4.372   6.755
10409POPC   C3B61749  27.094   4.405   7.055
10409POPC   C4B61750  27.086   4.403   7.355
10410POPC   NC361751  44.644  22.201   5.555
10410POPC   PO461752  44.632  22.127   5.855
10410POPC   GL161753  44.683  22.203   6.155
10410POPC   GL261754  44.529  22.151   6.155
10410POPC   C1A61755  44.681  22.148   6.455
10410POPC   D2A61756  44.654  22.184   6.755
10410POPC   C3A61757  44.694  22.124   7.055
10410POPC   C4A61758  44.698  22.151   7.355
10410POPC   C1B61759  44.386  22.177   6.455
10410POPC   C2B61760  44.411  22.187   6.755
10410POPC   C3B61761  44.442  22.195   7.055
10410POPC   C4B61762  44.458  22.164   7.355
10411POPC   NC361763  24.448  14.360   5.555
10411POPC   PO461764  24.502  14.420   5.855
10411POPC   GL161765  24.475  14.415   6.155
10411POPC   GL261766  24.647  14.354   6.155
10411POPC   C1A61767  24.505  14.368   6.455
10411POPC   D2A61768  24.463  14.407   6.755
10411POPC   C3A61769  24.505  14.403   7.055
10411POPC   C4A61770  24.521  14.442   7.355
10411POPC   C1B61771  24.755  14.405   6.455
10411POPC   C2B61772  24.780  14.380   6.755
10411POPC   C3B61773  24.715  14.437   7.055
10411POPC   C4B61774  24.788  14.348   7.355
10412POPC   NC361775  39.978   6.675   5.555
10412POPC   PO461776  40.002   6.646   5.855
10412POPC   GL161777  39.980   6.675   6.155
10412POPC   GL261778  40.048   6.535   6.155
10412POPC   C1A61779  39.983   6.629   6.455
10412POPC   D2A61780  40.033   6.651   6.755
10412POPC   C3A61781  40.007   6.683   7.055
10412POPC   C4A61782  39.960   6.617   7.355
10412POPC   C1B61783  40.174   6.463   6.455
10412POPC   C2B61784  40.197   6.423   6.755
10412POPC   C3B61785  40.133   6.428   7.055
10412POPC   C4B61786  40.128   6.450   7.355
10413POPC   NC361787   5.841  43.110   5.555
10413POPC   PO461788   5.875  43.098   5.855
10413POPC   GL161789   5.874  43.082   6.155
10413POPC   GL261790   5.773  43.129   6.155
10413POPC   C1A61791   5.899  43.147   6.455
10413POPC   D2A61792   5.900  43.067   6.755
10413POPC   C3A61793   5.915  43.073   7.055
10413POPC   C4A61794   5.910  43.075   7.355
10413POPC   C1B61795   5.638  43.267   6.455
10413POPC   C2B61796   5.644  43.288   6.755
10413POPC   C3B61797   5.637  43.266   7.055
10413POPC   C4B61798   5.655  43.240   7.355
10414POPC   NC361799  42.345  42.336   5.555
10414POPC   PO461800  42.350  42.295   5.855
10414POPC   GL161801  42.308  42.381   6.155
10414POPC   GL261802  42.274  42.220   6.155
10414POPC   C1A61803  42.348  42.346   6.455
10414POPC   D2A61804  42.310  42.329   6.755
10414POPC   C3A61805  42.287  42.323   7.055
10414POPC   C4A61806  42.317  42.314   7.355
10414POPC   C1B61807  42.200  42.123   6.455
10414POPC   C2B61808  42.246  42.081   6.755
10414POPC   C3B61809  42.223  42.085   7.055
10414POPC   C4B61810  42.151  42.092   7.355
10415POPC   NC361811  13.594  26.794   5.555
10415POPC   PO461812  13.667  26.828   5.855
10415POPC   GL161813  13.644  26.858   6.155
10415POPC   GL261814  13.497  26.863   6.155
10415POPC   C1A61815  13.652  26.798   6.455
10415POPC   D2A61816  13.616  26.820   6.755
10415POPC   C3A61817  13.599  26.855   7.055
10415POPC   C4A61818  13.595  26.855   7.355
10415POPC   C1B61819  13.477  26.952   6.455
10415POPC   C2B61820  13.429  27.049   6.755
10415POPC   C3B61821  13.417  26.954   7.055
10415POPC   C4B61822  13.460  26.960   7.355
10416POPC   NC361823  30.709  34.558   5.555
10416POPC   PO461824  30.710  34.610   5.855
10416POPC   GL161825  30.740  34.592   6.155
10416POPC   GL261826  30.615  34.606   6.155
10416POPC   C1A61827  30.746  34.602   6.455
10416POPC   D2A61828  30.714  34.567   6.755
10416POPC   C3A61829  30.743  34.530   7.055
10416POPC   C4A61830  30.744  34.620   7.355
10416POPC   C1B61831  30.465  34.649   6.455
10416POPC   C2B61832  30.464  34.674   6.755
10416POPC   C3B61833  30.460  34.672   7.055
10416POPC   C4B61834  30.450  34.721   7.355
10417POPC   NC361835  29.126   2.811   5.555
10417POPC   PO461836  29.130   2.809   5.855
10417POPC   GL161837  29.188   2.778   6.155
10417POPC   GL261838  29.063   2.802   6.155
10417POPC   C1A61839  29.157   2.757   6.455
10417POPC   D2A61840  29.150   2.796   6.755
10417POPC   C3A61841  29.147   2.734   7.055
10417POPC   C4A61842  29.130   2.719   7.355
10417POPC   C1B61843  28.894   2.872   6.455
10417POPC   C2B61844  28.876   2.828   6.755
10417POPC   C3B61845  28.898   2.799   7.055
10417POPC   C4B61846  28.899   2.793   7.355
10418POPC   NC361847  39.975  43.130   5.555
10418POPC   PO461848  40.027  43.117   5.855
10418POPC   GL161849  40.036  43.108   6.155
10418POPC   GL261850  39.873  43.065   6.155
10418POPC   C1A61851  39.973  43.103   6.455
10418POPC   D2A61852  39.985  43.089   6.755
10418POPC   C3A61853  40.042  43.127   7.055
10418POPC   C4A61854  40.002  43.079   7.355
10418POPC   C1B61855  39.784  43.129   6.455
10418POPC   C2B61856  39.725  43.082   6.755
10418POPC   C3B61857  39.777  43.110   7.055
10418POPC   C4B61858  39.803  43.103   7.355
10419POPC   NC361859  26.012  17.466   5.555
10419POPC   PO461860  26.005  17.539   5.855
10419POPC   GL161861  26.003  17.552   6.155
10419POPC   GL261862  25.975  17.412   6.155
10419POPC   C1A61863  26.051  17.514   6.455
10419POPC   D2A61864  25.995  17.522   6.755
10419POPC   C3A61865  26.016  17.485   7.055
10419POPC   C4A61866  26.070  17.499   7.355
10419POPC   C1B61867  25.828  17.355   6.455
10419POPC   C2B61868  25.874  17.340   6.755
10419POPC   C3B61869  25.881  17.344   7.055
10419POPC   C4B61870  25.900  17.317   7.355
10420POPC   NC361871  36.084  26.060   5.555
10420POPC   PO461872  36.125  26.008   5.855
10420POPC   GL161873  36.170  26.065   6.155
10420POPC   GL261874  36.136  25.921   6.155
10420POPC   C1A61875  36.135  26.072   6.455
10420POPC   D2A61876  36.162  26.065   6.755
10420POPC   C3A61877  36.140  26.082   7.055
10420POPC   C4A61878  36.155  26.077   7.355
10420POPC   C1B61879  36.237  25.829   6.455
10420POPC   C2B61880  36.225  25.774   6.755
10420POPC   C3B61881  36.191  25.769   7.055
10420POPC   C4B61882  36.220  25.829   7.355
10421POPC   NC361883  44.643  35.397   5.555
10421POPC   PO461884  44.648  35.396   5.855
10421POPC   GL161885  44.690  35.388   6.155
10421POPC   GL261886  44.495  35.314   6.155
10421POPC   C1A61887  44.640  35.313   6.455
10421POPC   D2A61888  44.626  35.318   6.755
10421POPC   C3A61889  44.661  35.365   7.055
10421POPC   C4A61890  44.627  35.331   7.355
10421POPC   C1B61891  44.403  35.283   6.455
10421POPC   C2B61892  44.412  35.302   6.755
10421POPC   C3B61893  44.380  35.341   7.055
10421POPC   C4B61894  44.430  35.266   7.355
10422POPC   NC361895  42.370  40.735   5.555
10422POPC   PO461896  42.299  40.800   5.855
10422POPC   GL161897  42.316  40.752   6.155
10422POPC   GL261898  42.233  40.805   6.155
10422POPC   C1A61899  42.324  40.793   6.455
10422POPC   D2A61900  42.314  40.754   6.755
10422POPC   C3A61901  42.362  40.780   7.055
10422POPC   C4A61902  42.331  40.826   7.355
10422POPC   C1B61903  42.115  40.896   6.455
10422POPC   C2B61904  42.116  40.874   6.755
10422POPC   C3B61905  42.057  40.851   7.055
10422POPC   C4B61906  42.130  40.885   7.355
10423POPC   NC361907  35.335  23.720   5.555
10423POPC   PO461908  35.314  23.718   5.855
10423POPC   GL161909  35.384  23.694   6.155
10423POPC   GL261910  35.452  23.717   6.155
10423POPC   C1A61911  35.329  23.701   6.455
10423POPC   D2A61912  35.325  23.733   6.755
10423POPC   C3A61913  35.399  23.745   7.055
10423POPC   C4A61914  35.309  23.664   7.355
10423POPC   C1B61915  35.643  23.740   6.455
10423POPC   C2B61916  35.581  23.806   6.755
10423POPC   C3B61917  35.604  23.723   7.055
10423POPC   C4B61918  35.564  23.769   7.355
10424POPC   NC361919  34.587  35.342   5.555
10424POPC   PO461920  34.539  35.320   5.855
10424POPC   GL161921  34.540  35.382   6.155
10424POPC   GL261922  34.544  35.401   6.155
10424POPC   C1A61923  34.595  35.393   6.455
10424POPC   D2A61924  34.580  35.363   6.755
10424POPC   C3A61925  34.566  35.304   7.055
10424POPC   C4A61926  34.548  35.383   7.355
10424POPC   C1B61927  34.404  35.583   6.455
10424POPC   C2B61928  34.437  35.576   6.755
10424POPC   C3B61929  34.473  35.525   7.055
10424POPC   C4B61930  34.412  35.563   7.355
10425POPC   NC361931  17.459  29.875   5.555
10425POPC   PO461932  17.459  29.879   5.855
10425POPC   GL161933  17.474  29.901   6.155
10425POPC   GL261934  17.673  29.934   6.155
10425POPC   C1A61935  17.543  29.901   6.455
10425POPC   D2A61936  17.525  29.895   6.755
10425POPC   C3A61937  17.518  29.901   7.055
10425POPC   C4A61938  17.488  29.891   7.355
10425POPC   C1B61939  17.735  30.004   6.455
10425POPC   C2B61940  17.757  30.021   6.755
10425POPC   C3B61941  17.760  30.051   7.055
10425POPC   C4B61942  17.768  29.975   7.355
10426POPC   NC361943   5.868  26.065   5.555
10426POPC   PO461944   5.875  26.062   5.855
10426POPC   GL161945   5.843  26.049   6.155
10426POPC   GL261946   5.794  25.885   6.155
10426POPC   C1A61947   5.862  26.026   6.455
10426POPC   D2A61948   5.842  26.075   6.755
10426POPC   C3A61949   5.828  26.091   7.055
10426POPC   C4A61950   5.898  26.008   7.355
10426POPC   C1B61951   5.775  25.802   6.455
10426POPC   C2B61952   5.728  25.786   6.755
10426POPC   C3B61953   5.776  25.818   7.055
10426POPC   C4B61954   5.765  25.831   7.355
10427POPC   NC361955   3.572  42.378   5.555
10427POPC   PO461956   3.504  42.287   5.855
10427POPC   GL161957   3.515  42.330   6.155
10427POPC   GL261958   3.494  42.283   6.155
10427POPC   C1A61959   3.504  42.337   6.455
10427POPC   D2A61960   3.496  42.373   6.755
10427POPC   C3A61961   3.537  42.343   7.055
10427POPC   C4A61962   3.535  42.361   7.355
10427POPC   C1B61963   3.395  42.137   6.455
10427POPC   C2B61964   3.420  42.158   6.755
10427POPC   C3B61965   3.425  42.110   7.055
10427POPC   C4B61966   3.377  42.089   7.355
10428POPC   NC361967  25.273  35.303   5.555
10428POPC   PO461968  25.285  35.307   5.855
10428POPC   GL161969  25.309  35.314   6.155
10428POPC   GL261970  25.249  35.191   6.155
10428POPC   C1A61971  25.229  35.395   6.455
10428POPC   D2A61972  25.305  35.327   6.755
10428POPC   C3A61973  25.218  35.328   7.055
10428POPC   C4A61974  25.282  35.389   7.355
10428POPC   C1B61975  25.292  35.114   6.455
10428POPC   C2B61976  25.303  35.078   6.755
10428POPC   C3B61977  25.345  35.060   7.055
10428POPC   C4B61978  25.359  35.134   7.355
10429POPC   NC361979  36.915  26.089   5.555
10429POPC   PO461980  36.940  26.073   5.855
10429POPC   GL161981  36.855  26.026   6.155
10429POPC   GL261982  36.820  25.930   6.155
10429POPC   C1A61983  36.855  26.025   6.455
10429POPC   D2A61984  36.854  26.054   6.755
10429POPC   C3A61985  36.906  26.087   7.055
10429POPC   C4A61986  36.879  26.021   7.355
10429POPC   C1B61987  36.762  25.835   6.455
10429POPC   C2B61988  36.830  25.854   6.755
10429POPC   C3B61989  36.781  25.858   7.055
10429POPC   C4B61990  36.815  25.820   7.355
10430POPC   NC361991  20.633   4.322   5.555
10430POPC   PO461992  20.642   4.290   5.855
10430POPC   GL161993  20.625   4.299   6.155
10430POPC   GL261994  20.512   4.241   6.155
10430POPC   C1A61995  20.622   4.358   6.455
10430POPC   D2A61996  20.660   4.345   6.755
10430POPC   C3A61997  20.574   4.318   7.055
10430POPC   C4A61998  20.633   4.278   7.355
10430POPC   C1B61999  20.366   4.147   6.455
10430POPC   C2B62000  20.398   4.156   6.755
10430POPC   C3B62001  20.357   4.200   7.055
10430POPC   C4B62002  20.391   4.182   7.355
10431POPC   NC362003  14.358  15.916   5.555
10431POPC   PO462004  14.424  15.975   5.855
10431POPC   GL162005  14.418  15.969   6.155
10431POPC   GL262006  14.522  15.890   6.155
10431POPC   C1A62007  14.430  15.930   6.455
10431POPC   D2A62008  14.387  15.911   6.755
10431POPC   C3A62009  14.414  15.907   7.055
10431POPC   C4A62010  14.412  15.987   7.355
10431POPC   C1B62011  14.643  15.793   6.455
10431POPC   C2B62012  14.638  15.826   6.755
10431POPC   C3B62013  14.586  15.768   7.055
10431POPC   C4B62014  14.620  15.801   7.355
10432POPC   NC362015  17.520   1.215   5.555
10432POPC   PO462016  17.528   1.252   5.855
10432POPC   GL162017  17.488   1.193   6.155
10432POPC   GL262018  17.481   1.115   6.155
10432POPC   C1A62019  17.528   1.201   6.455
10432POPC   D2A62020  17.488   1.165   6.755
10432POPC   C3A62021  17.490   1.217   7.055
10432POPC   C4A62022  17.555   1.257   7.355
10432POPC   C1B62023  17.468   0.986   6.455
10432POPC   C2B62024  17.548   1.006   6.755
10432POPC   C3B62025  17.528   0.982   7.055
10432POPC   C4B62026  17.536   0.942   7.355
10433POPC   NC362027  34.584  28.322   5.555
10433POPC   PO462028  34.533  28.413   5.855
10433POPC   GL162029  34.583  28.345   6.155
10433POPC   GL262030  34.541  28.278   6.155
10433POPC   C1A62031  34.619  28.415   6.455
10433POPC   D2A62032  34.546  28.417   6.755
10433POPC   C3A62033  34.622  28.416   7.055
10433POPC   C4A62034  34.540  28.402   7.355
10433POPC   C1B62035  34.560  28.124   6.455
10433POPC   C2B62036  34.567  28.150   6.755
10433POPC   C3B62037  34.515  28.079   7.055
10433POPC   C4B62038  34.564  28.166   7.355
10434POPC   NC362039  32.240  39.228   5.555
10434POPC   PO462040  32.205  39.198   5.855
10434POPC   GL162041  32.206  39.269   6.155
10434POPC   GL262042  32.360  39.316   6.155
10434POPC   C1A62043  32.212  39.185   6.455
10434POPC   D2A62044  32.279  39.254   6.755
10434POPC   C3A62045  32.209  39.184   7.055
10434POPC   C4A62046  32.219  39.205   7.355
10434POPC   C1B62047  32.360  39.481   6.455
10434POPC   C2B62048  32.413  39.440   6.755
10434POPC   C3B62049  32.348  39.436   7.055
10434POPC   C4B62050  32.332  39.463   7.355
10435POPC   NC362051  18.290  32.978   5.555
10435POPC   PO462052  18.310  33.053   5.855
10435POPC   GL162053  18.292  33.059   6.155
10435POPC   GL262054  18.388  33.089   6.155
10435POPC   C1A62055  18.237  33.024   6.455
10435POPC   D2A62056  18.328  33.049   6.755
10435POPC   C3A62057  18.320  33.054   7.055
10435POPC   C4A62058  18.300  32.990   7.355
10435POPC   C1B62059  18.442  33.175   6.455
10435POPC   C2B62060  18.432  33.221   6.755
10435POPC   C3B62061  18.421  33.205   7.055
10435POPC   C4B62062  18.478  33.251   7.355
10436POPC   NC362063  15.194  24.446   5.555
10436POPC   PO462064  15.180  24.539   5.855
10436POPC   GL162065  15.137  24.441   6.155
10436POPC   GL262066  15.240  24.548   6.155
10436POPC   C1A62067  15.173  24.488   6.455
10436POPC   D2A62068  15.162  24.465   6.755
10436POPC   C3A62069  15.195  24.502   7.055
10436POPC   C4A62070  15.152  24.504   7.355
10436POPC   C1B62071  15.331  24.689   6.455
10436POPC   C2B62072  15.381  24.707   6.755
10436POPC   C3B62073  15.394  24.644   7.055
10436POPC   C4B62074  15.338  24.651   7.355
10437POPC   NC362075   7.444  12.123   5.555
10437POPC   PO462076   7.468  12.100   5.855
10437POPC   GL162077   7.436  12.112   6.155
10437POPC   GL262078   7.274  12.006   6.155
10437POPC   C1A62079   7.457  12.080   6.455
10437POPC   D2A62080   7.402  12.074   6.755
10437POPC   C3A62081   7.404  12.053   7.055
10437POPC   C4A62082   7.380  12.112   7.355
10437POPC   C1B62083   7.158  11.990   6.455
10437POPC   C2B62084   7.241  11.965   6.755
10437POPC   C3B62085   7.246  11.962   7.055
10437POPC   C4B62086   7.247  11.950   7.355
10438POPC   NC362087  24.515  36.916   5.555
10438POPC   PO462088  24.464  36.920   5.855
10438POPC   GL162089  24.529  36.859   6.155
10438POPC   GL262090  24.465  37.012   6.155
10438POPC   C1A62091  24.495  36.874   6.455
10438POPC   D2A62092  24.493  36.917   6.755
10438POPC   C3A62093  24.474  36.891   7.055
10438POPC   C4A62094  24.537  36.870   7.355
10438POPC   C1B62095  24.378  37.132   6.455
10438POPC   C2B62096  24.377  37.102   6.755
10438POPC   C3B62097  24.344  37.145   7.055
10438POPC   C4B62098  24.349  37.118   7.355
10439POPC   NC362099  22.188  22.133   5.555
10439POPC   PO462100  22.148  22.125   5.855
10439POPC   GL162101  22.188  22.202   6.155
10439POPC   GL262102  21.988  22.189   6.155
10439POPC   C1A62103  22.153  22.118   6.455
10439POPC   D2A62104  22.127  22.167   6.755
10439POPC   C3A62105  22.127  22.149   7.055
10439POPC   C4A62106  22.176  22.117   7.355
10439POPC   C1B62107  21.940  22.210   6.455
10439POPC   C2B62108  21.935  22.137   6.755
10439POPC   C3B62109  21.867  22.168   7.055
10439POPC   C4B62110  21.907  22.219   7.355
10440POPC   NC362111  26.801  20.625   5.555
10440POPC   PO462112  26.795  20.619   5.855
10440POPC   GL162113  26.815  20.640   6.155
10440POPC   GL262114  26.851  20.748   6.155
10440POPC   C1A62115  26.839  20.633   6.455
10440POPC   D2A62116  26.810  20.616   6.755
10440POPC   C3A62117  26.818  20.655   7.055
10440POPC   C4A62118  26.772  20.608   7.355
10440POPC   C1B62119  26.901  20.800   6.455
10440POPC   C2B62120  26.943  20.805   6.755
10440POPC   C3B62121  26.960  20.826   7.055
10440POPC   C4B62122  26.908  20.853   7.355
10441POPC   NC362123  19.045   1.206   5.555
10441POPC   PO462124  19.066   1.187   5.855
10441POPC   GL162125  19.083   1.231   6.155
10441POPC   GL262126  19.184   1.204   6.155
10441POPC   C1A62127  19.085   1.246   6.455
10441POPC   D2A62128  19.050   1.225   6.755
10441POPC   C3A62129  19.105   1.231   7.055
10441POPC   C4A62130  19.060   1.256   7.355
10441POPC   C1B62131  19.346   1.198   6.455
10441POPC   C2B62132  19.288   1.253   6.755
10441POPC   C3B62133  19.264   1.244   7.055
10441POPC   C4B62134  19.296   1.188   7.355
10442POPC   NC362135  43.067  13.675   5.555
10442POPC   PO462136  43.128  13.579   5.855
10442POPC   GL162137  43.148  13.605   6.155
10442POPC   GL262138  43.006  13.701   6.155
10442POPC   C1A62139  43.139  13.604   6.455
10442POPC   D2A62140  43.105  13.658   6.755
10442POPC   C3A62141  43.105  13.652   7.055
10442POPC   C4A62142  43.113  13.635   7.355
10442POPC   C1B62143  43.032  13.841   6.455
10442POPC   C2B62144  42.984  13.871   6.755
10442POPC   C3B62145  42.974  13.874   7.055
10442POPC   C4B62146  42.979  13.866   7.355
10443POPC   NC362147  36.900  12.837   5.555
10443POPC   PO462148  36.936  12.874   5.855
10443POPC   GL162149  36.893  12.826   6.155
10443POPC   GL262150  36.830  12.977   6.155
10443POPC   C1A62151  36.862  12.818   6.455
10443POPC   D2A62152  36.943  12.836   6.755
10443POPC   C3A62153  36.882  12.834   7.055
10443POPC   C4A62154  36.935  12.814   7.355
10443POPC   C1B62155  36.828  13.116   6.455
10443POPC   C2B62156  36.826  13.022   6.755
10443POPC   C3B62157  36.757  13.068   7.055
10443POPC   C4B62158  36.777  13.027   7.355
10444POPC   NC362159   2.733   8.930   5.555
10444POPC   PO462160   2.736   9.013   5.855
10444POPC   GL162161   2.766   9.017   6.155
10444POPC   GL262162   2.919   9.014   6.155
10444POPC   C1A62163   2.758   8.962   6.455
10444POPC   D2A62164   2.796   9.013   6.755
10444POPC   C3A62165   2.789   8.999   7.055
10444POPC   C4A62166   2.766   8.925   7.355
10444POPC   C1B62167   2.947   9.103   6.455
10444POPC   C2B62168   2.974   9.068   6.755
10444POPC   C3B62169   2.988   9.113   7.055
10444POPC   C4B62170   2.935   9.104   7.355
10445POPC   NC362171  30.723  24.516   5.555
10445POPC   PO462172  30.655  24.460   5.855
10445POPC   GL162173  30.685  24.509   6.155
10445POPC   GL262174  30.765  24.390   6.155
10445POPC   C1A62175  30.654  24.504   6.455
10445POPC   D2A62176  30.712  24.532   6.755
10445POPC   C3A62177  30.711  24.456   7.055
10445POPC   C4A62178  30.708  24.500   7.355
10445POPC   C1B62179  30.923  24.267   6.455
10445POPC   C2B62180  30.858  24.312   6.755
10445POPC   C3B62181  30.920  24.309   7.055
10445POPC   C4B62182  30.841  24.269   7.355
10446POPC   NC362183  11.268  39.209   5.555
10446POPC   PO462184  11.332  39.239   5.855
10446POPC   GL162185  11.350  39.251   6.155
10446POPC   GL262186  11.170  39.334   6.155
10446POPC   C1A62187  11.347  39.182   6.455
10446POPC   D2A62188  11.326  39.205   6.755
10446POPC   C3A62189  11.269  39.229   7.055
10446POPC   C4A62190  11.333  39.184   7.355
10446POPC   C1B62191  11.166  39.424   6.455
10446POPC   C2B62192  11.095  39.421   6.755
10446POPC   C3B62193  11.142  39.409   7.055
10446POPC   C4B62194  11.149  39.452   7.355
10447POPC   NC362195  35.344   1.990   5.555
10447POPC   PO462196  35.390   2.037   5.855
10447POPC   GL162197  35.322   2.028   6.155
10447POPC   GL262198  35.519   2.017   6.155
10447POPC   C1A62199  35.371   1.979   6.455
10447POPC   D2A62200  35.327   1.955   6.755
10447POPC   C3A62201  35.347   1.975   7.055
10447POPC   C4A62202  35.380   1.955   7.355
10447POPC   C1B62203  35.572   2.017   6.455
10447POPC   C2B62204  35.597   2.075   6.755
10447POPC   C3B62205  35.595   1.992   7.055
10447POPC   C4B62206  35.631   2.038   7.355
10448POPC   NC362207   9.733  14.411   5.555
10448POPC   PO462208   9.700  14.415   5.855
10448POPC   GL162209   9.721  14.417   6.155
10448POPC   GL262210   9.660  14.533   6.155
10448POPC   C1A62211   9.724  14.370   6.455
10448POPC   D2A62212   9.736  14.393   6.755
10448POPC   C3A62213   9.763  14.447   7.055
10448POPC   C4A62214   9.733  14.364   7.355
10448POPC   C1B62215   9.588  14.607   6.455
10448POPC   C2B62216   9.602  14.563   6.755
10448POPC   C3B62217   9.546  14.572   7.055
10448POPC   C4B62218   9.547  14.553   7.355
10449POPC   NC362219   1.229  27.598   5.555
10449POPC   PO462220   1.201  27.590   5.855
10449POPC   GL162221   1.261  27.618   6.155
10449POPC   GL262222   1.073  27.543   6.155
10449POPC   C1A62223   1.167  27.636   6.455
10449POPC   D2A62224   1.184  27.560   6.755
10449POPC   C3A62225   1.195  27.627   7.055
10449POPC   C4A62226   1.171  27.587   7.355
10449POPC   C1B62227   0.985  27.461   6.455
10449POPC   C2B62228   0.976  27.462   6.755
10449POPC   C3B62229   0.968  27.551   7.055
10449POPC   C4B62230   1.018  27.515   7.355
10450POPC   NC362231   2.747  37.632   5.555
10450POPC   PO462232   2.815  37.637   5.855
10450POPC   GL162233   2.808  37.695   6.155
10450POPC   GL262234   2.656  37.787   6.155
10450POPC   C1A62235   2.729  37.700   6.455
10450POPC   D2A62236   2.773  37.679   6.755
10450POPC   C3A62237   2.780  37.693   7.055
10450POPC   C4A62238   2.783  37.691   7.355
10450POPC   C1B62239   2.655  37.840   6.455
10450POPC   C2B62240   2.585  37.864   6.755
10450POPC   C3B62241   2.635  37.897   7.055
10450POPC   C4B62242   2.610  37.897   7.355
10451POPC   NC362243  22.946  16.707   5.555
10451POPC   PO462244  22.918  16.724   5.855
10451POPC   GL162245  22.954  16.720   6.155
10451POPC   GL262246  22.993  16.613   6.155
10451POPC   C1A62247  22.926  16.704   6.455
10451POPC   D2A62248  22.925  16.684   6.755
10451POPC   C3A62249  22.917  16.743   7.055
10451POPC   C4A62250  22.906  16.736   7.355
10451POPC   C1B62251  23.010  16.483   6.455
10451POPC   C2B62252  23.004  16.475   6.755
10451POPC   C3B62253  23.038  16.467   7.055
10451POPC   C4B62254  23.011  16.477   7.355
10452POPC   NC362255  28.376  33.803   5.555
10452POPC   PO462256  28.329  33.765   5.855
10452POPC   GL162257  28.376  33.800   6.155
10452POPC   GL262258  28.272  33.789   6.155
10452POPC   C1A62259  28.353  33.803   6.455
10452POPC   D2A62260  28.353  33.783   6.755
10452POPC   C3A62261  28.405  33.754   7.055
10452POPC   C4A62262  28.330  33.823   7.355
10452POPC   C1B62263  28.097  33.809   6.455
10452POPC   C2B62264  28.128  33.811   6.755
10452POPC   C3B62265  28.156  33.744   7.055
10452POPC   C4B62266  28.159  33.750   7.355
10453POPC   NC362267  32.267  30.737   5.555
10453POPC   PO462268  32.264  30.685   5.855
10453POPC   GL162269  32.257  30.734   6.155
10453POPC   GL262270  32.221  30.822   6.155
10453POPC   C1A62271  32.251  30.678   6.455
10453POPC   D2A62272  32.208  30.681   6.755
10453POPC   C3A62273  32.199  30.657   7.055
10453POPC   C4A62274  32.285  30.687   7.355
10453POPC   C1B62275  32.200  30.910   6.455
10453POPC   C2B62276  32.186  30.975   6.755
10453POPC   C3B62277  32.139  30.886   7.055
10453POPC   C4B62278  32.163  30.971   7.355
10454POPC   NC362279  12.840  29.158   5.555
10454POPC   PO462280  12.820  29.119   5.855
10454POPC   GL162281  12.893  29.144   6.155
10454POPC   GL262282  12.780  29.188   6.155
10454POPC   C1A62283  12.836  29.145   6.455
10454POPC   D2A62284  12.806  29.103   6.755
10454POPC   C3A62285  12.805  29.131   7.055
10454POPC   C4A62286  12.865  29.189   7.355
10454POPC   C1B62287  12.614  29.294   6.455
10454POPC   C2B62288  12.638  29.319   6.755
10454POPC   C3B62289  12.643  29.300   7.055
10454POPC   C4B62290  12.647  29.281   7.355
10455POPC   NC362291  39.264  31.446   5.555
10455POPC   PO462292  39.228  31.521   5.855
10455POPC   GL162293  39.191  31.448   6.155
10455POPC   GL262294  39.343  31.395   6.155
10455POPC   C1A62295  39.259  31.517   6.455
10455POPC   D2A62296  39.277  31.455   6.755
10455POPC   C3A62297  39.258  31.426   7.055
10455POPC   C4A62298  39.227  31.448   7.355
10455POPC   C1B62299  39.414  31.322   6.455
10455POPC   C2B62300  39.453  31.353   6.755
10455POPC   C3B62301  39.411  31.276   7.055
10455POPC   C4B62302  39.399  31.342   7.355
10456POPC   NC362303  30.683  21.355   5.555
10456POPC   PO462304  30.729  21.435   5.855
10456POPC   GL162305  30.663  21.357   6.155
10456POPC   GL262306  30.631  21.441   6.155
10456POPC   C1A62307  30.688  21.338   6.455
10456POPC   D2A62308  30.685  21.383   6.755
10456POPC   C3A62309  30.732  21.355   7.055
10456POPC   C4A62310  30.650  21.386   7.355
10456POPC   C1B62311  30.532  21.575   6.455
10456POPC   C2B62312  30.512  21.608   6.755
10456POPC   C3B62313  30.552  21.516   7.055
10456POPC   C4B62314  30.485  21.572   7.355
10457POPC   NC362315   5.893  10.517   5.555
10457POPC   PO462316   5.848  10.517   5.855
10457POPC   GL162317   5.875  10.501   6.155
10457POPC   GL262318   5.976  10.438   6.155
10457POPC   C1A62319   5.911  10.529   6.455
10457POPC   D2A62320   5.889  10.504   6.755
10457POPC   C3A62321   5.842  10.485   7.055
10457POPC   C4A62322   5.880  10.531   7.355
10457POPC   C1B62323   6.063  10.283   6.455
10457POPC   C2B62324   5.988  10.311   6.755
10457POPC   C3B62325   6.027  10.347   7.055
10457POPC   C4B62326   6.063  10.315   7.355
10458POPC   NC362327  30.739   0.472   5.555
10458POPC   PO462328  30.716   0.485   5.855
10458POPC   GL162329  30.649   0.394   6.155
10458POPC   GL262330  30.627   0.351   6.155
10458POPC   C1A62331  30.691   0.434   6.455
10458POPC   D2A62332  30.672   0.437   6.755
10458POPC   C3A62333  30.736   0.431   7.055
10458POPC   C4A62334  30.702   0.397   7.355
10458POPC   C1B62335  30.630   0.205   6.455
10458POPC   C2B62336  30.662   0.234   6.755
10458POPC   C3B62337  30.618   0.243   7.055
10458POPC   C4B62338  30.651   0.224   7.355
10459POPC   NC362339  36.856  15.177   5.555
10459POPC   PO462340  36.869  15.220   5.855
10459POPC   GL162341  36.930  15.137   6.155
10459POPC   GL262342  36.862  15.016   6.155
10459POPC   C1A62343  36.942  15.162   6.455
10459POPC   D2A62344  36.864  15.215   6.755
10459POPC   C3A62345  36.879  15.223   7.055
10459POPC   C4A62346  36.943  15.192   7.355
10459POPC   C1B62347  36.838  14.926   6.455
10459POPC   C2B62348  36.788  14.909   6.755
10459POPC   C3B62349  36.796  14.929   7.055
10459POPC   C4B62350  36.852  14.966   7.355
10460POPC   NC362351  19.835  10.498   5.555
10460POPC   PO462352  19.810  10.550   5.855
10460POPC   GL162353  19.877  10.502   6.155
10460POPC   GL262354  19.730  10.597   6.155
10460POPC   C1A62355  19.828  10.552   6.455
10460POPC   D2A62356  19.830  10.556   6.755
10460POPC   C3A62357  19.818  10.480   7.055
10460POPC   C4A62358  19.884  10.496   7.355
10460POPC   C1B62359  19.557  10.622   6.455
10460POPC   C2B62360  19.631  10.608   6.755
10460POPC   C3B62361  19.604  10.623   7.055
10460POPC   C4B62362  19.570  10.661   7.355
10461POPC   NC362363  25.220  15.905   5.555
10461POPC   PO462364  25.315  15.982   5.855
10461POPC   GL162365  25.246  15.998   6.155
10461POPC   GL262366  25.278  16.048   6.155
10461POPC   C1A62367  25.302  15.949   6.455
10461POPC   D2A62368  25.226  15.963   6.755
10461POPC   C3A62369  25.226  15.964   7.055
10461POPC   C4A62370  25.234  15.992   7.355
10461POPC   C1B62371  25.335  16.228   6.455
10461POPC   C2B62372  25.319  16.188   6.755
10461POPC   C3B62373  25.352  16.237   7.055
10461POPC   C4B62374  25.350  16.228   7.355
10462POPC   NC362375  24.537  13.595   5.555
10462POPC   PO462376  24.505  13.597   5.855
10462POPC   GL162377  24.462  13.596   6.155
10462POPC   GL262378  24.458  13.794   6.155
10462POPC   C1A62379  24.468  13.598   6.455
10462POPC   D2A62380  24.507  13.621   6.755
10462POPC   C3A62381  24.497  13.630   7.055
10462POPC   C4A62382  24.486  13.617   7.355
10462POPC   C1B62383  24.475  13.863   6.455
10462POPC   C2B62384  24.524  13.840   6.755
10462POPC   C3B62385  24.437  13.828   7.055
10462POPC   C4B62386  24.509  13.864   7.355
10463POPC   NC362387  43.918  29.154   5.555
10463POPC   PO462388  43.865  29.095   5.855
10463POPC   GL162389  43.933  29.165   6.155
10463POPC   GL262390  43.929  29.272   6.155
10463POPC   C1A62391  43.897  29.120   6.455
10463POPC   D2A62392  43.905  29.179   6.755
10463POPC   C3A62393  43.849  29.133   7.055
10463POPC   C4A62394  43.916  29.117   7.355
10463POPC   C1B62395  43.940  29.427   6.455
10463POPC   C2B62396  43.878  29.435   6.755
10463POPC   C3B62397  43.885  29.375   7.055
10463POPC   C4B62398  43.924  29.441   7.355
10464POPC   NC362399  29.959  15.155   5.555
10464POPC   PO462400  29.900  15.225   5.855
10464POPC   GL162401  29.942  15.220   6.155
10464POPC   GL262402  29.772  15.151   6.155
10464POPC   C1A62403  29.955  15.210   6.455
10464POPC   D2A62404  29.941  15.183   6.755
10464POPC   C3A62405  29.933  15.196   7.055
10464POPC   C4A62406  29.935  15.151   7.355
10464POPC   C1B62407  29.694  15.123   6.455
10464POPC   C2B62408  29.663  15.095   6.755
10464POPC   C3B62409  29.680  15.088   7.055
10464POPC   C4B62410  29.663  15.149   7.355
10465POPC   NC362411   5.094  14.388   5.555
10465POPC   PO462412   5.063  14.443   5.855
10465POPC   GL162413   5.138  14.389   6.155
10465POPC   GL262414   5.166  14.280   6.155
10465POPC   C1A62415   5.138  14.446   6.455
10465POPC   D2A62416   5.093  14.409   6.755
10465POPC   C3A62417   5.061  14.354   7.055
10465POPC   C4A62418   5.100  14.436   7.355
10465POPC   C1B62419   5.197  14.209   6.455
10465POPC   C2B62420   5.222  14.158   6.755
10465POPC   C3B62421   5.180  14.194   7.055
10465POPC   C4B62422   5.156  14.153   7.355
10466POPC   NC362423  19.883   2.771   5.555
10466POPC   PO462424  19.877   2.735   5.855
10466POPC   GL162425  19.848   2.787   6.155
10466POPC   GL262426  19.720   2.685   6.155
10466POPC   C1A62427  19.844   2.719   6.455
10466POPC   D2A62428  19.842   2.805   6.755
10466POPC   C3A62429  19.805   2.756   7.055
10466POPC   C4A62430  19.866   2.780   7.355
10466POPC   C1B62431  19.655   2.578   6.455
10466POPC   C2B62432  19.611   2.542   6.755
10466POPC   C3B62433  19.614   2.590   7.055
10466POPC   C4B62434  19.622   2.543   7.355
10467POPC   NC362435  43.160  15.155   5.555
10467POPC   PO462436  43.153  15.216   5.855
10467POPC   GL162437  43.117  15.198   6.155
10467POPC   GL262438  43.000  15.240   6.155
10467POPC   C1A62439  43.078  15.185   6.455
10467POPC   D2A62440  43.071  15.159   6.755
10467POPC   C3A62441  43.097  15.219   7.055
10467POPC   C4A62442  43.074  15.152   7.355
10467POPC   C1B62443  42.918  15.363   6.455
10467POPC   C2B62444  42.909  15.273   6.755
10467POPC   C3B62445  42.877  15.364   7.055
10467POPC   C4B62446  42.896  15.350   7.355
10468POPC   NC362447  22.197  31.504   5.555
10468POPC   PO462448  22.207  31.504   5.855
10468POPC   GL162449  22.165  31.503   6.155
10468POPC   GL262450  22.141  31.373   6.155
10468POPC   C1A62451  22.135  31.453   6.455
10468POPC   D2A62452  22.124  31.456   6.755
10468POPC   C3A62453  22.175  31.491   7.055
10468POPC   C4A62454  22.136  31.520   7.355
10468POPC   C1B62455  22.083  31.178   6.455
10468POPC   C2B62456  22.106  31.245   6.755
10468POPC   C3B62457  22.125  31.200   7.055
10468POPC   C4B62458  22.100  31.185   7.355
10469POPC   NC362459  41.540  25.296   5.555
10469POPC   PO462460  41.576  25.254   5.855
10469POPC   GL162461  41.570  25.257   6.155
10469POPC   GL262462  41.554  25.161   6.155
10469POPC   C1A62463  41.516  25.273   6.455
10469POPC   D2A62464  41.545  25.229   6.755
10469POPC   C3A62465  41.552  25.312   7.055
10469POPC   C4A62466  41.521  25.244   7.355
10469POPC   C1B62467  41.531  25.014   6.455
10469POPC   C2B62468  41.486  24.979   6.755
10469POPC   C3B62469  41.543  25.067   7.055
10469POPC   C4B62470  41.568  24.985   7.355
10470POPC   NC362471  43.100  30.710   5.555
10470POPC   PO462472  43.124  30.684   5.855
10470POPC   GL162473  43.081  30.746   6.155
10470POPC   GL262474  43.132  30.588   6.155
10470POPC   C1A62475  43.084  30.688   6.455
10470POPC   D2A62476  43.067  30.716   6.755
10470POPC   C3A62477  43.064  30.673   7.055
10470POPC   C4A62478  43.092  30.719   7.355
10470POPC   C1B62479  43.116  30.417   6.455
10470POPC   C2B62480  43.151  30.474   6.755
10470POPC   C3B62481  43.173  30.472   7.055
10470POPC   C4B62482  43.178  30.490   7.355
10471POPC   NC362483  43.910  32.257   5.555
10471POPC   PO462484  43.866  32.297   5.855
10471POPC   GL162485  43.858  32.286   6.155
10471POPC   GL262486  43.866  32.122   6.155
10471POPC   C1A62487  43.905  32.227   6.455
10471POPC   D2A62488  43.843  32.280   6.755
10471POPC   C3A62489  43.878  32.245   7.055
10471POPC   C4A62490  43.886  32.243   7.355
10471POPC   C1B62491  43.918  32.045   6.455
10471POPC   C2B62492  43.873  31.960   6.755
10471POPC   C3B62493  43.870  32.034   7.055
10471POPC   C4B62494  43.948  32.048   7.355
10472POPC   NC362495   2.003  32.218   5.555
10472POPC   PO462496   2.010  32.253   5.855
10472POPC   GL162497   1.951  32.228   6.155
10472POPC   GL262498   2.075  32.386   6.155
10472POPC   C1A62499   1.974  32.209   6.455
10472POPC   D2A62500   2.011  32.252   6.755
10472POPC   C3A62501   1.941  32.231   7.055
10472POPC   C4A62502   2.015  32.260   7.355
10472POPC   C1B62503   2.083  32.479   6.455
10472POPC   C2B62504   2.110  32.458   6.755
10472POPC   C3B62505   2.077  32.438   7.055
10472POPC   C4B62506   2.117  32.443   7.355
10473POPC   NC362507  32.199   8.959   5.555
10473POPC   PO462508  32.286   9.020   5.855
10473POPC   GL162509  32.245   9.003   6.155
10473POPC   GL262510  32.369   9.014   6.155
10473POPC   C1A62511  32.260   8.970   6.455
10473POPC   D2A62512  32.282   8.982   6.755
10473POPC   C3A62513  32.238   9.002   7.055
10473POPC   C4A62514  32.281   8.980   7.355
10473POPC   C1B62515  32.476   9.023   6.455
10473POPC   C2B62516  32.493   9.085   6.755
10473POPC   C3B62517  32.499   9.039   7.055
10473POPC   C4B62518  32.470   9.055   7.355
10474POPC   NC362519  39.232  14.407   5.555
10474POPC   PO462520  39.258  14.367   5.855
10474POPC   GL162521  39.181  14.388   6.155
10474POPC   GL262522  39.333  14.339   6.155
10474POPC   C1A62523  39.255  14.416   6.455
10474POPC   D2A62524  39.247  14.386   6.755
10474POPC   C3A62525  39.272  14.423   7.055
10474POPC   C4A62526  39.196  14.398   7.355
10474POPC   C1B62527  39.402  14.282   6.455
10474POPC   C2B62528  39.455  14.266   6.755
10474POPC   C3B62529  39.467  14.251   7.055
10474POPC   C4B62530  39.455  14.249   7.355
10475POPC   NC362531  16.698  26.068   5.555
10475POPC   PO462532  16.734  26.069   5.855
10475POPC   GL162533  16.768  26.060   6.155
10475POPC   GL262534  16.868  25.949   6.155
10475POPC   C1A62535  16.705  26.030   6.455
10475POPC   D2A62536  16.701  26.035   6.755
10475POPC   C3A62537  16.755  26.078   7.055
10475POPC   C4A62538  16.758  26.019   7.355
10475POPC   C1B62539  16.894  25.944   6.455
10475POPC   C2B62540  16.952  25.876   6.755
10475POPC   C3B62541  16.904  25.885   7.055
10475POPC   C4B62542  16.964  25.891   7.355
10476POPC   NC362543  33.773  15.206   5.555
10476POPC   PO462544  33.778  15.161   5.855
10476POPC   GL162545  33.811  15.202   6.155
10476POPC   GL262546  33.835  15.017   6.155
10476POPC   C1A62547  33.793  15.146   6.455
10476POPC   D2A62548  33.804  15.176   6.755
10476POPC   C3A62549  33.799  15.228   7.055
10476POPC   C4A62550  33.782  15.157   7.355
10476POPC   C1B62551  33.851  14.962   6.455
10476POPC   C2B62552  33.861  14.959   6.755
10476POPC   C3B62553  33.873  14.902   7.055
10476POPC   C4B62554  33.825  14.960   7.355
10477POPC   NC362555   5.859  11.307   5.555
10477POPC   PO462556   5.890  11.315   5.855
10477POPC   GL162557   5.876  11.283   6.155
10477POPC   GL262558   6.011  11.315   6.155
10477POPC   C1A62559   5.883  11.269   6.455
10477POPC   D2A62560   5.884  11.281   6.755
10477POPC   C3A62561   5.840  11.329   7.055
10477POPC   C4A62562   5.855  11.346   7.355
10477POPC   C1B62563   6.137  11.436   6.455
10477POPC   C2B62564   6.093  11.457   6.755
10477POPC   C3B62565   6.078  11.423   7.055
10477POPC   C4B62566   6.085  11.380   7.355
10478POPC   NC362567  27.570  22.906   5.555
10478POPC   PO462568  27.637  22.949   5.855
10478POPC   GL162569  27.610  22.951   6.155
10478POPC   GL262570  27.490  23.075   6.155
10478POPC   C1A62571  27.560  22.978   6.455
10478POPC   D2A62572  27.632  22.981   6.755
10478POPC   C3A62573  27.620  22.960   7.055
10478POPC   C4A62574  27.585  22.923   7.355
10478POPC   C1B62575  27.520  23.174   6.455
10478POPC   C2B62576  27.484  23.172   6.755
10478POPC   C3B62577  27.469  23.148   7.055
10478POPC   C4B62578  27.518  23.180   7.355
10479POPC   NC362579  29.906  30.717   5.555
10479POPC   PO462580  29.897  30.716   5.855
10479POPC   GL162581  29.878  30.708   6.155
10479POPC   GL262582  29.916  30.810   6.155
10479POPC   C1A62583  29.909  30.662   6.455
10479POPC   D2A62584  29.925  30.662   6.755
10479POPC   C3A62585  29.902  30.692   7.055
10479POPC   C4A62586  29.889  30.698   7.355
10479POPC   C1B62587  29.907  30.904   6.455
10479POPC   C2B62588  29.855  30.953   6.755
10479POPC   C3B62589  29.940  30.949   7.055
10479POPC   C4B62590  29.859  30.987   7.355
10480POPC   NC362591  38.481  28.346   5.555
10480POPC   PO462592  38.410  28.331   5.855
10480POPC   GL162593  38.487  28.408   6.155
10480POPC   GL262594  38.405  28.316   6.155
10480POPC   C1A62595  38.488  28.335   6.455
10480POPC   D2A62596  38.443  28.402   6.755
10480POPC   C3A62597  38.475  28.343   7.055
10480POPC   C4A62598  38.487  28.331   7.355
10480POPC   C1B62599  38.247  28.228   6.455
10480POPC   C2B62600  38.293  28.239   6.755
10480POPC   C3B62601  38.291  28.227   7.055
10480POPC   C4B62602  38.244  28.213   7.355
10481POPC   NC362603  27.609   8.984   5.555
10481POPC   PO462604  27.603   9.020   5.855
10481POPC   GL162605  27.550   8.967   6.155
10481POPC   GL262606  27.544   9.128   6.155
10481POPC   C1A62607  27.562   8.985   6.455
10481POPC   D2A62608  27.640   8.975   6.755
10481POPC   C3A62609  27.590   8.980   7.055
10481POPC   C4A62610  27.578   9.006   7.355
10481POPC   C1B62611  27.421   9.180   6.455
10481POPC   C2B62612  27.440   9.169   6.755
10481POPC   C3B62613  27.440   9.175   7.055
10481POPC   C4B62614  27.470   9.214   7.355
10482POPC   NC362615   9.003  15.192   5.555
10482POPC   PO462616   8.950  15.142   5.855
10482POPC   GL162617   8.955  15.176   6.155
10482POPC   GL262618   8.976  15.272   6.155
10482POPC   C1A62619   8.994  15.169   6.455
10482POPC   D2A62620   9.019  15.173   6.755
10482POPC   C3A62621   9.018  15.206   7.055
10482POPC   C4A62622   8.957  15.172   7.355
10482POPC   C1B62623   9.021  15.398   6.455
10482POPC   C2B62624   9.012  15.463   6.755
10482POPC   C3B62625   9.004  15.388   7.055
10482POPC   C4B62626   9.024  15.410   7.355
10483POPC   NC362627   1.209  29.102   5.555
10483POPC   PO462628   1.178  29.182   5.855
10483POPC   GL162629   1.239  29.165   6.155
10483POPC   GL262630   1.266  28.985   6.155
10483POPC   C1A62631   1.220  29.097   6.455
10483POPC   D2A62632   1.184  29.180   6.755
10483POPC   C3A62633   1.248  29.191   7.055
10483POPC   C4A62634   1.192  29.166   7.355
10483POPC   C1B62635   1.319  28.940   6.455
10483POPC   C2B62636   1.311  28.954   6.755
10483POPC   C3B62637   1.290  28.861   7.055
10483POPC   C4B62638   1.336  28.944   7.355
10484POPC   NC362639  39.200  19.030   5.555
10484POPC   PO462640  39.214  19.058   5.855
10484POPC   GL162641  39.237  19.024   6.155
10484POPC   GL262642  39.252  18.985   6.155
10484POPC   C1A62643  39.228  19.023   6.455
10484POPC   D2A62644  39.202  19.014   6.755
10484POPC   C3A62645  39.227  19.039   7.055
10484POPC   C4A62646  39.278  19.024   7.355
10484POPC   C1B62647  39.316  18.773   6.455
10484POPC   C2B62648  39.277  18.843   6.755
10484POPC   C3B62649  39.334  18.780   7.055
10484POPC   C4B62650  39.311  18.829   7.355
10485POPC   NC362651  19.036   6.644   5.555
10485POPC   PO462652  19.084   6.674   5.855
10485POPC   GL162653  19.092   6.667   6.155
10485POPC   GL262654  19.147   6.776   6.155
10485POPC   C1A62655  19.023   6.625   6.455
10485POPC   D2A62656  19.074   6.612   6.755
10485POPC   C3A62657  19.039   6.675   7.055
10485POPC   C4A62658  19.032   6.611   7.355
10485POPC   C1B62659  19.181   6.828   6.455
10485POPC   C2B62660  19.270   6.796   6.755
10485POPC   C3B62661  19.191   6.825   7.055
10485POPC   C4B62662  19.274   6.820   7.355
10486POPC   NC362663  28.403   9.728   5.555
10486POPC   PO462664  28.419   9.764   5.855
10486POPC   GL162665  28.412   9.773   6.155
10486POPC   GL262666  28.267   9.640   6.155
10486POPC   C1A62667  28.389   9.771   6.455
10486POPC   D2A62668  28.392   9.791   6.755
10486POPC   C3A62669  28.396   9.784   7.055
10486POPC   C4A62670  28.326   9.778   7.355
10486POPC   C1B62671  28.178   9.612   6.455
10486POPC   C2B62672  28.144   9.664   6.755
10486POPC   C3B62673  28.136   9.605   7.055
10486POPC   C4B62674  28.135   9.605   7.355
10487POPC   NC362675   8.986  37.673   5.555
10487POPC   PO462676   8.998  37.637   5.855
10487POPC   GL162677   8.987  37.660   6.155
10487POPC   GL262678   8.842  37.710   6.155
10487POPC   C1A62679   9.021  37.644   6.455
10487POPC   D2A62680   8.955  37.716   6.755
10487POPC   C3A62681   8.961  37.660   7.055
10487POPC   C4A62682   8.941  37.659   7.355
10487POPC   C1B62683   8.805  37.839   6.455
10487POPC   C2B62684   8.748  37.789   6.755
10487POPC   C3B62685   8.762  37.864   7.055
10487POPC   C4B62686   8.724  37.851   7.355
10488POPC   NC362687  38.499  16.698   5.555
10488POPC   PO462688  38.475  16.750   5.855
10488POPC   GL162689  38.424  16.704   6.155
10488POPC   GL262690  38.417  16.801   6.155
10488POPC   C1A62691  38.466  16.752   6.455
10488POPC   D2A62692  38.449  16.727   6.755
10488POPC   C3A62693  38.426  16.685   7.055
10488POPC   C4A62694  38.425  16.717   7.355
10488POPC   C1B62695  38.331  16.981   6.455
10488POPC   C2B62696  38.333  16.911   6.755
10488POPC   C3B62697  38.381  16.981   7.055
10488POPC   C4B62698  38.393  16.944   7.355
10489POPC   NC362699  41.546  11.299   5.555
10489POPC   PO462700  41.588  11.317   5.855
10489POPC   GL162701  41.599  11.345   6.155
10489POPC   GL262702  41.540  11.166   6.155
10489POPC   C1A62703  41.585  11.311   6.455
10489POPC   D2A62704  41.513  11.348   6.755
10489POPC   C3A62705  41.561  11.341   7.055
10489POPC   C4A62706  41.546  11.345   7.355
10489POPC   C1B62707  41.483  11.043   6.455
10489POPC   C2B62708  41.507  11.072   6.755
10489POPC   C3B62709  41.491  11.081   7.055
10489POPC   C4B62710  41.508  11.101   7.355
10490POPC   NC362711  22.202  23.740   5.555
10490POPC   PO462712  22.166  23.746   5.855
10490POPC   GL162713  22.162  23.747   6.155
10490POPC   GL262714  22.082  23.605   6.155
10490POPC   C1A62715  22.115  23.676   6.455
10490POPC   D2A62716  22.174  23.746   6.755
10490POPC   C3A62717  22.125  23.682   7.055
10490POPC   C4A62718  22.195  23.706   7.355
10490POPC   C1B62719  22.003  23.571   6.455
10490POPC   C2B62720  22.023  23.513   6.755
10490POPC   C3B62721  21.989  23.502   7.055
10490POPC   C4B62722  21.962  23.576   7.355
10491POPC   NC362723  43.112  25.224   5.555
10491POPC   PO462724  43.147  25.233   5.855
10491POPC   GL162725  43.085  25.306   6.155
10491POPC   GL262726  43.199  25.280   6.155
10491POPC   C1A62727  43.079  25.228   6.455
10491POPC   D2A62728  43.148  25.263   6.755
10491POPC   C3A62729  43.091  25.286   7.055
10491POPC   C4A62730  43.082  25.274   7.355
10491POPC   C1B62731  43.362  25.380   6.455
10491POPC   C2B62732  43.343  25.341   6.755
10491POPC   C3B62733  43.292  25.417   7.055
10491POPC   C4B62734  43.358  25.421   7.355
10492POPC   NC362735  41.532  43.097   5.555
10492POPC   PO462736  41.528  43.086   5.855
10492POPC   GL162737  41.544  43.075   6.155
10492POPC   GL262738  41.531  43.252   6.155
10492POPC   C1A62739  41.567  43.070   6.455
10492POPC   D2A62740  41.544  43.160   6.755
10492POPC   C3A62741  41.560  43.076   7.055
10492POPC   C4A62742  41.587  43.076   7.355
10492POPC   C1B62743  41.379  43.293   6.455
10492POPC   C2B62744  41.388  43.288   6.755
10492POPC   C3B62745  41.407  43.338   7.055
10492POPC   C4B62746  41.462  43.313   7.355
10493POPC   NC362747  19.839   1.231   5.555
10493POPC   PO462748  19.841   1.182   5.855
10493POPC   GL162749  19.826   1.187   6.155
10493POPC   GL262750  19.930   1.317   6.155
10493POPC   C1A62751  19.859   1.251   6.455
10493POPC   D2A62752  19.843   1.184   6.755
10493POPC   C3A62753  19.884   1.230   7.055
10493POPC   C4A62754  19.830   1.205   7.355
10493POPC   C1B62755  19.966   1.381   6.455
10493POPC   C2B62756  20.014   1.413   6.755
10493POPC   C3B62757  20.002   1.446   7.055
10493POPC   C4B62758  20.003   1.380   7.355
10494POPC   NC362759   1.252  40.817   5.555
10494POPC   PO462760   1.173  40.759   5.855
10494POPC   GL162761   1.232  40.809   6.155
10494POPC   GL262762   1.250  40.694   6.155
10494POPC   C1A62763   1.259  40.766   6.455
10494POPC   D2A62764   1.249  40.797   6.755
10494POPC   C3A62765   1.251  40.809   7.055
10494POPC   C4A62766   1.179  40.742   7.355
10494POPC   C1B62767   1.288  40.509   6.455
10494POPC   C2B62768   1.274  40.568   6.755
10494POPC   C3B62769   1.293  40.529   7.055
10494POPC   C4B62770   1.326  40.499   7.355
10495POPC   NC362771  31.487  22.129   5.555
10495POPC   PO462772  31.490  22.122   5.855
10495POPC   GL162773  31.479  22.206   6.155
10495POPC   GL262774  31.304  22.117   6.155
10495POPC   C1A62775  31.448  22.142   6.455
10495POPC   D2A62776  31.498  22.194   6.755
10495POPC   C3A62777  31.517  22.179   7.055
10495POPC   C4A62778  31.444  22.186   7.355
10495POPC   C1B62779  31.246  22.136   6.455
10495POPC   C2B62780  31.227  22.133   6.755
10495POPC   C3B62781  31.175  22.189   7.055
10495POPC   C4B62782  31.181  22.131   7.355
10496POPC   NC362783  34.563  25.252   5.555
10496POPC   PO462784  34.528  25.242   5.855
10496POPC   GL162785  34.535  25.219   6.155
10496POPC   GL262786  34.456  25.328   6.155
10496POPC   C1A62787  34.570  25.278   6.455
10496POPC   D2A62788  34.581  25.300   6.755
10496POPC   C3A62789  34.573  25.224   7.055
10496POPC   C4A62790  34.592  25.287   7.355
10496POPC   C1B62791  34.395  25.490   6.455
10496POPC   C2B62792  34.425  25.426   6.755
10496POPC   C3B62793  34.447  25.499   7.055
10496POPC   C4B62794  34.413  25.450   7.355
10497POPC   NC362795  16.721  34.539   5.555
10497POPC   PO462796  16.697  34.565   5.855
10497POPC   GL162797  16.771  34.526   6.155
10497POPC   GL262798  16.572  34.524   6.155
10497POPC   C1A62799  16.741  34.621   6.455
10497POPC   D2A62800  16.756  34.623   6.755
10497POPC   C3A62801  16.730  34.585   7.055
10497POPC   C4A62802  16.757  34.571   7.355
10497POPC   C1B62803  16.451  34.481   6.455
10497POPC   C2B62804  16.490  34.496   6.755
10497POPC   C3B62805  16.470  34.529   7.055
10497POPC   C4B62806  16.480  34.472   7.355
10498POPC   NC362807  19.864  29.141   5.555
10498POPC   PO462808  19.849  29.130   5.855
10498POPC   GL162809  19.793  29.102   6.155
10498POPC   GL262810  19.985  29.167   6.155
10498POPC   C1A62811  19.883  29.125   6.455
10498POPC   D2A62812  19.858  29.173   6.755
10498POPC   C3A62813  19.811  29.106   7.055
10498POPC   C4A62814  19.802  29.176   7.355
10498POPC   C1B62815  20.065  29.323   6.455
10498POPC   C2B62816  20.013  29.301   6.755
10498POPC   C3B62817  20.022  29.308   7.055
10498POPC   C4B62818  20.074  29.253   7.355
10499POPC   NC362819  40.741   9.723   5.555
10499POPC   PO462820  40.753   9.765   5.855
10499POPC   GL162821  40.805   9.767   6.155
10499POPC   GL262822  40.956   9.730   6.155
10499POPC   C1A62823  40.829   9.726   6.455
10499POPC   D2A62824  40.819   9.772   6.755
10499POPC   C3A62825  40.815   9.739   7.055
10499POPC   C4A62826  40.805   9.758   7.355
10499POPC   C1B62827  41.032   9.739   6.455
10499POPC   C2B62828  41.058   9.723   6.755
10499POPC   C3B62829  41.072   9.753   7.055
10499POPC   C4B62830  41.061   9.753   7.355
10500POPC   NC362831  16.759  36.902   5.555
10500POPC   PO462832  16.690  36.949   5.855
10500POPC   GL162833  16.731  36.858   6.155
10500POPC   GL262834  16.745  36.756   6.155
10500POPC   C1A62835  16.683  36.931   6.455
10500POPC   D2A62836  16.766  36.910   6.755
10500POPC   C3A62837  16.693  36.949   7.055
10500POPC   C4A62838  16.730  36.855   7.355
10500POPC   C1B62839  16.701  36.632   6.455
10500POPC   C2B62840  16.727  36.697   6.755
10500POPC   C3B62841  16.733  36.618   7.055
10500POPC   C4B62842  16.705  36.646   7.355
10501POPC   NC362843  22.902  26.846   5.555
10501POPC   PO462844  22.912  26.770   5.855
10501POPC   GL162845  22.898  26.797   6.155
10501POPC   GL262846  23.036  26.940   6.155
10501POPC   C1A62847  22.977  26.829   6.455
10501POPC   D2A62848  22.945  26.824   6.755
10501POPC   C3A62849  22.953  26.821   7.055
10501POPC   C4A62850  22.951  26.794   7.355
10501POPC   C1B62851  23.124  27.010   6.455
10501POPC   C2B62852  23.136  26.985   6.755
10501POPC   C3B62853  23.091  26.928   7.055
10501POPC   C4B62854  23.129  26.941   7.355
10502POPC   NC362855  15.961  29.871   5.555
10502POPC   PO462856  15.924  29.898   5.855
10502POPC   GL162857  15.934  29.886   6.155
10502POPC   GL262858  15.999  29.786   6.155
10502POPC   C1A62859  15.964  29.911   6.455
10502POPC   D2A62860  15.930  29.906   6.755
10502POPC   C3A62861  15.908  29.947   7.055
10502POPC   C4A62862  15.966  29.916   7.355
10502POPC   C1B62863  16.057  29.690   6.455
10502POPC   C2B62864  16.079  29.667   6.755
10502POPC   C3B62865  16.042  29.728   7.055
10502POPC   C4B62866  16.017  29.653   7.355
10503POPC   NC362867  29.107  31.445   5.555
10503POPC   PO462868  29.119  31.512   5.855
10503POPC   GL162869  29.108  31.504   6.155
10503POPC   GL262870  29.214  31.404   6.155
10503POPC   C1A62871  29.113  31.505   6.455
10503POPC   D2A62872  29.096  31.426   6.755
10503POPC   C3A62873  29.133  31.464   7.055
10503POPC   C4A62874  29.134  31.460   7.355
10503POPC   C1B62875  29.271  31.245   6.455
10503POPC   C2B62876  29.264  31.250   6.755
10503POPC   C3B62877  29.256  31.315   7.055
10503POPC   C4B62878  29.348  31.271   7.355
10504POPC   NC362879   5.060   7.386   5.555
10504POPC   PO462880   5.135   7.402   5.855
10504POPC   GL162881   5.139   7.453   6.155
10504POPC   GL262882   5.211   7.429   6.155
10504POPC   C1A62883   5.105   7.379   6.455
10504POPC   D2A62884   5.052   7.440   6.755
10504POPC   C3A62885   5.090   7.441   7.055
10504POPC   C4A62886   5.044   7.406   7.355
10504POPC   C1B62887   5.353   7.454   6.455
10504POPC   C2B62888   5.373   7.421   6.755
10504POPC   C3B62889   5.294   7.419   7.055
10504POPC   C4B62890   5.299   7.474   7.355
10505POPC   NC362891  21.420  17.546   5.555
10505POPC   PO462892  21.363  17.472   5.855
10505POPC   GL162893  21.382  17.544   6.155
10505POPC   GL262894  21.422  17.608   6.155
10505POPC   C1A62895  21.403  17.499   6.455
10505POPC   D2A62896  21.337  17.536   6.755
10505POPC   C3A62897  21.378  17.490   7.055
10505POPC   C4A62898  21.424  17.507   7.355
10505POPC   C1B62899  21.543  17.741   6.455
10505POPC   C2B62900  21.497  17.696   6.755
10505POPC   C3B62901  21.496  17.678   7.055
10505POPC   C4B62902  21.525  17.761   7.355
10506POPC   NC362903  11.296  34.549   5.555
10506POPC   PO462904  11.348  34.620   5.855
10506POPC   GL162905  11.262  34.605   6.155
10506POPC   GL262906  11.347  34.660   6.155
10506POPC   C1A62907  11.321  34.578   6.455
10506POPC   D2A62908  11.274  34.554   6.755
10506POPC   C3A62909  11.337  34.540   7.055
10506POPC   C4A62910  11.306  34.611   7.355
10506POPC   C1B62911  11.382  34.816   6.455
10506POPC   C2B62912  11.285  34.814   6.755
10506POPC   C3B62913  11.300  34.862   7.055
10506POPC   C4B62914  11.297  34.821   7.355
10507POPC   NC362915   2.781  19.056   5.555
10507POPC   PO462916   2.808  19.091   5.855
10507POPC   GL162917   2.739  19.108   6.155
10507POPC   GL262918   2.759  19.174   6.155
10507POPC   C1A62919   2.776  19.033   6.455
10507POPC   D2A62920   2.789  19.102   6.755
10507POPC   C3A62921   2.784  19.009   7.055
10507POPC   C4A62922   2.811  19.055   7.355
10507POPC   C1B62923   2.836  19.304   6.455
10507POPC   C2B62924   2.818  19.335   6.755
10507POPC   C3B62925   2.757  19.307   7.055
10507POPC   C4B62926   2.843  19.290   7.355
10508POPC   NC362927  22.893  13.590   5.555
10508POPC   PO462928  22.894  13.587   5.855
10508POPC   GL162929  22.939  13.635   6.155
10508POPC   GL262930  23.046  13.715   6.155
10508POPC   C1A62931  22.892  13.610   6.455
10508POPC   D2A62932  22.960  13.673   6.755
10508POPC   C3A62933  22.903  13.626   7.055
10508POPC   C4A62934  22.891  13.594   7.355
10508POPC   C1B62935  23.165  13.790   6.455
10508POPC   C2B62936  23.155  13.803   6.755
10508POPC   C3B62937  23.120  13.768   7.055
10508POPC   C4B62938  23.120  13.742   7.355
10509POPC   NC362939  28.373  15.994   5.555
10509POPC   PO462940  28.348  15.990   5.855
10509POPC   GL162941  28.364  15.984   6.155
10509POPC   GL262942  28.211  15.973   6.155
10509POPC   C1A62943  28.333  15.975   6.455
10509POPC   D2A62944  28.335  15.911   6.755
10509POPC   C3A62945  28.359  15.914   7.055
10509POPC   C4A62946  28.324  15.980   7.355
10509POPC   C1B62947  28.190  16.101   6.455
10509POPC   C2B62948  28.174  16.103   6.755
10509POPC   C3B62949  28.117  16.121   7.055
10509POPC   C4B62950  28.133  16.069   7.355
10510POPC   NC362951  29.951  27.608   5.555
10510POPC   PO462952  29.895  27.627   5.855
10510POPC   GL162953  29.879  27.589   6.155
10510POPC   GL262954  30.067  27.537   6.155
10510POPC   C1A62955  29.945  27.556   6.455
10510POPC   D2A62956  29.954  27.545   6.755
10510POPC   C3A62957  29.902  27.551   7.055
10510POPC   C4A62958  29.950  27.556   7.355
10510POPC   C1B62959  30.128  27.495   6.455
10510POPC   C2B62960  30.197  27.517   6.755
10510POPC   C3B62961  30.175  27.557   7.055
10510POPC   C4B62962  30.153  27.487   7.355
10511POPC   NC362963  43.894  13.612   5.555
10511POPC   PO462964  43.897  13.580   5.855
10511POPC   GL162965  43.858  13.626   6.155
10511POPC   GL262966  43.783  13.611   6.155
10511POPC   C1A62967  43.881  13.622   6.455
10511POPC   D2A62968  43.903  13.669   6.755
10511POPC   C3A62969  43.857  13.599   7.055
10511POPC   C4A62970  43.853  13.665   7.355
10511POPC   C1B62971  43.640  13.550   6.455
10511POPC   C2B62972  43.690  13.488   6.755
10511POPC   C3B62973  43.655  13.526   7.055
10511POPC   C4B62974  43.676  13.505   7.355
10512POPC   NC362975  34.553  33.843   5.555
10512POPC   PO462976  34.581  33.795   5.855
10512POPC   GL162977  34.564  33.842   6.155
10512POPC   GL262978  34.557  33.962   6.155
10512POPC   C1A62979  34.533  33.837   6.455
10512POPC   D2A62980  34.599  33.804   6.755
10512POPC   C3A62981  34.611  33.807   7.055
10512POPC   C4A62982  34.611  33.752   7.355
10512POPC   C1B62983  34.537  34.072   6.455
10512POPC   C2B62984  34.541  34.033   6.755
10512POPC   C3B62985  34.579  34.056   7.055
10512POPC   C4B62986  34.523  34.082   7.355
10513POPC   NC362987  33.842  13.640   5.555
10513POPC   PO462988  33.761  13.641   5.855
10513POPC   GL162989  33.800  13.636   6.155
10513POPC   GL262990  33.826  13.459   6.155
10513POPC   C1A62991  33.825  13.661   6.455
10513POPC   D2A62992  33.784  13.619   6.755
10513POPC   C3A62993  33.817  13.604   7.055
10513POPC   C4A62994  33.828  13.597   7.355
10513POPC   C1B62995  33.784  13.344   6.455
10513POPC   C2B62996  33.806  13.418   6.755
10513POPC   C3B62997  33.839  13.416   7.055
10513POPC   C4B62998  33.834  13.403   7.355
10514POPC   NC362999  20.611  26.826   5.555
10514POPC   PO463000  20.571  26.838   5.855
10514POPC   GL163001  20.632  26.825   6.155
10514POPC   GL263002  20.727  26.731   6.155
10514POPC   C1A63003  20.655  26.770   6.455
10514POPC   D2A63004  20.656  26.773   6.755
10514POPC   C3A63005  20.632  26.808   7.055
10514POPC   C4A63006  20.644  26.794   7.355
10514POPC   C1B63007  20.786  26.637   6.455
10514POPC   C2B63008  20.790  26.686   6.755
10514POPC   C3B63009  20.748  26.626   7.055
10514POPC   C4B63010  20.826  26.664   7.355
10515POPC   NC363011   8.160  36.897   5.555
10515POPC   PO463012   8.239  36.879   5.855
10515POPC   GL163013   8.209  36.878   6.155
10515POPC   GL263014   8.203  36.822   6.155
10515POPC   C1A63015   8.232  36.895   6.455
10515POPC   D2A63016   8.241  36.915   6.755
10515POPC   C3A63017   8.170  36.888   7.055
10515POPC   C4A63018   8.171  36.862   7.355
10515POPC   C1B63019   8.273  36.643   6.455
10515POPC   C2B63020   8.297  36.685   6.755
10515POPC   C3B63021   8.297  36.711   7.055
10515POPC   C4B63022   8.319  36.624   7.355
10516POPC   NC363023  19.842  26.772   5.555
10516POPC   PO463024  19.884  26.853   5.855
10516POPC   GL163025  19.836  26.838   6.155
10516POPC   GL263026  19.993  26.816   6.155
10516POPC   C1A63027  19.795  26.801   6.455
10516POPC   D2A63028  19.807  26.858   6.755
10516POPC   C3A63029  19.786  26.801   7.055
10516POPC   C4A63030  19.786  26.795   7.355
10516POPC   C1B63031  20.085  26.779   6.455
10516POPC   C2B63032  20.084  26.780   6.755
10516POPC   C3B63033  20.099  26.811   7.055
10516POPC   C4B63034  20.092  26.849   7.355
10517POPC   NC363035  26.048  16.705   5.555
10517POPC   PO463036  26.062  16.771   5.855
10517POPC   GL163037  26.005  16.755   6.155
10517POPC   GL263038  26.085  16.580   6.155
10517POPC   C1A63039  26.090  16.732   6.455
10517POPC   D2A63040  26.078  16.775   6.755
10517POPC   C3A63041  25.993  16.746   7.055
10517POPC   C4A63042  26.015  16.769   7.355
10517POPC   C1B63043  26.023  16.489   6.455
10517POPC   C2B63044  26.049  16.487   6.755
10517POPC   C3B63045  26.013  16.480   7.055
10517POPC   C4B63046  26.045  16.504   7.355
10518POPC   NC363047  36.170  23.724   5.555
10518POPC   PO463048  36.175  23.718   5.855
10518POPC   GL163049  36.149  23.703   6.155
10518POPC   GL263050  36.215  23.796   6.155
10518POPC   C1A63051  36.137  23.676   6.455
10518POPC   D2A63052  36.109  23.755   6.755
10518POPC   C3A63053  36.086  23.757   7.055
10518POPC   C4A63054  36.093  23.753   7.355
10518POPC   C1B63055  36.313  23.865   6.455
10518POPC   C2B63056  36.289  23.815   6.755
10518POPC   C3B63057  36.308  23.909   7.055
10518POPC   C4B63058  36.310  23.904   7.355
10519POPC   NC363059  22.124  44.635   5.555
10519POPC   PO463060  22.176  44.655   5.855
10519POPC   GL163061  22.143  44.689   6.155
10519POPC   GL263062  22.202  44.498   6.155
10519POPC   C1A63063  22.153  44.623   6.455
10519POPC   D2A63064  22.116  44.628   6.755
10519POPC   C3A63065  22.165  44.626   7.055
10519POPC   C4A63066  22.151  44.657   7.355
10519POPC   C1B63067  22.131  44.449   6.455
10519POPC   C2B63068  22.171  44.371   6.755
10519POPC   C3B63069  22.180  44.406   7.055
10519POPC   C4B63070  22.150  44.420   7.355
10520POPC   NC363071  22.911  19.075   5.555
10520POPC   PO463072  22.982  19.068   5.855
10520POPC   GL163073  22.932  19.045   6.155
10520POPC   GL263074  23.016  19.176   6.155
10520POPC   C1A63075  22.961  19.102   6.455
10520POPC   D2A63076  22.952  19.029   6.755
10520POPC   C3A63077  22.891  19.079   7.055
10520POPC   C4A63078  22.912  19.107   7.355
10520POPC   C1B63079  23.087  19.236   6.455
10520POPC   C2B63080  23.095  19.327   6.755
10520POPC   C3B63081  23.025  19.332   7.055
10520POPC   C4B63082  23.084  19.264   7.355
10521POPC   NC363083  21.344   1.982   5.555
10521POPC   PO463084  21.393   1.998   5.855
10521POPC   GL163085  21.428   1.964   6.155
10521POPC   GL263086  21.421   2.071   6.155
10521POPC   C1A63087  21.383   1.982   6.455
10521POPC   D2A63088  21.404   1.942   6.755
10521POPC   C3A63089  21.391   1.948   7.055
10521POPC   C4A63090  21.410   2.037   7.355
10521POPC   C1B63091  21.582   2.165   6.455
10521POPC   C2B63092  21.533   2.210   6.755
10521POPC   C3B63093  21.499   2.216   7.055
10521POPC   C4B63094  21.512   2.163   7.355
10522POPC   NC363095  20.654  29.129   5.555
10522POPC   PO463096  20.598  29.116   5.855
10522POPC   GL163097  20.605  29.192   6.155
10522POPC   GL263098  20.656  29.223   6.155
10522POPC   C1A63099  20.651  29.179   6.455
10522POPC   D2A63100  20.649  29.141   6.755
10522POPC   C3A63101  20.652  29.139   7.055
10522POPC   C4A63102  20.584  29.144   7.355
10522POPC   C1B63103  20.774  29.291   6.455
10522POPC   C2B63104  20.762  29.294   6.755
10522POPC   C3B63105  20.770  29.297   7.055
10522POPC   C4B63106  20.791  29.319   7.355
10523POPC   NC363107  34.561  41.594   5.555
10523POPC   PO463108  34.611  41.542   5.855
10523POPC   GL163109  34.597  41.517   6.155
10523POPC   GL263110  34.700  41.624   6.155
10523POPC   C1A63111  34.564  41.513   6.455
10523POPC   D2A63112  34.615  41.559   6.755
10523POPC   C3A63113  34.589  41.539   7.055
10523POPC   C4A63114  34.545  41.532   7.355
10523POPC   C1B63115  34.777  41.615   6.455
10523POPC   C2B63116  34.846  41.649   6.755
10523POPC   C3B63117  34.836  41.670   7.055
10523POPC   C4B63118  34.847  41.610   7.355
10524POPC   NC363119  40.813  19.015   5.555
10524POPC   PO463120  40.756  19.010   5.855
10524POPC   GL163121  40.758  19.098   6.155
10524POPC   GL263122  40.939  19.094   6.155
10524POPC   C1A63123  40.735  19.033   6.455
10524POPC   D2A63124  40.765  19.022   6.755
10524POPC   C3A63125  40.753  19.048   7.055
10524POPC   C4A63126  40.802  19.048   7.355
10524POPC   C1B63127  40.996  19.140   6.455
10524POPC   C2B63128  41.052  19.154   6.755
10524POPC   C3B63129  40.995  19.145   7.055
10524POPC   C4B63130  41.055  19.131   7.355
10525POPC   NC363131  44.650  17.481   5.555
10525POPC   PO463132  44.643  17.511   5.855
10525POPC   GL163133  44.660  17.538   6.155
10525POPC   GL263134  44.787  17.593   6.155
10525POPC   C1A63135  44.693  17.500   6.455
10525POPC   D2A63136  44.649  17.484   6.755
10525POPC   C3A63137  44.667  17.481   7.055
10525POPC   C4A63138  44.676  17.510   7.355
10525POPC   C1B63139  44.830  17.648   6.455
10525POPC   C2B63140  44.890  17.592   6.755
10525POPC   C3B63141  44.924  17.640   7.055
10525POPC   C4B63142  44.927  17.638   7.355
10526POPC   NC363143  16.735   8.183   5.555
10526POPC   PO463144  16.772   8.184   5.855
10526POPC   GL163145  16.722   8.224   6.155
10526POPC   GL263146  16.717   8.307   6.155
10526POPC   C1A63147  16.775   8.216   6.455
10526POPC   D2A63148  16.713   8.196   6.755
10526POPC   C3A63149  16.751   8.181   7.055
10526POPC   C4A63150  16.706   8.219   7.355
10526POPC   C1B63151  16.770   8.453   6.455
10526POPC   C2B63152  16.768   8.492   6.755
10526POPC   C3B63153  16.694   8.419   7.055
10526POPC   C4B63154  16.752   8.453   7.355
10527POPC   NC363155  12.841  25.234   5.555
10527POPC   PO463156  12.832  25.257   5.855
10527POPC   GL163157  12.831  25.283   6.155
10527POPC   GL263158  12.761  25.249   6.155
10527POPC   C1A63159  12.824  25.242   6.455
10527POPC   D2A63160  12.890  25.239   6.755
10527POPC   C3A63161  12.880  25.237   7.055
10527POPC   C4A63162  12.821  25.242   7.355
10527POPC   C1B63163  12.652  25.225   6.455
10527POPC   C2B63164  12.611  25.215   6.755
10527POPC   C3B63165  12.580  25.164   7.055
10527POPC   C4B63166  12.569  25.169   7.355
10528POPC   NC363167  11.276  43.104   5.555
10528POPC   PO463168  11.299  43.061   5.855
10528POPC   GL163169  11.250  43.139   6.155
10528POPC   GL263170  11.163  43.102   6.155
10528POPC   C1A63171  11.276  43.068   6.455
10528POPC   D2A63172  11.275  43.101   6.755
10528POPC   C3A63173  11.255  43.088   7.055
10528POPC   C4A63174  11.299  43.067   7.355
10528POPC   C1B63175  11.066  43.009   6.455
10528POPC   C2B63176  11.031  42.985   6.755
10528POPC   C3B63177  11.079  42.972   7.055
10528POPC   C4B63178  11.096  43.011   7.355
10529POPC   NC363179   1.202   5.888   5.555
10529POPC   PO463180   1.224   5.909   5.855
10529POPC   GL163181   1.191   5.903   6.155
10529POPC   GL263182   1.281   6.000   6.155
10529POPC   C1A63183   1.175   5.884   6.455
10529POPC   D2A63184   1.261   5.819   6.755
10529POPC   C3A63185   1.202   5.886   7.055
10529POPC   C4A63186   1.233   5.872   7.355
10529POPC   C1B63187   1.403   6.036   6.455
10529POPC   C2B63188   1.430   5.986   6.755
10529POPC   C3B63189   1.402   5.994   7.055
10529POPC   C4B63190   1.441   6.032   7.355
10530POPC   NC363191   2.786  26.077   5.555
10530POPC   PO463192   2.769  26.034   5.855
10530POPC   GL163193   2.725  26.003   6.155
10530POPC   GL263194   2.689  26.187   6.155
10530POPC   C1A63195   2.727  26.020   6.455
10530POPC   D2A63196   2.766  26.075   6.755
10530POPC   C3A63197   2.721  26.038   7.055
10530POPC   C4A63198   2.780  26.075   7.355
10530POPC   C1B63199   2.604  26.276   6.455
10530POPC   C2B63200   2.619  26.253   6.755
10530POPC   C3B63201   2.628  26.222   7.055
10530POPC   C4B63202   2.615  26.284   7.355
10531POPC   NC363203  29.914  13.646   5.555
10531POPC   PO463204  29.958  13.652   5.855
10531POPC   GL163205  29.891  13.595   6.155
10531POPC   GL263206  29.784  13.609   6.155
10531POPC   C1A63207  29.871  13.588   6.455
10531POPC   D2A63208  29.920  13.648   6.755
10531POPC   C3A63209  29.893  13.626   7.055
10531POPC   C4A63210  29.902  13.611   7.355
10531POPC   C1B63211  29.669  13.576   6.455
10531POPC   C2B63212  29.702  13.615   6.755
10531POPC   C3B63213  29.688  13.616   7.055
10531POPC   C4B63214  29.656  13.589   7.355
10532POPC   NC363215   2.729  12.033   5.555
10532POPC   PO463216   2.748  12.070   5.855
10532POPC   GL163217   2.815  12.117   6.155
10532POPC   GL263218   2.818  12.152   6.155
10532POPC   C1A63219   2.795  12.045   6.455
10532POPC   D2A63220   2.789  12.046   6.755
10532POPC   C3A63221   2.761  12.122   7.055
10532POPC   C4A63222   2.764  12.107   7.355
10532POPC   C1B63223   2.977  12.251   6.455
10532POPC   C2B63224   2.881  12.218   6.755
10532POPC   C3B63225   2.923  12.270   7.055
10532POPC   C4B63226   2.927  12.265   7.355
10533POPC   NC363227   0.448  22.165   5.555
10533POPC   PO463228   0.411  22.191   5.855
10533POPC   GL163229   0.486  22.125   6.155
10533POPC   GL263230   0.459  22.058   6.155
10533POPC   C1A63231   0.425  22.135   6.455
10533POPC   D2A63232   0.450  22.122   6.755
10533POPC   C3A63233   0.477  22.153   7.055
10533POPC   C4A63234   0.391  22.164   7.355
10533POPC   C1B63235   0.477  21.960   6.455
10533POPC   C2B63236   0.451  21.862   6.755
10533POPC   C3B63237   0.428  21.959   7.055
10533POPC   C4B63238   0.468  21.925   7.355
10534POPC   NC363239  26.062  23.760   5.555
10534POPC   PO463240  26.017  23.756   5.855
10534POPC   GL163241  26.043  23.706   6.155
10534POPC   GL263242  26.117  23.650   6.155
10534POPC   C1A63243  26.090  23.731   6.455
10534POPC   D2A63244  26.041  23.690   6.755
10534POPC   C3A63245  26.022  23.698   7.055
10534POPC   C4A63246  26.060  23.665   7.355
10534POPC   C1B63247  26.227  23.558   6.455
10534POPC   C2B63248  26.198  23.514   6.755
10534POPC   C3B63249  26.189  23.470   7.055
10534POPC   C4B63250  26.182  23.540   7.355
10535POPC   NC363251  25.251  29.170   5.555
10535POPC   PO463252  25.279  29.097   5.855
10535POPC   GL163253  25.281  29.193   6.155
10535POPC   GL263254  25.419  29.088   6.155
10535POPC   C1A63255  25.271  29.114   6.455
10535POPC   D2A63256  25.244  29.194   6.755
10535POPC   C3A63257  25.299  29.129   7.055
10535POPC   C4A63258  25.238  29.177   7.355
10535POPC   C1B63259  25.520  29.049   6.455
10535POPC   C2B63260  25.525  29.053   6.755
10535POPC   C3B63261  25.490  29.020   7.055
10535POPC   C4B63262  25.495  28.997   7.355
10536POPC   NC363263  35.335  21.374   5.555
10536POPC   PO463264  35.383  21.388   5.855
10536POPC   GL163265  35.359  21.390   6.155
10536POPC   GL263266  35.430  21.338   6.155
10536POPC   C1A63267  35.344  21.355   6.455
10536POPC   D2A63268  35.367  21.388   6.755
10536POPC   C3A63269  35.357  21.383   7.055
10536POPC   C4A63270  35.376  21.357   7.355
10536POPC   C1B63271  35.583  21.358   6.455
10536POPC   C2B63272  35.548  21.368   6.755
10536POPC   C3B63273  35.569  21.294   7.055
10536POPC   C4B63274  35.574  21.347   7.355
10537POPC   NC363275  21.418  43.934   5.555
10537POPC   PO463276  21.424  43.843   5.855
10537POPC   GL163277  21.407  43.859   6.155
10537POPC   GL263278  21.528  43.908   6.155
10537POPC   C1A63279  21.383  43.862   6.455
10537POPC   D2A63280  21.367  43.890   6.755
10537POPC   C3A63281  21.433  43.905   7.055
10537POPC   C4A63282  21.431  43.872   7.355
10537POPC   C1B63283  21.632  43.994   6.455
10537POPC   C2B63284  21.665  44.012   6.755
10537POPC   C3B63285  21.609  43.976   7.055
10537POPC   C4B63286  21.575  43.978   7.355
10538POPC   NC363287  10.519   3.579   5.555
10538POPC   PO463288  10.561   3.557   5.855
10538POPC   GL163289  10.552   3.548   6.155
10538POPC   GL263290  10.375   3.578   6.155
10538POPC   C1A63291  10.548   3.571   6.455
10538POPC   D2A63292  10.520   3.503   6.755
10538POPC   C3A63293  10.517   3.500   7.055
10538POPC   C4A63294  10.531   3.513   7.355
10538POPC   C1B63295  10.295   3.627   6.455
10538POPC   C2B63296  10.341   3.687   6.755
10538POPC   C3B63297  10.284   3.622   7.055
10538POPC   C4B63298  10.302   3.639   7.355
10539POPC   NC363299  33.776   2.791   5.555
10539POPC   PO463300  33.752   2.748   5.855
10539POPC   GL163301  33.849   2.786   6.155
10539POPC   GL263302  33.752   2.623   6.155
10539POPC   C1A63303  33.844   2.763   6.455
10539POPC   D2A63304  33.751   2.811   6.755
10539POPC   C3A63305  33.767   2.738   7.055
10539POPC   C4A63306  33.772   2.779   7.355
10539POPC   C1B63307  33.725   2.561   6.455
10539POPC   C2B63308  33.743   2.517   6.755
10539POPC   C3B63309  33.648   2.490   7.055
10539POPC   C4B63310  33.701   2.545   7.355
10540POPC   NC363311   3.563  25.228   5.555
10540POPC   PO463312   3.576  25.261   5.855
10540POPC   GL163313   3.577  25.246   6.155
10540POPC   GL263314   3.508  25.169   6.155
10540POPC   C1A63315   3.507  25.301   6.455
10540POPC   D2A63316   3.514  25.239   6.755
10540POPC   C3A63317   3.520  25.216   7.055
10540POPC   C4A63318   3.529  25.275   7.355
10540POPC   C1B63319   3.429  24.997   6.455
10540POPC   C2B63320   3.459  25.023   6.755
10540POPC   C3B63321   3.482  25.061   7.055
10540POPC   C4B63322   3.436  25.078   7.355
10541POPC   NC363323  32.980  22.129   5.555
10541POPC   PO463324  32.975  22.169   5.855
10541POPC   GL163325  33.019  22.126   6.155
10541POPC   GL263326  33.000  22.262   6.155
10541POPC   C1A63327  33.036  22.198   6.455
10541POPC   D2A63328  33.034  22.167   6.755
10541POPC   C3A63329  32.985  22.207   7.055
10541POPC   C4A63330  33.000  22.143   7.355
10541POPC   C1B63331  33.039  22.441   6.455
10541POPC   C2B63332  33.107  22.362   6.755
10541POPC   C3B63333  33.113  22.456   7.055
10541POPC   C4B63334  33.044  22.457   7.355
10542POPC   NC363335   8.997  42.379   5.555
10542POPC   PO463336   8.941  42.327   5.855
10542POPC   GL163337   8.924  42.378   6.155
10542POPC   GL263338   9.077  42.249   6.155
10542POPC   C1A63339   8.979  42.363   6.455
10542POPC   D2A63340   8.985  42.318   6.755
10542POPC   C3A63341   9.009  42.304   7.055
10542POPC   C4A63342   9.020  42.304   7.355
10542POPC   C1B63343   9.137  42.083   6.455
10542POPC   C2B63344   9.124  42.122   6.755
10542POPC   C3B63345   9.142  42.142   7.055
10542POPC   C4B63346   9.141  42.165   7.355
10543POPC   NC363347  18.252  26.855   5.555
10543POPC   PO463348  18.272  26.796   5.855
10543POPC   GL163349  18.277  26.845   6.155
10543POPC   GL263350  18.378  26.814   6.155
10543POPC   C1A63351  18.253  26.858   6.455
10543POPC   D2A63352  18.281  26.773   6.755
10543POPC   C3A63353  18.326  26.835   7.055
10543POPC   C4A63354  18.256  26.830   7.355
10543POPC   C1B63355  18.580  26.792   6.455
10543POPC   C2B63356  18.552  26.836   6.755
10543POPC   C3B63357  18.489  26.768   7.055
10543POPC   C4B63358  18.559  26.768   7.355
10544POPC   NC363359  20.567  39.990   5.555
10544POPC   PO463360  20.623  40.042   5.855
10544POPC   GL163361  20.569  40.017   6.155
10544POPC   GL263362  20.730  39.951   6.155
10544POPC   C1A63363  20.642  39.976   6.455
10544POPC   D2A63364  20.600  39.961   6.755
10544POPC   C3A63365  20.656  40.028   7.055
10544POPC   C4A63366  20.569  39.992   7.355
10544POPC   C1B63367  20.866  39.952   6.455
10544POPC   C2B63368  20.812  39.874   6.755
10544POPC   C3B63369  20.840  39.915   7.055
10544POPC   C4B63370  20.811  39.909   7.355
10545POPC   NC363371  36.090   3.565   5.555
10545POPC   PO463372  36.093   3.494   5.855
10545POPC   GL163373  36.125   3.545   6.155
10545POPC   GL263374  36.253   3.529   6.155
10545POPC   C1A63375  36.168   3.572   6.455
10545POPC   D2A63376  36.173   3.525   6.755
10545POPC   C3A63377  36.146   3.547   7.055
10545POPC   C4A63378  36.100   3.578   7.355
10545POPC   C1B63379  36.395   3.525   6.455
10545POPC   C2B63380  36.410   3.516   6.755
10545POPC   C3B63381  36.378   3.568   7.055
10545POPC   C4B63382  36.423   3.516   7.355
10546POPC   NC363383  18.309  16.737   5.555
10546POPC   PO463384  18.312  16.701   5.855
10546POPC   GL163385  18.300  16.720   6.155
10546POPC   GL263386  18.233  16.638   6.155
10546POPC   C1A63387  18.278  16.771   6.455
10546POPC   D2A63388  18.245  16.726   6.755
10546POPC   C3A63389  18.324  16.715   7.055
10546POPC   C4A63390  18.276  16.685   7.355
10546POPC   C1B63391  18.231  16.484   6.455
10546POPC   C2B63392  18.238  16.502   6.755
10546POPC   C3B63393  18.214  16.499   7.055
10546POPC   C4B63394  18.230  16.449   7.355
10547POPC   NC363395  39.192  17.548   5.555
10547POPC   PO463396  39.266  17.507   5.855
10547POPC   GL163397  39.223  17.488   6.155
10547POPC   GL263398  39.127  17.627   6.155
10547POPC   C1A63399  39.253  17.523   6.455
10547POPC   D2A63400  39.221  17.516   6.755
10547POPC   C3A63401  39.239  17.551   7.055
10547POPC   C4A63402  39.213  17.490   7.355
10547POPC   C1B63403  39.013  17.707   6.455
10547POPC   C2B63404  39.048  17.650   6.755
10547POPC   C3B63405  39.070  17.639   7.055
10547POPC   C4B63406  39.033  17.637   7.355
10548POPC   NC363407  43.070  28.365   5.555
10548POPC   PO463408  43.076  28.418   5.855
10548POPC   GL163409  43.157  28.335   6.155
10548POPC   GL263410  43.154  28.280   6.155
10548POPC   C1A63411  43.127  28.398   6.455
10548POPC   D2A63412  43.148  28.375   6.755
10548POPC   C3A63413  43.069  28.409   7.055
10548POPC   C4A63414  43.151  28.345   7.355
10548POPC   C1B63415  43.181  28.089   6.455
10548POPC   C2B63416  43.116  28.156   6.755
10548POPC   C3B63417  43.169  28.139   7.055
10548POPC   C4B63418  43.187  28.116   7.355
10549POPC   NC363419  32.998  33.844   5.555
10549POPC   PO463420  32.977  33.829   5.855
10549POPC   GL163421  33.015  33.830   6.155
10549POPC   GL263422  33.179  33.799   6.155
10549POPC   C1A63423  32.992  33.816   6.455
10549POPC   D2A63424  33.062  33.770   6.755
10549POPC   C3A63425  33.037  33.843   7.055
10549POPC   C4A63426  33.049  33.761   7.355
10549POPC   C1B63427  33.266  33.791   6.455
10549POPC   C2B63428  33.287  33.811   6.755
10549POPC   C3B63429  33.294  33.744   7.055
10549POPC   C4B63430  33.235  33.772   7.355
10550POPC   NC363431  22.168  33.779   5.555
10550POPC   PO463432  22.125  33.814   5.855
10550POPC   GL163433  22.123  33.815   6.155
10550POPC   GL263434  22.223  33.761   6.155
10550POPC   C1A63435  22.192  33.806   6.455
10550POPC   D2A63436  22.191  33.756   6.755
10550POPC   C3A63437  22.200  33.807   7.055
10550POPC   C4A63438  22.140  33.828   7.355
10550POPC   C1B63439  22.360  33.648   6.455
10550POPC   C2B63440  22.318  33.652   6.755
10550POPC   C3B63441  22.331  33.653   7.055
10550POPC   C4B63442  22.343  33.613   7.355
10551POPC   NC363443   7.387  36.935   5.555
10551POPC   PO463444   7.440  36.878   5.855
10551POPC   GL163445   7.449  36.884   6.155
10551POPC   GL263446   7.513  37.037   6.155
10551POPC   C1A63447   7.440  36.938   6.455
10551POPC   D2A63448   7.414  36.856   6.755
10551POPC   C3A63449   7.373  36.891   7.055
10551POPC   C4A63450   7.401  36.929   7.355
10551POPC   C1B63451   7.583  37.088   6.455
10551POPC   C2B63452   7.534  37.150   6.755
10551POPC   C3B63453   7.526  37.142   7.055
10551POPC   C4B63454   7.583  37.134   7.355
10552POPC   NC363455  12.030  43.112   5.555
10552POPC   PO463456  12.032  43.115   5.855
10552POPC   GL163457  12.096  43.095   6.155
10552POPC   GL263458  12.079  43.212   6.155
10552POPC   C1A63459  12.118  43.113   6.455
10552POPC   D2A63460  12.070  43.138   6.755
10552POPC   C3A63461  12.058  43.110   7.055
10552POPC   C4A63462  12.078  43.120   7.355
10552POPC   C1B63463  12.058  43.343   6.455
10552POPC   C2B63464  12.131  43.371   6.755
10552POPC   C3B63465  12.091  43.355   7.055
10552POPC   C4B63466  12.067  43.351   7.355
10553POPC   NC363467  28.365  19.798   5.555
10553POPC   PO463468  28.409  19.878   5.855
10553POPC   GL163469  28.350  19.883   6.155
10553POPC   GL263470  28.537  19.850   6.155
10553POPC   C1A63471  28.382  19.793   6.455
10553POPC   D2A63472  28.377  19.828   6.755
10553POPC   C3A63473  28.385  19.882   7.055
10553POPC   C4A63474  28.321  19.856   7.355
10553POPC   C1B63475  28.569  19.856   6.455
10553POPC   C2B63476  28.654  19.875   6.755
10553POPC   C3B63477  28.591  19.856   7.055
10553POPC   C4B63478  28.642  19.925   7.355
10554POPC   NC363479   5.108  11.275   5.555
10554POPC   PO463480   5.086  11.255   5.855
10554POPC   GL163481   5.102  11.272   6.155
10554POPC   GL263482   4.938  11.377   6.155
10554POPC   C1A63483   5.132  11.321   6.455
10554POPC   D2A63484   5.138  11.273   6.755
10554POPC   C3A63485   5.112  11.342   7.055
10554POPC   C4A63486   5.141  11.284   7.355
10554POPC   C1B63487   4.842  11.443   6.455
10554POPC   C2B63488   4.915  11.459   6.755
10554POPC   C3B63489   4.882  11.451   7.055
10554POPC   C4B63490   4.867  11.400   7.355
10555POPC   NC363491  15.958   2.022   5.555
10555POPC   PO463492  15.931   2.002   5.855
10555POPC   GL163493  15.997   1.990   6.155
10555POPC   GL263494  15.842   1.910   6.155
10555POPC   C1A63495  15.961   1.988   6.455
10555POPC   D2A63496  15.951   1.993   6.755
10555POPC   C3A63497  15.951   1.965   7.055
10555POPC   C4A63498  15.984   1.976   7.355
10555POPC   C1B63499  15.739   1.773   6.455
10555POPC   C2B63500  15.729   1.820   6.755
10555POPC   C3B63501  15.756   1.829   7.055
10555POPC   C4B63502  15.797   1.775   7.355
10556POPC   NC363503  26.813  22.164   5.555
10556POPC   PO463504  26.833  22.143   5.855
10556POPC   GL163505  26.864  22.194   6.155
10556POPC   GL263506  26.786  22.002   6.155
10556POPC   C1A63507  26.863  22.205   6.455
10556POPC   D2A63508  26.816  22.179   6.755
10556POPC   C3A63509  26.823  22.197   7.055
10556POPC   C4A63510  26.794  22.209   7.355
10556POPC   C1B63511  26.670  21.988   6.455
10556POPC   C2B63512  26.663  21.983   6.755
10556POPC   C3B63513  26.667  21.900   7.055
10556POPC   C4B63514  26.724  21.976   7.355
10557POPC   NC363515  14.397  43.117   5.555
10557POPC   PO463516  14.410  43.074   5.855
10557POPC   GL163517  14.404  43.156   6.155
10557POPC   GL263518  14.316  43.079   6.155
10557POPC   C1A63519  14.369  43.123   6.455
10557POPC   D2A63520  14.446  43.099   6.755
10557POPC   C3A63521  14.388  43.153   7.055
10557POPC   C4A63522  14.416  43.146   7.355
10557POPC   C1B63523  14.141  43.137   6.455
10557POPC   C2B63524  14.160  43.159   6.755
10557POPC   C3B63525  14.135  43.108   7.055
10557POPC   C4B63526  14.186  43.118   7.355
10558POPC   NC363527  22.913  36.866   5.555
10558POPC   PO463528  22.946  36.858   5.855
10558POPC   GL163529  22.982  36.919   6.155
10558POPC   GL263530  22.862  36.770   6.155
10558POPC   C1A63531  22.916  36.921   6.455
10558POPC   D2A63532  22.889  36.891   6.755
10558POPC   C3A63533  22.965  36.908   7.055
10558POPC   C4A63534  22.906  36.902   7.355
10558POPC   C1B63535  22.892  36.656   6.455
10558POPC   C2B63536  22.897  36.671   6.755
10558POPC   C3B63537  22.915  36.611   7.055
10558POPC   C4B63538  22.900  36.705   7.355
10559POPC   NC363539  31.481  35.370   5.555
10559POPC   PO463540  31.484  35.323   5.855
10559POPC   GL163541  31.473  35.337   6.155
10559POPC   GL263542  31.585  35.227   6.155
10559POPC   C1A63543  31.488  35.400   6.455
10559POPC   D2A63544  31.433  35.305   6.755
10559POPC   C3A63545  31.516  35.356   7.055
10559POPC   C4A63546  31.514  35.349   7.355
10559POPC   C1B63547  31.651  35.221   6.455
10559POPC   C2B63548  31.708  35.227   6.755
10559POPC   C3B63549  31.637  35.155   7.055
10559POPC   C4B63550  31.674  35.233   7.355
10560POPC   NC363551  27.613   2.812   5.555
10560POPC   PO463552  27.585   2.726   5.855
10560POPC   GL163553  27.582   2.735   6.155
10560POPC   GL263554  27.685   2.769   6.155
10560POPC   C1A63555  27.614   2.757   6.455
10560POPC   D2A63556  27.565   2.729   6.755
10560POPC   C3A63557  27.559   2.791   7.055
10560POPC   C4A63558  27.613   2.740   7.355
10560POPC   C1B63559  27.861   2.739   6.455
10560POPC   C2B63560  27.843   2.731   6.755
10560POPC   C3B63561  27.840   2.670   7.055
10560POPC   C4B63562  27.859   2.684   7.355
10561POPC   NC363563  31.469   8.954   5.555
10561POPC   PO463564  31.433   8.942   5.855
10561POPC   GL163565  31.508   8.939   6.155
10561POPC   GL263566  31.368   9.081   6.155
10561POPC   C1A63567  31.507   8.997   6.455
10561POPC   D2A63568  31.500   8.983   6.755
10561POPC   C3A63569  31.456   8.948   7.055
10561POPC   C4A63570  31.452   9.002   7.355
10561POPC   C1B63571  31.347   9.117   6.455
10561POPC   C2B63572  31.282   9.177   6.755
10561POPC   C3B63573  31.289   9.126   7.055
10561POPC   C4B63574  31.323   9.179   7.355
10562POPC   NC363575  19.091   0.465   5.555
10562POPC   PO463576  19.083   0.463   5.855
10562POPC   GL163577  19.051   0.406   6.155
10562POPC   GL263578  18.984   0.585   6.155
10562POPC   C1A63579  19.109   0.415   6.455
10562POPC   D2A63580  19.062   0.465   6.755
10562POPC   C3A63581  19.052   0.467   7.055
10562POPC   C4A63582  19.046   0.393   7.355
10562POPC   C1B63583  18.913   0.618   6.455
10562POPC   C2B63584  18.965   0.666   6.755
10562POPC   C3B63585  18.903   0.654   7.055
10562POPC   C4B63586  18.958   0.632   7.355
10563POPC   NC363587  29.150  25.993   5.555
10563POPC   PO463588  29.163  26.060   5.855
10563POPC   GL163589  29.183  25.993   6.155
10563POPC   GL263590  29.085  25.955   6.155
10563POPC   C1A63591  29.164  26.042   6.455
10563POPC   D2A63592  29.128  25.997   6.755
10563POPC   C3A63593  29.140  26.070   7.055
10563POPC   C4A63594  29.139  26.076   7.355
10563POPC   C1B63595  28.930  25.909   6.455
10563POPC   C2B63596  28.904  25.911   6.755
10563POPC   C3B63597  28.921  25.889   7.055
10563POPC   C4B63598  28.896  25.950   7.355
10564POPC   NC363599  20.572  26.021   5.555
10564POPC   PO463600  20.633  26.086   5.855
10564POPC   GL163601  20.566  26.020   6.155
10564POPC   GL263602  20.782  26.019   6.155
10564POPC   C1A63603  20.610  26.082   6.455
10564POPC   D2A63604  20.625  26.005   6.755
10564POPC   C3A63605  20.571  26.007   7.055
10564POPC   C4A63606  20.645  26.060   7.355
10564POPC   C1B63607  20.907  26.079   6.455
10564POPC   C2B63608  20.819  26.097   6.755
10564POPC   C3B63609  20.881  26.069   7.055
10564POPC   C4B63610  20.859  26.072   7.355
10565POPC   NC363611  30.665  43.133   5.555
10565POPC   PO463612  30.730  43.111   5.855
10565POPC   GL163613  30.708  43.086   6.155
10565POPC   GL263614  30.620  43.221   6.155
10565POPC   C1A63615  30.736  43.102   6.455
10565POPC   D2A63616  30.708  43.128   6.755
10565POPC   C3A63617  30.650  43.159   7.055
10565POPC   C4A63618  30.681  43.129   7.355
10565POPC   C1B63619  30.491  43.275   6.455
10565POPC   C2B63620  30.493  43.322   6.755
10565POPC   C3B63621  30.535  43.294   7.055
10565POPC   C4B63622  30.533  43.330   7.355
10566POPC   NC363623  23.688  29.925   5.555
10566POPC   PO463624  23.719  29.955   5.855
10566POPC   GL163625  23.695  29.949   6.155
10566POPC   GL263626  23.693  29.834   6.155
10566POPC   C1A63627  23.760  29.953   6.455
10566POPC   D2A63628  23.736  29.936   6.755
10566POPC   C3A63629  23.694  29.936   7.055
10566POPC   C4A63630  23.705  29.948   7.355
10566POPC   C1B63631  23.649  29.701   6.455
10566POPC   C2B63632  23.725  29.695   6.755
10566POPC   C3B63633  23.692  29.716   7.055
10566POPC   C4B63634  23.690  29.643   7.355
10567POPC   NC363635  22.932  39.991   5.555
10567POPC   PO463636  22.914  40.048   5.855
10567POPC   GL163637  22.957  39.981   6.155
10567POPC   GL263638  22.814  39.891   6.155
10567POPC   C1A63639  22.953  40.007   6.455
10567POPC   D2A63640  22.967  39.970   6.755
10567POPC   C3A63641  22.911  39.991   7.055
10567POPC   C4A63642  22.960  39.980   7.355
10567POPC   C1B63643  22.724  39.912   6.455
10567POPC   C2B63644  22.758  39.847   6.755
10567POPC   C3B63645  22.689  39.824   7.055
10567POPC   C4B63646  22.715  39.883   7.355
10568POPC   NC363647  16.760  42.312   5.555
10568POPC   PO463648  16.708  42.332   5.855
10568POPC   GL163649  16.724  42.313   6.155
10568POPC   GL263650  16.876  42.280   6.155
10568POPC   C1A63651  16.728  42.383   6.455
10568POPC   D2A63652  16.694  42.362   6.755
10568POPC   C3A63653  16.733  42.376   7.055
10568POPC   C4A63654  16.751  42.331   7.355
10568POPC   C1B63655  16.913  42.247   6.455
10568POPC   C2B63656  16.919  42.283   6.755
10568POPC   C3B63657  17.004  42.246   7.055
10568POPC   C4B63658  16.918  42.255   7.355
10569POPC   NC363659  40.025  23.730   5.555
10569POPC   PO463660  40.033  23.683   5.855
10569POPC   GL163661  40.042  23.728   6.155
10569POPC   GL263662  39.955  23.616   6.155
10569POPC   C1A63663  40.008  23.706   6.455
10569POPC   D2A63664  39.974  23.666   6.755
10569POPC   C3A63665  40.038  23.730   7.055
10569POPC   C4A63666  40.044  23.689   7.355
10569POPC   C1B63667  39.879  23.444   6.455
10569POPC   C2B63668  39.922  23.479   6.755
10569POPC   C3B63669  39.910  23.459   7.055
10569POPC   C4B63670  39.929  23.522   7.355
10570POPC   NC363671  35.387  43.160   5.555
10570POPC   PO463672  35.348  43.109   5.855
10570POPC   GL163673  35.385  43.155   6.155
10570POPC   GL263674  35.245  43.132   6.155
10570POPC   C1A63675  35.342  43.102   6.455
10570POPC   D2A63676  35.334  43.078   6.755
10570POPC   C3A63677  35.352  43.114   7.055
10570POPC   C4A63678  35.398  43.065   7.355
10570POPC   C1B63679  35.080  43.142   6.455
10570POPC   C2B63680  35.066  43.083   6.755
10570POPC   C3B63681  35.138  43.106   7.055
10570POPC   C4B63682  35.149  43.117   7.355
10571POPC   NC363683  40.778  42.362   5.555
10571POPC   PO463684  40.767  42.311   5.855
10571POPC   GL163685  40.826  42.360   6.155
10571POPC   GL263686  40.876  42.407   6.155
10571POPC   C1A63687  40.765  42.348   6.455
10571POPC   D2A63688  40.734  42.380   6.755
10571POPC   C3A63689  40.777  42.365   7.055
10571POPC   C4A63690  40.783  42.355   7.355
10571POPC   C1B63691  41.032  42.445   6.455
10571POPC   C2B63692  40.988  42.423   6.755
10571POPC   C3B63693  41.009  42.427   7.055
10571POPC   C4B63694  40.968  42.507   7.355
10572POPC   NC363695  20.614  24.516   5.555
10572POPC   PO463696  20.606  24.450   5.855
10572POPC   GL163697  20.620  24.520   6.155
10572POPC   GL263698  20.441  24.532   6.155
10572POPC   C1A63699  20.572  24.535   6.455
10572POPC   D2A63700  20.602  24.440   6.755
10572POPC   C3A63701  20.634  24.519   7.055
10572POPC   C4A63702  20.574  24.491   7.355
10572POPC   C1B63703  20.397  24.548   6.455
10572POPC   C2B63704  20.359  24.588   6.755
10572POPC   C3B63705  20.365  24.534   7.055
10572POPC   C4B63706  20.361  24.597   7.355
10573POPC   NC363707  33.830  32.263   5.555
10573POPC   PO463708  33.818  32.231   5.855
10573POPC   GL163709  33.788  32.280   6.155
10573POPC   GL263710  33.648  32.225   6.155
10573POPC   C1A63711  33.845  32.233   6.455
10573POPC   D2A63712  33.794  32.261   6.755
10573POPC   C3A63713  33.809  32.207   7.055
10573POPC   C4A63714  33.770  32.210   7.355
10573POPC   C1B63715  33.564  32.217   6.455
10573POPC   C2B63716  33.600  32.185   6.755
10573POPC   C3B63717  33.529  32.133   7.055
10573POPC   C4B63718  33.576  32.171   7.355
10574POPC   NC363719  43.905   5.840   5.555
10574POPC   PO463720  43.914   5.879   5.855
10574POPC   GL163721  43.866   5.859   6.155
10574POPC   GL263722  43.899   5.998   6.155
10574POPC   C1A63723  43.854   5.835   6.455
10574POPC   D2A63724  43.914   5.828   6.755
10574POPC   C3A63725  43.865   5.886   7.055
10574POPC   C4A63726  43.850   5.881   7.355
10574POPC   C1B63727  44.030   6.059   6.455
10574POPC   C2B63728  44.035   6.127   6.755
10574POPC   C3B63729  43.990   6.131   7.055
10574POPC   C4B63730  43.958   6.126   7.355
10575POPC   NC363731  19.878  35.336   5.555
10575POPC   PO463732  19.807  35.328   5.855
10575POPC   GL163733  19.878  35.388   6.155
10575POPC   GL263734  19.750  35.239   6.155
10575POPC   C1A63735  19.798  35.305   6.455
10575POPC   D2A63736  19.881  35.327   6.755
10575POPC   C3A63737  19.798  35.345   7.055
10575POPC   C4A63738  19.871  35.390   7.355
10575POPC   C1B63739  19.655  35.115   6.455
10575POPC   C2B63740  19.645  35.162   6.755
10575POPC   C3B63741  19.680  35.155   7.055
10575POPC   C4B63742  19.681  35.158   7.355
10576POPC   NC363743  25.997  41.556   5.555
10576POPC   PO463744  26.059  41.515   5.855
10576POPC   GL163745  25.997  41.541   6.155
10576POPC   GL263746  26.179  41.622   6.155
10576POPC   C1A63747  26.006  41.559   6.455
10576POPC   D2A63748  26.031  41.581   6.755
10576POPC   C3A63749  26.030  41.607   7.055
10576POPC   C4A63750  26.014  41.554   7.355
10576POPC   C1B63751  26.318  41.623   6.455
10576POPC   C2B63752  26.271  41.605   6.755
10576POPC   C3B63753  26.236  41.610   7.055
10576POPC   C4B63754  26.292  41.615   7.355
10577POPC   NC363755   6.605   7.411   5.555
10577POPC   PO463756   6.622   7.379   5.855
10577POPC   GL163757   6.596   7.376   6.155
10577POPC   GL263758   6.657   7.305   6.155
10577POPC   C1A63759   6.686   7.457   6.455
10577POPC   D2A63760   6.618   7.455   6.755
10577POPC   C3A63761   6.689   7.388   7.055
10577POPC   C4A63762   6.604   7.386   7.355
10577POPC   C1B63763   6.667   7.203   6.455
10577POPC   C2B63764   6.648   7.138   6.755
10577POPC   C3B63765   6.699   7.157   7.055
10577POPC   C4B63766   6.684   7.195   7.355
10578POPC   NC363767   9.734  29.112   5.555
10578POPC   PO463768   9.720  29.168   5.855
10578POPC   GL163769   9.781  29.112   6.155
10578POPC   GL263770   9.843  29.234   6.155
10578POPC   C1A63771   9.734  29.190   6.455
10578POPC   D2A63772   9.755  29.151   6.755
10578POPC   C3A63773   9.719  29.170   7.055
10578POPC   C4A63774   9.767  29.167   7.355
10578POPC   C1B63775   9.899  29.286   6.455
10578POPC   C2B63776   9.928  29.370   6.755
10578POPC   C3B63777   9.882  29.307   7.055
10578POPC   C4B63778   9.940  29.374   7.355
10579POPC   NC363779  10.522  23.689   5.555
10579POPC   PO463780  10.482  23.744   5.855
10579POPC   GL163781  10.481  23.679   6.155
10579POPC   GL263782  10.628  23.598   6.155
10579POPC   C1A63783  10.503  23.729   6.455
10579POPC   D2A63784  10.572  23.688   6.755
10579POPC   C3A63785  10.494  23.668   7.055
10579POPC   C4A63786  10.570  23.759   7.355
10579POPC   C1B63787  10.665  23.483   6.455
10579POPC   C2B63788  10.700  23.576   6.755
10579POPC   C3B63789  10.681  23.574   7.055
10579POPC   C4B63790  10.667  23.566   7.355
10580POPC   NC363791   5.910  38.448   5.555
10580POPC   PO463792   5.899  38.473   5.855
10580POPC   GL163793   5.836  38.484   6.155
10580POPC   GL263794   5.738  38.331   6.155
10580POPC   C1A63795   5.823  38.431   6.455
10580POPC   D2A63796   5.865  38.500   6.755
10580POPC   C3A63797   5.900  38.463   7.055
10580POPC   C4A63798   5.840  38.497   7.355
10580POPC   C1B63799   5.676  38.320   6.455
10580POPC   C2B63800   5.672  38.255   6.755
10580POPC   C3B63801   5.715  38.307   7.055
10580POPC   C4B63802   5.706  38.293   7.355
10581POPC   NC363803  11.317  20.630   5.555
10581POPC   PO463804  11.309  20.599   5.855
10581POPC   GL163805  11.302  20.565   6.155
10581POPC   GL263806  11.353  20.724   6.155
10581POPC   C1A63807  11.278  20.590   6.455
10581POPC   D2A63808  11.281  20.622   6.755
10581POPC   C3A63809  11.261  20.562   7.055
10581POPC   C4A63810  11.303  20.649   7.355
10581POPC   C1B63811  11.503  20.755   6.455
10581POPC   C2B63812  11.469  20.744   6.755
10581POPC   C3B63813  11.505  20.769   7.055
10581POPC   C4B63814  11.446  20.804   7.355
10582POPC   NC363815  29.922  26.816   5.555
10582POPC   PO463816  29.875  26.839   5.855
10582POPC   GL163817  29.934  26.798   6.155
10582POPC   GL263818  29.879  26.972   6.155
10582POPC   C1A63819  29.950  26.820   6.455
10582POPC   D2A63820  29.882  26.834   6.755
10582POPC   C3A63821  29.909  26.827   7.055
10582POPC   C4A63822  29.928  26.859   7.355
10582POPC   C1B63823  29.818  26.992   6.455
10582POPC   C2B63824  29.814  27.074   6.755
10582POPC   C3B63825  29.774  27.036   7.055
10582POPC   C4B63826  29.832  27.013   7.355
10583POPC   NC363827  14.426   0.447   5.555
10583POPC   PO463828  14.431   0.413   5.855
10583POPC   GL163829  14.379   0.404   6.155
10583POPC   GL263830  14.439   0.511   6.155
10583POPC   C1A63831  14.450   0.447   6.455
10583POPC   D2A63832  14.421   0.398   6.755
10583POPC   C3A63833  14.453   0.396   7.055
10583POPC   C4A63834  14.376   0.487   7.355
10583POPC   C1B63835  14.554   0.664   6.455
10583POPC   C2B63836  14.581   0.654   6.755
10583POPC   C3B63837  14.565   0.636   7.055
10583POPC   C4B63838  14.521   0.587   7.355
10584POPC   NC363839  12.828   6.612   5.555
10584POPC   PO463840  12.859   6.643   5.855
10584POPC   GL163841  12.873   6.623   6.155
10584POPC   GL263842  12.921   6.572   6.155
10584POPC   C1A63843  12.889   6.617   6.455
10584POPC   D2A63844  12.862   6.693   6.755
10584POPC   C3A63845  12.862   6.632   7.055
10584POPC   C4A63846  12.850   6.657   7.355
10584POPC   C1B63847  12.927   6.418   6.455
10584POPC   C2B63848  12.993   6.404   6.755
10584POPC   C3B63849  12.946   6.397   7.055
10584POPC   C4B63850  12.946   6.369   7.355
10585POPC   NC363851   2.008  27.567   5.555
10585POPC   PO463852   1.942  27.572   5.855
10585POPC   GL163853   1.977  27.580   6.155
10585POPC   GL263854   1.911  27.672   6.155
10585POPC   C1A63855   1.944  27.577   6.455
10585POPC   D2A63856   1.993  27.557   6.755
10585POPC   C3A63857   2.003  27.587   7.055
10585POPC   C4A63858   1.954  27.555   7.355
10585POPC   C1B63859   1.885  27.822   6.455
10585POPC   C2B63860   1.828  27.799   6.755
10585POPC   C3B63861   1.884  27.829   7.055
10585POPC   C4B63862   1.826  27.817   7.355
10586POPC   NC363863  15.195  25.286   5.555
10586POPC   PO463864  15.206  25.226   5.855
10586POPC   GL163865  15.204  25.235   6.155
10586POPC   GL263866  15.089  25.331   6.155
10586POPC   C1A63867  15.174  25.219   6.455
10586POPC   D2A63868  15.153  25.236   6.755
10586POPC   C3A63869  15.217  25.262   7.055
10586POPC   C4A63870  15.221  25.273   7.355
10586POPC   C1B63871  14.999  25.374   6.455
10586POPC   C2B63872  14.999  25.386   6.755
10586POPC   C3B63873  14.934  25.411   7.055
10586POPC   C4B63874  15.014  25.451   7.355
10587POPC   NC363875   5.109  43.126   5.555
10587POPC   PO463876   5.105  43.155   5.855
10587POPC   GL163877   5.099  43.154   6.155
10587POPC   GL263878   5.112  43.243   6.155
10587POPC   C1A63879   5.101  43.079   6.455
10587POPC   D2A63880   5.092  43.121   6.755
10587POPC   C3A63881   5.072  43.154   7.055
10587POPC   C4A63882   5.111  43.143   7.355
10587POPC   C1B63883   5.135  43.334   6.455
10587POPC   C2B63884   5.099  43.342   6.755
10587POPC   C3B63885   5.073  43.318   7.055
10587POPC   C4B63886   5.058  43.334   7.355
10588POPC   NC363887  11.311  10.524   5.555
10588POPC   PO463888  11.297  10.520   5.855
10588POPC   GL163889  11.291  10.509   6.155
10588POPC   GL263890  11.165  10.626   6.155
10588POPC   C1A63891  11.281  10.496   6.455
10588POPC   D2A63892  11.339  10.569   6.755
10588POPC   C3A63893  11.277  10.570   7.055
10588POPC   C4A63894  11.277  10.544   7.355
10588POPC   C1B63895  11.056  10.655   6.455
10588POPC   C2B63896  11.049  10.609   6.755
10588POPC   C3B63897  11.082  10.594   7.055
10588POPC   C4B63898  11.060  10.603   7.355
10589POPC   NC363899  15.181  26.036   5.555
10589POPC   PO463900  15.145  26.081   5.855
10589POPC   GL163901  15.199  26.025   6.155
10589POPC   GL263902  15.285  25.895   6.155
10589POPC   C1A63903  15.152  26.071   6.455
10589POPC   D2A63904  15.132  26.003   6.755
10589POPC   C3A63905  15.161  25.996   7.055
10589POPC   C4A63906  15.228  26.083   7.355
10589POPC   C1B63907  15.333  25.858   6.455
10589POPC   C2B63908  15.328  25.789   6.755
10589POPC   C3B63909  15.322  25.776   7.055
10589POPC   C4B63910  15.293  25.849   7.355
10590POPC   NC363911  17.474   3.515   5.555
10590POPC   PO463912  17.493   3.538   5.855
10590POPC   GL163913  17.507   3.525   6.155
10590POPC   GL263914  17.375   3.620   6.155
10590POPC   C1A63915  17.514   3.513   6.455
10590POPC   D2A63916  17.525   3.577   6.755
10590POPC   C3A63917  17.528   3.547   7.055
10590POPC   C4A63918  17.534   3.502   7.355
10590POPC   C1B63919  17.265   3.659   6.455
10590POPC   C2B63920  17.305   3.658   6.755
10590POPC   C3B63921  17.326   3.652   7.055
10590POPC   C4B63922  17.263   3.656   7.355
10591POPC   NC363923  43.871  17.469   5.555
10591POPC   PO463924  43.837  17.512   5.855
10591POPC   GL163925  43.877  17.547   6.155
10591POPC   GL263926  43.977  17.590   6.155
10591POPC   C1A63927  43.858  17.553   6.455
10591POPC   D2A63928  43.861  17.509   6.755
10591POPC   C3A63929  43.887  17.462   7.055
10591POPC   C4A63930  43.866  17.556   7.355
10591POPC   C1B63931  44.016  17.700   6.455
10591POPC   C2B63932  44.078  17.670   6.755
10591POPC   C3B63933  44.079  17.718   7.055
10591POPC   C4B63934  44.014  17.713   7.355
10592POPC   NC363935   9.765   9.712   5.555
10592POPC   PO463936   9.780   9.766   5.855
10592POPC   GL163937   9.716   9.715   6.155
10592POPC   GL263938   9.687   9.682   6.155
10592POPC   C1A63939   9.780   9.731   6.455
10592POPC   D2A63940   9.762   9.713   6.755
10592POPC   C3A63941   9.709   9.726   7.055
10592POPC   C4A63942   9.797   9.732   7.355
10592POPC   C1B63943   9.533   9.598   6.455
10592POPC   C2B63944   9.558   9.540   6.755
10592POPC   C3B63945   9.592   9.588   7.055
10592POPC   C4B63946   9.528   9.620   7.355
10593POPC   NC363947   6.662  27.580   5.555
10593POPC   PO463948   6.666  27.563   5.855
10593POPC   GL163949   6.655  27.616   6.155
10593POPC   GL263950   6.519  27.657   6.155
10593POPC   C1A63951   6.671  27.627   6.455
10593POPC   D2A63952   6.672  27.588   6.755
10593POPC   C3A63953   6.676  27.584   7.055
10593POPC   C4A63954   6.688  27.563   7.355
10593POPC   C1B63955   6.462  27.707   6.455
10593POPC   C2B63956   6.415  27.668   6.755
10593POPC   C3B63957   6.468  27.663   7.055
10593POPC   C4B63958   6.403  27.667   7.355
10594POPC   NC363959  20.638  36.119   5.555
10594POPC   PO463960  20.575  36.115   5.855
10594POPC   GL163961  20.633  36.165   6.155
10594POPC   GL263962  20.604  36.295   6.155
10594POPC   C1A63963  20.572  36.119   6.455
10594POPC   D2A63964  20.617  36.149   6.755
10594POPC   C3A63965  20.567  36.118   7.055
10594POPC   C4A63966  20.605  36.116   7.355
10594POPC   C1B63967  20.725  36.354   6.455
10594POPC   C2B63968  20.702  36.349   6.755
10594POPC   C3B63969  20.718  36.414   7.055
10594POPC   C4B63970  20.663  36.330   7.355
10595POPC   NC363971  18.323   1.978   5.555
10595POPC   PO463972  18.234   1.986   5.855
10595POPC   GL163973  18.322   1.957   6.155
10595POPC   GL263974  18.431   1.937   6.155
10595POPC   C1A63975  18.272   2.031   6.455
10595POPC   D2A63976  18.332   1.969   6.755
10595POPC   C3A63977  18.305   1.991   7.055
10595POPC   C4A63978  18.319   1.970   7.355
10595POPC   C1B63979  18.496   1.899   6.455
10595POPC   C2B63980  18.460   1.843   6.755
10595POPC   C3B63981  18.541   1.820   7.055
10595POPC   C4B63982  18.538   1.826   7.355
10596POPC   NC363983  43.072   5.822   5.555
10596POPC   PO463984  43.129   5.824   5.855
10596POPC   GL163985  43.158   5.846   6.155
10596POPC   GL263986  43.152   5.957   6.155
10596POPC   C1A63987  43.121   5.826   6.455
10596POPC   D2A63988  43.105   5.863   6.755
10596POPC   C3A63989  43.067   5.840   7.055
10596POPC   C4A63990  43.073   5.831   7.355
10596POPC   C1B63991  43.175   6.149   6.455
10596POPC   C2B63992  43.162   6.107   6.755
10596POPC   C3B63993  43.119   6.107   7.055
10596POPC   C4B63994  43.140   6.148   7.355
10597POPC   NC363995  19.036  27.596   5.555
10597POPC   PO463996  19.042  27.557   5.855
10597POPC   GL163997  19.026  27.558   6.155
10597POPC   GL263998  18.898  27.606   6.155
10597POPC   C1A63999  19.101  27.608   6.455
10597POPC   D2A64000  19.071  27.600   6.755
10597POPC   C3A64001  19.050  27.602   7.055
10597POPC   C4A64002  19.094  27.626   7.355
10597POPC   C1B64003  18.832  27.692   6.455
10597POPC   C2B64004  18.828  27.677   6.755
10597POPC   C3B64005  18.832  27.684   7.055
10597POPC   C4B64006  18.868  27.707   7.355
10598POPC   NC364007  39.185  22.119   5.555
10598POPC   PO464008  39.263  22.156   5.855
10598POPC   GL164009  39.251  22.161   6.155
10598POPC   GL264010  39.158  22.091   6.155
10598POPC   C1A64011  39.227  22.157   6.455
10598POPC   D2A64012  39.228  22.154   6.755
10598POPC   C3A64013  39.240  22.129   7.055
10598POPC   C4A64014  39.204  22.178   7.355
10598POPC   C1B64015  38.980  22.058   6.455
10598POPC   C2B64016  38.989  22.014   6.755
10598POPC   C3B64017  39.062  21.991   7.055
10598POPC   C4B64018  39.066  22.075   7.355
10599POPC   NC364019   8.937  11.328   5.555
10599POPC   PO464020   8.957  11.278   5.855
10599POPC   GL164021   8.972  11.335   6.155
10599POPC   GL264022   9.087  11.283   6.155
10599POPC   C1A64023   8.937  11.273   6.455
10599POPC   D2A64024   9.004  11.320   6.755
10599POPC   C3A64025   9.005  11.257   7.055
10599POPC   C4A64026   9.003  11.255   7.355
10599POPC   C1B64027   9.227  11.329   6.455
10599POPC   C2B64028   9.192  11.314   6.755
10599POPC   C3B64029   9.194  11.260   7.055
10599POPC   C4B64030   9.249  11.339   7.355
10600POPC   NC364031   1.262  30.717   5.555
10600POPC   PO464032   1.196  30.663   5.855
10600POPC   GL164033   1.247  30.746   6.155
10600POPC   GL264034   1.138  30.537   6.155
10600POPC   C1A64035   1.217  30.716   6.455
10600POPC   D2A64036   1.207  30.719   6.755
10600POPC   C3A64037   1.242  30.674   7.055
10600POPC   C4A64038   1.257  30.680   7.355
10600POPC   C1B64039   1.187  30.504   6.455
10600POPC   C2B64040   1.184  30.421   6.755
10600POPC   C3B64041   1.188  30.467   7.055
10600POPC   C4B64042   1.116  30.470   7.355
10601POPC   NC364043  41.523  29.124   5.555
10601POPC   PO464044  41.530  29.113   5.855
10601POPC   GL164045  41.531  29.117   6.155
10601POPC   GL264046  41.452  29.171   6.155
10601POPC   C1A64047  41.567  29.145   6.455
10601POPC   D2A64048  41.561  29.139   6.755
10601POPC   C3A64049  41.571  29.120   7.055
10601POPC   C4A64050  41.577  29.164   7.355
10601POPC   C1B64051  41.333  29.313   6.455
10601POPC   C2B64052  41.306  29.247   6.755
10601POPC   C3B64053  41.372  29.272   7.055
10601POPC   C4B64054  41.344  29.290   7.355
10602POPC   NC364055   2.753  29.146   5.555
10602POPC   PO464056   2.779  29.097   5.855
10602POPC   GL164057   2.781  29.151   6.155
10602POPC   GL264058   2.744  29.281   6.155
10602POPC   C1A64059   2.808  29.122   6.455
10602POPC   D2A64060   2.767  29.118   6.755
10602POPC   C3A64061   2.787  29.150   7.055
10602POPC   C4A64062   2.735  29.101   7.355
10602POPC   C1B64063   2.717  29.384   6.455
10602POPC   C2B64064   2.689  29.389   6.755
10602POPC   C3B64065   2.686  29.358   7.055
10602POPC   C4B64066   2.665  29.358   7.355
10603POPC   NC364067   7.469  40.027   5.555
10603POPC   PO464068   7.441  39.969   5.855
10603POPC   GL164069   7.451  39.975   6.155
10603POPC   GL264070   7.359  39.859   6.155
10603POPC   C1A64071   7.407  39.996   6.455
10603POPC   D2A64072   7.405  39.971   6.755
10603POPC   C3A64073   7.406  39.983   7.055
10603POPC   C4A64074   7.438  39.989   7.355
10603POPC   C1B64075   7.325  39.799   6.455
10603POPC   C2B64076   7.335  39.775   6.755
10603POPC   C3B64077   7.337  39.738   7.055
10603POPC   C4B64078   7.375  39.752   7.355
10604POPC   NC364079  25.241  12.823   5.555
10604POPC   PO464080  25.255  12.852   5.855
10604POPC   GL164081  25.260  12.803   6.155
10604POPC   GL264082  25.191  12.791   6.155
10604POPC   C1A64083  25.239  12.836   6.455
10604POPC   D2A64084  25.256  12.855   6.755
10604POPC   C3A64085  25.281  12.859   7.055
10604POPC   C4A64086  25.261  12.802   7.355
10604POPC   C1B64087  25.050  12.695   6.455
10604POPC   C2B64088  25.014  12.716   6.755
10604POPC   C3B64089  25.042  12.764   7.055
10604POPC   C4B64090  25.094  12.677   7.355
10605POPC   NC364091  22.965   0.425   5.555
10605POPC   PO464092  22.958   0.412   5.855
10605POPC   GL164093  22.978   0.458   6.155
10605POPC   GL264094  22.967   0.550   6.155
10605POPC   C1A64095  22.932   0.402   6.455
10605POPC   D2A64096  22.942   0.453   6.755
10605POPC   C3A64097  22.950   0.405   7.055
10605POPC   C4A64098  22.981   0.465   7.355
10605POPC   C1B64099  22.995   0.700   6.455
10605POPC   C2B64100  23.082   0.678   6.755
10605POPC   C3B64101  23.045   0.707   7.055
10605POPC   C4B64102  23.041   0.662   7.355
10606POPC   NC364103  10.563  25.282   5.555
10606POPC   PO464104  10.522  25.315   5.855
10606POPC   GL164105  10.493  25.302   6.155
10606POPC   GL264106  10.443  25.129   6.155
10606POPC   C1A64107  10.525  25.288   6.455
10606POPC   D2A64108  10.511  25.280   6.755
10606POPC   C3A64109  10.528  25.283   7.055
10606POPC   C4A64110  10.540  25.226   7.355
10606POPC   C1B64111  10.416  25.064   6.455
10606POPC   C2B64112  10.442  25.021   6.755
10606POPC   C3B64113  10.455  25.075   7.055
10606POPC   C4B64114  10.414  25.008   7.355
10607POPC   NC364115  36.868   3.575   5.555
10607POPC   PO464116  36.914   3.506   5.855
10607POPC   GL164117  36.906   3.548   6.155
10607POPC   GL264118  36.987   3.461   6.155
10607POPC   C1A64119  36.945   3.560   6.455
10607POPC   D2A64120  36.862   3.543   6.755
10607POPC   C3A64121  36.859   3.521   7.055
10607POPC   C4A64122  36.927   3.589   7.355
10607POPC   C1B64123  37.097   3.490   6.455
10607POPC   C2B64124  37.129   3.500   6.755
10607POPC   C3B64125  37.104   3.449   7.055
10607POPC   C4B64126  37.142   3.418   7.355
10608POPC   NC364127  36.101  15.968   5.555
10608POPC   PO464128  36.161  15.928   5.855
10608POPC   GL164129  36.083  15.946   6.155
10608POPC   GL264130  36.076  15.859   6.155
10608POPC   C1A64131  36.138  15.992   6.455
10608POPC   D2A64132  36.089  15.962   6.755
10608POPC   C3A64133  36.166  15.950   7.055
10608POPC   C4A64134  36.142  15.972   7.355
10608POPC   C1B64135  35.995  15.781   6.455
10608POPC   C2B64136  36.025  15.708   6.755
10608POPC   C3B64137  36.003  15.759   7.055
10608POPC   C4B64138  35.962  15.704   7.355
10609POPC   NC364139  30.682  16.699   5.555
10609POPC   PO464140  30.695  16.695   5.855
10609POPC   GL164141  30.654  16.722   6.155
10609POPC   GL264142  30.814  16.692   6.155
10609POPC   C1A64143  30.737  16.769   6.455
10609POPC   D2A64144  30.656  16.709   6.755
10609POPC   C3A64145  30.666  16.692   7.055
10609POPC   C4A64146  30.720  16.768   7.355
10609POPC   C1B64147  30.968  16.570   6.455
10609POPC   C2B64148  30.875  16.590   6.755
10609POPC   C3B64149  30.906  16.606   7.055
10609POPC   C4B64150  30.892  16.620   7.355
10610POPC   NC364151  29.111   7.403   5.555
10610POPC   PO464152  29.168   7.405   5.855
10610POPC   GL164153  29.182   7.401   6.155
10610POPC   GL264154  29.194   7.540   6.155
10610POPC   C1A64155  29.141   7.392   6.455
10610POPC   D2A64156  29.118   7.448   6.755
10610POPC   C3A64157  29.115   7.454   7.055
10610POPC   C4A64158  29.172   7.392   7.355
10610POPC   C1B64159  29.282   7.627   6.455
10610POPC   C2B64160  29.288   7.605   6.755
10610POPC   C3B64161  29.314   7.639   7.055
10610POPC   C4B64162  29.260   7.570   7.355
10611POPC   NC364163   0.439  41.560   5.555
10611POPC   PO464164   0.411  41.514   5.855
10611POPC   GL164165   0.472  41.538   6.155
10611POPC   GL264166   0.574  41.538   6.155
10611POPC   C1A64167   0.397  41.574   6.455
10611POPC   D2A64168   0.471  41.517   6.755
10611POPC   C3A64169   0.421  41.573   7.055
10611POPC   C4A64170   0.464  41.569   7.355
10611POPC   C1B64171   0.628  41.455   6.455
10611POPC   C2B64172   0.695  41.386   6.755
10611POPC   C3B64173   0.646  41.456   7.055
10611POPC   C4B64174   0.687  41.384   7.355
10612POPC   NC364175  22.169  36.083   5.555
10612POPC   PO464176  22.200  36.098   5.855
10612POPC   GL164177  22.144  36.105   6.155
10612POPC   GL264178  22.120  35.965   6.155
10612POPC   C1A64179  22.160  36.165   6.455
10612POPC   D2A64180  22.115  36.115   6.755
10612POPC   C3A64181  22.179  36.166   7.055
10612POPC   C4A64182  22.136  36.145   7.355
10612POPC   C1B64183  22.060  35.929   6.455
10612POPC   C2B64184  22.072  35.898   6.755
10612POPC   C3B64185  22.066  35.868   7.055
10612POPC   C4B64186  22.056  35.870   7.355
10613POPC   NC364187  15.980  32.994   5.555
10613POPC   PO464188  15.942  33.062   5.855
10613POPC   GL164189  15.983  33.037   6.155
10613POPC   GL264190  16.015  33.083   6.155
10613POPC   C1A64191  15.997  33.010   6.455
10613POPC   D2A64192  15.982  33.067   6.755
10613POPC   C3A64193  15.937  33.034   7.055
10613POPC   C4A64194  15.923  33.044   7.355
10613POPC   C1B64195  16.139  33.194   6.455
10613POPC   C2B64196  16.144  33.199   6.755
10613POPC   C3B64197  16.080  33.264   7.055
10613POPC   C4B64198  16.127  33.260   7.355
10614POPC   NC364199  37.714  22.943   5.555
10614POPC   PO464200  37.690  22.914   5.855
10614POPC   GL164201  37.630  22.967   6.155
10614POPC   GL264202  37.582  22.993   6.155
10614POPC   C1A64203  37.631  22.932   6.455
10614POPC   D2A64204  37.727  22.950   6.755
10614POPC   C3A64205  37.725  22.943   7.055
10614POPC   C4A64206  37.684  22.930   7.355
10614POPC   C1B64207  37.442  22.987   6.455
10614POPC   C2B64208  37.426  22.942   6.755
10614POPC   C3B64209  37.415  22.990   7.055
10614POPC   C4B64210  37.439  22.928   7.355
10615POPC   NC364211  35.358  25.995   5.555
10615POPC   PO464212  35.359  26.067   5.855
10615POPC   GL164213  35.308  26.042   6.155
10615POPC   GL264214  35.324  26.161   6.155
10615POPC   C1A64215  35.335  26.018   6.455
10615POPC   D2A64216  35.331  26.023   6.755
10615POPC   C3A64217  35.305  26.061   7.055
10615POPC   C4A64218  35.387  26.028   7.355
10615POPC   C1B64219  35.343  26.246   6.455
10615POPC   C2B64220  35.341  26.258   6.755
10615POPC   C3B64221  35.370  26.331   7.055
10615POPC   C4B64222  35.375  26.309   7.355
10616POPC   NC364223  17.529   1.991   5.555
10616POPC   PO464224  17.476   2.031   5.855
10616POPC   GL164225  17.503   2.039   6.155
10616POPC   GL264226  17.665   2.021   6.155
10616POPC   C1A64227  17.469   2.028   6.455
10616POPC   D2A64228  17.468   1.950   6.755
10616POPC   C3A64229  17.502   2.006   7.055
10616POPC   C4A64230  17.504   2.024   7.355
10616POPC   C1B64231  17.765   2.087   6.455
10616POPC   C2B64232  17.778   2.107   6.755
10616POPC   C3B64233  17.735   2.020   7.055
10616POPC   C4B64234  17.699   2.030   7.355
10617POPC   NC364235   1.200  26.043   5.555
10617POPC   PO464236   1.201  26.050   5.855
10617POPC   GL164237   1.259  26.086   6.155
10617POPC   GL264238   1.156  25.898   6.155
10617POPC   C1A64239   1.168  26.032   6.455
10617POPC   D2A64240   1.213  25.997   6.755
10617POPC   C3A64241   1.193  26.043   7.055
10617POPC   C4A64242   1.255  26.085   7.355
10617POPC   C1B64243   1.191  25.818   6.455
10617POPC   C2B64244   1.161  25.811   6.755
10617POPC   C3B64245   1.212  25.808   7.055
10617POPC   C4B64246   1.194  25.758   7.355
10618POPC   NC364247  26.081   1.185   5.555
10618POPC   PO464248  26.059   1.230   5.855
10618POPC   GL164249  26.032   1.177   6.155
10618POPC   GL264250  25.915   1.133   6.155
10618POPC   C1A64251  26.009   1.228   6.455
10618POPC   D2A64252  25.994   1.169   6.755
10618POPC   C3A64253  26.020   1.191   7.055
10618POPC   C4A64254  26.029   1.249   7.355
10618POPC   C1B64255  25.832   1.108   6.455
10618POPC   C2B64256  25.803   1.178   6.755
10618POPC   C3B64257  25.813   1.182   7.055
10618POPC   C4B64258  25.845   1.133   7.355
10619POPC   NC364259  33.049  21.410   5.555
10619POPC   PO464260  33.026  21.348   5.855
10619POPC   GL164261  33.007  21.379   6.155
10619POPC   GL264262  33.029  21.269   6.155
10619POPC   C1A64263  32.979  21.406   6.455
10619POPC   D2A64264  33.049  21.341   6.755
10619POPC   C3A64265  33.023  21.364   7.055
10619POPC   C4A64266  33.040  21.426   7.355
10619POPC   C1B64267  33.006  21.152   6.455
10619POPC   C2B64268  32.988  21.104   6.755
10619POPC   C3B64269  32.950  21.144   7.055
10619POPC   C4B64270  32.988  21.174   7.355
10620POPC   NC364271  28.331   2.768   5.555
10620POPC   PO464272  28.374   2.723   5.855
10620POPC   GL164273  28.410   2.782   6.155
10620POPC   GL264274  28.331   2.630   6.155
10620POPC   C1A64275  28.390   2.757   6.455
10620POPC   D2A64276  28.337   2.795   6.755
10620POPC   C3A64277  28.341   2.784   7.055
10620POPC   C4A64278  28.334   2.774   7.355
10620POPC   C1B64279  28.387   2.499   6.455
10620POPC   C2B64280  28.369   2.497   6.755
10620POPC   C3B64281  28.431   2.564   7.055
10620POPC   C4B64282  28.422   2.470   7.355
10621POPC   NC364283  44.614  33.023   5.555
10621POPC   PO464284  44.619  32.981   5.855
10621POPC   GL164285  44.622  33.048   6.155
10621POPC   GL264286  44.703  32.934   6.155
10621POPC   C1A64287  44.694  33.036   6.455
10621POPC   D2A64288  44.646  33.033   6.755
10621POPC   C3A64289  44.633  32.993   7.055
10621POPC   C4A64290  44.620  33.008   7.355
10621POPC   C1B64291  44.736  32.773   6.455
10621POPC   C2B64292  44.753  32.764   6.755
10621POPC   C3B64293  44.799  32.815   7.055
10621POPC   C4B64294  44.753  32.841   7.355
10622POPC   NC364295  20.597  42.366   5.555
10622POPC   PO464296  20.648  42.285   5.855
10622POPC   GL164297  20.582  42.335   6.155
10622POPC   GL264298  20.681  42.248   6.155
10622POPC   C1A64299  20.650  42.285   6.455
10622POPC   D2A64300  20.659  42.379   6.755
10622POPC   C3A64301  20.570  42.369   7.055
10622POPC   C4A64302  20.660  42.380   7.355
10622POPC   C1B64303  20.619  42.109   6.455
10622POPC   C2B64304  20.667  42.088   6.755
10622POPC   C3B64305  20.682  42.083   7.055
10622POPC   C4B64306  20.659  42.056   7.355
10623POPC   NC364307  22.118  42.294   5.555
10623POPC   PO464308  22.136  42.325   5.855
10623POPC   GL164309  22.147  42.314   6.155
10623POPC   GL264310  22.251  42.328   6.155
10623POPC   C1A64311  22.170  42.360   6.455
10623POPC   D2A64312  22.203  42.296   6.755
10623POPC   C3A64313  22.174  42.379   7.055
10623POPC   C4A64314  22.146  42.312   7.355
10623POPC   C1B64315  22.439  42.337   6.455
10623POPC   C2B64316  22.367  42.335   6.755
10623POPC   C3B64317  22.453  42.370   7.055
10623POPC   C4B64318  22.448  42.333   7.355
10624POPC   NC364319  32.260  43.923   5.555
10624POPC   PO464320  32.289  43.935   5.855
10624POPC   GL164321  32.202  43.867   6.155
10624POPC   GL264322  32.375  43.913   6.155
10624POPC   C1A64323  32.245  43.918   6.455
10624POPC   D2A64324  32.288  43.917   6.755
10624POPC   C3A64325  32.261  43.916   7.055
10624POPC   C4A64326  32.293  43.906   7.355
10624POPC   C1B64327  32.503  43.866   6.455
10624POPC   C2B64328  32.453  43.847   6.755
10624POPC   C3B64329  32.512  43.808   7.055
10624POPC   C4B64330  32.463  43.815   7.355
10625POPC   NC364331  15.965   4.308   5.555
10625POPC   PO464332  15.943   4.298   5.855
10625POPC   GL164333  15.914   4.276   6.155
10625POPC   GL264334  16.091   4.252   6.155
10625POPC   C1A64335  16.000   4.332   6.455
10625POPC   D2A64336  15.950   4.346   6.755
10625POPC   C3A64337  15.967   4.356   7.055
10625POPC   C4A64338  15.941   4.364   7.355
10625POPC   C1B64339  16.192   4.248   6.455
10625POPC   C2B64340  16.230   4.249   6.755
10625POPC   C3B64341  16.142   4.190   7.055
10625POPC   C4B64342  16.154   4.240   7.355
10626POPC   NC364343  26.769  24.500   5.555
10626POPC   PO464344  26.861  24.520   5.855
10626POPC   GL164345  26.810  24.522   6.155
10626POPC   GL264346  26.753  24.621   6.155
10626POPC   C1A64347  26.780  24.472   6.455
10626POPC   D2A64348  26.845  24.518   6.755
10626POPC   C3A64349  26.829  24.455   7.055
10626POPC   C4A64350  26.799  24.455   7.355
10626POPC   C1B64351  26.763  24.711   6.455
10626POPC   C2B64352  26.731  24.715   6.755
10626POPC   C3B64353  26.765  24.734   7.055
10626POPC   C4B64354  26.732  24.722   7.355
10627POPC   NC364355  10.545  22.134   5.555
10627POPC   PO464356  10.519  22.151   5.855
10627POPC   GL164357  10.564  22.117   6.155
10627POPC   GL264358  10.637  22.171   6.155
10627POPC   C1A64359  10.540  22.123   6.455
10627POPC   D2A64360  10.480  22.184   6.755
10627POPC   C3A64361  10.570  22.202   7.055
10627POPC   C4A64362  10.547  22.128   7.355
10627POPC   C1B64363  10.798  22.152   6.455
10627POPC   C2B64364  10.801  22.186   6.755
10627POPC   C3B64365  10.725  22.157   7.055
10627POPC   C4B64366  10.774  22.209   7.355
10628POPC   NC364367  36.899  19.010   5.555
10628POPC   PO464368  36.861  19.014   5.855
10628POPC   GL164369  36.884  19.044   6.155
10628POPC   GL264370  36.939  18.969   6.155
10628POPC   C1A64371  36.904  19.108   6.455
10628POPC   D2A64372  36.921  19.015   6.755
10628POPC   C3A64373  36.904  19.087   7.055
10628POPC   C4A64374  36.930  19.081   7.355
10628POPC   C1B64375  37.035  18.834   6.455
10628POPC   C2B64376  37.063  18.871   6.755
10628POPC   C3B64377  37.039  18.865   7.055
10628POPC   C4B64378  37.036  18.872   7.355
10629POPC   NC364379  26.067  34.619   5.555
10629POPC   PO464380  26.050  34.574   5.855
10629POPC   GL164381  26.076  34.567   6.155
10629POPC   GL264382  26.093  34.685   6.155
10629POPC   C1A64383  26.085  34.530   6.455
10629POPC   D2A64384  26.004  34.589   6.755
10629POPC   C3A64385  26.069  34.604   7.055
10629POPC   C4A64386  26.009  34.614   7.355
10629POPC   C1B64387  26.211  34.702   6.455
10629POPC   C2B64388  26.180  34.719   6.755
10629POPC   C3B64389  26.218  34.705   7.055
10629POPC   C4B64390  26.186  34.777   7.355
10630POPC   NC364391  38.495  18.306   5.555
10630POPC   PO464392  38.488  18.318   5.855
10630POPC   GL164393  38.439  18.319   6.155
10630POPC   GL264394  38.377  18.348   6.155
10630POPC   C1A64395  38.490  18.283   6.455
10630POPC   D2A64396  38.429  18.332   6.755
10630POPC   C3A64397  38.423  18.329   7.055
10630POPC   C4A64398  38.432  18.288   7.355
10630POPC   C1B64399  38.313  18.489   6.455
10630POPC   C2B64400  38.238  18.472   6.755
10630POPC   C3B64401  38.317  18.480   7.055
10630POPC   C4B64402  38.288  18.494   7.355
10631POPC   NC364403   9.780  40.738   5.555
10631POPC   PO464404   9.718  40.750   5.855
10631POPC   GL164405   9.742  40.778   6.155
10631POPC   GL264406   9.738  40.904   6.155
10631POPC   C1A64407   9.718  40.755   6.455
10631POPC   D2A64408   9.750  40.738   6.755
10631POPC   C3A64409   9.763  40.787   7.055
10631POPC   C4A64410   9.699  40.755   7.355
10631POPC   C1B64411   9.701  41.068   6.455
10631POPC   C2B64412   9.775  41.021   6.755
10631POPC   C3B64413   9.701  41.034   7.055
10631POPC   C4B64414   9.697  41.018   7.355
10632POPC   NC364415  38.480  12.890   5.555
10632POPC   PO464416  38.453  12.891   5.855
10632POPC   GL164417  38.460  12.872   6.155
10632POPC   GL264418  38.425  12.960   6.155
10632POPC   C1A64419  38.464  12.825   6.455
10632POPC   D2A64420  38.456  12.862   6.755
10632POPC   C3A64421  38.484  12.866   7.055
10632POPC   C4A64422  38.491  12.811   7.355
10632POPC   C1B64423  38.412  13.099   6.455
10632POPC   C2B64424  38.418  13.131   6.755
10632POPC   C3B64425  38.401  13.132   7.055
10632POPC   C4B64426  38.427  13.112   7.355
10633POPC   NC364427  26.854  26.787   5.555
10633POPC   PO464428  26.797  26.774   5.855
10633POPC   GL164429  26.862  26.845   6.155
10633POPC   GL264430  26.782  26.969   6.155
10633POPC   C1A64431  26.848  26.854   6.455
10633POPC   D2A64432  26.837  26.821   6.755
10633POPC   C3A64433  26.825  26.857   7.055
10633POPC   C4A64434  26.832  26.786   7.355
10633POPC   C1B64435  26.804  27.030   6.455
10633POPC   C2B64436  26.738  27.021   6.755
10633POPC   C3B64437  26.752  27.025   7.055
10633POPC   C4B64438  26.747  27.046   7.355
10634POPC   NC364439   2.767   4.366   5.555
10634POPC   PO464440   2.760   4.335   5.855
10634POPC   GL164441   2.775   4.292   6.155
10634POPC   GL264442   2.918   4.341   6.155
10634POPC   C1A64443   2.736   4.312   6.455
10634POPC   D2A64444   2.806   4.355   6.755
10634POPC   C3A64445   2.724   4.355   7.055
10634POPC   C4A64446   2.768   4.340   7.355
10634POPC   C1B64447   3.000   4.255   6.455
10634POPC   C2B64448   3.059   4.335   6.755
10634POPC   C3B64449   3.050   4.252   7.055
10634POPC   C4B64450   3.026   4.270   7.355
10635POPC   NC364451   1.979  15.983   5.555
10635POPC   PO464452   2.035  15.911   5.855
10635POPC   GL164453   2.010  15.995   6.155
10635POPC   GL264454   1.984  16.094   6.155
10635POPC   C1A64455   1.990  15.913   6.455
10635POPC   D2A64456   1.961  15.928   6.755
10635POPC   C3A64457   2.029  16.004   7.055
10635POPC   C4A64458   2.031  15.956   7.355
10635POPC   C1B64459   1.964  16.153   6.455
10635POPC   C2B64460   1.955  16.160   6.755
10635POPC   C3B64461   1.905  16.184   7.055
10635POPC   C4B64462   1.915  16.154   7.355
10636POPC   NC364463  12.060  16.733   5.555
10636POPC   PO464464  12.110  16.780   5.855
10636POPC   GL164465  12.060  16.694   6.155
10636POPC   GL264466  12.110  16.889   6.155
10636POPC   C1A64467  12.095  16.722   6.455
10636POPC   D2A64468  12.044  16.693   6.755
10636POPC   C3A64469  12.108  16.723   7.055
10636POPC   C4A64470  12.038  16.707   7.355
10636POPC   C1B64471  12.080  17.020   6.455
10636POPC   C2B64472  12.113  17.022   6.755
10636POPC   C3B64473  12.142  16.971   7.055
10636POPC   C4B64474  12.108  17.000   7.355
10637POPC   NC364475  43.862  39.280   5.555
10637POPC   PO464476  43.867  39.204   5.855
10637POPC   GL164477  43.925  39.270   6.155
10637POPC   GL264478  43.915  39.375   6.155
10637POPC   C1A64479  43.883  39.250   6.455
10637POPC   D2A64480  43.841  39.274   6.755
10637POPC   C3A64481  43.913  39.196   7.055
10637POPC   C4A64482  43.930  39.280   7.355
10637POPC   C1B64483  43.921  39.460   6.455
10637POPC   C2B64484  43.886  39.442   6.755
10637POPC   C3B64485  43.892  39.497   7.055
10637POPC   C4B64486  43.930  39.516   7.355
10638POPC   NC364487   9.725  12.101   5.555
10638POPC   PO464488   9.762  12.055   5.855
10638POPC   GL164489   9.773  12.120   6.155
10638POPC   GL264490   9.732  11.910   6.155
10638POPC   C1A64491   9.718  12.114   6.455
10638POPC   D2A64492   9.754  12.082   6.755
10638POPC   C3A64493   9.738  12.122   7.055
10638POPC   C4A64494   9.699  12.040   7.355
10638POPC   C1B64495   9.722  11.784   6.455
10638POPC   C2B64496   9.753  11.825   6.755
10638POPC   C3B64497   9.704  11.877   7.055
10638POPC   C4B64498   9.702  11.808   7.355
10639POPC   NC364499  32.205   6.622   5.555
10639POPC   PO464500  32.289   6.604   5.855
10639POPC   GL164501  32.228   6.631   6.155
10639POPC   GL264502  32.254   6.515   6.155
10639POPC   C1A64503  32.246   6.676   6.455
10639POPC   D2A64504  32.261   6.671   6.755
10639POPC   C3A64505  32.262   6.666   7.055
10639POPC   C4A64506  32.198   6.615   7.355
10639POPC   C1B64507  32.177   6.406   6.455
10639POPC   C2B64508  32.200   6.376   6.755
10639POPC   C3B64509  32.177   6.400   7.055
10639POPC   C4B64510  32.216   6.349   7.355
10640POPC   NC364511   5.111  12.121   5.555
10640POPC   PO464512   5.113  12.071   5.855
10640POPC   GL164513   5.102  12.098   6.155
10640POPC   GL264514   5.173  12.132   6.155
10640POPC   C1A64515   5.087  12.053   6.455
10640POPC   D2A64516   5.092  12.062   6.755
10640POPC   C3A64517   5.124  12.082   7.055
10640POPC   C4A64518   5.129  12.100   7.355
10640POPC   C1B64519   5.196  12.286   6.455
10640POPC   C2B64520   5.223  12.228   6.755
10640POPC   C3B64521   5.198  12.230   7.055
10640POPC   C4B64522   5.248  12.228   7.355
10641POPC   NC364523   0.417  39.274   5.555
10641POPC   PO464524   0.417  39.269   5.855
10641POPC   GL164525   0.483  39.268   6.155
10641POPC   GL264526   0.430  39.314   6.155
10641POPC   C1A64527   0.464  39.213   6.455
10641POPC   D2A64528   0.394  39.222   6.755
10641POPC   C3A64529   0.397  39.224   7.055
10641POPC   C4A64530   0.484  39.219   7.355
10641POPC   C1B64531   0.527  39.431   6.455
10641POPC   C2B64532   0.482  39.444   6.755
10641POPC   C3B64533   0.498  39.480   7.055
10641POPC   C4B64534   0.499  39.435   7.355
10642POPC   NC364535   4.285  35.312   5.555
10642POPC   PO464536   4.310  35.313   5.855
10642POPC   GL164537   4.304  35.331   6.155
10642POPC   GL264538   4.388  35.256   6.155
10642POPC   C1A64539   4.301  35.341   6.455
10642POPC   D2A64540   4.298  35.383   6.755
10642POPC   C3A64541   4.316  35.317   7.055
10642POPC   C4A64542   4.359  35.386   7.355
10642POPC   C1B64543   4.522  35.225   6.455
10642POPC   C2B64544   4.535  35.290   6.755
10642POPC   C3B64545   4.533  35.207   7.055
10642POPC   C4B64546   4.539  35.257   7.355
10643POPC   NC364547   1.166  29.924   5.555
10643POPC   PO464548   1.244  29.876   5.855
10643POPC   GL164549   1.251  29.966   6.155
10643POPC   GL264550   1.103  29.961   6.155
10643POPC   C1A64551   1.250  29.952   6.455
10643POPC   D2A64552   1.260  29.937   6.755
10643POPC   C3A64553   1.258  29.935   7.055
10643POPC   C4A64554   1.208  29.912   7.355
10643POPC   C1B64555   1.004  30.071   6.455
10643POPC   C2B64556   1.024  30.051   6.755
10643POPC   C3B64557   1.032  30.028   7.055
10643POPC   C4B64558   1.031  30.123   7.355
10644POPC   NC364559  28.377  25.292   5.555
10644POPC   PO464560  28.333  25.287   5.855
10644POPC   GL164561  28.370  25.252   6.155
10644POPC   GL264562  28.276  25.261   6.155
10644POPC   C1A64563  28.344  25.273   6.455
10644POPC   D2A64564  28.374  25.274   6.755
10644POPC   C3A64565  28.375  25.296   7.055
10644POPC   C4A64566  28.357  25.259   7.355
10644POPC   C1B64567  28.153  25.326   6.455
10644POPC   C2B64568  28.112  25.310   6.755
10644POPC   C3B64569  28.124  25.346   7.055
10644POPC   C4B64570  28.106  25.337   7.355
10645POPC   NC364571  18.263   8.937   5.555
10645POPC   PO464572  18.322   8.933   5.855
10645POPC   GL164573  18.296   8.939   6.155
10645POPC   GL264574  18.197   9.090   6.155
10645POPC   C1A64575  18.244   8.957   6.455
10645POPC   D2A64576  18.290   8.951   6.755
10645POPC   C3A64577  18.316   8.930   7.055
10645POPC   C4A64578  18.304   8.943   7.355
10645POPC   C1B64579  18.041   9.072   6.455
10645POPC   C2B64580  18.042   9.109   6.755
10645POPC   C3B64581  18.112   9.083   7.055
10645POPC   C4B64582  18.109   9.078   7.355
10646POPC   NC364583  15.988   3.554   5.555
10646POPC   PO464584  15.963   3.591   5.855
10646POPC   GL164585  15.915   3.589   6.155
10646POPC   GL264586  16.062   3.593   6.155
10646POPC   C1A64587  15.914   3.519   6.455
10646POPC   D2A64588  15.992   3.546   6.755
10646POPC   C3A64589  15.965   3.548   7.055
10646POPC   C4A64590  15.949   3.569   7.355
10646POPC   C1B64591  16.111   3.693   6.455
10646POPC   C2B64592  16.133   3.750   6.755
10646POPC   C3B64593  16.113   3.705   7.055
10646POPC   C4B64594  16.142   3.765   7.355
10647POPC   NC364595   0.487  26.826   5.555
10647POPC   PO464596   0.390  26.798   5.855
10647POPC   GL164597   0.463  26.854   6.155
10647POPC   GL264598   0.530  26.830   6.155
10647POPC   C1A64599   0.414  26.823   6.455
10647POPC   D2A64600   0.429  26.792   6.755
10647POPC   C3A64601   0.392  26.783   7.055
10647POPC   C4A64602   0.474  26.810   7.355
10647POPC   C1B64603   0.632  26.963   6.455
10647POPC   C2B64604   0.636  26.967   6.755
10647POPC   C3B64605   0.708  26.924   7.055
10647POPC   C4B64606   0.685  26.908   7.355
10648POPC   NC364607   1.229  23.682   5.555
10648POPC   PO464608   1.242  23.702   5.855
10648POPC   GL164609   1.180  23.698   6.155
10648POPC   GL264610   1.288  23.788   6.155
10648POPC   C1A64611   1.166  23.701   6.455
10648POPC   D2A64612   1.174  23.743   6.755
10648POPC   C3A64613   1.188  23.679   7.055
10648POPC   C4A64614   1.228  23.689   7.355
10648POPC   C1B64615   1.328  23.918   6.455
10648POPC   C2B64616   1.302  23.951   6.755
10648POPC   C3B64617   1.333  23.910   7.055
10648POPC   C4B64618   1.347  23.917   7.355
10649POPC   NC364619  26.071  24.472   5.555
10649POPC   PO464620  26.044  24.523   5.855
10649POPC   GL164621  26.003  24.513   6.155
10649POPC   GL264622  25.950  24.422   6.155
10649POPC   C1A64623  26.051  24.457   6.455
10649POPC   D2A64624  26.065  24.445   6.755
10649POPC   C3A64625  26.069  24.483   7.055
10649POPC   C4A64626  26.065  24.530   7.355
10649POPC   C1B64627  25.838  24.340   6.455
10649POPC   C2B64628  25.847  24.248   6.755
10649POPC   C3B64629  25.891  24.276   7.055
10649POPC   C4B64630  25.936  24.321   7.355
10650POPC   NC364631  32.975   4.348   5.555
10650POPC   PO464632  33.063   4.282   5.855
10650POPC   GL164633  33.020   4.315   6.155
10650POPC   GL264634  32.955   4.280   6.155
10650POPC   C1A64635  33.027   4.283   6.455
10650POPC   D2A64636  33.019   4.354   6.755
10650POPC   C3A64637  32.984   4.307   7.055
10650POPC   C4A64638  32.987   4.293   7.355
10650POPC   C1B64639  32.827   4.200   6.455
10650POPC   C2B64640  32.786   4.226   6.755
10650POPC   C3B64641  32.751   4.274   7.055
10650POPC   C4B64642  32.768   4.184   7.355
10651POPC   NC364643  17.459   7.453   5.555
10651POPC   PO464644  17.460   7.448   5.855
10651POPC   GL164645  17.513   7.406   6.155
10651POPC   GL264646  17.541   7.548   6.155
10651POPC   C1A64647  17.537   7.461   6.455
10651POPC   D2A64648  17.554   7.407   6.755
10651POPC   C3A64649  17.519   7.384   7.055
10651POPC   C4A64650  17.477   7.467   7.355
10651POPC   C1B64651  17.582   7.712   6.455
10651POPC   C2B64652  17.554   7.656   6.755
10651POPC   C3B64653  17.557   7.703   7.055
10651POPC   C4B64654  17.582   7.689   7.355
10652POPC   NC364655  35.392  16.766   5.555
10652POPC   PO464656  35.357  16.694   5.855
10652POPC   GL164657  35.402  16.779   6.155
10652POPC   GL264658  35.464  16.721   6.155
10652POPC   C1A64659  35.303  16.717   6.455
10652POPC   D2A64660  35.392  16.774   6.755
10652POPC   C3A64661  35.304  16.683   7.055
10652POPC   C4A64662  35.380  16.734   7.355
10652POPC   C1B64663  35.565  16.669   6.455
10652POPC   C2B64664  35.606  16.631   6.755
10652POPC   C3B64665  35.547  16.670   7.055
10652POPC   C4B64666  35.600  16.664   7.355
10653POPC   NC364667  25.254  20.615   5.555
10653POPC   PO464668  25.302  20.650   5.855
10653POPC   GL164669  25.273  20.603   6.155
10653POPC   GL264670  25.124  20.612   6.155
10653POPC   C1A64671  25.263  20.580   6.455
10653POPC   D2A64672  25.262  20.606   6.755
10653POPC   C3A64673  25.291  20.573   7.055
10653POPC   C4A64674  25.269  20.633   7.355
10653POPC   C1B64675  25.038  20.573   6.455
10653POPC   C2B64676  25.042  20.623   6.755
10653POPC   C3B64677  24.984  20.567   7.055
10653POPC   C4B64678  25.036  20.622   7.355
10654POPC   NC364679   6.691   4.315   5.555
10654POPC   PO464680   6.663   4.296   5.855
10654POPC   GL164681   6.680   4.296   6.155
10654POPC   GL264682   6.586   4.411   6.155
10654POPC   C1A64683   6.681   4.324   6.455
10654POPC   D2A64684   6.609   4.317   6.755
10654POPC   C3A64685   6.659   4.320   7.055
10654POPC   C4A64686   6.678   4.332   7.355
10654POPC   C1B64687   6.488   4.493   6.455
10654POPC   C2B64688   6.498   4.542   6.755
10654POPC   C3B64689   6.459   4.484   7.055
10654POPC   C4B64690   6.448   4.528   7.355
10655POPC   NC364691  39.270   4.366   5.555
10655POPC   PO464692  39.185   4.318   5.855
10655POPC   GL164693  39.196   4.326   6.155
10655POPC   GL264694  39.231   4.481   6.155
10655POPC   C1A64695  39.241   4.356   6.455
10655POPC   D2A64696  39.276   4.290   6.755
10655POPC   C3A64697  39.250   4.283   7.055
10655POPC   C4A64698  39.194   4.293   7.355
10655POPC   C1B64699  39.316   4.525   6.455
10655POPC   C2B64700  39.294   4.541   6.755
10655POPC   C3B64701  39.329   4.526   7.055
10655POPC   C4B64702  39.266   4.510   7.355
10656POPC   NC364703  41.559  39.232   5.555
10656POPC   PO464704  41.571  39.280   5.855
10656POPC   GL164705  41.577  39.215   6.155
10656POPC   GL264706  41.410  39.132   6.155
10656POPC   C1A64707  41.537  39.275   6.455
10656POPC   D2A64708  41.556  39.250   6.755
10656POPC   C3A64709  41.604  39.250   7.055
10656POPC   C4A64710  41.550  39.256   7.355
10656POPC   C1B64711  41.372  39.122   6.455
10656POPC   C2B64712  41.380  39.112   6.755
10656POPC   C3B64713  41.337  39.107   7.055
10656POPC   C4B64714  41.352  39.129   7.355
10657POPC   NC364715  22.203  32.990   5.555
10657POPC   PO464716  22.123  32.990   5.855
10657POPC   GL164717  22.186  33.021   6.155
10657POPC   GL264718  22.181  33.135   6.155
10657POPC   C1A64719  22.167  33.021   6.455
10657POPC   D2A64720  22.132  33.040   6.755
10657POPC   C3A64721  22.163  32.986   7.055
10657POPC   C4A64722  22.163  32.997   7.355
10657POPC   C1B64723  22.255  33.263   6.455
10657POPC   C2B64724  22.286  33.233   6.755
10657POPC   C3B64725  22.241  33.304   7.055
10657POPC   C4B64726  22.213  33.271   7.355
10658POPC   NC364727  23.721  30.746   5.555
10658POPC   PO464728  23.675  30.666   5.855
10658POPC   GL164729  23.736  30.671   6.155
10658POPC   GL264730  23.773  30.759   6.155
10658POPC   C1A64731  23.753  30.660   6.455
10658POPC   D2A64732  23.679  30.704   6.755
10658POPC   C3A64733  23.757  30.732   7.055
10658POPC   C4A64734  23.685  30.648   7.355
10658POPC   C1B64735  23.917  30.860   6.455
10658POPC   C2B64736  23.845  30.924   6.755
10658POPC   C3B64737  23.830  30.909   7.055
10658POPC   C4B64738  23.829  30.886   7.355
10659POPC   NC364739  13.634   0.434   5.555
10659POPC   PO464740  13.654   0.442   5.855
10659POPC   GL164741  13.643   0.472   6.155
10659POPC   GL264742  13.558   0.397   6.155
10659POPC   C1A64743  13.627   0.430   6.455
10659POPC   D2A64744  13.637   0.415   6.755
10659POPC   C3A64745  13.578   0.400   7.055
10659POPC   C4A64746  13.660   0.476   7.355
10659POPC   C1B64747  13.372   0.347   6.455
10659POPC   C2B64748  13.360   0.278   6.755
10659POPC   C3B64749  13.393   0.353   7.055
10659POPC   C4B64750  13.417   0.333   7.355
10660POPC   NC364751  25.248  44.614   5.555
10660POPC   PO464752  25.231  44.623   5.855
10660POPC   GL164753  25.296  44.688   6.155
10660POPC   GL264754  25.225  44.546   6.155
10660POPC   C1A64755  25.237  44.697   6.455
10660POPC   D2A64756  25.240  44.703   6.755
10660POPC   C3A64757  25.300  44.616   7.055
10660POPC   C4A64758  25.274  44.618   7.355
10660POPC   C1B64759  25.173  44.478   6.455
10660POPC   C2B64760  25.131  44.482   6.755
10660POPC   C3B64761  25.163  44.471   7.055
10660POPC   C4B64762  25.194  44.454   7.355
10661POPC   NC364763  13.612  44.698   5.555
10661POPC   PO464764  13.645  44.695   5.855
10661POPC   GL164765  13.642  44.697   6.155
10661POPC   GL264766  13.799  44.680   6.155
10661POPC   C1A64767  13.668  44.637   6.455
10661POPC   D2A64768  13.592  44.683   6.755
10661POPC   C3A64769  13.658  44.659   7.055
10661POPC   C4A64770  13.649  44.676   7.355
10661POPC   C1B64771  13.918  44.650   6.455
10661POPC   C2B64772  13.920  44.644   6.755
10661POPC   C3B64773  13.827  44.660   7.055
10661POPC   C4B64774  13.847  44.604   7.355
10662POPC   NC364775   9.730  35.336   5.555
10662POPC   PO464776   9.764  35.372   5.855
10662POPC   GL164777   9.783  35.323   6.155
10662POPC   GL264778   9.826  35.338   6.155
10662POPC   C1A64779   9.764  35.309   6.455
10662POPC   D2A64780   9.716  35.350   6.755
10662POPC   C3A64781   9.759  35.385   7.055
10662POPC   C4A64782   9.718  35.357   7.355
10662POPC   C1B64783   9.951  35.257   6.455
10662POPC   C2B64784  10.026  35.294   6.755
10662POPC   C3B64785  10.014  35.250   7.055
10662POPC   C4B64786   9.965  35.304   7.355
10663POPC   NC364787  42.365  26.073   5.555
10663POPC   PO464788  42.340  26.029   5.855
10663POPC   GL164789  42.383  26.070   6.155
10663POPC   GL264790  42.438  26.149   6.155
10663POPC   C1A64791  42.355  25.996   6.455
10663POPC   D2A64792  42.339  26.040   6.755
10663POPC   C3A64793  42.370  26.056   7.055
10663POPC   C4A64794  42.360  26.030   7.355
10663POPC   C1B64795  42.536  26.252   6.455
10663POPC   C2B64796  42.498  26.229   6.755
10663POPC   C3B64797  42.489  26.262   7.055
10663POPC   C4B64798  42.487  26.281   7.355
10664POPC   NC364799  24.517  35.350   5.555
10664POPC   PO464800  24.453  35.376   5.855
10664POPC   GL164801  24.468  35.351   6.155
10664POPC   GL264802  24.420  35.378   6.155
10664POPC   C1A64803  24.508  35.321   6.455
10664POPC   D2A64804  24.505  35.337   6.755
10664POPC   C3A64805  24.456  35.336   7.055
10664POPC   C4A64806  24.530  35.379   7.355
10664POPC   C1B64807  24.283  35.493   6.455
10664POPC   C2B64808  24.247  35.428   6.755
10664POPC   C3B64809  24.286  35.447   7.055
10664POPC   C4B64810  24.245  35.437   7.355
10665POPC   NC364811  15.132  40.734   5.555
10665POPC   PO464812  15.201  40.778   5.855
10665POPC   GL164813  15.143  40.763   6.155
10665POPC   GL264814  15.158  40.670   6.155
10665POPC   C1A64815  15.167  40.823   6.455
10665POPC   D2A64816  15.209  40.756   6.755
10665POPC   C3A64817  15.157  40.829   7.055
10665POPC   C4A64818  15.166  40.772   7.355
10665POPC   C1B64819  15.242  40.521   6.455
10665POPC   C2B64820  15.164  40.529   6.755
10665POPC   C3B64821  15.153  40.555   7.055
10665POPC   C4B64822  15.179  40.545   7.355
10666POPC   NC364823  37.651  12.030   5.555
10666POPC   PO464824  37.696  12.051   5.855
10666POPC   GL164825  37.658  12.103   6.155
10666POPC   GL264826  37.650  11.975   6.155
10666POPC   C1A64827  37.656  12.109   6.455
10666POPC   D2A64828  37.632  12.089   6.755
10666POPC   C3A64829  37.639  12.027   7.055
10666POPC   C4A64830  37.696  12.102   7.355
10666POPC   C1B64831  37.598  11.835   6.455
10666POPC   C2B64832  37.595  11.843   6.755
10666POPC   C3B64833  37.587  11.836   7.055
10666POPC   C4B64834  37.638  11.793   7.355
10667POPC   NC364835  33.823  19.106   5.555
10667POPC   PO464836  33.828  19.049   5.855
10667POPC   GL164837  33.766  19.067   6.155
10667POPC   GL264838  33.957  19.103   6.155
10667POPC   C1A64839  33.803  19.099   6.455
10667POPC   D2A64840  33.837  19.051   6.755
10667POPC   C3A64841  33.818  19.036   7.055
10667POPC   C4A64842  33.823  19.040   7.355
10667POPC   C1B64843  34.072  19.045   6.455
10667POPC   C2B64844  34.095  19.102   6.755
10667POPC   C3B64845  34.033  19.077   7.055
10667POPC   C4B64846  34.098  19.100   7.355
10668POPC   NC364847  15.985   5.110   5.555
10668POPC   PO464848  15.943   5.078   5.855
10668POPC   GL164849  15.925   5.089   6.155
10668POPC   GL264850  15.854   5.034   6.155
10668POPC   C1A64851  15.997   5.134   6.455
10668POPC   D2A64852  15.967   5.130   6.755
10668POPC   C3A64853  15.950   5.097   7.055
10668POPC   C4A64854  15.966   5.076   7.355
10668POPC   C1B64855  15.825   4.943   6.455
10668POPC   C2B64856  15.764   4.923   6.755
10668POPC   C3B64857  15.803   4.946   7.055
10668POPC   C4B64858  15.850   4.895   7.355
10669POPC   NC364859   8.198  26.034   5.555
10669POPC   PO464860   8.147  26.020   5.855
10669POPC   GL164861   8.246  26.062   6.155
10669POPC   GL264862   8.163  26.198   6.155
10669POPC   C1A64863   8.202  26.016   6.455
10669POPC   D2A64864   8.243  26.007   6.755
10669POPC   C3A64865   8.235  26.008   7.055
10669POPC   C4A64866   8.211  26.057   7.355
10669POPC   C1B64867   8.192  26.241   6.455
10669POPC   C2B64868   8.226  26.294   6.755
10669POPC   C3B64869   8.254  26.277   7.055
10669POPC   C4B64870   8.183  26.285   7.355
10670POPC   NC364871  31.466  33.003   5.555
10670POPC   PO464872  31.430  33.033   5.855
10670POPC   GL164873  31.454  33.017   6.155
10670POPC   GL264874  31.579  33.105   6.155
10670POPC   C1A64875  31.475  33.044   6.455
10670POPC   D2A64876  31.517  33.010   6.755
10670POPC   C3A64877  31.470  33.036   7.055
10670POPC   C4A64878  31.477  33.033   7.355
10670POPC   C1B64879  31.649  33.173   6.455
10670POPC   C2B64880  31.709  33.169   6.755
10670POPC   C3B64881  31.658  33.163   7.055
10670POPC   C4B64882  31.616  33.220   7.355
10671POPC   NC364883  23.733  43.152   5.555
10671POPC   PO464884  23.722  43.149   5.855
10671POPC   GL164885  23.695  43.089   6.155
10671POPC   GL264886  23.572  43.094   6.155
10671POPC   C1A64887  23.703  43.133   6.455
10671POPC   D2A64888  23.697  43.074   6.755
10671POPC   C3A64889  23.757  43.094   7.055
10671POPC   C4A64890  23.763  43.084   7.355
10671POPC   C1B64891  23.424  43.195   6.455
10671POPC   C2B64892  23.498  43.171   6.755
10671POPC   C3B64893  23.447  43.131   7.055
10671POPC   C4B64894  23.455  43.114   7.355
10672POPC   NC364895  44.644  12.059   5.555
10672POPC   PO464896  44.653  12.059   5.855
10672POPC   GL164897  44.688  12.116   6.155
10672POPC   GL264898  44.671  11.934   6.155
10672POPC   C1A64899  44.667  12.121   6.455
10672POPC   D2A64900  44.642  12.088   6.755
10672POPC   C3A64901  44.710  12.124   7.055
10672POPC   C4A64902  44.706  12.040   7.355
10672POPC   C1B64903  44.738  11.889   6.455
10672POPC   C2B64904  44.727  11.886   6.755
10672POPC   C3B64905  44.724  11.803   7.055
10672POPC   C4B64906  44.762  11.886   7.355
10673POPC   NC364907  19.797  24.492   5.555
10673POPC   PO464908  19.789  24.440   5.855
10673POPC   GL164909  19.843  24.446   6.155
10673POPC   GL264910  19.959  24.441   6.155
10673POPC   C1A64911  19.817  24.461   6.455
10673POPC   D2A64912  19.849  24.514   6.755
10673POPC   C3A64913  19.883  24.487   7.055
10673POPC   C4A64914  19.819  24.458   7.355
10673POPC   C1B64915  19.968  24.326   6.455
10673POPC   C2B64916  19.989  24.343   6.755
10673POPC   C3B64917  20.038  24.329   7.055
10673POPC   C4B64918  20.030  24.321   7.355
10674POPC   NC364919  27.587  21.344   5.555
10674POPC   PO464920  27.583  21.421   5.855
10674POPC   GL164921  27.567  21.349   6.155
10674POPC   GL264922  27.515  21.318   6.155
10674POPC   C1A64923  27.618  21.365   6.455
10674POPC   D2A64924  27.641  21.413   6.755
10674POPC   C3A64925  27.603  21.422   7.055
10674POPC   C4A64926  27.579  21.403   7.355
10674POPC   C1B64927  27.377  21.234   6.455
10674POPC   C2B64928  27.393  21.289   6.755
10674POPC   C3B64929  27.357  21.248   7.055
10674POPC   C4B64930  27.391  21.289   7.355
10675POPC   NC364931  30.713  35.377   5.555
10675POPC   PO464932  30.707  35.317   5.855
10675POPC   GL164933  30.711  35.305   6.155
10675POPC   GL264934  30.547  35.426   6.155
10675POPC   C1A64935  30.663  35.353   6.455
10675POPC   D2A64936  30.735  35.309   6.755
10675POPC   C3A64937  30.729  35.305   7.055
10675POPC   C4A64938  30.714  35.379   7.355
10675POPC   C1B64939  30.438  35.465   6.455
10675POPC   C2B64940  30.482  35.379   6.755
10675POPC   C3B64941  30.418  35.433   7.055
10675POPC   C4B64942  30.418  35.415   7.355
10676POPC   NC364943  23.755   1.232   5.555
10676POPC   PO464944  23.739   1.211   5.855
10676POPC   GL164945  23.692   1.225   6.155
10676POPC   GL264946  23.546   1.160   6.155
10676POPC   C1A64947  23.732   1.241   6.455
10676POPC   D2A64948  23.692   1.174   6.755
10676POPC   C3A64949  23.715   1.181   7.055
10676POPC   C4A64950  23.749   1.242   7.355
10676POPC   C1B64951  23.436   1.174   6.455
10676POPC   C2B64952  23.472   1.138   6.755
10676POPC   C3B64953  23.455   1.172   7.055
10676POPC   C4B64954  23.448   1.105   7.355
10677POPC   NC364955   1.991  28.410   5.555
10677POPC   PO464956   1.986  28.350   5.855
10677POPC   GL164957   1.972  28.372   6.155
10677POPC   GL264958   1.839  28.350   6.155
10677POPC   C1A64959   2.025  28.345   6.455
10677POPC   D2A64960   2.026  28.348   6.755
10677POPC   C3A64961   1.952  28.349   7.055
10677POPC   C4A64962   1.972  28.406   7.355
10677POPC   C1B64963   1.717  28.410   6.455
10677POPC   C2B64964   1.707  28.372   6.755
10677POPC   C3B64965   1.766  28.411   7.055
10677POPC   C4B64966   1.787  28.370   7.355
10678POPC   NC364967  19.844  34.618   5.555
10678POPC   PO464968  19.785  34.533   5.855
10678POPC   GL164969  19.806  34.538   6.155
10678POPC   GL264970  20.001  34.562   6.155
10678POPC   C1A64971  19.869  34.583   6.455
10678POPC   D2A64972  19.794  34.612   6.755
10678POPC   C3A64973  19.788  34.596   7.055
10678POPC   C4A64974  19.872  34.546   7.355
10678POPC   C1B64975  20.102  34.480   6.455
10678POPC   C2B64976  20.077  34.514   6.755
10678POPC   C3B64977  20.029  34.523   7.055
10678POPC   C4B64978  20.077  34.548   7.355
10679POPC   NC364979  22.149  19.056   5.555
10679POPC   PO464980  22.204  19.087   5.855
10679POPC   GL164981  22.129  19.100   6.155
10679POPC   GL264982  22.131  19.159   6.155
10679POPC   C1A64983  22.120  19.059   6.455
10679POPC   D2A64984  22.195  19.039   6.755
10679POPC   C3A64985  22.117  19.103   7.055
10679POPC   C4A64986  22.154  19.060   7.355
10679POPC   C1B64987  22.045  19.261   6.455
10679POPC   C2B64988  22.066  19.223   6.755
10679POPC   C3B64989  21.982  19.224   7.055
10679POPC   C4B64990  22.033  19.250   7.355
10680POPC   NC364991  15.138  34.527   5.555
10680POPC   PO464992  15.177  34.604   5.855
10680POPC   GL164993  15.135  34.553   6.155
10680POPC   GL264994  15.142  34.727   6.155
10680POPC   C1A64995  15.152  34.587   6.455
10680POPC   D2A64996  15.196  34.591   6.755
10680POPC   C3A64997  15.195  34.618   7.055
10680POPC   C4A64998  15.207  34.611   7.355
10680POPC   C1B64999  15.024  34.762   6.455
10680POPC   C2B65000  15.036  34.762   6.755
10680POPC   C3B65001  15.102  34.776   7.055
10680POPC   C4B65002  15.028  34.844   7.355
10681POPC   NC365003  43.108  10.549   5.555
10681POPC   PO465004  43.062  10.483   5.855
10681POPC   GL165005  43.093  10.573   6.155
10681POPC   GL265006  43.054  10.676   6.155
10681POPC   C1A65007  43.084  10.507   6.455
10681POPC   D2A65008  43.147  10.509   6.755
10681POPC   C3A65009  43.132  10.549   7.055
10681POPC   C4A65010  43.130  10.522   7.355
10681POPC   C1B65011  43.057  10.719   6.455
10681POPC   C2B65012  43.019  10.747   6.755
10681POPC   C3B65013  43.095  10.755   7.055
10681POPC   C4B65014  43.082  10.789   7.355
10682POPC   NC365015   0.423  33.773   5.555
10682POPC   PO465016   0.439  33.770   5.855
10682POPC   GL165017   0.479  33.770   6.155
10682POPC   GL265018   0.468  33.936   6.155
10682POPC   C1A65019   0.402  33.777   6.455
10682POPC   D2A65020   0.430  33.751   6.755
10682POPC   C3A65021   0.417  33.833   7.055
10682POPC   C4A65022   0.481  33.805   7.355
10682POPC   C1B65023   0.597  33.958   6.455
10682POPC   C2B65024   0.531  34.007   6.755
10682POPC   C3B65025   0.535  33.982   7.055
10682POPC   C4B65026   0.568  33.986   7.355
10683POPC   NC365027  26.010  27.621   5.555
10683POPC   PO465028  25.994  27.604   5.855
10683POPC   GL165029  26.075  27.637   6.155
10683POPC   GL265030  25.874  27.519   6.155
10683POPC   C1A65031  26.031  27.598   6.455
10683POPC   D2A65032  25.997  27.624   6.755
10683POPC   C3A65033  26.063  27.629   7.055
10683POPC   C4A65034  26.031  27.631   7.355
10683POPC   C1B65035  25.806  27.552   6.455
10683POPC   C2B65036  25.802  27.566   6.755
10683POPC   C3B65037  25.817  27.502   7.055
10683POPC   C4B65038  25.845  27.588   7.355
10684POPC   NC365039  26.073   5.851   5.555
10684POPC   PO465040  26.066   5.911   5.855
10684POPC   GL165041  26.041   5.851   6.155
10684POPC   GL265042  26.132   5.745   6.155
10684POPC   C1A65043  26.058   5.850   6.455
10684POPC   D2A65044  26.057   5.903   6.755
10684POPC   C3A65045  26.074   5.909   7.055
10684POPC   C4A65046  26.042   5.825   7.355
10684POPC   C1B65047  26.152   5.627   6.455
10684POPC   C2B65048  26.140   5.589   6.755
10684POPC   C3B65049  26.164   5.664   7.055
10684POPC   C4B65050  26.130   5.637   7.355
10685POPC   NC365051  39.242  26.791   5.555
10685POPC   PO465052  39.279  26.843   5.855
10685POPC   GL165053  39.258  26.826   6.155
10685POPC   GL265054  39.399  26.799   6.155
10685POPC   C1A65055  39.200  26.774   6.455
10685POPC   D2A65056  39.239  26.786   6.755
10685POPC   C3A65057  39.249  26.770   7.055
10685POPC   C4A65058  39.205  26.808   7.355
10685POPC   C1B65059  39.488  26.920   6.455
10685POPC   C2B65060  39.498  26.852   6.755
10685POPC   C3B65061  39.494  26.902   7.055
10685POPC   C4B65062  39.469  26.872   7.355
10686POPC   NC365063   9.708   7.385   5.555
10686POPC   PO465064   9.750   7.444   5.855
10686POPC   GL165065   9.779   7.380   6.155
10686POPC   GL265066   9.878   7.376   6.155
10686POPC   C1A65067   9.736   7.408   6.455
10686POPC   D2A65068   9.761   7.458   6.755
10686POPC   C3A65069   9.779   7.383   7.055
10686POPC   C4A65070   9.732   7.457   7.355
10686POPC   C1B65071  10.021   7.352   6.455
10686POPC   C2B65072   9.994   7.378   6.755
10686POPC   C3B65073  10.036   7.362   7.055
10686POPC   C4B65074   9.991   7.330   7.355
10687POPC   NC365075  29.105  22.942   5.555
10687POPC   PO465076  29.104  22.918   5.855
10687POPC   GL165077  29.099  22.934   6.155
10687POPC   GL265078  29.029  23.003   6.155
10687POPC   C1A65079  29.187  22.984   6.455
10687POPC   D2A65080  29.184  22.938   6.755
10687POPC   C3A65081  29.172  22.894   7.055
10687POPC   C4A65082  29.100  22.900   7.355
10687POPC   C1B65083  28.882  23.046   6.455
10687POPC   C2B65084  28.939  23.074   6.755
10687POPC   C3B65085  28.967  23.052   7.055
10687POPC   C4B65086  28.975  23.102   7.355
10688POPC   NC365087  28.395  21.341   5.555
10688POPC   PO465088  28.320  21.359   5.855
10688POPC   GL165089  28.396  21.390   6.155
10688POPC   GL265090  28.452  21.269   6.155
10688POPC   C1A65091  28.388  21.347   6.455
10688POPC   D2A65092  28.353  21.404   6.755
10688POPC   C3A65093  28.353  21.404   7.055
10688POPC   C4A65094  28.363  21.409   7.355
10688POPC   C1B65095  28.531  21.221   6.455
10688POPC   C2B65096  28.492  21.207   6.755
10688POPC   C3B65097  28.510  21.132   7.055
10688POPC   C4B65098  28.536  21.172   7.355
10689POPC   NC365099   5.841  12.855   5.555
10689POPC   PO465100   5.857  12.869   5.855
10689POPC   GL165101   5.912  12.869   6.155
10689POPC   GL265102   5.747  12.823   6.155
10689POPC   C1A65103   5.875  12.828   6.455
10689POPC   D2A65104   5.876  12.838   6.755
10689POPC   C3A65105   5.875  12.812   7.055
10689POPC   C4A65106   5.872  12.876   7.355
10689POPC   C1B65107   5.633  12.727   6.455
10689POPC   C2B65108   5.678  12.688   6.755
10689POPC   C3B65109   5.693  12.694   7.055
10689POPC   C4B65110   5.657  12.694   7.355
10690POPC   NC365111  29.112  29.190   5.555
10690POPC   PO465112  29.159  29.149   5.855
10690POPC   GL165113  29.170  29.118   6.155
10690POPC   GL265114  29.244  29.057   6.155
10690POPC   C1A65115  29.105  29.177   6.455
10690POPC   D2A65116  29.107  29.139   6.755
10690POPC   C3A65117  29.134  29.099   7.055
10690POPC   C4A65118  29.127  29.159   7.355
10690POPC   C1B65119  29.307  28.975   6.455
10690POPC   C2B65120  29.367  28.928   6.755
10690POPC   C3B65121  29.276  28.998   7.055
10690POPC   C4B65122  29.274  28.920   7.355
10691POPC   NC365123  22.923  22.124   5.555
10691POPC   PO465124  22.934  22.135   5.855
10691POPC   GL165125  22.916  22.187   6.155
10691POPC   GL265126  22.791  22.188   6.155
10691POPC   C1A65127  22.922  22.175   6.455
10691POPC   D2A65128  22.975  22.120   6.755
10691POPC   C3A65129  22.928  22.153   7.055
10691POPC   C4A65130  22.950  22.135   7.355
10691POPC   C1B65131  22.676  22.163   6.455
10691POPC   C2B65132  22.653  22.161   6.755
10691POPC   C3B65133  22.731  22.093   7.055
10691POPC   C4B65134  22.665  22.097   7.355
10692POPC   NC365135   7.468  36.097   5.555
10692POPC   PO465136   7.398  36.101   5.855
10692POPC   GL165137   7.460  36.140   6.155
10692POPC   GL265138   7.523  36.053   6.155
10692POPC   C1A65139   7.412  36.102   6.455
10692POPC   D2A65140   7.376  36.152   6.755
10692POPC   C3A65141   7.380  36.162   7.055
10692POPC   C4A65142   7.377  36.136   7.355
10692POPC   C1B65143   7.535  35.875   6.455
10692POPC   C2B65144   7.585  35.889   6.755
10692POPC   C3B65145   7.491  35.936   7.055
10692POPC   C4B65146   7.549  35.858   7.355
10693POPC   NC365147  32.291   2.005   5.555
10693POPC   PO465148  32.245   1.949   5.855
10693POPC   GL165149  32.291   1.944   6.155
10693POPC   GL265150  32.258   2.125   6.155
10693POPC   C1A65151  32.264   1.976   6.455
10693POPC   D2A65152  32.255   2.028   6.755
10693POPC   C3A65153  32.241   2.022   7.055
10693POPC   C4A65154  32.295   1.986   7.355
10693POPC   C1B65155  32.218   2.259   6.455
10693POPC   C2B65156  32.153   2.201   6.755
10693POPC   C3B65157  32.208   2.190   7.055
10693POPC   C4B65158  32.179   2.189   7.355
10694POPC   NC365159  33.847   5.854   5.555
10694POPC   PO465160  33.848   5.902   5.855
10694POPC   GL165161  33.841   5.838   6.155
10694POPC   GL265162  33.858   5.819   6.155
10694POPC   C1A65163  33.830   5.911   6.455
10694POPC   D2A65164  33.834   5.866   6.755
10694POPC   C3A65165  33.805   5.901   7.055
10694POPC   C4A65166  33.759   5.912   7.355
10694POPC   C1B65167  33.948   5.707   6.455
10694POPC   C2B65168  33.947   5.659   6.755
10694POPC   C3B65169  33.959   5.675   7.055
10694POPC   C4B65170  33.952   5.685   7.355
10695POPC   NC365171  11.340  19.838   5.555
10695POPC   PO465172  11.274  19.835   5.855
10695POPC   GL165173  11.346  19.825   6.155
10695POPC   GL265174  11.463  19.878   6.155
10695POPC   C1A65175  11.345  19.825   6.455
10695POPC   D2A65176  11.304  19.850   6.755
10695POPC   C3A65177  11.276  19.793   7.055
10695POPC   C4A65178  11.325  19.840   7.355
10695POPC   C1B65179  11.574  19.901   6.455
10695POPC   C2B65180  11.538  19.913   6.755
10695POPC   C3B65181  11.579  19.931   7.055
10695POPC   C4B65182  11.513  19.923   7.355
10696POPC   NC365183  17.548  15.996   5.555
10696POPC   PO465184  17.551  15.920   5.855
10696POPC   GL165185  17.547  16.000   6.155
10696POPC   GL265186  17.366  15.972   6.155
10696POPC   C1A65187  17.533  15.922   6.455
10696POPC   D2A65188  17.501  15.919   6.755
10696POPC   C3A65189  17.533  15.914   7.055
10696POPC   C4A65190  17.490  15.979   7.355
10696POPC   C1B65191  17.287  15.974   6.455
10696POPC   C2B65192  17.301  15.968   6.755
10696POPC   C3B65193  17.265  15.935   7.055
10696POPC   C4B65194  17.228  15.990   7.355
10697POPC   NC365195   4.359   1.252   5.555
10697POPC   PO465196   4.303   1.244   5.855
10697POPC   GL165197   4.282   1.224   6.155
10697POPC   GL265198   4.441   1.134   6.155
10697POPC   C1A65199   4.307   1.170   6.455
10697POPC   D2A65200   4.359   1.230   6.755
10697POPC   C3A65201   4.364   1.188   7.055
10697POPC   C4A65202   4.363   1.170   7.355
10697POPC   C1B65203   4.532   1.080   6.455
10697POPC   C2B65204   4.534   1.048   6.755
10697POPC   C3B65205   4.523   1.082   7.055
10697POPC   C4B65206   4.490   1.036   7.355
10698POPC   NC365207  11.289  15.940   5.555
10698POPC   PO465208  11.296  15.934   5.855
10698POPC   GL165209  11.298  15.929   6.155
10698POPC   GL265210  11.199  15.984   6.155
10698POPC   C1A65211  11.293  15.911   6.455
10698POPC   D2A65212  11.258  15.934   6.755
10698POPC   C3A65213  11.329  15.944   7.055
10698POPC   C4A65214  11.315  15.914   7.355
10698POPC   C1B65215  11.135  16.139   6.455
10698POPC   C2B65216  11.084  16.065   6.755
10698POPC   C3B65217  11.078  16.120   7.055
10698POPC   C4B65218  11.135  16.088   7.355
10699POPC   NC365219  34.611  20.627   5.555
10699POPC   PO465220  34.563  20.593   5.855
10699POPC   GL165221  34.541  20.640   6.155
10699POPC   GL265222  34.680  20.492   6.155
10699POPC   C1A65223  34.585  20.640   6.455
10699POPC   D2A65224  34.568  20.641   6.755
10699POPC   C3A65225  34.555  20.612   7.055
10699POPC   C4A65226  34.577  20.592   7.355
10699POPC   C1B65227  34.759  20.490   6.455
10699POPC   C2B65228  34.809  20.425   6.755
10699POPC   C3B65229  34.765  20.449   7.055
10699POPC   C4B65230  34.766  20.462   7.355
10700POPC   NC365231  21.341  11.294   5.555
10700POPC   PO465232  21.365  11.298   5.855
10700POPC   GL165233  21.395  11.273   6.155
10700POPC   GL265234  21.288  11.221   6.155
10700POPC   C1A65235  21.348  11.270   6.455
10700POPC   D2A65236  21.343  11.278   6.755
10700POPC   C3A65237  21.344  11.341   7.055
10700POPC   C4A65238  21.400  11.271   7.355
10700POPC   C1B65239  21.185  11.150   6.455
10700POPC   C2B65240  21.222  11.156   6.755
10700POPC   C3B65241  21.179  11.196   7.055
10700POPC   C4B65242  21.208  11.120   7.355
10701POPC   NC365243   9.730  13.673   5.555
10701POPC   PO465244   9.784  13.630   5.855
10701POPC   GL165245   9.763  13.631   6.155
10701POPC   GL265246   9.798  13.545   6.155
10701POPC   C1A65247   9.705  13.598   6.455
10701POPC   D2A65248   9.754  13.585   6.755
10701POPC   C3A65249   9.750  13.659   7.055
10701POPC   C4A65250   9.777  13.603   7.355
10701POPC   C1B65251   9.968  13.423   6.455
10701POPC   C2B65252   9.894  13.448   6.755
10701POPC   C3B65253   9.973  13.428   7.055
10701POPC   C4B65254   9.898  13.441   7.355
10702POPC   NC365255  11.285   5.049   5.555
10702POPC   PO465256  11.269   5.052   5.855
10702POPC   GL165257  11.344   5.098   6.155
10702POPC   GL265258  11.385   5.098   6.155
10702POPC   C1A65259  11.263   5.070   6.455
10702POPC   D2A65260  11.331   5.122   6.755
10702POPC   C3A65261  11.300   5.083   7.055
10702POPC   C4A65262  11.315   5.124   7.355
10702POPC   C1B65263  11.546   5.132   6.455
10702POPC   C2B65264  11.536   5.064   6.755
10702POPC   C3B65265  11.560   5.057   7.055
10702POPC   C4B65266  11.566   5.131   7.355
10703POPC   NC365267  10.488  26.016   5.555
10703POPC   PO465268  10.524  26.076   5.855
10703POPC   GL165269  10.484  26.048   6.155
10703POPC   GL265270  10.531  26.177   6.155
10703POPC   C1A65271  10.519  26.049   6.455
10703POPC   D2A65272  10.493  26.035   6.755
10703POPC   C3A65273  10.537  26.090   7.055
10703POPC   C4A65274  10.527  26.091   7.355
10703POPC   C1B65275  10.613  26.253   6.455
10703POPC   C2B65276  10.582  26.299   6.755
10703POPC   C3B65277  10.579  26.289   7.055
10703POPC   C4B65278  10.624  26.236   7.355
10704POPC   NC365279   3.576  29.936   5.555
10704POPC   PO465280   3.574  29.884   5.855
10704POPC   GL165281   3.588  29.925   6.155
10704POPC   GL265282   3.512  30.044   6.155
10704POPC   C1A65283   3.555  29.967   6.455
10704POPC   D2A65284   3.521  29.933   6.755
10704POPC   C3A65285   3.573  29.968   7.055
10704POPC   C4A65286   3.506  29.943   7.355
10704POPC   C1B65287   3.459  30.186   6.455
10704POPC   C2B65288   3.424  30.156   6.755
10704POPC   C3B65289   3.453  30.181   7.055
10704POPC   C4B65290   3.471  30.162   7.355
10705POPC   NC365291  30.698  30.668   5.555
10705POPC   PO465292  30.735  30.693   5.855
10705POPC   GL165293  30.735  30.696   6.155
10705POPC   GL265294  30.714  30.817   6.155
10705POPC   C1A65295  30.670  30.683   6.455
10705POPC   D2A65296  30.663  30.686   6.755
10705POPC   C3A65297  30.711  30.660   7.055
10705POPC   C4A65298  30.746  30.650   7.355
10705POPC   C1B65299  30.818  30.949   6.455
10705POPC   C2B65300  30.802  30.909   6.755
10705POPC   C3B65301  30.771  30.935   7.055
10705POPC   C4B65302  30.810  30.948   7.355
10706POPC   NC365303  36.172  22.201   5.555
10706POPC   PO465304  36.110  22.160   5.855
10706POPC   GL165305  36.135  22.200   6.155
10706POPC   GL265306  36.255  22.153   6.155
10706POPC   C1A65307  36.169  22.160   6.455
10706POPC   D2A65308  36.128  22.160   6.755
10706POPC   C3A65309  36.162  22.195   7.055
10706POPC   C4A65310  36.098  22.189   7.355
10706POPC   C1B65311  36.378  22.042   6.455
10706POPC   C2B65312  36.365  22.036   6.755
10706POPC   C3B65313  36.325  22.060   7.055
10706POPC   C4B65314  36.346  22.102   7.355
10707POPC   NC365315  13.663  30.675   5.555
10707POPC   PO465316  13.591  30.707   5.855
10707POPC   GL165317  13.665  30.715   6.155
10707POPC   GL265318  13.598  30.607   6.155
10707POPC   C1A65319  13.631  30.735   6.455
10707POPC   D2A65320  13.603  30.666   6.755
10707POPC   C3A65321  13.647  30.743   7.055
10707POPC   C4A65322  13.668  30.694   7.355
10707POPC   C1B65323  13.571  30.427   6.455
10707POPC   C2B65324  13.604  30.476   6.755
10707POPC   C3B65325  13.625  30.473   7.055
10707POPC   C4B65326  13.558  30.495   7.355
10708POPC   NC365327  11.262  26.011   5.555
10708POPC   PO465328  11.346  26.009   5.855
10708POPC   GL165329  11.325  26.011   6.155
10708POPC   GL265330  11.220  26.174   6.155
10708POPC   C1A65331  11.277  26.082   6.455
10708POPC   D2A65332  11.262  26.071   6.755
10708POPC   C3A65333  11.305  26.073   7.055
10708POPC   C4A65334  11.308  26.041   7.355
10708POPC   C1B65335  11.132  26.210   6.455
10708POPC   C2B65336  11.083  26.269   6.755
10708POPC   C3B65337  11.138  26.260   7.055
10708POPC   C4B65338  11.143  26.204   7.355
10709POPC   NC365339  29.943  25.265   5.555
10709POPC   PO465340  29.944  25.313   5.855
10709POPC   GL165341  29.956  25.252   6.155
10709POPC   GL265342  29.790  25.168   6.155
10709POPC   C1A65343  29.961  25.291   6.455
10709POPC   D2A65344  29.883  25.221   6.755
10709POPC   C3A65345  29.927  25.261   7.055
10709POPC   C4A65346  29.881  25.284   7.355
10709POPC   C1B65347  29.751  25.131   6.455
10709POPC   C2B65348  29.720  25.152   6.755
10709POPC   C3B65349  29.712  25.112   7.055
10709POPC   C4B65350  29.667  25.142   7.355
10710POPC   NC365351  36.894  16.775   5.555
10710POPC   PO465352  36.933  16.766   5.855
10710POPC   GL165353  36.900  16.721   6.155
10710POPC   GL265354  36.955  16.894   6.155
10710POPC   C1A65355  36.899  16.687   6.455
10710POPC   D2A65356  36.902  16.748   6.755
10710POPC   C3A65357  36.946  16.721   7.055
10710POPC   C4A65358  36.883  16.702   7.355
10710POPC   C1B65359  36.974  16.978   6.455
10710POPC   C2B65360  36.975  16.917   6.755
10710POPC   C3B65361  37.031  17.000   7.055
10710POPC   C4B65362  36.972  16.930   7.355
10711POPC   NC365363   5.119  37.644   5.555
10711POPC   PO465364   5.065  37.718   5.855
10711POPC   GL165365   5.143  37.697   6.155
10711POPC   GL265366   5.020  37.630   6.155
10711POPC   C1A65367   5.099  37.715   6.455
10711POPC   D2A65368   5.117  37.652   6.755
10711POPC   C3A65369   5.047  37.642   7.055
10711POPC   C4A65370   5.121  37.670   7.355
10711POPC   C1B65371   4.822  37.564   6.455
10711POPC   C2B65372   4.823  37.574   6.755
10711POPC   C3B65373   4.841  37.576   7.055
10711POPC   C4B65374   4.841  37.608   7.355
10712POPC   NC365375  21.357  44.694   5.555
10712POPC   PO465376  21.340  44.633   5.855
10712POPC   GL165377  21.342  44.676   6.155
10712POPC   GL265378  21.279  44.642   6.155
10712POPC   C1A65379  21.380  44.702   6.455
10712POPC   D2A65380  21.352  44.645   6.755
10712POPC   C3A65381  21.369  44.666   7.055
10712POPC   C4A65382  21.423  44.613   7.355
10712POPC   C1B65383  21.118  44.708   6.455
10712POPC   C2B65384  21.101  44.671   6.755
10712POPC   C3B65385  21.154  44.764   7.055
10712POPC   C4B65386  21.174  44.752   7.355
10713POPC   NC365387  41.555  38.460   5.555
10713POPC   PO465388  41.522  38.422   5.855
10713POPC   GL165389  41.572  38.452   6.155
10713POPC   GL265390  41.613  38.570   6.155
10713POPC   C1A65391  41.521  38.476   6.455
10713POPC   D2A65392  41.543  38.413   6.755
10713POPC   C3A65393  41.564  38.450   7.055
10713POPC   C4A65394  41.596  38.419   7.355
10713POPC   C1B65395  41.664  38.659   6.455
10713POPC   C2B65396  41.637  38.670   6.755
10713POPC   C3B65397  41.675  38.664   7.055
10713POPC   C4B65398  41.638  38.702   7.355
10714POPC   NC365399  35.368  37.634   5.555
10714POPC   PO465400  35.347  37.632   5.855
10714POPC   GL165401  35.316  37.671   6.155
10714POPC   GL265402  35.334  37.791   6.155
10714POPC   C1A65403  35.371  37.653   6.455
10714POPC   D2A65404  35.368  37.694   6.755
10714POPC   C3A65405  35.311  37.713   7.055
10714POPC   C4A65406  35.394  37.637   7.355
10714POPC   C1B65407  35.250  37.874   6.455
10714POPC   C2B65408  35.239  37.943   6.755
10714POPC   C3B65409  35.237  37.957   7.055
10714POPC   C4B65410  35.302  37.876   7.355
10715POPC   NC365411  20.570  32.988   5.555
10715POPC   PO465412  20.605  32.974   5.855
10715POPC   GL165413  20.642  33.012   6.155
10715POPC   GL265414  20.700  32.902   6.155
10715POPC   C1A65415  20.634  33.053   6.455
10715POPC   D2A65416  20.633  32.981   6.755
10715POPC   C3A65417  20.617  33.068   7.055
10715POPC   C4A65418  20.575  33.007   7.355
10715POPC   C1B65419  20.702  32.815   6.455
10715POPC   C2B65420  20.650  32.804   6.755
10715POPC   C3B65421  20.706  32.803   7.055
10715POPC   C4B65422  20.675  32.766   7.355
10716POPC   NC365423   4.353  27.571   5.555
10716POPC   PO465424   4.323  27.609   5.855
10716POPC   GL165425   4.362  27.589   6.155
10716POPC   GL265426   4.310  27.690   6.155
10716POPC   C1A65427   4.311  27.599   6.455
10716POPC   D2A65428   4.350  27.614   6.755
10716POPC   C3A65429   4.305  27.579   7.055
10716POPC   C4A65430   4.364  27.547   7.355
10716POPC   C1B65431   4.242  27.827   6.455
10716POPC   C2B65432   4.230  27.797   6.755
10716POPC   C3B65433   4.215  27.779   7.055
10716POPC   C4B65434   4.249  27.803   7.355
10717POPC   NC365435  35.374  40.739   5.555
10717POPC   PO465436  35.356  40.781   5.855
10717POPC   GL165437  35.359  40.788   6.155
10717POPC   GL265438  35.410  40.695   6.155
10717POPC   C1A65439  35.343  40.760   6.455
10717POPC   D2A65440  35.324  40.772   6.755
10717POPC   C3A65441  35.314  40.804   7.055
10717POPC   C4A65442  35.368  40.787   7.355
10717POPC   C1B65443  35.554  40.633   6.455
10717POPC   C2B65444  35.566  40.660   6.755
10717POPC   C3B65445  35.597  40.643   7.055
10717POPC   C4B65446  35.550  40.664   7.355
10718POPC   NC365447   6.596  35.318   5.555
10718POPC   PO465448   6.684  35.374   5.855
10718POPC   GL165449   6.602  35.376   6.155
10718POPC   GL265450   6.606  35.426   6.155
10718POPC   C1A65451   6.612  35.320   6.455
10718POPC   D2A65452   6.599  35.313   6.755
10718POPC   C3A65453   6.595  35.322   7.055
10718POPC   C4A65454   6.601  35.391   7.355
10718POPC   C1B65455   6.511  35.537   6.455
10718POPC   C2B65456   6.510  35.580   6.755
10718POPC   C3B65457   6.529  35.562   7.055
10718POPC   C4B65458   6.552  35.566   7.355
10719POPC   NC365459  21.360  26.065   5.555
10719POPC   PO465460  21.384  26.082   5.855
10719POPC   GL165461  21.381  26.054   6.155
10719POPC   GL265462  21.514  26.151   6.155
10719POPC   C1A65463  21.342  26.020   6.455
10719POPC   D2A65464  21.355  26.076   6.755
10719POPC   C3A65465  21.418  26.032   7.055
10719POPC   C4A65466  21.393  26.014   7.355
10719POPC   C1B65467  21.549  26.163   6.455
10719POPC   C2B65468  21.550  26.174   6.755
10719POPC   C3B65469  21.627  26.174   7.055
10719POPC   C4B65470  21.611  26.161   7.355
10720POPC   NC365471   3.586  39.998   5.555
10720POPC   PO465472   3.569  39.981   5.855
10720POPC   GL165473   3.514  40.020   6.155
10720POPC   GL265474   3.546  40.131   6.155
10720POPC   C1A65475   3.531  39.976   6.455
10720POPC   D2A65476   3.530  39.986   6.755
10720POPC   C3A65477   3.503  40.053   7.055
10720POPC   C4A65478   3.546  40.045   7.355
10720POPC   C1B65479   3.571  40.256   6.455
10720POPC   C2B65480   3.591  40.205   6.755
10720POPC   C3B65481   3.594  40.258   7.055
10720POPC   C4B65482   3.613  40.298   7.355
10721POPC   NC365483  15.933  41.550   5.555
10721POPC   PO465484  15.951  41.521   5.855
10721POPC   GL165485  15.980  41.562   6.155
10721POPC   GL265486  15.900  41.686   6.155
10721POPC   C1A65487  15.996  41.589   6.455
10721POPC   D2A65488  15.911  41.574   6.755
10721POPC   C3A65489  15.989  41.581   7.055
10721POPC   C4A65490  15.959  41.530   7.355
10721POPC   C1B65491  15.917  41.787   6.455
10721POPC   C2B65492  15.884  41.784   6.755
10721POPC   C3B65493  15.897  41.821   7.055
10721POPC   C4B65494  15.930  41.796   7.355
10722POPC   NC365495  10.513  21.370   5.555
10722POPC   PO465496  10.558  21.405   5.855
10722POPC   GL165497  10.523  21.409   6.155
10722POPC   GL265498  10.565  21.474   6.155
10722POPC   C1A65499  10.476  21.433   6.455
10722POPC   D2A65500  10.547  21.348   6.755
10722POPC   C3A65501  10.487  21.363   7.055
10722POPC   C4A65502  10.570  21.397   7.355
10722POPC   C1B65503  10.559  21.625   6.455
10722POPC   C2B65504  10.499  21.646   6.755
10722POPC   C3B65505  10.571  21.673   7.055
10722POPC   C4B65506  10.540  21.616   7.355
10723POPC   NC365507  33.790   0.427   5.555
10723POPC   PO465508  33.823   0.430   5.855
10723POPC   GL165509  33.784   0.429   6.155
10723POPC   GL265510  33.720   0.323   6.155
10723POPC   C1A65511  33.806   0.473   6.455
10723POPC   D2A65512  33.783   0.388   6.755
10723POPC   C3A65513  33.846   0.463   7.055
10723POPC   C4A65514  33.834   0.457   7.355
10723POPC   C1B65515  33.660   0.287   6.455
10723POPC   C2B65516  33.612   0.291   6.755
10723POPC   C3B65517  33.667   0.269   7.055
10723POPC   C4B65518  33.683   0.267   7.355
10724POPC   NC365519  21.406  36.120   5.555
10724POPC   PO465520  21.372  36.083   5.855
10724POPC   GL165521  21.391  36.171   6.155
10724POPC   GL265522  21.274  36.075   6.155
10724POPC   C1A65523  21.376  36.096   6.455
10724POPC   D2A65524  21.403  36.114   6.755
10724POPC   C3A65525  21.339  36.116   7.055
10724POPC   C4A65526  21.424  36.170   7.355
10724POPC   C1B65527  21.167  36.044   6.455
10724POPC   C2B65528  21.166  36.044   6.755
10724POPC   C3B65529  21.155  35.961   7.055
10724POPC   C4B65530  21.192  35.972   7.355
10725POPC   NC365531   9.796  18.300   5.555
10725POPC   PO465532   9.749  18.308   5.855
10725POPC   GL165533   9.704  18.250   6.155
10725POPC   GL265534   9.692  18.443   6.155
10725POPC   C1A65535   9.757  18.323   6.455
10725POPC   D2A65536   9.700  18.233   6.755
10725POPC   C3A65537   9.796  18.252   7.055
10725POPC   C4A65538   9.709  18.310   7.355
10725POPC   C1B65539   9.617  18.530   6.455
10725POPC   C2B65540   9.681  18.458   6.755
10725POPC   C3B65541   9.650  18.512   7.055
10725POPC   C4B65542   9.657  18.464   7.355
10726POPC   NC365543  21.414   9.699   5.555
10726POPC   PO465544  21.377   9.732   5.855
10726POPC   GL165545  21.369   9.704   6.155
10726POPC   GL265546  21.491   9.718   6.155
10726POPC   C1A65547  21.431   9.795   6.455
10726POPC   D2A65548  21.377   9.739   6.755
10726POPC   C3A65549  21.406   9.774   7.055
10726POPC   C4A65550  21.354   9.757   7.355
10726POPC   C1B65551  21.681   9.719   6.455
10726POPC   C2B65552  21.657   9.719   6.755
10726POPC   C3B65553  21.588   9.772   7.055
10726POPC   C4B65554  21.646   9.767   7.355
10727POPC   NC365555   6.662   6.680   5.555
10727POPC   PO465556   6.604   6.604   5.855
10727POPC   GL165557   6.665   6.601   6.155
10727POPC   GL265558   6.725   6.686   6.155
10727POPC   C1A65559   6.673   6.635   6.455
10727POPC   D2A65560   6.680   6.673   6.755
10727POPC   C3A65561   6.694   6.602   7.055
10727POPC   C4A65562   6.663   6.632   7.355
10727POPC   C1B65563   6.858   6.853   6.455
10727POPC   C2B65564   6.814   6.796   6.755
10727POPC   C3B65565   6.852   6.773   7.055
10727POPC   C4B65566   6.867   6.825   7.355
10728POPC   NC365567  18.262   5.906   5.555
10728POPC   PO465568  18.284   5.819   5.855
10728POPC   GL165569  18.320   5.838   6.155
10728POPC   GL265570  18.185   5.864   6.155
10728POPC   C1A65571  18.287   5.909   6.455
10728POPC   D2A65572  18.242   5.899   6.755
10728POPC   C3A65573  18.275   5.834   7.055
10728POPC   C4A65574  18.289   5.839   7.355
10728POPC   C1B65575  18.073   5.866   6.455
10728POPC   C2B65576  17.994   5.796   6.755
10728POPC   C3B65577  18.067   5.871   7.055
10728POPC   C4B65578  18.016   5.883   7.355
10729POPC   NC365579   2.770  34.546   5.555
10729POPC   PO465580   2.722  34.614   5.855
10729POPC   GL165581   2.787  34.548   6.155
10729POPC   GL265582   2.909  34.592   6.155
10729POPC   C1A65583   2.788  34.578   6.455
10729POPC   D2A65584   2.734  34.529   6.755
10729POPC   C3A65585   2.770  34.561   7.055
10729POPC   C4A65586   2.725  34.570   7.355
10729POPC   C1B65587   3.016  34.584   6.455
10729POPC   C2B65588   3.033  34.666   6.755
10729POPC   C3B65589   2.985  34.658   7.055
10729POPC   C4B65590   2.993  34.577   7.355
10730POPC   NC365591   1.180   7.399   5.555
10730POPC   PO465592   1.220   7.440   5.855
10730POPC   GL165593   1.252   7.387   6.155
10730POPC   GL265594   1.326   7.349   6.155
10730POPC   C1A65595   1.230   7.429   6.455
10730POPC   D2A65596   1.209   7.458   6.755
10730POPC   C3A65597   1.188   7.377   7.055
10730POPC   C4A65598   1.229   7.418   7.355
10730POPC   C1B65599   1.409   7.247   6.455
10730POPC   C2B65600   1.379   7.234   6.755
10730POPC   C3B65601   1.381   7.255   7.055
10730POPC   C4B65602   1.418   7.265   7.355
10731POPC   NC365603  22.183  21.340   5.555
10731POPC   PO465604  22.122  21.386   5.855
10731POPC   GL165605  22.150  21.395   6.155
10731POPC   GL265606  22.254  21.458   6.155
10731POPC   C1A65607  22.118  21.403   6.455
10731POPC   D2A65608  22.136  21.343   6.755
10731POPC   C3A65609  22.207  21.358   7.055
10731POPC   C4A65610  22.166  21.425   7.355
10731POPC   C1B65611  22.358  21.586   6.455
10731POPC   C2B65612  22.343  21.558   6.755
10731POPC   C3B65613  22.405  21.505   7.055
10731POPC   C4B65614  22.393  21.571   7.355
10732POPC   NC365615  42.298  32.242   5.555
10732POPC   PO465616  42.337  32.254   5.855
10732POPC   GL165617  42.381  32.240   6.155
10732POPC   GL265618  42.421  32.185   6.155
10732POPC   C1A65619  42.355  32.259   6.455
10732POPC   D2A65620  42.322  32.257   6.755
10732POPC   C3A65621  42.328  32.293   7.055
10732POPC   C4A65622  42.373  32.252   7.355
10732POPC   C1B65623  42.516  32.038   6.455
10732POPC   C2B65624  42.522  32.042   6.755
10732POPC   C3B65625  42.466  32.062   7.055
10732POPC   C4B65626  42.472  32.041   7.355
10733POPC   NC365627  35.314  36.869   5.555
10733POPC   PO465628  35.339  36.910   5.855
10733POPC   GL165629  35.380  36.897   6.155
10733POPC   GL265630  35.479  36.887   6.155
10733POPC   C1A65631  35.332  36.905   6.455
10733POPC   D2A65632  35.379  36.947   6.755
10733POPC   C3A65633  35.314  36.910   7.055
10733POPC   C4A65634  35.376  36.869   7.355
10733POPC   C1B65635  35.587  36.895   6.455
10733POPC   C2B65636  35.569  36.928   6.755
10733POPC   C3B65637  35.571  36.839   7.055
10733POPC   C4B65638  35.554  36.927   7.355
10734POPC   NC365639  37.691  18.332   5.555
10734POPC   PO465640  37.688  18.307   5.855
10734POPC   GL165641  37.638  18.256   6.155
10734POPC   GL265642  37.775  18.263   6.155
10734POPC   C1A65643  37.644  18.293   6.455
10734POPC   D2A65644  37.655  18.293   6.755
10734POPC   C3A65645  37.655  18.278   7.055
10734POPC   C4A65646  37.702  18.237   7.355
10734POPC   C1B65647  37.877  18.292   6.455
10734POPC   C2B65648  37.898  18.310   6.755
10734POPC   C3B65649  37.951  18.363   7.055
10734POPC   C4B65650  37.971  18.312   7.355
10735POPC   NC365651  32.273  33.833   5.555
10735POPC   PO465652  32.235  33.839   5.855
10735POPC   GL165653  32.204  33.788   6.155
10735POPC   GL265654  32.317  33.938   6.155
10735POPC   C1A65655  32.276  33.845   6.455
10735POPC   D2A65656  32.228  33.816   6.755
10735POPC   C3A65657  32.233  33.826   7.055
10735POPC   C4A65658  32.256  33.809   7.355
10735POPC   C1B65659  32.314  34.002   6.455
10735POPC   C2B65660  32.318  34.016   6.755
10735POPC   C3B65661  32.387  34.024   7.055
10735POPC   C4B65662  32.306  34.023   7.355
10736POPC   NC365663  32.263  13.675   5.555
10736POPC   PO465664  32.257  13.626   5.855
10736POPC   GL165665  32.273  13.658   6.155
10736POPC   GL265666  32.313  13.690   6.155
10736POPC   C1A65667  32.223  13.629   6.455
10736POPC   D2A65668  32.232  13.609   6.755
10736POPC   C3A65669  32.253  13.595   7.055
10736POPC   C4A65670  32.296  13.636   7.355
10736POPC   C1B65671  32.430  13.718   6.455
10736POPC   C2B65672  32.514  13.759   6.755
10736POPC   C3B65673  32.515  13.698   7.055
10736POPC   C4B65674  32.435  13.749   7.355
10737POPC   NC365675  18.249   4.277   5.555
10737POPC   PO465676  18.318   4.303   5.855
10737POPC   GL165677  18.320   4.300   6.155
10737POPC   GL265678  18.426   4.375   6.155
10737POPC   C1A65679  18.296   4.272   6.455
10737POPC   D2A65680  18.259   4.272   6.755
10737POPC   C3A65681  18.299   4.289   7.055
10737POPC   C4A65682  18.260   4.367   7.355
10737POPC   C1B65683  18.456   4.484   6.455
10737POPC   C2B65684  18.455   4.419   6.755
10737POPC   C3B65685  18.497   4.479   7.055
10737POPC   C4B65686  18.444   4.420   7.355
10738POPC   NC365687  29.129  25.310   5.555
10738POPC   PO465688  29.191  25.262   5.855
10738POPC   GL165689  29.115  25.312   6.155
10738POPC   GL265690  29.218  25.226   6.155
10738POPC   C1A65691  29.156  25.240   6.455
10738POPC   D2A65692  29.154  25.305   6.755
10738POPC   C3A65693  29.187  25.269   7.055
10738POPC   C4A65694  29.183  25.275   7.355
10738POPC   C1B65695  29.396  25.218   6.455
10738POPC   C2B65696  29.370  25.193   6.755
10738POPC   C3B65697  29.365  25.222   7.055
10738POPC   C4B65698  29.389  25.145   7.355
10739POPC   NC365699  13.661  17.540   5.555
10739POPC   PO465700  13.610  17.513   5.855
10739POPC   GL165701  13.615  17.548   6.155
10739POPC   GL265702  13.669  17.668   6.155
10739POPC   C1A65703  13.671  17.533   6.455
10739POPC   D2A65704  13.660  17.537   6.755
10739POPC   C3A65705  13.661  17.549   7.055
10739POPC   C4A65706  13.663  17.527   7.355
10739POPC   C1B65707  13.722  17.772   6.455
10739POPC   C2B65708  13.738  17.776   6.755
10739POPC   C3B65709  13.731  17.708   7.055
10739POPC   C4B65710  13.737  17.782   7.355
10740POPC   NC365711   7.396  22.957   5.555
10740POPC   PO465712   7.467  22.933   5.855
10740POPC   GL165713   7.410  22.958   6.155
10740POPC   GL265714   7.488  23.024   6.155
10740POPC   C1A65715   7.422  22.951   6.455
10740POPC   D2A65716   7.466  22.943   6.755
10740POPC   C3A65717   7.453  22.914   7.055
10740POPC   C4A65718   7.373  22.919   7.355
10740POPC   C1B65719   7.446  23.228   6.455
10740POPC   C2B65720   7.507  23.216   6.755
10740POPC   C3B65721   7.433  23.198   7.055
10740POPC   C4B65722   7.480  23.168   7.355
10741POPC   NC365723   4.294  41.527   5.555
10741POPC   PO465724   4.323  41.569   5.855
10741POPC   GL165725   4.364  41.572   6.155
10741POPC   GL265726   4.448  41.557   6.155
10741POPC   C1A65727   4.318  41.520   6.455
10741POPC   D2A65728   4.317  41.554   6.755
10741POPC   C3A65729   4.350  41.515   7.055
10741POPC   C4A65730   4.337  41.518   7.355
10741POPC   C1B65731   4.564  41.426   6.455
10741POPC   C2B65732   4.545  41.470   6.755
10741POPC   C3B65733   4.509  41.487   7.055
10741POPC   C4B65734   4.519  41.493   7.355
10742POPC   NC365735  12.029  23.704   5.555
10742POPC   PO465736  12.117  23.690   5.855
10742POPC   GL165737  12.038  23.701   6.155
10742POPC   GL265738  11.971  23.676   6.155
10742POPC   C1A65739  12.110  23.755   6.455
10742POPC   D2A65740  12.046  23.712   6.755
10742POPC   C3A65741  12.049  23.739   7.055
10742POPC   C4A65742  12.045  23.709   7.355
10742POPC   C1B65743  11.806  23.603   6.455
10742POPC   C2B65744  11.858  23.647   6.755
10742POPC   C3B65745  11.893  23.600   7.055
10742POPC   C4B65746  11.863  23.630   7.355
10743POPC   NC365747  31.433  23.740   5.555
10743POPC   PO465748  31.502  23.698   5.855
10743POPC   GL165749  31.470  23.758   6.155
10743POPC   GL265750  31.599  23.737   6.155
10743POPC   C1A65751  31.502  23.699   6.455
10743POPC   D2A65752  31.494  23.739   6.755
10743POPC   C3A65753  31.501  23.681   7.055
10743POPC   C4A65754  31.439  23.700   7.355
10743POPC   C1B65755  31.702  23.687   6.455
10743POPC   C2B65756  31.694  23.726   6.755
10743POPC   C3B65757  31.771  23.724   7.055
10743POPC   C4B65758  31.764  23.680   7.355
10744POPC   NC365759   8.183  23.735   5.555
10744POPC   PO465760   8.168  23.710   5.855
10744POPC   GL165761   8.192  23.721   6.155
10744POPC   GL265762   8.325  23.764   6.155
10744POPC   C1A65763   8.182  23.730   6.455
10744POPC   D2A65764   8.207  23.749   6.755
10744POPC   C3A65765   8.239  23.707   7.055
10744POPC   C4A65766   8.160  23.670   7.355
10744POPC   C1B65767   8.401  23.733   6.455
10744POPC   C2B65768   8.403  23.758   6.755
10744POPC   C3B65769   8.408  23.753   7.055
10744POPC   C4B65770   8.432  23.789   7.355
10745POPC   NC365771  30.709  18.328   5.555
10745POPC   PO465772  30.649  18.298   5.855
10745POPC   GL165773  30.663  18.248   6.155
10745POPC   GL265774  30.784  18.216   6.155
10745POPC   C1A65775  30.694  18.293   6.455
10745POPC   D2A65776  30.718  18.309   6.755
10745POPC   C3A65777  30.724  18.324   7.055
10745POPC   C4A65778  30.743  18.252   7.355
10745POPC   C1B65779  30.822  18.020   6.455
10745POPC   C2B65780  30.779  18.046   6.755
10745POPC   C3B65781  30.817  18.072   7.055
10745POPC   C4B65782  30.772  18.039   7.355
10746POPC   NC365783  19.815   4.311   5.555
10746POPC   PO465784  19.866   4.291   5.855
10746POPC   GL165785  19.851   4.299   6.155
10746POPC   GL265786  19.819   4.491   6.155
10746POPC   C1A65787  19.802   4.361   6.455
10746POPC   D2A65788  19.821   4.321   6.755
10746POPC   C3A65789  19.860   4.311   7.055
10746POPC   C4A65790  19.809   4.322   7.355
10746POPC   C1B65791  19.844   4.613   6.455
10746POPC   C2B65792  19.806   4.530   6.755
10746POPC   C3B65793  19.871   4.544   7.055
10746POPC   C4B65794  19.817   4.567   7.355
10747POPC   NC365795  14.425   4.303   5.555
10747POPC   PO465796  14.440   4.324   5.855
10747POPC   GL165797  14.414   4.275   6.155
10747POPC   GL265798  14.477   4.448   6.155
10747POPC   C1A65799  14.416   4.283   6.455
10747POPC   D2A65800  14.400   4.334   6.755
10747POPC   C3A65801  14.429   4.291   7.055
10747POPC   C4A65802  14.376   4.355   7.355
10747POPC   C1B65803  14.485   4.582   6.455
10747POPC   C2B65804  14.456   4.541   6.755
10747POPC   C3B65805  14.433   4.552   7.055
10747POPC   C4B65806  14.454   4.557   7.355
10748POPC   NC365807   6.661  26.832   5.555
10748POPC   PO465808   6.638  26.822   5.855
10748POPC   GL165809   6.627  26.834   6.155
10748POPC   GL265810   6.735  26.785   6.155
10748POPC   C1A65811   6.688  26.772   6.455
10748POPC   D2A65812   6.691  26.837   6.755
10748POPC   C3A65813   6.597  26.803   7.055
10748POPC   C4A65814   6.635  26.824   7.355
10748POPC   C1B65815   6.904  26.729   6.455
10748POPC   C2B65816   6.916  26.736   6.755
10748POPC   C3B65817   6.828  26.727   7.055
10748POPC   C4B65818   6.918  26.715   7.355
10749POPC   NC365819   7.413  38.474   5.555
10749POPC   PO465820   7.433  38.454   5.855
10749POPC   GL165821   7.425  38.429   6.155
10749POPC   GL265822   7.534  38.458   6.155
10749POPC   C1A65823   7.384  38.454   6.455
10749POPC   D2A65824   7.372  38.417   6.755
10749POPC   C3A65825   7.395  38.427   7.055
10749POPC   C4A65826   7.461  38.487   7.355
10749POPC   C1B65827   7.671  38.550   6.455
10749POPC   C2B65828   7.656  38.510   6.755
10749POPC   C3B65829   7.655  38.591   7.055
10749POPC   C4B65830   7.644  38.515   7.355
10750POPC   NC365831  37.659   1.245   5.555
10750POPC   PO465832  37.678   1.236   5.855
10750POPC   GL165833  37.710   1.183   6.155
10750POPC   GL265834  37.689   1.358   6.155
10750POPC   C1A65835  37.729   1.201   6.455
10750POPC   D2A65836  37.711   1.262   6.755
10750POPC   C3A65837  37.721   1.247   7.055
10750POPC   C4A65838  37.637   1.255   7.355
10750POPC   C1B65839  37.703   1.442   6.455
10750POPC   C2B65840  37.739   1.437   6.755
10750POPC   C3B65841  37.697   1.442   7.055
10750POPC   C4B65842  37.731   1.448   7.355
10751POPC   NC365843  19.017  36.946   5.555
10751POPC   PO465844  19.022  36.934   5.855
10751POPC   GL165845  19.045  36.912   6.155
10751POPC   GL265846  18.952  36.802   6.155
10751POPC   C1A65847  19.052  36.937   6.455
10751POPC   D2A65848  19.062  36.940   6.755
10751POPC   C3A65849  19.015  36.879   7.055
10751POPC   C4A65850  19.047  36.921   7.355
10751POPC   C1B65851  18.948  36.697   6.455
10751POPC   C2B65852  18.970  36.720   6.755
10751POPC   C3B65853  18.880  36.712   7.055
10751POPC   C4B65854  18.929  36.670   7.355
10752POPC   NC365855  25.243  16.739   5.555
10752POPC   PO465856  25.245  16.738   5.855
10752POPC   GL165857  25.255  16.775   6.155
10752POPC   GL265858  25.184  16.701   6.155
10752POPC   C1A65859  25.298  16.684   6.455
10752POPC   D2A65860  25.233  16.766   6.755
10752POPC   C3A65861  25.250  16.682   7.055
10752POPC   C4A65862  25.250  16.740   7.355
10752POPC   C1B65863  25.065  16.665   6.455
10752POPC   C2B65864  25.031  16.714   6.755
10752POPC   C3B65865  25.017  16.615   7.055
10752POPC   C4B65866  24.985  16.644   7.355
10753POPC   NC365867  15.188   2.761   5.555
10753POPC   PO465868  15.213   2.767   5.855
10753POPC   GL165869  15.221   2.754   6.155
10753POPC   GL265870  15.035   2.761   6.155
10753POPC   C1A65871  15.140   2.744   6.455
10753POPC   D2A65872  15.226   2.796   6.755
10753POPC   C3A65873  15.144   2.779   7.055
10753POPC   C4A65874  15.188   2.726   7.355
10753POPC   C1B65875  14.970   2.692   6.455
10753POPC   C2B65876  14.914   2.715   6.755
10753POPC   C3B65877  14.919   2.731   7.055
10753POPC   C4B65878  14.980   2.738   7.355
10754POPC   NC365879  25.252  22.901   5.555
10754POPC   PO465880  25.241  22.974   5.855
10754POPC   GL165881  25.297  22.983   6.155
10754POPC   GL265882  25.393  23.056   6.155
10754POPC   C1A65883  25.265  22.889   6.455
10754POPC   D2A65884  25.247  22.971   6.755
10754POPC   C3A65885  25.228  22.932   7.055
10754POPC   C4A65886  25.264  22.928   7.355
10754POPC   C1B65887  25.453  23.105   6.455
10754POPC   C2B65888  25.435  23.096   6.755
10754POPC   C3B65889  25.458  23.119   7.055
10754POPC   C4B65890  25.444  23.111   7.355
10755POPC   NC365891  43.867  16.683   5.555
10755POPC   PO465892  43.911  16.703   5.855
10755POPC   GL165893  43.877  16.690   6.155
10755POPC   GL265894  43.959  16.869   6.155
10755POPC   C1A65895  43.895  16.681   6.455
10755POPC   D2A65896  43.840  16.688   6.755
10755POPC   C3A65897  43.891  16.690   7.055
10755POPC   C4A65898  43.872  16.710   7.355
10755POPC   C1B65899  44.029  16.956   6.455
10755POPC   C2B65900  44.082  16.948   6.755
10755POPC   C3B65901  43.997  16.888   7.055
10755POPC   C4B65902  44.051  16.937   7.355
10756POPC   NC365903  28.403  29.108   5.555
10756POPC   PO465904  28.342  29.116   5.855
10756POPC   GL165905  28.365  29.099   6.155
10756POPC   GL265906  28.245  29.145   6.155
10756POPC   C1A65907  28.391  29.139   6.455
10756POPC   D2A65908  28.323  29.106   6.755
10756POPC   C3A65909  28.395  29.120   7.055
10756POPC   C4A65910  28.342  29.195   7.355
10756POPC   C1B65911  28.105  29.133   6.455
10756POPC   C2B65912  28.156  29.107   6.755
10756POPC   C3B65913  28.152  29.135   7.055
10756POPC   C4B65914  28.120  29.103   7.355
10757POPC   NC365915  22.116  22.890   5.555
10757POPC   PO465916  22.136  22.942   5.855
10757POPC   GL165917  22.155  22.936   6.155
10757POPC   GL265918  22.255  23.007   6.155
10757POPC   C1A65919  22.147  22.936   6.455
10757POPC   D2A65920  22.183  22.936   6.755
10757POPC   C3A65921  22.198  22.915   7.055
10757POPC   C4A65922  22.187  22.973   7.355
10757POPC   C1B65923  22.211  23.169   6.455
10757POPC   C2B65924  22.252  23.161   6.755
10757POPC   C3B65925  22.232  23.138   7.055
10757POPC   C4B65926  22.307  23.206   7.355
10758POPC   NC365927   8.971  16.717   5.555
10758POPC   PO465928   8.942  16.719   5.855
10758POPC   GL165929   8.991  16.721   6.155
10758POPC   GL265930   9.068  16.685   6.155
10758POPC   C1A65931   9.002  16.726   6.455
10758POPC   D2A65932   9.009  16.729   6.755
10758POPC   C3A65933   8.923  16.698   7.055
10758POPC   C4A65934   9.005  16.708   7.355
10758POPC   C1B65935   9.213  16.568   6.455
10758POPC   C2B65936   9.228  16.652   6.755
10758POPC   C3B65937   9.238  16.592   7.055
10758POPC   C4B65938   9.156  16.634   7.355
10759POPC   NC365939  24.489  39.995   5.555
10759POPC   PO465940  24.537  40.028   5.855
10759POPC   GL165941  24.494  40.049   6.155
10759POPC   GL265942  24.568  39.941   6.155
10759POPC   C1A65943  24.486  40.041   6.455
10759POPC   D2A65944  24.515  40.049   6.755
10759POPC   C3A65945  24.454  40.053   7.055
10759POPC   C4A65946  24.452  39.985   7.355
10759POPC   C1B65947  24.742  39.969   6.455
10759POPC   C2B65948  24.720  39.894   6.755
10759POPC   C3B65949  24.743  39.894   7.055
10759POPC   C4B65950  24.683  39.977   7.355
10760POPC   NC365951  38.475  17.530   5.555
10760POPC   PO465952  38.489  17.462   5.855
10760POPC   GL165953  38.450  17.475   6.155
10760POPC   GL265954  38.322  17.402   6.155
10760POPC   C1A65955  38.488  17.519   6.455
10760POPC   D2A65956  38.411  17.484   6.755
10760POPC   C3A65957  38.464  17.529   7.055
10760POPC   C4A65958  38.480  17.524   7.355
10760POPC   C1B65959  38.267  17.305   6.455
10760POPC   C2B65960  38.246  17.391   6.755
10760POPC   C3B65961  38.228  17.317   7.055
10760POPC   C4B65962  38.253  17.308   7.355
10761POPC   NC365963  22.142  36.878   5.555
10761POPC   PO465964  22.196  36.858   5.855
10761POPC   GL165965  22.135  36.861   6.155
10761POPC   GL265966  22.251  37.014   6.155
10761POPC   C1A65967  22.172  36.946   6.455
10761POPC   D2A65968  22.200  36.866   6.755
10761POPC   C3A65969  22.145  36.944   7.055
10761POPC   C4A65970  22.172  36.951   7.355
10761POPC   C1B65971  22.255  37.110   6.455
10761POPC   C2B65972  22.302  37.095   6.755
10761POPC   C3B65973  22.282  37.139   7.055
10761POPC   C4B65974  22.294  37.105   7.355
10762POPC   NC365975  19.787   0.399   5.555
10762POPC   PO465976  19.796   0.467   5.855
10762POPC   GL165977  19.827   0.391   6.155
10762POPC   GL265978  19.972   0.546   6.155
10762POPC   C1A65979  19.826   0.414   6.455
10762POPC   D2A65980  19.829   0.419   6.755
10762POPC   C3A65981  19.878   0.432   7.055
10762POPC   C4A65982  19.829   0.468   7.355
10762POPC   C1B65983  20.069   0.582   6.455
10762POPC   C2B65984  20.037   0.601   6.755
10762POPC   C3B65985  20.061   0.613   7.055
10762POPC   C4B65986  20.050   0.566   7.355
10763POPC   NC365987  26.066   2.020   5.555
10763POPC   PO465988  26.043   2.000   5.855
10763POPC   GL165989  26.049   1.942   6.155
10763POPC   GL265990  25.963   1.886   6.155
10763POPC   C1A65991  26.024   1.955   6.455
10763POPC   D2A65992  26.024   1.988   6.755
10763POPC   C3A65993  26.009   1.979   7.055
10763POPC   C4A65994  26.032   1.986   7.355
10763POPC   C1B65995  25.826   1.847   6.455
10763POPC   C2B65996  25.851   1.847   6.755
10763POPC   C3B65997  25.883   1.789   7.055
10763POPC   C4B65998  25.848   1.780   7.355
10764POPC   NC365999  24.462  37.652   5.555
10764POPC   PO466000  24.448  37.632   5.855
10764POPC   GL166001  24.459  37.652   6.155
10764POPC   GL266002  24.457  37.756   6.155
10764POPC   C1A66003  24.514  37.663   6.455
10764POPC   D2A66004  24.526  37.659   6.755
10764POPC   C3A66005  24.495  37.634   7.055
10764POPC   C4A66006  24.467  37.660   7.355
10764POPC   C1B66007  24.369  37.852   6.455
10764POPC   C2B66008  24.339  37.849   6.755
10764POPC   C3B66009  24.334  37.880   7.055
10764POPC   C4B66010  24.354  37.873   7.355
10765POPC   NC366011  41.529  30.740   5.555
10765POPC   PO466012  41.544  30.673   5.855
10765POPC   GL166013  41.555  30.693   6.155
10765POPC   GL266014  41.618  30.822   6.155
10765POPC   C1A66015  41.584  30.676   6.455
10765POPC   D2A66016  41.534  30.650   6.755
10765POPC   C3A66017  41.564  30.718   7.055
10765POPC   C4A66018  41.566  30.720   7.355
10765POPC   C1B66019  41.657  30.970   6.455
10765POPC   C2B66020  41.615  30.941   6.755
10765POPC   C3B66021  41.635  30.916   7.055
10765POPC   C4B66022  41.630  30.961   7.355
10766POPC   NC366023   3.562  26.013   5.555
10766POPC   PO466024   3.562  26.030   5.855
10766POPC   GL166025   3.545  26.084   6.155
10766POPC   GL266026   3.529  26.137   6.155
10766POPC   C1A66027   3.550  26.010   6.455
10766POPC   D2A66028   3.587  25.992   6.755
10766POPC   C3A66029   3.562  26.029   7.055
10766POPC   C4A66030   3.519  26.082   7.355
10766POPC   C1B66031   3.606  26.300   6.455
10766POPC   C2B66032   3.587  26.266   6.755
10766POPC   C3B66033   3.529  26.281   7.055
10766POPC   C4B66034   3.564  26.240   7.355
10767POPC   NC366035  29.970   4.333   5.555
10767POPC   PO466036  29.890   4.304   5.855
10767POPC   GL166037  29.924   4.342   6.155
10767POPC   GL266038  30.012   4.436   6.155
10767POPC   C1A66039  29.926   4.313   6.455
10767POPC   D2A66040  29.947   4.319   6.755
10767POPC   C3A66041  29.910   4.362   7.055
10767POPC   C4A66042  29.957   4.312   7.355
10767POPC   C1B66043  30.100   4.525   6.455
10767POPC   C2B66044  30.052   4.552   6.755
10767POPC   C3B66045  30.051   4.508   7.055
10767POPC   C4B66046  30.081   4.478   7.355
10768POPC   NC366047  25.288  43.093   5.555
10768POPC   PO466048  25.264  43.080   5.855
10768POPC   GL166049  25.292  43.132   6.155
10768POPC   GL266050  25.343  43.089   6.155
10768POPC   C1A66051  25.235  43.116   6.455
10768POPC   D2A66052  25.304  43.100   6.755
10768POPC   C3A66053  25.273  43.124   7.055
10768POPC   C4A66054  25.217  43.063   7.355
10768POPC   C1B66055  25.520  42.995   6.455
10768POPC   C2B66056  25.543  42.990   6.755
10768POPC   C3B66057  25.497  43.047   7.055
10768POPC   C4B66058  25.503  43.025   7.355
10769POPC   NC366059   6.619  26.089   5.555
10769POPC   PO466060   6.662  26.076   5.855
10769POPC   GL166061   6.602  26.017   6.155
10769POPC   GL266062   6.586  25.940   6.155
10769POPC   C1A66063   6.693  26.029   6.455
10769POPC   D2A66064   6.617  26.068   6.755
10769POPC   C3A66065   6.623  26.027   7.055
10769POPC   C4A66066   6.676  26.082   7.355
10769POPC   C1B66067   6.524  25.845   6.455
10769POPC   C2B66068   6.519  25.866   6.755
10769POPC   C3B66069   6.488  25.853   7.055
10769POPC   C4B66070   6.475  25.823   7.355
10770POPC   NC366071  22.964  41.591   5.555
10770POPC   PO466072  22.905  41.600   5.855
10770POPC   GL166073  22.890  41.567   6.155
10770POPC   GL266074  23.093  41.564   6.155
10770POPC   C1A66075  22.940  41.581   6.455
10770POPC   D2A66076  22.978  41.552   6.755
10770POPC   C3A66077  22.973  41.533   7.055
10770POPC   C4A66078  22.941  41.607   7.355
10770POPC   C1B66079  23.221  41.493   6.455
10770POPC   C2B66080  23.167  41.448   6.755
10770POPC   C3B66081  23.203  41.476   7.055
10770POPC   C4B66082  23.136  41.512   7.355
10771POPC   NC366083  12.852  21.410   5.555
10771POPC   PO466084  12.883  21.402   5.855
10771POPC   GL166085  12.805  21.361   6.155
10771POPC   GL266086  12.866  21.454   6.155
10771POPC   C1A66087  12.815  21.404   6.455
10771POPC   D2A66088  12.821  21.429   6.755
10771POPC   C3A66089  12.887  21.374   7.055
10771POPC   C4A66090  12.875  21.405   7.355
10771POPC   C1B66091  12.976  21.633   6.455
10771POPC   C2B66092  12.982  21.633   6.755
10771POPC   C3B66093  12.902  21.602   7.055
10771POPC   C4B66094  12.968  21.628   7.355
10772POPC   NC366095  21.342   8.243   5.555
10772POPC   PO466096  21.413   8.232   5.855
10772POPC   GL166097  21.355   8.233   6.155
10772POPC   GL266098  21.476   8.041   6.155
10772POPC   C1A66099  21.433   8.205   6.455
10772POPC   D2A66100  21.382   8.228   6.755
10772POPC   C3A66101  21.424   8.224   7.055
10772POPC   C4A66102  21.401   8.161   7.355
10772POPC   C1B66103  21.494   7.963   6.455
10772POPC   C2B66104  21.495   7.991   6.755
10772POPC   C3B66105  21.519   7.981   7.055
10772POPC   C4B66106  21.431   7.978   7.355
10773POPC   NC366107  33.066  17.518   5.555
10773POPC   PO466108  33.057  17.555   5.855
10773POPC   GL166109  33.036  17.552   6.155
10773POPC   GL266110  33.171  17.449   6.155
10773POPC   C1A66111  33.070  17.491   6.455
10773POPC   D2A66112  33.049  17.550   6.755
10773POPC   C3A66113  33.026  17.513   7.055
10773POPC   C4A66114  33.007  17.483   7.355
10773POPC   C1B66115  33.204  17.394   6.455
10773POPC   C2B66116  33.295  17.403   6.755
10773POPC   C3B66117  33.231  17.350   7.055
10773POPC   C4B66118  33.287  17.385   7.355
10774POPC   NC366119  15.943  28.326   5.555
10774POPC   PO466120  15.936  28.401   5.855
10774POPC   GL166121  15.938  28.366   6.155
10774POPC   GL266122  15.843  28.327   6.155
10774POPC   C1A66123  15.958  28.354   6.455
10774POPC   D2A66124  15.941  28.409   6.755
10774POPC   C3A66125  15.945  28.359   7.055
10774POPC   C4A66126  15.966  28.390   7.355
10774POPC   C1B66127  15.722  28.231   6.455
10774POPC   C2B66128  15.768  28.214   6.755
10774POPC   C3B66129  15.716  28.256   7.055
10774POPC   C4B66130  15.797  28.203   7.355
10775POPC   NC366131  30.683  26.005   5.555
10775POPC   PO466132  30.732  26.066   5.855
10775POPC   GL166133  30.693  26.000   6.155
10775POPC   GL266134  30.744  25.962   6.155
10775POPC   C1A66135  30.689  26.040   6.455
10775POPC   D2A66136  30.741  26.082   6.755
10775POPC   C3A66137  30.697  26.025   7.055
10775POPC   C4A66138  30.678  26.065   7.355
10775POPC   C1B66139  30.894  25.820   6.455
10775POPC   C2B66140  30.864  25.902   6.755
10775POPC   C3B66141  30.881  25.822   7.055
10775POPC   C4B66142  30.822  25.857   7.355
10776POPC   NC366143   0.443   9.790   5.555
10776POPC   PO466144   0.432   9.737   5.855
10776POPC   GL166145   0.483   9.755   6.155
10776POPC   GL266146   0.538   9.824   6.155
10776POPC   C1A66147   0.470   9.738   6.455
10776POPC   D2A66148   0.415   9.723   6.755
10776POPC   C3A66149   0.431   9.783   7.055
10776POPC   C4A66150   0.465   9.755   7.355
10776POPC   C1B66151   0.684   9.906   6.455
10776POPC   C2B66152   0.631   9.860   6.755
10776POPC   C3B66153   0.620   9.917   7.055
10776POPC   C4B66154   0.629   9.942   7.355
10777POPC   NC366155  13.597  35.336   5.555
10777POPC   PO466156  13.641  35.398   5.855
10777POPC   GL166157  13.668  35.361   6.155
10777POPC   GL266158  13.582  35.432   6.155
10777POPC   C1A66159  13.658  35.392   6.455
10777POPC   D2A66160  13.587  35.322   6.755
10777POPC   C3A66161  13.621  35.319   7.055
10777POPC   C4A66162  13.605  35.377   7.355
10777POPC   C1B66163  13.543  35.557   6.455
10777POPC   C2B66164  13.569  35.552   6.755
10777POPC   C3B66165  13.601  35.591   7.055
10777POPC   C4B66166  13.588  35.627   7.355
10778POPC   NC366167  31.501   1.186   5.555
10778POPC   PO466168  31.515   1.250   5.855
10778POPC   GL166169  31.508   1.234   6.155
10778POPC   GL266170  31.480   1.081   6.155
10778POPC   C1A66171  31.520   1.217   6.455
10778POPC   D2A66172  31.519   1.219   6.755
10778POPC   C3A66173  31.465   1.180   7.055
10778POPC   C4A66174  31.467   1.213   7.355
10778POPC   C1B66175  31.409   1.005   6.455
10778POPC   C2B66176  31.414   0.985   6.755
10778POPC   C3B66177  31.410   0.992   7.055
10778POPC   C4B66178  31.452   0.916   7.355
10779POPC   NC366179  29.168  27.624   5.555
10779POPC   PO466180  29.123  27.607   5.855
10779POPC   GL166181  29.192  27.613   6.155
10779POPC   GL266182  29.077  27.649   6.155
10779POPC   C1A66183  29.170  27.627   6.455
10779POPC   D2A66184  29.154  27.596   6.755
10779POPC   C3A66185  29.183  27.558   7.055
10779POPC   C4A66186  29.103  27.576   7.355
10779POPC   C1B66187  29.029  27.798   6.455
10779POPC   C2B66188  28.988  27.770   6.755
10779POPC   C3B66189  29.042  27.808   7.055
10779POPC   C4B66190  28.991  27.809   7.355
10780POPC   NC366191  15.148   4.309   5.555
10780POPC   PO466192  15.159   4.290   5.855
10780POPC   GL166193  15.144   4.355   6.155
10780POPC   GL266194  15.326   4.328   6.155
10780POPC   C1A66195  15.221   4.323   6.455
10780POPC   D2A66196  15.215   4.267   6.755
10780POPC   C3A66197  15.200   4.314   7.055
10780POPC   C4A66198  15.132   4.317   7.355
10780POPC   C1B66199  15.429   4.402   6.455
10780POPC   C2B66200  15.461   4.383   6.755
10780POPC   C3B66201  15.415   4.436   7.055
10780POPC   C4B66202  15.421   4.403   7.355
10781POPC   NC366203  34.578   2.762   5.555
10781POPC   PO466204  34.594   2.732   5.855
10781POPC   GL166205  34.536   2.753   6.155
10781POPC   GL266206  34.737   2.823   6.155
10781POPC   C1A66207  34.534   2.777   6.455
10781POPC   D2A66208  34.576   2.734   6.755
10781POPC   C3A66209  34.615   2.788   7.055
10781POPC   C4A66210  34.556   2.787   7.355
10781POPC   C1B66211  34.862   2.848   6.455
10781POPC   C2B66212  34.784   2.778   6.755
10781POPC   C3B66213  34.818   2.864   7.055
10781POPC   C4B66214  34.836   2.779   7.355
10782POPC   NC366215  33.011  12.871   5.555
10782POPC   PO466216  33.048  12.897   5.855
10782POPC   GL166217  33.013  12.806   6.155
10782POPC   GL266218  32.932  12.964   6.155
10782POPC   C1A66219  33.005  12.827   6.455
10782POPC   D2A66220  32.987  12.879   6.755
10782POPC   C3A66221  32.986  12.847   7.055
10782POPC   C4A66222  33.029  12.821   7.355
10782POPC   C1B66223  32.891  13.097   6.455
10782POPC   C2B66224  32.918  13.054   6.755
10782POPC   C3B66225  32.853  13.073   7.055
10782POPC   C4B66226  32.887  13.076   7.355
10783POPC   NC366227   4.352  37.725   5.555
10783POPC   PO466228   4.297  37.728   5.855
10783POPC   GL166229   4.341  37.678   6.155
10783POPC   GL266230   4.413  37.751   6.155
10783POPC   C1A66231   4.288  37.663   6.455
10783POPC   D2A66232   4.323  37.718   6.755
10783POPC   C3A66233   4.281  37.713   7.055
10783POPC   C4A66234   4.288  37.689   7.355
10783POPC   C1B66235   4.475  37.896   6.455
10783POPC   C2B66236   4.511  37.879   6.755
10783POPC   C3B66237   4.434  37.855   7.055
10783POPC   C4B66238   4.523  37.913   7.355
10784POPC   NC366239   8.208   6.678   5.555
10784POPC   PO466240   8.157   6.645   5.855
10784POPC   GL166241   8.175   6.660   6.155
10784POPC   GL266242   8.089   6.657   6.155
10784POPC   C1A66243   8.167   6.619   6.455
10784POPC   D2A66244   8.155   6.602   6.755
10784POPC   C3A66245   8.178   6.618   7.055
10784POPC   C4A66246   8.229   6.630   7.355
10784POPC   C1B66247   7.960   6.646   6.455
10784POPC   C2B66248   7.941   6.673   6.755
10784POPC   C3B66249   7.907   6.644   7.055
10784POPC   C4B66250   7.946   6.648   7.355
10785POPC   NC366251  21.372  22.129   5.555
10785POPC   PO466252  21.375  22.199   5.855
10785POPC   GL166253  21.426  22.113   6.155
10785POPC   GL266254  21.450  22.077   6.155
10785POPC   C1A66255  21.421  22.194   6.455
10785POPC   D2A66256  21.406  22.157   6.755
10785POPC   C3A66257  21.374  22.115   7.055
10785POPC   C4A66258  21.361  22.196   7.355
10785POPC   C1B66259  21.572  21.993   6.455
10785POPC   C2B66260  21.532  21.925   6.755
10785POPC   C3B66261  21.566  21.969   7.055
10785POPC   C4B66262  21.554  21.966   7.355
10786POPC   NC366263  28.374  31.441   5.555
10786POPC   PO466264  28.404  31.493   5.855
10786POPC   GL166265  28.387  31.490   6.155
10786POPC   GL266266  28.255  31.534   6.155
10786POPC   C1A66267  28.382  31.478   6.455
10786POPC   D2A66268  28.399  31.423   6.755
10786POPC   C3A66269  28.378  31.485   7.055
10786POPC   C4A66270  28.349  31.518   7.355
10786POPC   C1B66271  28.266  31.648   6.455
10786POPC   C2B66272  28.190  31.729   6.755
10786POPC   C3B66273  28.267  31.673   7.055
10786POPC   C4B66274  28.200  31.647   7.355
10787POPC   NC366275  26.064  20.589   5.555
10787POPC   PO466276  26.044  20.576   5.855
10787POPC   GL166277  26.056  20.651   6.155
10787POPC   GL266278  26.094  20.693   6.155
10787POPC   C1A66279  26.005  20.646   6.455
10787POPC   D2A66280  26.016  20.637   6.755
10787POPC   C3A66281  26.067  20.610   7.055
10787POPC   C4A66282  26.043  20.647   7.355
10787POPC   C1B66283  26.195  20.785   6.455
10787POPC   C2B66284  26.116  20.790   6.755
10787POPC   C3B66285  26.116  20.868   7.055
10787POPC   C4B66286  26.185  20.780   7.355
10788POPC   NC366287  38.499  40.024   5.555
10788POPC   PO466288  38.483  40.038   5.855
10788POPC   GL166289  38.409  40.051   6.155
10788POPC   GL266290  38.357  39.894   6.155
10788POPC   C1A66291  38.456  40.009   6.455
10788POPC   D2A66292  38.407  40.052   6.755
10788POPC   C3A66293  38.490  40.044   7.055
10788POPC   C4A66294  38.481  40.026   7.355
10788POPC   C1B66295  38.248  39.895   6.455
10788POPC   C2B66296  38.246  39.824   6.755
10788POPC   C3B66297  38.295  39.837   7.055
10788POPC   C4B66298  38.297  39.890   7.355
10789POPC   NC366299  39.250  39.257   5.555
10789POPC   PO466300  39.195  39.215   5.855
10789POPC   GL166301  39.277  39.189   6.155
10789POPC   GL266302  39.294  39.107   6.155
10789POPC   C1A66303  39.192  39.187   6.455
10789POPC   D2A66304  39.251  39.267   6.755
10789POPC   C3A66305  39.183  39.235   7.055
10789POPC   C4A66306  39.256  39.210   7.355
10789POPC   C1B66307  39.297  38.971   6.455
10789POPC   C2B66308  39.252  39.001   6.755
10789POPC   C3B66309  39.263  38.977   7.055
10789POPC   C4B66310  39.241  38.965   7.355
10790POPC   NC366311  13.665  22.975   5.555
10790POPC   PO466312  13.624  22.982   5.855
10790POPC   GL166313  13.597  22.914   6.155
10790POPC   GL266314  13.607  23.066   6.155
10790POPC   C1A66315  13.598  22.937   6.455
10790POPC   D2A66316  13.659  22.957   6.755
10790POPC   C3A66317  13.643  22.906   7.055
10790POPC   C4A66318  13.614  22.968   7.355
10790POPC   C1B66319  13.583  23.204   6.455
10790POPC   C2B66320  13.551  23.159   6.755
10790POPC   C3B66321  13.601  23.148   7.055
10790POPC   C4B66322  13.619  23.151   7.355
10791POPC   NC366323  24.525  21.338   5.555
10791POPC   PO466324  24.471  21.398   5.855
10791POPC   GL166325  24.497  21.418   6.155
10791POPC   GL266326  24.542  21.246   6.155
10791POPC   C1A66327  24.491  21.429   6.455
10791POPC   D2A66328  24.494  21.378   6.755
10791POPC   C3A66329  24.532  21.383   7.055
10791POPC   C4A66330  24.475  21.351   7.355
10791POPC   C1B66331  24.511  21.107   6.455
10791POPC   C2B66332  24.530  21.151   6.755
10791POPC   C3B66333  24.488  21.118   7.055
10791POPC   C4B66334  24.565  21.164   7.355
10792POPC   NC366335  19.881  43.893   5.555
10792POPC   PO466336  19.790  43.855   5.855
10792POPC   GL166337  19.799  43.876   6.155
10792POPC   GL266338  19.786  43.842   6.155
10792POPC   C1A66339  19.834  43.894   6.455
10792POPC   D2A66340  19.868  43.842   6.755
10792POPC   C3A66341  19.811  43.919   7.055
10792POPC   C4A66342  19.803  43.866   7.355
10792POPC   C1B66343  19.646  43.726   6.455
10792POPC   C2B66344  19.644  43.753   6.755
10792POPC   C3B66345  19.614  43.710   7.055
10792POPC   C4B66346  19.623  43.683   7.355
10793POPC   NC366347  19.042  24.533   5.555
10793POPC   PO466348  19.019  24.491   5.855
10793POPC   GL166349  19.041  24.476   6.155
10793POPC   GL266350  18.997  24.584   6.155
10793POPC   C1A66351  19.042  24.483   6.455
10793POPC   D2A66352  19.041  24.486   6.755
10793POPC   C3A66353  19.098  24.453   7.055
10793POPC   C4A66354  19.054  24.521   7.355
10793POPC   C1B66355  18.821  24.681   6.455
10793POPC   C2B66356  18.819  24.665   6.755
10793POPC   C3B66357  18.903  24.615   7.055
10793POPC   C4B66358  18.877  24.611   7.355
10794POPC   NC366359   4.355  11.346   5.555
10794POPC   PO466360   4.347  11.268   5.855
10794POPC   GL166361   4.311  11.312   6.155
10794POPC   GL266362   4.314  11.445   6.155
10794POPC   C1A66363   4.362  11.344   6.455
10794POPC   D2A66364   4.303  11.258   6.755
10794POPC   C3A66365   4.303  11.346   7.055
10794POPC   C4A66366   4.275  11.330   7.355
10794POPC   C1B66367   4.177  11.569   6.455
10794POPC   C2B66368   4.213  11.506   6.755
10794POPC   C3B66369   4.239  11.538   7.055
10794POPC   C4B66370   4.239  11.491   7.355
10795POPC   NC366371  43.912   6.659   5.555
10795POPC   PO466372  43.854   6.659   5.855
10795POPC   GL166373  43.872   6.676   6.155
10795POPC   GL266374  43.848   6.735   6.155
10795POPC   C1A66375  43.877   6.599   6.455
10795POPC   D2A66376  43.922   6.596   6.755
10795POPC   C3A66377  43.903   6.598   7.055
10795POPC   C4A66378  43.903   6.658   7.355
10795POPC   C1B66379  43.867   6.848   6.455
10795POPC   C2B66380  43.876   6.887   6.755
10795POPC   C3B66381  43.889   6.862   7.055
10795POPC   C4B66382  43.879   6.894   7.355
10796POPC   NC366383  36.098  44.676   5.555
10796POPC   PO466384  36.123  44.652   5.855
10796POPC   GL166385  36.089  44.666   6.155
10796POPC   GL266386  36.122  44.831   6.155
10796POPC   C1A66387  36.152  44.653   6.455
10796POPC   D2A66388  36.119  44.682   6.755
10796POPC   C3A66389  36.111  44.671   7.055
10796POPC   C4A66390  36.101  44.694   7.355
10796POPC   C1B66391  36.078  44.923   6.455
10796POPC   C2B66392  36.151  44.916   6.755
10796POPC   C3B66393  36.129  44.958   7.055
10796POPC   C4B66394  36.149  44.933   7.355
10797POPC   NC366395  31.437  11.329   5.555
10797POPC   PO466396  31.447  11.283   5.855
10797POPC   GL166397  31.497  11.324   6.155
10797POPC   GL266398  31.408  11.453   6.155
10797POPC   C1A66399  31.515  11.268   6.455
10797POPC   D2A66400  31.483  11.268   6.755
10797POPC   C3A66401  31.512  11.258   7.055
10797POPC   C4A66402  31.430  11.344   7.355
10797POPC   C1B66403  31.288  11.552   6.455
10797POPC   C2B66404  31.349  11.485   6.755
10797POPC   C3B66405  31.298  11.497   7.055
10797POPC   C4B66406  31.379  11.477   7.355
10798POPC   NC366407  24.468  31.433   5.555
10798POPC   PO466408  24.500  31.501   5.855
10798POPC   GL166409  24.524  31.423   6.155
10798POPC   GL266410  24.575  31.407   6.155
10798POPC   C1A66411  24.521  31.478   6.455
10798POPC   D2A66412  24.525  31.436   6.755
10798POPC   C3A66413  24.444  31.504   7.055
10798POPC   C4A66414  24.503  31.474   7.355
10798POPC   C1B66415  24.691  31.352   6.455
10798POPC   C2B66416  24.667  31.291   6.755
10798POPC   C3B66417  24.653  31.315   7.055
10798POPC   C4B66418  24.700  31.267   7.355
10799POPC   NC366419  11.299  14.385   5.555
10799POPC   PO466420  11.345  14.393   5.855
10799POPC   GL166421  11.281  14.451   6.155
10799POPC   GL266422  11.194  14.481   6.155
10799POPC   C1A66423  11.272  14.388   6.455
10799POPC   D2A66424  11.269  14.429   6.755
10799POPC   C3A66425  11.327  14.374   7.055
10799POPC   C4A66426  11.282  14.415   7.355
10799POPC   C1B66427  11.190  14.650   6.455
10799POPC   C2B66428  11.191  14.615   6.755
10799POPC   C3B66429  11.135  14.634   7.055
10799POPC   C4B66430  11.142  14.579   7.355
10800POPC   NC366431   0.456  13.588   5.555
10800POPC   PO466432   0.460  13.660   5.855
10800POPC   GL166433   0.426  13.586   6.155
10800POPC   GL266434   0.461  13.482   6.155
10800POPC   C1A66435   0.454  13.639   6.455
10800POPC   D2A66436   0.410  13.641   6.755
10800POPC   C3A66437   0.421  13.642   7.055
10800POPC   C4A66438   0.460  13.644   7.355
10800POPC   C1B66439   0.512  13.352   6.455
10800POPC   C2B66440   0.501  13.400   6.755
10800POPC   C3B66441   0.537  13.398   7.055
10800POPC   C4B66442   0.494  13.416   7.355
10801POPC   NC366443  18.276   3.558   5.555
10801POPC   PO466444  18.320   3.545   5.855
10801POPC   GL166445  18.235   3.502   6.155
10801POPC   GL266446  18.218   3.659   6.155
10801POPC   C1A66447  18.267   3.500   6.455
10801POPC   D2A66448  18.291   3.555   6.755
10801POPC   C3A66449  18.319   3.575   7.055
10801POPC   C4A66450  18.321   3.534   7.355
10801POPC   C1B66451  18.071   3.743   6.455
10801POPC   C2B66452  18.128   3.681   6.755
10801POPC   C3B66453  18.138   3.700   7.055
10801POPC   C4B66454  18.142   3.705   7.355
10802POPC   NC366455   5.116  30.736   5.555
10802POPC   PO466456   5.136  30.726   5.855
10802POPC   GL166457   5.103  30.731   6.155
10802POPC   GL266458   4.989  30.768   6.155
10802POPC   C1A66459   5.079  30.692   6.455
10802POPC   D2A66460   5.069  30.719   6.755
10802POPC   C3A66461   5.140  30.719   7.055
10802POPC   C4A66462   5.082  30.736   7.355
10802POPC   C1B66463   4.860  30.873   6.455
10802POPC   C2B66464   4.868  30.841   6.755
10802POPC   C3B66465   4.884  30.809   7.055
10802POPC   C4B66466   4.926  30.852   7.355
10803POPC   NC366467  22.946  33.059   5.555
10803POPC   PO466468  22.975  33.034   5.855
10803POPC   GL166469  22.893  33.044   6.155
10803POPC   GL266470  22.863  32.878   6.155
10803POPC   C1A66471  22.956  33.019   6.455
10803POPC   D2A66472  22.982  33.046   6.755
10803POPC   C3A66473  22.942  33.039   7.055
10803POPC   C4A66474  22.942  33.018   7.355
10803POPC   C1B66475  22.915  32.764   6.455
10803POPC   C2B66476  22.824  32.804   6.755
10803POPC   C3B66477  22.856  32.791   7.055
10803POPC   C4B66478  22.837  32.764   7.355
10804POPC   NC366479  24.491   4.319   5.555
10804POPC   PO466480  24.479   4.332   5.855
10804POPC   GL166481  24.471   4.310   6.155
10804POPC   GL266482  24.554   4.390   6.155
10804POPC   C1A66483  24.468   4.312   6.455
10804POPC   D2A66484  24.465   4.318   6.755
10804POPC   C3A66485  24.497   4.292   7.055
10804POPC   C4A66486  24.501   4.306   7.355
10804POPC   C1B66487  24.622   4.573   6.455
10804POPC   C2B66488  24.606   4.500   6.755
10804POPC   C3B66489  24.651   4.535   7.055
10804POPC   C4B66490  24.613   4.578   7.355
10805POPC   NC366491  24.485  26.030   5.555
10805POPC   PO466492  24.517  25.995   5.855
10805POPC   GL166493  24.462  26.035   6.155
10805POPC   GL266494  24.551  26.159   6.155
10805POPC   C1A66495  24.497  26.089   6.455
10805POPC   D2A66496  24.476  26.055   6.755
10805POPC   C3A66497  24.460  26.017   7.055
10805POPC   C4A66498  24.514  25.999   7.355
10805POPC   C1B66499  24.707  26.190   6.455
10805POPC   C2B66500  24.713  26.245   6.755
10805POPC   C3B66501  24.700  26.249   7.055
10805POPC   C4B66502  24.654  26.244   7.355
10806POPC   NC366503  39.256  15.917   5.555
10806POPC   PO466504  39.212  15.991   5.855
10806POPC   GL166505  39.189  15.993   6.155
10806POPC   GL266506  39.154  16.022   6.155
10806POPC   C1A66507  39.232  15.994   6.455
10806POPC   D2A66508  39.191  15.980   6.755
10806POPC   C3A66509  39.249  15.911   7.055
10806POPC   C4A66510  39.219  15.996   7.355
10806POPC   C1B66511  39.132  16.208   6.455
10806POPC   C2B66512  39.105  16.120   6.755
10806POPC   C3B66513  39.121  16.198   7.055
10806POPC   C4B66514  39.083  16.161   7.355
10807POPC   NC366515  41.581  22.175   5.555
10807POPC   PO466516  41.601  22.165   5.855
10807POPC   GL166517  41.580  22.157   6.155
10807POPC   GL266518  41.470  22.313   6.155
10807POPC   C1A66519  41.558  22.113   6.455
10807POPC   D2A66520  41.576  22.165   6.755
10807POPC   C3A66521  41.597  22.162   7.055
10807POPC   C4A66522  41.545  22.138   7.355
10807POPC   C1B66523  41.465  22.377   6.455
10807POPC   C2B66524  41.402  22.347   6.755
10807POPC   C3B66525  41.409  22.385   7.055
10807POPC   C4B66526  41.470  22.393   7.355
10808POPC   NC366527   3.538  15.134   5.555
10808POPC   PO466528   3.508  15.196   5.855
10808POPC   GL166529   3.521  15.225   6.155
10808POPC   GL266530   3.689  15.216   6.155
10808POPC   C1A66531   3.525  15.215   6.455
10808POPC   D2A66532   3.517  15.150   6.755
10808POPC   C3A66533   3.542  15.142   7.055
10808POPC   C4A66534   3.557  15.187   7.355
10808POPC   C1B66535   3.782  15.354   6.455
10808POPC   C2B66536   3.756  15.277   6.755
10808POPC   C3B66537   3.755  15.276   7.055
10808POPC   C4B66538   3.717  15.351   7.355
10809POPC   NC366539   8.225  38.433   5.555
10809POPC   PO466540   8.159  38.468   5.855
10809POPC   GL166541   8.243  38.448   6.155
10809POPC   GL266542   8.338  38.337   6.155
10809POPC   C1A66543   8.178  38.484   6.455
10809POPC   D2A66544   8.195  38.500   6.755
10809POPC   C3A66545   8.236  38.406   7.055
10809POPC   C4A66546   8.180  38.495   7.355
10809POPC   C1B66547   8.374  38.328   6.455
10809POPC   C2B66548   8.393  38.275   6.755
10809POPC   C3B66549   8.383  38.295   7.055
10809POPC   C4B66550   8.416  38.273   7.355
10810POPC   NC366551  19.078  33.841   5.555
10810POPC   PO466552  19.044  33.845   5.855
10810POPC   GL166553  19.107  33.848   6.155
10810POPC   GL266554  19.099  33.641   6.155
10810POPC   C1A66555  19.058  33.754   6.455
10810POPC   D2A66556  19.101  33.824   6.755
10810POPC   C3A66557  19.041  33.825   7.055
10810POPC   C4A66558  19.019  33.773   7.355
10810POPC   C1B66559  19.015  33.566   6.455
10810POPC   C2B66560  19.092  33.550   6.755
10810POPC   C3B66561  19.031  33.521   7.055
10810POPC   C4B66562  19.007  33.555   7.355
10811POPC   NC366563  42.337  41.566   5.555
10811POPC   PO466564  42.305  41.595   5.855
10811POPC   GL166565  42.345  41.572   6.155
10811POPC   GL266566  42.331  41.422   6.155
10811POPC   C1A66567  42.326  41.568   6.455
10811POPC   D2A66568  42.344  41.569   6.755
10811POPC   C3A66569  42.313  41.549   7.055
10811POPC   C4A66570  42.321  41.530   7.355
10811POPC   C1B66571  42.298  41.260   6.455
10811POPC   C2B66572  42.375  41.341   6.755
10811POPC   C3B66573  42.336  41.293   7.055
10811POPC   C4B66574  42.358  41.292   7.355
10812POPC   NC366575   5.893   7.415   5.555
10812POPC   PO466576   5.905   7.379   5.855
10812POPC   GL166577   5.885   7.445   6.155
10812POPC   GL266578   5.956   7.482   6.155
10812POPC   C1A66579   5.825   7.429   6.455
10812POPC   D2A66580   5.904   7.450   6.755
10812POPC   C3A66581   5.878   7.447   7.055
10812POPC   C4A66582   5.833   7.415   7.355
10812POPC   C1B66583   6.144   7.425   6.455
10812POPC   C2B66584   6.095   7.506   6.755
10812POPC   C3B66585   6.084   7.421   7.055
10812POPC   C4B66586   6.156   7.429   7.355
10813POPC   NC366587   4.280  25.279   5.555
10813POPC   PO466588   4.282  25.294   5.855
10813POPC   GL166589   4.361  25.286   6.155
10813POPC   GL266590   4.347  25.338   6.155
10813POPC   C1A66591   4.360  25.308   6.455
10813POPC   D2A66592   4.298  25.315   6.755
10813POPC   C3A66593   4.321  25.256   7.055
10813POPC   C4A66594   4.328  25.234   7.355
10813POPC   C1B66595   4.405  25.525   6.455
10813POPC   C2B66596   4.443  25.458   6.755
10813POPC   C3B66597   4.449  25.501   7.055
10813POPC   C4B66598   4.429  25.532   7.355
10814POPC   NC366599  21.409  35.321   5.555
10814POPC   PO466600  21.368  35.308   5.855
10814POPC   GL166601  21.370  35.374   6.155
10814POPC   GL266602  21.321  35.268   6.155
10814POPC   C1A66603  21.374  35.324   6.455
10814POPC   D2A66604  21.399  35.364   6.755
10814POPC   C3A66605  21.384  35.360   7.055
10814POPC   C4A66606  21.408  35.385   7.355
10814POPC   C1B66607  21.200  35.145   6.455
10814POPC   C2B66608  21.240  35.220   6.755
10814POPC   C3B66609  21.185  35.148   7.055
10814POPC   C4B66610  21.216  35.148   7.355
10815POPC   NC366611  39.978  10.570   5.555
10815POPC   PO466612  40.030  10.545   5.855
10815POPC   GL166613  40.031  10.512   6.155
10815POPC   GL266614  39.924  10.449   6.155
10815POPC   C1A66615  39.967  10.496   6.455
10815POPC   D2A66616  40.056  10.504   6.755
10815POPC   C3A66617  39.995  10.553   7.055
10815POPC   C4A66618  40.011  10.521   7.355
10815POPC   C1B66619  39.820  10.338   6.455
10815POPC   C2B66620  39.851  10.352   6.755
10815POPC   C3B66621  39.786  10.349   7.055
10815POPC   C4B66622  39.791  10.421   7.355
10816POPC   NC366623   1.201  19.864   5.555
10816POPC   PO466624   1.244  19.785   5.855
10816POPC   GL166625   1.225  19.827   6.155
10816POPC   GL266626   1.209  19.931   6.155
10816POPC   C1A66627   1.228  19.821   6.455
10816POPC   D2A66628   1.182  19.874   6.755
10816POPC   C3A66629   1.215  19.832   7.055
10816POPC   C4A66630   1.215  19.874   7.355
10816POPC   C1B66631   1.195  20.071   6.455
10816POPC   C2B66632   1.194  20.085   6.755
10816POPC   C3B66633   1.160  20.055   7.055
10816POPC   C4B66634   1.207  20.037   7.355
10817POPC   NC366635  30.736  15.933   5.555
10817POPC   PO466636  30.689  15.972   5.855
10817POPC   GL166637  30.693  15.941   6.155
10817POPC   GL266638  30.541  15.897   6.155
10817POPC   C1A66639  30.686  15.974   6.455
10817POPC   D2A66640  30.740  15.929   6.755
10817POPC   C3A66641  30.692  16.001   7.055
10817POPC   C4A66642  30.735  16.000   7.355
10817POPC   C1B66643  30.417  15.890   6.455
10817POPC   C2B66644  30.484  15.917   6.755
10817POPC   C3B66645  30.498  15.857   7.055
10817POPC   C4B66646  30.472  15.841   7.355
10818POPC   NC366647   6.689  14.355   5.555
10818POPC   PO466648   6.630  14.403   5.855
10818POPC   GL166649   6.683  14.360   6.155
10818POPC   GL266650   6.701  14.473   6.155
10818POPC   C1A66651   6.611  14.417   6.455
10818POPC   D2A66652   6.632  14.379   6.755
10818POPC   C3A66653   6.606  14.443   7.055
10818POPC   C4A66654   6.666  14.397   7.355
10818POPC   C1B66655   6.814  14.646   6.455
10818POPC   C2B66656   6.790  14.573   6.755
10818POPC   C3B66657   6.781  14.615   7.055
10818POPC   C4B66658   6.781  14.598   7.355
10819POPC   NC366659  22.157  41.585   5.555
10819POPC   PO466660  22.143  41.557   5.855
10819POPC   GL166661  22.124  41.565   6.155
10819POPC   GL266662  22.090  41.485   6.155
10819POPC   C1A66663  22.138  41.533   6.455
10819POPC   D2A66664  22.178  41.563   6.755
10819POPC   C3A66665  22.169  41.552   7.055
10819POPC   C4A66666  22.185  41.555   7.355
10819POPC   C1B66667  22.104  41.353   6.455
10819POPC   C2B66668  22.112  41.365   6.755
10819POPC   C3B66669  22.095  41.302   7.055
10819POPC   C4B66670  22.054  41.291   7.355
10820POPC   NC366671   2.011   9.787   5.555
10820POPC   PO466672   1.995   9.723   5.855
10820POPC   GL166673   1.968   9.725   6.155
10820POPC   GL266674   1.991   9.897   6.155
10820POPC   C1A66675   2.001   9.768   6.455
10820POPC   D2A66676   1.993   9.742   6.755
10820POPC   C3A66677   1.995   9.705   7.055
10820POPC   C4A66678   1.985   9.707   7.355
10820POPC   C1B66679   1.927   9.956   6.455
10820POPC   C2B66680   1.919   9.949   6.755
10820POPC   C3B66681   1.934   9.949   7.055
10820POPC   C4B66682   1.904  10.011   7.355
10821POPC   NC366683  24.506  33.846   5.555
10821POPC   PO466684  24.466  33.778   5.855
10821POPC   GL166685  24.497  33.821   6.155
10821POPC   GL266686  24.566  33.815   6.155
10821POPC   C1A66687  24.488  33.805   6.455
10821POPC   D2A66688  24.499  33.782   6.755
10821POPC   C3A66689  24.489  33.792   7.055
10821POPC   C4A66690  24.531  33.830   7.355
10821POPC   C1B66691  24.728  33.782   6.455
10821POPC   C2B66692  24.773  33.854   6.755
10821POPC   C3B66693  24.733  33.854   7.055
10821POPC   C4B66694  24.728  33.818   7.355
10822POPC   NC366695  15.192  31.446   5.555
10822POPC   PO466696  15.167  31.496   5.855
10822POPC   GL166697  15.141  31.517   6.155
10822POPC   GL266698  15.091  31.406   6.155
10822POPC   C1A66699  15.179  31.493   6.455
10822POPC   D2A66700  15.203  31.451   6.755
10822POPC   C3A66701  15.178  31.475   7.055
10822POPC   C4A66702  15.142  31.497   7.355
10822POPC   C1B66703  15.031  31.272   6.455
10822POPC   C2B66704  14.972  31.358   6.755
10822POPC   C3B66705  14.999  31.356   7.055
10822POPC   C4B66706  14.967  31.299   7.355
10823POPC   NC366707   3.548   1.225   5.555
10823POPC   PO466708   3.544   1.180   5.855
10823POPC   GL166709   3.546   1.229   6.155
10823POPC   GL266710   3.627   1.138   6.155
10823POPC   C1A66711   3.561   1.248   6.455
10823POPC   D2A66712   3.500   1.232   6.755
10823POPC   C3A66713   3.506   1.247   7.055
10823POPC   C4A66714   3.584   1.228   7.355
10823POPC   C1B66715   3.634   0.981   6.455
10823POPC   C2B66716   3.613   1.013   6.755
10823POPC   C3B66717   3.624   0.939   7.055
10823POPC   C4B66718   3.648   0.954   7.355
10824POPC   NC366719  19.834  14.443   5.555
10824POPC   PO466720  19.882  14.452   5.855
10824POPC   GL166721  19.846  14.365   6.155
10824POPC   GL266722  19.732  14.413   6.155
10824POPC   C1A66723  19.880  14.373   6.455
10824POPC   D2A66724  19.872  14.363   6.755
10824POPC   C3A66725  19.841  14.374   7.055
10824POPC   C4A66726  19.822  14.394   7.355
10824POPC   C1B66727  19.572  14.438   6.455
10824POPC   C2B66728  19.567  14.438   6.755
10824POPC   C3B66729  19.551  14.403   7.055
10824POPC   C4B66730  19.603  14.428   7.355
10825POPC   NC366731  10.539  33.016   5.555
10825POPC   PO466732  10.564  33.050   5.855
10825POPC   GL166733  10.486  33.033   6.155
10825POPC   GL266734  10.636  33.012   6.155
10825POPC   C1A66735  10.487  33.064   6.455
10825POPC   D2A66736  10.479  33.028   6.755
10825POPC   C3A66737  10.511  33.024   7.055
10825POPC   C4A66738  10.569  33.011   7.355
10825POPC   C1B66739  10.796  32.968   6.455
10825POPC   C2B66740  10.798  32.977   6.755
10825POPC   C3B66741  10.728  32.936   7.055
10825POPC   C4B66742  10.798  32.940   7.355
10826POPC   NC366743  12.106  25.241   5.555
10826POPC   PO466744  12.036  25.237   5.855
10826POPC   GL166745  12.048  25.294   6.155
10826POPC   GL266746  12.126  25.132   6.155
10826POPC   C1A66747  12.081  25.288   6.455
10826POPC   D2A66748  12.041  25.279   6.755
10826POPC   C3A66749  12.082  25.300   7.055
10826POPC   C4A66750  12.050  25.246   7.355
10826POPC   C1B66751  12.176  25.014   6.455
10826POPC   C2B66752  12.176  25.011   6.755
10826POPC   C3B66753  12.214  25.070   7.055
10826POPC   C4B66754  12.248  25.087   7.355
10827POPC   NC366755  32.242  18.258   5.555
10827POPC   PO466756  32.240  18.325   5.855
10827POPC   GL166757  32.225  18.238   6.155
10827POPC   GL266758  32.275  18.174   6.155
10827POPC   C1A66759  32.268  18.329   6.455
10827POPC   D2A66760  32.220  18.253   6.755
10827POPC   C3A66761  32.273  18.287   7.055
10827POPC   C4A66762  32.227  18.262   7.355
10827POPC   C1B66763  32.292  18.040   6.455
10827POPC   C2B66764  32.258  18.004   6.755
10827POPC   C3B66765  32.310  18.034   7.055
10827POPC   C4B66766  32.266  18.046   7.355
10828POPC   NC366767  12.097  29.140   5.555
10828POPC   PO466768  12.073  29.122   5.855
10828POPC   GL166769  12.046  29.166   6.155
10828POPC   GL266770  12.054  29.071   6.155
10828POPC   C1A66771  12.036  29.103   6.455
10828POPC   D2A66772  12.110  29.161   6.755
10828POPC   C3A66773  12.041  29.144   7.055
10828POPC   C4A66774  12.126  29.187   7.355
10828POPC   C1B66775  11.932  28.957   6.455
10828POPC   C2B66776  11.983  28.925   6.755
10828POPC   C3B66777  11.937  28.942   7.055
10828POPC   C4B66778  11.984  28.941   7.355
10829POPC   NC366779  40.787  20.575   5.555
10829POPC   PO466780  40.769  20.607   5.855
10829POPC   GL166781  40.802  20.624   6.155
10829POPC   GL266782  40.683  20.551   6.155
10829POPC   C1A66783  40.738  20.570   6.455
10829POPC   D2A66784  40.761  20.654   6.755
10829POPC   C3A66785  40.797  20.614   7.055
10829POPC   C4A66786  40.787  20.612   7.355
10829POPC   C1B66787  40.546  20.514   6.455
10829POPC   C2B66788  40.543  20.492   6.755
10829POPC   C3B66789  40.553  20.477   7.055
10829POPC   C4B66790  40.555  20.481   7.355
10830POPC   NC366791  36.142  30.730   5.555
10830POPC   PO466792  36.134  30.735   5.855
10830POPC   GL166793  36.165  30.684   6.155
10830POPC   GL266794  36.053  30.761   6.155
10830POPC   C1A66795  36.147  30.657   6.455
10830POPC   D2A66796  36.117  30.666   6.755
10830POPC   C3A66797  36.171  30.680   7.055
10830POPC   C4A66798  36.147  30.720   7.355
10830POPC   C1B66799  35.926  30.806   6.455
10830POPC   C2B66800  35.937  30.815   6.755
10830POPC   C3B66801  35.955  30.847   7.055
10830POPC   C4B66802  35.887  30.783   7.355
10831POPC   NC366803  41.604  24.480   5.555
10831POPC   PO466804  41.521  24.490   5.855
10831POPC   GL166805  41.516  24.509   6.155
10831POPC   GL266806  41.487  24.582   6.155
10831POPC   C1A66807  41.539  24.526   6.455
10831POPC   D2A66808  41.573  24.464   6.755
10831POPC   C3A66809  41.547  24.466   7.055
10831POPC   C4A66810  41.514  24.499   7.355
10831POPC   C1B66811  41.436  24.745   6.455
10831POPC   C2B66812  41.488  24.775   6.755
10831POPC   C3B66813  41.490  24.749   7.055
10831POPC   C4B66814  41.513  24.716   7.355
10832POPC   NC366815  32.244  11.254   5.555
10832POPC   PO466816  32.203  11.264   5.855
10832POPC   GL166817  32.226  11.308   6.155
10832POPC   GL266818  32.391  11.290   6.155
10832POPC   C1A66819  32.282  11.270   6.455
10832POPC   D2A66820  32.279  11.264   6.755
10832POPC   C3A66821  32.265  11.254   7.055
10832POPC   C4A66822  32.242  11.302   7.355
10832POPC   C1B66823  32.526  11.205   6.455
10832POPC   C2B66824  32.497  11.286   6.755
10832POPC   C3B66825  32.448  11.210   7.055
10832POPC   C4B66826  32.495  11.217   7.355
10833POPC   NC366827  10.504  15.921   5.555
10833POPC   PO466828  10.487  15.987   5.855
10833POPC   GL166829  10.527  15.982   6.155
10833POPC   GL266830  10.503  16.110   6.155
10833POPC   C1A66831  10.504  15.929   6.455
10833POPC   D2A66832  10.493  15.999   6.755
10833POPC   C3A66833  10.476  15.992   7.055
10833POPC   C4A66834  10.498  15.967   7.355
10833POPC   C1B66835  10.490  16.198   6.455
10833POPC   C2B66836  10.465  16.195   6.755
10833POPC   C3B66837  10.449  16.163   7.055
10833POPC   C4B66838  10.430  16.201   7.355
10834POPC   NC366839  12.071  19.870   5.555
10834POPC   PO466840  12.048  19.864   5.855
10834POPC   GL166841  12.082  19.870   6.155
10834POPC   GL266842  11.967  19.898   6.155
10834POPC   C1A66843  12.093  19.861   6.455
10834POPC   D2A66844  12.086  19.811   6.755
10834POPC   C3A66845  12.054  19.794   7.055
10834POPC   C4A66846  12.103  19.833   7.355
10834POPC   C1B66847  11.808  19.880   6.455
10834POPC   C2B66848  11.848  19.928   6.755
10834POPC   C3B66849  11.851  19.873   7.055
10834POPC   C4B66850  11.858  19.879   7.355
10835POPC   NC366851   1.968  38.498   5.555
10835POPC   PO466852   2.013  38.455   5.855
10835POPC   GL166853   1.983  38.469   6.155
10835POPC   GL266854   2.083  38.493   6.155
10835POPC   C1A66855   2.013  38.491   6.455
10835POPC   D2A66856   2.039  38.466   6.755
10835POPC   C3A66857   1.994  38.410   7.055
10835POPC   C4A66858   2.020  38.492   7.355
10835POPC   C1B66859   2.130  38.650   6.455
10835POPC   C2B66860   2.182  38.635   6.755
10835POPC   C3B66861   2.210  38.591   7.055
10835POPC   C4B66862   2.160  38.600   7.355
10836POPC   NC366863  42.318  17.520   5.555
10836POPC   PO466864  42.320  17.540   5.855
10836POPC   GL166865  42.323  17.534   6.155
10836POPC   GL266866  42.443  17.438   6.155
10836POPC   C1A66867  42.313  17.491   6.455
10836POPC   D2A66868  42.332  17.537   6.755
10836POPC   C3A66869  42.349  17.509   7.055
10836POPC   C4A66870  42.374  17.498   7.355
10836POPC   C1B66871  42.542  17.459   6.455
10836POPC   C2B66872  42.589  17.459   6.755
10836POPC   C3B66873  42.625  17.395   7.055
10836POPC   C4B66874  42.542  17.481   7.355
10837POPC   NC366875  32.228  43.070   5.555
10837POPC   PO466876  32.200  43.125   5.855
10837POPC   GL166877  32.219  43.107   6.155
10837POPC   GL266878  32.112  43.183   6.155
10837POPC   C1A66879  32.230  43.069   6.455
10837POPC   D2A66880  32.201  43.125   6.755
10837POPC   C3A66881  32.218  43.081   7.055
10837POPC   C4A66882  32.202  43.108   7.355
10837POPC   C1B66883  31.970  43.238   6.455
10837POPC   C2B66884  32.035  43.205   6.755
10837POPC   C3B66885  32.029  43.172   7.055
10837POPC   C4B66886  32.024  43.181   7.355
10838POPC   NC366887  19.855  15.164   5.555
10838POPC   PO466888  19.818  15.136   5.855
10838POPC   GL166889  19.854  15.141   6.155
10838POPC   GL266890  19.760  15.190   6.155
10838POPC   C1A66891  19.799  15.174   6.455
10838POPC   D2A66892  19.812  15.133   6.755
10838POPC   C3A66893  19.826  15.142   7.055
10838POPC   C4A66894  19.834  15.147   7.355
10838POPC   C1B66895  19.623  15.193   6.455
10838POPC   C2B66896  19.589  15.218   6.755
10838POPC   C3B66897  19.573  15.218   7.055
10838POPC   C4B66898  19.614  15.198   7.355
10839POPC   NC366899  28.366  35.316   5.555
10839POPC   PO466900  28.387  35.372   5.855
10839POPC   GL166901  28.341  35.345   6.155
10839POPC   GL266902  28.295  35.241   6.155
10839POPC   C1A66903  28.399  35.358   6.455
10839POPC   D2A66904  28.359  35.381   6.755
10839POPC   C3A66905  28.398  35.369   7.055
10839POPC   C4A66906  28.387  35.371   7.355
10839POPC   C1B66907  28.170  35.165   6.455
10839POPC   C2B66908  28.219  35.153   6.755
10839POPC   C3B66909  28.176  35.170   7.055
10839POPC   C4B66910  28.160  35.171   7.355
10840POPC   NC366911  31.486   0.455   5.555
10840POPC   PO466912  31.501   0.418   5.855
10840POPC   GL166913  31.450   0.410   6.155
10840POPC   GL266914  31.451   0.314   6.155
10840POPC   C1A66915  31.514   0.487   6.455
10840POPC   D2A66916  31.517   0.402   6.755
10840POPC   C3A66917  31.464   0.393   7.055
10840POPC   C4A66918  31.490   0.417   7.355
10840POPC   C1B66919  31.525   0.182   6.455
10840POPC   C2B66920  31.520   0.161   6.755
10840POPC   C3B66921  31.506   0.215   7.055
10840POPC   C4B66922  31.473   0.169   7.355
10841POPC   NC366923   5.919  42.346   5.555
10841POPC   PO466924   5.852  42.375   5.855
10841POPC   GL166925   5.842  42.367   6.155
10841POPC   GL266926   5.948  42.408   6.155
10841POPC   C1A66927   5.879  42.350   6.455
10841POPC   D2A66928   5.899  42.331   6.755
10841POPC   C3A66929   5.854  42.303   7.055
10841POPC   C4A66930   5.887  42.374   7.355
10841POPC   C1B66931   6.077  42.464   6.455
10841POPC   C2B66932   6.101  42.403   6.755
10841POPC   C3B66933   6.124  42.482   7.055
10841POPC   C4B66934   6.137  42.466   7.355
10842POPC   NC366935  34.611  21.392   5.555
10842POPC   PO466936  34.529  21.372   5.855
10842POPC   GL166937  34.582  21.412   6.155
10842POPC   GL266938  34.525  21.275   6.155
10842POPC   C1A66939  34.610  21.384   6.455
10842POPC   D2A66940  34.621  21.431   6.755
10842POPC   C3A66941  34.624  21.373   7.055
10842POPC   C4A66942  34.594  21.407   7.355
10842POPC   C1B66943  34.530  21.169   6.455
10842POPC   C2B66944  34.456  21.103   6.755
10842POPC   C3B66945  34.520  21.179   7.055
10842POPC   C4B66946  34.472  21.137   7.355
10843POPC   NC366947   9.793   8.166   5.555
10843POPC   PO466948   9.719   8.154   5.855
10843POPC   GL166949   9.724   8.189   6.155
10843POPC   GL266950   9.872   8.212   6.155
10843POPC   C1A66951   9.745   8.158   6.455
10843POPC   D2A66952   9.775   8.221   6.755
10843POPC   C3A66953   9.711   8.240   7.055
10843POPC   C4A66954   9.762   8.148   7.355
10843POPC   C1B66955  10.012   8.200   6.455
10843POPC   C2B66956   9.994   8.235   6.755
10843POPC   C3B66957  10.014   8.206   7.055
10843POPC   C4B66958  10.008   8.241   7.355
10844POPC   NC366959  18.295  29.889   5.555
10844POPC   PO466960  18.284  29.911   5.855
10844POPC   GL166961  18.313  29.904   6.155
10844POPC   GL266962  18.342  30.068   6.155
10844POPC   C1A66963  18.279  29.887   6.455
10844POPC   D2A66964  18.265  29.879   6.755
10844POPC   C3A66965  18.296  29.965   7.055
10844POPC   C4A66966  18.243  29.941   7.355
10844POPC   C1B66967  18.362  30.139   6.455
10844POPC   C2B66968  18.410  30.198   6.755
10844POPC   C3B66969  18.380  30.149   7.055
10844POPC   C4B66970  18.406  30.149   7.355
10845POPC   NC366971  29.135  22.114   5.555
10845POPC   PO466972  29.127  22.170   5.855
10845POPC   GL166973  29.156  22.189   6.155
10845POPC   GL266974  29.244  22.160   6.155
10845POPC   C1A66975  29.194  22.170   6.455
10845POPC   D2A66976  29.151  22.121   6.755
10845POPC   C3A66977  29.148  22.126   7.055
10845POPC   C4A66978  29.135  22.121   7.355
10845POPC   C1B66979  29.411  22.040   6.455
10845POPC   C2B66980  29.421  22.114   6.755
10845POPC   C3B66981  29.343  22.069   7.055
10845POPC   C4B66982  29.337  22.069   7.355
10846POPC   NC366983   5.071  13.590   5.555
10846POPC   PO466984   5.127  13.664   5.855
10846POPC   GL166985   5.109  13.653   6.155
10846POPC   GL266986   5.104  13.456   6.155
10846POPC   C1A66987   5.087  13.630   6.455
10846POPC   D2A66988   5.058  13.590   6.755
10846POPC   C3A66989   5.130  13.578   7.055
10846POPC   C4A66990   5.092  13.648   7.355
10846POPC   C1B66991   5.100  13.339   6.455
10846POPC   C2B66992   5.081  13.351   6.755
10846POPC   C3B66993   5.039  13.367   7.055
10846POPC   C4B66994   5.030  13.395   7.355
10847POPC   NC366995  11.331  19.053   5.555
10847POPC   PO466996  11.322  19.090   5.855
10847POPC   GL166997  11.347  19.028   6.155
10847POPC   GL266998  11.392  19.118   6.155
10847POPC   C1A66999  11.330  19.077   6.455
10847POPC   D2A67000  11.295  19.096   6.755
10847POPC   C3A67001  11.324  19.065   7.055
10847POPC   C4A67002  11.320  19.021   7.355
10847POPC   C1B67003  11.478  19.284   6.455
10847POPC   C2B67004  11.467  19.260   6.755
10847POPC   C3B67005  11.480  19.287   7.055
10847POPC   C4B67006  11.481  19.284   7.355
10848POPC   NC367007  31.519  32.240   5.555
10848POPC   PO467008  31.443  32.256   5.855
10848POPC   GL167009  31.473  32.288   6.155
10848POPC   GL267010  31.601  32.162   6.155
10848POPC   C1A67011  31.455  32.240   6.455
10848POPC   D2A67012  31.445  32.252   6.755
10848POPC   C3A67013  31.495  32.241   7.055
10848POPC   C4A67014  31.429  32.243   7.355
10848POPC   C1B67015  31.651  32.104   6.455
10848POPC   C2B67016  31.620  32.066   6.755
10848POPC   C3B67017  31.629  32.075   7.055
10848POPC   C4B67018  31.621  32.079   7.355
10849POPC   NC367019  42.377  38.483   5.555
10849POPC   PO467020  42.298  38.486   5.855
10849POPC   GL167021  42.367  38.464   6.155
10849POPC   GL267022  42.313  38.383   6.155
10849POPC   C1A67023  42.351  38.495   6.455
10849POPC   D2A67024  42.321  38.482   6.755
10849POPC   C3A67025  42.329  38.459   7.055
10849POPC   C4A67026  42.377  38.408   7.355
10849POPC   C1B67027  42.167  38.260   6.455
10849POPC   C2B67028  42.195  38.200   6.755
10849POPC   C3B67029  42.172  38.239   7.055
10849POPC   C4B67030  42.187  38.229   7.355
10850POPC   NC367031  30.676  28.384   5.555
10850POPC   PO467032  30.679  28.338   5.855
10850POPC   GL167033  30.734  28.396   6.155
10850POPC   GL267034  30.687  28.460   6.155
10850POPC   C1A67035  30.653  28.341   6.455
10850POPC   D2A67036  30.682  28.338   6.755
10850POPC   C3A67037  30.742  28.329   7.055
10850POPC   C4A67038  30.695  28.366   7.355
10850POPC   C1B67039  30.579  28.566   6.455
10850POPC   C2B67040  30.579  28.551   6.755
10850POPC   C3B67041  30.588  28.588   7.055
10850POPC   C4B67042  30.567  28.559   7.355
10851POPC   NC367043  37.661  15.179   5.555
10851POPC   PO467044  37.718  15.228   5.855
10851POPC   GL167045  37.704  15.172   6.155
10851POPC   GL267046  37.786  15.089   6.155
10851POPC   C1A67047  37.666  15.166   6.455
10851POPC   D2A67048  37.631  15.179   6.755
10851POPC   C3A67049  37.693  15.184   7.055
10851POPC   C4A67050  37.725  15.219   7.355
10851POPC   C1B67051  37.918  15.066   6.455
10851POPC   C2B67052  37.881  15.117   6.755
10851POPC   C3B67053  37.918  15.108   7.055
10851POPC   C4B67054  37.865  15.064   7.355
10852POPC   NC367055  22.907  31.474   5.555
10852POPC   PO467056  22.925  31.511   5.855
10852POPC   GL167057  22.907  31.509   6.155
10852POPC   GL267058  22.905  31.315   6.155
10852POPC   C1A67059  22.921  31.469   6.455
10852POPC   D2A67060  22.972  31.431   6.755
10852POPC   C3A67061  22.957  31.506   7.055
10852POPC   C4A67062  22.897  31.508   7.355
10852POPC   C1B67063  22.857  31.268   6.455
10852POPC   C2B67064  22.881  31.228   6.755
10852POPC   C3B67065  22.809  31.205   7.055
10852POPC   C4B67066  22.848  31.258   7.355
10853POPC   NC367067  19.055  33.059   5.555
10853POPC   PO467068  19.025  33.025   5.855
10853POPC   GL167069  19.046  33.007   6.155
10853POPC   GL267070  19.109  33.143   6.155
10853POPC   C1A67071  19.065  32.982   6.455
10853POPC   D2A67072  19.064  33.024   6.755
10853POPC   C3A67073  19.039  32.975   7.055
10853POPC   C4A67074  19.075  33.067   7.355
10853POPC   C1B67075  19.264  33.154   6.455
10853POPC   C2B67076  19.217  33.193   6.755
10853POPC   C3B67077  19.219  33.235   7.055
10853POPC   C4B67078  19.272  33.160   7.355
10854POPC   NC367079   1.990  19.786   5.555
10854POPC   PO467080   1.952  19.824   5.855
10854POPC   GL167081   2.036  19.790   6.155
10854POPC   GL267082   1.964  19.903   6.155
10854POPC   C1A67083   1.950  19.802   6.455
10854POPC   D2A67084   1.949  19.831   6.755
10854POPC   C3A67085   1.990  19.846   7.055
10854POPC   C4A67086   1.956  19.865   7.355
10854POPC   C1B67087   1.881  20.075   6.455
10854POPC   C2B67088   1.895  20.053   6.755
10854POPC   C3B67089   1.925  20.054   7.055
10854POPC   C4B67090   1.837  20.034   7.355
10855POPC   NC367091   5.140   9.726   5.555
10855POPC   PO467092   5.053   9.740   5.855
10855POPC   GL167093   5.124   9.703   6.155
10855POPC   GL267094   5.057   9.666   6.155
10855POPC   C1A67095   5.108   9.707   6.455
10855POPC   D2A67096   5.048   9.769   6.755
10855POPC   C3A67097   5.098   9.760   7.055
10855POPC   C4A67098   5.113   9.789   7.355
10855POPC   C1B67099   5.088   9.499   6.455
10855POPC   C2B67100   5.120   9.492   6.755
10855POPC   C3B67101   5.133   9.535   7.055
10855POPC   C4B67102   5.138   9.512   7.355
10856POPC   NC367103  39.991   1.216   5.555
10856POPC   PO467104  40.046   1.201   5.855
10856POPC   GL167105  39.963   1.199   6.155
10856POPC   GL267106  39.958   1.129   6.155
10856POPC   C1A67107  39.973   1.191   6.455
10856POPC   D2A67108  40.013   1.177   6.755
10856POPC   C3A67109  40.027   1.262   7.055
10856POPC   C4A67110  40.054   1.182   7.355
10856POPC   C1B67111  39.789   1.034   6.455
10856POPC   C2B67112  39.789   1.062   6.755
10856POPC   C3B67113  39.841   1.109   7.055
10856POPC   C4B67114  39.845   1.082   7.355
10857POPC   NC367115  32.203  21.379   5.555
10857POPC   PO467116  32.217  21.414   5.855
10857POPC   GL167117  32.212  21.365   6.155
10857POPC   GL267118  32.254  21.543   6.155
10857POPC   C1A67119  32.223  21.385   6.455
10857POPC   D2A67120  32.216  21.399   6.755
10857POPC   C3A67121  32.295  21.411   7.055
10857POPC   C4A67122  32.290  21.340   7.355
10857POPC   C1B67123  32.129  21.585   6.455
10857POPC   C2B67124  32.144  21.619   6.755
10857POPC   C3B67125  32.155  21.606   7.055
10857POPC   C4B67126  32.202  21.628   7.355
10858POPC   NC367127  31.433   2.016   5.555
10858POPC   PO467128  31.424   2.002   5.855
10858POPC   GL167129  31.508   1.999   6.155
10858POPC   GL267130  31.525   2.105   6.155
10858POPC   C1A67131  31.436   2.037   6.455
10858POPC   D2A67132  31.504   2.012   6.755
10858POPC   C3A67133  31.502   1.968   7.055
10858POPC   C4A67134  31.495   1.970   7.355
10858POPC   C1B67135  31.534   2.233   6.455
10858POPC   C2B67136  31.531   2.257   6.755
10858POPC   C3B67137  31.493   2.246   7.055
10858POPC   C4B67138  31.492   2.251   7.355
10859POPC   NC367139  15.205  42.300   5.555
10859POPC   PO467140  15.148  42.384   5.855
10859POPC   GL167141  15.205  42.313   6.155
10859POPC   GL267142  15.208  42.445   6.155
10859POPC   C1A67143  15.136  42.311   6.455
10859POPC   D2A67144  15.218  42.300   6.755
10859POPC   C3A67145  15.140  42.360   7.055
10859POPC   C4A67146  15.218  42.290   7.355
10859POPC   C1B67147  15.214  42.597   6.455
10859POPC   C2B67148  15.216  42.618   6.755
10859POPC   C3B67149  15.170  42.573   7.055
10859POPC   C4B67150  15.208  42.538   7.355
10860POPC   NC367151  19.031  25.239   5.555
10860POPC   PO467152  19.105  25.254   5.855
10860POPC   GL167153  19.073  25.224   6.155
10860POPC   GL267154  18.927  25.292   6.155
10860POPC   C1A67155  19.041  25.315   6.455
10860POPC   D2A67156  19.053  25.216   6.755
10860POPC   C3A67157  19.054  25.309   7.055
10860POPC   C4A67158  19.095  25.296   7.355
10860POPC   C1B67159  18.816  25.390   6.455
10860POPC   C2B67160  18.843  25.399   6.755
10860POPC   C3B67161  18.796  25.356   7.055
10860POPC   C4B67162  18.804  25.393   7.355
10861POPC   NC367163  30.654   5.911   5.555
10861POPC   PO467164  30.679   5.915   5.855
10861POPC   GL167165  30.704   5.860   6.155
10861POPC   GL267166  30.550   5.891   6.155
10861POPC   C1A67167  30.734   5.871   6.455
10861POPC   D2A67168  30.695   5.919   6.755
10861POPC   C3A67169  30.739   5.887   7.055
10861POPC   C4A67170  30.725   5.892   7.355
10861POPC   C1B67171  30.464   5.983   6.455
10861POPC   C2B67172  30.466   5.971   6.755
10861POPC   C3B67173  30.496   6.010   7.055
10861POPC   C4B67174  30.472   5.958   7.355
10862POPC   NC367175   6.600  38.483   5.555
10862POPC   PO467176   6.648  38.422   5.855
10862POPC   GL167177   6.640  38.419   6.155
10862POPC   GL267178   6.537  38.372   6.155
10862POPC   C1A67179   6.597  38.454   6.455
10862POPC   D2A67180   6.684  38.496   6.755
10862POPC   C3A67181   6.656  38.423   7.055
10862POPC   C4A67182   6.653  38.468   7.355
10862POPC   C1B67183   6.390  38.332   6.455
10862POPC   C2B67184   6.384  38.385   6.755
10862POPC   C3B67185   6.388  38.370   7.055
10862POPC   C4B67186   6.382  38.404   7.355
10863POPC   NC367187  31.481   5.897   5.555
10863POPC   PO467188  31.468   5.888   5.855
10863POPC   GL167189  31.511   5.858   6.155
10863POPC   GL267190  31.634   5.942   6.155
10863POPC   C1A67191  31.475   5.881   6.455
10863POPC   D2A67192  31.491   5.862   6.755
10863POPC   C3A67193  31.518   5.874   7.055
10863POPC   C4A67194  31.520   5.905   7.355
10863POPC   C1B67195  31.661   5.944   6.455
10863POPC   C2B67196  31.676   5.968   6.755
10863POPC   C3B67197  31.673   5.978   7.055
10863POPC   C4B67198  31.750   5.976   7.355
10864POPC   NC367199  20.597   5.128   5.555
10864POPC   PO467200  20.621   5.076   5.855
10864POPC   GL167201  20.628   5.140   6.155
10864POPC   GL267202  20.661   5.176   6.155
10864POPC   C1A67203  20.570   5.128   6.455
10864POPC   D2A67204  20.644   5.097   6.755
10864POPC   C3A67205  20.609   5.097   7.055
10864POPC   C4A67206  20.657   5.080   7.355
10864POPC   C1B67207  20.656   5.366   6.455
10864POPC   C2B67208  20.577   5.295   6.755
10864POPC   C3B67209  20.607   5.356   7.055
10864POPC   C4B67210  20.607   5.309   7.355
10865POPC   NC367211  30.694   6.620   5.555
10865POPC   PO467212  30.657   6.672   5.855
10865POPC   GL167213  30.660   6.608   6.155
10865POPC   GL267214  30.600   6.528   6.155
10865POPC   C1A67215  30.736   6.671   6.455
10865POPC   D2A67216  30.670   6.620   6.755
10865POPC   C3A67217  30.734   6.632   7.055
10865POPC   C4A67218  30.663   6.631   7.355
10865POPC   C1B67219  30.629   6.440   6.455
10865POPC   C2B67220  30.570   6.436   6.755
10865POPC   C3B67221  30.576   6.394   7.055
10865POPC   C4B67222  30.613   6.440   7.355
10866POPC   NC367223   1.990  23.723   5.555
10866POPC   PO467224   1.982  23.721   5.855
10866POPC   GL167225   1.956  23.709   6.155
10866POPC   GL267226   2.100  23.631   6.155
10866POPC   C1A67227   2.035  23.677   6.455
10866POPC   D2A67228   1.981  23.749   6.755
10866POPC   C3A67229   1.940  23.692   7.055
10866POPC   C4A67230   1.973  23.671   7.355
10866POPC   C1B67231   2.113  23.521   6.455
10866POPC   C2B67232   2.156  23.521   6.755
10866POPC   C3B67233   2.066  23.470   7.055
10866POPC   C4B67234   2.081  23.520   7.355
10867POPC   NC367235  27.581  29.124   5.555
10867POPC   PO467236  27.624  29.162   5.855
10867POPC   GL167237  27.574  29.161   6.155
10867POPC   GL267238  27.505  29.230   6.155
10867POPC   C1A67239  27.633  29.119   6.455
10867POPC   D2A67240  27.574  29.155   6.755
10867POPC   C3A67241  27.571  29.109   7.055
10867POPC   C4A67242  27.625  29.112   7.355
10867POPC   C1B67243  27.461  29.397   6.455
10867POPC   C2B67244  27.523  29.343   6.755
10867POPC   C3B67245  27.529  29.332   7.055
10867POPC   C4B67246  27.554  29.403   7.355
10868POPC   NC367247  21.411  30.733   5.555
10868POPC   PO467248  21.360  30.666   5.855
10868POPC   GL167249  21.429  30.693   6.155
10868POPC   GL267250  21.353  30.571   6.155
10868POPC   C1A67251  21.348  30.654   6.455
10868POPC   D2A67252  21.382  30.659   6.755
10868POPC   C3A67253  21.340  30.720   7.055
10868POPC   C4A67254  21.410  30.702   7.355
10868POPC   C1B67255  21.221  30.474   6.455
10868POPC   C2B67256  21.231  30.550   6.755
10868POPC   C3B67257  21.205  30.537   7.055
10868POPC   C4B67258  21.211  30.537   7.355
10869POPC   NC367259   5.837   9.791   5.555
10869POPC   PO467260   5.865   9.772   5.855
10869POPC   GL167261   5.908   9.725   6.155
10869POPC   GL267262   5.961   9.678   6.155
10869POPC   C1A67263   5.845   9.757   6.455
10869POPC   D2A67264   5.844   9.733   6.755
10869POPC   C3A67265   5.872   9.724   7.055
10869POPC   C4A67266   5.861   9.714   7.355
10869POPC   C1B67267   6.068   9.707   6.455
10869POPC   C2B67268   6.104   9.662   6.755
10869POPC   C3B67269   6.108   9.716   7.055
10869POPC   C4B67270   6.078   9.724   7.355
10870POPC   NC367271  21.401  41.579   5.555
10870POPC   PO467272  21.432  41.526   5.855
10870POPC   GL167273  21.416  41.550   6.155
10870POPC   GL267274  21.246  41.593   6.155
10870POPC   C1A67275  21.361  41.569   6.455
10870POPC   D2A67276  21.364  41.586   6.755
10870POPC   C3A67277  21.377  41.513   7.055
10870POPC   C4A67278  21.374  41.599   7.355
10870POPC   C1B67279  21.162  41.623   6.455
10870POPC   C2B67280  21.162  41.620   6.755
10870POPC   C3B67281  21.185  41.684   7.055
10870POPC   C4B67282  21.162  41.668   7.355
10871POPC   NC367283  18.272  40.031   5.555
10871POPC   PO467284  18.304  40.004   5.855
10871POPC   GL167285  18.304  40.040   6.155
10871POPC   GL267286  18.380  40.070   6.155
10871POPC   C1A67287  18.275  40.019   6.455
10871POPC   D2A67288  18.262  39.981   6.755
10871POPC   C3A67289  18.323  40.029   7.055
10871POPC   C4A67290  18.249  39.960   7.355
10871POPC   C1B67291  18.462  40.197   6.455
10871POPC   C2B67292  18.515  40.140   6.755
10871POPC   C3B67293  18.435  40.201   7.055
10871POPC   C4B67294  18.419  40.222   7.355
10872POPC   NC367295  36.139   5.877   5.555
10872POPC   PO467296  36.087   5.907   5.855
10872POPC   GL167297  36.147   5.841   6.155
10872POPC   GL267298  36.182   5.775   6.155
10872POPC   C1A67299  36.082   5.883   6.455
10872POPC   D2A67300  36.130   5.880   6.755
10872POPC   C3A67301  36.093   5.890   7.055
10872POPC   C4A67302  36.136   5.836   7.355
10872POPC   C1B67303  36.274   5.600   6.455
10872POPC   C2B67304  36.216   5.660   6.755
10872POPC   C3B67305  36.224   5.626   7.055
10872POPC   C4B67306  36.222   5.618   7.355
10873POPC   NC367307   1.974  39.205   5.555
10873POPC   PO467308   2.037  39.233   5.855
10873POPC   GL167309   1.991  39.207   6.155
10873POPC   GL267310   1.998  39.150   6.155
10873POPC   C1A67311   1.967  39.182   6.455
10873POPC   D2A67312   2.018  39.270   6.755
10873POPC   C3A67313   1.973  39.265   7.055
10873POPC   C4A67314   1.992  39.208   7.355
10873POPC   C1B67315   2.010  38.976   6.455
10873POPC   C2B67316   1.987  39.025   6.755
10873POPC   C3B67317   1.935  38.958   7.055
10873POPC   C4B67318   1.974  38.977   7.355
10874POPC   NC367319  19.072  39.256   5.555
10874POPC   PO467320  19.048  39.274   5.855
10874POPC   GL167321  19.047  39.183   6.155
10874POPC   GL267322  18.989  39.160   6.155
10874POPC   C1A67323  19.038  39.230   6.455
10874POPC   D2A67324  19.024  39.273   6.755
10874POPC   C3A67325  19.057  39.256   7.055
10874POPC   C4A67326  19.080  39.224   7.355
10874POPC   C1B67327  18.844  39.190   6.455
10874POPC   C2B67328  18.775  39.160   6.755
10874POPC   C3B67329  18.786  39.180   7.055
10874POPC   C4B67330  18.819  39.172   7.355
10875POPC   NC367331  24.482  39.220   5.555
10875POPC   PO467332  24.538  39.261   5.855
10875POPC   GL167333  24.481  39.213   6.155
10875POPC   GL267334  24.504  39.083   6.155
10875POPC   C1A67335  24.540  39.189   6.455
10875POPC   D2A67336  24.516  39.264   6.755
10875POPC   C3A67337  24.440  39.266   7.055
10875POPC   C4A67338  24.463  39.216   7.355
10875POPC   C1B67339  24.560  38.996   6.455
10875POPC   C2B67340  24.591  39.047   6.755
10875POPC   C3B67341  24.580  39.003   7.055
10875POPC   C4B67342  24.564  39.013   7.355
10876POPC   NC367343  32.293  36.134   5.555
10876POPC   PO467344  32.248  36.098   5.855
10876POPC   GL167345  32.296  36.086   6.155
10876POPC   GL267346  32.181  36.238   6.155
10876POPC   C1A67347  32.253  36.130   6.455
10876POPC   D2A67348  32.239  36.116   6.755
10876POPC   C3A67349  32.276  36.146   7.055
10876POPC   C4A67350  32.246  36.162   7.355
10876POPC   C1B67351  32.167  36.396   6.455
10876POPC   C2B67352  32.209  36.391   6.755
10876POPC   C3B67353  32.206  36.328   7.055
10876POPC   C4B67354  32.121  36.367   7.355
10877POPC   NC367355  34.564  18.317   5.555
10877POPC   PO467356  34.594  18.298   5.855
10877POPC   GL167357  34.544  18.315   6.155
10877POPC   GL267358  34.504  18.398   6.155
10877POPC   C1A67359  34.555  18.265   6.455
10877POPC   D2A67360  34.564  18.315   6.755
10877POPC   C3A67361  34.608  18.282   7.055
10877POPC   C4A67362  34.554  18.318   7.355
10877POPC   C1B67363  34.449  18.506   6.455
10877POPC   C2B67364  34.361  18.442   6.755
10877POPC   C3B67365  34.458  18.503   7.055
10877POPC   C4B67366  34.454  18.446   7.355
10878POPC   NC367367  40.823  23.698   5.555
10878POPC   PO467368  40.736  23.734   5.855
10878POPC   GL167369  40.795  23.754   6.155
10878POPC   GL267370  40.655  23.770   6.155
10878POPC   C1A67371  40.795  23.755   6.455
10878POPC   D2A67372  40.812  23.684   6.755
10878POPC   C3A67373  40.767  23.762   7.055
10878POPC   C4A67374  40.765  23.694   7.355
10878POPC   C1B67375  40.628  23.888   6.455
10878POPC   C2B67376  40.615  23.830   6.755
10878POPC   C3B67377  40.550  23.880   7.055
10878POPC   C4B67378  40.626  23.911   7.355
10879POPC   NC367379   2.762  30.717   5.555
10879POPC   PO467380   2.795  30.658   5.855
10879POPC   GL167381   2.804  30.738   6.155
10879POPC   GL267382   2.692  30.621   6.155
10879POPC   C1A67383   2.737  30.666   6.455
10879POPC   D2A67384   2.776  30.730   6.755
10879POPC   C3A67385   2.722  30.649   7.055
10879POPC   C4A67386   2.776  30.669   7.355
10879POPC   C1B67387   2.586  30.507   6.455
10879POPC   C2B67388   2.582  30.547   6.755
10879POPC   C3B67389   2.536  30.513   7.055
10879POPC   C4B67390   2.538  30.518   7.355
10880POPC   NC367391  13.629  12.805   5.555
10880POPC   PO467392  13.676  12.824   5.855
10880POPC   GL167393  13.663  12.850   6.155
10880POPC   GL267394  13.677  13.009   6.155
10880POPC   C1A67395  13.613  12.815   6.455
10880POPC   D2A67396  13.677  12.819   6.755
10880POPC   C3A67397  13.630  12.886   7.055
10880POPC   C4A67398  13.652  12.845   7.355
10880POPC   C1B67399  13.628  13.125   6.455
10880POPC   C2B67400  13.632  13.148   6.755
10880POPC   C3B67401  13.648  13.085   7.055
10880POPC   C4B67402  13.686  13.135   7.355
10881POPC   NC367403   5.835  43.863   5.555
10881POPC   PO467404   5.874  43.897   5.855
10881POPC   GL167405   5.832  43.934   6.155
10881POPC   GL267406   6.002  43.885   6.155
10881POPC   C1A67407   5.839  43.850   6.455
10881POPC   D2A67408   5.850  43.914   6.755
10881POPC   C3A67409   5.834  43.851   7.055
10881POPC   C4A67410   5.844  43.887   7.355
10881POPC   C1B67411   6.105  43.993   6.455
10881POPC   C2B67412   6.057  44.006   6.755
10881POPC   C3B67413   6.071  43.930   7.055
10881POPC   C4B67414   6.064  43.970   7.355
10882POPC   NC367415  15.144  17.551   5.555
10882POPC   PO467416  15.131  17.475   5.855
10882POPC   GL167417  15.153  17.459   6.155
10882POPC   GL267418  15.293  17.548   6.155
10882POPC   C1A67419  15.164  17.459   6.455
10882POPC   D2A67420  15.148  17.501   6.755
10882POPC   C3A67421  15.215  17.549   7.055
10882POPC   C4A67422  15.153  17.498   7.355
10882POPC   C1B67423  15.347  17.647   6.455
10882POPC   C2B67424  15.317  17.645   6.755
10882POPC   C3B67425  15.324  17.708   7.055
10882POPC   C4B67426  15.368  17.652   7.355
10883POPC   NC367427  23.719  20.644   5.555
10883POPC   PO467428  23.740  20.593   5.855
10883POPC   GL167429  23.764  20.580   6.155
10883POPC   GL267430  23.827  20.628   6.155
10883POPC   C1A67431  23.748  20.595   6.455
10883POPC   D2A67432  23.688  20.649   6.755
10883POPC   C3A67433  23.741  20.639   7.055
10883POPC   C4A67434  23.710  20.562   7.355
10883POPC   C1B67435  24.008  20.540   6.455
10883POPC   C2B67436  23.942  20.537   6.755
10883POPC   C3B67437  23.955  20.553   7.055
10883POPC   C4B67438  23.977  20.512   7.355
10884POPC   NC367439  34.617  22.192   5.555
10884POPC   PO467440  34.623  22.191   5.855
10884POPC   GL167441  34.553  22.118   6.155
10884POPC   GL267442  34.539  22.038   6.155
10884POPC   C1A67443  34.619  22.171   6.455
10884POPC   D2A67444  34.540  22.152   6.755
10884POPC   C3A67445  34.561  22.167   7.055
10884POPC   C4A67446  34.608  22.206   7.355
10884POPC   C1B67447  34.382  21.996   6.455
10884POPC   C2B67448  34.440  21.963   6.755
10884POPC   C3B67449  34.407  22.025   7.055
10884POPC   C4B67450  34.449  21.978   7.355
10885POPC   NC367451   4.290  26.839   5.555
10885POPC   PO467452   4.322  26.797   5.855
10885POPC   GL167453   4.351  26.843   6.155
10885POPC   GL267454   4.302  26.658   6.155
10885POPC   C1A67455   4.285  26.825   6.455
10885POPC   D2A67456   4.312  26.851   6.755
10885POPC   C3A67457   4.366  26.769   7.055
10885POPC   C4A67458   4.336  26.801   7.355
10885POPC   C1B67459   4.353  26.571   6.455
10885POPC   C2B67460   4.404  26.571   6.755
10885POPC   C3B67461   4.353  26.619   7.055
10885POPC   C4B67462   4.338  26.565   7.355
10886POPC   NC367463  43.077  36.951   5.555
10886POPC   PO467464  43.143  36.909   5.855
10886POPC   GL167465  43.143  36.924   6.155
10886POPC   GL267466  42.975  36.886   6.155
10886POPC   C1A67467  43.128  36.914   6.455
10886POPC   D2A67468  43.122  36.879   6.755
10886POPC   C3A67469  43.081  36.924   7.055
10886POPC   C4A67470  43.142  36.935   7.355
10886POPC   C1B67471  42.921  36.828   6.455
10886POPC   C2B67472  42.903  36.791   6.755
10886POPC   C3B67473  42.869  36.757   7.055
10886POPC   C4B67474  42.902  36.852   7.355
10887POPC   NC367475  29.940  22.203   5.555
10887POPC   PO467476  29.927  22.130   5.855
10887POPC   GL167477  29.896  22.123   6.155
10887POPC   GL267478  29.784  22.103   6.155
10887POPC   C1A67479  29.917  22.191   6.455
10887POPC   D2A67480  29.909  22.138   6.755
10887POPC   C3A67481  29.874  22.202   7.055
10887POPC   C4A67482  29.965  22.172   7.355
10887POPC   C1B67483  29.731  22.029   6.455
10887POPC   C2B67484  29.644  22.052   6.755
10887POPC   C3B67485  29.642  22.126   7.055
10887POPC   C4B67486  29.687  22.085   7.355
10888POPC   NC367487  35.340  25.279   5.555
10888POPC   PO467488  35.380  25.282   5.855
10888POPC   GL167489  35.373  25.275   6.155
10888POPC   GL267490  35.341  25.422   6.155
10888POPC   C1A67491  35.338  25.280   6.455
10888POPC   D2A67492  35.314  25.256   6.755
10888POPC   C3A67493  35.319  25.259   7.055
10888POPC   C4A67494  35.370  25.304   7.355
10888POPC   C1B67495  35.244  25.461   6.455
10888POPC   C2B67496  35.222  25.537   6.755
10888POPC   C3B67497  35.231  25.540   7.055
10888POPC   C4B67498  35.314  25.488   7.355
10889POPC   NC367499  31.495  43.097   5.555
10889POPC   PO467500  31.455  43.147   5.855
10889POPC   GL167501  31.513  43.072   6.155
10889POPC   GL267502  31.600  43.141   6.155
10889POPC   C1A67503  31.454  43.143   6.455
10889POPC   D2A67504  31.504  43.106   6.755
10889POPC   C3A67505  31.482  43.155   7.055
10889POPC   C4A67506  31.424  43.083   7.355
10889POPC   C1B67507  31.663  43.287   6.455
10889POPC   C2B67508  31.711  43.204   6.755
10889POPC   C3B67509  31.647  43.217   7.055
10889POPC   C4B67510  31.642  43.240   7.355
10890POPC   NC367511   0.472  15.152   5.555
10890POPC   PO467512   0.419  15.132   5.855
10890POPC   GL167513   0.447  15.157   6.155
10890POPC   GL267514   0.377  15.127   6.155
10890POPC   C1A67515   0.475  15.151   6.455
10890POPC   D2A67516   0.487  15.213   6.755
10890POPC   C3A67517   0.420  15.152   7.055
10890POPC   C4A67518   0.430  15.223   7.355
10890POPC   C1B67519   0.205  15.035   6.455
10890POPC   C2B67520   0.272  15.010   6.755
10890POPC   C3B67521   0.282  15.049   7.055
10890POPC   C4B67522   0.207  15.042   7.355
10891POPC   NC367523   4.306  36.906   5.555
10891POPC   PO467524   4.364  36.918   5.855
10891POPC   GL167525   4.343  36.887   6.155
10891POPC   GL267526   4.393  36.942   6.155
10891POPC   C1A67527   4.360  36.920   6.455
10891POPC   D2A67528   4.292  36.916   6.755
10891POPC   C3A67529   4.323  36.946   7.055
10891POPC   C4A67530   4.286  36.867   7.355
10891POPC   C1B67531   4.616  36.894   6.455
10891POPC   C2B67532   4.589  36.900   6.755
10891POPC   C3B67533   4.582  36.942   7.055
10891POPC   C4B67534   4.583  36.923   7.355
10892POPC   NC367535  17.475   8.218   5.555
10892POPC   PO467536  17.474   8.198   5.855
10892POPC   GL167537  17.459   8.202   6.155
10892POPC   GL267538  17.477   8.262   6.155
10892POPC   C1A67539  17.523   8.178   6.455
10892POPC   D2A67540  17.510   8.149   6.755
10892POPC   C3A67541  17.496   8.202   7.055
10892POPC   C4A67542  17.465   8.196   7.355
10892POPC   C1B67543  17.388   8.427   6.455
10892POPC   C2B67544  17.336   8.401   6.755
10892POPC   C3B67545  17.321   8.430   7.055
10892POPC   C4B67546  17.364   8.376   7.355
10893POPC   NC367547  19.857  40.041   5.555
10893POPC   PO467548  19.833  40.044   5.855
10893POPC   GL167549  19.848  39.978   6.155
10893POPC   GL267550  19.919  40.130   6.155
10893POPC   C1A67551  19.876  40.012   6.455
10893POPC   D2A67552  19.787  39.995   6.755
10893POPC   C3A67553  19.883  40.048   7.055
10893POPC   C4A67554  19.848  40.057   7.355
10893POPC   C1B67555  20.017  40.228   6.455
10893POPC   C2B67556  19.961  40.239   6.755
10893POPC   C3B67557  20.033  40.220   7.055
10893POPC   C4B67558  19.986  40.176   7.355
10894POPC   NC367559  17.487  15.160   5.555
10894POPC   PO467560  17.509  15.148   5.855
10894POPC   GL167561  17.472  15.228   6.155
10894POPC   GL267562  17.520  15.110   6.155
10894POPC   C1A67563  17.508  15.159   6.455
10894POPC   D2A67564  17.482  15.196   6.755
10894POPC   C3A67565  17.485  15.164   7.055
10894POPC   C4A67566  17.511  15.222   7.355
10894POPC   C1B67567  17.619  14.927   6.455
10894POPC   C2B67568  17.598  14.947   6.755
10894POPC   C3B67569  17.600  14.997   7.055
10894POPC   C4B67570  17.599  14.994   7.355
10895POPC   NC367571   1.948  43.157   5.555
10895POPC   PO467572   1.959  43.158   5.855
10895POPC   GL167573   1.943  43.127   6.155
10895POPC   GL267574   2.023  43.243   6.155
10895POPC   C1A67575   2.016  43.095   6.455
10895POPC   D2A67576   1.947  43.068   6.755
10895POPC   C3A67577   1.960  43.110   7.055
10895POPC   C4A67578   1.940  43.126   7.355
10895POPC   C1B67579   2.110  43.301   6.455
10895POPC   C2B67580   2.067  43.346   6.755
10895POPC   C3B67581   2.048  43.343   7.055
10895POPC   C4B67582   2.028  43.396   7.355
10896POPC   NC367583  37.694  24.506   5.555
10896POPC   PO467584  37.702  24.486   5.855
10896POPC   GL167585  37.689  24.518   6.155
10896POPC   GL267586  37.594  24.599   6.155
10896POPC   C1A67587  37.661  24.442   6.455
10896POPC   D2A67588  37.657  24.459   6.755
10896POPC   C3A67589  37.711  24.450   7.055
10896POPC   C4A67590  37.661  24.490   7.355
10896POPC   C1B67591  37.513  24.638   6.455
10896POPC   C2B67592  37.510  24.672   6.755
10896POPC   C3B67593  37.487  24.667   7.055
10896POPC   C4B67594  37.469  24.641   7.355
10897POPC   NC367595  44.619  37.700   5.555
10897POPC   PO467596  44.671  37.630   5.855
10897POPC   GL167597  44.624  37.716   6.155
10897POPC   GL267598  44.559  37.802   6.155
10897POPC   C1A67599  44.616  37.716   6.455
10897POPC   D2A67600  44.676  37.666   6.755
10897POPC   C3A67601  44.710  37.658   7.055
10897POPC   C4A67602  44.707  37.669   7.355
10897POPC   C1B67603  44.528  37.872   6.455
10897POPC   C2B67604  44.488  37.905   6.755
10897POPC   C3B67605  44.496  37.849   7.055
10897POPC   C4B67606  44.455  37.914   7.355
10898POPC   NC367607  22.149  16.698   5.555
10898POPC   PO467608  22.175  16.744   5.855
10898POPC   GL167609  22.159  16.757   6.155
10898POPC   GL267610  22.205  16.666   6.155
10898POPC   C1A67611  22.166  16.710   6.455
10898POPC   D2A67612  22.131  16.747   6.755
10898POPC   C3A67613  22.191  16.755   7.055
10898POPC   C4A67614  22.182  16.686   7.355
10898POPC   C1B67615  22.276  16.491   6.455
10898POPC   C2B67616  22.295  16.460   6.755
10898POPC   C3B67617  22.283  16.508   7.055
10898POPC   C4B67618  22.320  16.556   7.355
10899POPC   NC367619  23.688  33.050   5.555
10899POPC   PO467620  23.722  33.013   5.855
10899POPC   GL167621  23.693  33.046   6.155
10899POPC   GL267622  23.838  33.116   6.155
10899POPC   C1A67623  23.700  32.975   6.455
10899POPC   D2A67624  23.754  33.014   6.755
10899POPC   C3A67625  23.684  33.012   7.055
10899POPC   C4A67626  23.732  33.060   7.355
10899POPC   C1B67627  23.967  33.157   6.455
10899POPC   C2B67628  23.971  33.178   6.755
10899POPC   C3B67629  23.920  33.094   7.055
10899POPC   C4B67630  23.891  33.130   7.355
10900POPC   NC367631  23.731  22.202   5.555
10900POPC   PO467632  23.689  22.195   5.855
10900POPC   GL167633  23.664  22.135   6.155
10900POPC   GL267634  23.823  22.193   6.155
10900POPC   C1A67635  23.704  22.134   6.455
10900POPC   D2A67636  23.717  22.113   6.755
10900POPC   C3A67637  23.667  22.119   7.055
10900POPC   C4A67638  23.760  22.191   7.355
10900POPC   C1B67639  24.004  22.228   6.455
10900POPC   C2B67640  23.960  22.197   6.755
10900POPC   C3B67641  23.998  22.200   7.055
10900POPC   C4B67642  23.939  22.238   7.355
10901POPC   NC367643  13.677  41.582   5.555
10901POPC   PO467644  13.650  41.574   5.855
10901POPC   GL167645  13.621  41.556   6.155
10901POPC   GL267646  13.605  41.481   6.155
10901POPC   C1A67647  13.676  41.561   6.455
10901POPC   D2A67648  13.589  41.596   6.755
10901POPC   C3A67649  13.586  41.571   7.055
10901POPC   C4A67650  13.638  41.527   7.355
10901POPC   C1B67651  13.513  41.338   6.455
10901POPC   C2B67652  13.513  41.328   6.755
10901POPC   C3B67653  13.479  41.311   7.055
10901POPC   C4B67654  13.495  41.316   7.355
10902POPC   NC367655  15.226  23.750   5.555
10902POPC   PO467656  15.175  23.673   5.855
10902POPC   GL167657  15.219  23.695   6.155
10902POPC   GL267658  15.087  23.667   6.155
10902POPC   C1A67659  15.198  23.740   6.455
10902POPC   D2A67660  15.168  23.728   6.755
10902POPC   C3A67661  15.182  23.690   7.055
10902POPC   C4A67662  15.129  23.734   7.355
10902POPC   C1B67663  14.938  23.712   6.455
10902POPC   C2B67664  14.898  23.661   6.755
10902POPC   C3B67665  14.903  23.633   7.055
10902POPC   C4B67666  14.969  23.724   7.355
10903POPC   NC367667  23.733  26.047   5.555
10903POPC   PO467668  23.711  26.031   5.855
10903POPC   GL167669  23.701  26.084   6.155
10903POPC   GL267670  23.849  26.066   6.155
10903POPC   C1A67671  23.696  26.012   6.455
10903POPC   D2A67672  23.686  26.019   6.755
10903POPC   C3A67673  23.696  26.079   7.055
10903POPC   C4A67674  23.753  26.066   7.355
10903POPC   C1B67675  23.923  26.003   6.455
10903POPC   C2B67676  23.929  26.071   6.755
10903POPC   C3B67677  24.006  26.064   7.055
10903POPC   C4B67678  23.969  26.081   7.355
10904POPC   NC367679  32.292   2.788   5.555
10904POPC   PO467680  32.223   2.717   5.855
10904POPC   GL167681  32.281   2.729   6.155
10904POPC   GL267682  32.350   2.654   6.155
10904POPC   C1A67683  32.290   2.716   6.455
10904POPC   D2A67684  32.225   2.729   6.755
10904POPC   C3A67685  32.254   2.784   7.055
10904POPC   C4A67686  32.228   2.806   7.355
10904POPC   C1B67687  32.464   2.678   6.455
10904POPC   C2B67688  32.499   2.610   6.755
10904POPC   C3B67689  32.506   2.626   7.055
10904POPC   C4B67690  32.423   2.599   7.355
10905POPC   NC367691   9.004  36.900   5.555
10905POPC   PO467692   8.948  36.942   5.855
10905POPC   GL167693   8.963  36.912   6.155
10905POPC   GL267694   8.925  37.047   6.155
10905POPC   C1A67695   8.991  36.884   6.455
10905POPC   D2A67696   8.992  36.887   6.755
10905POPC   C3A67697   8.992  36.855   7.055
10905POPC   C4A67698   8.929  36.869   7.355
10905POPC   C1B67699   8.933  37.168   6.455
10905POPC   C2B67700   8.979  37.128   6.755
10905POPC   C3B67701   8.987  37.135   7.055
10905POPC   C4B67702   8.935  37.159   7.355
10906POPC   NC367703  25.245  26.005   5.555
10906POPC   PO467704  25.297  26.013   5.855
10906POPC   GL167705  25.224  26.035   6.155
10906POPC   GL267706  25.204  26.128   6.155
10906POPC   C1A67707  25.243  26.056   6.455
10906POPC   D2A67708  25.286  26.059   6.755
10906POPC   C3A67709  25.227  26.045   7.055
10906POPC   C4A67710  25.265  26.003   7.355
10906POPC   C1B67711  25.068  26.208   6.455
10906POPC   C2B67712  25.028  26.125   6.755
10906POPC   C3B67713  25.064  26.122   7.055
10906POPC   C4B67714  25.090  26.180   7.355
10907POPC   NC367715  19.824   8.958   5.555
10907POPC   PO467716  19.846   9.021   5.855
10907POPC   GL167717  19.793   9.011   6.155
10907POPC   GL267718  19.980   9.002   6.155
10907POPC   C1A67719  19.825   8.955   6.455
10907POPC   D2A67720  19.798   8.932   6.755
10907POPC   C3A67721  19.800   8.978   7.055
10907POPC   C4A67722  19.829   8.995   7.355
10907POPC   C1B67723  20.077   9.104   6.455
10907POPC   C2B67724  20.085   9.033   6.755
10907POPC   C3B67725  20.068   9.054   7.055
10907POPC   C4B67726  20.042   9.114   7.355
10908POPC   NC367727  41.576  31.454   5.555
10908POPC   PO467728  41.520  31.427   5.855
10908POPC   GL167729  41.537  31.451   6.155
10908POPC   GL267730  41.712  31.439   6.155
10908POPC   C1A67731  41.519  31.442   6.455
10908POPC   D2A67732  41.551  31.470   6.755
10908POPC   C3A67733  41.518  31.475   7.055
10908POPC   C4A67734  41.559  31.423   7.355
10908POPC   C1B67735  41.749  31.310   6.455
10908POPC   C2B67736  41.828  31.370   6.755
10908POPC   C3B67737  41.738  31.367   7.055
10908POPC   C4B67738  41.803  31.355   7.355
10909POPC   NC367739  29.129   8.160   5.555
10909POPC   PO467740  29.171   8.225   5.855
10909POPC   GL167741  29.100   8.228   6.155
10909POPC   GL267742  29.112   8.303   6.155
10909POPC   C1A67743  29.112   8.219   6.455
10909POPC   D2A67744  29.152   8.236   6.755
10909POPC   C3A67745  29.127   8.158   7.055
10909POPC   C4A67746  29.122   8.184   7.355
10909POPC   C1B67747  29.029   8.438   6.455
10909POPC   C2B67748  29.097   8.465   6.755
10909POPC   C3B67749  29.037   8.405   7.055
10909POPC   C4B67750  29.094   8.406   7.355
10910POPC   NC367751  21.371  27.594   5.555
10910POPC   PO467752  21.337  27.549   5.855
10910POPC   GL167753  21.339  27.576   6.155
10910POPC   GL267754  21.522  27.554   6.155
10910POPC   C1A67755  21.414  27.557   6.455
10910POPC   D2A67756  21.378  27.633   6.755
10910POPC   C3A67757  21.402  27.597   7.055
10910POPC   C4A67758  21.358  27.627   7.355
10910POPC   C1B67759  21.645  27.516   6.455
10910POPC   C2B67760  21.602  27.562   6.755
10910POPC   C3B67761  21.575  27.497   7.055
10910POPC   C4B67762  21.602  27.484   7.355
10911POPC   NC367763   7.463  35.313   5.555
10911POPC   PO467764   7.453  35.349   5.855
10911POPC   GL167765   7.383  35.388   6.155
10911POPC   GL267766   7.442  35.495   6.155
10911POPC   C1A67767   7.456  35.306   6.455
10911POPC   D2A67768   7.376  35.342   6.755
10911POPC   C3A67769   7.446  35.342   7.055
10911POPC   C4A67770   7.456  35.397   7.355
10911POPC   C1B67771   7.561  35.527   6.455
10911POPC   C2B67772   7.558  35.593   6.755
10911POPC   C3B67773   7.562  35.616   7.055
10911POPC   C4B67774   7.587  35.594   7.355
10912POPC   NC367775  30.732   9.001   5.555
10912POPC   PO467776  30.682   8.996   5.855
10912POPC   GL167777  30.647   8.982   6.155
10912POPC   GL267778  30.670   8.817   6.155
10912POPC   C1A67779  30.698   8.970   6.455
10912POPC   D2A67780  30.743   9.000   6.755
10912POPC   C3A67781  30.699   8.945   7.055
10912POPC   C4A67782  30.704   8.982   7.355
10912POPC   C1B67783  30.647   8.678   6.455
10912POPC   C2B67784  30.663   8.771   6.755
10912POPC   C3B67785  30.726   8.754   7.055
10912POPC   C4B67786  30.688   8.697   7.355
10913POPC   NC367787  11.259  40.749   5.555
10913POPC   PO467788  11.277  40.766   5.855
10913POPC   GL167789  11.273  40.746   6.155
10913POPC   GL267790  11.276  40.935   6.155
10913POPC   C1A67791  11.264  40.825   6.455
10913POPC   D2A67792  11.300  40.792   6.755
10913POPC   C3A67793  11.295  40.763   7.055
10913POPC   C4A67794  11.289  40.779   7.355
10913POPC   C1B67795  11.308  40.981   6.455
10913POPC   C2B67796  11.276  41.062   6.755
10913POPC   C3B67797  11.262  41.081   7.055
10913POPC   C4B67798  11.292  41.017   7.355
10914POPC   NC367799  12.084  17.520   5.555
10914POPC   PO467800  12.097  17.507   5.855
10914POPC   GL167801  12.085  17.459   6.155
10914POPC   GL267802  12.113  17.345   6.155
10914POPC   C1A67803  12.046  17.554   6.455
10914POPC   D2A67804  12.062  17.538   6.755
10914POPC   C3A67805  12.113  17.480   7.055
10914POPC   C4A67806  12.082  17.543   7.355
10914POPC   C1B67807  12.034  17.283   6.455
10914POPC   C2B67808  12.089  17.216   6.755
10914POPC   C3B67809  12.077  17.277   7.055
10914POPC   C4B67810  12.050  17.285   7.355
10915POPC   NC367811  33.813  35.360   5.555
10915POPC   PO467812  33.780  35.358   5.855
10915POPC   GL167813  33.797  35.328   6.155
10915POPC   GL267814  33.928  35.334   6.155
10915POPC   C1A67815  33.758  35.357   6.455
10915POPC   D2A67816  33.780  35.307   6.755
10915POPC   C3A67817  33.799  35.303   7.055
10915POPC   C4A67818  33.820  35.304   7.355
10915POPC   C1B67819  34.003  35.306   6.455
10915POPC   C2B67820  34.019  35.294   6.755
10915POPC   C3B67821  34.065  35.320   7.055
10915POPC   C4B67822  34.073  35.342   7.355
10916POPC   NC367823  42.320  26.796   5.555
10916POPC   PO467824  42.304  26.816   5.855
10916POPC   GL167825  42.376  26.833   6.155
10916POPC   GL267826  42.490  26.838   6.155
10916POPC   C1A67827  42.345  26.834   6.455
10916POPC   D2A67828  42.332  26.801   6.755
10916POPC   C3A67829  42.357  26.843   7.055
10916POPC   C4A67830  42.356  26.841   7.355
10916POPC   C1B67831  42.577  26.888   6.455
10916POPC   C2B67832  42.569  26.938   6.755
10916POPC   C3B67833  42.564  26.906   7.055
10916POPC   C4B67834  42.562  26.897   7.355
10917POPC   NC367835   9.730  26.794   5.555
10917POPC   PO467836   9.766  26.779   5.855
10917POPC   GL167837   9.740  26.814   6.155
10917POPC   GL267838   9.919  26.849   6.155
10917POPC   C1A67839   9.721  26.784   6.455
10917POPC   D2A67840   9.702  26.826   6.755
10917POPC   C3A67841   9.733  26.866   7.055
10917POPC   C4A67842   9.738  26.841   7.355
10917POPC   C1B67843   9.977  26.790   6.455
10917POPC   C2B67844   9.987  26.845   6.755
10917POPC   C3B67845   9.948  26.843   7.055
10917POPC   C4B67846   9.969  26.860   7.355
10918POPC   NC367847  43.935  34.569   5.555
10918POPC   PO467848  43.919  34.548   5.855
10918POPC   GL167849  43.849  34.584   6.155
10918POPC   GL267850  43.793  34.676   6.155
10918POPC   C1A67851  43.884  34.559   6.455
10918POPC   D2A67852  43.924  34.598   6.755
10918POPC   C3A67853  43.907  34.565   7.055
10918POPC   C4A67854  43.897  34.591   7.355
10918POPC   C1B67855  43.774  34.749   6.455
10918POPC   C2B67856  43.776  34.762   6.755
10918POPC   C3B67857  43.778  34.797   7.055
10918POPC   C4B67858  43.809  34.746   7.355
10919POPC   NC367859  41.521  32.252   5.555
10919POPC   PO467860  41.546  32.230   5.855
10919POPC   GL167861  41.574  32.262   6.155
10919POPC   GL267862  41.580  32.390   6.155
10919POPC   C1A67863  41.548  32.255   6.455
10919POPC   D2A67864  41.593  32.221   6.755
10919POPC   C3A67865  41.600  32.240   7.055
10919POPC   C4A67866  41.586  32.219   7.355
10919POPC   C1B67867  41.721  32.440   6.455
10919POPC   C2B67868  41.659  32.427   6.755
10919POPC   C3B67869  41.676  32.477   7.055
10919POPC   C4B67870  41.717  32.419   7.355
10920POPC   NC367871  13.590   5.137   5.555
10920POPC   PO467872  13.635   5.063   5.855
10920POPC   GL167873  13.657   5.083   6.155
10920POPC   GL267874  13.463   5.050   6.155
10920POPC   C1A67875  13.583   5.070   6.455
10920POPC   D2A67876  13.602   5.098   6.755
10920POPC   C3A67877  13.646   5.124   7.055
10920POPC   C4A67878  13.582   5.115   7.355
10920POPC   C1B67879  13.435   4.975   6.455
10920POPC   C2B67880  13.350   4.984   6.755
10920POPC   C3B67881  13.440   4.996   7.055
10920POPC   C4B67882  13.421   4.967   7.355
10921POPC   NC367883  12.841  15.944   5.555
10921POPC   PO467884  12.835  15.950   5.855
10921POPC   GL167885  12.852  15.933   6.155
10921POPC   GL267886  12.900  16.055   6.155
10921POPC   C1A67887  12.874  15.909   6.455
10921POPC   D2A67888  12.860  15.982   6.755
10921POPC   C3A67889  12.824  15.961   7.055
10921POPC   C4A67890  12.866  15.926   7.355
10921POPC   C1B67891  12.901  16.190   6.455
10921POPC   C2B67892  12.918  16.228   6.755
10921POPC   C3B67893  12.882  16.148   7.055
10921POPC   C4B67894  12.901  16.219   7.355
10922POPC   NC367895  32.991  35.394   5.555
10922POPC   PO467896  33.071  35.351   5.855
10922POPC   GL167897  33.023  35.335   6.155
10922POPC   GL267898  33.132  35.303   6.155
10922POPC   C1A67899  33.069  35.366   6.455
10922POPC   D2A67900  33.057  35.350   6.755
10922POPC   C3A67901  32.986  35.327   7.055
10922POPC   C4A67902  33.006  35.315   7.355
10922POPC   C1B67903  33.281  35.269   6.455
10922POPC   C2B67904  33.237  35.319   6.755
10922POPC   C3B67905  33.244  35.354   7.055
10922POPC   C4B67906  33.314  35.294   7.355
10923POPC   NC367907  20.575  39.244   5.555
10923POPC   PO467908  20.616  39.227   5.855
10923POPC   GL167909  20.562  39.245   6.155
10923POPC   GL267910  20.569  39.096   6.155
10923POPC   C1A67911  20.616  39.269   6.455
10923POPC   D2A67912  20.583  39.226   6.755
10923POPC   C3A67913  20.608  39.201   7.055
10923POPC   C4A67914  20.617  39.240   7.355
10923POPC   C1B67915  20.492  39.061   6.455
10923POPC   C2B67916  20.535  39.057   6.755
10923POPC   C3B67917  20.530  38.997   7.055
10923POPC   C4B67918  20.460  39.047   7.355
10924POPC   NC367919  18.249   1.183   5.555
10924POPC   PO467920  18.312   1.230   5.855
10924POPC   GL167921  18.318   1.232   6.155
10924POPC   GL267922  18.382   1.351   6.155
10924POPC   C1A67923  18.315   1.194   6.455
10924POPC   D2A67924  18.329   1.263   6.755
10924POPC   C3A67925  18.330   1.198   7.055
10924POPC   C4A67926  18.277   1.255   7.355
10924POPC   C1B67927  18.456   1.411   6.455
10924POPC   C2B67928  18.428   1.431   6.755
10924POPC   C3B67929  18.474   1.345   7.055
10924POPC   C4B67930  18.411   1.441   7.355
10925POPC   NC367931  36.869  28.401   5.555
10925POPC   PO467932  36.879  28.389   5.855
10925POPC   GL167933  36.909  28.376   6.155
10925POPC   GL267934  37.037  28.449   6.155
10925POPC   C1A67935  36.856  28.352   6.455
10925POPC   D2A67936  36.943  28.321   6.755
10925POPC   C3A67937  36.927  28.333   7.055
10925POPC   C4A67938  36.918  28.367   7.355
10925POPC   C1B67939  37.111  28.556   6.455
10925POPC   C2B67940  37.133  28.532   6.755
10925POPC   C3B67941  37.140  28.556   7.055
10925POPC   C4B67942  37.148  28.522   7.355
10926POPC   NC367943  33.074  29.161   5.555
10926POPC   PO467944  32.975  29.154   5.855
10926POPC   GL167945  33.025  29.139   6.155
10926POPC   GL267946  32.944  29.130   6.155
10926POPC   C1A67947  32.987  29.163   6.455
10926POPC   D2A67948  32.999  29.191   6.755
10926POPC   C3A67949  33.034  29.167   7.055
10926POPC   C4A67950  33.033  29.131   7.355
10926POPC   C1B67951  32.765  29.232   6.455
10926POPC   C2B67952  32.740  29.243   6.755
10926POPC   C3B67953  32.793  29.216   7.055
10926POPC   C4B67954  32.813  29.247   7.355
10927POPC   NC367955  36.128  42.369   5.555
10927POPC   PO467956  36.094  42.332   5.855
10927POPC   GL167957  36.125  42.364   6.155
10927POPC   GL267958  36.057  42.461   6.155
10927POPC   C1A67959  36.169  42.344   6.455
10927POPC   D2A67960  36.105  42.364   6.755
10927POPC   C3A67961  36.152  42.345   7.055
10927POPC   C4A67962  36.167  42.321   7.355
10927POPC   C1B67963  36.060  42.570   6.455
10927POPC   C2B67964  36.048  42.599   6.755
10927POPC   C3B67965  36.048  42.536   7.055
10927POPC   C4B67966  36.046  42.596   7.355
10928POPC   NC367967   1.992  37.680   5.555
10928POPC   PO467968   1.961  37.703   5.855
10928POPC   GL167969   1.968  37.629   6.155
10928POPC   GL267970   2.035  37.842   6.155
10928POPC   C1A67971   2.008  37.675   6.455
10928POPC   D2A67972   1.943  37.632   6.755
10928POPC   C3A67973   1.999  37.671   7.055
10928POPC   C4A67974   1.958  37.667   7.355
10928POPC   C1B67975   2.053  37.911   6.455
10928POPC   C2B67976   1.999  37.931   6.755
10928POPC   C3B67977   2.007  37.949   7.055
10928POPC   C4B67978   1.990  37.880   7.355
10929POPC   NC367979  41.557  13.613   5.555
10929POPC   PO467980  41.585  13.667   5.855
10929POPC   GL167981  41.574  13.589   6.155
10929POPC   GL267982  41.602  13.496   6.155
10929POPC   C1A67983  41.602  13.637   6.455
10929POPC   D2A67984  41.555  13.662   6.755
10929POPC   C3A67985  41.597  13.604   7.055
10929POPC   C4A67986  41.587  13.668   7.355
10929POPC   C1B67987  41.752  13.451   6.455
10929POPC   C2B67988  41.713  13.442   6.755
10929POPC   C3B67989  41.716  13.392   7.055
10929POPC   C4B67990  41.755  13.448   7.355
10930POPC   NC367991  21.368  34.562   5.555
10930POPC   PO467992  21.426  34.613   5.855
10930POPC   GL167993  21.384  34.530   6.155
10930POPC   GL267994  21.364  34.473   6.155
10930POPC   C1A67995  21.433  34.528   6.455
10930POPC   D2A67996  21.394  34.605   6.755
10930POPC   C3A67997  21.390  34.610   7.055
10930POPC   C4A67998  21.345  34.623   7.355
10930POPC   C1B67999  21.396  34.288   6.455
10930POPC   C2B68000  21.379  34.321   6.755
10930POPC   C3B68001  21.405  34.372   7.055
10930POPC   C4B68002  21.361  34.344   7.355
10931POPC   NC368003  28.338  18.293   5.555
10931POPC   PO468004  28.408  18.297   5.855
10931POPC   GL168005  28.385  18.249   6.155
10931POPC   GL268006  28.385  18.400   6.155
10931POPC   C1A68007  28.385  18.262   6.455
10931POPC   D2A68008  28.321  18.285   6.755
10931POPC   C3A68009  28.387  18.278   7.055
10931POPC   C4A68010  28.375  18.270   7.355
10931POPC   C1B68011  28.369  18.515   6.455
10931POPC   C2B68012  28.333  18.526   6.755
10931POPC   C3B68013  28.393  18.517   7.055
10931POPC   C4B68014  28.352  18.569   7.355
10932POPC   NC368015  18.297  25.276   5.555
10932POPC   PO468016  18.285  25.291   5.855
10932POPC   GL168017  18.305  25.272   6.155
10932POPC   GL268018  18.194  25.185   6.155
10932POPC   C1A68019  18.285  25.241   6.455
10932POPC   D2A68020  18.236  25.312   6.755
10932POPC   C3A68021  18.319  25.223   7.055
10932POPC   C4A68022  18.332  25.237   7.355
10932POPC   C1B68023  18.178  25.047   6.455
10932POPC   C2B68024  18.224  25.068   6.755
10932POPC   C3B68025  18.190  25.021   7.055
10932POPC   C4B68026  18.200  25.038   7.355
10933POPC   NC368027  23.702  37.700   5.555
10933POPC   PO468028  23.683  37.702   5.855
10933POPC   GL168029  23.736  37.656   6.155
10933POPC   GL268030  23.829  37.610   6.155
10933POPC   C1A68031  23.735  37.677   6.455
10933POPC   D2A68032  23.670  37.646   6.755
10933POPC   C3A68033  23.753  37.668   7.055
10933POPC   C4A68034  23.764  37.700   7.355
10933POPC   C1B68035  23.922  37.489   6.455
10933POPC   C2B68036  23.888  37.513   6.755
10933POPC   C3B68037  23.882  37.466   7.055
10933POPC   C4B68038  23.893  37.526   7.355
10934POPC   NC368039  36.140  41.604   5.555
10934POPC   PO468040  36.163  41.583   5.855
10934POPC   GL168041  36.098  41.517   6.155
10934POPC   GL268042  36.000  41.503   6.155
10934POPC   C1A68043  36.163  41.577   6.455
10934POPC   D2A68044  36.117  41.509   6.755
10934POPC   C3A68045  36.167  41.580   7.055
10934POPC   C4A68046  36.149  41.560   7.355
10934POPC   C1B68047  35.994  41.365   6.455
10934POPC   C2B68048  36.000  41.362   6.755
10934POPC   C3B68049  35.999  41.366   7.055
10934POPC   C4B68050  35.918  41.339   7.355
10935POPC   NC368051  26.768  32.246   5.555
10935POPC   PO468052  26.795  32.298   5.855
10935POPC   GL168053  26.805  32.242   6.155
10935POPC   GL268054  26.737  32.358   6.155
10935POPC   C1A68055  26.809  32.208   6.455
10935POPC   D2A68056  26.778  32.298   6.755
10935POPC   C3A68057  26.811  32.240   7.055
10935POPC   C4A68058  26.809  32.242   7.355
10935POPC   C1B68059  26.719  32.482   6.455
10935POPC   C2B68060  26.687  32.459   6.755
10935POPC   C3B68061  26.696  32.525   7.055
10935POPC   C4B68062  26.684  32.481   7.355
10936POPC   NC368063   9.773  19.038   5.555
10936POPC   PO468064   9.776  19.079   5.855
10936POPC   GL168065   9.764  19.038   6.155
10936POPC   GL268066   9.781  19.150   6.155
10936POPC   C1A68067   9.707  19.078   6.455
10936POPC   D2A68068   9.752  19.049   6.755
10936POPC   C3A68069   9.700  19.058   7.055
10936POPC   C4A68070   9.752  19.095   7.355
10936POPC   C1B68071   9.904  19.266   6.455
10936POPC   C2B68072   9.892  19.231   6.755
10936POPC   C3B68073   9.946  19.225   7.055
10936POPC   C4B68074   9.891  19.216   7.355
10937POPC   NC368075  20.623   1.979   5.555
10937POPC   PO468076  20.604   2.035   5.855
10937POPC   GL168077  20.612   1.995   6.155
10937POPC   GL268078  20.742   1.912   6.155
10937POPC   C1A68079  20.589   1.980   6.455
10937POPC   D2A68080  20.561   1.962   6.755
10937POPC   C3A68081  20.579   1.977   7.055
10937POPC   C4A68082  20.605   1.957   7.355
10937POPC   C1B68083  20.819   1.870   6.455
10937POPC   C2B68084  20.869   1.826   6.755
10937POPC   C3B68085  20.852   1.920   7.055
10937POPC   C4B68086  20.819   1.880   7.355
10938POPC   NC368087  43.154  22.896   5.555
10938POPC   PO468088  43.145  22.898   5.855
10938POPC   GL168089  43.128  22.978   6.155
10938POPC   GL268090  43.081  23.040   6.155
10938POPC   C1A68091  43.071  22.899   6.455
10938POPC   D2A68092  43.152  22.896   6.755
10938POPC   C3A68093  43.093  22.927   7.055
10938POPC   C4A68094  43.098  22.947   7.355
10938POPC   C1B68095  42.941  23.179   6.455
10938POPC   C2B68096  42.962  23.137   6.755
10938POPC   C3B68097  42.944  23.178   7.055
10938POPC   C4B68098  42.943  23.119   7.355
10939POPC   NC368099  44.677  31.514   5.555
10939POPC   PO468100  44.680  31.483   5.855
10939POPC   GL168101  44.620  31.495   6.155
10939POPC   GL268102  44.609  31.569   6.155
10939POPC   C1A68103  44.659  31.438   6.455
10939POPC   D2A68104  44.702  31.520   6.755
10939POPC   C3A68105  44.701  31.467   7.055
10939POPC   C4A68106  44.618  31.460   7.355
10939POPC   C1B68107  44.526  31.683   6.455
10939POPC   C2B68108  44.501  31.680   6.755
10939POPC   C3B68109  44.580  31.691   7.055
10939POPC   C4B68110  44.547  31.720   7.355
10940POPC   NC368111   7.400  37.680   5.555
10940POPC   PO468112   7.428  37.712   5.855
10940POPC   GL168113   7.438  37.634   6.155
10940POPC   GL268114   7.497  37.606   6.155
10940POPC   C1A68115   7.446  37.683   6.455
10940POPC   D2A68116   7.384  37.726   6.755
10940POPC   C3A68117   7.434  37.639   7.055
10940POPC   C4A68118   7.397  37.728   7.355
10940POPC   C1B68119   7.593  37.490   6.455
10940POPC   C2B68120   7.524  37.529   6.755
10940POPC   C3B68121   7.536  37.455   7.055
10940POPC   C4B68122   7.550  37.512   7.355
10941POPC   NC368123   0.397  38.436   5.555
10941POPC   PO468124   0.395  38.473   5.855
10941POPC   GL168125   0.416  38.461   6.155
10941POPC   GL268126   0.463  38.628   6.155
10941POPC   C1A68127   0.408  38.485   6.455
10941POPC   D2A68128   0.475  38.457   6.755
10941POPC   C3A68129   0.465  38.412   7.055
10941POPC   C4A68130   0.482  38.454   7.355
10941POPC   C1B68131   0.427  38.717   6.455
10941POPC   C2B68132   0.467  38.714   6.755
10941POPC   C3B68133   0.407  38.748   7.055
10941POPC   C4B68134   0.387  38.752   7.355
10942POPC   NC368135  22.903   3.577   5.555
10942POPC   PO468136  22.987   3.500   5.855
10942POPC   GL168137  22.978   3.578   6.155
10942POPC   GL268138  22.787   3.610   6.155
10942POPC   C1A68139  22.954   3.500   6.455
10942POPC   D2A68140  22.982   3.587   6.755
10942POPC   C3A68141  22.937   3.542   7.055
10942POPC   C4A68142  22.935   3.513   7.355
10942POPC   C1B68143  22.718   3.599   6.455
10942POPC   C2B68144  22.673   3.599   6.755
10942POPC   C3B68145  22.677   3.653   7.055
10942POPC   C4B68146  22.667   3.634   7.355
10943POPC   NC368147  33.071  16.003   5.555
10943POPC   PO468148  33.052  15.980   5.855
10943POPC   GL168149  33.068  16.002   6.155
10943POPC   GL268150  33.064  16.130   6.155
10943POPC   C1A68151  33.035  15.924   6.455
10943POPC   D2A68152  33.026  15.978   6.755
10943POPC   C3A68153  33.071  15.915   7.055
10943POPC   C4A68154  32.991  15.987   7.355
10943POPC   C1B68155  32.988  16.230   6.455
10943POPC   C2B68156  32.970  16.155   6.755
10943POPC   C3B68157  32.992  16.240   7.055
10943POPC   C4B68158  32.979  16.214   7.355
10944POPC   NC368159  14.392  41.590   5.555
10944POPC   PO468160  14.411  41.554   5.855
10944POPC   GL168161  14.363  41.527   6.155
10944POPC   GL268162  14.488  41.584   6.155
10944POPC   C1A68163  14.422  41.565   6.455
10944POPC   D2A68164  14.429  41.563   6.755
10944POPC   C3A68165  14.397  41.525   7.055
10944POPC   C4A68166  14.453  41.524   7.355
10944POPC   C1B68167  14.624  41.538   6.455
10944POPC   C2B68168  14.701  41.580   6.755
10944POPC   C3B68169  14.615  41.511   7.055
10944POPC   C4B68170  14.623  41.519   7.355
10945POPC   NC368171  33.794  30.705   5.555
10945POPC   PO468172  33.754  30.707   5.855
10945POPC   GL168173  33.849  30.711   6.155
10945POPC   GL268174  33.721  30.827   6.155
10945POPC   C1A68175  33.850  30.654   6.455
10945POPC   D2A68176  33.831  30.662   6.755
10945POPC   C3A68177  33.771  30.719   7.055
10945POPC   C4A68178  33.840  30.650   7.355
10945POPC   C1B68179  33.665  30.918   6.455
10945POPC   C2B68180  33.705  30.863   6.755
10945POPC   C3B68181  33.704  30.859   7.055
10945POPC   C4B68182  33.675  30.927   7.355
10946POPC   NC368183  42.369  12.074   5.555
10946POPC   PO468184  42.288  12.095   5.855
10946POPC   GL168185  42.371  12.091   6.155
10946POPC   GL268186  42.370  12.242   6.155
10946POPC   C1A68187  42.287  12.090   6.455
10946POPC   D2A68188  42.318  12.037   6.755
10946POPC   C3A68189  42.321  12.039   7.055
10946POPC   C4A68190  42.313  12.080   7.355
10946POPC   C1B68191  42.323  12.310   6.455
10946POPC   C2B68192  42.270  12.368   6.755
10946POPC   C3B68193  42.310  12.326   7.055
10946POPC   C4B68194  42.268  12.284   7.355
10947POPC   NC368195  24.452  17.536   5.555
10947POPC   PO468196  24.515  17.482   5.855
10947POPC   GL168197  24.441  17.537   6.155
10947POPC   GL268198  24.364  17.634   6.155
10947POPC   C1A68199  24.454  17.458   6.455
10947POPC   D2A68200  24.451  17.472   6.755
10947POPC   C3A68201  24.457  17.480   7.055
10947POPC   C4A68202  24.492  17.468   7.355
10947POPC   C1B68203  24.335  17.631   6.455
10947POPC   C2B68204  24.335  17.708   6.755
10947POPC   C3B68205  24.327  17.639   7.055
10947POPC   C4B68206  24.256  17.657   7.355
10948POPC   NC368207  32.286   4.325   5.555
10948POPC   PO468208  32.237   4.275   5.855
10948POPC   GL168209  32.232   4.270   6.155
10948POPC   GL268210  32.240   4.456   6.155
10948POPC   C1A68211  32.223   4.331   6.455
10948POPC   D2A68212  32.252   4.342   6.755
10948POPC   C3A68213  32.221   4.352   7.055
10948POPC   C4A68214  32.240   4.315   7.355
10948POPC   C1B68215  32.243   4.606   6.455
10948POPC   C2B68216  32.245   4.557   6.755
10948POPC   C3B68217  32.304   4.586   7.055
10948POPC   C4B68218  32.253   4.575   7.355
10949POPC   NC368219  21.398  15.170   5.555
10949POPC   PO468220  21.399  15.162   5.855
10949POPC   GL168221  21.375  15.204   6.155
10949POPC   GL268222  21.522  15.296   6.155
10949POPC   C1A68223  21.348  15.176   6.455
10949POPC   D2A68224  21.406  15.183   6.755
10949POPC   C3A68225  21.363  15.211   7.055
10949POPC   C4A68226  21.360  15.150   7.355
10949POPC   C1B68227  21.591  15.281   6.455
10949POPC   C2B68228  21.563  15.304   6.755
10949POPC   C3B68229  21.634  15.285   7.055
10949POPC   C4B68230  21.577  15.347   7.355
10950POPC   NC368231  23.743  23.677   5.555
10950POPC   PO468232  23.746  23.747   5.855
10950POPC   GL168233  23.749  23.680   6.155
10950POPC   GL268234  23.574  23.789   6.155
10950POPC   C1A68235  23.683  23.749   6.455
10950POPC   D2A68236  23.681  23.715   6.755
10950POPC   C3A68237  23.699  23.722   7.055
10950POPC   C4A68238  23.756  23.670   7.355
10950POPC   C1B68239  23.480  23.781   6.455
10950POPC   C2B68240  23.460  23.780   6.755
10950POPC   C3B68241  23.505  23.829   7.055
10950POPC   C4B68242  23.481  23.738   7.355
10951POPC   NC368243  15.971  23.680   5.555
10951POPC   PO468244  15.917  23.740   5.855
10951POPC   GL168245  15.974  23.688   6.155
10951POPC   GL268246  15.986  23.810   6.155
10951POPC   C1A68247  15.938  23.708   6.455
10951POPC   D2A68248  15.973  23.752   6.755
10951POPC   C3A68249  15.994  23.742   7.055
10951POPC   C4A68250  15.919  23.675   7.355
10951POPC   C1B68251  16.047  23.920   6.455
10951POPC   C2B68252  15.983  23.954   6.755
10951POPC   C3B68253  15.979  23.936   7.055
10951POPC   C4B68254  15.972  23.950   7.355
10952POPC   NC368255  24.500  41.572   5.555
10952POPC   PO468256  24.515  41.584   5.855
10952POPC   GL168257  24.486  41.544   6.155
10952POPC   GL268258  24.431  41.677   6.155
10952POPC   C1A68259  24.537  41.545   6.455
10952POPC   D2A68260  24.480  41.521   6.755
10952POPC   C3A68261  24.473  41.552   7.055
10952POPC   C4A68262  24.456  41.516   7.355
10952POPC   C1B68263  24.332  41.730   6.455
10952POPC   C2B68264  24.276  41.733   6.755
10952POPC   C3B68265  24.302  41.786   7.055
10952POPC   C4B68266  24.329  41.711   7.355
10953POPC   NC368267   0.446  43.087   5.555
10953POPC   PO468268   0.472  43.145   5.855
10953POPC   GL168269   0.422  43.157   6.155
10953POPC   GL268270   0.445  43.220   6.155
10953POPC   C1A68271   0.397  43.071   6.455
10953POPC   D2A68272   0.397  43.112   6.755
10953POPC   C3A68273   0.429  43.115   7.055
10953POPC   C4A68274   0.460  43.098   7.355
10953POPC   C1B68275   0.347  43.400   6.455
10953POPC   C2B68276   0.410  43.304   6.755
10953POPC   C3B68277   0.421  43.304   7.055
10953POPC   C4B68278   0.374  43.307   7.355
10954POPC   NC368279  25.257  43.839   5.555
10954POPC   PO468280  25.239  43.837   5.855
10954POPC   GL168281  25.224  43.852   6.155
10954POPC   GL268282  25.352  43.830   6.155
10954POPC   C1A68283  25.291  43.926   6.455
10954POPC   D2A68284  25.256  43.916   6.755
10954POPC   C3A68285  25.286  43.893   7.055
10954POPC   C4A68286  25.258  43.852   7.355
10954POPC   C1B68287  25.410  43.639   6.455
10954POPC   C2B68288  25.355  43.676   6.755
10954POPC   C3B68289  25.392  43.702   7.055
10954POPC   C4B68290  25.395  43.666   7.355
10955POPC   NC368291  12.895  40.736   5.555
10955POPC   PO468292  12.837  40.797   5.855
10955POPC   GL168293  12.851  40.809   6.155
10955POPC   GL268294  12.894  40.632   6.155
10955POPC   C1A68295  12.899  40.801   6.455
10955POPC   D2A68296  12.859  40.771   6.755
10955POPC   C3A68297  12.883  40.777   7.055
10955POPC   C4A68298  12.883  40.743   7.355
10955POPC   C1B68299  12.872  40.558   6.455
10955POPC   C2B68300  12.915  40.524   6.755
10955POPC   C3B68301  12.911  40.519   7.055
10955POPC   C4B68302  12.929  40.540   7.355
10956POPC   NC368303  27.558  12.868   5.555
10956POPC   PO468304  27.602  12.889   5.855
10956POPC   GL168305  27.613  12.848   6.155
10956POPC   GL268306  27.464  12.870   6.155
10956POPC   C1A68307  27.602  12.887   6.455
10956POPC   D2A68308  27.582  12.818   6.755
10956POPC   C3A68309  27.596  12.863   7.055
10956POPC   C4A68310  27.554  12.891   7.355
10956POPC   C1B68311  27.412  12.977   6.455
10956POPC   C2B68312  27.383  12.942   6.755
10956POPC   C3B68313  27.424  12.938   7.055
10956POPC   C4B68314  27.372  12.954   7.355
10957POPC   NC368315  31.478  44.653   5.555
10957POPC   PO468316  31.431  44.700   5.855
10957POPC   GL168317  31.446  44.673   6.155
10957POPC   GL268318  31.358  44.658   6.155
10957POPC   C1A68319  31.514  44.620   6.455
10957POPC   D2A68320  31.480  44.680   6.755
10957POPC   C3A68321  31.447  44.674   7.055
10957POPC   C4A68322  31.501  44.635   7.355
10957POPC   C1B68323  31.225  44.657   6.455
10957POPC   C2B68324  31.247  44.701   6.755
10957POPC   C3B68325  31.264  44.746   7.055
10957POPC   C4B68326  31.206  44.679   7.355
10958POPC   NC368327   5.848  41.576   5.555
10958POPC   PO468328   5.916  41.602   5.855
10958POPC   GL168329   5.883  41.557   6.155
10958POPC   GL268330   5.932  41.668   6.155
10958POPC   C1A68331   5.834  41.599   6.455
10958POPC   D2A68332   5.888  41.600   6.755
10958POPC   C3A68333   5.838  41.587   7.055
10958POPC   C4A68334   5.887  41.538   7.355
10958POPC   C1B68335   5.990  41.763   6.455
10958POPC   C2B68336   6.062  41.766   6.755
10958POPC   C3B68337   6.027  41.738   7.055
10958POPC   C4B68338   5.984  41.758   7.355
10959POPC   NC368339   9.767  25.222   5.555
10959POPC   PO468340   9.735  25.294   5.855
10959POPC   GL168341   9.733  25.274   6.155
10959POPC   GL268342   9.847  25.332   6.155
10959POPC   C1A68343   9.763  25.258   6.455
10959POPC   D2A68344   9.767  25.286   6.755
10959POPC   C3A68345   9.750  25.301   7.055
10959POPC   C4A68346   9.721  25.267   7.355
10959POPC   C1B68347  10.028  25.290   6.455
10959POPC   C2B68348  10.041  25.346   6.755
10959POPC   C3B68349   9.948  25.297   7.055
10959POPC   C4B68350   9.945  25.275   7.355
10960POPC   NC368351  44.632  20.644   5.555
10960POPC   PO468352  44.620  20.614   5.855
10960POPC   GL168353  44.680  20.588   6.155
10960POPC   GL268354  44.550  20.626   6.155
10960POPC   C1A68355  44.640  20.577   6.455
10960POPC   D2A68356  44.674  20.645   6.755
10960POPC   C3A68357  44.629  20.650   7.055
10960POPC   C4A68358  44.625  20.598   7.355
10960POPC   C1B68359  44.425  20.582   6.455
10960POPC   C2B68360  44.457  20.617   6.755
10960POPC   C3B68361  44.460  20.554   7.055
10960POPC   C4B68362  44.412  20.532   7.355
10961POPC   NC368363  20.610  13.596   5.555
10961POPC   PO468364  20.597  13.626   5.855
10961POPC   GL168365  20.581  13.620   6.155
10961POPC   GL268366  20.668  13.774   6.155
10961POPC   C1A68367  20.596  13.641   6.455
10961POPC   D2A68368  20.603  13.602   6.755
10961POPC   C3A68369  20.615  13.592   7.055
10961POPC   C4A68370  20.622  13.603   7.355
10961POPC   C1B68371  20.613  13.890   6.455
10961POPC   C2B68372  20.607  13.843   6.755
10961POPC   C3B68373  20.674  13.847   7.055
10961POPC   C4B68374  20.598  13.836   7.355
10962POPC   NC368375  29.921   9.753   5.555
10962POPC   PO468376  29.948   9.711   5.855
10962POPC   GL168377  29.880   9.703   6.155
10962POPC   GL268378  29.846   9.725   6.155
10962POPC   C1A68379  29.946   9.773   6.455
10962POPC   D2A68380  29.889   9.787   6.755
10962POPC   C3A68381  29.872   9.781   7.055
10962POPC   C4A68382  29.897   9.732   7.355
10962POPC   C1B68383  29.739   9.631   6.455
10962POPC   C2B68384  29.665   9.676   6.755
10962POPC   C3B68385  29.673   9.662   7.055
10962POPC   C4B68386  29.729   9.596   7.355
10963POPC   NC368387  13.626   7.441   5.555
10963POPC   PO468388  13.638   7.440   5.855
10963POPC   GL168389  13.665   7.435   6.155
10963POPC   GL268390  13.540   7.461   6.155
10963POPC   C1A68391  13.600   7.399   6.455
10963POPC   D2A68392  13.640   7.438   6.755
10963POPC   C3A68393  13.601   7.412   7.055
10963POPC   C4A68394  13.598   7.417   7.355
10963POPC   C1B68395  13.371   7.401   6.455
10963POPC   C2B68396  13.346   7.396   6.755
10963POPC   C3B68397  13.407   7.459   7.055
10963POPC   C4B68398  13.332   7.435   7.355
10964POPC   NC368399  12.059  10.548   5.555
10964POPC   PO468400  12.085  10.517   5.855
10964POPC   GL168401  12.124  10.491   6.155
10964POPC   GL268402  12.222  10.451   6.155
10964POPC   C1A68403  12.071  10.520   6.455
10964POPC   D2A68404  12.067  10.500   6.755
10964POPC   C3A68405  12.056  10.490   7.055
10964POPC   C4A68406  12.061  10.562   7.355
10964POPC   C1B68407  12.322  10.361   6.455
10964POPC   C2B68408  12.290  10.442   6.755
10964POPC   C3B68409  12.335  10.363   7.055
10964POPC   C4B68410  12.312  10.418   7.355
10965POPC   NC368411   7.385   5.892   5.555
10965POPC   PO468412   7.458   5.859   5.855
10965POPC   GL168413   7.429   5.831   6.155
10965POPC   GL268414   7.503   5.977   6.155
10965POPC   C1A68415   7.407   5.905   6.455
10965POPC   D2A68416   7.452   5.869   6.755
10965POPC   C3A68417   7.431   5.905   7.055
10965POPC   C4A68418   7.376   5.874   7.355
10965POPC   C1B68419   7.631   6.069   6.455
10965POPC   C2B68420   7.632   6.056   6.755
10965POPC   C3B68421   7.571   6.061   7.055
10965POPC   C4B68422   7.559   6.075   7.355
10966POPC   NC368423  20.650  33.842   5.555
10966POPC   PO468424  20.620  33.760   5.855
10966POPC   GL168425  20.618  33.784   6.155
10966POPC   GL268426  20.762  33.776   6.155
10966POPC   C1A68427  20.596  33.792   6.455
10966POPC   D2A68428  20.611  33.780   6.755
10966POPC   C3A68429  20.615  33.782   7.055
10966POPC   C4A68430  20.589  33.812   7.355
10966POPC   C1B68431  20.842  33.674   6.455
10966POPC   C2B68432  20.853  33.689   6.755
10966POPC   C3B68433  20.880  33.712   7.055
10966POPC   C4B68434  20.793  33.723   7.355
10967POPC   NC368435  19.033   5.134   5.555
10967POPC   PO468436  19.101   5.133   5.855
10967POPC   GL168437  19.043   5.106   6.155
10967POPC   GL268438  19.108   5.004   6.155
10967POPC   C1A68439  19.024   5.121   6.455
10967POPC   D2A68440  19.034   5.106   6.755
10967POPC   C3A68441  19.027   5.075   7.055
10967POPC   C4A68442  19.016   5.048   7.355
10967POPC   C1B68443  19.108   4.820   6.455
10967POPC   C2B68444  19.167   4.813   6.755
10967POPC   C3B68445  19.162   4.872   7.055
10967POPC   C4B68446  19.110   4.805   7.355
10968POPC   NC368447   1.228  14.452   5.555
10968POPC   PO468448   1.250  14.388   5.855
10968POPC   GL168449   1.228  14.362   6.155
10968POPC   GL268450   1.106  14.318   6.155
10968POPC   C1A68451   1.165  14.429   6.455
10968POPC   D2A68452   1.194  14.388   6.755
10968POPC   C3A68453   1.243  14.394   7.055
10968POPC   C4A68454   1.198  14.432   7.355
10968POPC   C1B68455   1.010  14.300   6.455
10968POPC   C2B68456   0.940  14.302   6.755
10968POPC   C3B68457   0.968  14.271   7.055
10968POPC   C4B68458   0.948  14.274   7.355
10969POPC   NC368459  25.294  13.590   5.555
10969POPC   PO468460  25.225  13.647   5.855
10969POPC   GL168461  25.294  13.609   6.155
10969POPC   GL268462  25.195  13.675   6.155
10969POPC   C1A68463  25.306  13.665   6.455
10969POPC   D2A68464  25.236  13.599   6.755
10969POPC   C3A68465  25.247  13.637   7.055
10969POPC   C4A68466  25.225  13.647   7.355
10969POPC   C1B68467  25.050  13.687   6.455
10969POPC   C2B68468  25.073  13.705   6.755
10969POPC   C3B68469  24.977  13.720   7.055
10969POPC   C4B68470  25.065  13.673   7.355
10970POPC   NC368471  39.243  40.774   5.555
10970POPC   PO468472  39.186  40.767   5.855
10970POPC   GL168473  39.200  40.778   6.155
10970POPC   GL268474  39.085  40.862   6.155
10970POPC   C1A68475  39.258  40.812   6.455
10970POPC   D2A68476  39.208  40.736   6.755
10970POPC   C3A68477  39.227  40.806   7.055
10970POPC   C4A68478  39.191  40.830   7.355
10970POPC   C1B68479  38.984  40.899   6.455
10970POPC   C2B68480  39.009  40.922   6.755
10970POPC   C3B68481  39.022  40.845   7.055
10970POPC   C4B68482  39.011  40.899   7.355
10971POPC   NC368483  44.668  28.366   5.555
10971POPC   PO468484  44.622  28.362   5.855
10971POPC   GL168485  44.675  28.331   6.155
10971POPC   GL268486  44.772  28.329   6.155
10971POPC   C1A68487  44.693  28.330   6.455
10971POPC   D2A68488  44.635  28.353   6.755
10971POPC   C3A68489  44.678  28.342   7.055
10971POPC   C4A68490  44.710  28.394   7.355
10971POPC   C1B68491  44.865  28.173   6.455
10971POPC   C2B68492  44.831  28.187   6.755
10971POPC   C3B68493  44.829  28.176   7.055
10971POPC   C4B68494  44.884  28.223   7.355
10972POPC   NC368495   1.199  25.271   5.555
10972POPC   PO468496   1.240  25.262   5.855
10972POPC   GL168497   1.236  25.313   6.155
10972POPC   GL268498   1.270  25.171   6.155
10972POPC   C1A68499   1.205  25.292   6.455
10972POPC   D2A68500   1.168  25.237   6.755
10972POPC   C3A68501   1.223  25.311   7.055
10972POPC   C4A68502   1.208  25.231   7.355
10972POPC   C1B68503   1.249  25.005   6.455
10972POPC   C2B68504   1.252  25.029   6.755
10972POPC   C3B68505   1.237  25.030   7.055
10972POPC   C4B68506   1.253  25.047   7.355
10973POPC   NC368507  26.786  19.093   5.555
10973POPC   PO468508  26.825  19.089   5.855
10973POPC   GL168509  26.863  19.054   6.155
10973POPC   GL268510  26.750  19.127   6.155
10973POPC   C1A68511  26.843  19.022   6.455
10973POPC   D2A68512  26.834  19.013   6.755
10973POPC   C3A68513  26.856  19.056   7.055
10973POPC   C4A68514  26.822  19.084   7.355
10973POPC   C1B68515  26.652  19.287   6.455
10973POPC   C2B68516  26.661  19.221   6.755
10973POPC   C3B68517  26.728  19.277   7.055
10973POPC   C4B68518  26.670  19.315   7.355
10974POPC   NC368519  33.752  43.931   5.555
10974POPC   PO468520  33.772  43.846   5.855
10974POPC   GL168521  33.814  43.859   6.155
10974POPC   GL268522  33.690  43.941   6.155
10974POPC   C1A68523  33.765  43.848   6.455
10974POPC   D2A68524  33.761  43.913   6.755
10974POPC   C3A68525  33.794  43.863   7.055
10974POPC   C4A68526  33.773  43.912   7.355
10974POPC   C1B68527  33.607  44.079   6.455
10974POPC   C2B68528  33.587  44.114   6.755
10974POPC   C3B68529  33.629  44.082   7.055
10974POPC   C4B68530  33.640  44.046   7.355
10975POPC   NC368531  23.711  41.531   5.555
10975POPC   PO468532  23.763  41.578   5.855
10975POPC   GL168533  23.675  41.607   6.155
10975POPC   GL268534  23.855  41.529   6.155
10975POPC   C1A68535  23.700  41.607   6.455
10975POPC   D2A68536  23.666  41.556   6.755
10975POPC   C3A68537  23.751  41.566   7.055
10975POPC   C4A68538  23.710  41.586   7.355
10975POPC   C1B68539  23.952  41.575   6.455
10975POPC   C2B68540  23.945  41.635   6.755
10975POPC   C3B68541  23.959  41.558   7.055
10975POPC   C4B68542  24.001  41.574   7.355
10976POPC   NC368543   3.578   6.603   5.555
10976POPC   PO468544   3.587   6.646   5.855
10976POPC   GL168545   3.566   6.639   6.155
10976POPC   GL268546   3.612   6.760   6.155
10976POPC   C1A68547   3.492   6.614   6.455
10976POPC   D2A68548   3.548   6.627   6.755
10976POPC   C3A68549   3.565   6.640   7.055
10976POPC   C4A68550   3.533   6.659   7.355
10976POPC   C1B68551   3.600   6.896   6.455
10976POPC   C2B68552   3.600   6.908   6.755
10976POPC   C3B68553   3.573   6.850   7.055
10976POPC   C4B68554   3.627   6.906   7.355
10977POPC   NC368555  26.843  28.390   5.555
10977POPC   PO468556  26.857  28.321   5.855
10977POPC   GL168557  26.785  28.387   6.155
10977POPC   GL268558  26.686  28.449   6.155
10977POPC   C1A68559  26.850  28.337   6.455
10977POPC   D2A68560  26.771  28.375   6.755
10977POPC   C3A68561  26.786  28.364   7.055
10977POPC   C4A68562  26.797  28.336   7.355
10977POPC   C1B68563  26.585  28.397   6.455
10977POPC   C2B68564  26.586  28.436   6.755
10977POPC   C3B68565  26.552  28.448   7.055
10977POPC   C4B68566  26.577  28.454   7.355
10978POPC   NC368567  35.383  29.185   5.555
10978POPC   PO468568  35.303  29.109   5.855
10978POPC   GL168569  35.358  29.132   6.155
10978POPC   GL268570  35.413  29.225   6.155
10978POPC   C1A68571  35.399  29.138   6.455
10978POPC   D2A68572  35.333  29.172   6.755
10978POPC   C3A68573  35.365  29.098   7.055
10978POPC   C4A68574  35.329  29.102   7.355
10978POPC   C1B68575  35.550  29.236   6.455
10978POPC   C2B68576  35.549  29.313   6.755
10978POPC   C3B68577  35.594  29.233   7.055
10978POPC   C4B68578  35.559  29.230   7.355
10979POPC   NC368579  22.967  43.109   5.555
10979POPC   PO468580  22.943  43.121   5.855
10979POPC   GL168581  22.925  43.111   6.155
10979POPC   GL268582  23.070  43.147   6.155
10979POPC   C1A68583  22.904  43.129   6.455
10979POPC   D2A68584  22.900  43.132   6.755
10979POPC   C3A68585  22.967  43.149   7.055
10979POPC   C4A68586  22.978  43.113   7.355
10979POPC   C1B68587  23.220  43.060   6.455
10979POPC   C2B68588  23.220  43.082   6.755
10979POPC   C3B68589  23.231  43.072   7.055
10979POPC   C4B68590  23.236  43.041   7.355
10980POPC   NC368591  36.130  36.899   5.555
10980POPC   PO468592  36.114  36.909   5.855
10980POPC   GL168593  36.099  36.874   6.155
10980POPC   GL268594  36.163  36.821   6.155
10980POPC   C1A68595  36.141  36.918   6.455
10980POPC   D2A68596  36.173  36.887   6.755
10980POPC   C3A68597  36.156  36.916   7.055
10980POPC   C4A68598  36.129  36.869   7.355
10980POPC   C1B68599  36.275  36.715   6.455
10980POPC   C2B68600  36.257  36.683   6.755
10980POPC   C3B68601  36.290  36.731   7.055
10980POPC   C4B68602  36.228  36.736   7.355
10981POPC   NC368603  33.032   5.044   5.555
10981POPC   PO468604  32.975   5.111   5.855
10981POPC   GL168605  32.985   5.088   6.155
10981POPC   GL268606  32.889   5.089   6.155
10981POPC   C1A68607  32.993   5.081   6.455
10981POPC   D2A68608  33.022   5.121   6.755
10981POPC   C3A68609  32.994   5.075   7.055
10981POPC   C4A68610  33.021   5.100   7.355
10981POPC   C1B68611  32.806   5.137   6.455
10981POPC   C2B68612  32.737   5.064   6.755
10981POPC   C3B68613  32.809   5.110   7.055
10981POPC   C4B68614  32.731   5.082   7.355
10982POPC   NC368615  34.596  11.339   5.555
10982POPC   PO468616  34.548  11.254   5.855
10982POPC   GL168617  34.529  11.301   6.155
10982POPC   GL268618  34.436  11.305   6.155
10982POPC   C1A68619  34.617  11.304   6.455
10982POPC   D2A68620  34.593  11.269   6.755
10982POPC   C3A68621  34.547  11.346   7.055
10982POPC   C4A68622  34.601  11.301   7.355
10982POPC   C1B68623  34.292  11.251   6.455
10982POPC   C2B68624  34.294  11.191   6.755
10982POPC   C3B68625  34.290  11.220   7.055
10982POPC   C4B68626  34.362  11.269   7.355
10983POPC   NC368627   7.431   8.226   5.555
10983POPC   PO468628   7.455   8.205   5.855
10983POPC   GL168629   7.382   8.151   6.155
10983POPC   GL268630   7.397   8.301   6.155
10983POPC   C1A68631   7.445   8.240   6.455
10983POPC   D2A68632   7.454   8.169   6.755
10983POPC   C3A68633   7.389   8.225   7.055
10983POPC   C4A68634   7.423   8.221   7.355
10983POPC   C1B68635   7.280   8.377   6.455
10983POPC   C2B68636   7.323   8.381   6.755
10983POPC   C3B68637   7.273   8.384   7.055
10983POPC   C4B68638   7.333   8.380   7.355
10984POPC   NC368639   9.776  43.072   5.555
10984POPC   PO468640   9.718  43.128   5.855
10984POPC   GL168641   9.755  43.088   6.155
10984POPC   GL268642   9.768  43.265   6.155
10984POPC   C1A68643   9.734  43.141   6.455
10984POPC   D2A68644   9.712  43.113   6.755
10984POPC   C3A68645   9.734  43.137   7.055
10984POPC   C4A68646   9.732  43.088   7.355
10984POPC   C1B68647   9.906  43.337   6.455
10984POPC   C2B68648   9.830  43.287   6.755
10984POPC   C3B68649   9.901  43.369   7.055
10984POPC   C4B68650   9.910  43.328   7.355
10985POPC   NC368651  35.380  39.212   5.555
10985POPC   PO468652  35.393  39.234   5.855
10985POPC   GL168653  35.314  39.278   6.155
10985POPC   GL268654  35.305  39.075   6.155
10985POPC   C1A68655  35.366  39.198   6.455
10985POPC   D2A68656  35.328  39.255   6.755
10985POPC   C3A68657  35.321  39.225   7.055
10985POPC   C4A68658  35.364  39.207   7.355
10985POPC   C1B68659  35.310  38.968   6.455
10985POPC   C2B68660  35.247  38.965   6.755
10985POPC   C3B68661  35.251  38.986   7.055
10985POPC   C4B68662  35.261  39.029   7.355
10986POPC   NC368663  21.409   2.787   5.555
10986POPC   PO468664  21.339   2.791   5.855
10986POPC   GL168665  21.349   2.805   6.155
10986POPC   GL268666  21.310   2.864   6.155
10986POPC   C1A68667  21.402   2.733   6.455
10986POPC   D2A68668  21.428   2.798   6.755
10986POPC   C3A68669  21.399   2.777   7.055
10986POPC   C4A68670  21.428   2.744   7.355
10986POPC   C1B68671  21.275   3.032   6.455
10986POPC   C2B68672  21.338   2.967   6.755
10986POPC   C3B68673  21.325   3.034   7.055
10986POPC   C4B68674  21.335   3.047   7.355
10987POPC   NC368675  40.007   4.274   5.555
10987POPC   PO468676  40.039   4.292   5.855
10987POPC   GL168677  39.995   4.299   6.155
10987POPC   GL268678  40.089   4.253   6.155
10987POPC   C1A68679  40.044   4.318   6.455
10987POPC   D2A68680  39.990   4.310   6.755
10987POPC   C3A68681  40.025   4.351   7.055
10987POPC   C4A68682  39.968   4.322   7.355
10987POPC   C1B68683  40.191   4.221   6.455
10987POPC   C2B68684  40.180   4.219   6.755
10987POPC   C3B68685  40.230   4.224   7.055
10987POPC   C4B68686  40.229   4.219   7.355
10988POPC   NC368687  40.031   1.987   5.555
10988POPC   PO468688  39.969   1.950   5.855
10988POPC   GL168689  40.050   1.989   6.155
10988POPC   GL268690  40.120   1.859   6.155
10988POPC   C1A68691  39.979   1.984   6.455
10988POPC   D2A68692  39.982   1.953   6.755
10988POPC   C3A68693  40.020   1.986   7.055
10988POPC   C4A68694  39.979   1.954   7.355
10988POPC   C1B68695  40.093   1.744   6.455
10988POPC   C2B68696  40.087   1.800   6.755
10988POPC   C3B68697  40.180   1.750   7.055
10988POPC   C4B68698  40.097   1.802   7.355
10989POPC   NC368699  20.645  40.798   5.555
10989POPC   PO468700  20.603  40.787   5.855
10989POPC   GL168701  20.563  40.745   6.155
10989POPC   GL268702  20.474  40.707   6.155
10989POPC   C1A68703  20.649  40.757   6.455
10989POPC   D2A68704  20.650  40.805   6.755
10989POPC   C3A68705  20.646  40.742   7.055
10989POPC   C4A68706  20.621  40.738   7.355
10989POPC   C1B68707  20.400  40.769   6.455
10989POPC   C2B68708  20.345  40.757   6.755
10989POPC   C3B68709  20.348  40.685   7.055
10989POPC   C4B68710  20.408  40.763   7.355
10990POPC   NC368711   8.148  35.303   5.555
10990POPC   PO468712   8.188  35.376   5.855
10990POPC   GL168713   8.218  35.307   6.155
10990POPC   GL268714   8.186  35.245   6.155
10990POPC   C1A68715   8.148  35.307   6.455
10990POPC   D2A68716   8.227  35.349   6.755
10990POPC   C3A68717   8.189  35.374   7.055
10990POPC   C4A68718   8.238  35.365   7.355
10990POPC   C1B68719   8.109  35.148   6.455
10990POPC   C2B68720   8.077  35.144   6.755
10990POPC   C3B68721   8.108  35.096   7.055
10990POPC   C4B68722   8.137  35.078   7.355
10991POPC   NC368723  44.676  21.389   5.555
10991POPC   PO468724  44.664  21.398   5.855
10991POPC   GL168725  44.677  21.368   6.155
10991POPC   GL268726  44.697  21.494   6.155
10991POPC   C1A68727  44.624  21.340   6.455
10991POPC   D2A68728  44.623  21.386   6.755
10991POPC   C3A68729  44.615  21.367   7.055
10991POPC   C4A68730  44.676  21.363   7.355
10991POPC   C1B68731  44.649  21.624   6.455
10991POPC   C2B68732  44.670  21.593   6.755
10991POPC   C3B68733  44.644  21.653   7.055
10991POPC   C4B68734  44.604  21.598   7.355
10992POPC   NC368735  35.365   1.251   5.555
10992POPC   PO468736  35.383   1.255   5.855
10992POPC   GL168737  35.323   1.165   6.155
10992POPC   GL268738  35.379   1.130   6.155
10992POPC   C1A68739  35.305   1.215   6.455
10992POPC   D2A68740  35.323   1.183   6.755
10992POPC   C3A68741  35.364   1.253   7.055
10992POPC   C4A68742  35.309   1.211   7.355
10992POPC   C1B68743  35.458   0.973   6.455
10992POPC   C2B68744  35.473   0.993   6.755
10992POPC   C3B68745  35.383   0.947   7.055
10992POPC   C4B68746  35.411   1.007   7.355
10993POPC   NC368747  40.776  29.941   5.555
10993POPC   PO468748  40.818  29.936   5.855
10993POPC   GL168749  40.808  29.899   6.155
10993POPC   GL268750  40.690  30.064   6.155
10993POPC   C1A68751  40.802  29.948   6.455
10993POPC   D2A68752  40.776  29.887   6.755
10993POPC   C3A68753  40.749  29.946   7.055
10993POPC   C4A68754  40.753  29.881   7.355
10993POPC   C1B68755  40.632  30.101   6.455
10993POPC   C2B68756  40.629  30.118   6.755
10993POPC   C3B68757  40.648  30.133   7.055
10993POPC   C4B68758  40.657  30.088   7.355
10994POPC   NC368759  39.186  32.242   5.555
10994POPC   PO468760  39.260  32.206   5.855
10994POPC   GL168761  39.199  32.233   6.155
10994POPC   GL268762  39.207  32.110   6.155
10994POPC   C1A68763  39.257  32.264   6.455
10994POPC   D2A68764  39.235  32.245   6.755
10994POPC   C3A68765  39.230  32.206   7.055
10994POPC   C4A68766  39.183  32.225   7.355
10994POPC   C1B68767  39.058  32.017   6.455
10994POPC   C2B68768  39.107  32.049   6.755
10994POPC   C3B68769  39.066  32.075   7.055
10994POPC   C4B68770  39.126  32.051   7.355
10995POPC   NC368771  23.716  33.789   5.555
10995POPC   PO468772  23.699  33.849   5.855
10995POPC   GL168773  23.694  33.827   6.155
10995POPC   GL268774  23.803  33.775   6.155
10995POPC   C1A68775  23.687  33.833   6.455
10995POPC   D2A68776  23.732  33.818   6.755
10995POPC   C3A68777  23.710  33.836   7.055
10995POPC   C4A68778  23.712  33.770   7.355
10995POPC   C1B68779  23.927  33.772   6.455
10995POPC   C2B68780  23.945  33.841   6.755
10995POPC   C3B68781  23.953  33.778   7.055
10995POPC   C4B68782  24.012  33.839   7.355
10996POPC   NC368783  30.660  22.127   5.555
10996POPC   PO468784  30.660  22.199   5.855
10996POPC   GL168785  30.677  22.199   6.155
10996POPC   GL268786  30.802  22.202   6.155
10996POPC   C1A68787  30.723  22.113   6.455
10996POPC   D2A68788  30.647  22.198   6.755
10996POPC   C3A68789  30.719  22.205   7.055
10996POPC   C4A68790  30.703  22.210   7.355
10996POPC   C1B68791  30.932  22.209   6.455
10996POPC   C2B68792  30.945  22.185   6.755
10996POPC   C3B68793  30.938  22.239   7.055
10996POPC   C4B68794  30.895  22.178   7.355
10997POPC   NC368795  36.861  21.391   5.555
10997POPC   PO468796  36.866  21.367   5.855
10997POPC   GL168797  36.903  21.367   6.155
10997POPC   GL268798  36.868  21.271   6.155
10997POPC   C1A68799  36.946  21.419   6.455
10997POPC   D2A68800  36.865  21.434   6.755
10997POPC   C3A68801  36.867  21.378   7.055
10997POPC   C4A68802  36.917  21.432   7.355
10997POPC   C1B68803  36.770  21.184   6.455
10997POPC   C2B68804  36.781  21.146   6.755
10997POPC   C3B68805  36.732  21.213   7.055
10997POPC   C4B68806  36.761  21.199   7.355
10998POPC   NC368807  33.817  22.891   5.555
10998POPC   PO468808  33.844  22.939   5.855
10998POPC   GL168809  33.795  22.895   6.155
10998POPC   GL268810  33.673  22.881   6.155
10998POPC   C1A68811  33.807  22.924   6.455
10998POPC   D2A68812  33.785  22.906   6.755
10998POPC   C3A68813  33.815  22.968   7.055
10998POPC   C4A68814  33.840  22.937   7.355
10998POPC   C1B68815  33.505  22.954   6.455
10998POPC   C2B68816  33.512  22.956   6.755
10998POPC   C3B68817  33.513  22.930   7.055
10998POPC   C4B68818  33.528  22.942   7.355
10999POPC   NC368819  18.247  44.687   5.555
10999POPC   PO468820  18.315  44.685   5.855
10999POPC   GL168821  18.310  44.653   6.155
10999POPC   GL268822  18.146  44.621   6.155
10999POPC   C1A68823  18.327  44.659   6.455
10999POPC   D2A68824  18.301  44.633   6.755
10999POPC   C3A68825  18.302  44.664   7.055
10999POPC   C4A68826  18.316  44.708   7.355
10999POPC   C1B68827  18.020  44.655   6.455
10999POPC   C2B68828  18.077  44.628   6.755
10999POPC   C3B68829  18.040  44.686   7.055
10999POPC   C4B68830  18.010  44.643   7.355
11000POPC   NC368831  22.920  26.082   5.555
11000POPC   PO468832  22.972  26.072   5.855
11000POPC   GL168833  22.943  26.030   6.155
11000POPC   GL268834  23.026  25.992   6.155
11000POPC   C1A68835  22.938  26.083   6.455
11000POPC   D2A68836  22.933  26.085   6.755
11000POPC   C3A68837  22.950  25.999   7.055
11000POPC   C4A68838  22.909  26.023   7.355
11000POPC   C1B68839  23.113  25.881   6.455
11000POPC   C2B68840  23.109  25.810   6.755
11000POPC   C3B68841  23.079  25.811   7.055
11000POPC   C4B68842  23.105  25.896   7.355
11001POPC   NC368843  12.120   2.000   5.555
11001POPC   PO468844  12.125   2.008   5.855
11001POPC   GL168845  12.073   1.996   6.155
11001POPC   GL268846  12.082   1.839   6.155
11001POPC   C1A68847  12.086   1.985   6.455
11001POPC   D2A68848  12.102   2.009   6.755
11001POPC   C3A68849  12.103   2.032   7.055
11001POPC   C4A68850  12.053   1.946   7.355
11001POPC   C1B68851  12.137   1.774   6.455
11001POPC   C2B68852  12.137   1.741   6.755
11001POPC   C3B68853  12.166   1.714   7.055
11001POPC   C4B68854  12.118   1.736   7.355
11002POPC   NC368855  30.687   1.949   5.555
11002POPC   PO468856  30.716   2.019   5.855
11002POPC   GL168857  30.731   1.961   6.155
11002POPC   GL268858  30.830   2.035   6.155
11002POPC   C1A68859  30.681   1.943   6.455
11002POPC   D2A68860  30.706   1.958   6.755
11002POPC   C3A68861  30.674   1.998   7.055
11002POPC   C4A68862  30.746   1.957   7.355
11002POPC   C1B68863  30.949   2.167   6.455
11002POPC   C2B68864  30.932   2.101   6.755
11002POPC   C3B68865  30.861   2.150   7.055
11002POPC   C4B68866  30.861   2.087   7.355
11003POPC   NC368867   2.787  22.979   5.555
11003POPC   PO468868   2.738  22.891   5.855
11003POPC   GL168869   2.772  22.903   6.155
11003POPC   GL268870   2.633  22.846   6.155
11003POPC   C1A68871   2.720  22.933   6.455
11003POPC   D2A68872   2.745  22.979   6.755
11003POPC   C3A68873   2.731  22.934   7.055
11003POPC   C4A68874   2.762  22.945   7.355
11003POPC   C1B68875   2.588  22.746   6.455
11003POPC   C2B68876   2.521  22.797   6.755
11003POPC   C3B68877   2.534  22.758   7.055
11003POPC   C4B68878   2.527  22.828   7.355
11004POPC   NC368879   8.239  14.407   5.555
11004POPC   PO468880   8.149  14.377   5.855
11004POPC   GL168881   8.204  14.426   6.155
11004POPC   GL268882   8.137  14.303   6.155
11004POPC   C1A68883   8.205  14.401   6.455
11004POPC   D2A68884   8.243  14.397   6.755
11004POPC   C3A68885   8.223  14.378   7.055
11004POPC   C4A68886   8.223  14.368   7.355
11004POPC   C1B68887   8.064  14.190   6.455
11004POPC   C2B68888   8.044  14.160   6.755
11004POPC   C3B68889   8.107  14.204   7.055
11004POPC   C4B68890   8.098  14.208   7.355
11005POPC   NC368891  36.875  29.101   5.555
11005POPC   PO468892  36.917  29.139   5.855
11005POPC   GL168893  36.928  29.095   6.155
11005POPC   GL268894  36.936  29.039   6.155
11005POPC   C1A68895  36.895  29.122   6.455
11005POPC   D2A68896  36.882  29.126   6.755
11005POPC   C3A68897  36.911  29.109   7.055
11005POPC   C4A68898  36.874  29.148   7.355
11005POPC   C1B68899  36.939  28.862   6.455
11005POPC   C2B68900  36.973  28.946   6.755
11005POPC   C3B68901  36.990  28.932   7.055
11005POPC   C4B68902  36.978  28.908   7.355
11006POPC   NC368903  34.614  37.718   5.555
11006POPC   PO468904  34.561  37.716   5.855
11006POPC   GL168905  34.623  37.729   6.155
11006POPC   GL268906  34.503  37.811   6.155
11006POPC   C1A68907  34.622  37.688   6.455
11006POPC   D2A68908  34.605  37.670   6.755
11006POPC   C3A68909  34.572  37.674   7.055
11006POPC   C4A68910  34.576  37.631   7.355
11006POPC   C1B68911  34.530  37.954   6.455
11006POPC   C2B68912  34.517  37.909   6.755
11006POPC   C3B68913  34.519  37.886   7.055
11006POPC   C4B68914  34.516  37.951   7.355
11007POPC   NC368915  10.552  42.341   5.555
11007POPC   PO468916  10.564  42.370   5.855
11007POPC   GL168917  10.564  42.315   6.155
11007POPC   GL268918  10.676  42.379   6.155
11007POPC   C1A68919  10.565  42.329   6.455
11007POPC   D2A68920  10.530  42.362   6.755
11007POPC   C3A68921  10.557  42.303   7.055
11007POPC   C4A68922  10.476  42.336   7.355
11007POPC   C1B68923  10.797  42.453   6.455
11007POPC   C2B68924  10.727  42.440   6.755
11007POPC   C3B68925  10.796  42.395   7.055
11007POPC   C4B68926  10.727  42.403   7.355
11008POPC   NC368927   3.546  12.123   5.555
11008POPC   PO468928   3.571  12.033   5.855
11008POPC   GL168929   3.575  12.109   6.155
11008POPC   GL268930   3.567  11.943   6.155
11008POPC   C1A68931   3.537  12.047   6.455
11008POPC   D2A68932   3.558  12.089   6.755
11008POPC   C3A68933   3.493  12.090   7.055
11008POPC   C4A68934   3.507  12.032   7.355
11008POPC   C1B68935   3.539  11.806   6.455
11008POPC   C2B68936   3.521  11.872   6.755
11008POPC   C3B68937   3.555  11.863   7.055
11008POPC   C4B68938   3.607  11.866   7.355
11009POPC   NC368939  13.591   8.232   5.555
11009POPC   PO468940  13.604   8.159   5.855
11009POPC   GL168941  13.606   8.224   6.155
11009POPC   GL268942  13.701   8.277   6.155
11009POPC   C1A68943  13.655   8.150   6.455
11009POPC   D2A68944  13.677   8.244   6.755
11009POPC   C3A68945  13.592   8.158   7.055
11009POPC   C4A68946  13.621   8.197   7.355
11009POPC   C1B68947  13.838   8.355   6.455
11009POPC   C2B68948  13.768   8.389   6.755
11009POPC   C3B68949  13.783   8.342   7.055
11009POPC   C4B68950  13.786   8.355   7.355
11010POPC   NC368951   9.784  38.505   5.555
11010POPC   PO468952   9.701  38.454   5.855
11010POPC   GL168953   9.728  38.481   6.155
11010POPC   GL268954   9.634  38.406   6.155
11010POPC   C1A68955   9.781  38.425   6.455
11010POPC   D2A68956   9.723  38.504   6.755
11010POPC   C3A68957   9.746  38.501   7.055
11010POPC   C4A68958   9.711  38.406   7.355
11010POPC   C1B68959   9.550  38.257   6.455
11010POPC   C2B68960   9.614  38.273   6.755
11010POPC   C3B68961   9.621  38.244   7.055
11010POPC   C4B68962   9.584  38.236   7.355
11011POPC   NC368963   3.571  43.119   5.555
11011POPC   PO468964   3.549  43.132   5.855
11011POPC   GL168965   3.582  43.094   6.155
11011POPC   GL268966   3.644  42.974   6.155
11011POPC   C1A68967   3.553  43.137   6.455
11011POPC   D2A68968   3.542  43.083   6.755
11011POPC   C3A68969   3.581  43.099   7.055
11011POPC   C4A68970   3.551  43.144   7.355
11011POPC   C1B68971   3.721  42.890   6.455
11011POPC   C2B68972   3.748  42.935   6.755
11011POPC   C3B68973   3.687  42.937   7.055
11011POPC   C4B68974   3.756  42.915   7.355
11012POPC   NC368975  16.004  32.237   5.555
11012POPC   PO468976  15.959  32.235   5.855
11012POPC   GL168977  15.984  32.256   6.155
11012POPC   GL268978  15.941  32.107   6.155
11012POPC   C1A68979  15.959  32.220   6.455
11012POPC   D2A68980  16.000  32.212   6.755
11012POPC   C3A68981  15.999  32.275   7.055
11012POPC   C4A68982  15.917  32.264   7.355
11012POPC   C1B68983  16.018  31.964   6.455
11012POPC   C2B68984  15.987  32.004   6.755
11012POPC   C3B68985  15.993  31.977   7.055
11012POPC   C4B68986  16.033  32.006   7.355
11013POPC   NC368987  12.036   9.707   5.555
11013POPC   PO468988  12.065   9.743   5.855
11013POPC   GL168989  12.121   9.705   6.155
11013POPC   GL268990  12.011   9.808   6.155
11013POPC   C1A68991  12.080   9.731   6.455
11013POPC   D2A68992  12.075   9.710   6.755
11013POPC   C3A68993  12.063   9.760   7.055
11013POPC   C4A68994  12.059   9.786   7.355
11013POPC   C1B68995  11.897   9.990   6.455
11013POPC   C2B68996  11.906   9.998   6.755
11013POPC   C3B68997  11.954   9.940   7.055
11013POPC   C4B68998  11.942  10.010   7.355
11014POPC   NC368999  30.674  29.171   5.555
11014POPC   PO469000  30.696  29.174   5.855
11014POPC   GL169001  30.649  29.119   6.155
11014POPC   GL269002  30.809  29.205   6.155
11014POPC   C1A69003  30.738  29.155   6.455
11014POPC   D2A69004  30.695  29.175   6.755
11014POPC   C3A69005  30.736  29.122   7.055
11014POPC   C4A69006  30.662  29.142   7.355
11014POPC   C1B69007  30.863  29.312   6.455
11014POPC   C2B69008  30.951  29.306   6.755
11014POPC   C3B69009  30.855  29.294   7.055
11014POPC   C4B69010  30.856  29.264   7.355
11015POPC   NC369011  15.964   2.719   5.555
11015POPC   PO469012  15.994   2.799   5.855
11015POPC   GL169013  15.918   2.776   6.155
11015POPC   GL269014  15.861   2.750   6.155
11015POPC   C1A69015  15.973   2.793   6.455
11015POPC   D2A69016  15.965   2.746   6.755
11015POPC   C3A69017  15.927   2.722   7.055
11015POPC   C4A69018  15.971   2.770   7.355
11015POPC   C1B69019  15.666   2.782   6.455
11015POPC   C2B69020  15.657   2.829   6.755
11015POPC   C3B69021  15.738   2.793   7.055
11015POPC   C4B69022  15.734   2.743   7.355
11016POPC   NC369023   0.411  37.687   5.555
11016POPC   PO469024   0.414  37.652   5.855
11016POPC   GL169025   0.433  37.690   6.155
11016POPC   GL269026   0.306  37.642   6.155
11016POPC   C1A69027   0.468  37.635   6.455
11016POPC   D2A69028   0.448  37.661   6.755
11016POPC   C3A69029   0.392  37.669   7.055
11016POPC   C4A69030   0.475  37.702   7.355
11016POPC   C1B69031   0.222  37.650   6.455
11016POPC   C2B69032   0.144  37.656   6.755
11016POPC   C3B69033   0.222  37.688   7.055
11016POPC   C4B69034   0.144  37.700   7.355
11017POPC   NC369035  36.880  39.232   5.555
11017POPC   PO469036  36.921  39.261   5.855
11017POPC   GL169037  36.882  39.189   6.155
11017POPC   GL269038  36.897  39.360   6.155
11017POPC   C1A69039  36.951  39.256   6.455
11017POPC   D2A69040  36.921  39.268   6.755
11017POPC   C3A69041  36.930  39.221   7.055
11017POPC   C4A69042  36.945  39.267   7.355
11017POPC   C1B69043  36.985  39.432   6.455
11017POPC   C2B69044  37.002  39.434   6.755
11017POPC   C3B69045  37.027  39.491   7.055
11017POPC   C4B69046  36.935  39.447   7.355
11018POPC   NC369047   9.777  44.703   5.555
11018POPC   PO469048   9.733  44.689   5.855
11018POPC   GL169049   9.706  44.704   6.155
11018POPC   GL269050   9.873  44.544   6.155
11018POPC   C1A69051   9.765  44.684   6.455
11018POPC   D2A69052   9.745  44.691   6.755
11018POPC   C3A69053   9.761  44.637   7.055
11018POPC   C4A69054   9.701  44.658   7.355
11018POPC   C1B69055   9.927  44.474   6.455
11018POPC   C2B69056   9.904  44.508   6.755
11018POPC   C3B69057   9.899  44.478   7.055
11018POPC   C4B69058   9.885  44.540   7.355
11019POPC   NC369059  30.695  29.918   5.555
11019POPC   PO469060  30.708  29.959   5.855
11019POPC   GL169061  30.702  29.918   6.155
11019POPC   GL269062  30.853  29.929   6.155
11019POPC   C1A69063  30.696  29.920   6.455
11019POPC   D2A69064  30.650  29.910   6.755
11019POPC   C3A69065  30.724  29.940   7.055
11019POPC   C4A69066  30.711  29.949   7.355
11019POPC   C1B69067  30.972  30.038   6.455
11019POPC   C2B69068  30.915  30.043   6.755
11019POPC   C3B69069  30.950  30.009   7.055
11019POPC   C4B69070  30.967  30.015   7.355
11020POPC   NC369071  41.601  39.976   5.555
11020POPC   PO469072  41.541  39.989   5.855
11020POPC   GL169073  41.556  40.055   6.155
11020POPC   GL269074  41.458  39.912   6.155
11020POPC   C1A69075  41.561  40.041   6.455
11020POPC   D2A69076  41.514  39.965   6.755
11020POPC   C3A69077  41.597  40.015   7.055
11020POPC   C4A69078  41.518  39.990   7.355
11020POPC   C1B69079  41.430  39.751   6.455
11020POPC   C2B69080  41.474  39.809   6.755
11020POPC   C3B69081  41.499  39.758   7.055
11020POPC   C4B69082  41.474  39.736   7.355
11021POPC   NC369083  22.930  32.204   5.555
11021POPC   PO469084  22.890  32.239   5.855
11021POPC   GL169085  22.902  32.226   6.155
11021POPC   GL269086  23.008  32.365   6.155
11021POPC   C1A69087  22.899  32.291   6.455
11021POPC   D2A69088  22.986  32.246   6.755
11021POPC   C3A69089  22.917  32.217   7.055
11021POPC   C4A69090  22.944  32.280   7.355
11021POPC   C1B69091  23.131  32.387   6.455
11021POPC   C2B69092  23.152  32.377   6.755
11021POPC   C3B69093  23.166  32.411   7.055
11021POPC   C4B69094  23.172  32.386   7.355
11022POPC   NC369095  17.494  35.311   5.555
11022POPC   PO469096  17.532  35.395   5.855
11022POPC   GL169097  17.543  35.400   6.155
11022POPC   GL269098  17.653  35.334   6.155
11022POPC   C1A69099  17.477  35.308   6.455
11022POPC   D2A69100  17.491  35.388   6.755
11022POPC   C3A69101  17.528  35.345   7.055
11022POPC   C4A69102  17.495  35.392   7.355
11022POPC   C1B69103  17.705  35.225   6.455
11022POPC   C2B69104  17.727  35.264   6.755
11022POPC   C3B69105  17.693  35.258   7.055
11022POPC   C4B69106  17.766  35.182   7.355
11023POPC   NC369107  15.957   6.672   5.555
11023POPC   PO469108  15.972   6.691   5.855
11023POPC   GL169109  15.975   6.687   6.155
11023POPC   GL269110  16.090   6.652   6.155
11023POPC   C1A69111  15.973   6.665   6.455
11023POPC   D2A69112  15.935   6.597   6.755
11023POPC   C3A69113  15.972   6.620   7.055
11023POPC   C4A69114  15.977   6.659   7.355
11023POPC   C1B69115  16.171   6.680   6.455
11023POPC   C2B69116  16.168   6.716   6.755
11023POPC   C3B69117  16.185   6.671   7.055
11023POPC   C4B69118  16.214   6.658   7.355
11024POPC   NC369119   4.329  24.450   5.555
11024POPC   PO469120   4.279  24.518   5.855
11024POPC   GL169121   4.298  24.536   6.155
11024POPC   GL269122   4.449  24.418   6.155
11024POPC   C1A69123   4.289  24.509   6.455
11024POPC   D2A69124   4.343  24.533   6.755
11024POPC   C3A69125   4.356  24.505   7.055
11024POPC   C4A69126   4.289  24.499   7.355
11024POPC   C1B69127   4.559  24.359   6.455
11024POPC   C2B69128   4.518  24.386   6.755
11024POPC   C3B69129   4.481  24.376   7.055
11024POPC   C4B69130   4.523  24.328   7.355
11025POPC   NC369131  35.391  14.424   5.555
11025POPC   PO469132  35.381  14.359   5.855
11025POPC   GL169133  35.340  14.428   6.155
11025POPC   GL269134  35.227  14.492   6.155
11025POPC   C1A69135  35.351  14.358   6.455
11025POPC   D2A69136  35.364  14.368   6.755
11025POPC   C3A69137  35.331  14.446   7.055
11025POPC   C4A69138  35.319  14.373   7.355
11025POPC   C1B69139  35.149  14.584   6.455
11025POPC   C2B69140  35.224  14.573   6.755
11025POPC   C3B69141  35.152  14.638   7.055
11025POPC   C4B69142  35.158  14.644   7.355
11026POPC   NC369143  35.394  38.417   5.555
11026POPC   PO469144  35.372  38.416   5.855
11026POPC   GL169145  35.368  38.473   6.155
11026POPC   GL269146  35.243  38.484   6.155
11026POPC   C1A69147  35.334  38.501   6.455
11026POPC   D2A69148  35.321  38.421   6.755
11026POPC   C3A69149  35.343  38.485   7.055
11026POPC   C4A69150  35.311  38.473   7.355
11026POPC   C1B69151  35.093  38.369   6.455
11026POPC   C2B69152  35.058  38.423   6.755
11026POPC   C3B69153  35.087  38.398   7.055
11026POPC   C4B69154  35.079  38.424   7.355
11027POPC   NC369155   2.026   8.925   5.555
11027POPC   PO469156   1.970   8.951   5.855
11027POPC   GL169157   1.973   8.974   6.155
11027POPC   GL269158   1.857   9.020   6.155
11027POPC   C1A69159   1.999   8.968   6.455
11027POPC   D2A69160   2.030   8.948   6.755
11027POPC   C3A69161   1.973   8.961   7.055
11027POPC   C4A69162   1.984   9.008   7.355
11027POPC   C1B69163   1.760   9.089   6.455
11027POPC   C2B69164   1.806   9.053   6.755
11027POPC   C3B69165   1.800   9.057   7.055
11027POPC   C4B69166   1.767   9.109   7.355
11028POPC   NC369167  21.427  42.336   5.555
11028POPC   PO469168  21.400  42.353   5.855
11028POPC   GL169169  21.390  42.379   6.155
11028POPC   GL269170  21.311  42.313   6.155
11028POPC   C1A69171  21.404  42.362   6.455
11028POPC   D2A69172  21.357  42.296   6.755
11028POPC   C3A69173  21.368  42.334   7.055
11028POPC   C4A69174  21.379  42.349   7.355
11028POPC   C1B69175  21.126  42.262   6.455
11028POPC   C2B69176  21.216  42.249   6.755
11028POPC   C3B69177  21.205  42.232   7.055
11028POPC   C4B69178  21.158  42.215   7.355
11029POPC   NC369179   4.281  31.473   5.555
11029POPC   PO469180   4.335  31.439   5.855
11029POPC   GL169181   4.308  31.520   6.155
11029POPC   GL269182   4.463  31.436   6.155
11029POPC   C1A69183   4.288  31.514   6.455
11029POPC   D2A69184   4.361  31.518   6.755
11029POPC   C3A69185   4.365  31.520   7.055
11029POPC   C4A69186   4.344  31.448   7.355
11029POPC   C1B69187   4.522  31.374   6.455
11029POPC   C2B69188   4.470  31.366   6.755
11029POPC   C3B69189   4.544  31.321   7.055
11029POPC   C4B69190   4.480  31.335   7.355
11030POPC   NC369191   9.743  37.639   5.555
11030POPC   PO469192   9.743  37.715   5.855
11030POPC   GL169193   9.725  37.659   6.155
11030POPC   GL269194   9.865  37.759   6.155
11030POPC   C1A69195   9.725  37.683   6.455
11030POPC   D2A69196   9.700  37.709   6.755
11030POPC   C3A69197   9.770  37.645   7.055
11030POPC   C4A69198   9.789  37.647   7.355
11030POPC   C1B69199   9.975  37.820   6.455
11030POPC   C2B69200   9.923  37.808   6.755
11030POPC   C3B69201   9.979  37.874   7.055
11030POPC   C4B69202   9.889  37.882   7.355
11031POPC   NC369203  28.411  44.623   5.555
11031POPC   PO469204  28.337  44.695   5.855
11031POPC   GL169205  28.334  44.698   6.155
11031POPC   GL269206  28.431  44.613   6.155
11031POPC   C1A69207  28.320  44.693   6.455
11031POPC   D2A69208  28.413  44.632   6.755
11031POPC   C3A69209  28.393  44.636   7.055
11031POPC   C4A69210  28.385  44.634   7.355
11031POPC   C1B69211  28.584  44.477   6.455
11031POPC   C2B69212  28.551  44.461   6.755
11031POPC   C3B69213  28.548  44.520   7.055
11031POPC   C4B69214  28.599  44.542   7.355
11032POPC   NC369215   9.795  26.010   5.555
11032POPC   PO469216   9.789  26.004   5.855
11032POPC   GL169217   9.736  26.056   6.155
11032POPC   GL269218   9.626  26.088   6.155
11032POPC   C1A69219   9.785  26.047   6.455
11032POPC   D2A69220   9.719  26.004   6.755
11032POPC   C3A69221   9.796  26.073   7.055
11032POPC   C4A69222   9.726  26.056   7.355
11032POPC   C1B69223   9.557  26.241   6.455
11032POPC   C2B69224   9.623  26.186   6.755
11032POPC   C3B69225   9.634  26.246   7.055
11032POPC   C4B69226   9.600  26.250   7.355
11033POPC   NC369227  13.594  19.080   5.555
11033POPC   PO469228  13.578  19.044   5.855
11033POPC   GL169229  13.672  19.053   6.155
11033POPC   GL269230  13.508  19.025   6.155
11033POPC   C1A69231  13.616  19.016   6.455
11033POPC   D2A69232  13.581  19.059   6.755
11033POPC   C3A69233  13.622  19.048   7.055
11033POPC   C4A69234  13.627  19.090   7.355
11033POPC   C1B69235  13.427  18.887   6.455
11033POPC   C2B69236  13.384  18.889   6.755
11033POPC   C3B69237  13.410  18.885   7.055
11033POPC   C4B69238  13.381  18.952   7.355
11034POPC   NC369239  13.663  20.655   5.555
11034POPC   PO469240  13.587  20.563   5.855
11034POPC   GL169241  13.633  20.563   6.155
11034POPC   GL269242  13.504  20.625   6.155
11034POPC   C1A69243  13.643  20.659   6.455
11034POPC   D2A69244  13.643  20.582   6.755
11034POPC   C3A69245  13.607  20.621   7.055
11034POPC   C4A69246  13.643  20.606   7.355
11034POPC   C1B69247  13.384  20.566   6.455
11034POPC   C2B69248  13.363  20.572   6.755
11034POPC   C3B69249  13.342  20.628   7.055
11034POPC   C4B69250  13.357  20.619   7.355
11035POPC   NC369251   3.495  40.762   5.555
11035POPC   PO469252   3.583  40.792   5.855
11035POPC   GL169253   3.492  40.811   6.155
11035POPC   GL269254   3.518  40.621   6.155
11035POPC   C1A69255   3.566  40.773   6.455
11035POPC   D2A69256   3.493  40.754   6.755
11035POPC   C3A69257   3.499  40.770   7.055
11035POPC   C4A69258   3.533  40.760   7.355
11035POPC   C1B69259   3.496  40.584   6.455
11035POPC   C2B69260   3.549  40.502   6.755
11035POPC   C3B69261   3.483  40.544   7.055
11035POPC   C4B69262   3.499  40.527   7.355
11036POPC   NC369263  44.711  19.077   5.555
11036POPC   PO469264  44.638  19.102   5.855
11036POPC   GL169265  44.644  19.015   6.155
11036POPC   GL269266  44.566  18.970   6.155
11036POPC   C1A69267  44.668  19.086   6.455
11036POPC   D2A69268  44.655  19.089   6.755
11036POPC   C3A69269  44.709  19.055   7.055
11036POPC   C4A69270  44.666  19.058   7.355
11036POPC   C1B69271  44.469  18.961   6.455
11036POPC   C2B69272  44.492  18.920   6.755
11036POPC   C3B69273  44.465  18.904   7.055
11036POPC   C4B69274  44.424  18.890   7.355
11037POPC   NC369275   5.059   6.647   5.555
11037POPC   PO469276   5.074   6.617   5.855
11037POPC   GL169277   5.081   6.597   6.155
11037POPC   GL269278   4.972   6.559   6.155
11037POPC   C1A69279   5.076   6.668   6.455
11037POPC   D2A69280   5.067   6.613   6.755
11037POPC   C3A69281   5.142   6.599   7.055
11037POPC   C4A69282   5.096   6.678   7.355
11037POPC   C1B69283   4.907   6.556   6.455
11037POPC   C2B69284   4.829   6.479   6.755
11037POPC   C3B69285   4.852   6.530   7.055
11037POPC   C4B69286   4.847   6.484   7.355
11038POPC   NC369287  39.225  25.257   5.555
11038POPC   PO469288  39.213  25.242   5.855
11038POPC   GL169289  39.214  25.246   6.155
11038POPC   GL269290  39.294  25.233   6.155
11038POPC   C1A69291  39.181  25.246   6.455
11038POPC   D2A69292  39.232  25.273   6.755
11038POPC   C3A69293  39.187  25.231   7.055
11038POPC   C4A69294  39.225  25.238   7.355
11038POPC   C1B69295  39.458  25.140   6.455
11038POPC   C2B69296  39.467  25.126   6.755
11038POPC   C3B69297  39.439  25.159   7.055
11038POPC   C4B69298  39.477  25.159   7.355
11039POPC   NC369299   2.726   1.205   5.555
11039POPC   PO469300   2.730   1.246   5.855
11039POPC   GL169301   2.804   1.207   6.155
11039POPC   GL269302   2.704   1.173   6.155
11039POPC   C1A69303   2.753   1.211   6.455
11039POPC   D2A69304   2.783   1.189   6.755
11039POPC   C3A69305   2.729   1.176   7.055
11039POPC   C4A69306   2.770   1.262   7.355
11039POPC   C1B69307   2.558   1.088   6.455
11039POPC   C2B69308   2.520   1.094   6.755
11039POPC   C3B69309   2.534   1.119   7.055
11039POPC   C4B69310   2.589   1.100   7.355
11040POPC   NC369311  21.436   5.881   5.555
11040POPC   PO469312  21.362   5.847   5.855
11040POPC   GL169313  21.367   5.840   6.155
11040POPC   GL269314  21.257   5.753   6.155
11040POPC   C1A69315  21.405   5.903   6.455
11040POPC   D2A69316  21.338   5.891   6.755
11040POPC   C3A69317  21.365   5.884   7.055
11040POPC   C4A69318  21.373   5.871   7.355
11040POPC   C1B69319  21.223   5.659   6.455
11040POPC   C2B69320  21.271   5.720   6.755
11040POPC   C3B69321  21.237   5.630   7.055
11040POPC   C4B69322  21.260   5.672   7.355
11041POPC   NC369323  34.567  33.064   5.555
11041POPC   PO469324  34.534  33.022   5.855
11041POPC   GL169325  34.528  33.074   6.155
11041POPC   GL269326  34.653  32.986   6.155
11041POPC   C1A69327  34.569  33.000   6.455
11041POPC   D2A69328  34.607  33.009   6.755
11041POPC   C3A69329  34.600  33.070   7.055
11041POPC   C4A69330  34.601  33.063   7.355
11041POPC   C1B69331  34.810  33.052   6.455
11041POPC   C2B69332  34.869  32.997   6.755
11041POPC   C3B69333  34.779  33.044   7.055
11041POPC   C4B69334  34.807  33.028   7.355
11042POPC   NC369335   8.995  36.131   5.555
11042POPC   PO469336   8.959  36.091   5.855
11042POPC   GL169337   8.932  36.161   6.155
11042POPC   GL269338   8.996  36.199   6.155
11042POPC   C1A69339   8.985  36.131   6.455
11042POPC   D2A69340   8.966  36.138   6.755
11042POPC   C3A69341   9.013  36.102   7.055
11042POPC   C4A69342   8.965  36.119   7.355
11042POPC   C1B69343   9.070  36.352   6.455
11042POPC   C2B69344   9.070  36.379   6.755
11042POPC   C3B69345   9.062  36.336   7.055
11042POPC   C4B69346   9.096  36.333   7.355
11043POPC   NC369347  17.472   4.349   5.555
11043POPC   PO469348  17.474   4.270   5.855
11043POPC   GL169349  17.491   4.363   6.155
11043POPC   GL269350  17.607   4.256   6.155
11043POPC   C1A69351  17.461   4.273   6.455
11043POPC   D2A69352  17.506   4.270   6.755
11043POPC   C3A69353  17.500   4.275   7.055
11043POPC   C4A69354  17.476   4.267   7.355
11043POPC   C1B69355  17.616   4.148   6.455
11043POPC   C2B69356  17.642   4.100   6.755
11043POPC   C3B69357  17.677   4.102   7.055
11043POPC   C4B69358  17.581   4.073   7.355
11044POPC   NC369359  25.224  41.554   5.555
11044POPC   PO469360  25.235  41.593   5.855
11044POPC   GL169361  25.303  41.543   6.155
11044POPC   GL269362  25.132  41.521   6.155
11044POPC   C1A69363  25.270  41.530   6.455
11044POPC   D2A69364  25.301  41.539   6.755
11044POPC   C3A69365  25.304  41.601   7.055
11044POPC   C4A69366  25.308  41.601   7.355
11044POPC   C1B69367  25.057  41.545   6.455
11044POPC   C2B69368  24.969  41.593   6.755
11044POPC   C3B69369  25.038  41.528   7.055
11044POPC   C4B69370  24.969  41.562   7.355
11045POPC   NC369371  26.848  15.968   5.555
11045POPC   PO469372  26.799  15.916   5.855
11045POPC   GL169373  26.832  15.968   6.155
11045POPC   GL269374  26.653  15.924   6.155
11045POPC   C1A69375  26.839  15.920   6.455
11045POPC   D2A69376  26.812  15.979   6.755
11045POPC   C3A69377  26.767  15.978   7.055
11045POPC   C4A69378  26.864  15.977   7.355
11045POPC   C1B69379  26.594  15.883   6.455
11045POPC   C2B69380  26.573  15.930   6.755
11045POPC   C3B69381  26.576  15.854   7.055
11045POPC   C4B69382  26.551  15.849   7.355
11046POPC   NC369383  30.654   4.329   5.555
11046POPC   PO469384  30.703   4.317   5.855
11046POPC   GL169385  30.676   4.272   6.155
11046POPC   GL269386  30.730   4.413   6.155
11046POPC   C1A69387  30.716   4.288   6.455
11046POPC   D2A69388  30.657   4.329   6.755
11046POPC   C3A69389  30.652   4.339   7.055
11046POPC   C4A69390  30.745   4.358   7.355
11046POPC   C1B69391  30.880   4.506   6.455
11046POPC   C2B69392  30.891   4.486   6.755
11046POPC   C3B69393  30.820   4.462   7.055
11046POPC   C4B69394  30.813   4.546   7.355
11047POPC   NC369395  33.814  26.040   5.555
11047POPC   PO469396  33.756  26.090   5.855
11047POPC   GL169397  33.794  26.080   6.155
11047POPC   GL269398  33.845  26.129   6.155
11047POPC   C1A69399  33.833  26.058   6.455
11047POPC   D2A69400  33.785  25.995   6.755
11047POPC   C3A69401  33.846  26.068   7.055
11047POPC   C4A69402  33.781  26.054   7.355
11047POPC   C1B69403  33.774  26.255   6.455
11047POPC   C2B69404  33.815  26.327   6.755
11047POPC   C3B69405  33.808  26.271   7.055
11047POPC   C4B69406  33.794  26.337   7.355
11048POPC   NC369407  10.534  28.347   5.555
11048POPC   PO469408  10.476  28.338   5.855
11048POPC   GL169409  10.530  28.363   6.155
11048POPC   GL269410  10.473  28.515   6.155
11048POPC   C1A69411  10.555  28.329   6.455
11048POPC   D2A69412  10.486  28.384   6.755
11048POPC   C3A69413  10.497  28.343   7.055
11048POPC   C4A69414  10.510  28.365   7.355
11048POPC   C1B69415  10.440  28.608   6.455
11048POPC   C2B69416  10.441  28.588   6.755
11048POPC   C3B69417  10.450  28.552   7.055
11048POPC   C4B69418  10.442  28.568   7.355
11049POPC   NC369419  39.977   5.896   5.555
11049POPC   PO469420  40.037   5.847   5.855
11049POPC   GL169421  40.001   5.825   6.155
11049POPC   GL269422  40.037   5.787   6.155
11049POPC   C1A69423  39.994   5.919   6.455
11049POPC   D2A69424  40.055   5.838   6.755
11049POPC   C3A69425  39.989   5.879   7.055
11049POPC   C4A69426  40.045   5.867   7.355
11049POPC   C1B69427  39.946   5.626   6.455
11049POPC   C2B69428  39.945   5.612   6.755
11049POPC   C3B69429  39.974   5.631   7.055
11049POPC   C4B69430  39.999   5.666   7.355
11050POPC   NC369431  23.703  29.153   5.555
11050POPC   PO469432  23.714  29.153   5.855
11050POPC   GL169433  23.711  29.166   6.155
11050POPC   GL269434  23.757  29.315   6.155
11050POPC   C1A69435  23.718  29.131   6.455
11050POPC   D2A69436  23.703  29.177   6.755
11050POPC   C3A69437  23.746  29.112   7.055
11050POPC   C4A69438  23.702  29.162   7.355
11050POPC   C1B69439  23.733  29.360   6.455
11050POPC   C2B69440  23.708  29.436   6.755
11050POPC   C3B69441  23.756  29.418   7.055
11050POPC   C4B69442  23.795  29.426   7.355
11051POPC   NC369443   2.002  26.793   5.555
11051POPC   PO469444   2.036  26.841   5.855
11051POPC   GL169445   1.962  26.802   6.155
11051POPC   GL269446   1.850  26.892   6.155
11051POPC   C1A69447   1.950  26.813   6.455
11051POPC   D2A69448   2.003  26.803   6.755
11051POPC   C3A69449   1.997  26.826   7.055
11051POPC   C4A69450   1.956  26.830   7.355
11051POPC   C1B69451   1.790  26.875   6.455
11051POPC   C2B69452   1.759  26.896   6.755
11051POPC   C3B69453   1.746  26.909   7.055
11051POPC   C4B69454   1.779  26.853   7.355
11052POPC   NC369455  17.537  17.474   5.555
11052POPC   PO469456  17.501  17.521   5.855
11052POPC   GL169457  17.509  17.483   6.155
11052POPC   GL269458  17.658  17.515   6.155
11052POPC   C1A69459  17.545  17.525   6.455
11052POPC   D2A69460  17.471  17.505   6.755
11052POPC   C3A69461  17.541  17.497   7.055
11052POPC   C4A69462  17.468  17.531   7.355
11052POPC   C1B69463  17.773  17.440   6.455
11052POPC   C2B69464  17.782  17.468   6.755
11052POPC   C3B69465  17.758  17.431   7.055
11052POPC   C4B69466  17.781  17.456   7.355
11053POPC   NC369467   1.948   8.207   5.555
11053POPC   PO469468   1.958   8.197   5.855
11053POPC   GL169469   1.980   8.204   6.155
11053POPC   GL269470   1.818   8.210   6.155
11053POPC   C1A69471   1.993   8.240   6.455
11053POPC   D2A69472   1.968   8.241   6.755
11053POPC   C3A69473   1.999   8.214   7.055
11053POPC   C4A69474   1.961   8.184   7.355
11053POPC   C1B69475   1.766   8.159   6.455
11053POPC   C2B69476   1.708   8.241   6.755
11053POPC   C3B69477   1.754   8.210   7.055
11053POPC   C4B69478   1.760   8.210   7.355
11054POPC   NC369479  30.706   8.195   5.555
11054POPC   PO469480  30.654   8.204   5.855
11054POPC   GL169481  30.728   8.185   6.155
11054POPC   GL269482  30.859   8.129   6.155
11054POPC   C1A69483  30.720   8.148   6.455
11054POPC   D2A69484  30.703   8.232   6.755
11054POPC   C3A69485  30.676   8.186   7.055
11054POPC   C4A69486  30.693   8.153   7.355
11054POPC   C1B69487  30.937   8.095   6.455
11054POPC   C2B69488  30.892   8.124   6.755
11054POPC   C3B69489  30.947   8.084   7.055
11054POPC   C4B69490  30.890   8.159   7.355
11055POPC   NC369491  42.297  14.378   5.555
11055POPC   PO469492  42.362  14.416   5.855
11055POPC   GL169493  42.345  14.400   6.155
11055POPC   GL269494  42.275  14.500   6.155
11055POPC   C1A69495  42.341  14.371   6.455
11055POPC   D2A69496  42.372  14.373   6.755
11055POPC   C3A69497  42.377  14.359   7.055
11055POPC   C4A69498  42.349  14.451   7.355
11055POPC   C1B69499  42.185  14.555   6.455
11055POPC   C2B69500  42.166  14.545   6.755
11055POPC   C3B69501  42.161  14.587   7.055
11055POPC   C4B69502  42.149  14.562   7.355
11056POPC   NC369503  22.157  34.553   5.555
11056POPC   PO469504  22.121  34.596   5.855
11056POPC   GL169505  22.170  34.610   6.155
11056POPC   GL269506  22.319  34.616   6.155
11056POPC   C1A69507  22.163  34.591   6.455
11056POPC   D2A69508  22.205  34.563   6.755
11056POPC   C3A69509  22.186  34.585   7.055
11056POPC   C4A69510  22.203  34.554   7.355
11056POPC   C1B69511  22.388  34.693   6.455
11056POPC   C2B69512  22.443  34.637   6.755
11056POPC   C3B69513  22.440  34.649   7.055
11056POPC   C4B69514  22.443  34.605   7.355
11057POPC   NC369515   5.891  29.118   5.555
11057POPC   PO469516   5.874  29.134   5.855
11057POPC   GL169517   5.890  29.157   6.155
11057POPC   GL269518   5.760  29.210   6.155
11057POPC   C1A69519   5.852  29.099   6.455
11057POPC   D2A69520   5.909  29.163   6.755
11057POPC   C3A69521   5.834  29.163   7.055
11057POPC   C4A69522   5.884  29.175   7.355
11057POPC   C1B69523   5.688  29.275   6.455
11057POPC   C2B69524   5.681  29.315   6.755
11057POPC   C3B69525   5.658  29.334   7.055
11057POPC   C4B69526   5.657  29.337   7.355
11058POPC   NC369527  12.051   6.657   5.555
11058POPC   PO469528  12.080   6.645   5.855
11058POPC   GL169529  12.126   6.673   6.155
11058POPC   GL269530  12.030   6.780   6.155
11058POPC   C1A69531  12.103   6.603   6.455
11058POPC   D2A69532  12.062   6.623   6.755
11058POPC   C3A69533  12.090   6.620   7.055
11058POPC   C4A69534  12.084   6.665   7.355
11058POPC   C1B69535  11.877   6.798   6.455
11058POPC   C2B69536  11.911   6.819   6.755
11058POPC   C3B69537  11.865   6.793   7.055
11058POPC   C4B69538  11.862   6.783   7.355
11059POPC   NC369539   0.437  39.995   5.555
11059POPC   PO469540   0.468  39.969   5.855
11059POPC   GL169541   0.407  39.984   6.155
11059POPC   GL269542   0.380  39.840   6.155
11059POPC   C1A69543   0.406  40.014   6.455
11059POPC   D2A69544   0.398  40.026   6.755
11059POPC   C3A69545   0.414  40.052   7.055
11059POPC   C4A69546   0.390  40.026   7.355
11059POPC   C1B69547   0.451  39.720   6.455
11059POPC   C2B69548   0.444  39.801   6.755
11059POPC   C3B69549   0.435  39.760   7.055
11059POPC   C4B69550   0.382  39.794   7.355
11060POPC   NC369551  17.537  39.248   5.555
11060POPC   PO469552  17.520  39.229   5.855
11060POPC   GL169553  17.474  39.188   6.155
11060POPC   GL269554  17.616  39.308   6.155
11060POPC   C1A69555  17.496  39.256   6.455
11060POPC   D2A69556  17.550  39.257   6.755
11060POPC   C3A69557  17.556  39.232   7.055
11060POPC   C4A69558  17.532  39.224   7.355
11060POPC   C1B69559  17.684  39.417   6.455
11060POPC   C2B69560  17.683  39.458   6.755
11060POPC   C3B69561  17.596  39.405   7.055
11060POPC   C4B69562  17.636  39.459   7.355
11061POPC   NC369563  13.583  16.720   5.555
11061POPC   PO469564  13.638  16.728   5.855
11061POPC   GL169565  13.597  16.760   6.155
11061POPC   GL269566  13.685  16.777   6.155
11061POPC   C1A69567  13.621  16.753   6.455
11061POPC   D2A69568  13.612  16.744   6.755
11061POPC   C3A69569  13.625  16.713   7.055
11061POPC   C4A69570  13.649  16.735   7.355
11061POPC   C1B69571  13.835  16.881   6.455
11061POPC   C2B69572  13.753  16.927   6.755
11061POPC   C3B69573  13.782  16.908   7.055
11061POPC   C4B69574  13.751  16.909   7.355
11062POPC   NC369575   2.028  42.359   5.555
11062POPC   PO469576   1.978  42.292   5.855
11062POPC   GL169577   1.949  42.309   6.155
11062POPC   GL269578   1.979  42.215   6.155
11062POPC   C1A69579   1.972  42.339   6.455
11062POPC   D2A69580   1.968  42.288   6.755
11062POPC   C3A69581   2.000  42.333   7.055
11062POPC   C4A69582   1.971  42.344   7.355
11062POPC   C1B69583   2.015  42.068   6.455
11062POPC   C2B69584   2.029  42.067   6.755
11062POPC   C3B69585   2.067  42.052   7.055
11062POPC   C4B69586   1.990  42.071   7.355
11063POPC   NC369587  18.262  43.074   5.555
11063POPC   PO469588  18.293  43.075   5.855
11063POPC   GL169589  18.233  43.101   6.155
11063POPC   GL269590  18.328  43.237   6.155
11063POPC   C1A69591  18.237  43.160   6.455
11063POPC   D2A69592  18.330  43.078   6.755
11063POPC   C3A69593  18.235  43.079   7.055
11063POPC   C4A69594  18.254  43.123   7.355
11063POPC   C1B69595  18.298  43.356   6.455
11063POPC   C2B69596  18.346  43.321   6.755
11063POPC   C3B69597  18.336  43.371   7.055
11063POPC   C4B69598  18.353  43.331   7.355
11064POPC   NC369599  31.466   2.792   5.555
11064POPC   PO469600  31.433   2.811   5.855
11064POPC   GL169601  31.507   2.799   6.155
11064POPC   GL269602  31.539   2.853   6.155
11064POPC   C1A69603  31.470   2.739   6.455
11064POPC   D2A69604  31.439   2.723   6.755
11064POPC   C3A69605  31.438   2.787   7.055
11064POPC   C4A69606  31.468   2.716   7.355
11064POPC   C1B69607  31.694   2.878   6.455
11064POPC   C2B69608  31.683   2.832   6.755
11064POPC   C3B69609  31.655   2.827   7.055
11064POPC   C4B69610  31.693   2.871   7.355
11065POPC   NC369611   1.995  19.087   5.555
11065POPC   PO469612   2.015  19.076   5.855
11065POPC   GL169613   1.988  19.055   6.155
11065POPC   GL269614   2.045  19.177   6.155
11065POPC   C1A69615   1.989  19.090   6.455
11065POPC   D2A69616   1.993  19.063   6.755
11065POPC   C3A69617   2.032  19.053   7.055
11065POPC   C4A69618   2.013  19.072   7.355
11065POPC   C1B69619   2.107  19.278   6.455
11065POPC   C2B69620   2.098  19.220   6.755
11065POPC   C3B69621   2.120  19.220   7.055
11065POPC   C4B69622   2.099  19.212   7.355
11066POPC   NC369623  28.383  30.746   5.555
11066POPC   PO469624  28.403  30.724   5.855
11066POPC   GL169625  28.414  30.678   6.155
11066POPC   GL269626  28.287  30.761   6.155
11066POPC   C1A69627  28.378  30.709   6.455
11066POPC   D2A69628  28.365  30.743   6.755
11066POPC   C3A69629  28.407  30.731   7.055
11066POPC   C4A69630  28.358  30.648   7.355
11066POPC   C1B69631  28.214  30.919   6.455
11066POPC   C2B69632  28.239  30.916   6.755
11066POPC   C3B69633  28.197  30.927   7.055
11066POPC   C4B69634  28.245  30.928   7.355
11067POPC   NC369635  39.198   0.413   5.555
11067POPC   PO469636  39.270   0.409   5.855
11067POPC   GL169637  39.246   0.393   6.155
11067POPC   GL269638  39.263   0.334   6.155
11067POPC   C1A69639  39.213   0.414   6.455
11067POPC   D2A69640  39.251   0.455   6.755
11067POPC   C3A69641  39.259   0.398   7.055
11067POPC   C4A69642  39.238   0.460   7.355
11067POPC   C1B69643  39.319   0.252   6.455
11067POPC   C2B69644  39.314   0.185   6.755
11067POPC   C3B69645  39.316   0.173   7.055
11067POPC   C4B69646  39.377   0.224   7.355
11068POPC   NC369647  13.602  43.853   5.555
11068POPC   PO469648  13.594  43.903   5.855
11068POPC   GL169649  13.598  43.864   6.155
11068POPC   GL269650  13.657  44.020   6.155
11068POPC   C1A69651  13.581  43.890   6.455
11068POPC   D2A69652  13.587  43.884   6.755
11068POPC   C3A69653  13.602  43.873   7.055
11068POPC   C4A69654  13.594  43.892   7.355
11068POPC   C1B69655  13.712  44.093   6.455
11068POPC   C2B69656  13.756  44.131   6.755
11068POPC   C3B69657  13.776  44.103   7.055
11068POPC   C4B69658  13.787  44.121   7.355
11069POPC   NC369659  28.348  28.353   5.555
11069POPC   PO469660  28.334  28.357   5.855
11069POPC   GL169661  28.385  28.367   6.155
11069POPC   GL269662  28.434  28.277   6.155
11069POPC   C1A69663  28.368  28.363   6.455
11069POPC   D2A69664  28.338  28.375   6.755
11069POPC   C3A69665  28.397  28.391   7.055
11069POPC   C4A69666  28.371  28.381   7.355
11069POPC   C1B69667  28.557  28.225   6.455
11069POPC   C2B69668  28.631  28.264   6.755
11069POPC   C3B69669  28.593  28.268   7.055
11069POPC   C4B69670  28.549  28.240   7.355
11070POPC   NC369671  43.868  26.844   5.555
11070POPC   PO469672  43.850  26.854   5.855
11070POPC   GL169673  43.890  26.818   6.155
11070POPC   GL269674  43.939  26.710   6.155
11070POPC   C1A69675  43.861  26.811   6.455
11070POPC   D2A69676  43.923  26.816   6.755
11070POPC   C3A69677  43.872  26.829   7.055
11070POPC   C4A69678  43.847  26.820   7.355
11070POPC   C1B69679  43.893  26.588   6.455
11070POPC   C2B69680  43.879  26.529   6.755
11070POPC   C3B69681  43.884  26.595   7.055
11070POPC   C4B69682  43.925  26.527   7.355
11071POPC   NC369683  32.978  23.757   5.555
11071POPC   PO469684  33.043  23.740   5.855
11071POPC   GL169685  33.073  23.665   6.155
11071POPC   GL269686  33.082  23.831   6.155
11071POPC   C1A69687  33.068  23.681   6.455
11071POPC   D2A69688  33.070  23.761   6.755
11071POPC   C3A69689  33.049  23.702   7.055
11071POPC   C4A69690  33.056  23.701   7.355
11071POPC   C1B69691  33.092  23.985   6.455
11071POPC   C2B69692  33.147  23.913   6.755
11071POPC   C3B69693  33.080  23.898   7.055
11071POPC   C4B69694  33.089  23.913   7.355
11072POPC   NC369695  15.161  44.661   5.555
11072POPC   PO469696  15.213  44.690   5.855
11072POPC   GL169697  15.224  44.642   6.155
11072POPC   GL269698  15.339  44.593   6.155
11072POPC   C1A69699  15.224  44.656   6.455
11072POPC   D2A69700  15.217  44.675   6.755
11072POPC   C3A69701  15.149  44.672   7.055
11072POPC   C4A69702  15.133  44.614   7.355
11072POPC   C1B69703  15.443  44.543   6.455
11072POPC   C2B69704  15.454  44.548   6.755
11072POPC   C3B69705  15.394  44.623   7.055
11072POPC   C4B69706  15.460  44.605   7.355
11073POPC   NC369707  23.674  21.402   5.555
11073POPC   PO469708  23.732  21.341   5.855
11073POPC   GL169709  23.686  21.371   6.155
11073POPC   GL269710  23.749  21.293   6.155
11073POPC   C1A69711  23.692  21.372   6.455
11073POPC   D2A69712  23.711  21.424   6.755
11073POPC   C3A69713  23.681  21.426   7.055
11073POPC   C4A69714  23.693  21.346   7.355
11073POPC   C1B69715  23.878  21.134   6.455
11073POPC   C2B69716  23.867  21.183   6.755
11073POPC   C3B69717  23.853  21.192   7.055
11073POPC   C4B69718  23.836  21.163   7.355
11074POPC   NC369719  25.300  19.802   5.555
11074POPC   PO469720  25.227  19.822   5.855
11074POPC   GL169721  25.260  19.845   6.155
11074POPC   GL269722  25.371  19.766   6.155
11074POPC   C1A69723  25.263  19.826   6.455
11074POPC   D2A69724  25.302  19.861   6.755
11074POPC   C3A69725  25.244  19.850   7.055
11074POPC   C4A69726  25.224  19.842   7.355
11074POPC   C1B69727  25.364  19.636   6.455
11074POPC   C2B69728  25.446  19.586   6.755
11074POPC   C3B69729  25.417  19.581   7.055
11074POPC   C4B69730  25.443  19.662   7.355
11075POPC   NC369731   8.194  11.329   5.555
11075POPC   PO469732   8.216  11.330   5.855
11075POPC   GL169733   8.175  11.271   6.155
11075POPC   GL269734   8.069  11.302   6.155
11075POPC   C1A69735   8.246  11.287   6.455
11075POPC   D2A69736   8.156  11.282   6.755
11075POPC   C3A69737   8.213  11.255   7.055
11075POPC   C4A69738   8.217  11.341   7.355
11075POPC   C1B69739   7.987  11.282   6.455
11075POPC   C2B69740   7.976  11.278   6.755
11075POPC   C3B69741   7.980  11.320   7.055
11075POPC   C4B69742   7.901  11.288   7.355
11076POPC   NC369743  17.490   5.092   5.555
11076POPC   PO469744  17.510   5.067   5.855
11076POPC   GL169745  17.489   5.108   6.155
11076POPC   GL269746  17.640   5.111   6.155
11076POPC   C1A69747  17.514   5.108   6.455
11076POPC   D2A69748  17.537   5.103   6.755
11076POPC   C3A69749  17.505   5.088   7.055
11076POPC   C4A69750  17.470   5.104   7.355
11076POPC   C1B69751  17.721   5.176   6.455
11076POPC   C2B69752  17.742   5.204   6.755
11076POPC   C3B69753  17.741   5.236   7.055
11076POPC   C4B69754  17.765   5.207   7.355
11077POPC   NC369755  37.705  14.365   5.555
11077POPC   PO469756  37.642  14.393   5.855
11077POPC   GL169757  37.639  14.437   6.155
11077POPC   GL269758  37.783  14.285   6.155
11077POPC   C1A69759  37.674  14.420   6.455
11077POPC   D2A69760  37.669  14.430   6.755
11077POPC   C3A69761  37.652  14.440   7.055
11077POPC   C4A69762  37.683  14.356   7.355
11077POPC   C1B69763  37.841  14.190   6.455
11077POPC   C2B69764  37.873  14.173   6.755
11077POPC   C3B69765  37.802  14.177   7.055
11077POPC   C4B69766  37.866  14.196   7.355
11078POPC   NC369767  29.929   2.025   5.555
11078POPC   PO469768  29.969   1.972   5.855
11078POPC   GL169769  29.887   1.945   6.155
11078POPC   GL269770  29.752   1.994   6.155
11078POPC   C1A69771  29.883   1.975   6.455
11078POPC   D2A69772  29.968   1.985   6.755
11078POPC   C3A69773  29.882   1.982   7.055
11078POPC   C4A69774  29.941   1.997   7.355
11078POPC   C1B69775  29.662   1.875   6.455
11078POPC   C2B69776  29.700   1.877   6.755
11078POPC   C3B69777  29.701   1.941   7.055
11078POPC   C4B69778  29.687   1.961   7.355
11079POPC   NC369779  22.939  27.584   5.555
11079POPC   PO469780  22.899  27.606   5.855
11079POPC   GL169781  22.892  27.638   6.155
11079POPC   GL269782  22.881  27.737   6.155
11079POPC   C1A69783  22.910  27.543   6.455
11079POPC   D2A69784  22.894  27.609   6.755
11079POPC   C3A69785  22.906  27.642   7.055
11079POPC   C4A69786  22.960  27.637   7.355
11079POPC   C1B69787  22.875  27.868   6.455
11079POPC   C2B69788  22.810  27.843   6.755
11079POPC   C3B69789  22.823  27.803   7.055
11079POPC   C4B69790  22.859  27.817   7.355
11080POPC   NC369791   8.156  12.100   5.555
11080POPC   PO469792   8.209  12.038   5.855
11080POPC   GL169793   8.217  12.087   6.155
11080POPC   GL269794   8.099  12.093   6.155
11080POPC   C1A69795   8.209  12.090   6.455
11080POPC   D2A69796   8.189  12.090   6.755
11080POPC   C3A69797   8.191  12.065   7.055
11080POPC   C4A69798   8.169  12.070   7.355
11080POPC   C1B69799   7.933  11.993   6.455
11080POPC   C2B69800   7.916  12.010   6.755
11080POPC   C3B69801   7.972  12.058   7.055
11080POPC   C4B69802   7.958  12.062   7.355
11081POPC   NC369803   0.453  12.851   5.555
11081POPC   PO469804   0.425  12.883   5.855
11081POPC   GL169805   0.390  12.845   6.155
11081POPC   GL269806   0.319  12.876   6.155
11081POPC   C1A69807   0.450  12.822   6.455
11081POPC   D2A69808   0.474  12.890   6.755
11081POPC   C3A69809   0.460  12.885   7.055
11081POPC   C4A69810   0.452  12.842   7.355
11081POPC   C1B69811   0.147  12.845   6.455
11081POPC   C2B69812   0.211  12.779   6.755
11081POPC   C3B69813   0.239  12.855   7.055
11081POPC   C4B69814   0.230  12.832   7.355
11082POPC   NC369815  22.985   5.058   5.555
11082POPC   PO469816  22.890   5.076   5.855
11082POPC   GL169817  22.903   5.086   6.155
11082POPC   GL269818  22.838   5.184   6.155
11082POPC   C1A69819  22.888   5.089   6.455
11082POPC   D2A69820  22.889   5.047   6.755
11082POPC   C3A69821  22.924   5.044   7.055
11082POPC   C4A69822  22.948   5.081   7.355
11082POPC   C1B69823  22.772   5.273   6.455
11082POPC   C2B69824  22.696   5.228   6.755
11082POPC   C3B69825  22.774   5.193   7.055
11082POPC   C4B69826  22.774   5.202   7.355
11083POPC   NC369827  18.234  40.804   5.555
11083POPC   PO469828  18.303  40.818   5.855
11083POPC   GL169829  18.236  40.757   6.155
11083POPC   GL269830  18.373  40.706   6.155
11083POPC   C1A69831  18.260  40.801   6.455
11083POPC   D2A69832  18.280  40.812   6.755
11083POPC   C3A69833  18.275  40.777   7.055
11083POPC   C4A69834  18.328  40.769   7.355
11083POPC   C1B69835  18.512  40.735   6.455
11083POPC   C2B69836  18.542  40.681   6.755
11083POPC   C3B69837  18.483  40.677   7.055
11083POPC   C4B69838  18.554  40.668   7.355
11084POPC   NC369839  20.580  43.063   5.555
11084POPC   PO469840  20.574  43.063   5.855
11084POPC   GL169841  20.605  43.091   6.155
11084POPC   GL269842  20.518  43.045   6.155
11084POPC   C1A69843  20.587  43.116   6.455
11084POPC   D2A69844  20.586  43.144   6.755
11084POPC   C3A69845  20.590  43.113   7.055
11084POPC   C4A69846  20.572  43.081   7.355
11084POPC   C1B69847  20.372  42.913   6.455
11084POPC   C2B69848  20.404  42.923   6.755
11084POPC   C3B69849  20.437  42.976   7.055
11084POPC   C4B69850  20.373  42.947   7.355
11085POPC   NC369851  15.946   7.461   5.555
11085POPC   PO469852  15.970   7.434   5.855
11085POPC   GL169853  15.952   7.439   6.155
11085POPC   GL269854  15.928   7.591   6.155
11085POPC   C1A69855  15.979   7.405   6.455
11085POPC   D2A69856  15.920   7.380   6.755
11085POPC   C3A69857  15.921   7.467   7.055
11085POPC   C4A69858  15.941   7.440   7.355
11085POPC   C1B69859  16.019   7.646   6.455
11085POPC   C2B69860  15.939   7.716   6.755
11085POPC   C3B69861  16.027   7.688   7.055
11085POPC   C4B69862  15.984   7.645   7.355
11086POPC   NC369863  16.697  30.674   5.555
11086POPC   PO469864  16.681  30.682   5.855
11086POPC   GL169865  16.709  30.726   6.155
11086POPC   GL269866  16.585  30.649   6.155
11086POPC   C1A69867  16.761  30.733   6.455
11086POPC   D2A69868  16.718  30.696   6.755
11086POPC   C3A69869  16.714  30.658   7.055
11086POPC   C4A69870  16.736  30.682   7.355
11086POPC   C1B69871  16.515  30.697   6.455
11086POPC   C2B69872  16.479  30.644   6.755
11086POPC   C3B69873  16.508  30.703   7.055
11086POPC   C4B69874  16.509  30.670   7.355
11087POPC   NC369875   6.613   3.566   5.555
11087POPC   PO469876   6.659   3.522   5.855
11087POPC   GL169877   6.596   3.570   6.155
11087POPC   GL269878   6.657   3.709   6.155
11087POPC   C1A69879   6.670   3.531   6.455
11087POPC   D2A69880   6.618   3.589   6.755
11087POPC   C3A69881   6.633   3.493   7.055
11087POPC   C4A69882   6.675   3.591   7.355
11087POPC   C1B69883   6.667   3.756   6.455
11087POPC   C2B69884   6.704   3.832   6.755
11087POPC   C3B69885   6.676   3.790   7.055
11087POPC   C4B69886   6.636   3.822   7.355
11088POPC   NC369887  19.796  39.224   5.555
11088POPC   PO469888  19.807  39.224   5.855
11088POPC   GL169889  19.792  39.197   6.155
11088POPC   GL269890  19.860  39.091   6.155
11088POPC   C1A69891  19.831  39.227   6.455
11088POPC   D2A69892  19.868  39.203   6.755
11088POPC   C3A69893  19.833  39.204   7.055
11088POPC   C4A69894  19.817  39.221   7.355
11088POPC   C1B69895  19.892  39.004   6.455
11088POPC   C2B69896  19.880  39.000   6.755
11088POPC   C3B69897  19.926  38.963   7.055
11088POPC   C4B69898  19.919  39.041   7.355
11089POPC   NC369899  15.132  27.599   5.555
11089POPC   PO469900  15.173  27.641   5.855
11089POPC   GL169901  15.225  27.637   6.155
11089POPC   GL269902  15.338  27.571   6.155
11089POPC   C1A69903  15.152  27.618   6.455
11089POPC   D2A69904  15.201  27.548   6.755
11089POPC   C3A69905  15.157  27.599   7.055
11089POPC   C4A69906  15.195  27.606   7.355
11089POPC   C1B69907  15.388  27.528   6.455
11089POPC   C2B69908  15.377  27.495   6.755
11089POPC   C3B69909  15.380  27.475   7.055
11089POPC   C4B69910  15.372  27.514   7.355
11090POPC   NC369911  29.193  23.715   5.555
11090POPC   PO469912  29.133  23.757   5.855
11090POPC   GL169913  29.156  23.707   6.155
11090POPC   GL269914  29.056  23.573   6.155
11090POPC   C1A69915  29.101  23.749   6.455
11090POPC   D2A69916  29.102  23.742   6.755
11090POPC   C3A69917  29.160  23.706   7.055
11090POPC   C4A69918  29.150  23.720   7.355
11090POPC   C1B69919  28.989  23.549   6.455
11090POPC   C2B69920  28.969  23.536   6.755
11090POPC   C3B69921  29.037  23.500   7.055
11090POPC   C4B69922  28.968  23.563   7.355
11091POPC   NC369923  12.113  22.160   5.555
11091POPC   PO469924  12.093  22.141   5.855
11091POPC   GL169925  12.085  22.121   6.155
11091POPC   GL269926  12.058  22.048   6.155
11091POPC   C1A69927  12.111  22.169   6.455
11091POPC   D2A69928  12.118  22.175   6.755
11091POPC   C3A69929  12.031  22.145   7.055
11091POPC   C4A69930  12.086  22.168   7.355
11091POPC   C1B69931  11.960  21.971   6.455
11091POPC   C2B69932  11.964  21.968   6.755
11091POPC   C3B69933  11.958  21.976   7.055
11091POPC   C4B69934  11.977  21.903   7.355
11092POPC   NC369935  15.180   2.034   5.555
11092POPC   PO469936  15.200   2.006   5.855
11092POPC   GL169937  15.197   1.976   6.155
11092POPC   GL269938  15.207   2.076   6.155
11092POPC   C1A69939  15.137   1.973   6.455
11092POPC   D2A69940  15.143   1.997   6.755
11092POPC   C3A69941  15.195   1.993   7.055
11092POPC   C4A69942  15.228   2.013   7.355
11092POPC   C1B69943  15.320   2.190   6.455
11092POPC   C2B69944  15.339   2.213   6.755
11092POPC   C3B69945  15.310   2.187   7.055
11092POPC   C4B69946  15.373   2.192   7.355
11093POPC   NC369947  13.638  36.889   5.555
11093POPC   PO469948  13.642  36.927   5.855
11093POPC   GL169949  13.602  36.944   6.155
11093POPC   GL269950  13.777  36.835   6.155
11093POPC   C1A69951  13.579  36.856   6.455
11093POPC   D2A69952  13.650  36.868   6.755
11093POPC   C3A69953  13.622  36.929   7.055
11093POPC   C4A69954  13.583  36.928   7.355
11093POPC   C1B69955  13.881  36.807   6.455
11093POPC   C2B69956  13.858  36.860   6.755
11093POPC   C3B69957  13.904  36.803   7.055
11093POPC   C4B69958  13.864  36.847   7.355
11094POPC   NC369959   7.403  30.715   5.555
11094POPC   PO469960   7.465  30.736   5.855
11094POPC   GL169961   7.386  30.724   6.155
11094POPC   GL269962   7.533  30.624   6.155
11094POPC   C1A69963   7.410  30.650   6.455
11094POPC   D2A69964   7.421  30.718   6.755
11094POPC   C3A69965   7.411  30.672   7.055
11094POPC   C4A69966   7.448  30.691   7.355
11094POPC   C1B69967   7.642  30.543   6.455
11094POPC   C2B69968   7.584  30.479   6.755
11094POPC   C3B69969   7.560  30.528   7.055
11094POPC   C4B69970   7.646  30.502   7.355
11095POPC   NC369971  40.015  22.193   5.555
11095POPC   PO469972  40.015  22.137   5.855
11095POPC   GL169973  39.988  22.128   6.155
11095POPC   GL269974  40.075  22.216   6.155
11095POPC   C1A69975  40.019  22.132   6.455
11095POPC   D2A69976  39.972  22.187   6.755
11095POPC   C3A69977  39.994  22.118   7.055
11095POPC   C4A69978  40.045  22.195   7.355
11095POPC   C1B69979  40.191  22.343   6.455
11095POPC   C2B69980  40.105  22.410   6.755
11095POPC   C3B69981  40.150  22.324   7.055
11095POPC   C4B69982  40.195  22.408   7.355
11096POPC   NC369983   7.470   5.122   5.555
11096POPC   PO469984   7.416   5.107   5.855
11096POPC   GL169985   7.455   5.127   6.155
11096POPC   GL269986   7.389   5.199   6.155
11096POPC   C1A69987   7.434   5.051   6.455
11096POPC   D2A69988   7.404   5.126   6.755
11096POPC   C3A69989   7.449   5.071   7.055
11096POPC   C4A69990   7.468   5.105   7.355
11096POPC   C1B69991   7.315   5.262   6.455
11096POPC   C2B69992   7.261   5.322   6.755
11096POPC   C3B69993   7.280   5.282   7.055
11096POPC   C4B69994   7.228   5.244   7.355
11097POPC   NC369995  27.553  19.793   5.555
11097POPC   PO469996  27.556  19.848   5.855
11097POPC   GL169997  27.631  19.840   6.155
11097POPC   GL269998  27.670  19.931   6.155
11097POPC   C1A69999  27.579  19.815   6.455
11097POPC   D2A70000  27.605  19.786   6.755
11097POPC   C3A70001  27.578  19.804   7.055
11097POPC   C4A70002  27.601  19.829   7.355
11097POPC   C1B70003  27.802  20.024   6.455
11097POPC   C2B70004  27.762  19.992   6.755
11097POPC   C3B70005  27.802  19.973   7.055
11097POPC   C4B70006  27.767  20.027   7.355
11098POPC   NC370007  20.651   5.874   5.555
11098POPC   PO470008  20.615   5.863   5.855
11098POPC   GL170009  20.575   5.891   6.155
11098POPC   GL270010  20.579   5.711   6.155
11098POPC   C1A70011  20.658   5.887   6.455
11098POPC   D2A70012  20.617   5.839   6.755
11098POPC   C3A70013  20.651   5.869   7.055
11098POPC   C4A70014  20.587   5.858   7.355
11098POPC   C1B70015  20.595   5.640   6.455
11098POPC   C2B70016  20.609   5.575   6.755
11098POPC   C3B70017  20.553   5.591   7.055
11098POPC   C4B70018  20.622   5.602   7.355
11099POPC   NC370019  43.927  37.718   5.555
11099POPC   PO470020  43.880  37.655   5.855
11099POPC   GL170021  43.849  37.633   6.155
11099POPC   GL270022  43.818  37.708   6.155
11099POPC   C1A70023  43.852  37.699   6.455
11099POPC   D2A70024  43.887  37.630   6.755
11099POPC   C3A70025  43.837  37.632   7.055
11099POPC   C4A70026  43.859  37.660   7.355
11099POPC   C1B70027  43.712  37.780   6.455
11099POPC   C2B70028  43.681  37.796   6.755
11099POPC   C3B70029  43.681  37.839   7.055
11099POPC   C4B70030  43.675  37.840   7.355
11100POPC   NC370031   9.017  40.040   5.555
11100POPC   PO470032   9.016  39.958   5.855
11100POPC   GL170033   8.928  40.027   6.155
11100POPC   GL270034   8.895  40.089   6.155
11100POPC   C1A70035   8.947  40.054   6.455
11100POPC   D2A70036   8.965  39.994   6.755
11100POPC   C3A70037   8.987  39.992   7.055
11100POPC   C4A70038   8.966  39.964   7.355
11100POPC   C1B70039   8.694  40.122   6.455
11100POPC   C2B70040   8.696  40.090   6.755
11100POPC   C3B70041   8.726  40.050   7.055
11100POPC   C4B70042   8.713  40.117   7.355
11101POPC   NC370043  11.317  37.672   5.555
11101POPC   PO470044  11.334  37.686   5.855
11101POPC   GL170045  11.283  37.678   6.155
11101POPC   GL270046  11.222  37.754   6.155
11101POPC   C1A70047  11.252  37.661   6.455
11101POPC   D2A70048  11.254  37.685   6.755
11101POPC   C3A70049  11.268  37.697   7.055
11101POPC   C4A70050  11.331  37.638   7.355
11101POPC   C1B70051  11.212  37.897   6.455
11101POPC   C2B70052  11.223  37.888   6.755
11101POPC   C3B70053  11.265  37.893   7.055
11101POPC   C4B70054  11.178  37.904   7.355
11102POPC   NC370055   6.635   5.913   5.555
11102POPC   PO470056   6.630   5.836   5.855
11102POPC   GL170057   6.653   5.830   6.155
11102POPC   GL270058   6.509   5.967   6.155
11102POPC   C1A70059   6.662   5.872   6.455
11102POPC   D2A70060   6.639   5.821   6.755
11102POPC   C3A70061   6.626   5.864   7.055
11102POPC   C4A70062   6.639   5.880   7.355
11102POPC   C1B70063   6.396   5.985   6.455
11102POPC   C2B70064   6.441   5.966   6.755
11102POPC   C3B70065   6.464   5.992   7.055
11102POPC   C4B70066   6.418   5.942   7.355
11103POPC   NC370067  27.582  14.372   5.555
11103POPC   PO470068  27.637  14.391   5.855
11103POPC   GL170069  27.629  14.401   6.155
11103POPC   GL270070  27.492  14.471   6.155
11103POPC   C1A70071  27.551  14.417   6.455
11103POPC   D2A70072  27.613  14.392   6.755
11103POPC   C3A70073  27.635  14.416   7.055
11103POPC   C4A70074  27.618  14.391   7.355
11103POPC   C1B70075  27.360  14.494   6.455
11103POPC   C2B70076  27.369  14.546   6.755
11103POPC   C3B70077  27.389  14.474   7.055
11103POPC   C4B70078  27.344  14.556   7.355
11104POPC   NC370079  13.645  21.377   5.555
11104POPC   PO470080  13.581  21.392   5.855
11104POPC   GL170081  13.622  21.389   6.155
11104POPC   GL270082  13.724  21.421   6.155
11104POPC   C1A70083  13.639  21.384   6.455
11104POPC   D2A70084  13.599  21.354   6.755
11104POPC   C3A70085  13.618  21.372   7.055
11104POPC   C4A70086  13.608  21.432   7.355
11104POPC   C1B70087  13.852  21.536   6.455
11104POPC   C2B70088  13.855  21.559   6.755
11104POPC   C3B70089  13.832  21.571   7.055
11104POPC   C4B70090  13.842  21.534   7.355
11105POPC   NC370091  37.707  12.805   5.555
11105POPC   PO470092  37.663  12.818   5.855
11105POPC   GL170093  37.703  12.885   6.155
11105POPC   GL270094  37.614  12.994   6.155
11105POPC   C1A70095  37.648  12.838   6.455
11105POPC   D2A70096  37.640  12.862   6.755
11105POPC   C3A70097  37.706  12.900   7.055
11105POPC   C4A70098  37.706  12.890   7.355
11105POPC   C1B70099  37.605  13.055   6.455
11105POPC   C2B70100  37.629  13.048   6.755
11105POPC   C3B70101  37.621  13.072   7.055
11105POPC   C4B70102  37.662  13.131   7.355
11106POPC   NC370103  29.967  19.837   5.555
11106POPC   PO470104  29.894  19.793   5.855
11106POPC   GL170105  29.906  19.849   6.155
11106POPC   GL270106  29.903  19.690   6.155
11106POPC   C1A70107  29.897  19.852   6.455
11106POPC   D2A70108  29.930  19.820   6.755
11106POPC   C3A70109  29.917  19.884   7.055
11106POPC   C4A70110  29.940  19.882   7.355
11106POPC   C1B70111  29.753  19.608   6.455
11106POPC   C2B70112  29.786  19.663   6.755
11106POPC   C3B70113  29.825  19.605   7.055
11106POPC   C4B70114  29.755  19.655   7.355
11107POPC   NC370115   1.999  10.559   5.555
11107POPC   PO470116   2.018  10.496   5.855
11107POPC   GL170117   2.031  10.558   6.155
11107POPC   GL270118   1.896  10.409   6.155
11107POPC   C1A70119   1.941  10.552   6.455
11107POPC   D2A70120   2.036  10.497   6.755
11107POPC   C3A70121   2.021  10.521   7.055
11107POPC   C4A70122   2.004  10.486   7.355
11107POPC   C1B70123   1.835  10.363   6.455
11107POPC   C2B70124   1.823  10.320   6.755
11107POPC   C3B70125   1.863  10.344   7.055
11107POPC   C4B70126   1.860  10.336   7.355
11108POPC   NC370127  28.404  12.087   5.555
11108POPC   PO470128  28.334  12.105   5.855
11108POPC   GL170129  28.370  12.069   6.155
11108POPC   GL270130  28.472  12.039   6.155
11108POPC   C1A70131  28.410  12.054   6.455
11108POPC   D2A70132  28.373  12.085   6.755
11108POPC   C3A70133  28.375  12.057   7.055
11108POPC   C4A70134  28.334  12.029   7.355
11108POPC   C1B70135  28.602  12.032   6.455
11108POPC   C2B70136  28.644  11.984   6.755
11108POPC   C3B70137  28.607  12.000   7.055
11108POPC   C4B70138  28.618  12.014   7.355
11109POPC   NC370139  32.272   1.185   5.555
11109POPC   PO470140  32.255   1.216   5.855
11109POPC   GL170141  32.297   1.226   6.155
11109POPC   GL270142  32.119   1.172   6.155
11109POPC   C1A70143  32.244   1.260   6.455
11109POPC   D2A70144  32.201   1.205   6.755
11109POPC   C3A70145  32.223   1.200   7.055
11109POPC   C4A70146  32.214   1.220   7.355
11109POPC   C1B70147  31.982   1.106   6.455
11109POPC   C2B70148  32.060   1.136   6.755
11109POPC   C3B70149  31.996   1.167   7.055
11109POPC   C4B70150  32.043   1.160   7.355
11110POPC   NC370151  11.287  36.121   5.555
11110POPC   PO470152  11.274  36.167   5.855
11110POPC   GL170153  11.301  36.098   6.155
11110POPC   GL270154  11.257  35.979   6.155
11110POPC   C1A70155  11.341  36.162   6.455
11110POPC   D2A70156  11.255  36.080   6.755
11110POPC   C3A70157  11.301  36.173   7.055
11110POPC   C4A70158  11.259  36.111   7.355
11110POPC   C1B70159  11.174  35.935   6.455
11110POPC   C2B70160  11.195  35.905   6.755
11110POPC   C3B70161  11.132  35.868   7.055
11110POPC   C4B70162  11.118  35.904   7.355
11111POPC   NC370163  36.936   1.193   5.555
11111POPC   PO470164  36.882   1.192   5.855
11111POPC   GL170165  36.946   1.260   6.155
11111POPC   GL270166  36.764   1.275   6.155
11111POPC   C1A70167  36.883   1.226   6.455
11111POPC   D2A70168  36.895   1.186   6.755
11111POPC   C3A70169  36.887   1.225   7.055
11111POPC   C4A70170  36.867   1.168   7.355
11111POPC   C1B70171  36.650   1.283   6.455
11111POPC   C2B70172  36.703   1.218   6.755
11111POPC   C3B70173  36.700   1.206   7.055
11111POPC   C4B70174  36.606   1.273   7.355
11112POPC   NC370175  14.433  19.869   5.555
11112POPC   PO470176  14.385  19.816   5.855
11112POPC   GL170177  14.360  19.811   6.155
11112POPC   GL270178  14.532  19.905   6.155
11112POPC   C1A70179  14.360  19.794   6.455
11112POPC   D2A70180  14.374  19.837   6.755
11112POPC   C3A70181  14.433  19.809   7.055
11112POPC   C4A70182  14.436  19.878   7.355
11112POPC   C1B70183  14.594  19.982   6.455
11112POPC   C2B70184  14.615  19.963   6.755
11112POPC   C3B70185  14.581  19.953   7.055
11112POPC   C4B70186  14.634  19.963   7.355
11113POPC   NC370187   2.719  32.288   5.555
11113POPC   PO470188   2.773  32.236   5.855
11113POPC   GL170189   2.786  32.232   6.155
11113POPC   GL270190   2.812  32.330   6.155
11113POPC   C1A70191   2.786  32.248   6.455
11113POPC   D2A70192   2.812  32.243   6.755
11113POPC   C3A70193   2.784  32.221   7.055
11113POPC   C4A70194   2.813  32.249   7.355
11113POPC   C1B70195   2.871  32.466   6.455
11113POPC   C2B70196   2.854  32.491   6.755
11113POPC   C3B70197   2.910  32.464   7.055
11113POPC   C4B70198   2.935  32.505   7.355
11114POPC   NC370199  23.757  36.863   5.555
11114POPC   PO470200  23.722  36.857   5.855
11114POPC   GL170201  23.709  36.918   6.155
11114POPC   GL270202  23.814  36.879   6.155
11114POPC   C1A70203  23.752  36.931   6.455
11114POPC   D2A70204  23.747  36.913   6.755
11114POPC   C3A70205  23.707  36.913   7.055
11114POPC   C4A70206  23.715  36.895   7.355
11114POPC   C1B70207  23.910  36.706   6.455
11114POPC   C2B70208  23.959  36.726   6.755
11114POPC   C3B70209  23.922  36.790   7.055
11114POPC   C4B70210  23.900  36.771   7.355
11115POPC   NC370211   6.680  25.236   5.555
11115POPC   PO470212   6.631  25.297   5.855
11115POPC   GL170213   6.677  25.231   6.155
11115POPC   GL270214   6.633  25.182   6.155
11115POPC   C1A70215   6.692  25.267   6.455
11115POPC   D2A70216   6.666  25.239   6.755
11115POPC   C3A70217   6.622  25.312   7.055
11115POPC   C4A70218   6.653  25.258   7.355
11115POPC   C1B70219   6.544  25.029   6.455
11115POPC   C2B70220   6.594  25.046   6.755
11115POPC   C3B70221   6.560  25.031   7.055
11115POPC   C4B70222   6.517  25.041   7.355
11116POPC   NC370223   2.754   6.670   5.555
11116POPC   PO470224   2.736   6.666   5.855
11116POPC   GL170225   2.750   6.633   6.155
11116POPC   GL270226   2.609   6.663   6.155
11116POPC   C1A70227   2.724   6.661   6.455
11116POPC   D2A70228   2.803   6.652   6.755
11116POPC   C3A70229   2.803   6.630   7.055
11116POPC   C4A70230   2.784   6.641   7.355
11116POPC   C1B70231   2.487   6.691   6.455
11116POPC   C2B70232   2.561   6.721   6.755
11116POPC   C3B70233   2.525   6.678   7.055
11116POPC   C4B70234   2.524   6.696   7.355
11117POPC   NC370235  44.636  41.528   5.555
11117POPC   PO470236  44.667  41.545   5.855
11117POPC   GL170237  44.665  41.520   6.155
11117POPC   GL270238  44.559  41.655   6.155
11117POPC   C1A70239  44.624  41.563   6.455
11117POPC   D2A70240  44.646  41.541   6.755
11117POPC   C3A70241  44.638  41.609   7.055
11117POPC   C4A70242  44.648  41.519   7.355
11117POPC   C1B70243  44.527  41.790   6.455
11117POPC   C2B70244  44.485  41.765   6.755
11117POPC   C3B70245  44.534  41.692   7.055
11117POPC   C4B70246  44.510  41.736   7.355
11118POPC   NC370247  16.775  40.038   5.555
11118POPC   PO470248  16.683  39.977   5.855
11118POPC   GL170249  16.697  39.990   6.155
11118POPC   GL270250  16.642  40.024   6.155
11118POPC   C1A70251  16.697  40.011   6.455
11118POPC   D2A70252  16.715  40.008   6.755
11118POPC   C3A70253  16.741  39.966   7.055
11118POPC   C4A70254  16.712  39.977   7.355
11118POPC   C1B70255  16.500  40.079   6.455
11118POPC   C2B70256  16.504  40.075   6.755
11118POPC   C3B70257  16.462  40.087   7.055
11118POPC   C4B70258  16.518  40.130   7.355
11119POPC   NC370259   8.170  16.737   5.555
11119POPC   PO470260   8.165  16.769   5.855
11119POPC   GL170261   8.199  16.767   6.155
11119POPC   GL270262   8.292  16.620   6.155
11119POPC   C1A70263   8.177  16.760   6.455
11119POPC   D2A70264   8.228  16.741   6.755
11119POPC   C3A70265   8.243  16.743   7.055
11119POPC   C4A70266   8.151  16.681   7.355
11119POPC   C1B70267   8.425  16.577   6.455
11119POPC   C2B70268   8.449  16.605   6.755
11119POPC   C3B70269   8.439  16.618   7.055
11119POPC   C4B70270   8.459  16.607   7.355
11120POPC   NC370271   5.916   5.093   5.555
11120POPC   PO470272   5.907   5.115   5.855
11120POPC   GL170273   5.908   5.089   6.155
11120POPC   GL270274   5.875   5.178   6.155
11120POPC   C1A70275   5.897   5.082   6.455
11120POPC   D2A70276   5.886   5.055   6.755
11120POPC   C3A70277   5.889   5.118   7.055
11120POPC   C4A70278   5.884   5.047   7.355
11120POPC   C1B70279   5.947   5.327   6.455
11120POPC   C2B70280   5.936   5.321   6.755
11120POPC   C3B70281   5.969   5.286   7.055
11120POPC   C4B70282   5.968   5.295   7.355
11121POPC   NC370283  37.679  17.467   5.555
11121POPC   PO470284  37.720  17.466   5.855
11121POPC   GL170285  37.636  17.517   6.155
11121POPC   GL270286  37.617  17.647   6.155
11121POPC   C1A70287  37.642  17.557   6.455
11121POPC   D2A70288  37.721  17.554   6.755
11121POPC   C3A70289  37.655  17.550   7.055
11121POPC   C4A70290  37.721  17.475   7.355
11121POPC   C1B70291  37.651  17.734   6.455
11121POPC   C2B70292  37.623  17.733   6.755
11121POPC   C3B70293  37.667  17.732   7.055
11121POPC   C4B70294  37.624  17.761   7.355
11122POPC   NC370295  33.800  41.599   5.555
11122POPC   PO470296  33.756  41.603   5.855
11122POPC   GL170297  33.831  41.548   6.155
11122POPC   GL270298  33.824  41.699   6.155
11122POPC   C1A70299  33.767  41.606   6.455
11122POPC   D2A70300  33.765  41.557   6.755
11122POPC   C3A70301  33.849  41.509   7.055
11122POPC   C4A70302  33.825  41.574   7.355
11122POPC   C1B70303  33.922  41.808   6.455
11122POPC   C2B70304  33.876  41.813   6.755
11122POPC   C3B70305  33.879  41.819   7.055
11122POPC   C4B70306  33.916  41.779   7.355
11123POPC   NC370307   0.412  11.260   5.555
11123POPC   PO470308   0.469  11.256   5.855
11123POPC   GL170309   0.483  11.329   6.155
11123POPC   GL270310   0.484  11.374   6.155
11123POPC   C1A70311   0.391  11.269   6.455
11123POPC   D2A70312   0.408  11.254   6.755
11123POPC   C3A70313   0.470  11.264   7.055
11123POPC   C4A70314   0.463  11.276   7.355
11123POPC   C1B70315   0.579  11.549   6.455
11123POPC   C2B70316   0.508  11.548   6.755
11123POPC   C3B70317   0.552  11.498   7.055
11123POPC   C4B70318   0.500  11.513   7.355
11124POPC   NC370319  39.215  11.301   5.555
11124POPC   PO470320  39.231  11.262   5.855
11124POPC   GL170321  39.191  11.267   6.155
11124POPC   GL270322  39.144  11.304   6.155
11124POPC   C1A70323  39.200  11.281   6.455
11124POPC   D2A70324  39.213  11.265   6.755
11124POPC   C3A70325  39.254  11.252   7.055
11124POPC   C4A70326  39.199  11.326   7.355
11124POPC   C1B70327  38.968  11.327   6.455
11124POPC   C2B70328  38.971  11.341   6.755
11124POPC   C3B70329  38.988  11.299   7.055
11124POPC   C4B70330  39.006  11.363   7.355
11125POPC   NC370331  22.946  17.518   5.555
11125POPC   PO470332  22.986  17.481   5.855
11125POPC   GL170333  22.892  17.514   6.155
11125POPC   GL270334  23.062  17.589   6.155
11125POPC   C1A70335  22.958  17.484   6.455
11125POPC   D2A70336  22.938  17.460   6.755
11125POPC   C3A70337  22.937  17.480   7.055
11125POPC   C4A70338  22.913  17.543   7.355
11125POPC   C1B70339  23.201  17.610   6.455
11125POPC   C2B70340  23.191  17.587   6.755
11125POPC   C3B70341  23.152  17.591   7.055
11125POPC   C4B70342  23.142  17.596   7.355
11126POPC   NC370343  44.686  40.032   5.555
11126POPC   PO470344  44.703  40.039   5.855
11126POPC   GL170345  44.631  40.046   6.155
11126POPC   GL270346  44.629  40.110   6.155
11126POPC   C1A70347  44.712  40.002   6.455
11126POPC   D2A70348  44.682  40.029   6.755
11126POPC   C3A70349  44.675  40.050   7.055
11126POPC   C4A70350  44.682  39.958   7.355
11126POPC   C1B70351  44.471  40.197   6.455
11126POPC   C2B70352  44.470  40.202   6.755
11126POPC   C3B70353  44.466  40.224   7.055
11126POPC   C4B70354  44.513  40.219   7.355
11127POPC   NC370355  19.018  37.674   5.555
11127POPC   PO470356  19.011  37.646   5.855
11127POPC   GL170357  19.011  37.684   6.155
11127POPC   GL270358  18.969  37.568   6.155
11127POPC   C1A70359  19.083  37.685   6.455
11127POPC   D2A70360  19.035  37.699   6.755
11127POPC   C3A70361  19.021  37.706   7.055
11127POPC   C4A70362  19.034  37.722   7.355
11127POPC   C1B70363  18.807  37.532   6.455
11127POPC   C2B70364  18.850  37.487   6.755
11127POPC   C3B70365  18.807  37.562   7.055
11127POPC   C4B70366  18.808  37.564   7.355
11128POPC   NC370367  19.879  33.767   5.555
11128POPC   PO470368  19.788  33.754   5.855
11128POPC   GL170369  19.794  33.785   6.155
11128POPC   GL270370  19.770  33.895   6.155
11128POPC   C1A70371  19.828  33.812   6.455
11128POPC   D2A70372  19.842  33.758   6.755
11128POPC   C3A70373  19.884  33.818   7.055
11128POPC   C4A70374  19.847  33.804   7.355
11128POPC   C1B70375  19.745  34.050   6.455
11128POPC   C2B70376  19.781  34.080   6.755
11128POPC   C3B70377  19.749  34.006   7.055
11128POPC   C4B70378  19.782  34.041   7.355
11129POPC   NC370379  12.116   4.276   5.555
11129POPC   PO470380  12.106   4.277   5.855
11129POPC   GL170381  12.110   4.364   6.155
11129POPC   GL270382  12.209   4.266   6.155
11129POPC   C1A70383  12.084   4.308   6.455
11129POPC   D2A70384  12.116   4.342   6.755
11129POPC   C3A70385  12.064   4.291   7.055
11129POPC   C4A70386  12.040   4.268   7.355
11129POPC   C1B70387  12.285   4.227   6.455
11129POPC   C2B70388  12.333   4.147   6.755
11129POPC   C3B70389  12.249   4.213   7.055
11129POPC   C4B70390  12.299   4.150   7.355
11130POPC   NC370391  18.274   6.677   5.555
11130POPC   PO470392  18.242   6.645   5.855
11130POPC   GL170393  18.248   6.684   6.155
11130POPC   GL270394  18.293   6.473   6.155
11130POPC   C1A70395  18.250   6.690   6.455
11130POPC   D2A70396  18.285   6.693   6.755
11130POPC   C3A70397  18.255   6.639   7.055
11130POPC   C4A70398  18.305   6.660   7.355
11130POPC   C1B70399  18.319   6.432   6.455
11130POPC   C2B70400  18.314   6.360   6.755
11130POPC   C3B70401  18.280   6.363   7.055
11130POPC   C4B70402  18.352   6.357   7.355
11131POPC   NC370403  12.046  26.038   5.555
11131POPC   PO470404  12.048  25.997   5.855
11131POPC   GL170405  12.108  26.076   6.155
11131POPC   GL270406  12.230  26.062   6.155
11131POPC   C1A70407  12.065  26.088   6.455
11131POPC   D2A70408  12.079  26.023   6.755
11131POPC   C3A70409  12.080  26.009   7.055
11131POPC   C4A70410  12.052  26.035   7.355
11131POPC   C1B70411  12.291  26.174   6.455
11131POPC   C2B70412  12.289  26.166   6.755
11131POPC   C3B70413  12.312  26.164   7.055
11131POPC   C4B70414  12.288  26.121   7.355
11132POPC   NC370415  22.958  19.800   5.555
11132POPC   PO470416  22.914  19.876   5.855
11132POPC   GL170417  22.912  19.859   6.155
11132POPC   GL270418  22.965  19.925   6.155
11132POPC   C1A70419  22.938  19.801   6.455
11132POPC   D2A70420  22.912  19.800   6.755
11132POPC   C3A70421  22.908  19.810   7.055
11132POPC   C4A70422  22.939  19.883   7.355
11132POPC   C1B70423  23.005  20.035   6.455
11132POPC   C2B70424  23.018  20.040   6.755
11132POPC   C3B70425  23.037  20.021   7.055
11132POPC   C4B70426  23.049  20.041   7.355
11133W        W70427  16.176  10.165  13.488
11134W        W70428  34.604  34.505  13.855
11135W        W70429   7.358  29.571   0.962
11136W        W70430  23.727  44.358  14.930
11137W        W70431  13.676   1.277   4.247
11138W        W70432  20.262   6.922   0.796
11139W        W70433   6.348  31.588   1.918
11140W        W70434  11.658   3.745   4.168
11141W        W70435   6.405  36.443  10.421
11142W        W70436  33.119  19.611  14.769
11143W        W70437  19.641  41.429   3.859
11144W        W70438  17.299   1.249  13.443
11145W        W70439  13.246  40.802   3.227
11146W        W70440  29.562  44.943  10.562
11147W        W70441  18.664  33.504  10.099
11148W        W70442  31.423  39.033  13.458
11149W        W70443  14.735  31.614  10.585
11150W        W70444  28.654  35.097  14.367
11151W        W70445  44.916  25.581  13.813
11152W        W70446  12.843  39.842  13.410
11153W        W70447  10.297   4.244  12.013
11154W        W70448  38.954  22.032   1.896
11155W        W70449  11.337   8.869   2.852
11156W        W70450  41.458  34.520   3.205
11157W        W70451   0.904  39.463  11.049
11158W        W70452   0.282  13.136   1.855
11159W        W70453  41.845   4.779   3.753
11160W        W70454  38.956  13.232   2.253
11161W        W70455  22.011  38.011   3.792
11162W        W70456  20.673  22.056   4.164
11163W        W70457  26.601  11.272   0.760
11164W        W70458  20.154  15.100  11.042
11165W        W70459  17.575  26.656  11.903
11166W        W70460  37.502  19.200  10.907
11167W        W70461  40.421  18.674  11.018
11168W        W70462  33.458   7.793   3.733
11169W        W70463  18.081   6.808   3.775
11170W        W70464  11.823  21.031   3.661
11171W        W70465  36.433  27.575  11.083
11172W        W70466   2.832   6.847  14.427
11173W        W70467   8.875  40.036  13.938
11174W        W70468  22.693  31.067  12.949
11175W        W70469  23.167  40.882  11.535
11176W        W70470  27.511   5.713  14.415
11177W        W70471  14.794   7.325   0.945
11178W        W70472  28.939  33.475  14.026
11179W        W70473  12.643  30.607  12.359
11180W        W70474  43.309   9.693  14.945
11181W        W70475  31.922  27.183   1.349
11182W        W70476  41.508  44.008   4.751
11183W        W70477  37.984  12.273  12.894
11184W        W70478  33.555  20.183   2.398
11185W        W70479  23.529  18.126  12.067
11186W        W70480  33.121  41.019   1.752
11187W        W70481  28.600   5.276  12.579
11188W        W70482  36.417  26.132  14.508
11189W        W70483  40.303  13.318  13.413
11190W        W70484  37.888  29.059   3.860
11191W        W70485  10.224  28.643   3.266
11192W        W70486  21.066  20.630  14.309
11193W        W70487  12.287  31.052  10.583
11194W        W70488  36.490  11.239  10.489
11195W        W70489  40.508  17.250   0.760
11196W        W70490  24.034  42.383   1.421
11197W        W70491  27.990   0.269   0.821
11198W        W70492  21.120  39.975  12.956
11199W        W70493  13.349  14.180  12.094
11200W        W70494  24.479  25.188  11.950
11201W        W70495  37.578   7.391  10.504
11202W        W70496  37.367  17.580  11.598
11203W        W70497  43.427  24.030   0.465
11204W        W70498  24.190   6.850  14.329
11205W        W70499  41.791   0.898   3.698
11206W        W70500  25.682  44.988  11.534
11207W        W70501  36.368   8.842  12.967
11208W        W70502  33.466  17.620  14.321
11209W        W70503   9.179  27.568   0.403
11210W        W70504  21.534  38.559   1.390
11211W        W70505  38.461  25.181   4.211
11212W        W70506  41.479   1.927   0.802
11213W        W70507   0.259   2.886   3.270
11214W        W70508  21.603   2.730  12.849
11215W        W70509  10.261   0.763   5.243
11216W        W70510   7.374   4.384   1.415
11217W        W70511  23.097  21.239   4.282
11218W        W70512  24.995   7.848  11.574
11219W        W70513  33.536  25.993   3.741
11220W        W70514  28.660  40.535  10.086
11221W        W70515  18.713  17.627  13.818
11222W        W70516  40.511  33.567   4.635
11223W        W70517  28.090  24.640   3.271
11224W        W70518   1.324  43.968   4.836
11225W        W70519  31.001  34.397   1.893
11226W        W70520  24.683   8.876  13.998
11227W        W70521   7.728  34.933  12.425
11228W        W70522  15.779  22.207  14.967
11229W        W70523   9.749  27.575  14.509
11230W        W70524  27.689  44.920   4.672
11231W        W70525  31.554  19.716  13.308
11232W        W70526   2.408  39.856   4.657
11233W        W70527  23.614   6.407   5.257
11234W        W70528   1.402   9.792   2.726
11235W        W70529  40.350  41.310  13.025
11236W        W70530  34.501   8.246  12.530
11237W        W70531  24.514  34.554  13.811
11238W        W70532   4.770  33.459  13.806
11239W        W70533  15.286  41.497  10.531
11240W        W70534  16.189  44.856   3.809
11241W        W70535  12.805   7.303   3.778
11242W        W70536  35.043   6.407   2.892
11243W        W70537  20.758  32.091  12.365
11244W        W70538  37.003  21.593   3.783
11245W        W70539  35.477  15.218  14.873
11246W        W70540  20.269  30.416  12.444
11247W        W70541   0.853   3.437  11.387
11248W        W70542  13.214   4.722  11.991
11249W        W70543   1.315  10.330  14.899
11250W        W70544  22.245  31.148  14.470
11251W        W70545  10.229  11.645  14.916
11252W        W70546   1.387   8.160   1.404
11253W        W70547  27.586  34.558   0.328
11254W        W70548  24.723  11.656  12.477
11255W        W70549  24.716  19.075   3.384
11256W        W70550  30.560   3.278   1.369
11257W        W70551   5.324  11.301   0.835
11258W        W70552  20.676  42.317   1.921
11259W        W70553   5.383   0.328   1.254
11260W        W70554  19.110   1.405   0.447
11261W        W70555  20.562   9.204   4.763
11262W        W70556   7.904  19.690   5.278
11263W        W70557  12.358  16.630  11.606
11264W        W70558  43.824  31.428   3.790
11265W        W70559  21.658  42.351   4.215
11266W        W70560  37.017  34.993  14.017
11267W        W70561  43.022   0.787   1.301
11268W        W70562  37.553  30.525  14.942
11269W        W70563  12.850  13.768   2.390
11270W        W70564  22.540  21.715   1.326
11271W        W70565   5.872  31.138  13.341
11272W        W70566   2.871  36.068   4.121
11273W        W70567  44.443  28.447  12.506
11274W        W70568  19.275  39.892  10.520
11275W        W70569  31.995  23.560  14.777
11276W        W70570  35.026  29.990   3.797
11277W        W70571  11.721   5.772   4.227
11278W        W70572  22.154  25.187  10.590
11279W        W70573  34.589  24.132   3.163
11280W        W70574  14.160  16.180   0.308
11281W        W70575  18.172  33.882   0.734
11282W        W70576  34.532  42.387  11.993
11283W        W70577  20.086  30.005   0.899
11284W        W70578  33.104  40.371  10.911
11285W        W70579   9.346   0.742  11.856
11286W        W70580  39.963  38.388  10.570
11287W        W70581  21.726  35.078   0.813
11288W        W70582   1.883  36.532  14.461
11289W        W70583  16.306   7.277  13.508
11290W        W70584  24.510  27.577   1.223
11291W        W70585  25.962  12.704   2.869
11292W        W70586  33.397  17.691  12.887
11293W        W70587   5.243  11.792   3.335
11294W        W70588  16.631  38.350   2.224
11295W        W70589   6.258  33.454  13.887
11296W        W70590   1.453  31.148  14.977
11297W        W70591  25.568  38.929   3.290
11298W        W70592   4.780  31.981   3.845
11299W        W70593  27.016  26.546  14.443
11300W        W70594  35.881  28.564  13.937
11301W        W70595   4.861   0.861  14.839
11302W        W70596   8.281  42.810  14.905
11303W        W70597  32.031  35.497   4.321
11304W        W70598  30.431   9.804  14.863
11305W        W70599  34.497  18.092  14.779
11306W        W70600   8.355  24.109  13.349
11307W        W70601  15.609  32.942  12.875
11308W        W70602   6.715  16.313   2.722
11309W        W70603  25.097  33.056   1.769
11310W        W70604   2.948  37.889  10.980
11311W        W70605  38.833  27.539   4.175
11312W        W70606  11.816   3.339   4.274
11313W        W70607  15.213  37.361   1.425
11314W        W70608   9.847   6.809  13.807
11315W        W70609  37.015  29.524  10.968
11316W        W70610  29.086  23.095  13.929
11317W        W70611  43.483  29.648  10.503
11318W        W70612  29.503  38.383   2.736
11319W        W70613  40.455  11.280   3.356
11320W        W70614  12.221  13.307   3.695
11321W        W70615  20.131  36.552  12.849
11322W        W70616   5.273  22.736   0.346
11323W        W70617  38.858   8.202  12.904
11324W        W70618  29.949  35.964   3.748
11325W        W70619  14.183  29.631   0.394
11326W        W70620  17.095   8.317  12.086
11327W        W70621   3.824  14.235  10.981
11328W        W70622  22.712  27.085   4.226
11329W        W70623  40.890  30.547  10.938
11330W        W70624  10.220  40.381  13.832
11331W        W70625   7.779  27.493  14.376
11332W        W70626  41.357  10.277  12.424
11333W        W70627   7.327  15.140  11.561
11334W        W70628  38.052  28.048  13.929
11335W        W70629  29.056  26.594   4.666
11336W        W70630  14.677   6.262  14.984
11337W        W70631  12.760  43.324   1.415
11338W        W70632  16.795  30.955   0.944
11339W        W70633  33.124   6.873   0.432
11340W        W70634   4.854  43.270   1.833
11341W        W70635  18.100  13.132   4.794
11342W        W70636  18.597   9.223   4.811
11343W        W70637  23.098  37.904  14.447
11344W        W70638  40.874  40.019  14.421
11345W        W70639  14.326  39.559  14.885
11346W        W70640  34.560  44.353  11.043
11347W        W70641  38.565  17.168   0.871
11348W        W70642  44.754  32.416  14.818
11349W        W70643  36.446  13.115  14.846
11350W        W70644  18.110   5.400  13.424
11351W        W70645  23.075  35.855  11.416
11352W        W70646  39.908   1.957   0.930
11353W        W70647  31.994  12.132   1.797
11354W        W70648  44.268  19.717   2.783
11355W        W70649   9.170  33.467   9.968
11356W        W70650  19.042   8.833   0.935
11357W        W70651  11.698  14.131  13.402
11358W        W70652  19.268  37.027   4.344
11359W        W70653   1.742  17.624  12.527
11360W        W70654  15.650  23.221  13.887
11361W        W70655  36.039   0.332  13.054
11362W        W70656   9.763  38.338  14.786
11363W        W70657   3.245  20.609  10.548
11364W        W70658  18.738  22.195   1.802
11365W        W70659   7.777  33.934  12.468
11366W        W70660   3.878  42.915  10.424
11367W        W70661  26.977  16.690   4.668
11368W        W70662   2.291   9.217  13.048
11369W        W70663  40.348  22.026  11.015
11370W        W70664  33.019  38.886   4.684
11371W        W70665   1.844  17.557   2.303
11372W        W70666  17.704  25.096   2.771
11373W        W70667  25.205  13.606  11.090
11374W        W70668  40.403  35.572   2.804
11375W        W70669  28.022  17.258   3.765
11376W        W70670   4.301  23.695  12.392
11377W        W70671  13.128  23.194  14.766
11378W        W70672   3.426  35.017   3.671
11379W        W70673  16.154  22.242  11.886
11380W        W70674  20.648   5.276  11.105
11381W        W70675  35.888  20.161  13.508
11382W        W70676   0.805  40.927   1.366
11383W        W70677   2.237  13.708   3.816
11384W        W70678  38.024  34.976   0.778
11385W        W70679   9.179  32.391   3.682
11386W        W70680  35.541  24.023   3.749
11387W        W70681  42.879  20.101   4.652
11388W        W70682  11.299  14.116   4.179
11389W        W70683  16.292   3.250   1.927
11390W        W70684  21.019   0.382   1.704
11391W        W70685  44.901  12.844  14.329
11392W        W70686  41.364  24.070   4.145
11393W        W70687  40.351  23.566   0.307
11394W        W70688  17.653   7.225  10.568
11395W        W70689  12.664  41.310   0.450
11396W        W70690  42.333   1.343   0.955
11397W        W70691  26.001  30.997   1.302
11398W        W70692   7.274   3.374  12.040
11399W        W70693  12.316  16.617  13.999
11400W        W70694   9.706  38.035  11.931
11401W        W70695  31.629  35.445  10.917
11402W        W70696  13.622  37.401  10.448
11403W        W70697  16.306  36.406   4.270
11404W        W70698  17.204  25.158  10.923
11405W        W70699  22.695  30.031  13.475
11406W        W70700   9.657   4.253  11.558
11407W        W70701  40.897  32.439  10.473
11408W        W70702  10.352  25.177  12.979
11409W        W70703   2.760  22.725  12.964
11410W        W70704  28.673   1.337  12.942
11411W        W70705  44.341  28.116   4.198
11412W        W70706  44.271  41.926  14.811
11413W        W70707  18.558  24.051   3.282
11414W        W70708  31.603  39.063  11.883
11415W        W70709   5.933   7.893   1.246
11416W        W70710  27.470  24.223   1.364
11417W        W70711   9.364  22.524  14.032
11418W        W70712   1.915  37.478  14.011
11419W        W70713  28.114  41.511  14.468
11420W        W70714  12.224  14.193   4.728
11421W        W70715  32.120   1.808   0.811
11422W        W70716  42.428  29.534  14.411
11423W        W70717  24.503  19.641  10.979
11424W        W70718  30.030  42.817   4.759
11425W        W70719   7.837   2.790  10.427
11426W        W70720  32.996  40.919   2.210
11427W        W70721  40.822  41.012  14.368
11428W        W70722  18.757   2.840  11.381
11429W        W70723  40.337  24.212  13.356
11430W        W70724  19.120  18.652  13.887
11431W        W70725   9.250  21.218  10.952
11432W        W70726  22.146  19.755  14.796
11433W        W70727  30.493  28.530   1.710
11434W        W70728  44.987  24.487   2.770
11435W        W70729  25.004  44.900  13.861
11436W        W70730  40.043   7.385  13.022
11437W        W70731  38.071  41.044  14.872
11438W        W70732  13.142  19.696  10.558
11439W        W70733  33.393  29.591   4.197
11440W        W70734   4.737  20.575  13.830
11441W        W70735  38.477   4.290   1.322
11442W        W70736  20.626  14.729  12.849
11443W        W70737  44.892  12.759   2.195
11444W        W70738  42.803  33.876   3.151
11445W        W70739  43.478   7.273   0.939
11446W        W70740  36.849  41.318  14.365
11447W        W70741  14.322   6.871  12.527
11448W        W70742  18.257  26.593  11.062
11449W        W70743   9.689  40.994  12.376
11450W        W70744  40.417  31.486   0.960
11451W        W70745  31.048  24.201   2.743
11452W        W70746  44.351  33.993  14.029
11453W        W70747  31.909  15.691   3.766
11454W        W70748   3.428  18.251  10.981
11455W        W70749   6.862  22.742   2.271
11456W        W70750   5.264  36.494   0.439
11457W        W70751  35.405  28.493  10.953
11458W        W70752   4.358  29.075   0.765
11459W        W70753   2.342  38.848   0.428
11460W        W70754  18.124  16.682   2.865
11461W        W70755  11.265  29.465   0.736
11462W        W70756   8.199  28.105   0.420
11463W        W70757  11.729   1.402  13.496
11464W        W70758   2.391   6.736   4.763
11465W        W70759  36.433  24.502  11.120
11466W        W70760   2.886  32.031   0.924
11467W        W70761  35.940  21.685  14.911
11468W        W70762   2.449  13.155  14.412
11469W        W70763  14.681  31.012   4.695
11470W        W70764  31.567   2.734  14.344
11471W        W70765  29.649  42.329  10.619
11472W        W70766  41.902  40.952   3.320
11473W        W70767  44.839  27.035   4.826
11474W        W70768  15.654   0.925   0.384
11475W        W70769  12.179  32.050  11.017
11476W        W70770   6.886   3.299   0.407
11477W        W70771   1.345  18.640   0.308
11478W        W70772  30.605   3.729   0.435
11479W        W70773  11.155   3.876  14.859
11480W        W70774  44.993  32.480   1.385
11481W        W70775  27.009  22.608   4.717
11482W        W70776   4.325  43.458  14.436
11483W        W70777  17.080  38.888  13.846
11484W        W70778   8.758  16.607  12.399
11485W        W70779  23.168   4.848  11.969
11486W        W70780  29.602  40.445  14.281
11487W        W70781  37.061  16.303   0.956
11488W        W70782  31.603  38.888  11.054
11489W        W70783  22.696  29.616  10.527
11490W        W70784  20.091  27.983   2.903
11491W        W70785  18.289  37.523  12.577
11492W        W70786  34.017  32.917  12.033
11493W        W70787  34.491  23.561   1.260
11494W        W70788  32.053  42.810   2.357
11495W        W70789  15.294   4.906   1.872
11496W        W70790   9.186  10.162  13.510
11497W        W70791  28.039  22.731   3.635
11498W        W70792  15.283  36.398  13.040
11499W        W70793   6.914   8.677   0.417
11500W        W70794  10.758  27.021  11.399
11501W        W70795   9.387  32.965   1.292
11502W        W70796  38.067  23.526   1.778
11503W        W70797  31.479  23.625  10.532
11504W        W70798   8.177   3.403  13.822
11505W        W70799  40.051   5.401   4.341
11506W        W70800   1.846  39.477   0.766
11507W        W70801  32.967  32.065  14.443
11508W        W70802  30.604  21.734   3.667
11509W        W70803   3.781  13.768   2.676
11510W        W70804  44.388  17.668   4.697
11511W        W70805  40.429  23.087   0.288
11512W        W70806   6.209  44.380  11.053
11513W        W70807  43.770   6.239   0.822
11514W        W70808  14.824  12.337  13.392
11515W        W70809  12.287  32.546   0.257
11516W        W70810  33.951  25.204  14.358
11517W        W70811  10.864  11.824   1.419
11518W        W70812  28.434   5.263   4.137
11519W        W70813  36.016  23.698  13.989
11520W        W70814  37.856  18.600  10.980
11521W        W70815  43.432  10.343  10.969
11522W        W70816  42.843  29.039  12.014
11523W        W70817  30.471   0.333  10.642
11524W        W70818  25.095  24.109  14.968
11525W        W70819   1.244  18.240   0.728
11526W        W70820  17.680   3.451   2.724
11527W        W70821  37.390  19.060  12.387
11528W        W70822  34.047  40.533   4.267
11529W        W70823  13.684  22.152   5.758
11530W        W70824  42.500  11.254   3.301
11531W        W70825  37.856   2.279   2.741
11532W        W70826  41.942   4.931  14.494
11533W        W70827  12.291   8.257   1.903
11534W        W70828  24.675  27.655  12.481
11535W        W70829   6.373  25.022  11.043
11536W        W70830  13.200   7.179  11.590
11537W        W70831   9.825   1.430  12.937
11538W        W70832  40.832  39.037   1.821
11539W        W70833  27.984   0.283  14.326
11540W        W70834  14.315  25.581   0.930
11541W        W70835  36.511  44.846   3.644
11542W        W70836  35.894   0.752   3.283
11543W        W70837  24.590  19.258   0.421
11544W        W70838  35.560  15.741  11.039
11545W        W70839  28.075   5.876  10.969
11546W        W70840   6.344  44.914  13.427
11547W        W70841  29.433  21.615  10.588
11548W        W70842  33.588  29.542   0.409
11549W        W70843  41.989   0.439   5.088
11550W        W70844  38.372  24.187  12.409
11551W        W70845  15.090  16.217   1.885
11552W        W70846   5.854   0.355   2.715
11553W        W70847   7.894   3.405   2.394
11554W        W70848  18.050  34.072  13.972
11555W        W70849  10.269  20.043  14.421
11556W        W70850  25.501  22.610  13.454
11557W        W70851  16.673  19.046   5.600
11558W        W70852   2.883   4.243   1.418
11559W        W70853  24.553  34.007   0.952
11560W        W70854  10.140   5.918   2.375
11561W        W70855  10.380  28.548  10.635
11562W        W70856  20.562   1.834  10.900
11563W        W70857  21.244  19.181   0.378
11564W        W70858  26.191  26.521   1.819
11565W        W70859  21.079  22.551  13.453
11566W        W70860   9.243  20.247   5.594
11567W        W70861   1.974   0.814   2.204
11568W        W70862  10.809   7.206   4.352
11569W        W70863  23.654  15.585  10.641
11570W        W70864  38.335   6.336   4.754
11571W        W70865   2.228  31.900   3.323
11572W        W70866  36.365  14.209   1.359
11573W        W70867  10.662   8.328  14.787
11574W        W70868  33.097   5.228  14.824
11575W        W70869  44.369  35.101   2.873
11576W        W70870  22.569  34.911   1.812
11577W        W70871  25.531   8.854  13.470
11578W        W70872   7.679  36.471  11.439
11579W        W70873  30.491  14.710   0.891
11580W        W70874  22.014  20.272  14.798
11581W        W70875  37.429   0.877  12.996
11582W        W70876  15.619  17.278   3.726
11583W        W70877   0.833  41.854  10.433
11584W        W70878  36.985   4.360  11.532
11585W        W70879  20.607  23.053   3.781
11586W        W70880   4.342  41.399   1.242
11587W        W70881  14.612  23.139  12.492
11588W        W70882  20.082  39.976  14.362
11589W        W70883  11.231  41.787   4.118
11590W        W70884  24.591   8.873   1.715
11591W        W70885   3.742  21.523  12.827
11592W        W70886  30.645  35.423  14.026
11593W        W70887   8.806  22.091   2.891
11594W        W70888  39.534  35.506  10.984
11595W        W70889  32.450   7.909   4.146
11596W        W70890  40.545  13.613   0.880
11597W        W70891  21.579  17.575  14.846
11598W        W70892  14.269  33.592   0.784
11599W        W70893   2.252  41.889  13.977
11600W        W70894  33.433  13.211   0.726
11601W        W70895  32.124  29.140   4.771
11602W        W70896  41.014  27.598  14.408
11603W        W70897  41.519  36.347   3.354
11604W        W70898   8.309   9.168  12.518
11605W        W70899  20.545  29.649   2.701
11606W        W70900  27.978   9.300  13.333
11607W        W70901  29.169  41.016   5.158
11608W        W70902  13.674   5.888   2.402
11609W        W70903  30.123  43.955   3.340
11610W        W70904  14.242  26.555   4.318
11611W        W70905  18.600  19.041   5.133
11612W        W70906   9.859  16.165   3.180
11613W        W70907  35.938  34.447   0.913
11614W        W70908  10.795  44.967   1.249
11615W        W70909  25.635  43.932   1.831
11616W        W70910  32.494  35.588  11.887
11617W        W70911  41.463  21.566   1.443
11618W        W70912  14.118  22.707  14.364
11619W        W70913  43.503  27.562  12.828
11620W        W70914  41.906  26.593   3.378
11621W        W70915  18.098  31.564  13.366
11622W        W70916  35.554  35.985  13.964
11623W        W70917  41.322  21.629   3.270
11624W        W70918  29.054  31.073  11.475
11625W        W70919   6.251  38.845   5.090
11626W        W70920  25.598  17.568   0.740
11627W        W70921  11.322  43.337   2.772
11628W        W70922  40.417   9.367   1.216
11629W        W70923  13.200   2.966   0.284
11630W        W70924  25.505   4.728   2.783
11631W        W70925  39.456   3.801  11.068
11632W        W70926  38.329  18.263   2.866
11633W        W70927  38.369  40.960  14.370
11634W        W70928  26.174  17.786  14.917
11635W        W70929   5.697  38.988  10.894
11636W        W70930  43.892  24.598  12.403
11637W        W70931  22.027  35.580   0.332
11638W        W70932  14.095  43.997   0.926
11639W        W70933  31.068  34.379  10.572
11640W        W70934  18.246  25.028  14.841
11641W        W70935  41.490  10.693  13.966
11642W        W70936   5.775   3.871   1.376
11643W        W70937  41.821  43.333  14.416
11644W        W70938  32.904   6.901  12.063
11645W        W70939  19.621  39.904  11.562
11646W        W70940  11.683  43.855   4.777
11647W        W70941  24.096  40.814  11.087
11648W        W70942  25.124   4.710   5.109
11649W        W70943  30.065  30.435   4.185
11650W        W70944   6.382  31.931  12.951
11651W        W70945   5.352  29.086   3.824
11652W        W70946  32.493  42.389  10.894
11653W        W70947  35.376  10.306  10.944
11654W        W70948   3.412  18.271   3.327
11655W        W70949  27.556   2.377  12.411
11656W        W70950  29.424   2.823   4.313
11657W        W70951  40.317  44.480   1.343
11658W        W70952  35.943  15.273  13.023
11659W        W70953  17.243  39.495  12.450
11660W        W70954  12.216  37.959  12.999
11661W        W70955  30.112   6.255   2.675
11662W        W70956  12.293  37.379   4.339
11663W        W70957  36.428  28.597   1.354
11664W        W70958   0.894  26.132   4.614
11665W        W70959  12.219   7.173  12.968
11666W        W70960  13.325  24.213  11.017
11667W        W70961  23.009   8.712   3.325
11668W        W70962  15.813  19.585   2.383
11669W        W70963  41.359   7.417  11.394
11670W        W70964  35.454  28.076   4.651
11671W        W70965  10.709  25.217  13.514
11672W        W70966   5.861   6.792  13.478
11673W        W70967   6.361  30.938   3.291
11674W        W70968   7.849   9.284  11.486
11675W        W70969  40.424  24.716   0.738
11676W        W70970  34.542   4.336  11.066
11677W        W70971  44.932   7.702   1.449
11678W        W70972  42.447  25.011   0.446
11679W        W70973   7.224  15.089  12.869
11680W        W70974  15.211  30.478  13.444
11681W        W70975  36.569   4.353  12.056
11682W        W70976  19.244   2.410  13.873
11683W        W70977  30.564  25.049  13.834
11684W        W70978  28.113   7.363   5.180
11685W        W70979  33.973   9.686  10.461
11686W        W70980   1.840   9.688   0.804
11687W        W70981  23.733  39.026  13.814
11688W        W70982  18.767   5.702   2.243
11689W        W70983   3.940  35.455  10.449
11690W        W70984  42.432   0.952  13.356
11691W        W70985  29.126   1.768  13.311
11692W        W70986  11.210  40.341   4.240
11693W        W70987  33.928  24.066  14.914
11694W        W70988   7.254  12.832  14.354
11695W        W70989  37.845   1.293  13.472
11696W        W70990  33.080  42.885   5.302
11697W        W70991  20.597  11.372  11.920
11698W        W70992  10.844  15.593  10.952
11699W        W70993  42.435  12.742   4.325
11700W        W70994  25.189  44.937   3.766
11701W        W70995  44.823  16.650  14.957
11702W        W70996  20.596   4.778   0.958
11703W        W70997  34.985  15.625  12.547
11704W        W70998   8.884   5.386  12.438
11705W        W70999  31.912   7.379   1.370
11706W        W71000  42.511  18.228   2.770
11707W        W71001   4.929  19.570  10.577
11708W        W71002  31.929  37.057  14.428
11709W        W71003  31.061   0.929  13.391
11710W        W71004  37.935  33.047  11.055
11711W        W71005  23.537  29.618   4.190
11712W        W71006   1.770  37.896   0.318
11713W        W71007  33.110  33.548  14.010
11714W        W71008  11.681  24.507   1.900
11715W        W71009  26.598  16.573  10.554
11716W        W71010   1.242   3.709   4.767
11717W        W71011  43.295   5.343   0.393
11718W        W71012   4.939  14.279   3.221
11719W        W71013   2.902  25.128  12.910
11720W        W71014  25.587  21.043   0.343
11721W        W71015  36.893  20.219   3.263
11722W        W71016  15.650  20.038  11.983
11723W        W71017  31.080   2.376  11.547
11724W        W71018  12.729  18.605   4.249
11725W        W71019  14.278   0.366   4.144
11726W        W71020  30.531   5.284   2.309
11727W        W71021  30.962   4.730  12.049
11728W        W71022  10.288  15.161  13.503
11729W        W71023  11.667  29.041  13.957
11730W        W71024   0.778   3.863  13.341
11731W        W71025  37.903  41.800   3.194
11732W        W71026  18.604  40.874  11.385
11733W        W71027   3.420   6.243  12.499
11734W        W71028  24.534  15.107   1.718
11735W        W71029  37.932  32.526  14.801
11736W        W71030  31.024  22.136   3.308
11737W        W71031  44.923  19.586   0.320
11738W        W71032  40.026  11.720   3.861
11739W        W71033   4.711  24.003  10.570
11740W        W71034  12.835  15.198  14.946
11741W        W71035   9.862  17.615  13.850
11742W        W71036  39.024   0.389  11.451
11743W        W71037  28.524   9.840   4.824
11744W        W71038  31.024   8.704  14.995
11745W        W71039  21.522   3.407  11.021
11746W        W71040  23.710  14.316  10.542
11747W        W71041  16.606   8.235  12.364
11748W        W71042  19.102  22.688  10.915
11749W        W71043  18.167  40.941  11.604
11750W        W71044   7.359  21.131  14.511
11751W        W71045  31.062  22.053  12.997
11752W        W71046  31.467  18.610   0.373
11753W        W71047  25.558  11.324  13.321
11754W        W71048  39.387  20.224  11.432
11755W        W71049  16.182  31.910  11.505
11756W        W71050  43.273  43.324   3.723
11757W        W71051  42.797   5.866   1.830
11758W        W71052  29.642  24.085   5.097
11759W        W71053  14.752  26.035   4.765
11760W        W71054  28.999  44.271  11.909
11761W        W71055   4.896  10.145   4.810
11762W        W71056  32.927  29.618  13.978
11763W        W71057  35.378   5.263  10.582
11764W        W71058  10.775  37.923   0.376
11765W        W71059  34.102  37.360   5.148
11766W        W71060  15.722   5.814  11.874
11767W        W71061   0.285  24.207   1.220
11768W        W71062  38.939  42.782   0.269
11769W        W71063  13.693  26.670   0.938
11770W        W71064  22.034  42.937  14.463
11771W        W71065  13.184   8.892  14.936
11772W        W71066  21.149  13.192   4.798
11773W        W71067  20.562  13.710   3.225
11774W        W71068   5.705  29.451  11.522
11775W        W71069  15.778  34.020   4.336
11776W        W71070   3.926  22.162  14.851
11777W        W71071  18.209  33.577   3.239
11778W        W71072   2.396   4.250   4.671
11779W        W71073   3.420   6.377   2.663
11780W        W71074   4.812  37.911   4.163
11781W        W71075  23.569  28.620  10.634
11782W        W71076  11.205   9.700  14.371
11783W        W71077  30.532   7.775   2.192
11784W        W71078   5.405  15.756   3.675
11785W        W71079   3.399  27.029  13.996
11786W        W71080  25.633   1.270  10.534
11787W        W71081   8.254  35.988  14.482
11788W        W71082  26.016  30.954  14.866
11789W        W71083   0.327  42.465  13.313
11790W        W71084   3.865  20.668   4.818
11791W        W71085   5.776  33.041  12.062
11792W        W71086  15.602  39.322   3.309
11793W        W71087   5.213  19.755   4.284
11794W        W71088  26.663   6.409   2.416
11795W        W71089  13.114  36.531  10.526
11796W        W71090  42.410   4.827  13.973
11797W        W71091  20.628  34.106  11.609
11798W        W71092  44.408  10.804   2.699
11799W        W71093   1.406  19.051   1.871
11800W        W71094   2.470   8.242   1.288
11801W        W71095  12.260  10.799  12.440
11802W        W71096  20.134  35.418   3.866
11803W        W71097  25.649  32.539   3.197
11804W        W71098  15.138  11.184   2.178
11805W        W71099  22.523  29.010  10.569
11806W        W71100  40.024  39.038  14.830
11807W        W71101  20.257  35.964   3.815
11808W        W71102  27.634   2.233  12.956
11809W        W71103   9.752  29.501   1.326
11810W        W71104  12.626   9.334  11.975
11811W        W71105  17.099  12.748  12.429
11812W        W71106  25.524  16.753  13.816
11813W        W71107  33.950  11.156  13.852
11814W        W71108  31.900   4.910  13.791
11815W        W71109  39.840  25.472   3.659
11816W        W71110   2.918   7.361   1.768
11817W        W71111  37.508  32.900  13.337
11818W        W71112  39.406  37.075   3.732
11819W        W71113  23.071  23.647   2.354
11820W        W71114  12.242  41.932  10.634
11821W        W71115  35.595   4.780  11.057
11822W        W71116   6.871   0.415  12.517
11823W        W71117  26.989  42.283  13.335
11824W        W71118   6.333   2.906  12.060
11825W        W71119  24.523   6.235   2.739
11826W        W71120   3.835   2.227   1.298
11827W        W71121   2.328  38.892  10.477
11828W        W71122  20.631  36.433   4.622
11829W        W71123  25.080   7.908   3.385
11830W        W71124  44.998  40.503   9.941
11831W        W71125   7.897  35.553  14.487
11832W        W71126  32.948   7.883  11.006
11833W        W71127   7.249   8.696  11.925
11834W        W71128  14.156  28.941  11.380
11835W        W71129  44.799   8.679  10.416
11836W        W71130  20.560   2.868   0.337
11837W        W71131   3.389  37.964  12.445
11838W        W71132  24.666  40.519  12.410
11839W        W71133  43.937  26.659   3.213
11840W        W71134  27.592  24.502   0.763
11841W        W71135  11.357  13.149  10.517
11842W        W71136   4.351  11.763  12.407
11843W        W71137   2.430  32.618  10.599
11844W        W71138  42.982  19.543  12.999
11845W        W71139  17.242   0.919   1.843
11846W        W71140  19.586   1.885  10.046
11847W        W71141  37.488  19.237   2.873
11848W        W71142   1.896  15.255   1.277
11849W        W71143  27.053   5.325  11.465
11850W        W71144  33.573  14.636   4.123
11851W        W71145   8.793  25.480  14.856
11852W        W71146  25.070  28.489   1.430
11853W        W71147   0.863  44.264  13.492
11854W        W71148  24.606  31.487  14.345
11855W        W71149  40.339  14.246   3.734
11856W        W71150  16.262   8.264  12.487
11857W        W71151  26.637  36.046  13.928
11858W        W71152  42.406  27.682  10.483
11859W        W71153  12.254  33.455   1.765
11860W        W71154   5.246  29.662  14.917
11861W        W71155  38.964   9.260  12.921
11862W        W71156  26.140  16.632   3.327
11863W        W71157   5.845  14.277   0.789
11864W        W71158  15.139  29.458   2.313
11865W        W71159   6.804  42.911   4.631
11866W        W71160  11.858   4.916  14.846
11867W        W71161  29.926  32.955   2.246
11868W        W71162  28.527  13.126  13.372
11869W        W71163   8.381  26.462  14.499
11870W        W71164  37.563   0.370  11.126
11871W        W71165  36.486  43.950   1.292
11872W        W71166  24.540  14.237  10.558
11873W        W71167  35.903  32.035   3.221
11874W        W71168  27.457  40.978   3.839
11875W        W71169  22.592  14.763   1.734
11876W        W71170  43.811  27.092   4.646
11877W        W71171  28.453  13.817   3.660
11878W        W71172  23.220  32.587  13.060
11879W        W71173  33.080   9.255   3.657
11880W        W71174  33.535   0.309   2.803
11881W        W71175  43.931  10.649   2.320
11882W        W71176  32.633   3.845   1.699
11883W        W71177  17.167  16.129  11.466
11884W        W71178   5.414   0.310   9.481
11885W        W71179  14.283  29.989   3.703
11886W        W71180  11.172  18.093  13.930
11887W        W71181  17.763  42.348   0.818
11888W        W71182   7.286  21.076   2.804
11889W        W71183  35.897  27.194   0.341
11890W        W71184  10.750  19.051   2.383
11891W        W71185  11.667  11.861  11.127
11892W        W71186  31.455  11.819  10.622
11893W        W71187  33.535   5.896   2.893
11894W        W71188  36.844   6.821  13.894
11895W        W71189   6.917  35.004  10.965
11896W        W71190  43.778  13.284   2.349
11897W        W71191  43.016   6.344  14.477
11898W        W71192  26.958  15.099   3.173
11899W        W71193  33.032  31.402  11.449
11900W        W71194  36.400  39.049   3.349
11901W        W71195   7.714  25.620   1.769
11902W        W71196   2.375   3.859   2.273
11903W        W71197  30.008   3.907  12.904
11904W        W71198  28.012   8.345   2.356
11905W        W71199  25.613  23.626  14.025
11906W        W71200   1.964  40.376   1.826
11907W        W71201  44.933  33.894   3.298
11908W        W71202  26.972  10.649  13.537
11909W        W71203  25.072   4.288  11.402
11910W        W71204   5.244   5.243   2.903
11911W        W71205  32.005  22.581   2.356
11912W        W71206  33.924  19.654  10.989
11913W        W71207  15.203  11.657  12.462
11914W        W71208  42.862  29.173  12.507
11915W        W71209  11.180  30.564  12.410
11916W        W71210   3.339  27.606   2.275
11917W        W71211   7.271  38.438  11.425
11918W        W71212  11.251   5.720   4.235
11919W        W71213   2.259  38.831  11.043
11920W        W71214  27.037  13.669  10.507
11921W        W71215  41.987  26.467   3.734
11922W        W71216   8.801  11.667   3.767
11923W        W71217  40.468  34.448  12.027
11924W        W71218  23.992  26.032   0.353
11925W        W71219  18.754  13.785   3.846
11926W        W71220   9.382   8.218  12.406
11927W        W71221  27.177   3.383   4.660
11928W        W71222  26.165  24.507  11.032
11929W        W71223  16.744   9.769  14.815
11930W        W71224  44.431  28.590   4.207
11931W        W71225  13.768  12.842  11.879
11932W        W71226  40.054  12.775  12.484
11933W        W71227   4.302   1.917   9.994
11934W        W71228   8.718   4.397   4.601
11935W        W71229  28.618   6.887  12.062
11936W        W71230  37.084  38.918  12.044
11937W        W71231  39.997  44.397  12.035
11938W        W71232  15.804  40.958   0.292
11939W        W71233   4.833  35.431   0.928
11940W        W71234  33.053  28.033   3.673
11941W        W71235  19.050  38.347  13.876
11942W        W71236  13.748  20.719   4.599
11943W        W71237   9.855  29.031   0.929
11944W        W71238  42.481  21.177  10.932
11945W        W71239  14.265   5.329   0.857
11946W        W71240   8.242  25.658  13.504
11947W        W71241  32.570  23.115  12.953
11948W        W71242  14.775   7.704   4.679
11949W        W71243   8.315  40.490   2.386
11950W        W71244  26.111  39.511  12.991
11951W        W71245   8.849  24.152  14.484
11952W        W71246  25.081  32.526  14.354
11953W        W71247  13.737   5.813   0.833
11954W        W71248  21.565  24.560   1.824
11955W        W71249  16.626  13.825  13.360
11956W        W71250  33.386  35.967  10.926
11957W        W71251  39.365  20.593  14.960
11958W        W71252  33.607  27.122   0.293
11959W        W71253  23.241  23.171   2.841
11960W        W71254  43.474  21.563   3.204
11961W        W71255  16.249  19.238   3.732
11962W        W71256   1.448  23.215   0.332
11963W        W71257   8.731  35.437   5.314
11964W        W71258  41.531  26.697   4.315
11965W        W71259  21.057   3.934   1.886
11966W        W71260  33.117  30.495   2.792
11967W        W71261  39.509   7.346  12.833
11968W        W71262   4.892  41.332  12.006
11969W        W71263   4.918  14.323  10.449
11970W        W71264  12.716  16.303  11.483
11971W        W71265   3.450   0.472  10.630
11972W        W71266   7.266  42.805   2.753
11973W        W71267  10.301  24.138  10.565
11974W        W71268  26.013  40.449  11.863
11975W        W71269  17.744  40.986   3.165
11976W        W71270  40.976  36.974  14.959
11977W        W71271   1.924  32.086   2.694
11978W        W71272  22.008   6.278  14.463
11979W        W71273  13.646   1.914   2.322
11980W        W71274   2.393  15.302   0.304
11981W        W71275  43.489  17.191  14.341
11982W        W71276  33.980   7.795  11.066
11983W        W71277  36.085  19.653   3.731
11984W        W71278   1.310  43.867   3.378
11985W        W71279  42.985  39.029  12.450
11986W        W71280  42.001   5.300   0.273
11987W        W71281   8.797  34.096  13.482
11988W        W71282  17.601  41.458  14.006
11989W        W71283  32.622  13.195   1.417
11990W        W71284  20.763  16.247   4.815
11991W        W71285   1.906  10.166   4.284
11992W        W71286  23.504  24.487   1.381
11993W        W71287  12.164  34.887   0.869
11994W        W71288  36.537  42.309   3.726
11995W        W71289  32.953  28.540  13.526
11996W        W71290  33.381  20.119  12.994
11997W        W71291   6.787  32.012   4.615
11998W        W71292  23.068  17.794   4.646
11999W        W71293   5.218  27.545   1.237
12000W        W71294  17.744  14.744   1.743
12001W        W71295  26.465   9.650  13.342
12002W        W71296   3.821  42.827  13.949
12003W        W71297   4.896  37.905  12.397
12004W        W71298  10.274   6.205  14.963
12005W        W71299  37.861  11.258  14.800
12006W        W71300  43.336  13.817  13.806
12007W        W71301  15.729  19.215  10.446
12008W        W71302  12.307  40.545   0.859
12009W        W71303  26.163  11.335   0.825
12010W        W71304  35.408  10.671   5.107
12011W        W71305  31.518  44.920   1.697
12012W        W71306   0.267  31.507  13.477
12013W        W71307  22.031  16.076   0.775
12014W        W71308  38.925  42.426  12.057
12015W        W71309  34.512  31.621  11.987
12016W        W71310  40.040  36.351   0.829
12017W        W71311  23.533  11.755   0.857
12018W        W71312  28.605   4.396   0.449
12019W        W71313  20.040  12.788   1.722
12020W        W71314   7.345   6.183  12.367
12021W        W71315  29.942  15.767   0.465
12022W        W71316  15.222  14.176   4.176
12023W        W71317  24.999  41.324   2.355
12024W        W71318   2.334  21.704   1.804
12025W        W71319  26.655  31.070  10.494
12026W        W71320  15.787   2.961  13.336
12027W        W71321   5.405   3.955   3.796
12028W        W71322  23.057  11.208  14.954
12029W        W71323   5.322  30.056   1.249
12030W        W71324  26.461   7.690   2.342
12031W        W71325  21.646  19.057  12.355
12032W        W71326   0.326  30.920   3.300
12033W        W71327   6.848  29.430   0.836
12034W        W71328   7.830  28.509   0.387
12035W        W71329  14.620  38.333  13.439
12036W        W71330  17.119  39.436   1.325
12037W        W71331   5.917  27.098   1.739
12038W        W71332  30.124   8.708   3.855
12039W        W71333  39.921   1.358  12.859
12040W        W71334  28.953  15.641  12.934
12041W        W71335  26.052  44.985  13.957
12042W        W71336   3.864   5.411  11.603
12043W        W71337  27.122  16.285   4.318
12044W        W71338  15.178  41.026   3.380
12045W        W71339  10.646  35.603   1.351
12046W        W71340  24.662  28.571   1.347
12047W        W71341   5.252   0.790  14.972
12048W        W71342  24.000   0.458  11.484
12049W        W71343  13.286  34.870   3.646
12050W        W71344   7.673  39.455   3.154
12051W        W71345   8.330   0.947   3.280
12052W        W71346  23.096  44.387  13.516
12053W        W71347   5.724   3.734  14.396
12054W        W71348  43.307  14.832  10.989
12055W        W71349  10.212  10.275   0.391
12056W        W71350   8.809  19.281   2.372
12057W        W71351   8.163  26.665  10.936
12058W        W71352  33.570   1.369   1.433
12059W        W71353  30.549  29.087  11.536
12060W        W71354  13.674   4.835   4.727
12061W        W71355  14.259  20.245  12.346
12062W        W71356   2.396  23.595  11.998
12063W        W71357  42.803  33.590  13.956
12064W        W71358  31.568  35.477  14.407
12065W        W71359   9.652  16.293  13.974
12066W        W71360   3.875  22.250   2.264
12067W        W71361  36.971  43.473  13.507
12068W        W71362  14.605   1.927   4.825
12069W        W71363  29.455  14.218   1.232
12070W        W71364  16.619  44.446  12.018
12071W        W71365  44.417  25.150   0.380
12072W        W71366  21.738  38.365  14.858
12073W        W71367  24.035  20.124  14.031
12074W        W71368  12.749   8.172   0.389
12075W        W71369  39.522   5.288  11.032
12076W        W71370  44.313  24.119   0.451
12077W        W71371  43.439  31.951   3.155
12078W        W71372  33.069  36.038   3.768
12079W        W71373   3.944  27.975   2.834
12080W        W71374   2.835  17.652  10.978
12081W        W71375  12.171  14.599   2.381
12082W        W71376  21.617  12.781   2.883
12083W        W71377  33.426   8.863   2.253
12084W        W71378  20.565  33.493  11.126
12085W        W71379  40.921  15.278  11.076
12086W        W71380   9.299  27.622  12.542
12087W        W71381   7.310  10.330   0.300
12088W        W71382  33.066  30.112   2.747
12089W        W71383  44.413  34.016   2.875
12090W        W71384  15.618   6.258  13.477
12091W        W71385  15.680  18.714   3.681
12092W        W71386  20.083  28.648   0.378
12093W        W71387  23.556  33.890  11.580
12094W        W71388   6.790  17.556  12.048
12095W        W71389  20.639   7.745   4.298
12096W        W71390  11.197  11.296  11.585
12097W        W71391  15.223  36.565   3.744
12098W        W71392  41.337  40.485   1.843
12099W        W71393   4.764  33.440   4.785
12100W        W71394  34.442  42.516   2.691
12101W        W71395  19.758  23.629   3.672
12102W        W71396   0.883   6.803   1.243
12103W        W71397   3.808  36.555  13.952
12104W        W71398   3.363  33.131   4.128
12105W        W71399  43.854   6.371   4.342
12106W        W71400   3.240  44.403   4.776
12107W        W71401  23.182   6.747  14.846
12108W        W71402   4.276  13.147   3.697
12109W        W71403   6.410  24.176   4.207
12110W        W71404  24.483  30.100  14.004
12111W        W71405   8.888  17.165   2.869
12112W        W71406  12.658  26.613   0.820
12113W        W71407   6.337   4.427   0.799
12114W        W71408  35.920  21.114   3.704
12115W        W71409  40.368  40.329  12.881
12116W        W71410   7.689   6.699   1.239
12117W        W71411   8.799   2.961   0.440
12118W        W71412   5.926  26.206  10.617
12119W        W71413  21.574  40.962  14.837
12120W        W71414   6.823  28.182   4.721
12121W        W71415  34.403  35.105  14.822
12122W        W71416  35.022  24.162  10.570
12123W        W71417  14.230  24.545   1.226
12124W        W71418  12.730   5.718  10.463
12125W        W71419  31.992   3.709  13.425
12126W        W71420  30.944  18.197   4.793
12127W        W71421  19.102  15.713   3.372
12128W        W71422  16.582  28.647  13.453
12129W        W71423  38.029   2.310  11.026
12130W        W71424   0.432  18.225   2.833
12131W        W71425  25.658  37.932   2.187
12132W        W71426  35.054  27.691  13.063
12133W        W71427  28.436   6.338  14.951
12134W        W71428  19.139  26.564   2.751
12135W        W71429  36.542   5.308  14.903
12136W        W71430  12.360  33.570   3.766
12137W        W71431  43.403  32.464  14.029
12138W        W71432   5.797  37.524  13.540
12139W        W71433  23.712  27.499   1.905
12140W        W71434   9.881  39.998  12.891
12141W        W71435  30.546  24.689   1.378
12142W        W71436  20.176   1.423   0.788
12143W        W71437  24.484  29.609   0.737
12144W        W71438  28.643  44.441  10.518
12145W        W71439  11.774   6.922  12.398
12146W        W71440  43.971  40.514   4.791
12147W        W71441  39.398  29.063   4.322
12148W        W71442  41.524  30.596   2.355
12149W        W71443  39.439  35.584  14.766
12150W        W71444  25.516  19.179   2.283
12151W        W71445  16.179  37.409   5.122
12152W        W71446  37.496  18.094   4.682
12153W        W71447  33.425   0.880  12.047
12154W        W71448  15.650  30.477   0.427
12155W        W71449  35.515   2.434  14.322
12156W        W71450  36.459   2.915  12.942
12157W        W71451   7.291  19.715  12.402
12158W        W71452  14.600  29.478   2.337
12159W        W71453   6.337  24.044  12.992
12160W        W71454  35.041  35.906  11.118
12161W        W71455  43.424  33.592   2.231
12162W        W71456  19.758  22.183  14.352
12163W        W71457   3.315  34.051   3.670
12164W        W71458   3.271  19.643  11.111
12165W        W71459  38.987  25.644  11.906
12166W        W71460  19.608  17.294  12.400
12167W        W71461   3.835  30.610  12.404
12168W        W71462  24.209  27.082   2.668
12169W        W71463   8.293  33.892   3.267
12170W        W71464  33.987  36.520  12.437
12171W        W71465  27.659   3.456  14.934
12172W        W71466  35.053  12.730   0.438
12173W        W71467   4.255   6.353  12.866
12174W        W71468  42.804  34.876   1.737
12175W        W71469   1.918  43.989  13.479
12176W        W71470  25.621  40.928   0.261
12177W        W71471  44.926   5.874   3.842
12178W        W71472  41.845  15.277   4.734
12179W        W71473   8.705  38.475  10.612
12180W        W71474   2.338  23.517   5.237
12181W        W71475   9.846  42.825  13.503
12182W        W71476   3.319  15.794   1.335
12183W        W71477  31.641  22.111   2.825
12184W        W71478  24.062  24.054  10.529
12185W        W71479   5.262  39.459  14.423
12186W        W71480   4.763   9.290   3.262
12187W        W71481  27.985   9.842  11.463
12188W        W71482  25.612  44.446   0.759
12189W        W71483  44.766  28.576   0.324
12190W        W71484  28.174   4.803   3.196
12191W        W71485  15.767  26.521  11.586
12192W        W71486  34.496   5.384   2.408
12193W        W71487  31.579  35.394  10.440
12194W        W71488   1.336   9.326   4.597
12195W        W71489  16.274  27.115  14.793
12196W        W71490  21.724  34.989   3.684
12197W        W71491  29.013   2.802  12.426
12198W        W71492   9.230  37.363   0.365
12199W        W71493  36.458   2.263  11.056
12200W        W71494  35.035   4.350  13.543
12201W        W71495   1.847  43.461   0.361
12202W        W71496  23.100  17.734  14.956
12203W        W71497  32.419  11.339   4.603
12204W        W71498   8.319  37.845  13.861
12205W        W71499  28.159  10.157   0.752
12206W        W71500  11.837  15.766  10.575
12207W        W71501   4.378  23.015   1.318
12208W        W71502  32.999  43.476  10.578
12209W        W71503  36.853  18.760  14.945
12210W        W71504  43.913  35.007   0.830
12211W        W71505  39.880  24.635  13.342
12212W        W71506  28.648   9.876  14.966
12213W        W71507  26.675  27.452  12.404
12214W        W71508  43.966  17.157   2.355
12215W        W71509   1.946  21.684   3.744
12216W        W71510  10.856  29.446   3.387
12217W        W71511   9.169  44.374  13.314
12218W        W71512  21.617  11.739   2.286
12219W        W71513  33.545  29.590   3.796
12220W        W71514  18.556  13.782  12.937
12221W        W71515  20.260  16.314   3.273
12222W        W71516  24.976  22.171   4.667
12223W        W71517  28.995   6.878   0.281
12224W        W71518  44.334  38.381  11.434
12225W        W71519  30.651  25.618  10.634
12226W        W71520  23.573  38.820  12.944
12227W        W71521  28.490   1.873  10.584
12228W        W71522  41.469   2.397  11.520
12229W        W71523  33.503  24.006   4.688
12230W        W71524  40.994  15.304  12.835
12231W        W71525  30.572   9.151   3.637
12232W        W71526  39.451  44.972  13.011
12233W        W71527  22.020  15.296   2.394
12234W        W71528  16.257  28.978  11.440
12235W        W71529  17.622  11.732   5.795
12236W        W71530  32.578  20.543  14.326
12237W        W71531   7.794   5.315  10.565
12238W        W71532   5.868  31.442   1.743
12239W        W71533  20.186  40.502   0.382
12240W        W71534  31.581  41.439   0.910
12241W        W71535   6.277  33.005  10.966
12242W        W71536  42.879   3.244  11.592
12243W        W71537  39.939  12.132  13.964
12244W        W71538  13.656  22.058  14.455
12245W        W71539  24.645   0.247   4.133
12246W        W71540  16.636  25.564  11.026
12247W        W71541  23.160  18.564   4.790
12248W        W71542  37.878   3.218   2.410
12249W        W71543  43.392  23.647  10.506
12250W        W71544  32.132  10.720  11.486
12251W        W71545  10.780  27.193  12.986
12252W        W71546  24.222  36.593  12.478
12253W        W71547  11.858   0.856  14.941
12254W        W71548  32.428   0.928  14.015
12255W        W71549   6.312  24.134  13.360
12256W        W71550  39.403   8.742  13.326
12257W        W71551  24.024  16.249  11.435
12258W        W71552  41.891  29.642  14.815
12259W        W71553  16.710  11.176  13.942
12260W        W71554   1.354   9.686  14.353
12261W        W71555  43.481   5.757  13.492
12262W        W71556   9.391  23.623   1.864
12263W        W71557   6.807   5.861  12.419
12264W        W71558  36.993  27.960   0.729
12265W        W71559  37.046   9.248   2.733
12266W        W71560  27.456  43.944   0.357
12267W        W71561  44.930   2.872  13.878
12268W        W71562  20.098  17.588   3.718
12269W        W71563   2.439  41.362  10.098
12270W        W71564  41.981   1.775   5.319
12271W        W71565  40.991  35.942  11.393
12272W        W71566  31.145  34.051   4.651
12273W        W71567   6.806  22.568  13.312
12274W        W71568  16.248  13.730   2.712
12275W        W71569  19.624  19.590  11.953
12276W        W71570   1.827   2.939  11.023
12277W        W71571  25.506  24.678  13.036
12278W        W71572  32.053  41.528  11.907
12279W        W71573   2.914  16.168   4.610
12280W        W71574  12.224   3.843  11.563
12281W        W71575  38.358  28.552   1.715
12282W        W71576   8.860   5.250  11.521
12283W        W71577  38.355  12.656  13.390
12284W        W71578  32.573   8.809   2.786
12285W        W71579  41.389   3.310   1.433
12286W        W71580  27.060  17.699   0.323
12287W        W71581   1.852   1.461  12.096
12288W        W71582   3.870  20.175  13.041
12289W        W71583  14.096  38.063   4.335
12290W        W71584  16.590   4.240   2.361
12291W        W71585  16.283  12.301  12.962
12292W        W71586  37.526  25.073  14.861
12293W        W71587  38.018  32.430   4.701
12294W        W71588  34.430  38.543   2.292
12295W        W71589   0.850  11.733  11.059
12296W        W71590  35.989  15.305  10.517
12297W        W71591   1.304  31.150   4.351
12298W        W71592  35.518  28.143   0.785
12299W        W71593  34.879  44.004   1.809
12300W        W71594   5.268  37.381   4.322
12301W        W71595  17.131  28.093   0.727
12302W        W71596  38.400   7.399  14.498
12303W        W71597  43.005  14.681  11.566
12304W        W71598  18.558  37.993   2.766
12305W        W71599  27.494  31.551   4.825
12306W        W71600  12.323  15.611  11.903
12307W        W71601   0.384   9.170   0.355
12308W        W71602   5.232   6.727  11.103
12309W        W71603  34.541  12.783  12.428
12310W        W71604  43.377   7.371   3.810
12311W        W71605  12.283  27.188   4.171
12312W        W71606  36.446  40.475   3.762
12313W        W71607   5.291   9.837   4.179
12314W        W71608  19.626  26.995  10.961
12315W        W71609   2.746  28.100  12.882
12316W        W71610  30.933   5.386  13.409
12317W        W71611   9.872   5.876   1.390
12318W        W71612   7.240   6.883  12.512
12319W        W71613  23.049   2.883  13.035
12320W        W71614  34.116  30.918   4.712
12321W        W71615   9.856  23.709  13.037
12322W        W71616  20.138  23.135   0.822
12323W        W71617  11.682  38.541   2.838
12324W        W71618  13.351  42.858  13.541
12325W        W71619  17.714  17.648  11.423
12326W        W71620  44.476   9.678   3.247
12327W        W71621  22.153  28.537  14.841
12328W        W71622  33.544   5.874   4.833
12329W        W71623  38.909  38.512   1.804
12330W        W71624  15.241  35.912   3.861
12331W        W71625   6.378  28.030  14.834
12332W        W71626  30.936  35.467   3.727
12333W        W71627  32.524  23.057  13.882
12334W        W71628  42.459  38.507  13.826
12335W        W71629  41.372  23.174   3.332
12336W        W71630  11.817  18.050   2.778
12337W        W71631  15.798  15.183  10.128
12338W        W71632  11.333  37.913   1.780
12339W        W71633   3.383  18.140   1.408
12340W        W71634  26.036   3.246   1.262
12341W        W71635   8.281  23.701   0.964
12342W        W71636  18.234  41.830   2.704
12343W        W71637   6.202   9.241  11.438
12344W        W71638  14.622  21.169   1.694
12345W        W71639  42.781  27.099  11.069
12346W        W71640  26.515  24.221  13.805
12347W        W71641  30.559  31.952   2.831
12348W        W71642  42.889  31.471  13.430
12349W        W71643  40.366  21.743  13.988
12350W        W71644  25.208  12.647   0.366
12351W        W71645  20.250  12.749  13.425
12352W        W71646  37.465  22.172  11.970
12353W        W71647  40.976  13.182   1.887
12354W        W71648   1.443  22.241  10.466
12355W        W71649  11.650  30.445  11.378
12356W        W71650  38.506  43.006  13.546
12357W        W71651   7.867  29.074  11.860
12358W        W71652  37.974  17.656  14.958
12359W        W71653  35.367  39.919   2.751
12360W        W71654   0.779  20.656   3.676
12361W        W71655  39.493  42.884   0.871
12362W        W71656  30.546  21.569  10.507
12363W        W71657  43.495  39.970  11.062
12364W        W71658  32.116  14.144  10.044
12365W        W71659  29.665  42.984   2.316
12366W        W71660  40.967  29.159  13.479
12367W        W71661  30.969  44.754  12.407
12368W        W71662  39.364   8.356  11.517
12369W        W71663   3.755   2.739  13.969
12370W        W71664  24.100  23.711  12.038
12371W        W71665  40.010  29.001   0.881
12372W        W71666  13.306  27.178   1.858
12373W        W71667  33.597  22.114  10.546
12374W        W71668   1.331  40.499  11.410
12375W        W71669   3.822  26.474   4.679
12376W        W71670  35.044  42.986   2.231
12377W        W71671   4.873   0.281  13.920
12378W        W71672   4.878  24.104  10.109
12379W        W71673  33.577   1.808  11.013
12380W        W71674  25.666  40.311  11.895
12381W        W71675   5.852  36.571  12.415
12382W        W71676  31.545  27.029  11.030
12383W        W71677  19.125  30.561   2.401
12384W        W71678  32.046  16.251   4.812
12385W        W71679  16.582   2.841   2.703
12386W        W71680  30.929  33.989  12.526
12387W        W71681  37.429   9.375  11.509
12388W        W71682  15.799   4.367   0.326
12389W        W71683  16.670  25.670   1.844
12390W        W71684  25.494  25.533  13.865
12391W        W71685  24.981  26.044   4.342
12392W        W71686  39.451  17.689  12.072
12393W        W71687   0.834   0.306  11.024
12394W        W71688  29.448  31.459   1.935
12395W        W71689   2.378  14.616   2.295
12396W        W71690  11.749  24.203  11.106
12397W        W71691  32.409  11.811   0.383
12398W        W71692  21.173  29.496  12.950
12399W        W71693  22.544   5.273  13.920
12400W        W71694  43.390  27.100  10.902
12401W        W71695  38.357  24.641   1.264
12402W        W71696   5.887  42.968   2.298
12403W        W71697  21.581   0.464   2.388
12404W        W71698  10.248  32.603  12.974
12405W        W71699  24.031  22.148  12.351
12406W        W71700  33.531  30.957   4.175
12407W        W71701  28.621   8.207  11.406
12408W        W71702  31.540   6.686   3.256
12409W        W71703  36.029  41.026  11.963
12410W        W71704  38.981  11.227   1.892
12411W        W71705   5.368  30.511   4.257
12412W        W71706   4.767  23.168   0.866
12413W        W71707  11.186  33.052   1.331
12414W        W71708  37.475   7.716   9.642
12415W        W71709  18.606   3.377  11.404
12416W        W71710  32.128   7.786  11.940
12417W        W71711  21.096  15.622  13.026
12418W        W71712  20.703   1.897  11.865
12419W        W71713  17.643  43.392   1.224
12420W        W71714  29.030  40.035   4.690
12421W        W71715  41.971  17.220   0.403
12422W        W71716   5.342  12.342   4.194
12423W        W71717  21.511  42.972   0.821
12424W        W71718  12.278  39.320   1.857
12425W        W71719   2.935  42.986  12.507
12426W        W71720  11.130  40.890   0.829
12427W        W71721  28.006  33.549  13.916
12428W        W71722   3.851  26.639   0.323
12429W        W71723  34.523  31.946  10.909
12430W        W71724  43.980   8.752  11.982
12431W        W71725  23.526  30.908  10.449
12432W        W71726   6.266  26.663   1.352
12433W        W71727   0.803  40.931  10.497
12434W        W71728  19.240  34.581  13.824
12435W        W71729   5.806  10.677   0.481
12436W        W71730  16.751  15.599  10.070
12437W        W71731   3.297  38.423   3.660
12438W        W71732  15.785  23.554  13.464
12439W        W71733   6.286  21.208   4.288
12440W        W71734  28.949  42.795   4.157
12441W        W71735  32.966  27.079   2.900
12442W        W71736  17.116  19.687  12.960
12443W        W71737  38.820  27.503   2.345
12444W        W71738  21.664  14.121   3.676
12445W        W71739  44.290  35.562   4.145
12446W        W71740  21.135   8.853   1.322
12447W        W71741   5.888   9.655   2.719
12448W        W71742  12.744  11.730  10.640
12449W        W71743  33.905  27.164  14.424
12450W        W71744  20.755  29.451   4.119
12451W        W71745   7.271  30.601   4.646
12452W        W71746   4.246  22.738   2.711
12453W        W71747  24.041  22.116   3.707
12454W        W71748   9.343   5.794   4.195
12455W        W71749  26.495   0.395   1.255
12456W        W71750  33.979   5.214   1.431
12457W        W71751  13.724  44.978  11.400
12458W        W71752  28.615  12.119  12.566
12459W        W71753  35.508  21.179   1.339
12460W        W71754  32.504  16.217  12.089
12461W        W71755  32.572  36.365   2.883
12462W        W71756  10.767  41.789   0.951
12463W        W71757  41.035  30.027  12.985
12464W        W71758  38.444  20.062   0.347
12465W        W71759  32.060  38.502   1.742
12466W        W71760   1.280   1.897  14.860
12467W        W71761   3.921  26.683   4.131
12468W        W71762  19.676  10.267  11.007
12469W        W71763  44.483   0.887   2.375
12470W        W71764  33.552  42.368   3.196
12471W        W71765  26.497  29.943  11.590
12472W        W71766   2.726   1.760   3.637
12473W        W71767  38.994   1.404  11.971
12474W        W71768  26.519  18.266  10.630
12475W        W71769  22.591  14.611  10.498
12476W        W71770  42.853   7.385   9.925
12477W        W71771  15.214  29.126   0.468
12478W        W71772   6.183  31.553   4.329
12479W        W71773  29.168  39.037  11.521
12480W        W71774  21.664  17.067   1.379
12481W        W71775  12.844  32.935   3.664
12482W        W71776  32.454  41.810   2.286
12483W        W71777  38.959  36.590  12.964
12484W        W71778  13.708  36.351  14.501
12485W        W71779  33.486  19.280   4.253
12486W        W71780  25.103   6.708   0.438
12487W        W71781  17.735  30.105  13.434
12488W        W71782   6.392  44.269  13.461
12489W        W71783   5.699  14.292   2.750
12490W        W71784  18.779   8.327  14.375
12491W        W71785   3.890  20.074  14.386
12492W        W71786  26.013  18.071   1.387
12493W        W71787  13.609  24.486  13.000
12494W        W71788  20.082  22.062   0.266
12495W        W71789  40.443  40.351  11.042
12496W        W71790  19.772  32.587  12.506
12497W        W71791  41.844   1.759   2.809
12498W        W71792   5.194  23.685  11.124
12499W        W71793  18.703  36.354  13.022
12500W        W71794  41.884  41.854  14.461
12501W        W71795  32.423   7.765   2.669
12502W        W71796  37.066   3.392  12.387
12503W        W71797  21.535  21.203   3.720
12504W        W71798  38.386  34.011  12.082
12505W        W71799  28.505  23.581   0.421
12506W        W71800   7.303  15.620  11.572
12507W        W71801  29.092  39.946  11.467
12508W        W71802   1.878  32.608  10.518
12509W        W71803   0.324   0.489   9.971
12510W        W71804  19.121  15.694   2.312
12511W        W71805   9.316  40.417  13.534
12512W        W71806  37.862  43.899   4.354
12513W        W71807   1.275  13.694  12.446
12514W        W71808  25.121   7.356  10.921
12515W        W71809  32.495  44.858  13.362
12516W        W71810  20.107   0.752  10.963
12517W        W71811  28.106  43.280   4.683
12518W        W71812  41.941  29.992  12.870
12519W        W71813  15.149  17.615  14.998
12520W        W71814  11.196  13.782   0.766
12521W        W71815   2.352  11.719   1.786
12522W        W71816  22.178  41.900  11.119
12523W        W71817   0.332  12.287  12.988
12524W        W71818  31.018  19.196  14.939
12525W        W71819  20.612  29.558   3.373
12526W        W71820  30.633  19.778  10.521
12527W        W71821  18.186  19.125  13.887
12528W        W71822  27.582  29.944  14.943
12529W        W71823  31.428  11.242  13.805
12530W        W71824  37.454  31.526  11.435
12531W        W71825  28.571  42.426   2.710
12532W        W71826  39.011  39.449  14.311
12533W        W71827   8.235  43.478   3.321
12534W        W71828  16.094  38.007   4.762
12535W        W71829  42.507  37.518   0.357
12536W        W71830  42.832  30.502  12.511
12537W        W71831  35.071  37.983   2.202
12538W        W71832  29.621  16.744  11.515
12539W        W71833  44.873  44.334   0.752
12540W        W71834  42.285  36.079  13.892
12541W        W71835  12.136  24.082  14.442
12542W        W71836  26.134  24.640  12.426
12543W        W71837  23.224  40.897  11.881
12544W        W71838  41.979  14.165  13.018
12545W        W71839  34.947   3.875   0.325
12546W        W71840   4.887  30.978   3.247
12547W        W71841   0.931  15.202  11.593
12548W        W71842  40.403  32.886  13.377
12549W        W71843  13.650   8.710   0.732
12550W        W71844  11.730   8.298  10.437
12551W        W71845   9.359  24.481  14.808
12552W        W71846  37.953  10.297   1.277
12553W        W71847   6.305  44.912  14.945
12554W        W71848   1.791  38.841   4.656
12555W        W71849  43.430  28.033   3.386
12556W        W71850  20.638  33.562   4.337
12557W        W71851  29.084  25.692   3.803
12558W        W71852  20.118  31.901  11.026
12559W        W71853  33.503  10.358  14.895
12560W        W71854   6.296   1.743  10.005
12561W        W71855   8.775   5.249   3.818
12562W        W71856  32.413   9.740  10.011
12563W        W71857  13.176  23.627   3.196
12564W        W71858  32.088  18.065  13.875
12565W        W71859  39.383  15.126   0.316
12566W        W71860  19.175  20.224   1.330
12567W        W71861   1.866  41.323  13.500
12568W        W71862  20.546  38.360   2.842
12569W        W71863  28.474  40.852  10.493
12570W        W71864  19.142  17.682  12.568
12571W        W71865  17.613   9.349  11.443
12572W        W71866  17.636  33.521   3.817
12573W        W71867  44.879  11.634  11.891
12574W        W71868   1.475  14.310   2.720
12575W        W71869  41.528  13.789  12.346
12576W        W71870  39.028   1.867   1.388
12577W        W71871  34.096  21.716   0.911
12578W        W71872  17.227  26.168   3.334
12579W        W71873  27.622   5.827  11.420
12580W        W71874  41.812  27.132  12.900
12581W        W71875  34.483  43.435  12.080
12582W        W71876   9.848   2.928   4.240
12583W        W71877  35.080  35.861  14.774
12584W        W71878   7.390  37.966   4.306
12585W        W71879   4.706  34.971  14.369
12586W        W71880   8.328  43.021  13.507
12587W        W71881  16.166  44.007  14.923
12588W        W71882  15.181  22.611   0.804
12589W        W71883   0.758  31.546  13.971
12590W        W71884  28.624   0.383   3.238
12591W        W71885   1.418   1.326   2.765
12592W        W71886  43.832  12.211   4.244
12593W        W71887  44.304  18.287  11.494
12594W        W71888  27.004  37.377   3.741
12595W        W71889   0.347  39.549  14.766
12596W        W71890   5.759  34.932   4.278
12597W        W71891   4.911  27.061   5.300
12598W        W71892  40.443   9.249  12.556
12599W        W71893  34.443  29.934   2.722
12600W        W71894   8.382   4.783   4.200
12601W        W71895  43.017  42.829   3.344
12602W        W71896  44.425  29.482  13.441
12603W        W71897   3.228  35.858  14.309
12604W        W71898  37.058  38.979   3.796
12605W        W71899   3.365  30.644  11.936
12606W        W71900  26.043  11.221  14.335
12607W        W71901   9.182  27.091  11.442
12608W        W71902  22.501   9.731   2.298
12609W        W71903  11.700  11.208   3.740
12610W        W71904  10.718  24.156  12.957
12611W        W71905  23.157  39.991  11.881
12612W        W71906  41.348  25.535   3.829
12613W        W71907  11.349  18.110  12.420
12614W        W71908   3.304   7.670  13.869
12615W        W71909   2.234  35.867  12.542
12616W        W71910   0.356  40.501  13.547
12617W        W71911  15.748  32.069   4.628
12618W        W71912  22.674   2.958  14.478
12619W        W71913  44.774  43.793  12.837
12620W        W71914  44.501  18.221   1.734
12621W        W71915   1.419  17.274   0.918
12622W        W71916  29.953   7.308  14.953
12623W        W71917  17.076  34.615   2.901
12624W        W71918  16.140   7.878   4.728
12625W        W71919   7.224  41.517  12.902
12626W        W71920  26.580  13.613  13.983
12627W        W71921  25.019  24.645   1.413
12628W        W71922  14.788  19.565  13.901
12629W        W71923  35.032  21.068   1.234
12630W        W71924  15.106  28.520   1.296
12631W        W71925  28.128  40.491  13.849
12632W        W71926  34.414  28.120   0.303
12633W        W71927   8.896   4.330   1.348
12634W        W71928  31.412  22.129   1.356
12635W        W71929   4.415  23.604   3.806
12636W        W71930  17.142  17.785   3.255
12637W        W71931  34.375  27.564  13.397
12638W        W71932   0.473  44.937   2.196
12639W        W71933  23.081  40.006   0.267
12640W        W71934   2.396  26.652  13.841
12641W        W71935  33.435  41.468   5.284
12642W        W71936  44.987  21.660  12.001
12643W        W71937  20.167   7.723   3.844
12644W        W71938  39.456  24.079  10.545
12645W        W71939   9.299   3.879   0.437
12646W        W71940  14.669  29.139   5.113
12647W        W71941  38.830  43.304  12.852
12648W        W71942  14.702  39.938   4.623
12649W        W71943   4.281  25.565  10.408
12650W        W71944   4.219  42.949  13.807
12651W        W71945  40.026  19.042   2.313
12652W        W71946  37.014   2.797  14.005
12653W        W71947  33.098  25.126   2.811
12654W        W71948  10.247  22.116   1.388
12655W        W71949   2.465   1.428  12.096
12656W        W71950  22.240  31.636  11.452
12657W        W71951  18.714  24.690  14.025
12658W        W71952   6.829  22.072   4.127
12659W        W71953   8.768  34.921   2.895
12660W        W71954  16.718  35.045  14.428
12661W        W71955   0.801   6.415   3.328
12662W        W71956  20.204   9.742  10.573
12663W        W71957  32.587  14.285  14.295
12664W        W71958   7.391  10.647   0.374
12665W        W71959   5.237  38.424  12.896
12666W        W71960   0.838  21.128  13.548
12667W        W71961  30.048  23.514  12.402
12668W        W71962  24.682  12.172   1.886
12669W        W71963  43.838  27.987   3.812
12670W        W71964  42.028  43.798  14.400
12671W        W71965  31.643  33.877  12.444
12672W        W71966   8.387  31.428   3.637
12673W        W71967  15.632   4.712   4.285
12674W        W71968   6.911  19.282  13.342
12675W        W71969  15.647   0.890  10.613
12676W        W71970  27.065  16.635  10.900
12677W        W71971  30.995  26.098   4.208
12678W        W71972   2.875   1.787   2.900
12679W        W71973  41.870  14.620  14.944
12680W        W71974   3.829  36.430   0.295
12681W        W71975   2.785  38.426   3.385
12682W        W71976  34.927  23.083   4.182
12683W        W71977  18.581  43.765  10.995
12684W        W71978  39.443   7.416   2.382
12685W        W71979  12.723  35.100   0.933
12686W        W71980  41.942  26.047   1.236
12687W        W71981  25.530   0.948   0.445
12688W        W71982  42.516   3.822   0.381
12689W        W71983  31.522  12.361   3.635
12690W        W71984   9.766   6.697   2.810
12691W        W71985  25.471  14.204  13.459
12692W        W71986  30.578  30.514  13.416
12693W        W71987  31.563  41.949  12.891
12694W        W71988  19.592  25.696  14.882
12695W        W71989  43.500  16.647   2.879
12696W        W71990   3.722  40.344   0.403
12697W        W71991  42.022  23.005  13.331
12698W        W71992   3.385  41.511  14.907
12699W        W71993  44.271  14.298   3.671
12700W        W71994  33.381  40.880  11.912
12701W        W71995   5.287  43.970  12.518
12702W        W71996  41.888  19.562  11.483
12703W        W71997  44.467   6.698   0.817
12704W        W71998  25.192  39.966  11.443
12705W        W71999   8.726  30.081   9.589
12706W        W72000  18.129   8.160   1.281
12707W        W72001  20.046  41.352  11.439
12708W        W72002  11.141  29.923  10.459
12709W        W72003   1.862   0.416   0.887
12710W        W72004   2.274   2.263  14.990
12711W        W72005   1.917  37.936   4.125
12712W        W72006  36.428  15.175   2.716
12713W        W72007  16.259  20.602  12.552
12714W        W72008   5.219  17.760  14.914
12715W        W72009   9.680  10.338   2.696
12716W        W72010  32.986  27.173  14.834
12717W        W72011  25.045   9.687   3.160
12718W        W72012   1.442  14.767  10.644
12719W        W72013  16.745   5.329   2.223
12720W        W72014  40.370   5.705  14.898
12721W        W72015  16.142  28.557  11.976
12722W        W72016   1.916  26.587   0.937
12723W        W72017  38.839   4.325  13.381
12724W        W72018  18.592   1.779  10.020
12725W        W72019  34.524  36.571  13.478
12726W        W72020  38.525   8.855  10.517
12727W        W72021  14.775  10.231   1.421
12728W        W72022   7.753  33.914   1.360
12729W        W72023  14.756  36.456  10.443
12730W        W72024  40.825  11.650   3.700
12731W        W72025  31.459  35.470   4.804
12732W        W72026  37.514  26.005  14.969
12733W        W72027  37.341  10.718   1.312
12734W        W72028  26.565  32.065  13.330
12735W        W72029  12.225  38.048  11.543
12736W        W72030  10.639  17.645  13.419
12737W        W72031   9.273  25.969  13.313
12738W        W72032  14.160  40.402  13.883
12739W        W72033  17.569   5.899  13.431
12740W        W72034   9.177  41.452   1.226
12741W        W72035  11.255  20.572   0.834
12742W        W72036  33.479   3.301   3.634
12743W        W72037   9.659  19.172  10.160
12744W        W72038   9.845  14.129  10.912
12745W        W72039   6.421  44.390   5.188
12746W        W72040   8.763  29.144  14.285
12747W        W72041  26.581  30.084  14.427
12748W        W72042  17.280  29.158  14.840
12749W        W72043  30.512  21.751   4.347
12750W        W72044  31.410  16.673   4.249
12751W        W72045  42.304  11.832   1.342
12752W        W72046  13.703  18.290   1.830
12753W        W72047  41.458  23.067   4.260
12754W        W72048  26.034  12.245   4.824
12755W        W72049  31.145  37.030   4.323
12756W        W72050  31.942  25.527  11.475
12757W        W72051  43.394  34.378   3.812
12758W        W72052   2.400  28.611  10.968
12759W        W72053  17.627  35.449   0.751
12760W        W72054  41.315  27.173  14.418
12761W        W72055  42.897  28.061  12.833
12762W        W72056  28.468  27.083  10.983
12763W        W72057   0.490  24.638   2.337
12764W        W72058  27.648   5.824   4.675
12765W        W72059  32.412  25.490   0.275
12766W        W72060  25.093  17.183   2.361
12767W        W72061  38.839  31.001  12.088
12768W        W72062  10.705  43.486   3.151
12769W        W72063  17.077  23.733  14.856
12770W        W72064  39.952  42.490  14.399
12771W        W72065   1.842   9.856   3.219
12772W        W72066  26.131  25.181   1.401
12773W        W72067  30.027   2.872   2.743
12774W        W72068   6.765  32.635  14.833
12775W        W72069  10.220  11.330   1.262
12776W        W72070  31.134  20.753  11.114
12777W        W72071  31.990  35.576   1.872
12778W        W72072  19.777  20.576  14.968
12779W        W72073  44.389  44.957   2.291
12780W        W72074  37.355  41.022   3.788
12781W        W72075  10.146  40.472   3.274
12782W        W72076  17.249   0.350   2.391
12783W        W72077  27.623  35.389  11.023
12784W        W72078  18.078  35.896   2.375
12785W        W72079   6.310  43.940  12.426
12786W        W72080   4.287   1.978  13.913
12787W        W72081   7.725  17.641  14.494
12788W        W72082  29.118  26.613   0.367
12789W        W72083  24.599  40.452  11.510
12790W        W72084   0.415  38.340   2.204
12791W        W72085  21.263  18.754  12.830
12792W        W72086  11.289  39.868   1.902
12793W        W72087  21.204  18.200   1.245
12794W        W72088   5.283  41.954   0.850
12795W        W72089   7.299  23.018   0.888
12796W        W72090  25.614  31.514   4.727
12797W        W72091  36.405  30.656   1.296
12798W        W72092   5.743  43.281  10.981
12799W        W72093  33.440   9.286  10.562
12800W        W72094  35.542  24.490   3.379
12801W        W72095  40.959  10.263  11.065
12802W        W72096   8.717  19.276  10.551
12803W        W72097  42.449  44.270  12.453
12804W        W72098  15.752  33.445   0.921
12805W        W72099  24.084  33.965   4.265
12806W        W72100  16.269  17.088  10.563
12807W        W72101  10.337   2.249  13.406
12808W        W72102  17.637  14.147   0.761
12809W        W72103  42.863   3.899   0.929
12810W        W72104  24.996  42.438  11.090
12811W        W72105  26.184  29.607  14.424
12812W        W72106  20.710  24.116   1.890
12813W        W72107  33.893   2.406  14.285
12814W        W72108  25.645  44.819   1.281
12815W        W72109   0.416  24.573   0.771
12816W        W72110  21.594  35.963   0.324
12817W        W72111  16.694  30.532  10.470
12818W        W72112  26.035  43.947  14.001
12819W        W72113  20.232   5.919   2.354
12820W        W72114   5.692  17.214   1.760
12821W        W72115  34.540   0.920  13.874
12822W        W72116  40.803  20.624   4.796
12823W        W72117  42.782  22.610  13.919
12824W        W72118   6.363  10.675   2.800
12825W        W72119  39.863  42.010   3.785
12826W        W72120  33.588   8.389   0.460
12827W        W72121  17.226  37.858  14.290
12828W        W72122  22.621  16.754  12.400
12829W        W72123  17.715   1.857  10.541
12830W        W72124  29.974   4.332   1.410
12831W        W72125  10.707  22.093  13.402
12832W        W72126  36.507  42.341   4.321
12833W        W72127  40.908   6.365  11.074
12834W        W72128  28.445  44.825   0.845
12835W        W72129  13.615   2.746   1.218
12836W        W72130  10.764  23.173  14.920
12837W        W72131  11.360  35.876  11.893
12838W        W72132   8.267   9.183  12.900
12839W        W72133  23.520  20.174   1.903
12840W        W72134  43.321  32.392   3.784
12841W        W72135  21.233  33.578  14.330
12842W        W72136  17.746   0.460   4.827
12843W        W72137   1.401  23.057  11.380
12844W        W72138   0.875  17.183   0.332
12845W        W72139  31.485   0.926   1.908
12846W        W72140   7.861  17.622   4.263
12847W        W72141  37.506  12.798  14.291
12848W        W72142  31.976  36.555  10.643
12849W        W72143  28.972  19.226   1.330
12850W        W72144  14.206  35.866  14.974
12851W        W72145  36.072  19.624   0.730
12852W        W72146  17.226  41.452  10.982
12853W        W72147  43.950  17.571   2.211
12854W        W72148  35.592  14.710  13.913
12855W        W72149   0.860  36.085  12.865
12856W        W72150  10.743  44.894  14.321
12857W        W72151   5.284  41.426   4.756
12858W        W72152  32.998  27.193   3.280
12859W        W72153  11.372   7.277  13.338
12860W        W72154  17.245  32.505  13.796
12861W        W72155  30.154  30.458  14.344
12862W        W72156  33.950  14.751  14.277
12863W        W72157  11.310  20.193  13.317
12864W        W72158   9.812   4.847  10.944
12865W        W72159   7.400   7.700  14.028
12866W        W72160  38.849  19.771  12.869
12867W        W72161   6.398  21.017   4.811
12868W        W72162   6.215  42.410  10.447
12869W        W72163  28.618  18.589  10.636
12870W        W72164   9.339  43.021  12.006
12871W        W72165  38.404  39.315  13.450
12872W        W72166  16.119  14.330   0.414
12873W        W72167  40.054  23.609   3.774
12874W        W72168   6.690  42.840  13.425
12875W        W72169  31.476  37.908  13.974
12876W        W72170   8.189  29.994   5.245
12877W        W72171  14.157  30.072   3.265
12878W        W72172  41.963  30.023  12.478
12879W        W72173  36.876  29.923   0.788
12880W        W72174   6.234  36.067  10.469
12881W        W72175  16.720  37.540   5.320
12882W        W72176  29.980  28.597  14.933
12883W        W72177   8.867  11.820   3.299
12884W        W72178  33.607  31.630   2.308
12885W        W72179   6.373   0.831   3.319
12886W        W72180  24.625  17.063  13.524
12887W        W72181   6.715  41.926  13.797
12888W        W72182  32.020  11.203   3.366
12889W        W72183  38.422   8.834  13.897
12890W        W72184   4.916  35.438   2.831
12891W        W72185  41.994  14.196  14.341
12892W        W72186  28.440  31.081   4.723
12893W        W72187  31.115  31.944   1.287
12894W        W72188   6.856  11.183   4.810
12895W        W72189  23.659  25.685  10.522
12896W        W72190   0.961   2.746  12.984
12897W        W72191  22.125  13.747   0.384
12898W        W72192  26.596  28.680  11.449
12899W        W72193  25.653  14.222  11.860
12900W        W72194  10.828  39.533   2.750
12901W        W72195  13.300  23.133  13.450
12902W        W72196   0.330  18.137   1.726
12903W        W72197   6.285  11.325  13.350
12904W        W72198   9.265   5.926   0.925
12905W        W72199  30.488  43.373  12.944
12906W        W72200  41.901   5.408   1.887
12907W        W72201  19.729  18.632   3.235
12908W        W72202  14.134  37.438   0.801
12909W        W72203  43.813  32.076   4.130
12910W        W72204   9.377  27.010   3.225
12911W        W72205  12.854  29.496   9.479
12912W        W72206  27.020  13.266   3.695
12913W        W72207   0.898  24.653   4.693
12914W        W72208  10.249  39.980  14.322
12915W        W72209  29.010  35.877   1.885
12916W        W72210   9.859   9.700   0.435
12917W        W72211  29.124  22.243   3.294
12918W        W72212  17.099  37.080   1.387
12919W        W72213  30.940  40.053   1.845
12920W        W72214   1.739  21.571  13.370
12921W        W72215  16.093   0.798   0.364
12922W        W72216  19.262  20.693  12.508
12923W        W72217  34.056   3.374   4.303
12924W        W72218  16.308   7.686   3.728
12925W        W72219  34.921   0.488  13.458
12926W        W72220  39.914  25.987   1.858
12927W        W72221  15.619  36.076  14.890
12928W        W72222   5.821  31.005   1.403
12929W        W72223  44.780   0.948   2.758
12930W        W72224  12.641  12.329   0.381
12931W        W72225  32.545  36.916   0.871
12932W        W72226  37.454  32.071   4.631
12933W        W72227   3.737  20.610   5.114
12934W        W72228  29.505  11.363   3.685
12935W        W72229  36.363  42.488   1.912
12936W        W72230  23.152  14.227  10.545
12937W        W72231  43.441  39.464  12.036
12938W        W72232  22.695  40.953  13.419
12939W        W72233   5.277  28.561   2.252
12940W        W72234  33.888  36.530   3.669
12941W        W72235   5.788  15.134   2.405
12942W        W72236  13.756   5.425   4.646
12943W        W72237  36.060   8.673  14.371
12944W        W72238   5.265  31.423   4.719
12945W        W72239  43.463   2.266   1.856
12946W        W72240  17.686   0.807  11.002
12947W        W72241   3.933  43.851   1.698
12948W        W72242  37.903  10.752   4.278
12949W        W72243  36.469  37.909   0.756
12950W        W72244  34.880   1.341  11.955
12951W        W72245  34.867  35.089   2.769
12952W        W72246   4.898  35.572   3.294
12953W        W72247   3.294  21.259  13.946
12954W        W72248  25.009  41.042  14.499
12955W        W72249   5.266  40.962   3.175
12956W        W72250  12.856  36.079   0.730
12957W        W72251  34.898   7.674  12.927
12958W        W72252  39.042  30.527  12.005
12959W        W72253   0.252  17.285   2.843
12960W        W72254   3.239  39.327  12.941
12961W        W72255   1.245  35.909  14.963
12962W        W72256  38.503  32.075  14.909
12963W        W72257  35.578  17.307  11.870
12964W        W72258  29.093  33.061   1.888
12965W        W72259   1.881  31.904  12.851
12966W        W72260  35.092  16.282   4.258
12967W        W72261  16.676   4.917   4.802
12968W        W72262  20.185  43.964  13.952
12969W        W72263   1.371  12.821  12.077
12970W        W72264  13.313  26.608  10.127
12971W        W72265   2.462  35.492   2.371
12972W        W72266   6.365  19.689  11.448
12973W        W72267  35.042  36.587  12.072
12974W        W72268  19.209  15.781  12.362
12975W        W72269  30.150  44.284   2.256
12976W        W72270  41.949   3.435   3.339
12977W        W72271  20.072  39.838   0.305
12978W        W72272  42.923  25.150   2.211
12979W        W72273  31.084  30.463   3.817
12980W        W72274  12.189  32.579   4.286
12981W        W72275   8.174  30.059   3.379
12982W        W72276  20.246  37.489   0.371
12983W        W72277  27.546  13.789  12.419
12984W        W72278  12.768   6.901   4.185
12985W        W72279  31.027  10.336   4.124
12986W        W72280  44.784  37.070   3.732
12987W        W72281  12.135  39.462  13.324
12988W        W72282  34.001   6.289   1.212
12989W        W72283   6.839  42.431  11.445
12990W        W72284  33.982   3.900  14.845
12991W        W72285   3.282  37.889   3.184
12992W        W72286  24.125  44.852  11.916
12993W        W72287  28.158  34.092  13.040
12994W        W72288  31.012   9.689   4.838
12995W        W72289  35.434  36.378  10.907
12996W        W72290  11.867   0.338   2.843
12997W        W72291  25.675  17.615  13.322
12998W        W72292  33.458  12.123  12.914
12999W        W72293   5.228  19.671  10.956
13000W        W72294  13.331   8.876  14.506
13001W        W72295  28.583  35.359  13.799
13002W        W72296  16.188  10.855   4.714
13003W        W72297   8.819  36.401   1.768
13004W        W72298  34.058  11.647  13.993
13005W        W72299  22.675  26.024   0.807
13006W        W72300  21.630  37.973  10.611
13007W        W72301  22.615   6.194   1.246
13008W        W72302  12.628   1.882   4.686
13009W        W72303  38.896  25.588   4.762
13010W        W72304   1.449  32.117   1.366
13011W        W72305  44.355  33.935   0.322
13012W        W72306  29.537  15.780   0.753
13013W        W72307  20.540  41.934  11.122
13014W        W72308  28.524  36.503   4.343
13015W        W72309  11.324  35.366  12.929
13016W        W72310  24.110  14.222  12.527
13017W        W72311  25.180  37.959  13.528
13018W        W72312  18.064  42.282  11.396
13019W        W72313  25.964  29.449   2.222
13020W        W72314   1.853   7.834   3.370
13021W        W72315   9.879  24.699   0.798
13022W        W72316  40.034  10.691  12.941
13023W        W72317  42.518  44.311   2.193
13024W        W72318   0.361  24.644  13.807
13025W        W72319  13.741  33.117   4.119
13026W        W72320  12.843  38.466   0.400
13027W        W72321  11.332   2.393  12.079
13028W        W72322  32.948  35.532   4.718
13029W        W72323  15.324  32.063  10.969
13030W        W72324   4.388  31.484  13.308
13031W        W72325   1.477  24.486  11.413
13032W        W72326  16.708   9.173  14.289
13033W        W72327   8.402  23.197  11.449
13034W        W72328  19.619  12.210  13.460
13035W        W72329  21.643  24.039   0.865
13036W        W72330  38.012  31.526   1.731
13037W        W72331  13.308   8.689   2.888
13038W        W72332  41.872  38.896  14.434
13039W        W72333  20.668   9.213   0.743
13040W        W72334  35.048  12.709  14.933
13041W        W72335   7.219  39.338  11.520
13042W        W72336   8.320  23.619  11.050
13043W        W72337  31.921  32.528  12.915
13044W        W72338  42.898  22.093  10.560
13045W        W72339  20.745   8.204   3.179
13046W        W72340  33.893  32.897   1.439
13047W        W72341  44.465  15.615   3.214
13048W        W72342  33.894  13.704  12.090
13049W        W72343  40.476   8.838   2.851
13050W        W72344  26.954  38.915  13.434
13051W        W72345  13.693  12.236  14.871
13052W        W72346   6.837  10.872   2.662
13053W        W72347  19.687  18.192   9.610
13054W        W72348  14.634  37.343  12.942
13055W        W72349  42.292  28.581   2.858
13056W        W72350  23.649  16.587   1.744
13057W        W72351  10.323   0.402  11.474
13058W        W72352  41.879   4.838  14.805
13059W        W72353   9.711  25.087  12.986
13060W        W72354  32.470  42.839   4.194
13061W        W72355   4.224  31.630  12.430
13062W        W72356  18.583  24.671   3.233
13063W        W72357  10.233  20.120   4.145
13064W        W72358  33.448   2.349   4.322
13065W        W72359  27.473  18.138  11.126
13066W        W72360  12.816  33.452   9.466
13067W        W72361  22.525  16.205   1.287
13068W        W72362  25.548   4.825  11.497
13069W        W72363   4.719  18.611   3.862
13070W        W72364   4.890   9.873   2.787
13071W        W72365  24.712  12.744   0.817
13072W        W72366  17.648   3.921   1.907
13073W        W72367  41.787  35.852   3.796
13074W        W72368  14.630  39.042  12.568
13075W        W72369   8.659  20.163   4.284
13076W        W72370  28.594  36.506   1.775
13077W        W72371   5.195  31.597  13.349
13078W        W72372  13.236  15.768  12.866
13079W        W72373  10.153  31.914  12.483
13080W        W72374  40.365   9.808  12.000
13081W        W72375  19.243  43.438  14.938
13082W        W72376  12.198  18.587   3.727
13083W        W72377  10.169  20.755   0.256
13084W        W72378   5.701  29.465   0.957
13085W        W72379   4.724  42.016   0.268
13086W        W72380  40.810  43.270  10.894
13087W        W72381  22.710   7.310  11.061
13088W        W72382  43.333  22.719   0.455
13089W        W72383   4.374   5.229   0.374
13090W        W72384  33.391  19.167   1.837
13091W        W72385  11.684  11.240  12.365
13092W        W72386  19.641  30.048  14.884
13093W        W72387  40.513  37.919   3.189
13094W        W72388  24.173  19.190  13.456
13095W        W72389   9.387   0.485   3.274
13096W        W72390   0.453  31.905   3.713
13097W        W72391  15.177  38.446   4.658
13098W        W72392   1.454  31.555   0.961
13099W        W72393  15.629  44.504  12.366
13100W        W72394  39.476  36.459   3.238
13101W        W72395   6.764  10.274   0.920
13102W        W72396  39.879  33.386  14.454
13103W        W72397   5.412  10.294   2.300
13104W        W72398   9.829  40.023   3.800
13105W        W72399  11.351  43.437   2.349
13106W        W72400  40.323  18.639  11.919
13107W        W72401  38.387  11.127   3.354
13108W        W72402  26.189  38.340   0.324
13109W        W72403  38.471  14.754   3.146
13110W        W72404  43.988  27.143  14.020
13111W        W72405  37.934  31.038  14.871
13112W        W72406  36.911  37.877  13.993
13113W        W72407   4.758  12.220  12.057
13114W        W72408  27.661  38.412   9.449
13115W        W72409  27.642  29.603  12.092
13116W        W72410  28.526  38.431  10.949
13117W        W72411  27.160  33.516  14.960
13118W        W72412  20.124   5.271   2.276
13119W        W72413  39.870  31.504  10.956
13120W        W72414  18.545  10.668  12.832
13121W        W72415   3.774  12.631  12.342
13122W        W72416   8.670  30.054  11.484
13123W        W72417  27.644  24.063  10.978
13124W        W72418  15.662   4.759   1.739
13125W        W72419  29.018  23.601  11.118
13126W        W72420  10.863   0.964  10.131
13127W        W72421  21.243  43.313  14.869
13128W        W72422  38.461   0.773   4.724
13129W        W72423  18.278  22.646  12.553
13130W        W72424  35.399  44.937  14.933
13131W        W72425   3.903  41.028   3.217
13132W        W72426  23.085  34.397  14.508
13133W        W72427  43.312  42.485   5.667
13134W        W72428  34.413  22.617  13.470
13135W        W72429  24.029  14.741   0.448
13136W        W72430  40.451  22.093   4.735
13137W        W72431  40.826  24.607   3.327
13138W        W72432  37.346  31.427  13.824
13139W        W72433   8.251  40.540  12.375
13140W        W72434  30.041  41.470   3.386
13141W        W72435  31.010  13.129  10.607
13142W        W72436   2.831   8.315   1.271
13143W        W72437  42.952  31.610   3.334
13144W        W72438  15.147  35.902   2.801
13145W        W72439   2.308  29.640   4.188
13146W        W72440  13.679   3.734  10.489
13147W        W72441  10.306  25.062  10.537
13148W        W72442  39.401  40.530  14.485
13149W        W72443  25.217  39.472  12.851
13150W        W72444   1.239  27.964  11.011
13151W        W72445   6.865  16.106   4.169
13152W        W72446  29.467  14.816  10.515
13153W        W72447  26.106  11.299  14.940
13154W        W72448   3.298  29.114  11.559
13155W        W72449  33.127  33.558   3.853
13156W        W72450   2.277  20.203  14.418
13157W        W72451  21.152  20.179   0.372
13158W        W72452  18.769  17.121   4.352
13159W        W72453  22.572   7.408   0.383
13160W        W72454   2.868  18.187   1.360
13161W        W72455   5.241  43.991  13.882
13162W        W72456  20.525  35.598  14.461
13163W        W72457  13.793   5.861  11.427
13164W        W72458  36.099   0.742   4.651
13165W        W72459  35.401   7.288   0.846
13166W        W72460  36.973   7.713   1.765
13167W        W72461  38.864  38.338  12.836
13168W        W72462  15.087  38.462   0.275
13169W        W72463  36.946  26.064  10.948
13170W        W72464  41.921   0.398   2.814
13171W        W72465   4.782  42.823  12.435
13172W        W72466  20.709  22.512   2.835
13173W        W72467  21.684  29.039  13.318
13174W        W72468  38.851   6.876   1.230
13175W        W72469  38.996  10.300  13.434
13176W        W72470  15.797   8.713  14.298
13177W        W72471  17.269  16.106   3.838
13178W        W72472  20.711  25.587   4.186
13179W        W72473  41.025   5.204  11.593
13180W        W72474  35.868   6.198  13.850
13181W        W72475  28.569  35.559   1.915
13182W        W72476  40.010  22.143   3.781
13183W        W72477  10.684   5.823  12.348
13184W        W72478  36.994  17.646  11.084
13185W        W72479  38.864  39.519   4.713
13186W        W72480  38.905   1.385  11.561
13187W        W72481  36.003  37.456  14.924
13188W        W72482  44.800  22.743  13.332
13189W        W72483  15.712  15.583   0.301
13190W        W72484  28.171  34.553   4.768
13191W        W72485  28.495  26.665  14.316
13192W        W72486  34.376  39.338  14.939
13193W        W72487  42.907  38.466  13.506
13194W        W72488  31.990  39.901   5.212
13195W        W72489  40.465  30.492   3.156
13196W        W72490  11.795  43.342   0.859
13197W        W72491   6.374  17.258   3.674
13198W        W72492   6.710   3.330   3.646
13199W        W72493  10.721  26.674   0.919
13200W        W72494  31.516  14.650   2.711
13201W        W72495  37.566  41.430   1.335
13202W        W72496  22.135  24.101   2.346
13203W        W72497  35.425   3.954  14.288
13204W        W72498   8.184  35.954   4.354
13205W        W72499  38.036   4.375  13.447
13206W        W72500  41.820   6.745   0.869
13207W        W72501  41.945   6.210   1.294
13208W        W72502  44.855  38.519  11.979
13209W        W72503  24.040  37.500   2.772
13210W        W72504  15.275   9.717   2.894
13211W        W72505   5.240  29.539   3.207
13212W        W72506  30.039  43.307   5.119
13213W        W72507  33.039  16.099  12.042
13214W        W72508   5.798  11.325  11.578
13215W        W72509  12.654  28.558   0.738
13216W        W72510  42.010  41.325   5.162
13217W        W72511  37.852   3.414   1.269
13218W        W72512  20.562   7.258   0.937
13219W        W72513   0.789   8.655   0.815
13220W        W72514  25.147  20.030  14.412
13221W        W72515  41.405  17.106  11.375
13222W        W72516  25.114  12.354  14.886
13223W        W72517  33.493  21.591  10.608
13224W        W72518  37.075  25.510   4.696
13225W        W72519   6.916  37.875  12.893
13226W        W72520  29.601   3.877   4.276
13227W        W72521  19.112  29.520   4.350
13228W        W72522  19.713  31.514   4.677
13229W        W72523  39.417  24.596  14.850
13230W        W72524  23.105  12.702  11.438
13231W        W72525  40.819  19.765  11.513
13232W        W72526  25.589   3.711  13.039
13233W        W72527  23.051  38.948  11.547
13234W        W72528  19.700  36.401  13.507
13235W        W72529  35.524   2.918   3.774
13236W        W72530   3.793  32.051  12.495
13237W        W72531   9.861  20.632   3.774
13238W        W72532  11.792   6.723   2.835
13239W        W72533  27.190   2.804   2.684
13240W        W72534  34.483  27.483  12.871
13241W        W72535  41.452  30.996   2.297
13242W        W72536   6.401  19.757  10.908
13243W        W72537  44.831  11.837  10.634
13244W        W72538  40.460  10.322   3.306
13245W        W72539  13.202  37.567  12.851
13246W        W72540  23.174  39.320   0.408
13247W        W72541  38.381  30.425  13.350
13248W        W72542  18.225   6.737  13.514
13249W        W72543  44.260   3.766  14.017
13250W        W72544   0.319   8.867   0.908
13251W        W72545  32.073  12.333   2.310
13252W        W72546  32.903  17.189   2.383
13253W        W72547  23.234  16.733  12.435
13254W        W72548  27.189  13.235   4.303
13255W        W72549  31.437  12.673  11.603
13256W        W72550  21.609   1.783   0.411
13257W        W72551  35.479  35.068   5.125
13258W        W72552  38.933  34.866   1.727
13259W        W72553  36.959  36.568  13.336
13260W        W72554  29.643  26.196  11.561
13261W        W72555  18.724  25.993   3.380
13262W        W72556  33.041  22.091   1.278
13263W        W72557  15.304  43.860   3.213
13264W        W72558  22.664   0.488   4.649
13265W        W72559  13.795  25.119  12.877
13266W        W72560   5.717  38.344  14.482
13267W        W72561   4.294  16.712  14.878
13268W        W72562  32.928   8.358   0.397
13269W        W72563  14.183  38.991  11.864
13270W        W72564  33.580  23.654  10.523
13271W        W72565  38.862   3.418  13.794
13272W        W72566   4.396  14.804  13.425
13273W        W72567   2.471   1.944  13.361
13274W        W72568   9.150  19.047  14.367
13275W        W72569  24.984  37.438  13.849
13276W        W72570  43.366  16.657  12.574
13277W        W72571   3.264  20.614   3.755
13278W        W72572  41.029  32.118  12.052
13279W        W72573  18.084  30.121  12.069
13280W        W72574  17.180   2.726   2.324
13281W        W72575   6.379  38.561   2.790
13282W        W72576  37.897  12.615  11.993
13283W        W72577  14.334  11.267  14.010
13284W        W72578  43.987  33.553  13.810
13285W        W72579  20.056  36.025  13.940
13286W        W72580   5.197   4.439  11.596
13287W        W72581   9.713  18.108   0.727
13288W        W72582  24.678  39.949  13.941
13289W        W72583  43.481  16.642   3.253
13290W        W72584  39.488  16.692   2.366
13291W        W72585  26.065  36.029  10.533
13292W        W72586  28.039  11.169  14.488
13293W        W72587  21.187  24.009   1.227
13294W        W72588  17.168   7.328   2.297
13295W        W72589  39.506  26.079   1.298
13296W        W72590  38.937  17.248   5.289
13297W        W72591  40.359  16.778   1.221
13298W        W72592  22.206  29.087   3.231
13299W        W72593   6.209  10.849   0.930
13300W        W72594  22.611  36.091   5.299
13301W        W72595  33.484  40.030  14.975
13302W        W72596  21.195  16.242   1.228
13303W        W72597  12.357  13.323  13.344
13304W        W72598   9.366   4.355   3.234
13305W        W72599  18.599  13.709  14.471
13306W        W72600  37.547  38.886   2.700
13307W        W72601   9.797  29.477   0.961
13308W        W72602   3.422  40.340  11.063
13309W        W72603  18.232   4.403   3.304
13310W        W72604  44.815  30.969  10.467
13311W        W72605   8.269   5.325  12.030
13312W        W72606   6.859  18.246  10.145
13313W        W72607   4.945  10.863  11.861
13314W        W72608  29.529   6.309  14.893
13315W        W72609   5.296  14.661  12.056
13316W        W72610   4.271  42.911  11.454
13317W        W72611  30.593   0.979   4.201
13318W        W72612  25.977  18.705   2.234
13319W        W72613  30.925  15.092   0.933
13320W        W72614   6.822  19.711   1.272
13321W        W72615  19.150  23.139  11.918
13322W        W72616  22.220  31.099   4.329
13323W        W72617  17.597  14.144   0.279
13324W        W72618  17.091  34.573  10.619
13325W        W72619  29.522  32.052  14.334
13326W        W72620  19.747  36.891   3.660
13327W        W72621  38.346  27.630  11.880
13328W        W72622  25.167   9.316   2.412
13329W        W72623  19.088  14.285   1.218
13330W        W72624  36.534   7.262  11.883
13331W        W72625  18.767  29.596   1.825
13332W        W72626  39.858  16.240   3.188
13333W        W72627  43.806  18.246   2.218
13334W        W72628   5.273  43.794   0.424
13335W        W72629   5.330  15.591  10.143
13336W        W72630  31.027  38.502   0.932
13337W        W72631  44.261   2.916   4.692
13338W        W72632  10.240   8.854  10.007
13339W        W72633  20.228  10.223   1.803
13340W        W72634  36.411  44.824  14.819
13341W        W72635   7.399   5.775   4.270
13342W        W72636  16.645  16.639  10.890
13343W        W72637   3.220  22.701  13.370
13344W        W72638  31.998  25.997   1.325
13345W        W72639  42.395  40.883  13.315
13346W        W72640  28.125   0.418  13.950
13347W        W72641   3.253   1.804   4.263
13348W        W72642  30.499  26.098   3.255
13349W        W72643  14.645  19.748  14.905
13350W        W72644  25.985  18.657   4.782
13351W        W72645  32.491  26.566   3.652
13352W        W72646  27.509   8.402   0.457
13353W        W72647  29.439  39.885  12.016
13354W        W72648  31.949  39.918   1.794
13355W        W72649  16.770  24.010   1.864
13356W        W72650  20.173  14.173  13.031
13357W        W72651  35.050  38.912  12.092
13358W        W72652  11.864  27.632   2.708
13359W        W72653  25.174  35.104   1.748
13360W        W72654  20.143  41.843  11.018
13361W        W72655  38.858   3.333  14.428
13362W        W72656  41.447  32.958  13.893
13363W        W72657  13.268  26.022  14.006
13364W        W72658   6.293  39.353   3.752
13365W        W72659   7.350   1.373  13.409
13366W        W72660   1.330  35.514   0.297
13367W        W72661   8.791   2.321   2.752
13368W        W72662  38.902  24.493   0.919
13369W        W72663  19.543   3.415   3.717
13370W        W72664  29.099  34.085   2.216
13371W        W72665  31.572  11.283  13.516
13372W        W72666  38.505  39.354  12.551
13373W        W72667   8.783  16.738  11.595
13374W        W72668   3.273  26.674  12.017
13375W        W72669   1.421  20.599   0.476
13376W        W72670  13.615   6.205   1.787
13377W        W72671  33.455   3.247  12.399
13378W        W72672  14.275   9.786   3.145
13379W        W72673  34.886  34.388  12.974
13380W        W72674  33.528   7.417  11.909
13381W        W72675  14.151  42.016  12.500
13382W        W72676  19.246  24.126   4.612
13383W        W72677  26.524  17.616  13.841
13384W        W72678  41.002   3.790  12.374
13385W        W72679  12.220  33.402   3.192
13386W        W72680  12.624  17.170  14.808
13387W        W72681   2.837  40.494  10.908
13388W        W72682  22.158  33.067  11.925
13389W        W72683  13.206   2.341  10.974
13390W        W72684  43.962   2.762   9.575
13391W        W72685  42.401   7.203  10.494
13392W        W72686  16.760   7.765  13.968
13393W        W72687  31.487   9.201   2.695
13394W        W72688  32.980   3.826   1.924
13395W        W72689   7.174   7.715  12.978
13396W        W72690  18.781  28.176   5.318
13397W        W72691  33.929  32.395   2.666
13398W        W72692  32.509  21.607   0.810
13399W        W72693  42.303  36.593   0.450
13400W        W72694  16.637   8.302   0.359
13401W        W72695  37.548  39.003  12.412
13402W        W72696   1.754  21.571   0.245
13403W        W72697  25.121   3.942   2.844
13404W        W72698  27.602   2.791   4.666
13405W        W72699   7.303  10.685   4.789
13406W        W72700  35.601  40.506   4.693
13407W        W72701   9.717  35.106  11.386
13408W        W72702  13.156  15.723   1.827
13409W        W72703  23.994   7.710   1.351
13410W        W72704  27.128  36.909   3.709
13411W        W72705  11.677  26.972   4.751
13412W        W72706  22.027  28.117   0.307
13413W        W72707  42.860  11.749   2.789
13414W        W72708   1.856  35.062  14.422
13415W        W72709  20.052   3.942   2.742
13416W        W72710  18.112  20.606   1.809
13417W        W72711  39.370  11.843   0.932
13418W        W72712  29.627  42.016   4.198
13419W        W72713  35.391   5.791  12.478
13420W        W72714  22.691  17.735  11.426
13421W        W72715   7.879   3.827   2.901
13422W        W72716  20.763  42.476  13.012
13423W        W72717  17.213  38.073   0.364
13424W        W72718  41.472  41.424   1.433
13425W        W72719  12.733  37.069   2.790
13426W        W72720  20.097  32.049   1.920
13427W        W72721  39.444  16.278  14.914
13428W        W72722  14.833  18.071  11.473
13429W        W72723  31.970  40.410   3.227
13430W        W72724  25.132  37.504   0.747
13431W        W72725   8.386   5.422  13.497
13432W        W72726  35.945  41.408  10.428
13433W        W72727   7.396   4.279  12.481
13434W        W72728  20.593  39.506   3.683
13435W        W72729  37.839   0.819  11.572
13436W        W72730  40.402  33.517  11.537
13437W        W72731   4.393  26.516   1.297
13438W        W72732  20.762  22.189  12.474
13439W        W72733   1.796  37.454  11.111
13440W        W72734   3.216  27.608   1.444
13441W        W72735  23.595  31.975   3.766
13442W        W72736  42.952  26.677   5.205
13443W        W72737  21.513  30.051  10.941
13444W        W72738  16.188  37.879  11.544
13445W        W72739  13.190  24.694  11.397
13446W        W72740  42.336  15.140  12.893
13447W        W72741  39.557  11.155   2.734
13448W        W72742  37.864  18.151  11.869
13449W        W72743  44.894   7.277   1.215
13450W        W72744   7.267   9.266   0.934
13451W        W72745  11.283  41.309  11.446
13452W        W72746   4.343  20.612  12.426
13453W        W72747   8.855   7.379  14.760
13454W        W72748   7.281  28.524   3.195
13455W        W72749  19.753  16.752   1.445
13456W        W72750  16.120   2.930  11.465
13457W        W72751   0.402  26.035  12.088
13458W        W72752   0.477   7.762   1.879
13459W        W72753   8.661   7.287  13.845
13460W        W72754   2.881  34.107   1.333
13461W        W72755   7.311  36.951   0.897
13462W        W72756  25.558  40.404   1.898
13463W        W72757  39.928  13.843   1.800
13464W        W72758  22.047  23.114   0.823
13465W        W72759  41.485  24.648   0.873
13466W        W72760  29.588   6.312  13.021
13467W        W72761  11.685  42.519   0.958
13468W        W72762  29.571  16.647   2.343
13469W        W72763  26.463  25.008  14.015
13470W        W72764  21.627  23.091   4.294
13471W        W72765  21.745  34.888   4.267
13472W        W72766   2.812  36.396  11.406
13473W        W72767  39.809  42.518  14.780
13474W        W72768  19.113  37.946   0.726
13475W        W72769  39.822   0.467  13.542
13476W        W72770  34.866  16.233  11.994
13477W        W72771   8.223  44.933  12.929
13478W        W72772  25.555  39.929  11.059
13479W        W72773  12.141   9.847  10.429
13480W        W72774   1.240   2.232   4.164
13481W        W72775  20.585  39.433   0.326
13482W        W72776  17.182  28.107  13.021
13483W        W72777  40.334   0.273   0.385
13484W        W72778  22.201  28.625   2.356
13485W        W72779  41.012  11.801  13.469
13486W        W72780  43.371  44.991   4.822
13487W        W72781  30.595   8.667   5.230
13488W        W72782  17.232   7.324  13.462
13489W        W72783   7.225  32.120  11.899
13490W        W72784  16.219   9.168   5.306
13491W        W72785  36.498  41.789  10.974
13492W        W72786  23.005   0.464  13.868
13493W        W72787  25.545  34.977  11.869
13494W        W72788   6.862  31.918   2.215
13495W        W72789   2.739  22.015   2.415
13496W        W72790  35.892  36.360   1.402
13497W        W72791  40.545   9.673  13.844
13498W        W72792  23.708  10.858  10.511
13499W        W72793  42.433   8.160   1.840
13500W        W72794  11.267  22.209  13.009
13501W        W72795  14.306  28.051  12.498
13502W        W72796  10.692  22.012   4.242
13503W        W72797  27.056  40.450   3.779
13504W        W72798   0.463  34.020   3.270
13505W        W72799  36.849  14.775  11.863
13506W        W72800  10.682  29.647  12.882
13507W        W72801  44.315  38.877   3.188
13508W        W72802  41.530  19.112   2.417
13509W        W72803  36.903   5.345   0.881
13510W        W72804   5.910  24.034  11.514
13511W        W72805  15.242   2.829   2.897
13512W        W72806  37.492  43.331   3.234
13513W        W72807  42.903   6.764   3.703
13514W        W72808  26.543  26.589  14.767
13515W        W72809  39.918  21.607  10.407
13516W        W72810  37.866  39.331  14.980
13517W        W72811  35.980   9.222   1.792
13518W        W72812   1.769  31.487   3.750
13519W        W72813  20.206  44.803   1.807
13520W        W72814  33.588   4.322   2.380
13521W        W72815  17.104  13.330   0.835
13522W        W72816  15.190  28.043  11.997
13523W        W72817  21.167  41.843  14.786
13524W        W72818   0.449  16.236  11.375
13525W        W72819  29.013  26.988  14.883
13526W        W72820  42.861   9.215   0.899
13527W        W72821  34.595  27.679   2.250
13528W        W72822  38.894   6.828  10.157
13529W        W72823  19.267   0.453  13.832
13530W        W72824   0.807  14.237  13.547
13531W        W72825  37.999   2.404   1.301
13532W        W72826  11.268   8.890   3.802
13533W        W72827  36.001   1.857   4.284
13534W        W72828  44.499  16.690  14.017
13535W        W72829  38.350  37.376  12.576
13536W        W72830  39.886   5.393  12.456
13537W        W72831  19.717  32.908  10.908
13538W        W72832   6.848  33.618  14.839
13539W        W72833  21.059  26.029   2.253
13540W        W72834  27.646  40.943   2.384
13541W        W72835  34.445  14.793   1.734
13542W        W72836  17.229  16.289   3.163
13543W        W72837  32.011   0.294  12.876
13544W        W72838  29.668  33.530   1.931
13545W        W72839  16.157  38.530  11.979
13546W        W72840   2.965  30.582   3.686
13547W        W72841  13.107  33.591   3.839
13548W        W72842  23.492  40.535  10.514
13549W        W72843   0.467   3.719  14.887
13550W        W72844  30.956  27.659   2.862
13551W        W72845  36.088   2.728  12.059
13552W        W72846  19.057  34.874   1.389
13553W        W72847  36.948  36.913  12.516
13554W        W72848   0.938   4.438  11.091
13555W        W72849  24.051   9.865  10.586
13556W        W72850  28.602   5.284   0.893
13557W        W72851   3.257  10.801  14.338
13558W        W72852  43.778   8.821  10.974
13559W        W72853  17.780  17.291  12.917
13560W        W72854  26.565   5.266  12.857
13561W        W72855   8.673  22.558  12.433
13562W        W72856  30.068  20.550   1.245
13563W        W72857  17.774  24.568   1.287
13564W        W72858  41.321   9.864  10.483
13565W        W72859   2.250  11.681   4.820
13566W        W72860  40.854  37.545   4.760
13567W        W72861  13.156  21.750   4.185
13568W        W72862  14.619   9.743   4.251
13569W        W72863  14.101   2.357  14.440
13570W        W72864  30.513  10.297   0.940
13571W        W72865  17.185  11.295  13.898
13572W        W72866  17.689  11.712   9.664
13573W        W72867  21.255  15.261  14.983
13574W        W72868  34.967  24.177  13.409
13575W        W72869  25.035   8.188  12.548
13576W        W72870  43.497  34.405   0.944
13577W        W72871  10.675  37.897  10.972
13578W        W72872  43.941  35.061  12.833
13579W        W72873   6.258  14.771  13.894
13580W        W72874  43.430  22.073   4.607
13581W        W72875  34.479  16.249  14.000
13582W        W72876  40.328  21.134   2.419
13583W        W72877  27.132  33.437   1.803
13584W        W72878  35.858   7.345   2.714
13585W        W72879  30.467  11.730  10.619
13586W        W72880  22.570  39.020   4.734
13587W        W72881  16.669   6.285   4.649
13588W        W72882  43.808  15.795  10.510
13589W        W72883   1.863   7.400   0.916
13590W        W72884  35.964  17.660   1.899
13591W        W72885  26.059   6.823  12.460
13592W        W72886  28.500   3.370  12.000
13593W        W72887  27.485  22.151  11.925
13594W        W72888  20.668  29.053   0.850
13595W        W72889  37.472  15.124  14.920
13596W        W72890  32.419  18.080  13.376
13597W        W72891  15.606  35.364   4.820
13598W        W72892  21.043  31.056  11.610
13599W        W72893  10.754  44.780  12.345
13600W        W72894  41.961  43.859   4.243
13601W        W72895  40.315  12.663   4.125
13602W        W72896  35.097  12.734   4.661
13603W        W72897   2.928   6.334  11.910
13604W        W72898  38.067  44.296  11.948
13605W        W72899  33.465  14.326   0.801
13606W        W72900  40.515   2.307  11.043
13607W        W72901   3.898   1.859   9.922
13608W        W72902   6.737  19.724   1.723
13609W        W72903  22.594   1.766   0.965
13610W        W72904  10.362  38.563  10.120
13611W        W72905  36.064  14.798  13.795
13612W        W72906  33.060  13.140  13.429
13613W        W72907   7.399  31.645   3.840
13614W        W72908   2.400  43.768  12.948
13615W        W72909  12.156   9.773  14.967
13616W        W72910  43.782  43.940   2.808
13617W        W72911  23.620  12.162   4.115
13618W        W72912  25.127  19.267  12.428
13619W        W72913   1.804   8.353  14.836
13620W        W72914  13.277   0.927  14.331
13621W        W72915   6.693  31.405   0.409
13622W        W72916  26.490  37.014  11.876
13623W        W72917  28.152  29.512   4.641
13624W        W72918  19.583  19.540   0.872
13625W        W72919  40.477   8.377  10.424
13626W        W72920   6.264  42.893   2.272
13627W        W72921  26.665  41.821   3.737
13628W        W72922  41.374  21.665   4.124
13629W        W72923  32.617   7.871  10.638
13630W        W72924  44.804  20.523  13.462
13631W        W72925  38.446  41.989   1.296
13632W        W72926  10.289  19.069  11.560
13633W        W72927  14.808  28.559  14.327
13634W        W72928   8.715   9.347   4.189
13635W        W72929  29.629   4.753  14.331
13636W        W72930  23.219  36.973  11.612
13637W        W72931  22.504  37.839   3.764
13638W        W72932  29.525  35.534  11.428
13639W        W72933   5.370   7.293  14.878
13640W        W72934  35.937  39.937  12.911
13641W        W72935  25.102   1.250   3.202
13642W        W72936   5.239  11.150  14.785
13643W        W72937  27.000  14.112   5.284
13644W        W72938  27.087   8.271   0.301
13645W        W72939  26.137  25.669  14.870
13646W        W72940  28.083  44.811   2.870
13647W        W72941  20.050  10.239  14.422
13648W        W72942  42.304  17.720  14.306
13649W        W72943  41.787  36.455  14.353
13650W        W72944  36.870  42.419  14.396
13651W        W72945  23.021  34.526  10.546
13652W        W72946  41.531  13.695  14.893
13653W        W72947  10.683  12.789  11.054
13654W        W72948  35.066  28.001   3.665
13655W        W72949  12.639  13.662   1.741
13656W        W72950  29.995  35.505   0.762
13657W        W72951  33.091   8.655  12.942
13658W        W72952  13.732  33.060   0.837
13659W        W72953   0.750  22.514   2.871
13660W        W72954  40.352  43.784  12.554
13661W        W72955  24.684  28.049   1.846
13662W        W72956  18.747  26.585   2.237
13663W        W72957  19.713   0.816  14.869
13664W        W72958   5.300  33.490   3.715
13665W        W72959  40.313  39.861  11.580
13666W        W72960  40.928  16.156  11.584
13667W        W72961   1.310  37.871  10.506
13668W        W72962   3.931  19.723  14.759
13669W        W72963  11.707  44.895  11.975
13670W        W72964  20.581   8.296  13.871
13671W        W72965   5.246  39.398   0.272
13672W        W72966  13.674  16.636  14.288
13673W        W72967  37.031  15.303  12.433
13674W        W72968   9.315  27.944  14.445
13675W        W72969  42.418  13.235   1.831
13676W        W72970  30.998  20.647  14.383
13677W        W72971  44.317  27.006   2.848
13678W        W72972  17.241  25.010  14.368
13679W        W72973  24.699  10.162   4.815
13680W        W72974  43.494  43.401  11.563
13681W        W72975  22.209  15.741   0.373
13682W        W72976  44.345  24.504  10.924
13683W        W72977   8.184   8.199  10.985
13684W        W72978  32.592   1.756  12.016
13685W        W72979   0.272  26.965   4.786
13686W        W72980  26.027   3.903  11.608
13687W        W72981  39.366  38.525  13.014
13688W        W72982   6.250   5.301  12.394
13689W        W72983  20.076  15.226   1.419
13690W        W72984  42.500  33.994   4.223
13691W        W72985  42.426  35.562  11.968
13692W        W72986  25.128   7.753   1.721
13693W        W72987  12.238  11.633  11.877
13694W        W72988  12.617  34.549   4.784
13695W        W72989  16.180  25.077  13.327
13696W        W72990  35.934  12.352   0.896
13697W        W72991   9.650  34.569  13.058
13698W        W72992  26.000  15.790   1.365
13699W        W72993  13.680  40.368  12.849
13700W        W72994  32.420  22.730  13.441
13701W        W72995  20.765  31.128   3.219
13702W        W72996  36.468   6.917   1.798
13703W        W72997  34.951   3.866  11.061
13704W        W72998  19.120   7.287   2.732
13705W        W72999  40.923  26.602   3.177
13706W        W73000  38.501  24.478  13.886
13707W        W73001  14.161  27.622  11.562
13708W        W73002  15.823  20.076   0.268
13709W        W73003  40.327  34.012  12.909
13710W        W73004  36.090  27.175   2.877
13711W        W73005  19.224  11.747   0.802
13712W        W73006  18.602   2.951   2.264
13713W        W73007   5.750  18.544   2.358
13714W        W73008  16.806  21.201   1.355
13715W        W73009  20.239  25.175  11.090
13716W        W73010  11.136  27.617   0.428
13717W        W73011  44.891  40.394   2.401
13718W        W73012  40.513   6.256  10.921
13719W        W73013   3.937  36.898   4.643
13720W        W73014   0.287  38.911   1.725
13721W        W73015  20.160  26.574   5.249
13722W        W73016   4.845  12.119  13.850
13723W        W73017   5.814   8.393   1.738
13724W        W73018   4.910  12.746   2.188
13725W        W73019  16.152  31.965   2.377
13726W        W73020  17.211  37.529  14.292
13727W        W73021  29.467  21.207  12.340
13728W        W73022   9.256  22.066   2.727
13729W        W73023  28.636   5.311   0.367
13730W        W73024  33.999  29.919  10.409
13731W        W73025  18.128  39.903  11.121
13732W        W73026  15.599  42.004  11.571
13733W        W73027  36.424  35.567   3.820
13734W        W73028   8.835   7.746  10.421
13735W        W73029   8.815  11.786   0.745
13736W        W73030  32.989  20.581  11.904
13737W        W73031   0.870   4.272   0.384
13738W        W73032  32.935   0.958  11.572
13739W        W73033  42.403  35.093  11.964
13740W        W73034  38.451  27.944   3.846
13741W        W73035  18.203  16.156  11.046
13742W        W73036  18.074   8.753   1.708
13743W        W73037  33.073  36.067  13.877
13744W        W73038  34.951   0.855   4.301
13745W        W73039   3.793   1.791   3.763
13746W        W73040  34.388  21.164  13.372
13747W        W73041  21.203  43.441   0.467
13748W        W73042  24.119   7.310  10.609
13749W        W73043  11.763   8.735   2.697
13750W        W73044   2.897  24.569  10.478
13751W        W73045  20.063  31.502   2.328
13752W        W73046   5.425   5.926   3.666
13753W        W73047  29.128  30.944   4.138
13754W        W73048  22.623  22.549   5.231
13755W        W73049  10.865  34.936  12.849
13756W        W73050  44.986  12.182   3.768
13757W        W73051   6.327  42.283  10.970
13758W        W73052  43.012  13.672  13.529
13759W        W73053  43.803  16.741  13.461
13760W        W73054  29.580  28.024  11.898
13761W        W73055   1.829  42.446   4.722
13762W        W73056  21.110  43.999   2.790
13763W        W73057  27.018   6.682  11.528
13764W        W73058  16.091   0.884   2.332
13765W        W73059   5.372   3.400   2.342
13766W        W73060  30.571   9.242   0.427
13767W        W73061   5.700  19.254   5.763
13768W        W73062  44.285   9.174   1.929
13769W        W73063  28.644  16.300   2.749
13770W        W73064  25.093   1.804   3.793
13771W        W73065   7.748  26.627   1.234
13772W        W73066  14.628  39.844  12.572
13773W        W73067  10.149  39.347  13.544
13774W        W73068  17.302   8.751  11.552
13775W        W73069  14.242  11.233   0.874
13776W        W73070  23.034  14.808  11.526
13777W        W73071  26.201  31.470  10.470
13778W        W73072  20.537  19.192   3.723
13779W        W73073  20.595  34.569  12.458
13780W        W73074  13.639   7.249  13.404
13781W        W73075  12.616  10.789  12.044
13782W        W73076  12.660  37.883   2.716
13783W        W73077  28.542  34.415  13.522
13784W        W73078  11.640  39.949  12.466
13785W        W73079  34.485  15.246   0.943
13786W        W73080   8.817  27.107  10.940
13787W        W73081  22.578  31.087   0.924
13788W        W73082  44.362  40.421  14.315
13789W        W73083  10.222  41.859  11.978
13790W        W73084  34.924  41.948   1.816
13791W        W73085  42.378  29.481   2.264
13792W        W73086  40.339  31.416  11.877
13793W        W73087  19.704   1.963   1.710
13794W        W73088  16.126  30.563   4.622
13795W        W73089  18.676  33.406   1.377
13796W        W73090  41.419  22.628  12.472
13797W        W73091  37.448  12.761  11.394
13798W        W73092   6.375   6.759  11.483
13799W        W73093  37.364  10.181   4.240
13800W        W73094  23.513   5.724   3.338
13801W        W73095  34.921  44.326  11.079
13802W        W73096  28.117   5.701  10.574
13803W        W73097  20.124   0.304   3.371
13804W        W73098  37.012   0.858   4.324
13805W        W73099  39.856  40.512  11.601
13806W        W73100  34.554   8.764  13.416
13807W        W73101   9.296  18.229   1.807
13808W        W73102  31.500  32.515   1.731
13809W        W73103   2.806  15.193  11.896
13810W        W73104  18.197   6.742  14.914
13811W        W73105  25.533  10.697   0.254
13812W        W73106  24.218  41.920  13.042
13813W        W73107  10.703  37.360  14.019
13814W        W73108  19.737  19.141  12.482
13815W        W73109  37.082  18.613  13.515
13816W        W73110  39.443  15.268   3.361
13817W        W73111  42.894  15.718   3.750
13818W        W73112  35.902  24.102   4.644
13819W        W73113  13.819  41.451  14.829
13820W        W73114  34.918   6.293  11.923
13821W        W73115  24.105  21.722   0.847
13822W        W73116   2.330  29.593   3.274
13823W        W73117  39.453  33.402   1.718
13824W        W73118  10.143   4.891   4.643
13825W        W73119  33.594  31.040  12.363
13826W        W73120  20.527   7.793  11.086
13827W        W73121  17.149  19.223  12.869
13828W        W73122  42.812  18.085  13.500
13829W        W73123   8.683  38.335   3.684
13830W        W73124  28.466  13.666   0.939
13831W        W73125  17.594   1.367  12.064
13832W        W73126  26.617  38.500  11.415
13833W        W73127  14.154  21.526   4.749
13834W        W73128  13.119   8.744   3.789
13835W        W73129  10.658  27.569   3.372
13836W        W73130  28.990  32.048   1.896
13837W        W73131   4.374  26.019   1.795
13838W        W73132   1.764  28.439   1.259
13839W        W73133   6.704  31.572   2.180
13840W        W73134  28.999  42.436   2.696
13841W        W73135  22.654  27.078  11.052
13842W        W73136  34.069  17.657   0.861
13843W        W73137  11.184  17.634   2.336
13844W        W73138   3.789   3.729   3.190
13845W        W73139  23.526  44.852  12.420
13846W        W73140  34.950  37.084  11.896
13847W        W73141  43.781  27.496  14.870
13848W        W73142  27.124  20.732  12.082
13849W        W73143   4.877  36.459  11.072
13850W        W73144   9.198   3.412  13.546
13851W        W73145  30.021   0.918  12.887
13852W        W73146  27.952  25.483  12.387
13853W        W73147  24.685  44.488   0.463
13854W        W73148   6.319  27.676   1.876
13855W        W73149  28.070  11.760   2.849
13856W        W73150  40.904  32.604  10.913
13857W        W73151  32.547  33.463  10.926
13858W        W73152  21.647   4.428  11.612
13859W        W73153  16.630  16.187   5.690
13860W        W73154  36.995  22.249   3.671
13861W        W73155  44.846  36.392  11.434
13862W        W73156  37.975   6.230   3.376
13863W        W73157  24.175  34.989  13.464
13864W        W73158  29.594   3.428   2.400
13865W        W73159  38.465   2.732  11.497
13866W        W73160  10.735  29.037  12.422
13867W        W73161   7.355  20.057   1.296
13868W        W73162  35.891  38.924  10.990
13869W        W73163  17.302  18.726   3.375
13870W        W73164  41.342  40.505  12.013
13871W        W73165  11.829   6.302   1.745
13872W        W73166  12.171  15.279  11.980
13873W        W73167  36.095  43.788  12.895
13874W        W73168  44.435  35.891  12.087
13875W        W73169  26.638  27.956   1.821
13876W        W73170  35.495  29.939  13.385
13877W        W73171  19.744   2.955  14.351
13878W        W73172  35.534  32.494   2.895
13879W        W73173  17.661  15.248   1.337
13880W        W73174  25.590  31.061  14.880
13881W        W73175  31.034  35.493   0.750
13882W        W73176  26.612  17.230  10.637
13883W        W73177  15.767  35.370  10.966
13884W        W73178   0.874  32.018  14.843
13885W        W73179   8.839  21.738   5.278
13886W        W73180  38.412  44.857  13.435
13887W        W73181  12.848  38.994  10.503
13888W        W73182   5.911  41.020  10.534
13889W        W73183  31.498   8.800  13.399
13890W        W73184   8.701   5.355   2.407
13891W        W73185   1.897  25.480  11.043
13892W        W73186  26.546  22.246   2.280
13893W        W73187   0.268   0.356   3.846
13894W        W73188  36.005  21.059  12.053
13895W        W73189  17.699  10.805  12.406
13896W        W73190  43.854  10.323  14.793
13897W        W73191  20.203  34.867   3.774
13898W        W73192   4.369  27.978  14.501
13899W        W73193  29.426   5.851   0.342
13900W        W73194  24.528  14.738  11.976
13901W        W73195  27.494  32.527   0.762
13902W        W73196  28.680  15.241   1.836
13903W        W73197   0.298  34.381   2.336
13904W        W73198   6.876   4.832   2.760
13905W        W73199   6.710  28.114   4.143
13906W        W73200   3.343  22.723   3.181
13907W        W73201  11.703  20.707  10.514
13908W        W73202  33.542  23.092  14.302
13909W        W73203  17.718  14.757  11.500
13910W        W73204  21.169  23.512  11.890
13911W        W73205  20.176  13.825   3.359
13912W        W73206   2.298  17.300  12.857
13913W        W73207  41.472  35.448   4.311
13914W        W73208  19.595  29.956  11.541
13915W        W73209  13.759  25.541   4.611
13916W        W73210  35.004   2.261   0.933
13917W        W73211   9.235  22.743  12.368
13918W        W73212   3.759  24.708  11.856
13919W        W73213  31.147  32.597   4.647
13920W        W73214  17.796  13.824  14.439
13921W        W73215  39.047   4.830   1.340
13922W        W73216  40.837  37.943  12.051
13923W        W73217  14.654  24.489   2.280
13924W        W73218  18.597  10.296  11.396
13925W        W73219  32.509  35.872  14.450
13926W        W73220   1.859  25.640  14.916
13927W        W73221  15.650  12.267  10.434
13928W        W73222  23.010  17.065   2.846
13929W        W73223  13.747  43.476  10.940
13930W        W73224  21.186   7.668   4.827
13931W        W73225  28.140  10.646  13.985
13932W        W73226  20.114  25.127  10.425
13933W        W73227  34.034   2.784  10.636
13934W        W73228  13.642   1.357  14.296
13935W        W73229  22.553  35.934   4.616
13936W        W73230  38.824  15.727   2.356
13937W        W73231  19.641  16.207  13.936
13938W        W73232  29.456  43.455  11.475
13939W        W73233   5.399   8.171   3.369
13940W        W73234  21.546   9.826  11.935
13941W        W73235  26.151   9.709   2.348
13942W        W73236  13.693  35.533   3.740
13943W        W73237  30.515  29.923   1.342
13944W        W73238  41.918   1.975   3.870
13945W        W73239  44.879   2.929   0.758
13946W        W73240  43.834   7.390   1.846
13947W        W73241  14.727   6.918   4.772
13948W        W73242   3.746  20.713   3.281
13949W        W73243  14.636  25.978   0.302
13950W        W73244  11.239  32.545   4.690
13951W        W73245  30.937  36.884   5.274
13952W        W73246  33.893  21.250  13.959
13953W        W73247   9.256  29.563  14.966
13954W        W73248   9.687   9.806   1.715
13955W        W73249  28.608  14.298   3.229
13956W        W73250  26.529  20.567  12.865
13957W        W73251  36.488   0.413   4.204
13958W        W73252  19.576  33.590   0.344
13959W        W73253  36.365   0.400   0.943
13960W        W73254   4.241  44.285  13.871
13961W        W73255  21.688   6.846   0.367
13962W        W73256   7.409  39.510   4.797
13963W        W73257  17.152   0.800   0.307
13964W        W73258  18.092  29.167  11.477
13965W        W73259  28.668   0.312   2.784
13966W        W73260   4.846   0.372  12.074
13967W        W73261  40.809  44.269  14.851
13968W        W73262  41.965  24.530   3.243
13969W        W73263   8.248  28.585   2.331
13970W        W73264  44.309  31.573   5.227
13971W        W73265  36.498  42.781  11.425
13972W        W73266  26.471   6.290  13.797
13973W        W73267   3.401  31.940   1.867
13974W        W73268  20.170   0.369   0.341
13975W        W73269  16.113  25.676  11.518
13976W        W73270  31.483  30.047  12.953
13977W        W73271  13.651   8.800   2.343
13978W        W73272   9.390  13.124  10.508
13979W        W73273   1.961  14.098   0.355
13980W        W73274  28.971  30.617  12.397
13981W        W73275  30.161   3.840   3.736
13982W        W73276   5.195   9.251   3.805
13983W        W73277  23.650  43.001  11.999
13984W        W73278  36.474   8.225   1.440
13985W        W73279  11.655   3.348   1.410
13986W        W73280  11.697  37.361   5.193
13987W        W73281  29.618  31.984   1.443
13988W        W73282  26.615   1.796   0.368
13989W        W73283  14.130  14.814  14.785
13990W        W73284  41.875  10.258   3.790
13991W        W73285   8.222  16.568  10.553
13992W        W73286   4.441  14.776   1.298
13993W        W73287  44.806  29.098  11.960
13994W        W73288  25.146  40.898   2.773
13995W        W73289  10.821  23.006  14.463
13996W        W73290   5.798   4.449  12.360
13997W        W73291  30.034  11.237   3.314
13998W        W73292  26.186  43.402  12.516
13999W        W73293  22.111   6.307  11.127
14000W        W73294  18.566  39.860  14.762
14001W        W73295  41.396  39.375  14.426
14002W        W73296  33.594  28.979   5.132
14003W        W73297  18.673  17.078   0.806
14004W        W73298  29.587  36.374  10.968
14005W        W73299  40.397   0.787   1.869
14006W        W73300   6.311  41.330  14.311
14007W        W73301  24.700  29.929  12.961
14008W        W73302  30.487   3.940  14.957
14009W        W73303  38.937  29.558  12.468
14010W        W73304  31.437  17.597  11.433
14011W        W73305  27.975  14.207   0.300
14012W        W73306  25.119  38.923   2.726
14013W        W73307  39.916   6.871   0.857
14014W        W73308  29.667   7.811  11.963
14015W        W73309  26.070  32.425  14.830
14016W        W73310  22.594  32.057  11.970
14017W        W73311  42.910  44.438   5.802
14018W        W73312  40.920  29.062  12.835
14019W        W73313  36.389  44.337   4.212
14020W        W73314  14.112  44.997  11.089
14021W        W73315  38.044  16.092   4.774
14022W        W73316  40.865  41.902  11.562
14023W        W73317  31.477  10.768  14.843
14024W        W73318  30.074  28.102  13.929
14025W        W73319  44.904  10.321   4.620
14026W        W73320  20.679   4.325   0.321
14027W        W73321  10.760   6.910  13.908
14028W        W73322  17.678   2.775   4.811
14029W        W73323  32.032  15.702   4.336
14030W        W73324   9.391  16.257   1.244
14031W        W73325   4.934  11.849  12.463
14032W        W73326  13.624   6.315   3.813
14033W        W73327  42.441  15.814  10.434
14034W        W73328  12.651  24.660   1.713
14035W        W73329  27.480   9.150  12.394
14036W        W73330  30.465   8.677   0.955
14037W        W73331  35.384   0.370   3.743
14038W        W73332  32.509  44.827  12.410
14039W        W73333  39.946  29.643  13.855
14040W        W73334   4.923  20.240   4.182
14041W        W73335  30.435  29.477  14.999
14042W        W73336  28.587  28.064   2.881
14043W        W73337  30.566   5.766   2.681
14044W        W73338   0.251  41.938  14.399
14045W        W73339   5.711  26.190   3.149
14046W        W73340   2.722  12.692  12.353
14047W        W73341   2.424  28.455   0.294
14048W        W73342  41.294  11.794   4.784
14049W        W73343  36.947  24.999   4.240
14050W        W73344  14.740  26.046   4.196
14051W        W73345   1.247   2.767  11.503
14052W        W73346   8.867  39.543   3.717
14053W        W73347  38.893   0.780   5.119
14054W        W73348  10.228   6.677   1.784
14055W        W73349   7.375  32.937   3.711
14056W        W73350  17.566  38.453  14.779
14057W        W73351  29.482  16.686   3.660
14058W        W73352  26.091  34.573   4.165
14059W        W73353  14.195  19.052  13.405
14060W        W73354  30.514  11.806   0.891
14061W        W73355  34.373  24.111  14.882
14062W        W73356  18.650   5.932   0.937
14063W        W73357   8.255  22.104  14.925
14064W        W73358  32.404  26.012   0.807
14065W        W73359  16.618  39.900  13.541
14066W        W73360  12.237  31.145   4.628
14067W        W73361  22.569  31.137   2.753
14068W        W73362  19.743  14.711   0.766
14069W        W73363  24.100   9.195  11.471
14070W        W73364   4.870  21.052   2.259
14071W        W73365  11.625  42.344   1.877
14072W        W73366  43.360   9.754   2.900
14073W        W73367  15.819  30.567  14.408
14074W        W73368  29.076  25.627   1.223
14075W        W73369   3.790  11.281   1.807
14076W        W73370  28.608  32.036  13.452
14077W        W73371  34.917   6.269  13.034
14078W        W73372   2.754  11.835  14.476
14079W        W73373  22.029   0.436  12.433
14080W        W73374  35.570   5.317   3.756
14081W        W73375  43.922  16.697   1.277
14082W        W73376  41.905  13.175  11.450
14083W        W73377  39.357  17.563   2.281
14084W        W73378  10.283  22.511  13.031
14085W        W73379  32.083  42.388  13.326
14086W        W73380  35.870  11.773   4.337
14087W        W73381  10.845   3.943   1.388
14088W        W73382  38.989  29.557   2.351
14089W        W73383  27.571   5.299  12.899
14090W        W73384  28.566  43.476  11.921
14091W        W73385  21.116  22.197   1.437
14092W        W73386  12.248  18.548   2.762
14093W        W73387  27.604  21.062  14.997
14094W        W73388  10.327  33.108   1.789
14095W        W73389  41.348  24.508  13.795
14096W        W73390   7.787  44.357   0.899
14097W        W73391  14.286  44.968   3.269
14098W        W73392   9.820  20.529  12.863
14099W        W73393  17.801  18.673  10.584
14100W        W73394  19.578  34.370   0.438
14101W        W73395  43.396  24.581  14.318
14102W        W73396  25.577   0.410  11.912
14103W        W73397  43.960  25.112  14.786
14104W        W73398  25.120  28.464  13.842
14105W        W73399  22.747  37.986   0.265
14106W        W73400  32.974   1.908  11.604
14107W        W73401  13.210   3.369   1.230
14108W        W73402  18.116  11.279   2.810
14109W        W73403  18.137  11.227  14.948
14110W        W73404   2.263  13.659  12.563
14111W        W73405  20.650  21.596  14.275
14112W        W73406  12.766   3.752  11.577
14113W        W73407   1.850  44.947   0.299
14114W        W73408  43.462  42.849  11.525
14115W        W73409  36.479  38.518   3.792
14116W        W73410  35.941   5.896  14.016
14117W        W73411   3.444  13.121   4.321
14118W        W73412  29.979  32.466  13.834
14119W        W73413  33.598  15.699   2.248
14120W        W73414  20.700   5.816  11.915
14121W        W73415  39.044  43.456   0.417
14122W        W73416  20.549  38.997   0.278
14123W        W73417  18.701  41.292   1.736
14124W        W73418  21.700   8.728   0.309
14125W        W73419  12.130  35.031   4.834
14126W        W73420  40.004  35.016   0.811
14127W        W73421  34.568  24.211  10.637
14128W        W73422  35.403  29.125  12.029
14129W        W73423  33.878  23.691   3.291
14130W        W73424  15.089   9.824  10.433
14131W        W73425   2.949  20.055   0.751
14132W        W73426  40.436  17.292   2.809
14133W        W73427   0.346  16.601  12.341
14134W        W73428   3.876   0.449   3.744
14135W        W73429   1.749  42.880  13.389
14136W        W73430  17.158  31.427  13.034
14137W        W73431  23.577  33.512  12.450
14138W        W73432  32.576  29.137  14.499
14139W        W73433   3.452  10.295  13.793
14140W        W73434  41.533  19.192   3.654
14141W        W73435  14.193   2.847   2.310
14142W        W73436  27.082   8.199  14.930
14143W        W73437  25.711   3.243  10.637
14144W        W73438  14.703   2.902  14.394
14145W        W73439  16.601  33.967   1.827
14146W        W73440  31.486  36.871   4.727
14147W        W73441  19.630  22.595  14.299
14148W        W73442  20.733  22.621  10.905
14149W        W73443  11.774   6.788   3.662
14150W        W73444   1.855   2.915  12.982
14151W        W73445  42.392   8.779   2.188
14152W        W73446  29.571  23.518   2.750
14153W        W73447  16.754  10.758  12.560
14154W        W73448   1.755  10.175   2.785
14155W        W73449  25.000   0.342   1.730
14156W        W73450  38.822  31.572   5.160
14157W        W73451  12.821  35.050   4.349
14158W        W73452  21.211   1.869  10.418
14159W        W73453  25.184  31.553   1.774
14160W        W73454  16.281  22.702  13.940
14161W        W73455  11.169  43.990   1.293
14162W        W73456  32.992   5.275  13.512
14163W        W73457   5.725  35.408  10.624
14164W        W73458  11.750  23.168  10.029
14165W        W73459  11.170  19.601  11.503
14166W        W73460  40.036  21.189  10.556
14167W        W73461   5.270  10.817   2.717
14168W        W73462  27.518  27.115  11.925
14169W        W73463  13.114  42.421   0.328
14170W        W73464  33.026   8.296   3.196
14171W        W73465   5.300   1.781   2.187
14172W        W73466   2.795  14.258  11.444
14173W        W73467  34.611  13.344  11.989
14174W        W73468  23.019   7.710   2.184
14175W        W73469  25.181  33.618  10.954
14176W        W73470  43.392  25.654   2.726
14177W        W73471   5.415  24.536  11.075
14178W        W73472  41.397  23.682   0.483
14179W        W73473  37.994  36.565   1.846
14180W        W73474  41.390  27.498   1.707
14181W        W73475  10.235  27.950  12.079
14182W        W73476  13.793  21.259  13.443
14183W        W73477   6.723   0.755  13.998
14184W        W73478   0.349  40.897   3.187
14185W        W73479  18.557  41.470   4.286
14186W        W73480   4.830  18.168  13.373
14187W        W73481  33.981  34.517  14.860
14188W        W73482  10.799  34.429   3.679
14189W        W73483  24.981  23.664   2.715
14190W        W73484  13.180  30.658  10.431
14191W        W73485  41.009   4.223  11.595
14192W        W73486  14.761  31.530   1.336
14193W        W73487  22.235   3.311   1.376
14194W        W73488  33.036  26.659  14.481
14195W        W73489  32.503  27.580  12.382
14196W        W73490  28.117  20.597  11.406
14197W        W73491  37.563  42.330   0.418
14198W        W73492  35.860  11.847   1.873
14199W        W73493  39.984   8.235  12.415
14200W        W73494  29.655   8.194  12.885
14201W        W73495  34.554  19.732  12.069
14202W        W73496  42.822  12.636  11.041
14203W        W73497  43.356  11.732  10.562
14204W        W73498  36.511  15.637  11.888
14205W        W73499  27.962  34.923  13.350
14206W        W73500  21.745  35.386   3.380
14207W        W73501  36.431   1.274  12.934
14208W        W73502  22.997  33.078  14.885
14209W        W73503  24.695  22.124   0.745
14210W        W73504  25.092  21.155  13.511
14211W        W73505   2.354  18.226  11.892
14212W        W73506   3.427  33.086   3.322
14213W        W73507  36.485  28.018  10.140
14214W        W73508  33.541  26.132   0.415
14215W        W73509   3.902   8.896  11.394
14216W        W73510  17.276  16.626  11.378
14217W        W73511  35.994   1.897   0.751
14218W        W73512   8.856  24.510   0.855
14219W        W73513  36.363   9.730  13.916
14220W        W73514  25.969  34.073   3.229
14221W        W73515  22.043   0.250   4.663
14222W        W73516  17.592  16.683  13.325
14223W        W73517  44.346  28.036   5.265
14224W        W73518  42.420   1.901   2.844
14225W        W73519   9.232  31.104  10.637
14226W        W73520  34.578  16.640   3.311
14227W        W73521  18.203  28.959  13.971
14228W        W73522  43.297  28.177  12.971
14229W        W73523  16.652   5.219   2.797
14230W        W73524   9.364  21.123   1.859
14231W        W73525  25.021   5.220  13.936
14232W        W73526  11.144   2.857  14.951
14233W        W73527  29.461  27.164   2.303
14234W        W73528  13.289  38.048  11.938
14235W        W73529  18.233  41.326   2.769
14236W        W73530   9.385  25.505  11.584
14237W        W73531  26.667  36.464   4.351
14238W        W73532  15.809   5.351   4.652
14239W        W73533  38.891  42.848  10.599
14240W        W73534  37.034   7.849   4.651
14241W        W73535  33.476  41.538  13.883
14242W        W73536   4.719   4.765  10.997
14243W        W73537   0.380  28.017   3.377
14244W        W73538  36.489  16.316   1.415
14245W        W73539  32.530  10.836   1.725
14246W        W73540  39.365  43.276  10.591
14247W        W73541  15.699   6.394   0.875
14248W        W73542   2.854  21.669   1.694
14249W        W73543   2.467  10.266  13.501
14250W        W73544  12.759  25.469   4.271
14251W        W73545   2.793  42.789   0.847
14252W        W73546  16.728  37.990   0.307
14253W        W73547  32.933   8.844   0.966
14254W        W73548  18.245  16.805  11.459
14255W        W73549  28.679  23.029  11.877
14256W        W73550  43.856  38.525  11.915
14257W        W73551  38.497  39.019  13.911
14258W        W73552   3.217  24.984  13.841
14259W        W73553  14.709  33.568  10.131
14260W        W73554  27.052  20.062   3.310
14261W        W73555   7.665  33.929  14.283
14262W        W73556  28.962  26.101   2.367
14263W        W73557   6.304   6.846   0.839
14264W        W73558  40.511   8.244   0.263
14265W        W73559   9.733   2.402  12.464
14266W        W73560  34.963  21.144   2.340
14267W        W73561  37.344   7.869   4.710
14268W        W73562  15.699   2.747   0.299
14269W        W73563   6.703  29.018  12.060
14270W        W73564  16.638  16.666   1.334
14271W        W73565  32.038   8.308  13.500
14272W        W73566  22.012   3.832   2.338
14273W        W73567  39.538  43.385   2.215
14274W        W73568   3.302  42.977  11.863
14275W        W73569   8.867  12.708  11.918
14276W        W73570  25.643   5.395   1.781
14277W        W73571  31.029  39.887   1.376
14278W        W73572  22.574   5.843  13.889
14279W        W73573  18.103   1.439   4.255
14280W        W73574  31.071   3.232  10.433
14281W        W73575   4.784   8.765  11.913
14282W        W73576   8.187  42.302  12.084
14283W        W73577   8.349  11.150  10.470
14284W        W73578  25.027  24.016   0.802
14285W        W73579  42.867   8.364  11.108
14286W        W73580  27.684   8.364  11.963
14287W        W73581  39.877  33.967   3.147
14288W        W73582  28.130  22.528  13.893
14289W        W73583   7.337  42.306  13.518
14290W        W73584  11.177  18.200   2.662
14291W        W73585   9.318  23.007   3.152
14292W        W73586  36.908  28.141  10.991
14293W        W73587   7.325  18.695   1.218
14294W        W73588  32.597  37.035  11.052
14295W        W73589  40.429   0.940  11.451
14296W        W73590  29.057   2.375  13.310
14297W        W73591   5.303  34.449   1.211
14298W        W73592  36.403  15.634   0.905
14299W        W73593  43.454  12.218   2.815
14300W        W73594  42.336  42.376   2.724
14301W        W73595   3.292   0.769  13.919
14302W        W73596  14.623  17.716   1.713
14303W        W73597  41.381  31.582  12.004
14304W        W73598  39.940  33.430  12.491
14305W        W73599  41.922  25.213   5.229
14306W        W73600   3.780  30.115   0.933
14307W        W73601  26.163  39.873   0.951
14308W        W73602  10.746   9.198  13.511
14309W        W73603   8.254  32.961   2.760
14310W        W73604  27.974  25.641  10.440
14311W        W73605  11.155   2.740   0.456
14312W        W73606  29.487  13.195   9.952
14313W        W73607   8.388  36.453   1.910
14314W        W73608  38.893   7.262   4.339
14315W        W73609  36.582   5.874   2.885
14316W        W73610   4.769   6.829  10.554
14317W        W73611  11.853  25.002  13.475
14318W        W73612  36.042  10.172  14.909
14319W        W73613  41.916  30.162  10.968
14320W        W73614  35.962  38.550  13.384
14321W        W73615  38.446  21.135   2.281
14322W        W73616  29.488  40.485   0.764
14323W        W73617  43.858  10.175  12.865
14324W        W73618   8.339   3.355  14.908
14325W        W73619   0.860  21.728   2.287
14326W        W73620  39.869  23.037  13.033
14327W        W73621  39.023  44.360  12.527
14328W        W73622  37.555  18.201   3.307
14329W        W73623  33.019   4.702  13.044
14330W        W73624  12.142  33.525  14.338
14331W        W73625  32.502  13.181  12.421
14332W        W73626  14.601  44.849  14.359
14333W        W73627  23.706  42.798  14.922
14334W        W73628  38.364   6.245  14.468
14335W        W73629   6.270  28.601   3.360
14336W        W73630  12.194   8.864   1.396
14337W        W73631  23.988  22.545   3.369
14338W        W73632   7.889  17.752   0.854
14339W        W73633  35.924  16.312  12.556
14340W        W73634   7.251  28.173  11.979
14341W        W73635  12.121  13.640   0.476
14342W        W73636  41.477  19.113   1.281
14343W        W73637  18.606  15.098   0.351
14344W        W73638  41.483  11.174   3.809
14345W        W73639  33.598  32.442   0.273
14346W        W73640   3.450  14.631  11.394
14347W        W73641  32.498  16.218  12.577
14348W        W73642  26.111  22.219   0.365
14349W        W73643   8.854  22.558  13.476
14350W        W73644   6.730  10.382  14.835
14351W        W73645  37.990  21.154   1.844
14352W        W73646   9.826  24.592   3.775
14353W        W73647  33.977   6.200   2.288
14354W        W73648   5.239   6.775  11.527
14355W        W73649  42.420  19.733  13.385
14356W        W73650   1.890   0.430   5.293
14357W        W73651   1.794  34.470   0.272
14358W        W73652  12.256  25.620   1.377
14359W        W73653   0.277  19.251   3.867
14360W        W73654  17.062  41.919  14.316
14361W        W73655  23.071  41.824  12.342
14362W        W73656  40.413   6.810   0.308
14363W        W73657  34.443   6.705  14.351
14364W        W73658  27.973  15.240  12.993
14365W        W73659  20.592  31.020  11.443
14366W        W73660  24.614  39.392  11.498
14367W        W73661  24.157  30.084   3.639
14368W        W73662   8.354  36.503  10.902
14369W        W73663   1.856   1.334   4.269
14370W        W73664  41.430   7.676   2.286
14371W        W73665   8.282  41.980  13.915
14372W        W73666  24.679  38.829  12.000
14373W        W73667   1.435  37.946  10.966
14374W        W73668  21.101  42.385   4.289
14375W        W73669  26.564   1.857   4.675
14376W        W73670   7.753  19.064  10.899
14377W        W73671  29.008  34.928   1.737
14378W        W73672  31.525  43.790   2.256
14379W        W73673  15.595  35.594  11.537
14380W        W73674  34.932  26.675   1.788
14381W        W73675  34.863  13.752  12.529
14382W        W73676  35.562  32.136  13.050
14383W        W73677  12.361  30.517  11.395
14384W        W73678  17.644  14.217   4.250
14385W        W73679   2.932  25.023  14.973
14386W        W73680   8.385  40.948  14.916
14387W        W73681  39.401  15.720  14.861
14388W        W73682  15.229  27.103   4.266
14389W        W73683   5.404  14.238   3.688
14390W        W73684   8.852  14.787   2.343
14391W        W73685  12.190  15.813  12.510
14392W        W73686   5.856   9.390   1.216
14393W        W73687  37.560  22.083   4.317
14394W        W73688  17.642  38.992  12.007
14395W        W73689  33.108  23.095   4.673
14396W        W73690  34.872   9.694   0.800
14397W        W73691  41.440  35.561  14.821
14398W        W73692  28.587  22.127  14.508
14399W        W73693  18.220   8.243  12.879
14400W        W73694  40.892  10.186   1.933
14401W        W73695  18.230   1.332  14.833
14402W        W73696   7.909  43.879   0.362
14403W        W73697  18.204  10.664  11.988
14404W        W73698  25.099  23.515   0.772
14405W        W73699  11.779  10.192  12.501
14406W        W73700  17.199   0.825   0.945
14407W        W73701  20.564  30.059   4.622
14408W        W73702  21.569  10.868   0.429
14409W        W73703   3.431  36.515  12.000
14410W        W73704  34.526  37.560   4.331
14411W        W73705  18.721  35.910  14.455
14412W        W73706  15.257  32.921  11.911
14413W        W73707  43.786  40.839  13.372
14414W        W73708   0.367  28.480   0.325
14415W        W73709  44.795  29.647   1.764
14416W        W73710  18.739   7.888  14.309
14417W        W73711  19.704  13.311   1.922
14418W        W73712  18.566  16.714  12.873
14419W        W73713  43.874   5.193   4.345
14420W        W73714  12.234  10.867  12.009
14421W        W73715   7.753  36.067  12.992
14422W        W73716  27.659  41.375  13.534
14423W        W73717  29.529  25.176  14.767
14424W        W73718   4.846  36.505  13.493
14425W        W73719  43.484  28.083   2.867
14426W        W73720  12.662  43.327  11.018
14427W        W73721   5.692  38.069  10.473
14428W        W73722  23.125  15.294  11.027
14429W        W73723  20.751  30.132   2.216
14430W        W73724   3.364   4.882  11.871
14431W        W73725  40.830  17.203  14.422
14432W        W73726  25.568  41.442  11.119
14433W        W73727  16.724  21.030   3.865
14434W        W73728  23.566   0.294  12.456
14435W        W73729  10.366   2.443   2.762
14436W        W73730   7.890  39.415  13.393
14437W        W73731  34.080   1.397  10.559
14438W        W73732  32.045  39.494   0.805
14439W        W73733  27.128   0.926   1.929
14440W        W73734  43.516  13.728   1.763
14441W        W73735  22.094   0.801  10.494
14442W        W73736  38.918  33.552   3.713
14443W        W73737  26.148  12.681   4.118
14444W        W73738  20.615  43.880  13.389
14445W        W73739  13.256  24.046  12.871
14446W        W73740   9.656  40.447   3.201
14447W        W73741  44.877  44.433  11.965
14448W        W73742  24.199  22.611   9.988
14449W        W73743   6.347   0.339  13.432
14450W        W73744  42.948   9.352   1.831
14451W        W73745  35.424  20.054   0.390
14452W        W73746  38.819   9.364   1.803
14453W        W73747  19.098  24.141  11.114
14454W        W73748  20.189  30.497   2.782
14455W        W73749   3.244  25.152   2.679
14456W        W73750  29.176   1.267  12.368
14457W        W73751  38.834  30.049   1.752
14458W        W73752  21.629  15.114  14.288
14459W        W73753   4.871   0.444   0.966
14460W        W73754  40.457   8.720   0.245
14461W        W73755   9.722   6.709   0.954
14462W        W73756  35.052  27.121  12.396
14463W        W73757  30.101  41.347   3.733
14464W        W73758  36.441   7.672   2.401
14465W        W73759  23.693  20.524   1.716
14466W        W73760  23.152  30.544  10.534
14467W        W73761   3.425  11.635   3.201
14468W        W73762   5.422  32.991  12.866
14469W        W73763  26.042  40.854   0.892
14470W        W73764  38.947  38.930   2.884
14471W        W73765  42.931  29.925   2.662
14472W        W73766  20.652  13.173  10.473
14473W        W73767  32.511  18.156   3.863
14474W        W73768  24.622  36.507   0.788
14475W        W73769  32.977  32.115  10.432
14476W        W73770  34.378  28.528   3.374
14477W        W73771  15.784  30.053   0.755
14478W        W73772  43.291  17.159   3.823
14479W        W73773   4.788   8.656  10.408
14480W        W73774  34.116  13.783  11.549
14481W        W73775  19.270  19.776  11.066
14482W        W73776  10.859   7.776   1.896
14483W        W73777  18.176  26.483  11.506
14484W        W73778   3.939  23.000   0.370
14485W        W73779  38.341  24.165   2.786
14486W        W73780  10.868  31.520   3.327
14487W        W73781  24.995   0.420   0.359
14488W        W73782  42.312  44.775  10.529
14489W        W73783  18.649   8.215   3.170
14490W        W73784  42.387   0.292  13.963
14491W        W73785  34.924  34.380   0.955
14492W        W73786   0.308  15.594   4.645
14493W        W73787   7.735  23.013   0.414
14494W        W73788   5.299  40.527  13.307
14495W        W73789   3.289  43.987   1.706
14496W        W73790  17.180  11.216   4.208
14497W        W73791   6.228  23.112  12.020
14498W        W73792   2.801  15.169   0.332
14499W        W73793  17.741  19.217  11.500
14500W        W73794  27.024  41.816   3.736
14501W        W73795  38.940  33.543  10.081
14502W        W73796  23.013   3.914  13.337
14503W        W73797   5.324   9.203   3.260
14504W        W73798  41.875   0.844   1.772
14505W        W73799   9.287  34.430   2.233
14506W        W73800  22.036  15.136   0.923
14507W        W73801  34.396  10.268   1.730
14508W        W73802  35.016  38.415  10.644
14509W        W73803  32.494  11.691   3.699
14510W        W73804  43.818  40.449   0.802
14511W        W73805  43.974  15.325   2.405
14512W        W73806  10.726  26.484  10.473
14513W        W73807  32.479   5.769   2.347
14514W        W73808  40.535  24.542   4.739
14515W        W73809  37.002  32.007   3.835
14516W        W73810  44.330  18.254   2.811
14517W        W73811   2.859  42.369   2.667
14518W        W73812  26.506  12.690   4.620
14519W        W73813  28.472  21.540   3.648
14520W        W73814   3.441   1.924   3.763
14521W        W73815   6.891  29.628  14.831
14522W        W73816  19.079  14.620   3.781
14523W        W73817   1.937   1.479  14.895
14524W        W73818  34.589   5.801   3.864
14525W        W73819  20.655  24.483  13.446
14526W        W73820  12.797  43.892   1.448
14527W        W73821  30.025  18.091  12.065
14528W        W73822  43.981  43.822  12.895
14529W        W73823   3.408  40.009  12.961
14530W        W73824  11.732   7.275  11.373
14531W        W73825   9.792  39.838   0.901
14532W        W73826  38.339   5.283   0.401
14533W        W73827  17.685  25.179  12.464
14534W        W73828  15.792  36.076   9.974
14535W        W73829  31.914  20.210  11.088
14536W        W73830  17.577  26.143  11.044
14537W        W73831  44.784  16.799  13.506
14538W        W73832   4.212  30.588  10.591
14539W        W73833  14.809  31.130   3.384
14540W        W73834  23.689   9.318  14.977
14541W        W73835  37.524  29.452   2.410
14542W        W73836  33.975  17.264  12.058
14543W        W73837  25.541  35.403   4.831
14544W        W73838  37.382  16.653  11.905
14545W        W73839  18.578  12.748  12.984
14546W        W73840   6.420  23.665   0.242
14547W        W73841  39.844  13.216  14.355
14548W        W73842  15.713  24.614   2.299
14549W        W73843   4.336  41.450   4.687
14550W        W73844  34.527  25.545   1.220
14551W        W73845  29.122   5.859  12.953
14552W        W73846  23.141  44.346   3.665
14553W        W73847   3.420   4.381   4.815
14554W        W73848  41.801  29.121   2.381
14555W        W73849   3.873  11.708  13.891
14556W        W73850  12.351   7.225   2.311
14557W        W73851   9.662  22.141   2.195
14558W        W73852   2.271   5.840   3.675
14559W        W73853  22.186  27.504   0.772
14560W        W73854  10.785  33.612  12.571
14561W        W73855   5.238   1.468   1.893
14562W        W73856  37.040   5.245  10.990
14563W        W73857  33.441  32.971   0.817
14564W        W73858  32.950  39.858   2.772
14565W        W73859   8.356  29.590   0.894
14566W        W73860  39.041  29.128   2.702
14567W        W73861  12.195  26.011   4.188
14568W        W73862   5.249  39.446  11.381
14569W        W73863  31.960  33.875   1.920
14570W        W73864  12.692  21.242   1.694
14571W        W73865  26.494  28.966  11.553
14572W        W73866  10.700   6.292  13.931
14573W        W73867  37.012  32.562  11.574
14574W        W73868  25.014  27.474   1.913
14575W        W73869  26.170  19.121   2.404
14576W        W73870   0.396  32.583  10.496
14577W        W73871  25.680   2.264  12.066
14578W        W73872  25.976  16.278  12.062
14579W        W73873   0.275  22.743   4.115
14580W        W73874   1.873  14.320  14.763
14581W        W73875  21.607  28.641   2.848
14582W        W73876  34.542  30.471   1.782
14583W        W73877   0.924  11.867   4.809
14584W        W73878  12.726  39.922  11.011
14585W        W73879   6.866  27.525   2.237
14586W        W73880  42.916  18.110   4.325
14587W        W73881  15.251  40.936  13.052
14588W        W73882   4.203  41.963  12.042
14589W        W73883   5.432  15.612  11.486
14590W        W73884  15.738  20.273   1.267
14591W        W73885  31.940   3.376  13.045
14592W        W73886   4.736  34.474  12.023
14593W        W73887  27.177  28.545   4.235
14594W        W73888  25.584  17.786   3.634
14595W        W73889  43.293  39.004  11.982
14596W        W73890  42.799  11.216  11.518
14597W        W73891  39.818   3.331  12.049
14598W        W73892  33.419   3.815  12.854
14599W        W73893  38.966  27.987  13.381
14600W        W73894   9.302   2.320  11.533
14601W        W73895  36.372   1.406   2.890
14602W        W73896  22.556  39.871  12.430
14603W        W73897   1.426   4.293  12.989
14604W        W73898  26.183  30.550   4.654
14605W        W73899  36.463  35.943   3.687
14606W        W73900  31.903  25.185  12.464
14607W        W73901  17.703   8.207  13.996
14608W        W73902   8.869   2.806  12.047
14609W        W73903  21.093  23.505  12.886
14610W        W73904  37.831  11.157   4.766
14611W        W73905  40.797  17.789  14.277
14612W        W73906  29.968   0.369   4.303
14613W        W73907  32.480  43.499  14.865
14614W        W73908  24.040  41.946   3.189
14615W        W73909  35.545  13.734  13.894
14616W        W73910  27.058   3.895   1.786
14617W        W73911  17.653  33.492  14.426
14618W        W73912  34.987  41.479  14.933
14619W        W73913  40.535  22.581   3.662
14620W        W73914  31.436   7.343  14.890
14621W        W73915  43.464  25.117  12.891
14622W        W73916  27.481  30.635  12.972
14623W        W73917  37.342  40.542  12.036
14624W        W73918  17.640  12.662   0.416
14625W        W73919  10.818  13.327   2.180
14626W        W73920  11.182  14.222   3.632
14627W        W73921  23.234  15.120   0.820
14628W        W73922  27.025  16.663  13.037
14629W        W73923  29.569   5.846   3.669
14630W        W73924  36.421  43.407  13.337
14631W        W73925  17.308  13.163   3.353
14632W        W73926  33.984  25.060  10.567
14633W        W73927  15.307  29.623   4.343
14634W        W73928  19.685  14.810  12.366
14635W        W73929   2.804  36.007  12.419
14636W        W73930  12.141   2.779   4.748
14637W        W73931  17.273  21.614   3.780
14638W        W73932  37.380  16.173   2.717
14639W        W73933   2.738  20.058  14.366
14640W        W73934  34.058  21.243   4.345
14641W        W73935  13.254  35.394  12.511
14642W        W73936  12.265  19.695   1.258
14643W        W73937  15.739   8.694   4.202
14644W        W73938  37.500  34.932  14.870
14645W        W73939  19.744  16.616  11.465
14646W        W73940  44.348  31.408   4.646
14647W        W73941  17.119  16.586   0.415
14648W        W73942  43.382  40.832   2.754
14649W        W73943  18.153  33.984   3.333
14650W        W73944   7.735  19.077  14.291
14651W        W73945  12.635  16.254   2.354
14652W        W73946  44.484  11.146  13.494
14653W        W73947  30.938  19.742  13.360
14654W        W73948  35.053   3.725   2.683
14655W        W73949   5.724  23.083  13.453
14656W        W73950   5.215  35.023   3.331
14657W        W73951  32.089  27.002   3.313
14658W        W73952  14.288  18.786   1.404
14659W        W73953  33.883  13.612   1.865
14660W        W73954  42.896  38.403   1.311
14661W        W73955  35.039  31.577  13.446
14662W        W73956  32.136  13.840  13.937
14663W        W73957  18.721  14.760  12.082
14664W        W73958  16.592  26.092  11.953
14665W        W73959  43.977  37.085  10.498
14666W        W73960   7.693  18.706  13.897
14667W        W73961   2.930   0.866   2.286
14668W        W73962   1.737  43.975   0.884
14669W        W73963  12.686  42.014   1.276
14670W        W73964  41.798   3.446   5.730
14671W        W73965  26.018   5.910   3.345
14672W        W73966   0.252  38.430  12.542
14673W        W73967  24.198  12.295  11.403
14674W        W73968  34.019   3.761   1.709
14675W        W73969  37.875  23.996   4.318
14676W        W73970   1.300   1.811   0.895
14677W        W73971  16.132  18.602  10.891
14678W        W73972   3.712   4.237   3.694
14679W        W73973  15.736  43.426  12.918
14680W        W73974   0.777  26.546   3.164
14681W        W73975  40.923  40.011   4.265
14682W        W73976  31.610  29.146   2.725
14683W        W73977  44.996  28.640   0.821
14684W        W73978  36.495  33.422  13.409
14685W        W73979  44.268  12.711  14.952
14686W        W73980  37.994  22.540  10.415
14687W        W73981  12.281   7.768  12.444
14688W        W73982  44.409  27.090  11.409
14689W        W73983  23.491   6.770  12.059
14690W        W73984  28.933  10.368   3.858
14691W        W73985  41.028  43.811   1.878
14692W        W73986  20.186  21.665  11.998
14693W        W73987  11.774  31.523   1.731
14694W        W73988  15.648   8.678  13.999
14695W        W73989  35.994  39.459   3.352
14696W        W73990  43.777  25.091  10.639
14697W        W73991  27.944   8.796   2.329
14698W        W73992  17.623  38.942  14.337
14699W        W73993  18.665  13.728   1.448
14700W        W73994   6.287  11.189   1.858
14701W        W73995  39.821  25.639  14.343
14702W        W73996  11.674  13.793  14.836
14703W        W73997  24.141  34.888  12.920
14704W        W73998  31.032  32.509   3.244
14705W        W73999   3.376  28.553   2.216
14706W        W74000  12.350  22.635  12.348
14707W        W74001  31.916   9.371   0.879
14708W        W74002  11.305  16.756   2.813
14709W        W74003  41.321  25.085  14.896
14710W        W74004  27.486  21.142  13.986
14711W        W74005   2.824  27.608  14.340
14712W        W74006  15.167  34.511   2.324
14713W        W74007  33.119  31.606  14.776
14714W        W74008  14.137  33.574  11.540
14715W        W74009  14.789   0.424   2.879
14716W        W74010  30.562  20.768  12.377
14717W        W74011  13.239  27.536  13.868
14718W        W74012  17.774  31.552   0.457
14719W        W74013  29.142  43.839  12.414
14720W        W74014  26.696   9.266  14.010
14721W        W74015  25.667  39.460   3.691
14722W        W74016  39.053  30.053  12.392
14723W        W74017   7.728  35.919  11.502
14724W        W74018  37.347  20.573  14.337
14725W        W74019   0.284   0.372   1.827
14726W        W74020  37.912  23.736  14.319
14727W        W74021   4.817  43.896  14.398
14728W        W74022  39.317   6.406   4.605
14729W        W74023  39.022   9.195  14.476
14730W        W74024  12.758  11.682  10.953
14731W        W74025  33.447   5.711   1.753
14732W        W74026  26.049   3.941  13.803
14733W        W74027  18.703  23.062  14.400
14734W        W74028  41.820  22.075   1.885
14735W        W74029   6.225  41.040  14.391
14736W        W74030   5.715  32.916   0.330
14737W        W74031  12.141  27.948   3.189
14738W        W74032  29.984  30.573   2.216
14739W        W74033  23.091  24.131  13.009
14740W        W74034  30.502  12.242  13.538
14741W        W74035  10.294  30.545  12.876
14742W        W74036  20.594  35.856  12.435
14743W        W74037   4.383  34.554  11.442
14744W        W74038  44.260   0.834   2.870
14745W        W74039  33.879   8.863  12.094
14746W        W74040  42.923  26.116  10.496
14747W        W74041   1.896  38.507  10.985
14748W        W74042   5.777  39.005  13.357
14749W        W74043  20.589   4.868   2.368
14750W        W74044  42.988  38.434  14.027
14751W        W74045   0.312  13.333  11.057
14752W        W74046  40.547  40.905  13.817
14753W        W74047  19.252  38.543   0.440
14754W        W74048  16.104  24.720   1.261
14755W        W74049  12.836  19.171  12.566
14756W        W74050   1.808  25.541   1.752
14757W        W74051  33.576  26.511   0.449
14758W        W74052  14.749  10.689   2.394
14759W        W74053  10.250  36.475   0.329
14760W        W74054   8.895   2.267  13.961
14761W        W74055  41.950  34.037  14.484
14762W        W74056  39.350  26.153   4.113
14763W        W74057  16.683  41.368  13.461
14764W        W74058  41.895  31.468  13.893
14765W        W74059  24.036  41.993   4.813
14766W        W74060  33.579  26.192   9.997
14767W        W74061  26.964   1.924  11.108
14768W        W74062   3.853  20.130   4.754
14769W        W74063   0.324  19.075   4.634
14770W        W74064  40.394  35.554  14.851
14771W        W74065  28.133  20.164  12.580
14772W        W74066  37.516  12.281   0.897
14773W        W74067   0.754  31.000   3.752
14774W        W74068   2.452  36.036   3.323
14775W        W74069  42.880  42.961  12.992
14776W        W74070  23.519  36.037  14.441
14777W        W74071  12.243  12.321   2.665
14778W        W74072  14.258  39.395  13.530
14779W        W74073  25.024  40.412  14.013
14780W        W74074  26.519  18.582   0.271
14781W        W74075  41.810  14.319   5.151
14782W        W74076   3.387  11.660   1.933
14783W        W74077   6.839  37.861  14.893
14784W        W74078   9.772  30.538   4.142
14785W        W74079  29.648  19.580  11.119
14786W        W74080  19.562   1.453   2.698
14787W        W74081  40.031  25.089  10.472
14788W        W74082   2.399  23.064   0.344
14789W        W74083  36.852  33.557   3.156
14790W        W74084  32.390  19.074   3.786
14791W        W74085  27.548  14.753  13.808
14792W        W74086  18.568   9.273   2.248
14793W        W74087  20.593  44.963   2.372
14794W        W74088   0.903  27.125  13.857
14795W        W74089  20.204   9.847   4.636
14796W        W74090   8.382   9.278   1.340
14797W        W74091   1.309  19.651   3.172
14798W        W74092  12.120  25.692  13.846
14799W        W74093  16.755  44.328  11.500
14800W        W74094   8.187  12.850   2.243
14801W        W74095  18.055   5.402   3.169
14802W        W74096   7.796  10.736   3.360
14803W        W74097   2.274   7.735   4.760
14804W        W74098  37.013   1.778  13.859
14805W        W74099  13.715  19.755   3.328
14806W        W74100   4.411  27.003  12.950
14807W        W74101  24.603  13.620   3.754
14808W        W74102  36.858  16.194  11.503
14809W        W74103  15.295  31.611   4.660
14810W        W74104  43.820  21.228  11.972
14811W        W74105  43.021  36.351   0.907
14812W        W74106   4.425  40.317   2.318
14813W        W74107  38.863  42.006  14.825
14814W        W74108  16.732   7.710   2.814
14815W        W74109  15.734  13.605   3.863
14816W        W74110  28.636  23.080  11.073
14817W        W74111  40.924  12.719  12.896
14818W        W74112   2.397   8.792  13.490
14819W        W74113  18.226  19.695   1.279
14820W        W74114  43.314   6.767   2.893
14821W        W74115  30.061  32.012  12.418
14822W        W74116  30.156   7.896  11.095
14823W        W74117  32.969  43.976  10.934
14824W        W74118  21.069  19.052   1.826
14825W        W74119  40.853   5.717   4.754
14826W        W74120  16.645  33.021   3.741
14827W        W74121  18.770  22.702  11.394
14828W        W74122  40.044  12.674   3.859
14829W        W74123   0.302  21.521   3.835
14830W        W74124  32.932  33.599   2.818
14831W        W74125  23.568  23.705  12.515
14832W        W74126  41.897  24.712   3.698
14833W        W74127  12.789  12.684   2.385
14834W        W74128  41.523  41.471  13.971
14835W        W74129  28.184  15.642  12.838
14836W        W74130  40.835  11.638  11.513
14837W        W74131  39.044   7.242   5.118
14838W        W74132  39.969  14.644  11.585
14839W        W74133  11.731   1.797  14.440
14840W        W74134   4.931   1.918  12.510
14841W        W74135   1.843   6.293  13.053
14842W        W74136  33.110   8.817   4.676
14843W        W74137  18.736  39.017   3.778
14844W        W74138  14.116   9.706  14.435
14845W        W74139  44.899  23.510  12.377
14846W        W74140  15.745   9.693   4.228
14847W        W74141  40.810  41.953   0.748
14848W        W74142  24.193  17.249   2.777
14849W        W74143  31.000  20.710   1.796
14850W        W74144  11.205  44.984   1.694
14851W        W74145   3.317  35.074   2.300
14852W        W74146  29.641  26.667  13.447
14853W        W74147  18.660  34.073  10.574
14854W        W74148  39.852  15.252  12.543
14855W        W74149   0.273  23.613   2.670
14856W        W74150  38.864  10.782  10.517
14857W        W74151  17.749  18.179  14.315
14858W        W74152  34.517  24.691   2.226
14859W        W74153  25.047  44.366   2.326
14860W        W74154  17.200   1.824  11.522
14861W        W74155  23.566   2.341   2.866
14862W        W74156  10.254  11.792  14.453
14863W        W74157  30.632  20.718   1.928
14864W        W74158  24.231  31.446   4.621
14865W        W74159   1.841  25.512   0.360
14866W        W74160   4.804  20.243  11.897
14867W        W74161   6.221  14.761   4.836
14868W        W74162  13.336  23.539   5.236
14869W        W74163  44.294  23.696   4.191
14870W        W74164  42.518  37.380   1.415
14871W        W74165   0.357   7.355   1.248
14872W        W74166  20.075  18.594   3.198
14873W        W74167  23.182  18.757   1.426
14874W        W74168   0.842  43.846  10.644
14875W        W74169   0.767  21.596   0.775
14876W        W74170  23.545  43.337   4.819
14877W        W74171  19.125   6.294  12.002
14878W        W74172  24.516  28.056  13.965
14879W        W74173  25.154  20.102   3.795
14880W        W74174  30.515  30.529   1.897
14881W        W74175  28.614  19.064  11.080
14882W        W74176  37.906   5.751   3.207
14883W        W74177  37.876  16.575  12.050
14884W        W74178  30.631  32.612   3.664
14885W        W74179  13.843  17.715  13.872
14886W        W74180  41.884  42.460  11.560
14887W        W74181  26.464  23.046   0.932
14888W        W74182  30.934  21.163   4.159
14889W        W74183  33.068  26.661   0.456
14890W        W74184   6.818  18.202   1.893
14891W        W74185  25.046  27.997  11.020
14892W        W74186  38.836  15.204   0.899
14893W        W74187  11.766  38.032   0.256
14894W        W74188  34.485  23.040  13.341
14895W        W74189  41.468  16.285   2.192
14896W        W74190   4.441  31.520   0.304
14897W        W74191  12.151  18.206   0.405
14898W        W74192  11.241  18.738   1.438
14899W        W74193   0.775  20.250  14.412
14900W        W74194  36.073  22.663  13.421
14901W        W74195  21.729  22.665  11.933
14902W        W74196  18.060  13.842   1.375
14903W        W74197  31.569  13.112  12.003
14904W        W74198  24.022  16.300   0.916
14905W        W74199   0.343  12.837   4.661
14906W        W74200  39.049  19.048  12.430
14907W        W74201  24.074   3.394   9.935
14908W        W74202   9.791  36.948   1.713
14909W        W74203  14.822  14.296  12.544
14910W        W74204  35.588  22.064   0.349
14911W        W74205  41.418  44.784  14.981
14912W        W74206  13.272  25.984  10.488
14913W        W74207   2.440  29.132  14.936
14914W        W74208  29.066   0.928   2.886
14915W        W74209  38.999  38.485   9.535
14916W        W74210  32.106  32.407   1.917
14917W        W74211  19.055  26.658   4.791
14918W        W74212  16.291  41.449   4.769
14919W        W74213  36.891  40.397   0.887
14920W        W74214  18.271   0.443   2.769
14921W        W74215  20.717  17.745   0.842
14922W        W74216  25.593  15.602   3.158
14923W        W74217  44.993  42.904   4.218
14924W        W74218  41.941  39.471  13.353
14925W        W74219  17.798   7.909  12.917
14926W        W74220  20.639   5.435   1.439
14927W        W74221   0.322  25.049   0.867
14928W        W74222  31.638  39.837  13.037
14929W        W74223  41.462  36.528  11.518
14930W        W74224  36.390  32.589  12.927
14931W        W74225  22.205  35.931  10.642
14932W        W74226   3.339   6.244  14.010
14933W        W74227  29.476  31.460  12.958
14934W        W74228  41.428  18.608   4.169
14935W        W74229  17.700  44.280  13.060
14936W        W74230  31.553  36.508   1.846
14937W        W74231  37.861  39.555  12.570
14938W        W74232  35.534  21.231   0.798
14939W        W74233  14.300  35.566  14.505
14940W        W74234   0.334  35.937   2.271
14941W        W74235  16.199  12.200  14.822
14942W        W74236  43.374   6.897  11.075
14943W        W74237  40.390  36.526   1.427
14944W        W74238  13.128  24.117  10.509
14945W        W74239  40.852   4.230  12.007
14946W        W74240   3.444  17.659   2.238
14947W        W74241  26.205  39.559   0.261
14948W        W74242  42.793  33.045   4.691
14949W        W74243  16.690  44.375   4.715
14950W        W74244  36.057  38.883  13.918
14951W        W74245  38.522  25.998   3.177
14952W        W74246  15.818  19.200   3.834
14953W        W74247  25.213  38.847   3.764
14954W        W74248  20.086  19.775  10.997
14955W        W74249  35.952  40.377   3.742
14956W        W74250  17.169  31.952   0.439
14957W        W74251  14.117  23.525  14.031
14958W        W74252  31.534  26.559  11.028
14959W        W74253  19.604   5.382  11.591
14960W        W74254  34.922  40.475   0.852
14961W        W74255  26.623   3.945  13.374
14962W        W74256  15.819  15.820   1.448
14963W        W74257  34.563  40.047   1.814
14964W        W74258  25.214  40.514   2.819
14965W        W74259   9.364  20.561  13.340
14966W        W74260  37.436  42.302  11.081
14967W        W74261   2.781  37.448   2.875
14968W        W74262  33.041   5.790  12.999
14969W        W74263  22.148  31.482   1.423
14970W        W74264  32.624  40.858   3.353
14971W        W74265  39.865   2.940  11.107
14972W        W74266  19.102  13.257   5.098
14973W        W74267  30.512  39.545  13.925
14974W        W74268  42.888  14.264  13.316
14975W        W74269  33.444  12.733   2.337
14976W        W74270  22.659  35.603  14.770
14977W        W74271  25.669   7.686  14.944
14978W        W74272  18.723  13.275   9.583
14979W        W74273  10.695  32.122   3.308
14980W        W74274   8.726  12.701   0.766
14981W        W74275   6.210  17.603  13.525
14982W        W74276  23.503  16.721   4.721
14983W        W74277  23.529  30.981  12.903
14984W        W74278  37.497  11.771   5.310
14985W        W74279  15.711   6.370   2.824
14986W        W74280   3.339   8.823  11.470
14987W        W74281  21.523  35.897   2.253
14988W        W74282   0.326  10.813   2.210
14989W        W74283  42.009  22.154   0.467
14990W        W74284  13.173  44.314   1.828
14991W        W74285  37.352  11.804  10.097
14992W        W74286  38.553  12.851   4.679
14993W        W74287  32.506   8.829   9.935
14994W        W74288  30.596  18.656  13.428
14995W        W74289  21.139  30.018   3.732
14996W        W74290   2.424   5.277  14.870
14997W        W74291   2.929  12.644   1.358
14998W        W74292  33.983  17.775   1.380
14999W        W74293   9.301  23.080   0.478
15000W        W74294  41.872  12.707  13.854
15001W        W74295   8.345  32.460   1.847
15002W        W74296  29.469  12.146   3.149
15003W        W74297   9.335  40.316   3.763
15004W        W74298  26.083   9.846  13.018
15005W        W74299   3.752  33.510   3.640
15006W        W74300  30.036  35.026  13.312
15007W        W74301  18.204  21.262  10.542
15008W        W74302  39.336   4.250   4.328
15009W        W74303   7.899  35.410   0.767
15010W        W74304   3.280  40.963   2.817
15011W        W74305   2.818  34.381  13.412
15012W        W74306  24.596  21.529   4.690
15013W        W74307  40.811  22.096  10.417
15014W        W74308  23.192  26.683  14.347
15015W        W74309   7.183   7.865  10.518
15016W        W74310   5.775   8.683   3.301
15017W        W74311   0.832   2.235   5.136
15018W        W74312  42.401   7.409  12.357
15019W        W74313  21.129  38.375  10.978
15020W        W74314  43.487   1.811  14.433
15021W        W74315   4.724  28.940   2.840
15022W        W74316  31.923  37.477   0.944
15023W        W74317   6.378  20.718   2.862
15024W        W74318  28.674  32.892  11.065
15025W        W74319  28.572  17.562  10.978
15026W        W74320  25.584   7.330  13.923
15027W        W74321  38.540   5.322   3.721
15028W        W74322   4.775  17.169  13.457
15029W        W74323  38.925   9.717  13.827
15030W        W74324   0.458  18.787  14.834
15031W        W74325   0.253   9.344   2.386
15032W        W74326  42.870  43.942  13.928
15033W        W74327  21.088  10.314  10.006
15034W        W74328  27.609  33.470  10.478
15035W        W74329  38.549  36.952  11.996
15036W        W74330   5.718  26.020   4.789
15037W        W74331  21.551  37.443   1.802
15038W        W74332  34.065  31.991  11.440
15039W        W74333  41.919   6.280   4.162
15040W        W74334  18.640  11.857  12.517
15041W        W74335  16.303  32.037  13.981
15042W        W74336   5.429  36.891   4.150
15043W        W74337  17.736  21.212   3.251
15044W        W74338  36.364  43.843   2.319
15045W        W74339  15.770   3.398   2.735
15046W        W74340  44.844  37.984  11.570
15047W        W74341  13.127  34.614  14.365
15048W        W74342  20.639  30.134  11.037
15049W        W74343  24.505  39.952  11.578
15050W        W74344  21.640  23.526   4.215
15051W        W74345  31.018  13.212   4.142
15052W        W74346  36.388  23.517   1.795
15053W        W74347   8.165  29.606   4.632
15054W        W74348  17.770  39.882   3.273
15055W        W74349  16.580  22.095   4.129
15056W        W74350  22.596  40.418   1.246
15057W        W74351  38.410  39.958   3.378
15058W        W74352  20.172   5.406   4.165
15059W        W74353  10.690  21.189  10.547
15060W        W74354  31.953  38.982   0.912
15061W        W74355  13.336  14.741  12.911
15062W        W74356  16.745  35.558  13.034
15063W        W74357  42.304  15.760  14.826
15064W        W74358   2.888  39.870   4.347
15065W        W74359   9.351  21.089  13.507
15066W        W74360  36.552  32.068   1.334
15067W        W74361  17.589  23.157  13.393
15068W        W74362  23.661   5.277   2.391
15069W        W74363   1.323  28.597  13.793
15070W        W74364   0.262   0.463  11.437
15071W        W74365   6.350  35.007   2.731
15072W        W74366  18.101  26.668  13.021
15073W        W74367  16.100   5.702   2.400
15074W        W74368  40.933  36.018  12.399
15075W        W74369  30.161  19.085   1.408
15076W        W74370  42.852  39.419  12.919
15077W        W74371   1.285  38.960  11.110
15078W        W74372  28.064  30.988  11.101
15079W        W74373  27.092  39.426  11.985
15080W        W74374  44.892   6.772  12.391
15081W        W74375  20.602  44.984   4.327
15082W        W74376   0.421  16.160  12.065
15083W        W74377  28.492   5.830   1.885
15084W        W74378   6.306  10.719  14.360
15085W        W74379  38.047  31.923  11.579
15086W        W74380  25.696  40.370  13.438
15087W        W74381   3.431   9.385  11.569
15088W        W74382   3.842  25.588  13.965
15089W        W74383  15.104  10.325  13.949
15090W        W74384  12.803  41.423  11.406
15091W        W74385   0.936  15.689  13.362
15092W        W74386  32.895  21.215  11.597
15093W        W74387  27.497   8.738  12.829
15094W        W74388  34.550   4.333   2.359
15095W        W74389  37.943  25.099   4.189
15096W        W74390   7.187  31.589  14.355
15097W        W74391  39.977   4.720   0.737
15098W        W74392  13.215  17.274   2.746
15099W        W74393   6.255  36.975  13.518
15100W        W74394  23.195  27.040  14.512
15101W        W74395  30.625  31.105  13.516
15102W        W74396  43.302  16.678  14.353
15103W        W74397  41.325   1.944  11.519
15104W        W74398  11.302  23.631   3.305
15105W        W74399  40.383  12.226  14.484
15106W        W74400  10.165  17.728   4.186
15107W        W74401   9.666  20.137  10.430
15108W        W74402  17.159  35.930  14.372
15109W        W74403  43.297   6.846  11.894
15110W        W74404  26.594  13.709  12.087
15111W        W74405  10.756   0.392  11.930
15112W        W74406  40.334   2.810   1.734
15113W        W74407  32.424   7.765  13.025
15114W        W74408  27.144  32.403  14.431
15115W        W74409  20.162   8.872  10.934
15116W        W74410   6.780  23.124  12.001
15117W        W74411  42.489  18.569   1.234
15118W        W74412  26.145  39.934   3.369
15119W        W74413  33.127  38.547  10.587
15120W        W74414   0.921  18.137   2.338
15121W        W74415  16.679  22.606   0.890
15122W        W74416   2.807  31.045  11.999
15123W        W74417   6.200  41.446  14.990
15124W        W74418  25.568   1.279   3.197
15125W        W74419  23.504  12.246  10.970
15126W        W74420  44.503  41.979   4.118
15127W        W74421  24.020  34.913   1.379
15128W        W74422   9.846  34.870  11.967
15129W        W74423   9.249  27.962   4.115
15130W        W74424  37.349  13.175  12.425
15131W        W74425   9.800  20.737   2.754
15132W        W74426  18.240   3.337  14.945
15133W        W74427   3.301  18.218  11.583
15134W        W74428  37.050  20.670  10.633
15135W        W74429   4.262  44.857   3.153
15136W        W74430   3.230  16.575   3.322
15137W        W74431  23.644   9.658   0.400
15138W        W74432   5.865  29.930  10.076
15139W        W74433  29.037  39.877   1.259
15140W        W74434  41.950  23.662   1.857
15141W        W74435  39.389   8.741  12.371
15142W        W74436   9.775  26.506   4.719
15143W        W74437  13.622   3.854  11.911
15144W        W74438  34.530  13.730  12.534
15145W        W74439   6.679   6.701   1.755
15146W        W74440  36.404  13.280  12.936
15147W        W74441  43.829  34.385   4.651
15148W        W74442   4.267  15.737  11.498
15149W        W74443  10.863  38.000  12.576
15150W        W74444  11.161  27.080   1.279
15151W        W74445   1.943  27.656  12.899
15152W        W74446  11.788  39.518   9.923
15153W        W74447  22.728  20.132  10.588
15154W        W74448   0.843  34.372  12.567
15155W        W74449  25.097  16.624   4.215
15156W        W74450  19.045  24.575  12.083
15157W        W74451   7.689  29.940   5.303
15158W        W74452   6.226  35.930  11.061
15159W        W74453   0.838  33.572  12.452
15160W        W74454  24.546  19.617  11.939
15161W        W74455  27.575  36.045   4.756
15162W        W74456  23.564  15.807   0.877
15163W        W74457  43.898   1.947  13.322
15164W        W74458   5.795  38.527  13.336
15165W        W74459  23.518   5.335  13.912
15166W        W74460  18.057  13.662  14.428
15167W        W74461  44.303  38.985   4.161
15168W        W74462   3.328  30.485   3.190
15169W        W74463  14.126  14.808   0.422
15170W        W74464  16.676  39.010   1.851
15171W        W74465   5.336   5.707   4.612
15172W        W74466  40.485  34.461  10.434
15173W        W74467  34.424  33.052   1.288
15174W        W74468  31.454  12.849  11.956
15175W        W74469  32.565  35.936  14.762
15176W        W74470  12.695  16.609  11.414
15177W        W74471   7.743  22.130  14.496
15178W        W74472  18.150   3.842   4.144
15179W        W74473   5.824  20.142  12.552
15180W        W74474   7.401  36.522  13.050
15181W        W74475  39.949  43.895   4.669
15182W        W74476  40.917  34.099  10.427
15183W        W74477  32.124   9.285  11.935
15184W        W74478  43.791  21.197  13.380
15185W        W74479  29.989  29.586   2.287
15186W        W74480   5.333   1.864  11.015
15187W        W74481   0.435  21.154  14.499
15188W        W74482  10.260  39.835  11.891
15189W        W74483  25.539  35.414  12.488
15190W        W74484  24.022   6.676  12.410
15191W        W74485  41.348  40.312  10.481
15192W        W74486  12.696  15.147   4.701
15193W        W74487   4.376  17.787   0.813
15194W        W74488  31.960  41.804   2.859
15195W        W74489   3.433   8.712   2.883
15196W        W74490  27.625  15.628  14.279
15197W        W74491  34.109  22.662  10.471
15198W        W74492  26.027  28.614  10.993
15199W        W74493  30.988  24.103  12.066
15200W        W74494  22.599  43.802   4.227
15201W        W74495  42.466  43.773  13.376
15202W        W74496   5.333  43.876   3.319
15203W        W74497   5.298  13.629   4.239
15204W        W74498  11.825  21.547   1.821
15205W        W74499  32.910   2.315  13.031
15206W        W74500  10.721  17.688  13.054
15207W        W74501   2.271  42.410  11.502
15208W        W74502  34.486  14.725   4.741
15209W        W74503  16.312  41.925   0.481
15210W        W74504  38.015  40.983  12.538
15211W        W74505  40.824  16.234   0.389
15212W        W74506  26.970  37.970   3.233
15213W        W74507  39.320   2.795  14.025
15214W        W74508  26.501  19.753   3.277
15215W        W74509  35.095  20.729   2.885
15216W        W74510   2.790  32.056  14.788
15217W        W74511   0.265   9.269   2.872
15218W        W74512   2.868   7.850  12.831
15219W        W74513   3.726  37.940  14.955
15220W        W74514  35.562  30.566  13.895
15221W        W74515  17.075  22.044  11.107
15222W        W74516  24.093   2.276  14.507
15223W        W74517  17.234   1.783  13.027
15224W        W74518  27.634  43.361  11.903
15225W        W74519  29.617  30.072   1.801
15226W        W74520   7.881  18.585   0.353
15227W        W74521   6.211  32.963   3.172
15228W        W74522  30.022  20.171  13.877
15229W        W74523  22.064  34.010  14.018
15230W        W74524  10.330   7.714   0.291
15231W        W74525   9.250  31.070  11.556
15232W        W74526  32.068  11.642  11.477
15233W        W74527   3.407  18.718  10.993
15234W        W74528  21.121   8.736   2.890
15235W        W74529  41.875  38.500  13.425
15236W        W74530  10.659  26.636   1.320
15237W        W74531  42.488  15.200   2.792
15238W        W74532  34.931  42.863   1.899
15239W        W74533  12.714  12.249   1.262
15240W        W74534  20.186  10.787   4.253
15241W        W74535  40.930   0.256  11.558
15242W        W74536  31.505  13.233   4.344
15243W        W74537  43.499  40.397  11.896
15244W        W74538  42.024  40.523   2.687
15245W        W74539  26.535   5.331   1.450
15246W        W74540  18.187  41.423   1.850
15247W        W74541  33.415  31.500  13.925
15248W        W74542  13.195  33.947  10.495
15249W        W74543   2.236  40.534  12.436
15250W        W74544   8.694   4.863  10.940
15251W        W74545  27.657  38.995  11.856
15252W        W74546  29.950   0.916  12.424
15253W        W74547  34.098   4.889  12.445
15254W        W74548  39.404  39.973  13.320
15255W        W74549  42.925  44.484  11.995
15256W        W74550  41.465  26.584  12.087
15257W        W74551  40.959   6.779  12.046
15258W        W74552  16.190   4.883   2.411
15259W        W74553  34.424  34.007   9.964
15260W        W74554   9.804  36.568   4.254
15261W        W74555  41.358   6.897   0.287
15262W        W74556  39.901  17.161  10.914
15263W        W74557  37.470  18.144   2.409
15264W        W74558   9.155  42.839  14.360
15265W        W74559  34.511  39.023   2.766
15266W        W74560  28.511  41.305   0.380
15267W        W74561  10.847  28.940  13.865
15268W        W74562   9.347  29.126  10.452
15269W        W74563  30.539  25.213  14.798
15270W        W74564  20.121  41.974  12.538
15271W        W74565  13.762  20.217   3.865
15272W        W74566  44.401  25.560   5.198
15273W        W74567  16.703  11.295  11.565
15274W        W74568  30.914  24.982  10.539
15275W        W74569  23.098  11.310  13.548
15276W        W74570  38.010  30.454  11.967
15277W        W74571  39.400  34.041   3.798
15278W        W74572  12.151  34.585   2.891
15279W        W74573   9.736   9.339  11.540
15280W        W74574  37.434   7.311  11.024
15281W        W74575  32.058  42.839  14.431
15282W        W74576  24.500  20.552   1.863
15283W        W74577   2.392  16.678   0.458
15284W        W74578   4.800  17.253  14.965
15285W        W74579  34.899  10.252  10.623
15286W        W74580  26.657  25.984  12.439
15287W        W74581  16.213   3.430  10.992
15288W        W74582  29.663  23.618  11.422
15289W        W74583  12.338  19.565   3.728
15290W        W74584   5.853   7.416  12.035
15291W        W74585  43.340   8.864  10.409
15292W        W74586  24.015  38.341   2.349
15293W        W74587  28.024  30.547   2.837
15294W        W74588  10.711  42.813   4.210
15295W        W74589  34.921  28.111  13.841
15296W        W74590  43.933  38.006   0.339
15297W        W74591  42.928  31.530   0.328
15298W        W74592  36.583   8.210  14.390
15299W        W74593   6.299  19.243  11.991
15300W        W74594  41.446  22.578   1.711
15301W        W74595  19.687  41.900   2.362
15302W        W74596  24.215  43.353   2.877
15303W        W74597   2.937  38.891   2.221
15304W        W74598  18.271  15.191   3.798
15305W        W74599   1.347   6.345   0.882
15306W        W74600  24.167  13.133  13.931
15307W        W74601   7.692  27.626  11.550
15308W        W74602  38.840  10.216   1.411
15309W        W74603  40.958   8.173   2.752
15310W        W74604  13.708  30.009  11.590
15311W        W74605  20.614   0.897   2.347
15312W        W74606  31.997  43.287  11.544
15313W        W74607  13.308  14.786   1.833
15314W        W74608  44.480  29.090  10.076
15315W        W74609  39.036  28.016   1.311
15316W        W74610  18.208  23.185   1.349
15317W        W74611   8.797   4.875   2.205
15318W        W74612  41.874  40.014  14.951
15319W        W74613  27.012  28.964   0.367
15320W        W74614  42.945  18.628  10.958
15321W        W74615  40.441  22.138  13.961
15322W        W74616  12.335  35.038  13.475
15323W        W74617   1.410  16.128  13.808
15324W        W74618  12.645  21.233   0.729
15325W        W74619  24.720   9.241  10.119
15326W        W74620  25.501   3.796  11.881
15327W        W74621  12.353   8.192   4.153
15328W        W74622  41.384  21.152   3.689
15329W        W74623  35.977  22.586   0.751
15330W        W74624  31.044  31.953   1.837
15331W        W74625   2.797  41.813  12.556
15332W        W74626   8.216  41.797  14.884
15333W        W74627   8.362   5.285   0.860
15334W        W74628  23.136  23.099   0.736
15335W        W74629  25.049  35.929   3.723
15336W        W74630  17.197  11.670  13.501
15337W        W74631   2.363  30.503  11.963
15338W        W74632  11.863  36.486  12.503
15339W        W74633  21.214  34.021   4.218
15340W        W74634   2.290  35.576   4.184
15341W        W74635   5.770  31.123   3.284
15342W        W74636  25.652  31.135   4.762
15343W        W74637  29.460  27.603   2.753
15344W        W74638  43.345  19.182  14.947
15345W        W74639  13.672  31.525  12.575
15346W        W74640  27.559  34.066   0.844
15347W        W74641  42.792  20.160   3.181
15348W        W74642   4.776  33.912  12.000
15349W        W74643  37.942   6.237  13.993
15350W        W74644   6.426   1.864   2.729
15351W        W74645  12.289  21.748   2.787
15352W        W74646  14.619  30.072   0.381
15353W        W74647  14.104  35.991  13.972
15354W        W74648   0.915  27.688   2.822
15355W        W74649  44.367  15.715   2.305
15356W        W74650  13.191   6.366  12.418
15357W        W74651  20.561  35.579  12.369
15358W        W74652  25.130  32.107   2.281
15359W        W74653  27.060  32.580   0.925
15360W        W74654  42.847  38.062   1.903
15361W        W74655  26.165   3.417  13.366
15362W        W74656  20.110   0.398  14.361
15363W        W74657  27.016   4.885   9.936
15364W        W74658  22.195  36.969  13.514
15365W        W74659  25.015  15.213   2.765
15366W        W74660  38.973  22.152   0.962
15367W        W74661  43.932   4.797   2.398
15368W        W74662   3.911  28.545  11.999
15369W        W74663  34.905  18.547   3.836
15370W        W74664  27.684  27.562   4.788
15371W        W74665   4.238   8.320  14.016
15372W        W74666  40.841  44.876  11.973
15373W        W74667  25.053  24.223   2.665
15374W        W74668  37.851  23.605  12.579
15375W        W74669  43.828  31.468   0.948
15376W        W74670  42.010  28.048  13.493
15377W        W74671   4.898  33.534  14.837
15378W        W74672  41.298  30.601  13.914
15379W        W74673  29.622  22.028   2.725
15380W        W74674  44.937  23.036   0.460
15381W        W74675   8.693  12.681  10.895
15382W        W74676  12.810  43.925  11.442
15383W        W74677  14.810   7.205   4.654
15384W        W74678  10.855  17.682   1.712
15385W        W74679  24.584  34.069   4.202
15386W        W74680   2.753  12.251  11.387
15387W        W74681   7.781  14.211   1.777
15388W        W74682  32.062  16.691  13.931
15389W        W74683  33.969   5.861   0.794
15390W        W74684   1.836  17.072  11.379
15391W        W74685   9.240  26.099   0.276
15392W        W74686  38.831   1.337  13.001
15393W        W74687   1.748   5.316  14.965
15394W        W74688  33.879  40.308  12.435
15395W        W74689  21.521   6.795   2.291
15396W        W74690  40.472  29.490   2.899
15397W        W74691  31.074  34.895   3.694
15398W        W74692  14.223  26.492  13.826
15399W        W74693  35.416  26.079   4.648
15400W        W74694  32.978  23.693   3.739
15401W        W74695  38.957  40.844   1.922
15402W        W74696  22.066   7.740   2.400
15403W        W74697  22.234  10.259  14.427
15404W        W74698  11.786   8.781   3.673
15405W        W74699  20.128  17.073  12.919
15406W        W74700   3.266  13.667   1.348
15407W        W74701  32.467  29.136   1.889
15408W        W74702  13.281  34.927  14.877
15409W        W74703  40.511  18.153   0.396
15410W        W74704  16.662  24.194  12.453
15411W        W74705  21.192   7.253  12.442
15412W        W74706  27.148   2.455  14.772
15413W        W74707  19.710  32.399  14.342
15414W        W74708  16.672  41.475   0.329
15415W        W74709  18.097  24.683  12.824
15416W        W74710  20.235  14.677  12.378
15417W        W74711  34.406   6.826   4.186
15418W        W74712  39.322   5.892  12.347
15419W        W74713  14.630  28.593   3.263
15420W        W74714   8.233   3.926  14.881
15421W        W74715  19.755   1.930   4.813
15422W        W74716   9.210  42.460   2.325
15423W        W74717   0.776  44.483   4.676
15424W        W74718  13.282  27.978  10.514
15425W        W74719   8.674  34.905  12.860
15426W        W74720   0.476  10.205   0.425
15427W        W74721   4.815   4.934   2.247
15428W        W74722  36.013  16.079  12.056
15429W        W74723  24.711  27.644  11.083
15430W        W74724  12.193  10.740   0.457
15431W        W74725  41.010  10.227   2.294
15432W        W74726  34.094   3.732  10.549
15433W        W74727  20.089  44.324  12.040
15434W        W74728  13.215  20.670  10.896
15435W        W74729  38.952  12.697  14.483
15436W        W74730  18.053  30.155  14.393
15437W        W74731  23.545  24.608   2.352
15438W        W74732   5.332  42.798  11.432
15439W        W74733  17.665   9.171   3.648
15440W        W74734   3.790  14.766   4.319
15441W        W74735  16.705  27.082  12.529
15442W        W74736  33.387   0.343  12.065
15443W        W74737  23.718   2.321   4.644
15444W        W74738   8.863  20.614   2.249
15445W        W74739  37.841  43.351   4.745
15446W        W74740  44.930  21.193  12.025
15447W        W74741  16.672  35.861  13.334
15448W        W74742  14.778   2.283   2.902
15449W        W74743  43.507   4.300   3.337
15450W        W74744  16.740  37.079  13.491
15451W        W74745   8.225  20.723  11.972
15452W        W74746  42.460  26.200   2.696
15453W        W74747  37.531  33.398  10.941
15454W        W74748  33.068  32.617  12.041
15455W        W74749  30.925  27.467   0.741
15456W        W74750  44.279  19.586   3.183
15457W        W74751   1.324   4.914   4.228
15458W        W74752  17.207  31.129  10.966
15459W        W74753  42.404   9.191  13.522
15460W        W74754  35.043  16.074   1.834
15461W        W74755  25.555  18.238   1.917
15462W        W74756  18.294  16.660  14.450
15463W        W74757  44.977  18.216   3.286
15464W        W74758   5.915  13.661   2.706
15465W        W74759  29.148  24.141  10.592
15466W        W74760  37.013  29.920   2.899
15467W        W74761   0.411  27.180   0.320
15468W        W74762   9.335  12.790  12.389
15469W        W74763  36.968   4.366  14.942
15470W        W74764  17.701  31.146  12.431
15471W        W74765  37.873  12.315  12.006
15472W        W74766  23.638   5.437   0.267
15473W        W74767  41.932  41.307  10.619
15474W        W74768   0.910  16.713   3.173
15475W        W74769   1.296  42.353  13.426
15476W        W74770  23.658  33.979   2.350
15477W        W74771  31.071  31.977  12.020
15478W        W74772  10.270  27.490  11.373
15479W        W74773  27.454   5.689   3.355
15480W        W74774   0.920  42.802  10.080
15481W        W74775  13.767  14.596  14.913
15482W        W74776  39.356  23.148   0.350
15483W        W74777  34.073  24.699  11.456
15484W        W74778  16.784  16.741  13.953
15485W        W74779  21.169  32.597   4.819
15486W        W74780   0.942   7.343   1.381
15487W        W74781  22.501   2.743  13.012
15488W        W74782  42.456  26.995   2.199
15489W        W74783   2.308  24.178  13.412
15490W        W74784  30.994   3.726  11.914
15491W        W74785   0.390  44.480  13.489
15492W        W74786  43.301  32.070   0.375
15493W        W74787  34.531  31.415  12.557
15494W        W74788  15.190  28.499  11.873
15495W        W74789   8.867  41.821   5.136
15496W        W74790  33.975  41.453  12.379
15497W        W74791   6.286  20.605   0.427
15498W        W74792   8.758   8.658  13.849
15499W        W74793  28.500  24.495   1.887
15500W        W74794   2.922  38.967  11.410
15501W        W74795  25.499  32.131   2.183
15502W        W74796  28.573  36.514  14.977
15503W        W74797  19.076  44.353   0.848
15504W        W74798   3.952  10.241   1.372
15505W        W74799   1.872  17.563  10.477
15506W        W74800  18.151  19.163   0.755
15507W        W74801  29.621   1.397   3.796
15508W        W74802  33.561  17.090  10.979
15509W        W74803  34.605  40.358   0.805
15510W        W74804  44.975  30.584  12.473
15511W        W74805   3.790   9.209   2.671
15512W        W74806  12.144   0.919  14.423
15513W        W74807  31.957   5.862  11.475
15514W        W74808  18.149   6.323   0.276
15515W        W74809  39.973  24.681   3.288
15516W        W74810  24.077  40.875   3.800
15517W        W74811  38.543  20.670  12.565
15518W        W74812  33.500  26.161  13.856
15519W        W74813  43.325   8.721  12.037
15520W        W74814  15.094   3.451   2.891
15521W        W74815   6.216   6.211   4.760
15522W        W74816  27.962  25.186   3.742
15523W        W74817   5.398  18.567  14.912
15524W        W74818  12.341  43.803  11.868
15525W        W74819   9.262  40.035   0.278
15526W        W74820  17.268  30.020   4.164
15527W        W74821  33.016   0.951  10.573
15528W        W74822  34.118   6.281   1.858
15529W        W74823   7.227  19.760   3.707
15530W        W74824  28.440  29.031  13.878
15531W        W74825  17.272  10.355   0.331
15532W        W74826   6.391  12.808   0.364
15533W        W74827  21.596  38.513   0.385
15534W        W74828  30.013  43.457   0.285
15535W        W74829   7.336  38.886  12.943
15536W        W74830  27.007  43.909  14.872
15537W        W74831  38.434  42.489  14.952
15538W        W74832  18.283  23.675  10.925
15539W        W74833  28.609  35.467   2.777
15540W        W74834  33.948   8.708   3.173
15541W        W74835  39.440  33.535   3.799
15542W        W74836   7.400  23.582   4.702
15543W        W74837   6.332  26.069  14.954
15544W        W74838  40.975  17.126  11.560
15545W        W74839  27.069  38.475  11.480
15546W        W74840  40.942  36.531   2.223
15547W        W74841  27.993  27.576  12.415
15548W        W74842   0.765  20.619  14.443
15549W        W74843  43.839  26.124  11.001
15550W        W74844  20.624  42.948  10.937
15551W        W74845  23.182  16.178  11.954
15552W        W74846  26.000  33.051   1.273
15553W        W74847  23.532   4.260  13.421
15554W        W74848   1.264   5.833  10.576
15555W        W74849  16.576  29.041  14.865
15556W        W74850   8.757  44.388  12.483
15557W        W74851  38.462  33.469   4.126
15558W        W74852  20.274  20.644   1.224
15559W        W74853  15.585  18.196  13.889
15560W        W74854  29.935  44.784   4.740
15561W        W74855  31.099  27.662   3.858
15562W        W74856  29.567   3.844   2.802
15563W        W74857  34.933  36.947  14.481
15564W        W74858  27.992  23.600   5.275
15565W        W74859  37.930   8.169  12.075
15566W        W74860  41.986   4.436  11.533
15567W        W74861   0.944  44.938   3.634
15568W        W74862   9.284  27.990  12.066
15569W        W74863  39.375   0.914   1.898
15570W        W74864  12.790  20.601   2.250
15571W        W74865  41.460  30.076  13.050
15572W        W74866  22.561   5.707  12.519
15573W        W74867  24.172  17.800  10.415
15574W        W74868  16.072  31.609   3.243
15575W        W74869  19.199  20.741   0.451
15576W        W74870   3.387   3.737  10.962
15577W        W74871  25.612  40.429   0.341
15578W        W74872   2.788  44.302  14.937
15579W        W74873  10.688  43.478  11.373
15580W        W74874   3.409  19.056  12.892
15581W        W74875  32.635  43.453   3.813
15582W        W74876   9.242  20.142  10.475
15583W        W74877  19.673   8.348   5.196
15584W        W74878   1.432  22.706   3.314
15585W        W74879  28.622   7.730  10.505
15586W        W74880   8.778  37.023   4.195
15587W        W74881  23.076  30.526   1.811
15588W        W74882  12.210  19.748   3.235
15589W        W74883   9.189   7.175  14.427
15590W        W74884  42.784  15.586  12.873
15591W        W74885   3.745   7.833  11.875
15592W        W74886  43.859  40.373  11.905
15593W        W74887  27.186  26.070   3.346
15594W        W74888  12.335   5.843   0.473
15595W        W74889  18.689   7.710  14.796
15596W        W74890  10.284  43.344   1.848
15597W        W74891  38.012   9.765   1.900
15598W        W74892   6.189  24.667   0.443
15599W        W74893  23.143  37.049   0.857
15600W        W74894  23.196  14.794  12.982
15601W        W74895  24.101  41.462  13.368
15602W        W74896  20.217   8.802   2.756
15603W        W74897  35.943   0.322  14.375
15604W        W74898  44.388  18.117  12.070
15605W        W74899  28.584   4.244  13.817
15606W        W74900  13.662  27.044  11.938
15607W        W74901  21.150  22.186  11.036
15608W        W74902  35.003  19.567  10.994
15609W        W74903  30.658   9.268  14.963
15610W        W74904   4.261  14.180   3.306
15611W        W74905  19.234   1.882  12.440
15612W        W74906  14.239  42.464  13.934
15613W        W74907  10.695  32.041   1.229
15614W        W74908  44.952  18.147  13.955
15615W        W74909  43.957  22.689   1.722
15616W        W74910  11.305  24.711   4.730
15617W        W74911  35.940  42.327   0.377
15618W        W74912   5.362   7.683  14.851
15619W        W74913   1.343  14.271  12.952
15620W        W74914  13.808  22.610   2.387
15621W        W74915  19.272  33.539  10.505
15622W        W74916   4.876   3.445  14.437
15623W        W74917   2.424   2.906  12.344
15624W        W74918  30.553  23.626  13.545
15625W        W74919  10.787   6.424  12.491
15626W        W74920  28.656  14.197  12.497
15627W        W74921  24.511   7.676   2.852
15628W        W74922  25.128  17.144   3.868
15629W        W74923  34.508  13.726  13.053
15630W        W74924  16.181  18.082   3.638
15631W        W74925  41.524  30.103  14.805
15632W        W74926  14.835   2.958   3.258
15633W        W74927   0.329  22.743   0.427
15634W        W74928   9.151   7.857   4.774
15635W        W74929   3.305  44.500  12.529
15636W        W74930  25.713  23.150   1.248
15637W        W74931  18.667  27.142  14.814
15638W        W74932  29.641   5.199   1.730
15639W        W74933  43.928  34.993  13.537
15640W        W74934   9.684  23.995   4.170
15641W        W74935  23.685  39.859   2.778
15642W        W74936  12.722  44.502  13.341
15643W        W74937  42.439   6.324   0.817
15644W        W74938  15.810  23.706  14.834
15645W        W74939   5.728  32.613  13.044
15646W        W74940  23.209  41.995  14.834
15647W        W74941  21.726  10.140   0.290
15648W        W74942  18.548  39.034  11.098
15649W        W74943  26.614  18.210   2.819
15650W        W74944  29.023  36.426   1.354
15651W        W74945   0.342   2.355  11.870
15652W        W74946  22.018  39.032   3.285
15653W        W74947  31.570   8.238   0.948
15654W        W74948  11.254   8.402   4.716
15655W        W74949  10.643  13.835  14.845
15656W        W74950  32.094  37.409   0.472
15657W        W74951   0.832   6.717  10.953
15658W        W74952   9.702  35.384  12.398
15659W        W74953  11.213  22.537   0.789
15660W        W74954  14.171  23.171   4.193
15661W        W74955   1.372  10.250  12.431
15662W        W74956  17.229  14.149  14.791
15663W        W74957  16.812  14.596   2.178
15664W        W74958  25.091  33.128   2.383
15665W        W74959  26.701  15.657  12.897
15666W        W74960   6.251   7.376   5.319
15667W        W74961  38.413   7.823   4.687
15668W        W74962   7.300  11.856  14.846
15669W        W74963  17.228  42.845  13.921
15670W        W74964  23.557  32.462   0.789
15671W        W74965  18.214  38.941   4.657
15672W        W74966  15.765  42.491   3.641
15673W        W74967  37.361  16.796  11.014
15674W        W74968  41.439  44.895  14.388
15675W        W74969  24.690   3.785  13.539
15676W        W74970  24.990  23.241   4.738
15677W        W74971   8.251  21.115  14.815
15678W        W74972  28.435   6.798  14.289
15679W        W74973  37.453  34.576  13.864
15680W        W74974  20.100  39.510  10.532
15681W        W74975  26.554  22.725  11.463
15682W        W74976  33.104   3.800  14.923
15683W        W74977   7.249   7.789  14.838
15684W        W74978   2.879  39.937   2.184
15685W        W74979  32.947  16.727  14.963
15686W        W74980   1.330  15.591   2.836
15687W        W74981   8.370  32.920   2.302
15688W        W74982  15.627   3.329   0.927
15689W        W74983  24.026  31.583   2.697
15690W        W74984  26.462   2.867  10.497
15691W        W74985   5.275  13.324   3.863
15692W        W74986  10.858   1.271   5.722
15693W        W74987  10.173  16.692   2.325
15694W        W74988  44.289  40.377   4.630
15695W        W74989  11.820  28.562  10.621
15696W        W74990  34.071  23.024  11.997
15697W        W74991  41.018  41.792  12.364
15698W        W74992  27.095  42.479  12.824
15699W        W74993  40.868  23.035  11.589
15700W        W74994  35.451  31.614  13.473
15701W        W74995  12.266  37.972  10.539
15702W        W74996  42.875  25.155   4.737
15703W        W74997  31.595   6.386   1.852
15704W        W74998   2.411  22.539  10.611
15705W        W74999  44.343  33.908   1.823
15706W        W75000  31.020  26.611   9.991
15707W        W75001  15.109   2.756   0.936
15708W        W75002  13.256  30.087   0.476
15709W        W75003  30.924  14.283   2.378
15710W        W75004  39.348  16.105  12.998
15711W        W75005  23.576  29.010  12.417
15712W        W75006  13.303  18.236  14.817
15713W        W75007  41.901  33.416   2.281
15714W        W75008  13.135  30.425   1.255
15715W        W75009  32.138  12.686  14.927
15716W        W75010  17.091  26.604   2.194
15717W        W75011   1.241   4.206  11.549
15718W        W75012  28.110  25.100  13.036
15719W        W75013  41.025   7.787  11.462
15720W        W75014  15.200  29.125  10.968
15721W        W75015  11.750  28.934   4.246
15722W        W75016   2.770  24.696   2.351
15723W        W75017  33.906  12.623   2.396
15724W        W75018  26.561   0.344   3.357
15725W        W75019  22.052   8.406   1.739
15726W        W75020  24.490  11.748   2.704
15727W        W75021  18.261  40.039   0.777
15728W        W75022   9.245  31.910   1.272
15729W        W75023  15.102  20.215  12.991
15730W        W75024  33.502  19.655  14.447
15731W        W75025  44.803  16.677   2.335
15732W        W75026  29.571  16.647   0.466
15733W        W75027  39.351  23.523   1.384
15734W        W75028  11.702  10.677   1.856
15735W        W75029  35.402   6.281  13.938
15736W        W75030  26.024  22.204   4.221
15737W        W75031  40.987  40.952   2.826
15738W        W75032  31.128  29.012   2.751
15739W        W75033  38.478  34.533  13.810
15740W        W75034  17.223  21.641   1.814
15741W        W75035  37.086  40.303  13.402
15742W        W75036  23.688  40.031  11.888
15743W        W75037  16.639  18.648  14.464
15744W        W75038  13.744  27.959  13.377
15745W        W75039   0.317  27.192  14.779
15746W        W75040   8.676  34.427   0.440
15747W        W75041  40.547  34.042  11.448
15748W        W75042   2.427  20.152   3.362
15749W        W75043  20.682  37.976   3.321
15750W        W75044  15.760  29.524   2.869
15751W        W75045  25.091  30.977  14.371
15752W        W75046  21.055  17.570  12.087
15753W        W75047  28.085  34.910   0.464
15754W        W75048  30.518  27.690  14.279
15755W        W75049   2.863  32.032  14.287
15756W        W75050   3.259  34.442  11.906
15757W        W75051  28.179  18.670   2.661
15758W        W75052  35.880  17.219  11.377
15759W        W75053  40.363  42.418  11.995
15760W        W75054  21.148  27.524   1.763
15761W        W75055  16.317   7.707  11.540
15762W        W75056  12.841  29.968  14.500
15763W        W75057  20.079  24.510  13.854
15764W        W75058  29.453  44.930   2.307
15765W        W75059  22.116  39.401   2.692
15766W        W75060  14.785  29.076   4.798
15767W        W75061  23.700  28.672  14.464
15768W        W75062  15.777  22.665  13.797
15769W        W75063  19.067   8.841  12.990
15770W        W75064  18.197  40.973  12.863
15771W        W75065  30.609   2.771   2.793
15772W        W75066  14.828  22.086   1.247
15773W        W75067  12.151  41.004  13.989
15774W        W75068  44.387  31.054  10.533
15775W        W75069  31.404  23.986   1.301
15776W        W75070  11.839  32.410  10.443
15777W        W75071  19.731  24.486   3.681
15778W        W75072  43.335  19.152  14.373
15779W        W75073  12.335  20.532   4.201
15780W        W75074   2.768  26.991   1.394
15781W        W75075  29.047   5.752  14.866
15782W        W75076  13.338  25.643   1.789
15783W        W75077  28.173   7.869   4.163
15784W        W75078  34.871  42.337  13.376
15785W        W75079  40.861  37.918   2.702
15786W        W75080  17.777  14.317  12.962
15787W        W75081  39.894  17.306  12.515
15788W        W75082  10.690  32.548   0.896
15789W        W75083  34.901  34.988  13.804
15790W        W75084  31.058  13.832  12.452
15791W        W75085   3.337   5.224   4.767
15792W        W75086   3.444   6.773   2.705
15793W        W75087  38.982   5.706   1.214
15794W        W75088  14.293  15.781  14.331
15795W        W75089  26.994  33.999   2.752
15796W        W75090  42.837  39.510   4.226
15797W        W75091   5.848  36.010  11.953
15798W        W75092  26.993  35.460   1.755
15799W        W75093  42.441  24.682   0.805
15800W        W75094  26.052   3.818   3.204
15801W        W75095  15.114  25.560   3.691
15802W        W75096  24.630   0.769  13.431
15803W        W75097  18.174  32.949   3.161
15804W        W75098  11.626  10.867   4.287
15805W        W75099  25.009  39.438   2.852
15806W        W75100  24.553  15.714  12.865
15807W        W75101  14.606  41.336   2.724
15808W        W75102  24.583  37.066   0.377
15809W        W75103  15.179  22.183  12.465
15810W        W75104  28.488  26.176   4.139
15811W        W75105  35.506  28.552  10.406
15812W        W75106   4.279  13.842  11.447
15813W        W75107  34.012   3.398  12.500
15814W        W75108  33.974  11.749   2.338
15815W        W75109  17.793  42.863   2.354
15816W        W75110   6.681   4.393  13.532
15817W        W75111  14.157  42.325  14.989
15818W        W75112  31.897  38.360   1.317
15819W        W75113  22.197  28.513  11.449
15820W        W75114  34.416  15.620  12.360
15821W        W75115  22.080  31.644  11.935
15822W        W75116  25.213  25.130   2.671
15823W        W75117   1.797  11.217   0.934
15824W        W75118  31.552  44.943   3.631
15825W        W75119  18.052  37.052  12.393
15826W        W75120  38.855   0.900   0.276
15827W        W75121   7.802  22.728  13.358
15828W        W75122  32.422  39.505   0.883
15829W        W75123  40.898  30.556   0.450
15830W        W75124  38.929  19.598  14.891
15831W        W75125  12.745  22.023  13.459
15832W        W75126  41.389   6.257  11.612
15833W        W75127  15.730  26.116  14.357
15834W        W75128  10.760   2.416   9.666
15835W        W75129   1.411  24.662  13.842
15836W        W75130  10.370  17.647   2.304
15837W        W75131  29.518  18.706  11.381
15838W        W75132  12.276  42.843   0.956
15839W        W75133  19.618  37.086   2.182
15840W        W75134  34.866  10.868  10.902
15841W        W75135   7.251  10.280  10.520
15842W        W75136  31.070  30.553  10.020
15843W        W75137  38.361  25.071   1.781
15844W        W75138   0.909   4.700  12.092
15845W        W75139  22.518  27.638   4.299
15846W        W75140  21.170  26.112   1.826
15847W        W75141  40.813  14.738   4.344
15848W        W75142   9.319   1.369   0.372
15849W        W75143  30.450   8.318   2.223
15850W        W75144  33.090  28.522   0.261
15851W        W75145  28.477  12.631  11.121
15852W        W75146  11.714  16.587   3.705
15853W        W75147   1.274  10.346  11.441
15854W        W75148  39.427   2.392   0.318
15855W        W75149  22.248  34.614   0.400
15856W        W75150  38.034  38.541  14.025
15857W        W75151  31.564  30.105   4.777
15858W        W75152  23.076  14.815  13.963
15859W        W75153  21.532  17.731   2.409
15860W        W75154  14.095   4.746   5.286
15861W        W75155  41.310  41.470   2.211
15862W        W75156  30.560  21.180   1.234
15863W        W75157  14.145  18.182   1.376
15864W        W75158  22.019  25.489   0.759
15865W        W75159  15.699  21.744   9.984
15866W        W75160   2.315   0.800   2.711
15867W        W75161  32.069  31.908  11.562
15868W        W75162  33.064   7.256  13.841
15869W        W75163  37.535  38.516   1.779
15870W        W75164  36.878  31.093   1.744
15871W        W75165  28.165  12.819   0.340
15872W        W75166  41.917  30.556   2.321
15873W        W75167  37.017  14.675   1.319
15874W        W75168  24.621   8.813  14.281
15875W        W75169  18.599  43.917  12.834
15876W        W75170   0.248  32.475   2.683
15877W        W75171  31.582   7.414  11.108
15878W        W75172  13.607   1.784   0.304
15879W        W75173  29.169  12.788   2.370
15880W        W75174  24.528   4.839   3.194
15881W        W75175  34.477  36.455   1.341
15882W        W75176   3.314  28.450   2.870
15883W        W75177  13.651   3.443  10.988
15884W        W75178  10.312  29.531  11.603
15885W        W75179  26.457  43.345  11.061
15886W        W75180  34.551  31.619   3.753
15887W        W75181  17.620  15.776   3.787
15888W        W75182  12.777  16.083   1.732
15889W        W75183  40.931  13.220   2.805
15890W        W75184   7.874  11.747  13.364
15891W        W75185  39.829   7.828  12.890
15892W        W75186  15.816   5.281   5.258
15893W        W75187   1.423   7.876  13.332
15894W        W75188  26.111  14.334  14.320
15895W        W75189  13.167  33.966  11.089
15896W        W75190  43.371  38.893  11.095
15897W        W75191  43.924  26.092   4.746
15898W        W75192   7.879   9.180   2.691
15899W        W75193  27.662   1.835   3.754
15900W        W75194  39.523  27.071  11.991
15901W        W75195  35.523  13.685  12.523
15902W        W75196   1.481  10.862  11.557
15903W        W75197  17.064  27.496   0.761
15904W        W75198  42.012  26.133   0.432
15905W        W75199  37.349  33.901   3.223
15906W        W75200   6.287  30.562   5.193
15907W        W75201  44.445   7.239   3.780
15908W        W75202  33.993  42.935   5.304
15909W        W75203  18.076   6.251  11.974
15910W        W75204  38.918  26.541  10.935
15911W        W75205  43.386  25.992  10.572
15912W        W75206  26.160  24.526  13.331
15913W        W75207  15.123  43.375  14.451
15914W        W75208  41.315  33.883   2.769
15915W        W75209  34.578   6.913   0.251
15916W        W75210  12.133   0.963   1.433
15917W        W75211   4.755  37.997   0.460
15918W        W75212  25.100  35.509   3.860
15919W        W75213  15.248  31.429  12.823
15920W        W75214  10.804  33.915  11.893
15921W        W75215  41.507   9.200  14.352
15922W        W75216  19.141  38.519  10.405
15923W        W75217  41.501   2.759   3.808
15924W        W75218   8.338  12.687   4.318
15925W        W75219  32.396  28.461  13.445
15926W        W75220  18.113  31.509  12.080
15927W        W75221  39.909  41.007  11.090
15928W        W75222  11.759  28.627   3.211
15929W        W75223  11.663   6.805   0.286
15930W        W75224   7.790   7.753  14.942
15931W        W75225  28.114  12.825  11.381
15932W        W75226  24.597  17.272   1.388
15933W        W75227  18.234  27.520   1.388
15934W        W75228   6.303  33.996   1.362
15935W        W75229  16.738  10.345   4.228
15936W        W75230  28.583   6.891   3.737
15937W        W75231  19.552  33.588   2.786
15938W        W75232  43.384   0.969   2.791
15939W        W75233   4.393  16.697  10.616
15940W        W75234   7.783  23.693   4.279
15941W        W75235  22.571  36.360   0.949
15942W        W75236  31.568  20.076   3.854
15943W        W75237   4.330  24.163   3.863
15944W        W75238   0.474  40.931  14.296
15945W        W75239  38.339  39.841   3.687
15946W        W75240  26.194   2.390  11.088
15947W        W75241  23.570  25.540  12.943
15948W        W75242  23.019  12.256   2.406
15949W        W75243  10.844  43.302   1.348
15950W        W75244  38.031   6.685   3.228
15951W        W75245  43.441  27.621  11.458
15952W        W75246  31.504  36.423   2.311
15953W        W75247  24.574   5.329  14.404
15954W        W75248  40.797  38.392   3.365
15955W        W75249  16.780   8.312  12.905
15956W        W75250   7.351  17.696  13.447
15957W        W75251   6.361  31.103  11.583
15958W        W75252  16.800  40.501   2.690
15959W        W75253  16.235  18.607  14.464
15960W        W75254  24.676  20.609  14.439
15961W        W75255  23.003   7.337   4.652
15962W        W75256  28.435  11.782   3.358
15963W        W75257  29.458   9.885  13.051
15964W        W75258  36.059  36.096   2.359
15965W        W75259  30.497   6.897   0.881
15966W        W75260   6.701  43.968   0.900
15967W        W75261   0.772  40.398  12.006
15968W        W75262  10.205   3.407   3.870
15969W        W75263  21.124   2.784   2.411
15970W        W75264  20.715  42.364  13.912
15971W        W75265  15.631   4.717   1.273
15972W        W75266  41.830  38.952  11.504
15973W        W75267  15.112  21.699  10.488
15974W        W75268   3.929  30.501  11.128
15975W        W75269  30.472  31.409  12.039
15976W        W75270   4.228   4.426  11.086
15977W        W75271   0.457   9.261   1.715
15978W        W75272  18.074   6.852   1.268
15979W        W75273  26.642  39.982  12.437
15980W        W75274  28.637   7.704  10.909
15981W        W75275  16.084  32.112   3.294
15982W        W75276  20.766  14.738   1.770
15983W        W75277   6.791  12.210  11.421
15984W        W75278  13.201  27.638  10.638
15985W        W75279  40.870  17.261  10.969
15986W        W75280  29.646  16.664  14.894
15987W        W75281   3.252  19.103  14.897
15988W        W75282  43.417  14.135  13.803
15989W        W75283   5.347  31.420   1.903
15990W        W75284  25.575   6.775   3.840
15991W        W75285   3.307  38.568  13.307
15992W        W75286   7.250  38.907   2.746
15993W        W75287  31.494  26.155  14.405
15994W        W75288  23.158   2.963  11.547
15995W        W75289  17.745  17.647   0.377
15996W        W75290  40.432  21.074   3.326
15997W        W75291  34.111   8.798   3.662
15998W        W75292   2.299  28.935   2.240
15999W        W75293  26.501  23.566  12.347
16000W        W75294  23.145  33.119   3.716
16001W        W75295  36.470  29.137   3.187
16002W        W75296  19.072  28.515  11.418
16003W        W75297  11.236  34.113  12.386
16004W        W75298  21.746  32.522  14.333
16005W        W75299  43.961   6.733   0.282
16006W        W75300   0.774  28.598  13.969
16007W        W75301  29.579  21.658  12.493
16008W        W75302  32.403  10.768  13.832
16009W        W75303  20.578  17.749   1.385
16010W        W75304  31.078  39.857  13.855
16011W        W75305  16.118  29.435  14.514
16012W        W75306  15.101  10.370   9.453
16013W        W75307   6.337  36.081   4.752
16014W        W75308   7.323  12.842   3.247
16015W        W75309  22.676  28.544  11.092
16016W        W75310  32.527  26.474   2.407
16017W        W75311  29.057  26.152   1.773
16018W        W75312  15.736  38.866  12.483
16019W        W75313   6.185   1.850   2.259
16020W        W75314   4.301  28.545  13.830
16021W        W75315  36.860  40.853   2.897
16022W        W75316  43.402   0.368   0.939
16023W        W75317  33.029  14.658   0.290
16024W        W75318  15.597  35.384  12.355
16025W        W75319  27.624  30.004  12.527
16026W        W75320  11.190  27.052  12.855
16027W        W75321  40.309  28.051   0.311
16028W        W75322  29.952  21.539   3.791
16029W        W75323  25.095  12.754  14.999
16030W        W75324  17.759   0.265  14.940
16031W        W75325  25.984  21.667   1.314
16032W        W75326  43.990  24.601  13.815
16033W        W75327  16.791  37.563   0.741
16034W        W75328  25.147   7.713   2.699
16035W        W75329  43.806  19.687   4.697
16036W        W75330  28.635  16.801  12.017
16037W        W75331  20.165  31.966   3.308
16038W        W75332  36.882  43.889   3.343
16039W        W75333  21.193  32.088   5.145
16040W        W75334   8.790   8.344   1.907
16041W        W75335  40.486  18.594   1.697
16042W        W75336  15.302   9.300   4.280
16043W        W75337  27.111  34.388   3.305
16044W        W75338  24.608  40.962  10.903
16045W        W75339  26.127  33.949   4.814
16046W        W75340   8.841  24.143   4.298
16047W        W75341  35.592  32.913  12.026
16048W        W75342  10.254  39.398   4.611
16049W        W75343  20.644  28.133   1.832
16050W        W75344  43.461  13.160  11.941
16051W        W75345  39.391  23.989   4.290
16052W        W75346  20.188  34.991  14.793
16053W        W75347  25.592  15.613   9.934
16054W        W75348   5.779  20.250   2.822
16055W        W75349  42.909  10.219  10.574
16056W        W75350  28.627  13.667  12.544
16057W        W75351  14.741   4.815  10.603
16058W        W75352  30.517  10.714  12.839
16059W        W75353   2.277  30.918  13.546
16060W        W75354   0.343   1.328  12.030
16061W        W75355  35.414   5.812  13.031
16062W        W75356  26.651  25.674  14.344
16063W        W75357  16.247  29.101   2.874
16064W        W75358   3.904  20.267   9.974
16065W        W75359  15.229  29.454   1.290
16066W        W75360   7.279  42.930   1.913
16067W        W75361  12.715  18.646  13.961
16068W        W75362   1.402   4.449   3.848
16069W        W75363  44.871  44.768  13.529
16070W        W75364  33.891  38.891  13.313
16071W        W75365   9.878   1.855   3.840
16072W        W75366  34.991  23.650   1.299
16073W        W75367  36.009   5.224  11.372
16074W        W75368  13.198  34.034   4.620
16075W        W75369  38.059  26.647   0.805
16076W        W75370  19.570  34.455  12.523
16077W        W75371  33.887  44.785  11.982
16078W        W75372  13.798  35.508   4.232
16079W        W75373  31.989  31.101  11.020
16080W        W75374  17.211  39.949   0.852
16081W        W75375  15.791  33.512  12.545
16082W        W75376  41.482   5.693   2.844
16083W        W75377  23.050  39.510  11.925
16084W        W75378  23.016  10.823   0.303
16085W        W75379  16.685  10.251  10.909
16086W        W75380  23.634  15.589  13.960
16087W        W75381  39.992   5.727   2.214
16088W        W75382  22.715  16.641  11.965
16089W        W75383   3.737  18.174  12.453
16090W        W75384  15.308  21.209   3.846
16091W        W75385  27.156  20.211  13.004
16092W        W75386  29.542  35.958  12.571
16093W        W75387   6.750  11.814  10.472
16094W        W75388  44.869  16.605   3.172
16095W        W75389   8.210  21.643  12.829
16096W        W75390  41.039  18.138   3.637
16097W        W75391  17.205  17.106  12.448
16098W        W75392  31.500  43.448   1.727
16099W        W75393   1.949  30.642   3.318
16100W        W75394  14.706  31.903   3.765
16101W        W75395  24.182   4.724   2.403
16102W        W75396   8.845  40.896  11.968
16103W        W75397  39.866  43.509   4.812
16104W        W75398  25.626  37.947  10.892
16105W        W75399  30.605  18.569  11.885
16106W        W75400  20.679  20.156   0.772
16107W        W75401  36.042   7.297   1.899
16108W        W75402  20.197  35.568  11.603
16109W        W75403  25.511  17.119  11.060
16110W        W75404  34.936   1.823   3.357
16111W        W75405  30.564  32.901   3.287
16112W        W75406   1.357  44.766  14.783
16113W        W75407  15.195  24.973  12.829
16114W        W75408  19.045  35.400   1.412
16115W        W75409  30.656  21.093   2.350
16116W        W75410  39.433   4.241  14.401
16117W        W75411  38.873   0.954  11.867
16118W        W75412  33.997  26.171  14.788
16119W        W75413   0.750   9.333  11.495
16120W        W75414  41.042  35.865   4.243
16121W        W75415  35.377  43.954   0.899
16122W        W75416  10.266  10.379   5.168
16123W        W75417  16.205  25.968  10.509
16124W        W75418  16.292  18.734   0.891
16125W        W75419  27.175   8.240   4.142
16126W        W75420  32.069  26.163  13.999
16127W        W75421  24.716  24.105  12.545
16128W        W75422   1.860  17.127  13.469
16129W        W75423  31.946  11.321   4.118
16130W        W75424   7.209  24.166   9.614
16131W        W75425  41.383   0.305  11.490
16132W        W75426   6.873   7.876   4.764
16133W        W75427  44.441   3.430   4.617
16134W        W75428  25.054   0.963  14.370
16135W        W75429  42.805  38.970  14.912
16136W        W75430  23.994   9.247  12.054
16137W        W75431  30.574  18.687  11.588
16138W        W75432   0.783  25.584  12.050
16139W        W75433  43.836  22.704  13.834
16140W        W75434  26.504  35.103   0.956
16141W        W75435  31.630  36.936  14.389
16142W        W75436   1.341  44.448  10.425
16143W        W75437  31.896  13.755   1.423
16144W        W75438  23.161  22.744   2.231
16145W        W75439  20.609  28.509  12.092
16146W        W75440  18.713  17.688  13.521
16147W        W75441  39.329  22.228   0.471
16148W        W75442  34.078  44.354  11.375
16149W        W75443  19.122  44.365  11.956
16150W        W75444   2.451  16.719  12.848
16151W        W75445  22.610  37.895   3.282
16152W        W75446  14.180   6.256  14.829
16153W        W75447  28.459  11.243   0.443
16154W        W75448   8.890  17.596  12.366
16155W        W75449  11.707  40.350   2.670
16156W        W75450  19.276  40.463  13.452
16157W        W75451  43.974  40.848  11.891
16158W        W75452  24.217  25.078  12.932
16159W        W75453  32.937  33.439   0.291
16160W        W75454  36.849   1.778   0.462
16161W        W75455  28.655   1.359  14.806
16162W        W75456  39.007  37.064  10.021
16163W        W75457   7.287  37.936  12.952
16164W        W75458  15.695  33.462   4.300
16165W        W75459  15.799   5.359  14.513
16166W        W75460  36.542  21.752  10.542
16167W        W75461   4.255  15.700  12.475
16168W        W75462  34.034  13.262   1.749
16169W        W75463   4.802  19.116   4.187
16170W        W75464  29.528  19.123   4.264
16171W        W75465   1.969   9.180  14.765
16172W        W75466  32.006  10.669  12.923
16173W        W75467  14.190  23.590   2.695
16174W        W75468   6.919  20.557   0.268
16175W        W75469  17.672  24.708   9.469
16176W        W75470   6.865  32.634   5.699
16177W        W75471   2.394   9.792  13.470
16178W        W75472   9.697  18.568   3.765
16179W        W75473  23.664  26.675   3.246
16180W        W75474  12.672  22.586  10.041
16181W        W75475  40.009   4.906  12.458
16182W        W75476  30.586  19.234  11.009
16183W        W75477  36.403  19.257   2.709
16184W        W75478  22.097  19.097   0.344
16185W        W75479  41.935   0.789   9.628
16186W        W75480  30.554   8.785  11.993
16187W        W75481  44.503  18.157   2.377
16188W        W75482  18.605  17.187  12.965
16189W        W75483   6.369  28.980  11.989
16190W        W75484  21.537  36.017   0.767
16191W        W75485   4.820  35.095  11.378
16192W        W75486  34.601  32.060   3.672
16193W        W75487  44.444  40.416  11.434
16194W        W75488  19.261  27.592  11.957
16195W        W75489  22.727  30.107  14.790
16196W        W75490  43.932  25.468   4.626
16197W        W75491   8.734  37.359  12.041
16198W        W75492  17.703  16.669   3.830
16199W        W75493   3.457  31.429  14.370
16200W        W75494  19.637  39.334   4.599
16201W        W75495  12.843  21.739  10.430
16202W        W75496  28.473  26.566   0.288
16203W        W75497  16.567  19.134   3.815
16204W        W75498  40.817  18.168  12.360
16205W        W75499  29.162  38.905  13.017
16206W        W75500  24.108  26.979   3.234
16207W        W75501   2.752  21.646   0.282
16208W        W75502  11.263  31.086  12.490
16209W        W75503  15.636  25.134   2.868
16210W        W75504   0.968  30.985  13.919
16211W        W75505   3.420  41.296   3.374
16212W        W75506   7.703  38.332   0.934
16213W        W75507   2.327  39.062   5.102
16214W        W75508  31.561   0.412   3.639
16215W        W75509  21.213  21.083  14.355
16216W        W75510  23.667  27.540  10.434
16217W        W75511   3.863  21.723   0.805
16218W        W75512  23.722  10.212   1.215
16219W        W75513   5.750  26.147  12.894
16220W        W75514  11.273  18.596   1.704
16221W        W75515   3.884  44.504  14.991
16222W        W75516   0.917  32.557  13.480
16223W        W75517  24.531   6.421   0.279
16224W        W75518  38.046  12.812   4.668
16225W        W75519  34.009  27.598  11.607
16226W        W75520  11.260  18.562   4.676
16227W        W75521   2.743  35.403   2.203
16228W        W75522  14.644  13.709  13.849
16229W        W75523  38.381  26.480   1.434
16230W        W75524   1.842  19.555  13.926
16231W        W75525  38.960  23.629   3.228
16232W        W75526  44.399  31.125  11.541
16233W        W75527  15.198   7.355   3.754
16234W        W75528  23.203  40.834   2.897
16235W        W75529  40.935  41.488   3.186
16236W        W75530  22.549  28.467  14.405
16237W        W75531  32.136  41.444  12.910
16238W        W75532  22.688  36.569   1.866
16239W        W75533   8.338  43.919   2.314
16240W        W75534  31.547  31.579   0.247
16241W        W75535  21.224  39.391   1.287
16242W        W75536  37.949  37.514   5.702
16243W        W75537  22.048   5.286  13.383
16244W        W75538  36.026  20.222  14.875
16245W        W75539  30.649   8.893   4.744
16246W        W75540  43.490   1.908  12.065
16247W        W75541  10.174  24.529   3.843
16248W        W75542  21.192  35.541  12.012
16249W        W75543  29.628  32.608  14.352
16250W        W75544  15.303  38.993   0.773
16251W        W75545  44.492  41.318  10.992
16252W        W75546  43.374  14.217   4.237
16253W        W75547  31.049  14.630   1.736
16254W        W75548  28.068  40.454  13.341
16255W        W75549  38.560  39.364  14.451
16256W        W75550  31.555  18.598  13.409
16257W        W75551  23.154  31.059  11.952
16258W        W75552  20.128   3.797   4.699
16259W        W75553  37.480  18.785   2.276
16260W        W75554  37.062  12.322   1.887
16261W        W75555  33.056  29.627   4.763
16262W        W75556  31.004  38.348  14.841
16263W        W75557  14.829  25.598   2.190
16264W        W75558  16.720  34.888   3.170
16265W        W75559  22.142  35.549   2.265
16266W        W75560  11.356  43.351   0.796
16267W        W75561  14.325   4.837   0.342
16268W        W75562  18.648   8.307  12.365
16269W        W75563  28.965   0.251   0.938
16270W        W75564  28.086  44.443  14.426
16271W        W75565  11.316   9.720  14.962
16272W        W75566  42.340  16.784  12.570
16273W        W75567  11.741  11.797   4.324
16274W        W75568  43.514  30.057  12.409
16275W        W75569   7.734   0.460   3.651
16276W        W75570  44.771  32.966  12.354
16277W        W75571  17.065  40.831  13.327
16278W        W75572  36.499   8.694   0.295
16279W        W75573  38.547  10.143  11.043
16280W        W75574  30.072  31.592  13.485
16281W        W75575  39.512   6.816  14.795
16282W        W75576  21.262   4.416  11.967
16283W        W75577   2.773   9.164   2.816
16284W        W75578   0.350  12.748  14.419
16285W        W75579  10.185  33.028   1.265
16286W        W75580   5.346  12.639   3.791
16287W        W75581   6.724  22.103  14.424
16288W        W75582  27.037  39.327   0.733
16289W        W75583  21.515   2.852   4.310
16290W        W75584  30.493   9.756   3.653
16291W        W75585   3.459  43.815   3.358
16292W        W75586   0.421  43.426  14.443
16293W        W75587  23.692  29.963  14.869
16294W        W75588  26.096   1.306  12.059
16295W        W75589   7.352  23.057  14.980
16296W        W75590  21.111  23.119  14.973
16297W        W75591  42.441  25.483  11.066
16298W        W75592  31.553  17.241   1.374
16299W        W75593  40.351  35.362   3.199
16300W        W75594  12.308  41.901   2.224
16301W        W75595  26.701  18.195  10.977
16302W        W75596  12.264  41.852  13.036
16303W        W75597  17.768   0.390  12.444
16304W        W75598  18.746  39.559   1.335
16305W        W75599  23.666  39.877  14.772
16306W        W75600  32.451   6.782  12.029
16307W        W75601  43.508  27.058   4.239
16308W        W75602  22.546  33.006   0.771
16309W        W75603  21.751  19.644   0.907
16310W        W75604  33.586  20.117   1.782
16311W        W75605  14.633  21.548  13.329
16312W        W75606  31.620  19.575  12.923
16313W        W75607  17.299  43.983  11.997
16314W        W75608  44.275  16.123   3.320
16315W        W75609  22.017   8.326  11.008
16316W        W75610  38.353  29.164  11.505
16317W        W75611  18.647  15.726  12.351
16318W        W75612  12.346  15.247   2.208
16319W        W75613  25.665   6.270  14.877
16320W        W75614   4.356  33.978   1.837
16321W        W75615  14.169  40.803   4.129
16322W        W75616  25.674  38.473  11.375
16323W        W75617  27.159  35.861  14.285
16324W        W75618  24.713  22.204  13.045
16325W        W75619  23.015  29.621  11.874
16326W        W75620  26.631  36.574   1.804
16327W        W75621  23.062  42.941  12.076
16328W        W75622  20.677  19.039  11.048
16329W        W75623  24.146  31.070  10.595
16330W        W75624  10.805   3.712   3.733
16331W        W75625   5.256   9.692   4.760
16332W        W75626  32.943  19.669   2.685
16333W        W75627  27.555  37.858   3.208
16334W        W75628  10.815  21.025  14.481
16335W        W75629  30.922  16.202   0.481
16336W        W75630   7.232   2.421   2.327
16337W        W75631  36.570   6.195  11.105
16338W        W75632  19.587  30.575  12.949
16339W        W75633  37.352  29.998  13.992
16340W        W75634  37.004  27.468  12.399
16341W        W75635  42.830  12.196   3.260
16342W        W75636   3.262   7.804  11.419
16343W        W75637  17.208  17.179   4.343
16344W        W75638  31.950  35.889  12.580
16345W        W75639  12.853  10.309  11.527
16346W        W75640  40.320  39.869   1.408
16347W        W75641  43.421   9.749  11.560
16348W        W75642  23.224  31.075  11.397
16349W        W75643   6.239  18.168  11.404
16350W        W75644  25.677  44.481   1.303
16351W        W75645  40.491  25.971  11.069
16352W        W75646  14.720  30.075  14.794
16353W        W75647   8.342  41.870   0.844
16354W        W75648  37.337   3.237  13.540
16355W        W75649  16.755  19.559  11.486
16356W        W75650  33.596  39.024   4.756
16357W        W75651   3.291  42.993   3.161
16358W        W75652  25.007  12.344   0.967
16359W        W75653  39.407  41.514  11.862
16360W        W75654   0.367  40.008   4.814
16361W        W75655  35.516  11.204   0.477
16362W        W75656  25.551  13.839   3.800
16363W        W75657  39.458   2.303   2.843
16364W        W75658   7.213  37.003   4.340
16365W        W75659   8.276  40.797  11.558
16366W        W75660  11.327   6.883  13.965
16367W        W75661  22.188   2.955   4.642
16368W        W75662   3.392  35.599  13.861
16369W        W75663  16.217  44.921  13.022
16370W        W75664   3.885   3.878   1.877
16371W        W75665  44.885   2.901  12.385
16372W        W75666  15.667  14.684  14.995
16373W        W75667  18.147  43.364   0.735
16374W        W75668  29.425   5.429   1.226
16375W        W75669  40.465  11.197  10.481
16376W        W75670  33.392  26.008  14.463
16377W        W75671  26.026   5.806  10.429
16378W        W75672  17.127  27.092   3.709
16379W        W75673  13.696   4.722  11.481
16380W        W75674  25.967  41.319  13.426
16381W        W75675  43.877   6.808  10.542
16382W        W75676   3.216   8.179   3.726
16383W        W75677  26.548  43.311   0.872
16384W        W75678  37.039  13.346   3.221
16385W        W75679  39.553  28.158  10.947
16386W        W75680  19.594  17.162   0.895
16387W        W75681   0.257  36.502   1.379
16388W        W75682   3.916  15.784  13.317
16389W        W75683  28.007  10.706  10.985
16390W        W75684   5.693  22.531   0.851
16391W        W75685  20.240  24.552   2.678
16392W        W75686  13.708  12.751   0.246
16393W        W75687  39.832  18.172   2.728
16394W        W75688  22.702  32.564  12.358
16395W        W75689  27.627  24.229  11.441
16396W        W75690  25.504  24.102   1.871
16397W        W75691  34.914  44.836   2.197
16398W        W75692  10.642  11.625  14.308
16399W        W75693  33.451   1.300   3.158
16400W        W75694  10.165  24.678   1.710
16401W        W75695  26.033  10.219  14.812
16402W        W75696  24.700   8.858   2.230
16403W        W75697  40.889  17.574  12.497
16404W        W75698  35.558   3.288  10.594
16405W        W75699  39.908  12.237   0.790
16406W        W75700  11.309  29.608   1.392
16407W        W75701  12.360   9.153   3.312
16408W        W75702   0.275   8.316   2.256
16409W        W75703  39.964  33.603   3.676
16410W        W75704  31.079  31.594  14.945
16411W        W75705  27.550   6.378  12.406
16412W        W75706  30.959  16.281  11.594
16413W        W75707   4.211  13.642  14.440
16414W        W75708  39.488   1.280  12.961
16415W        W75709  39.862  40.836  11.566
16416W        W75710  20.651   8.714  12.052
16417W        W75711  43.319  10.847   1.826
16418W        W75712  36.410   6.238   4.740
16419W        W75713  16.135   8.169   0.273
16420W        W75714   8.357  28.931  10.943
16421W        W75715  30.417  31.492   1.908
16422W        W75716  31.436  30.477   2.251
16423W        W75717  18.548  33.526  10.476
16424W        W75718  36.849  15.577  11.059
16425W        W75719  29.054  23.517  12.997
16426W        W75720  27.015  13.108  11.098
16427W        W75721  12.845  39.036   4.695
16428W        W75722  22.559  39.905  11.049
16429W        W75723  21.717  16.610   4.726
16430W        W75724  16.751  13.762  13.959
16431W        W75725  31.955  18.696  13.547
16432W        W75726  14.279   2.371   3.356
16433W        W75727   2.327  22.048  13.428
16434W        W75728  17.724  29.440  14.010
16435W        W75729   2.931  18.676   1.902
16436W        W75730   3.284  39.330   0.346
16437W        W75731  20.271  19.224   5.772
16438W        W75732  21.649  14.785   1.272
16439W        W75733  28.491  24.495   2.730
16440W        W75734   9.655  24.510   4.738
16441W        W75735  32.635  11.648   1.820
16442W        W75736  17.069  24.703  11.025
16443W        W75737  24.572  38.334  11.438
16444W        W75738  37.404  37.486  10.944
16445W        W75739  36.855  41.388  14.937
16446W        W75740  17.771  32.626  14.964
16447W        W75741  22.568  30.055   2.895
16448W        W75742  38.045  42.365   1.371
16449W        W75743  32.552  29.995   2.877
16450W        W75744  26.958  26.688   3.737
16451W        W75745   1.448  16.609  13.391
16452W        W75746   8.270  16.702   2.229
16453W        W75747  14.790  19.083  11.475
16454W        W75748  41.905  11.263  13.963
16455W        W75749  24.040   6.767  11.075
16456W        W75750  37.968  16.776  10.556
16457W        W75751  26.158  25.497  11.496
16458W        W75752  23.683  14.694  13.809
16459W        W75753  42.906  14.253   3.184
16460W        W75754  16.797  41.832  10.431
16461W        W75755  35.989  35.500   1.708
16462W        W75756  43.330  15.754   4.779
16463W        W75757   4.412  16.658  14.352
16464W        W75758  24.043  19.239  14.473
16465W        W75759  11.145  30.555  14.288
16466W        W75760  38.823  26.132  12.356
16467W        W75761  42.351  25.010  13.855
16468W        W75762  29.430  39.403  12.079
16469W        W75763  37.943  39.352   3.650
16470W        W75764   8.277  12.116  14.351
16471W        W75765   5.885  22.233   2.812
16472W        W75766  26.504  38.402  10.571
16473W        W75767  41.522  27.636   2.813
16474W        W75768  18.277   5.261   3.851
16475W        W75769   7.733  39.523   2.838
16476W        W75770  28.171   3.909  13.811
16477W        W75771  44.413   6.343  14.306
16478W        W75772  31.533   1.390   2.699
16479W        W75773  24.052  27.017   3.635
16480W        W75774   3.732  36.950   0.906
16481W        W75775  42.785   6.397  13.956
16482W        W75776   1.820  33.058   1.284
16483W        W75777  24.639  11.267  13.445
16484W        W75778  15.683  36.524  13.354
16485W        W75779  16.739  22.622   9.565
16486W        W75780  23.157  19.049   3.359
16487W        W75781  34.051  17.719   4.631
16488W        W75782  23.667  22.610  13.926
16489W        W75783  18.229   6.405  11.499
16490W        W75784  23.148  30.123  12.576
16491W        W75785  33.899   7.309  14.010
16492W        W75786  23.183  41.002  10.556
16493W        W75787   5.826   6.677   2.744
16494W        W75788  14.171  33.456  11.882
16495W        W75789  34.016  34.473  12.521
16496W        W75790  30.426  12.348  12.975
16497W        W75791  24.046   4.774   2.900
16498W        W75792   1.441  21.651   0.366
16499W        W75793  23.586  29.559  13.483
16500W        W75794  14.238  20.185   9.605
16501W        W75795  38.371  26.966  10.604
16502W        W75796  27.011   6.755   1.856
16503W        W75797   8.733  38.983  14.981
16504W        W75798   7.793  14.812   0.400
16505W        W75799   0.981  23.229   0.359
16506W        W75800  31.901  34.430   4.834
16507W        W75801  20.741  31.932  12.978
16508W        W75802  40.322  39.340  12.046
16509W        W75803  15.141  31.561   4.179
16510W        W75804  32.131   6.710  12.564
16511W        W75805  41.399  27.126  11.983
16512W        W75806   1.259  42.477  13.990
16513W        W75807  40.468  43.817   4.137
16514W        W75808  14.598  27.549  10.973
16515W        W75809  13.190  29.605  12.358
16516W        W75810  42.500  32.537  13.912
16517W        W75811  22.085  11.844  13.395
16518W        W75812   9.652  28.659  12.347
16519W        W75813  39.848  39.338  11.557
16520W        W75814  13.266  13.780   0.417
16521W        W75815  30.465  24.594  14.805
16522W        W75816   8.856  36.909   0.934
16523W        W75817  10.292  33.072   3.716
16524W        W75818  29.645   2.276  11.419
16525W        W75819  24.139   1.285  10.624
16526W        W75820  26.191  13.716   3.373
16527W        W75821  18.639   7.846  11.878
16528W        W75822  11.355  16.625  14.508
16529W        W75823  27.971   2.363   4.697
16530W        W75824  15.090  22.239   1.879
16531W        W75825  33.081  40.313  14.987
16532W        W75826  15.232   0.317   0.861
16533W        W75827  18.610   6.769  13.845
16534W        W75828   4.866   4.829   1.384
16535W        W75829  15.283  34.441   3.373
16536W        W75830  28.054  20.047   4.354
16537W        W75831  43.343  10.818   1.210
16538W        W75832  32.452   7.205  11.054
16539W        W75833  19.544   9.789  11.995
16540W        W75834  34.034  40.447  11.110
16541W        W75835  24.603  27.949   1.267
16542W        W75836   4.756  32.985  14.882
16543W        W75837  35.007  12.127   0.818
16544W        W75838  41.849  33.993  11.486
16545W        W75839   4.364  24.579   0.726
16546W        W75840  17.605  39.038   0.331
16547W        W75841  15.687  28.125   2.342
16548W        W75842  24.594  24.086   1.433
16549W        W75843  43.852  15.650   3.201
16550W        W75844  27.029  37.010   1.417
16551W        W75845  29.125  41.009   1.830
16552W        W75846  39.529   3.831   3.380
16553W        W75847  34.488  20.269  13.913
16554W        W75848  16.708  44.837   4.602
16555W        W75849  29.931  42.387   1.927
16556W        W75850   6.423   6.337   1.840
16557W        W75851  18.171  34.873  14.808
16558W        W75852   9.708  13.109   1.912
16559W        W75853  27.056  27.102   3.858
16560W        W75854  41.847  44.436  11.476
16561W        W75855  24.623  30.611  11.611
16562W        W75856  44.377  35.491  11.474
16563W        W75857  23.167  43.369   3.225
16564W        W75858  15.802  26.957   2.383
16565W        W75859   8.374   2.780   2.690
16566W        W75860  10.198  33.069  11.469
16567W        W75861  17.207  17.609  12.924
16568W        W75862   9.861  39.916  13.395
16569W        W75863  25.967  16.648   2.726
16570W        W75864  42.325   7.349  13.338
16571W        W75865   4.407  27.464  14.994
16572W        W75866   2.833  36.424   3.694
16573W        W75867   1.768  34.088   3.172
16574W        W75868   0.322  24.068   4.297
16575W        W75869  27.657  42.792  14.811
16576W        W75870   1.772   2.268  13.950
16577W        W75871  20.758  34.560  14.422
16578W        W75872  19.672  35.980   1.710
16579W        W75873  29.483  26.517  13.995
16580W        W75874  43.330  32.108   1.220
16581W        W75875  34.951   2.788  10.609
16582W        W75876  16.303  18.244  13.372
16583W        W75877  28.499  12.121   1.838
16584W        W75878  43.937  11.343  10.419
16585W        W75879  22.227  27.943   1.904
16586W        W75880  42.915  44.482   3.295
16587W        W75881  19.640  37.983   2.202
16588W        W75882  13.137  12.671  13.543
16589W        W75883  34.961  22.227  11.508
16590W        W75884  33.447  29.535  11.956
16591W        W75885  17.255  35.898  12.903
16592W        W75886   0.960  26.954  14.758
16593W        W75887  44.862   9.777   4.278
16594W        W75888  15.740  30.527   2.220
16595W        W75889  42.926   2.300  13.347
16596W        W75890  27.577  37.374  14.932
16597W        W75891  36.994  18.599  11.960
16598W        W75892  36.519  31.487   1.225
16599W        W75893  11.221  19.161   4.766
16600W        W75894  27.552  32.520   2.387
16601W        W75895  32.500  11.309  10.045
16602W        W75896  36.926  20.569  11.091
16603W        W75897  21.732  30.974  14.437
16604W        W75898   5.378  34.998  11.394
16605W        W75899   6.306  25.698   1.360
16606W        W75900  26.655  18.618  11.908
16607W        W75901  36.051  31.125   0.954
16608W        W75902  44.892  31.970   4.731
16609W        W75903  44.333  15.753   4.605
16610W        W75904  12.685  44.847   4.732
16611W        W75905   9.314  24.184   0.327
16612W        W75906  13.700  11.256  14.958
16613W        W75907   3.812  44.820  14.347
16614W        W75908  15.083  12.214  12.956
16615W        W75909  26.548  26.061  12.990
16616W        W75910  25.168   2.314   0.900
16617W        W75911  32.585  14.180  13.875
16618W        W75912   1.341  33.000   4.244
16619W        W75913  29.454   7.808   1.708
16620W        W75914   8.280  13.141   2.706
16621W        W75915  18.722  32.589  13.337
16622W        W75916   5.386  32.971  13.363
16623W        W75917  15.813  41.377  10.075
16624W        W75918  29.092  11.645   4.683
16625W        W75919  20.058  10.343   0.441
16626W        W75920  21.721  27.692   4.333
16627W        W75921  20.713  41.879   1.719
16628W        W75922  17.221  24.002  12.929
16629W        W75923  36.958   7.179   1.441
16630W        W75924  31.039  27.048   4.282
16631W        W75925  15.224  29.522  14.466
16632W        W75926  31.057  22.667   5.107
16633W        W75927  35.897  38.979  14.773
16634W        W75928  13.257  40.366   2.181
16635W        W75929  20.189   3.361  13.890
16636W        W75930   5.772  34.506  14.981
16637W        W75931  12.726  21.081  12.457
16638W        W75932  29.011  38.069  10.972
16639W        W75933  37.540   6.894  13.481
16640W        W75934   4.442   3.366   4.173
16641W        W75935   2.920  20.741  12.844
16642W        W75936   6.364  12.835  12.437
16643W        W75937  27.186  18.561  11.048
16644W        W75938  41.018  17.158   1.782
16645W        W75939   8.198  32.514  13.984
16646W        W75940  19.543  44.341  10.499
16647W        W75941  12.697  30.149   0.477
16648W        W75942   7.848   7.722   5.317
16649W        W75943   7.309  13.218   0.372
16650W        W75944  36.434  43.435  10.548
16651W        W75945  43.874  29.465   2.701
16652W        W75946  13.827  37.519   0.850
16653W        W75947  30.479  16.649   0.253
16654W        W75948  16.218   5.255  13.368
16655W        W75949   3.830  20.640   5.675
16656W        W75950  38.328  16.185   1.409
16657W        W75951  39.852  16.652  11.374
16658W        W75952  17.584  20.262  14.896
16659W        W75953  17.156  18.578   4.339
16660W        W75954  30.517  44.845  14.437
16661W        W75955  39.423  35.952   1.695
16662W        W75956  29.461  38.378   0.333
16663W        W75957   4.884  38.829   4.805
16664W        W75958  17.163  34.940   1.326
16665W        W75959  14.253  31.449  14.839
16666W        W75960  12.811  16.195   2.833
16667W        W75961  38.539  34.895  14.907
16668W        W75962   8.383  20.133   2.200
16669W        W75963   5.264  17.771  13.472
16670W        W75964  25.101  42.031  14.028
16671W        W75965  39.990  27.684   3.259
16672W        W75966  14.694  17.071   1.830
16673W        W75967  11.663  27.122  11.104
16674W        W75968  26.057  37.061   0.345
16675W        W75969  40.812  38.825   4.731
16676W        W75970  13.740  22.670  12.424
16677W        W75971  41.516  44.324   1.271
16678W        W75972  39.443   6.314  11.445
16679W        W75973   9.302   9.678   4.736
16680W        W75974  18.194  36.579   0.746
16681W        W75975  15.281  32.456   1.915
16682W        W75976  31.001  38.938   9.934
16683W        W75977  21.646   9.825  12.984
16684W        W75978  18.774   9.755   3.787
16685W        W75979  18.746  10.730   3.658
16686W        W75980  35.105  41.457   4.201
16687W        W75981  33.470  37.965  14.360
16688W        W75982  30.036   0.981  14.420
16689W        W75983  44.770  43.895   0.419
16690W        W75984   7.816  19.103   1.747
16691W        W75985  38.065  23.100  12.090
16692W        W75986  17.111  11.324  13.434
16693W        W75987  29.987  17.583  10.507
16694W        W75988  41.909  22.129   2.722
16695W        W75989  41.326  27.618  12.896
16696W        W75990  10.797  41.838  13.416
16697W        W75991  19.244  33.895  14.356
16698W        W75992  25.985  13.718   4.822
16699W        W75993  21.694  16.802   0.247
16700W        W75994  33.440   7.809  14.284
16701W        W75995  41.314  23.617  12.866
16702W        W75996  33.400   2.366   2.740
16703W        W75997  25.690  20.244   0.884
16704W        W75998  30.544  10.669  10.985
16705W        W75999  28.166  43.827   2.814
16706W        W76000  14.196  21.212   2.363
16707W        W76001   3.744   1.746  11.413
16708W        W76002  10.643  38.031  11.533
16709W        W76003  26.068  17.094  13.059
16710W        W76004  42.986  16.195   4.114
16711W        W76005  35.095  25.075   5.263
16712W        W76006  23.038   0.930  13.859
16713W        W76007  37.522   8.314   2.333
16714W        W76008  20.716   3.819   0.327
16715W        W76009  29.083  28.057  14.802
16716W        W76010  36.512  17.298   1.815
16717W        W76011  24.496  10.792  12.879
16718W        W76012  16.703   5.747  11.967
16719W        W76013  19.634  29.449   2.217
16720W        W76014  42.943   8.301  14.426
16721W        W76015  38.910  25.125   0.868
16722W        W76016  21.250  30.062  11.589
16723W        W76017  13.803  30.909  12.086
16724W        W76018  34.609   8.374   2.211
16725W        W76019  15.245   7.310  10.417
16726W        W76020  22.176  17.091   4.666
16727W        W76021   0.832  36.478   2.234
16728W        W76022  32.078   0.408   2.791
16729W        W76023  39.883  18.063  11.389
16730W        W76024  10.344   0.420   2.675
16731W        W76025   7.710  33.571   3.168
16732W        W76026  13.700  31.910  11.496
16733W        W76027   8.790  21.164   5.129
16734W        W76028   8.393  26.636  14.994
16735W        W76029  16.073   9.188  14.816
16736W        W76030   8.321  26.517  13.012
16737W        W76031   5.383  38.567  10.452
16738W        W76032  39.869  18.132  10.907
16739W        W76033  33.473  43.918  14.977
16740W        W76034  40.449  19.779   4.838
16741W        W76035   8.162  33.527   4.195
16742W        W76036   1.766  43.016  13.881
16743W        W76037  30.653  21.019  14.351
16744W        W76038  23.147  39.843   2.777
16745W        W76039  15.177  34.022   2.288
16746W        W76040   0.395  42.376  13.801
16747W        W76041  33.614  12.251   0.252
16748W        W76042  25.214  38.967   5.761
16749W        W76043  34.101  28.153  10.628
16750W        W76044  16.183  30.998   4.833
16751W        W76045  25.527  25.219   3.652
16752W        W76046  25.122   3.927  12.074
16753W        W76047  37.873  11.808  10.965
16754W        W76048  43.850  38.986   0.962
16755W        W76049  19.540  43.827   2.702
16756W        W76050  31.051  35.108   3.275
16757W        W76051  27.086  31.969  12.428
16758W        W76052  33.393  10.702  13.537
16759W        W76053   0.442   3.298  12.931
16760W        W76054   3.430  22.711   4.710
16761W        W76055   0.964  33.012   0.437
16762W        W76056   4.879  16.811  14.370
16763W        W76057   8.216  21.261  11.925
16764W        W76058  37.430  22.010  14.987
16765W        W76059  13.728  26.988   4.221
16766W        W76060  19.560  18.251   3.871
16767W        W76061  44.433   8.401   0.300
16768W        W76062  23.238  12.281   3.310
16769W        W76063  43.957  18.119  12.869
16770W        W76064  36.090  33.401  12.901
16771W        W76065   2.319  21.202   0.381
16772W        W76066  28.062   3.856  10.543
16773W        W76067  12.762  28.143  12.019
16774W        W76068  14.282  44.378   2.744
16775W        W76069  11.296  41.451   0.859
16776W        W76070   7.831   9.821   3.250
16777W        W76071  22.011  39.890  10.524
16778W        W76072   3.831  13.339  12.915
16779W        W76073  12.154  33.100   3.651
16780W        W76074  23.054  27.979   4.332
16781W        W76075  26.597  23.505   2.213
16782W        W76076   5.398  34.525  13.027
16783W        W76077  30.559  17.303  14.809
16784W        W76078   9.789   3.721  13.887
16785W        W76079   3.774  21.562  11.933
16786W        W76080   3.452  27.683   0.959
16787W        W76081   3.773   1.284  13.360
16788W        W76082  11.218   0.491   4.208
16789W        W76083  31.963   8.849  12.034
16790W        W76084   2.830   2.923  13.422
16791W        W76085  35.489  41.842   3.771
16792W        W76086  39.877  15.718   0.832
16793W        W76087   8.381  15.625  14.861
16794W        W76088   8.345  11.666   1.360
16795W        W76089   4.317  18.778   3.200
16796W        W76090  17.094  35.041  14.984
16797W        W76091  40.328  44.483   3.779
16798W        W76092  35.041   8.370  12.876
16799W        W76093   1.272  17.599   1.245
16800W        W76094  43.827   2.241   3.840
16801W        W76095  10.312   1.253   3.198
16802W        W76096   6.776  22.149   0.735
16803W        W76097   0.903  40.031  10.915
16804W        W76098  34.911  30.500   2.412
16805W        W76099   2.854  26.115  12.342
16806W        W76100  30.139  14.779   2.893
16807W        W76101  31.536   7.818  11.119
16808W        W76102  14.187  22.029  13.795
16809W        W76103   5.848  13.195   4.693
16810W        W76104   4.825  41.479  10.069
16811W        W76105  36.380  16.248   3.365
16812W        W76106  36.885   1.765   2.365
16813W        W76107  14.662   7.261  13.431
16814W        W76108   8.363  11.842   2.318
16815W        W76109  17.132  33.952   3.347
16816W        W76110   8.204   4.248  10.991
16817W        W76111   3.913   9.352   4.117
16818W        W76112  13.701  34.916   4.349
16819W        W76113   7.205  27.462   0.456
16820W        W76114   4.748  22.115   1.821
16821W        W76115  29.589  21.191  14.924
16822W        W76116  27.676  37.959  14.377
16823W        W76117  27.661  25.672  11.525
16824W        W76118  21.085  16.783   0.930
16825W        W76119   9.823  27.142  11.892
16826W        W76120  23.519  37.921   4.263
16827W        W76121  26.511  23.151  13.479
16828W        W76122  23.581  27.642  11.007
16829W        W76123  20.586  30.133  13.920
16830W        W76124   3.886  37.079   4.257
16831W        W76125   5.325  32.532   1.894
16832W        W76126  14.145   1.456  12.974
16833W        W76127  33.921  42.385   4.287
16834W        W76128  16.074  18.142   0.856
16835W        W76129  26.110  37.561   2.318
16836W        W76130  42.790   1.295   2.232
16837W        W76131  20.138  39.325  11.515
16838W        W76132  41.333  11.654  14.493
16839W        W76133  43.000  28.550  12.836
16840W        W76134  31.574   7.793  12.978
16841W        W76135  11.736   4.234   2.808
16842W        W76136  42.364  42.406   2.205
16843W        W76137   8.826  19.180  13.042
16844W        W76138   8.852  12.205   3.804
16845W        W76139  27.680  22.077   1.843
16846W        W76140  30.021  40.885   1.290
16847W        W76141   9.854  19.707   3.307
16848W        W76142   2.867  13.654   0.355
16849W        W76143  22.054  27.082  10.496
16850W        W76144  40.373  10.209  12.535
16851W        W76145  43.885  24.056   1.725
16852W        W76146   9.361  39.484  10.441
16853W        W76147  24.639  12.744   0.435
16854W        W76148  22.681  42.390   0.396
16855W        W76149  31.118  14.734   3.224
16856W        W76150  24.571  20.645  11.014
16857W        W76151   8.667  11.339   1.708
16858W        W76152  17.674  30.610  10.552
16859W        W76153  19.283  41.010  12.999
16860W        W76154  43.500   5.918   1.725
16861W        W76155  22.611  26.691  14.361
16862W        W76156  15.288  23.631  14.866
16863W        W76157  33.011  11.367  13.049
16864W        W76158  18.761  25.644   3.850
16865W        W76159   4.785  15.240  12.436
16866W        W76160  33.035  27.669   3.835
16867W        W76161  23.093  25.985   2.845
16868W        W76162  38.406  14.175  14.805
16869W        W76163  13.702  21.522  11.893
16870W        W76164  35.860  27.010   1.806
16871W        W76165  39.945   2.264   3.298
16872W        W76166  35.060  30.472  12.504
16873W        W76167  20.566  10.752  12.965
16874W        W76168   8.230  17.714  11.553
16875W        W76169   0.362   9.797   4.815
16876W        W76170  25.582  28.980  11.568
16877W        W76171  25.991  32.973   1.922
16878W        W76172  14.317  23.099  12.579
16879W        W76173   8.805  12.637  12.922
16880W        W76174  33.600  41.981  11.390
16881W        W76175  10.225  41.018  11.600
16882W        W76176  40.428  30.514   1.749
16883W        W76177  24.039  18.133   2.712
16884W        W76178  27.594  44.962  14.477
16885W        W76179   1.251  17.770   0.349
16886W        W76180   9.235  29.029  13.909
16887W        W76181  23.070  28.091   2.694
16888W        W76182  34.070   5.195   0.886
16889W        W76183  38.488  44.321   0.931
16890W        W76184  33.010  34.885  12.473
16891W        W76185  39.930  36.097   1.736
16892W        W76186   2.243  36.937  13.473
16893W        W76187  15.219  39.434  11.109
16894W        W76188  31.409  14.593  13.958
16895W        W76189   4.305  15.130   0.457
16896W        W76190  44.390  14.676  12.082
16897W        W76191  39.917  14.335  12.951
16898W        W76192  30.000  37.351  13.343
16899W        W76193  43.883  34.519  14.847
16900W        W76194  17.289   3.825   2.245
16901W        W76195  34.092  20.083   1.341
16902W        W76196  36.473  32.610   1.358
16903W        W76197  13.637  39.394  13.033
16904W        W76198  19.587  21.216  11.066
16905W        W76199  10.380  11.145  12.389
16906W        W76200  28.613  30.640  10.999
16907W        W76201  36.504   1.334   3.201
16908W        W76202  39.889  24.101   1.769
16909W        W76203  23.510   0.277   4.243
16910W        W76204   8.246  13.696  12.871
16911W        W76205  29.473   9.152   1.771
16912W        W76206  32.598   9.822   5.243
16913W        W76207  44.299  20.620  14.349
16914W        W76208  19.102  10.695   3.825
16915W        W76209   5.740   0.319   0.839
16916W        W76210  27.520  44.467   1.439
16917W        W76211  38.023  33.459   5.192
16918W        W76212   8.893  43.768  12.905
16919W        W76213  26.633  20.191   3.670
16920W        W76214  26.967  42.396  12.379
16921W        W76215  33.898  15.643   2.722
16922W        W76216  13.127  20.061  14.405
16923W        W76217   5.708  32.004   3.363
16924W        W76218  10.234   0.427  13.432
16925W        W76219  32.957  30.125  13.389
16926W        W76220  21.154  43.978   3.663
16927W        W76221  16.119  35.019  12.938
16928W        W76222  33.090  27.990  10.917
16929W        W76223   1.273  31.587   1.796
16930W        W76224  10.259   4.824   0.765
16931W        W76225   4.710  29.563  10.538
16932W        W76226  13.610   8.865   1.707
16933W        W76227  40.303  10.226   2.764
16934W        W76228  35.412  25.608  13.971
16935W        W76229  13.270   5.208  10.510
16936W        W76230   8.279  31.545  11.447
16937W        W76231   5.254  28.533  11.012
16938W        W76232  20.077  21.025  12.446
16939W        W76233  31.101  34.502  14.459
16940W        W76234  21.755  13.770  12.056
16941W        W76235  41.883  35.997  11.007
16942W        W76236  15.325  43.977  10.998
16943W        W76237   4.204  36.513   0.411
16944W        W76238  42.393  40.451   3.714
16945W        W76239  30.012  33.893  14.824
16946W        W76240  25.178  38.040  13.902
16947W        W76241  16.659  36.500  14.936
16948W        W76242   2.909  28.651   3.226
16949W        W76243   3.276  32.023  11.953
16950W        W76244  25.699  14.649   1.834
16951W        W76245  22.637  19.661  13.318
16952W        W76246   6.735  20.062  12.551
16953W        W76247  11.656  14.776  12.518
16954W        W76248  27.543  33.010  11.009
16955W        W76249  21.029   3.804   5.315
16956W        W76250  30.474   9.741   4.820
16957W        W76251  14.618  29.015  14.893
16958W        W76252  15.271  22.604   3.375
16959W        W76253  38.451  24.220  12.035
16960W        W76254  22.708  24.646  12.533
16961W        W76255  10.375  35.955  13.313
16962W        W76256   7.756  19.561  14.783
16963W        W76257  28.563   1.442   4.604
16964W        W76258  21.707  27.676   0.263
16965W        W76259  22.016  41.825   4.181
16966W        W76260  38.032  13.622  13.414
16967W        W76261  15.293   6.364  11.008
16968W        W76262  22.651  13.178  13.029
16969W        W76263  24.722  30.939  13.494
16970W        W76264   7.754  11.328  14.949
16971W        W76265  14.196  18.171  14.838
16972W        W76266  11.339   4.314  10.623
16973W        W76267  29.481  13.835   3.382
16974W        W76268   6.364   7.179   4.831
16975W        W76269  22.209  20.068  11.928
16976W        W76270  34.604  38.844  10.511
16977W        W76271  31.443   5.206  10.449
16978W        W76272  13.654  17.761  14.833
16979W        W76273  38.338  40.309  14.440
16980W        W76274  28.992  15.801   3.794
16981W        W76275  13.803   4.444   0.426
16982W        W76276  26.952  14.143   1.398
16983W        W76277   1.890  30.996  13.926
16984W        W76278  41.966  20.111   4.657
16985W        W76279  31.983  37.972   4.245
16986W        W76280   5.863  21.569   0.299
16987W        W76281   5.396   8.399  10.898
16988W        W76282  38.023  36.945  12.569
16989W        W76283  38.419  39.416   2.198
16990W        W76284  18.201  11.269   4.316
16991W        W76285  35.954  23.016   4.818
16992W        W76286  24.580  14.664  13.860
16993W        W76287  17.206  20.102   2.727
16994W        W76288   6.735  13.612  11.905
16995W        W76289  42.475  32.404  14.983
16996W        W76290  14.673  18.162  12.886
16997W        W76291  31.141   3.806  12.863
16998W        W76292  13.252  19.161  12.390
16999W        W76293   3.286  12.786   2.318
17000W        W76294   3.848  36.389   4.266
17001W        W76295  16.611  40.037  10.938
17002W        W76296  18.546  11.822   2.308
17003W        W76297  42.361  34.569  12.501
17004W        W76298  24.556  30.087  13.486
17005W        W76299   6.680   6.874  11.103
17006W        W76300  37.888  14.729  12.086
17007W        W76301  26.675  44.389   0.820
17008W        W76302  22.726   1.772   2.266
17009W        W76303  10.161  24.620  12.579
17010W        W76304   1.248  44.763  10.934
17011W        W76305  12.122  43.371   2.186
17012W        W76306  29.580  43.479  12.442
17013W        W76307  34.944  17.233   5.265
17014W        W76308  44.912  15.290   0.395
17015W        W76309  18.642  37.880   1.434
17016W        W76310  11.803  32.930  14.908
17017W        W76311  33.467  20.609   2.869
17018W        W76312  43.790  13.173  10.550
17019W        W76313  26.614  16.748   1.273
17020W        W76314  32.048   7.745   2.389
17021W        W76315  38.013  30.656   3.204
17022W        W76316  18.249  38.064   0.314
17023W        W76317  18.755  39.537   4.211
17024W        W76318  34.001  34.429  10.933
17025W        W76319  15.638  41.891   4.301
17026W        W76320  25.628  10.752   0.901
17027W        W76321  20.694  39.901  14.835
17028W        W76322  15.165  18.657  13.480
17029W        W76323  34.453  24.624  11.936
17030W        W76324  33.114   9.158   0.775
17031W        W76325  18.220  22.689   3.351
17032W        W76326  23.199  37.348   0.277
17033W        W76327  25.175  29.630  12.089
17034W        W76328  37.559  31.096  14.994
17035W        W76329  38.908  14.664   1.699
17036W        W76330  11.711  17.080   4.324
17037W        W76331   0.273  26.193  14.994
17038W        W76332  27.659  42.928  11.112
17039W        W76333  26.463  18.125   3.346
17040W        W76334  26.058   6.238  12.927
17041W        W76335   7.830  44.983  10.613
17042W        W76336  23.722  23.008  11.063
17043W        W76337   2.343   3.930  11.996
17044W        W76338   5.335  39.828   1.754
17045W        W76339   8.319  13.760  14.341
17046W        W76340   1.871  26.501  10.475
17047W        W76341  32.535  40.886  11.867
17048W        W76342  42.811  25.620  12.543
17049W        W76343  29.981  35.404  10.961
17050W        W76344  40.460   3.454  14.509
17051W        W76345   6.770  30.055   3.268
17052W        W76346  22.112  19.749   1.840
17053W        W76347   7.860  43.993  10.443
17054W        W76348   2.412  35.915  10.077
17055W        W76349  23.046  30.948   3.795
17056W        W76350  10.635  30.517  14.286
17057W        W76351  13.211   0.881   1.364
17058W        W76352  39.520  36.567   1.364
17059W        W76353  11.788  43.834  13.339
17060W        W76354  28.668   4.788   1.353
17061W        W76355  44.459  13.714   0.943
17062W        W76356   2.882  33.956  10.997
17063W        W76357  15.161  20.205  11.432
17064W        W76358  20.742   9.295   1.893
17065W        W76359  12.360   4.268  14.896
17066W        W76360  41.405  11.714  13.539
17067W        W76361  36.077  42.997   1.750
17068W        W76362  26.639  29.023  10.969
17069W        W76363  44.399  44.324  12.955
17070W        W76364  34.945  33.573  12.343
17071W        W76365  27.187   9.729   4.816
17072W        W76366  33.472  17.091  13.851
17073W        W76367  19.596  40.033   1.349
17074W        W76368  40.002  27.550   2.825
17075W        W76369  42.298  34.400   2.889
17076W        W76370  12.798  12.345   1.911
17077W        W76371   6.316   1.264  13.922
17078W        W76372  37.528  33.966  13.357
17079W        W76373   2.400   2.819   0.805
17080W        W76374  15.689  32.139   2.358
17081W        W76375  17.744  36.586  11.903
17082W        W76376   0.358  36.550   4.223
17083W        W76377   1.438  35.059   0.846
17084W        W76378  22.210  33.542  14.866
17085W        W76379  24.627  17.093   0.357
17086W        W76380  21.714   3.788  10.559
17087W        W76381  44.863  28.677   4.649
17088W        W76382  30.519  29.988  10.938
17089W        W76383  12.810  20.044   2.855
17090W        W76384  33.015   7.232  14.771
17091W        W76385  44.333  13.628  13.427
17092W        W76386   0.312  31.038  14.912
17093W        W76387  39.388  22.135  14.367
17094W        W76388  30.565  19.746   1.412
17095W        W76389  35.910  15.099  14.947
17096W        W76390   5.415  33.875  10.964
17097W        W76391  19.563  42.483   2.663
17098W        W76392  29.623   9.149  11.905
17099W        W76393  35.004  24.178  10.060
17100W        W76394  30.452  20.701   0.825
17101W        W76395  27.986   3.404   2.674
17102W        W76396  32.415  41.839  10.929
17103W        W76397  26.675  10.175   1.211
17104W        W76398  20.247  33.581   0.754
17105W        W76399  20.145   2.251   1.223
17106W        W76400  38.889   0.304   4.148
17107W        W76401  18.690  42.955   4.802
17108W        W76402  13.295  25.542   3.241
17109W        W76403  17.114  20.035   1.300
17110W        W76404  12.636  36.880   4.755
17111W        W76405  22.739  38.032  13.005
17112W        W76406  23.665  18.119   0.322
17113W        W76407   9.232   6.262  14.941
17114W        W76408  12.175  29.619   3.343
17115W        W76409   4.729  19.661   1.832
17116W        W76410   1.389  12.840   2.782
17117W        W76411  31.045  35.434   0.408
17118W        W76412  33.888   6.423   4.298
17119W        W76413  18.556  20.648  12.471
17120W        W76414   0.798  32.117   0.877
17121W        W76415  38.394  38.400   4.141
17122W        W76416  15.196  38.863   2.321
17123W        W76417  10.654  35.057   4.663
17124W        W76418  33.034  43.891   4.344
17125W        W76419  35.972  12.244  10.610
17126W        W76420   7.354  16.692   2.738
17127W        W76421  14.709   0.288  13.313
17128W        W76422   3.774  28.036  11.976
17129W        W76423  31.603  10.245  13.315
17130W        W76424  42.366  41.536  11.957
17131W        W76425  29.588   9.736   3.749
17132W        W76426   5.217  16.724  12.461
17133W        W76427  40.525  24.533  14.864
17134W        W76428   4.375  23.201  10.013
17135W        W76429  28.654   0.753  11.980
17136W        W76430  40.829  37.534   2.782
17137W        W76431  40.537  35.566   4.617
17138W        W76432  20.633  40.021   2.191
17139W        W76433   2.901  14.156   3.860
17140W        W76434  40.904   7.340   0.261
17141W        W76435  43.997  13.803   3.153
17142W        W76436  31.633  10.243  12.457
17143W        W76437  10.340   2.459  14.391
17144W        W76438  10.817  44.482   3.675
17145W        W76439   9.665  41.462   2.321
17146W        W76440  27.975  14.594  11.080
17147W        W76441  30.584  26.056  13.385
17148W        W76442   5.854  33.084   5.644
17149W        W76443  36.084  11.161   4.676
17150W        W76444  34.917  26.654   4.322
17151W        W76445  13.106  23.164   4.816
17152W        W76446   0.845   5.282   4.640
17153W        W76447  27.022   4.416  14.316
17154W        W76448   8.893  16.205   1.813
17155W        W76449  26.609  41.481  12.362
17156W        W76450   4.238   5.388  14.343
17157W        W76451  20.114  11.305  10.488
17158W        W76452  29.656  21.034   1.280
17159W        W76453   4.830  22.037  14.424
17160W        W76454  43.511  12.203   0.358
17161W        W76455  31.414  35.446  13.416
17162W        W76456  14.243  25.491  13.961
17163W        W76457   2.228   7.322  14.896
17164W        W76458  42.326  18.548   3.659
17165W        W76459   0.344  17.699   3.762
17166W        W76460  12.721  12.314   9.519
17167W        W76461   9.869   7.243   0.295
17168W        W76462  28.111  29.564   3.265
17169W        W76463   0.396  44.823  11.921
17170W        W76464  34.964  40.798   1.821
17171W        W76465  18.182  38.380  14.277
17172W        W76466  10.658  16.144  14.819
17173W        W76467  17.108  18.603   0.807
17174W        W76468  28.498  38.523  12.428
17175W        W76469  25.078  29.554   2.841
17176W        W76470  24.637  18.643   3.711
17177W        W76471  26.096  44.397  12.988
17178W        W76472   8.837  40.510   3.631
17179W        W76473  24.029  37.550  11.883
17180W        W76474  33.879  35.995   4.727
17181W        W76475  15.694   1.822   0.960
17182W        W76476  43.874  43.446   5.308
17183W        W76477  34.488   5.802   4.602
17184W        W76478   5.743  19.105   5.106
17185W        W76479  22.054  12.285   9.969
17186W        W76480  13.159  30.478  11.051
17187W        W76481  26.001  21.668  11.964
17188W        W76482  22.085  12.613  13.037
17189W        W76483   8.744  31.620  13.970
17190W        W76484  44.794  41.512   5.168
17191W        W76485  42.811  39.979  10.409
17192W        W76486  15.242  16.764  10.476
17193W        W76487   7.708   0.765  11.983
17194W        W76488  17.091  28.457  14.315
17195W        W76489  10.855  22.035  12.513
17196W        W76490  35.022  35.995   0.843
17197W        W76491  14.703  15.174   1.430
17198W        W76492  22.032  29.071   0.848
17199W        W76493  42.798  13.692  11.935
17200W        W76494  10.786  41.847  11.969
17201W        W76495   1.909  15.270  11.412
17202W        W76496  41.951  42.938   2.732
17203W        W76497  18.594   4.446   4.739
17204W        W76498  15.746  21.201  14.941
17205W        W76499  37.504   0.491  12.876
17206W        W76500  10.320   5.290   0.734
17207W        W76501  28.042  23.115  10.926
17208W        W76502  43.775  35.517  10.479
17209W        W76503   3.786   9.757   2.730
17210W        W76504  43.979  18.757   0.446
17211W        W76505  26.953  23.986  12.864
17212W        W76506  44.892  10.793   2.283
17213W        W76507  37.368   5.279   0.855
17214W        W76508  14.115   3.274   5.317
17215W        W76509   7.228  17.700   4.643
17216W        W76510   5.319  27.614  11.400
17217W        W76511  32.545  39.004  14.863
17218W        W76512  36.889  27.150   3.289
17219W        W76513  26.086  27.449   1.282
17220W        W76514  12.288  14.673  13.812
17221W        W76515  21.628   0.428   3.798
17222W        W76516   0.333  28.015  10.588
17223W        W76517   3.933  36.509   2.204
17224W        W76518   6.224   7.858   2.412
17225W        W76519  17.619   6.856  11.103
17226W        W76520  25.152  34.062  10.614
17227W        W76521  14.742   5.383   2.189
17228W        W76522   8.342   3.244   3.635
17229W        W76523  35.437   6.786   9.988
17230W        W76524   8.247   3.919   4.190
17231W        W76525  33.091  37.521   0.885
17232W        W76526  42.362   4.838   3.646
17233W        W76527   9.865  42.838   4.151
17234W        W76528  10.749   9.168  14.911
17235W        W76529  19.104  14.781   0.895
17236W        W76530   5.408  12.164  10.902
17237W        W76531  11.743  26.598  10.093
17238W        W76532  38.373  11.809   4.643
17239W        W76533  28.990   9.682  13.392
17240W        W76534  27.514  30.446   2.839
17241W        W76535   2.353  13.834  13.380
17242W        W76536  30.501  34.956  12.081
17243W        W76537  34.104  43.356  14.332
17244W        W76538   4.422  31.104   3.339
17245W        W76539  36.531  10.299  14.452
17246W        W76540  28.127  10.208   0.438
17247W        W76541  32.458  37.927  13.405
17248W        W76542   0.335  40.508  10.423
17249W        W76543   5.767  10.245  14.902
17250W        W76544  10.380  10.175  10.407
17251W        W76545  42.879  16.121  13.894
17252W        W76546  36.347   1.831  11.025
17253W        W76547  35.501  41.824  10.618
17254W        W76548  12.635  39.819   2.723
17255W        W76549  20.674  32.096   4.143
17256W        W76550   0.794  24.056   4.314
17257W        W76551  14.217  17.583   0.763
17258W        W76552  28.014  23.634  11.605
17259W        W76553  36.887  37.917   0.939
17260W        W76554  21.074  38.894   1.376
17261W        W76555  24.639  44.501  13.010
17262W        W76556  33.931  23.693  13.799
17263W        W76557  25.588  18.260  11.407
17264W        W76558  41.928   6.257   2.373
17265W        W76559  37.576   0.296  13.347
17266W        W76560  34.375  16.657   1.717
17267W        W76561  14.739  19.775   2.381
17268W        W76562  36.924  17.297   3.243
17269W        W76563  12.266   2.453  13.427
17270W        W76564   9.149   7.396   4.332
17271W        W76565  17.692   3.751   4.630
17272W        W76566  27.123  29.921   3.337
17273W        W76567  14.658  33.997  13.392
17274W        W76568  25.628  11.200  11.589
17275W        W76569   0.458  20.658  10.957
17276W        W76570  25.189   1.817  14.804
17277W        W76571  32.580  23.062   1.395
17278W        W76572  33.060  15.126   2.286
17279W        W76573  44.984  40.043  14.492
17280W        W76574  31.945   7.831   5.095
17281W        W76575  12.616  22.164  13.912
17282W        W76576   2.261   7.289  10.971
17283W        W76577  22.528  42.808  10.441
17284W        W76578  40.416  22.143   4.158
17285W        W76579   1.472  41.892  12.909
17286W        W76580   0.249  15.096   4.140
17287W        W76581  14.592  25.205  14.978
17288W        W76582  11.261   9.756  10.993
17289W        W76583  42.365  22.690   1.780
17290W        W76584  42.458  31.975  13.493
17291W        W76585  30.452  33.979  12.508
17292W        W76586  27.957   4.413   4.647
17293W        W76587  12.790  12.815  10.556
17294W        W76588   3.328  14.630   2.692
17295W        W76589  20.118  14.144   1.263
17296W        W76590  31.458  12.326   1.353
17297W        W76591  36.559  16.125   0.753
17298W        W76592  34.918  34.118   1.366
17299W        W76593  32.631  44.377  11.123
17300W        W76594  15.127  29.068   4.769
17301W        W76595  32.541   6.400  11.491
17302W        W76596  25.014  15.681   9.966
17303W        W76597  11.259  23.551  11.903
17304W        W76598  34.999  42.803  13.447
17305W        W76599  17.120  35.061  11.611
17306W        W76600  38.003   0.354  14.957
17307W        W76601  22.997  33.409  13.540
17308W        W76602  43.378   2.340   4.217
17309W        W76603  20.541  26.609   2.716
17310W        W76604   4.753   4.914  13.396
17311W        W76605   0.917  19.728   3.825
17312W        W76606   0.863  30.438   1.280
17313W        W76607  26.593  26.456   5.127
17314W        W76608  37.934  34.008  14.407
17315W        W76609   3.716   4.773   3.669
17316W        W76610  36.490  41.439  11.478
17317W        W76611   2.450  33.988  11.480
17318W        W76612  40.020  38.967   0.895
17319W        W76613  39.427  43.944  13.041
17320W        W76614  16.685  44.770  14.474
17321W        W76615  44.760  32.486  12.405
17322W        W76616   9.866  13.788  11.396
17323W        W76617  19.752  24.154  14.458
17324W        W76618  13.176  13.117   4.155
17325W        W76619  42.327  36.871   4.695
17326W        W76620  20.555  30.468   3.237
17327W        W76621  19.741  44.353  12.015
17328W        W76622  30.068  41.352  14.488
17329W        W76623  22.240  12.614  14.882
17330W        W76624  27.650   8.693  12.387
17331W        W76625   5.412  26.700  10.548
17332W        W76626   8.311  19.107  11.500
17333W        W76627  29.582  12.767   4.690
17334W        W76628  18.626  33.416   3.248
17335W        W76629  24.989  44.858  11.533
17336W        W76630  12.746  13.340  10.914
17337W        W76631  17.153   5.438   1.876
17338W        W76632  14.244   0.441   0.340
17339W        W76633  32.466  13.816  13.932
17340W        W76634  10.810  12.725   4.689
17341W        W76635   5.745  33.510   0.429
17342W        W76636   1.238  18.789  12.534
17343W        W76637  23.067  24.645   3.826
17344W        W76638   0.940   8.197  10.950
17345W        W76639   7.194   4.837   4.351
17346W        W76640  15.633  12.320  14.793
17347W        W76641  13.231  38.866   1.761
17348W        W76642  24.641  13.278   2.277
17349W        W76643   0.342  24.056  13.341
17350W        W76644   8.657  14.594   4.224
17351W        W76645  22.127   2.388   3.285
17352W        W76646   0.383  37.864   1.908
17353W        W76647  39.929   6.368  13.326
17354W        W76648  26.970  14.632  13.009
17355W        W76649  10.139  18.718  11.983
17356W        W76650  27.035   3.302   2.865
17357W        W76651  19.046  25.634   2.792
17358W        W76652   7.346  24.639   3.835
17359W        W76653  36.864  20.656  14.836
17360W        W76654  15.299  41.338  13.546
17361W        W76655  40.976  19.057  13.435
17362W        W76656  14.644  24.211   4.317
17363W        W76657  22.541  36.561  14.460
17364W        W76658   5.852  42.888  14.439
17365W        W76659  14.279   2.382  10.581
17366W        W76660  28.098  21.525   3.739
17367W        W76661  23.998  11.742   3.638
17368W        W76662  25.972   1.363  13.322
17369W        W76663  30.133  22.649   2.778
17370W        W76664  26.075   1.896   3.148
17371W        W76665  40.417  19.623  14.961
17372W        W76666  36.096  11.287  10.518
17373W        W76667  10.373  14.265   2.221
17374W        W76668  33.919  43.469  13.409
17375W        W76669   9.157  42.417  13.004
17376W        W76670  39.420  20.219   0.899
17377W        W76671   7.883   7.385  12.495
17378W        W76672  10.300   8.744  14.383
17379W        W76673  30.033  39.842   0.799
17380W        W76674  22.566   7.690   2.767
17381W        W76675   6.210  30.550   2.706
17382W        W76676  25.201  27.961  12.557
17383W        W76677   1.469  14.140   1.783
17384W        W76678  37.052  20.614  11.565
17385W        W76679  24.048  32.514   4.255
17386W        W76680  38.874  33.502  12.501
17387W        W76681  26.975  37.569  14.977
17388W        W76682  31.530  41.003   0.365
17389W        W76683  17.738  23.168  14.328
17390W        W76684  20.196  39.557   3.350
17391W        W76685  10.224  21.690   0.328
17392W        W76686  42.302  40.318  12.077
17393W        W76687  20.741  44.449   3.231
17394W        W76688   3.936  18.699  11.416
17395W        W76689  36.480  25.603  12.988
17396W        W76690   8.759  26.023  10.914
17397W        W76691  42.312  17.081   1.755
17398W        W76692  29.556   2.251  12.498
17399W        W76693   9.714  32.396   2.358
17400W        W76694   1.881  38.394  11.596
17401W        W76695   2.321  16.115   1.833
17402W        W76696  20.719   7.231  11.440
17403W        W76697  28.938  20.633  13.358
17404W        W76698  29.121   0.780   4.712
17405W        W76699  36.874  38.480  12.369
17406W        W76700  35.087   2.782   1.911
17407W        W76701  20.213   3.354  13.498
17408W        W76702  29.576  15.106   0.813
17409W        W76703  20.648  10.721   5.128
17410W        W76704  23.602  40.842   0.856
17411W        W76705  22.542  26.067   1.314
17412W        W76706   3.313  33.989   2.311
17413W        W76707   4.285  20.635   2.875
17414W        W76708  22.662  32.090  10.980
17415W        W76709  15.296   7.303   0.294
17416W        W76710  40.475  23.545  14.352
17417W        W76711  26.553  13.782   0.267
17418W        W76712  23.629  30.542   1.872
17419W        W76713  26.639  39.318   3.266
17420W        W76714  43.314  34.097  14.508
17421W        W76715   5.926   3.401  11.380
17422W        W76716  17.071  38.555   4.743
17423W        W76717  10.814   9.157   4.824
17424W        W76718  39.037  27.022  13.893
17425W        W76719  25.640  37.418  14.341
17426W        W76720  24.507  30.517  14.384
17427W        W76721  31.457  20.068   1.755
17428W        W76722  27.981   3.394  13.509
17429W        W76723  34.609  19.160   0.807
17430W        W76724   9.710  24.060   0.804
17431W        W76725   3.244   0.429  12.565
17432W        W76726  30.441  28.070   0.407
17433W        W76727  12.785  17.185   2.844
17434W        W76728  27.662  24.530   4.347
17435W        W76729  28.948  25.674  14.830
17436W        W76730  15.779  30.539  13.413
17437W        W76731  33.582  30.480   2.714
17438W        W76732  34.027   6.809  13.364
17439W        W76733   3.448  28.942   1.856
17440W        W76734  26.536  16.304   1.761
17441W        W76735  11.785  37.478   0.410
17442W        W76736  10.684  13.715   4.157
17443W        W76737   0.255   1.894  12.385
17444W        W76738  33.963  44.468  12.901
17445W        W76739  33.043  34.454   2.807
17446W        W76740   4.883  22.501  12.023
17447W        W76741  14.646   1.458  11.872
17448W        W76742   4.805  15.730  12.352
17449W        W76743   0.921   8.314  13.790
17450W        W76744   2.883  43.386   0.824
17451W        W76745   5.895  15.666  13.908
17452W        W76746  26.632  14.292   1.237
17453W        W76747   5.841  31.108   5.114
17454W        W76748  31.603  15.675   0.895
17455W        W76749  15.223   5.389  14.384
17456W        W76750  17.179  42.884  10.960
17457W        W76751   1.402  40.478  12.880
17458W        W76752   7.867  26.650  11.601
17459W        W76753  39.972  31.445  14.848
17460W        W76754  42.776  10.828  13.467
17461W        W76755  22.073   3.850  10.982
17462W        W76756   9.173  13.121   1.877
17463W        W76757  38.009  32.004   4.838
17464W        W76758  25.029  10.194  14.829
17465W        W76759   6.835   1.794  13.390
17466W        W76760  23.151  28.091  11.466
17467W        W76761  16.576  38.417   3.703
17468W        W76762  40.306  36.058   2.728
17469W        W76763   2.911  11.279   0.463
17470W        W76764  27.539  21.208  12.495
17471W        W76765  25.020  37.949   1.403
17472W        W76766  18.675  38.999   0.733
17473W        W76767  13.106  35.016  14.397
17474W        W76768  38.415  44.379   0.436
17475W        W76769   8.796   0.815  11.536
17476W        W76770  41.866  35.375  14.873
17477W        W76771   1.394   8.667   1.698
17478W        W76772  28.152  23.508  14.972
17479W        W76773  11.315  33.432   3.236
17480W        W76774  20.036  29.026   0.267
17481W        W76775  42.465  29.022  11.914
17482W        W76776  10.171   5.791   3.356
17483W        W76777   8.861  28.494  11.936
17484W        W76778   0.909   5.728  10.525
17485W        W76779  37.887  21.040   3.240
17486W        W76780  41.882  12.187  11.889
17487W        W76781   0.968  35.056  12.447
17488W        W76782   0.748  33.598  10.914
17489W        W76783  42.969  42.459   3.717
17490W        W76784  11.721   2.390  13.850
17491W        W76785  19.221  35.596  12.008
17492W        W76786  23.591  37.088  12.366
17493W        W76787  22.594  10.792  14.879
17494W        W76788  38.339  11.334   0.807
17495W        W76789   2.254  37.887  14.323
17496W        W76790  34.490  10.202  13.849
17497W        W76791  28.136  36.378  11.519
17498W        W76792  28.601  42.398  11.557
17499W        W76793   0.832   8.684  11.947
17500W        W76794  22.175  11.349   3.682
17501W        W76795  15.590   8.168  13.365
17502W        W76796   1.862  23.129   4.169
17503W        W76797   2.889  25.006  12.451
17504W        W76798  41.037  12.614  14.377
17505W        W76799  24.020  28.136  11.492
17506W        W76800  16.685   7.198  10.639
17507W        W76801  12.657   3.861  14.460
17508W        W76802  37.498  34.446  13.525
17509W        W76803  16.123  25.585  14.883
17510W        W76804  34.996  38.041  13.975
17511W        W76805  21.664   6.281  14.958
17512W        W76806   0.844  22.548  13.834
17513W        W76807   2.737  32.109   4.288
17514W        W76808  29.020  34.931  13.796
17515W        W76809  24.646  25.576   1.718
17516W        W76810  12.827  36.939  11.373
17517W        W76811  12.277   6.878  13.961
17518W        W76812  44.779  11.828  11.449
17519W        W76813  27.488  11.712  13.860
17520W        W76814   8.743  18.254   4.195
17521W        W76815  39.009  25.198  10.156
17522W        W76816   8.717  21.025  11.949
17523W        W76817  18.754  26.665   1.902
17524W        W76818   5.706  39.470  11.466
17525W        W76819  20.034  16.317  14.826
17526W        W76820  34.429  14.247   2.747
17527W        W76821  43.889  37.541  14.306
17528W        W76822  13.136  23.548  13.993
17529W        W76823   3.840  13.112   4.634
17530W        W76824  39.544   9.816   9.950
17531W        W76825  16.282   5.756   1.716
17532W        W76826  36.370  30.478  10.016
17533W        W76827  27.566  33.543   1.883
17534W        W76828   4.847  24.698   2.896
17535W        W76829  24.188  20.647  10.469
17536W        W76830  31.416  24.214  13.471
17537W        W76831   9.383   9.671  11.439
17538W        W76832  42.945   4.431   3.867
17539W        W76833   1.431  15.129   3.714
17540W        W76834  32.054  37.985   3.745
17541W        W76835   1.894  22.172  11.017
17542W        W76836  14.168  24.518  12.851
17543W        W76837  10.691  44.414   0.952
17544W        W76838  33.621  31.580   4.709
17545W        W76839  28.023  30.574  12.856
17546W        W76840  35.889  17.176  13.909
17547W        W76841  20.708  20.041  13.470
17548W        W76842  35.480  25.614  14.486
17549W        W76843  22.222  27.010  14.798
17550W        W76844  37.370  28.016  12.977
17551W        W76845  43.868  28.678   4.186
17552W        W76846  43.815  22.665  13.548
17553W        W76847  29.478  37.974   2.410
17554W        W76848  11.689  35.056   0.339
17555W        W76849  26.497  32.432  12.967
17556W        W76850  16.168  16.147  13.425
17557W        W76851  23.735  34.402   1.429
17558W        W76852  33.972  27.067   1.338
17559W        W76853  18.187  14.280  12.475
17560W        W76854   6.905  32.424  11.868
17561W        W76855  32.002   9.789   4.326
17562W        W76856  15.323  17.603   0.379
17563W        W76857  19.699   6.705   0.292
17564W        W76858  33.575  36.895  13.877
17565W        W76859   4.838  35.394  10.422
17566W        W76860   0.340   2.263   2.746
17567W        W76861  24.068  35.057   4.167
17568W        W76862   9.359  31.476   2.327
17569W        W76863  43.375  12.672  11.438
17570W        W76864  21.661  44.907  14.018
17571W        W76865   4.301  15.590   1.407
17572W        W76866  31.450  23.030  14.975
17573W        W76867  27.483  31.425   4.225
17574W        W76868  39.377  41.401   0.284
17575W        W76869  39.447  24.111  14.423
17576W        W76870  31.969  38.848  12.027
17577W        W76871  26.681  20.534   3.318
17578W        W76872   0.490  44.961  13.035
17579W        W76873  37.532   0.256  10.005
17580W        W76874  34.990  35.975  13.894
17581W        W76875  34.563  33.609  14.873
17582W        W76876  19.217  39.022  12.061
17583W        W76877   4.809   0.936  11.979
17584W        W76878  27.125  23.494   0.317
17585W        W76879  15.286  34.982   1.328
17586W        W76880  29.455  43.448   2.284
17587W        W76881  22.600  39.816   2.200
17588W        W76882   6.778  15.116  12.925
17589W        W76883  30.082   7.788  10.608
17590W        W76884  10.652  19.648  11.401
17591W        W76885   1.270  27.467   0.874
17592W        W76886  20.577  42.990  14.375
17593W        W76887  39.331   3.933   2.756
17594W        W76888  29.605  29.078   5.266
17595W        W76889  17.294   7.221  14.493
17596W        W76890  37.066  15.323   1.731
17597W        W76891  18.141  43.950   4.781
17598W        W76892  10.836  23.687   4.654
17599W        W76893  39.848   4.837   2.345
17600W        W76894  38.368  11.767  14.806
17601W        W76895  37.375  43.955  12.570
17602W        W76896  25.194  23.151  14.286
17603W        W76897  32.488   5.214   2.818
17604W        W76898  28.088  38.392  12.075
17605W        W76899  12.758  22.514   2.394
17606W        W76900   3.922  34.451   2.242
17607W        W76901  43.457  19.056   2.842
17608W        W76902  41.030   2.325  14.368
17609W        W76903  42.366  40.351  14.403
17610W        W76904   3.799  29.627  10.601
17611W        W76905  37.356   4.369   1.791
17612W        W76906  31.061  10.371  12.516
17613W        W76907  11.836  27.495  11.979
17614W        W76908  23.646  37.445  14.846
17615W        W76909   9.773  12.330  10.946
17616W        W76910  35.854   2.366  10.644
17617W        W76911   8.273   6.228   2.390
17618W        W76912  37.465  13.105   1.442
17619W        W76913  34.946  36.985  11.547
17620W        W76914   2.877  23.053   1.260
17621W        W76915   3.939  23.690   1.355
17622W        W76916  37.041   2.395  13.845
17623W        W76917  17.224   8.660   2.267
17624W        W76918   5.820   6.358  13.047
17625W        W76919  37.905  44.369   3.676
17626W        W76920  29.154  13.801   2.684
17627W        W76921   7.839  40.961   1.856
17628W        W76922  38.831   4.784  14.437
17629W        W76923  13.628   1.902  11.393
17630W        W76924   3.811  10.744   4.743
17631W        W76925  23.679  29.975  13.924
17632W        W76926  30.044   4.713  10.582
17633W        W76927   6.846  10.815  13.488
17634W        W76928  12.175  31.544   1.828
17635W        W76929  25.122  10.841  13.369
17636W        W76930  15.099  27.472  11.904
17637W        W76931  29.924  37.911   4.225
17638W        W76932  34.372  26.992   4.120
17639W        W76933  17.234  42.010   1.852
17640W        W76934  38.942  12.288   0.399
17641W        W76935  26.495   7.685  14.800
17642W        W76936  31.525  10.249  10.521
17643W        W76937  28.978   7.333  12.545
17644W        W76938   4.836   4.250   0.812
17645W        W76939  15.128  41.922  13.942
17646W        W76940  14.797  12.732  13.911
17647W        W76941  34.589   0.392  14.319
17648W        W76942   5.306  13.225  13.983
17649W        W76943  37.397   2.238  10.561
17650W        W76944   3.426  20.711  13.955
17651W        W76945  25.674  34.439  11.576
17652W        W76946   9.769  20.241   9.485
17653W        W76947  33.072  18.121   0.257
17654W        W76948  24.151  23.525  10.152
17655W        W76949   3.905  16.082  12.894
17656W        W76950   4.813  16.263  14.341
17657W        W76951  34.536  14.294   4.725
17658W        W76952  24.538  11.200  12.356
17659W        W76953  12.743  13.118  13.390
17660W        W76954  20.078  18.068  13.467
17661W        W76955  32.894  10.282  12.961
17662W        W76956   4.363   9.301  12.578
17663W        W76957  27.989   1.895   0.399
17664W        W76958  32.894  24.045  12.031
17665W        W76959  35.395   2.847  10.940
17666W        W76960   4.420   7.217  14.957
17667W        W76961  25.563  41.942   2.896
17668W        W76962   3.448   9.293   3.292
17669W        W76963  35.524  12.759  11.904
17670W        W76964  13.163   0.287   1.251
17671W        W76965  20.073  16.613   0.431
17672W        W76966  22.127  41.470  11.591
17673W        W76967  33.595   1.947  10.545
17674W        W76968  22.219  11.715   1.892
17675W        W76969  10.829  19.051  12.000
17676W        W76970  20.254  27.022   0.781
17677W        W76971   8.309  37.902  10.600
17678W        W76972  19.708  17.201   0.278
17679W        W76973  23.144  37.080  12.388
17680W        W76974  36.073  28.963   4.346
17681W        W76975  17.603  14.123  13.792
17682W        W76976  11.787  29.451   4.710
17683W        W76977   5.835   8.718  10.620
17684W        W76978  34.900  34.058   4.806
17685W        W76979  35.955  24.482  12.057
17686W        W76980  32.419  42.443   0.881
17687W        W76981  10.242  41.381  10.915
17688W        W76982  40.346   9.172   4.264
17689W        W76983  17.587   7.350   1.783
17690W        W76984  11.674   3.929  14.003
17691W        W76985  32.906  10.721  12.508
17692W        W76986  15.145   4.340   2.370
17693W        W76987  23.591  29.081   2.363
17694W        W76988  23.023  41.533  11.951
17695W        W76989  37.335  28.604   3.352
17696W        W76990  32.617  30.158  14.513
17697W        W76991  25.690  32.609  13.463
17698W        W76992  27.480   7.714   2.268
17699W        W76993  16.125  12.179   4.822
17700W        W76994  38.882   4.282   3.675
17701W        W76995  33.466   2.769  14.838
17702W        W76996  18.550  16.233   2.839
17703W        W76997   5.286  36.348   3.714
17704W        W76998  12.354  29.961   0.447
17705W        W76999  33.436  25.986   2.667
17706W        W77000  39.497  15.653   3.347
17707W        W77001   9.692  15.261   0.347
17708W        W77002  40.352  11.853   2.777
17709W        W77003   6.711  16.643  13.830
17710W        W77004  36.940   5.858  14.832
17711W        W77005  38.352  31.467  12.095
17712W        W77006  37.504  27.055   3.202
17713W        W77007  17.731   6.224   2.671
17714W        W77008   2.286  42.963  12.523
17715W        W77009  38.402  18.278   1.798
17716W        W77010  26.071  22.710  12.852
17717W        W77011  18.711  10.828  10.912
17718W        W77012  34.441  15.748  13.814
17719W        W77013  28.029  26.693  11.010
17720W        W77014  25.645  10.314   2.902
17721W        W77015   2.823  33.437   4.337
17722W        W77016   8.790   2.448  12.974
17723W        W77017  39.402  41.036   3.170
17724W        W77018   8.778   1.956   2.220
17725W        W77019  32.584  19.575   1.224
17726W        W77020  22.018   6.797   3.673
17727W        W77021  17.193  13.262   2.375
17728W        W77022  34.077  22.024  13.397
17729W        W77023   2.784  15.772   1.818
17730W        W77024   1.855  24.158   0.307
17731W        W77025  23.553   6.735  11.421
17732W        W77026  37.941  16.578   3.178
17733W        W77027  13.208  31.464  12.061
17734W        W77028  24.168   1.911   3.701
17735W        W77029  15.765  15.226  12.513
17736W        W77030  20.577  33.024   3.743
17737W        W77031  15.277  29.450  12.513
17738W        W77032  27.619   2.447  11.904
17739W        W77033  33.875  42.387  13.455
17740W        W77034  22.213  28.144   2.823
17741W        W77035  22.054  10.843  10.994
17742W        W77036  35.881  27.966   0.851
17743W        W77037   9.193  41.529  13.877
17744W        W77038  34.099  10.839   4.174
17745W        W77039  16.617  28.522   1.406
17746W        W77040  21.520   3.416  12.093
17747W        W77041  33.603  37.487   4.752
17748W        W77042  39.340  36.009   2.818
17749W        W77043  13.680   7.841   2.341
17750W        W77044  28.667  43.849   3.861
17751W        W77045  20.239  27.129  10.947
17752W        W77046  26.688  42.499  11.099
17753W        W77047   8.322  22.511   2.205
17754W        W77048  18.200  37.879  14.864
17755W        W77049  44.837  13.631   0.303
17756W        W77050  43.466  24.193  10.888
17757W        W77051   8.276  36.397   2.233
17758W        W77052  35.434   7.269   1.411
17759W        W77053  17.170  22.027  14.838
17760W        W77054  14.633  37.042   0.797
17761W        W77055  11.213   9.829   2.765
17762W        W77056  14.639   9.881   1.398
17763W        W77057  36.550  28.081  10.409
17764W        W77058  24.230  28.655  13.344
17765W        W77059   1.395   5.368  13.919
17766W        W77060  26.471   7.906   0.441
17767W        W77061  26.692  24.536  12.011
17768W        W77062  42.807   2.733   0.925
17769W        W77063  10.243  24.555   2.220
17770W        W77064   0.838   6.182   5.252
17771W        W77065  30.980  28.522   2.243
17772W        W77066  25.158  37.381  14.279
17773W        W77067   6.802  24.106   2.853
17774W        W77068  26.135  27.067  11.081
17775W        W77069  11.759  36.036   4.153
17776W        W77070  20.699  26.561   4.598
17777W        W77071  43.827  35.089   3.752
17778W        W77072  29.978  36.939   4.290
17779W        W77073  41.005   8.834  12.577
17780W        W77074  22.112   8.682  13.393
17781W        W77075  10.313  39.496   2.261
17782W        W77076  28.992  39.471   2.666
17783W        W77077   7.191  15.720   3.231
17784W        W77078  20.738  42.450  13.537
17785W        W77079  41.451  21.655  12.392
17786W        W77080   5.802  44.910  12.349
17787W        W77081  36.577  34.027  14.378
17788W        W77082  12.836  21.099   1.238
17789W        W77083  23.025   4.766   2.811
17790W        W77084  34.995  15.282   2.308
17791W        W77085  27.464   7.233   2.356
17792W        W77086  18.565  16.174  14.385
17793W        W77087  44.308  19.669  10.991
17794W        W77088  40.393  11.829   4.338
17795W        W77089  36.532  27.071   3.740
17796W        W77090   6.194  29.625  10.549
17797W        W77091  26.056   3.407  11.601
17798W        W77092  31.479   9.690   4.280
17799W        W77093   4.837  37.930  13.507
17800W        W77094  37.340  37.881  12.922
17801W        W77095  20.616  16.699   4.607
17802W        W77096  12.194  20.182  12.345
17803W        W77097  26.101   6.187   0.797
17804W        W77098  21.726  22.197  12.936
17805W        W77099  24.213   7.416  14.276
17806W        W77100  41.891  23.194   0.740
17807W        W77101  12.643   3.219   4.332
17808W        W77102  34.566  26.977   3.254
17809W        W77103  12.167   9.740   0.840
17810W        W77104  10.747  29.076   2.329
17811W        W77105  31.480  41.812   1.359
17812W        W77106  11.804  35.377   1.218
17813W        W77107  37.937   7.260   3.734
17814W        W77108  22.098  30.916   0.876
17815W        W77109  23.142  38.865  14.949
17816W        W77110  43.905  37.571   3.677
17817W        W77111  22.678  18.545  12.565
17818W        W77112  14.800  33.973   3.829
17819W        W77113  20.712  40.928   0.339
17820W        W77114   5.257  28.996  13.888
17821W        W77115  16.785  29.547  12.944
17822W        W77116   4.437  39.386  13.325
17823W        W77117  13.646  38.554  14.493
17824W        W77118  22.696   7.711  12.475
17825W        W77119  38.564  11.624  10.896
17826W        W77120  24.193  14.732  14.445
17827W        W77121   3.847  30.944   2.795
17828W        W77122   6.287  42.947   5.266
17829W        W77123  37.833  30.049   4.253
17830W        W77124  27.157   8.769   0.898
17831W        W77125  26.589  40.841   1.427
17832W        W77126  21.551  39.389   1.834
17833W        W77127  13.347  20.104   0.898
17834W        W77128   6.775  42.303  10.432
17835W        W77129  38.044  14.305  14.020
17836W        W77130  15.216  31.000  13.045
17837W        W77131  39.394  10.159  12.548
17838W        W77132  19.051  10.647  10.094
17839W        W77133   5.284   6.216  13.403
17840W        W77134  35.447  21.618  10.502
17841W        W77135  14.126  25.587  14.852
17842W        W77136   4.255  12.838   1.364
17843W        W77137  18.731  41.968  13.389
17844W        W77138   0.325   5.371   0.432
17845W        W77139   8.796  21.574   2.788
17846W        W77140  21.042  32.545  12.963
17847W        W77141  24.502   4.783   4.352
17848W        W77142  25.215  38.444  13.995
17849W        W77143  41.954  35.424  13.521
17850W        W77144   6.804  30.597   3.740
17851W        W77145  14.231  13.621   2.845
17852W        W77146  17.281  21.103   0.263
17853W        W77147  35.475  23.139   2.671
17854W        W77148  30.146  30.079  14.419
17855W        W77149  31.515  31.974   5.158
17856W        W77150  32.976  24.542   3.156
17857W        W77151  41.320  32.457  10.986
17858W        W77152  16.711  17.085   0.781
17859W        W77153   8.753  32.495   1.923
17860W        W77154  26.503   3.373  12.389
17861W        W77155   5.399  10.685   1.772
17862W        W77156  30.448  25.566   1.850
17863W        W77157  15.093  29.932   0.962
17864W        W77158   9.169  15.723  10.009
17865W        W77159  30.522  44.835  13.963
17866W        W77160   8.271   6.406  12.935
17867W        W77161   0.489  14.776  12.041
17868W        W77162  22.030   8.193  11.937
17869W        W77163  21.560  26.554   3.803
17870W        W77164  21.203  24.532  14.415
17871W        W77165  43.997  42.906   2.280
17872W        W77166  29.615  31.445   4.289
17873W        W77167  22.581   1.462  14.363
17874W        W77168  13.227  34.523   5.085
17875W        W77169  24.721  34.990   4.295
17876W        W77170  34.578  41.324  14.422
17877W        W77171  18.638  44.836  12.855
17878W        W77172  17.296  34.389  14.798
17879W        W77173  22.248  41.027   3.677
17880W        W77174  38.060  20.761  12.086
17881W        W77175  36.421  10.729   3.785
17882W        W77176  25.052  20.566   2.800
17883W        W77177  28.609  19.554  11.514
17884W        W77178  13.351  38.029   4.610
17885W        W77179  31.990  26.187  13.028
17886W        W77180  14.213  19.072  13.004
17887W        W77181  14.739  43.960  12.842
17888W        W77182   1.402  38.518   2.866
17889W        W77183  20.261  19.678  12.075
17890W        W77184   0.893   3.850   2.215
17891W        W77185   0.750  16.220  12.548
17892W        W77186  19.221   1.780  11.400
17893W        W77187  38.500  14.235   0.322
17894W        W77188   4.431  27.036  12.070
17895W        W77189  15.318  40.909   1.302
17896W        W77190  42.914   8.688  13.543
17897W        W77191  30.912  29.131   1.720
17898W        W77192  14.689  44.351   3.642
17899W        W77193  14.680  21.086  13.388
17900W        W77194  40.811   1.856   1.710
17901W        W77195   6.294  21.643  11.053
17902W        W77196  14.311  28.098   4.303
17903W        W77197   8.659  13.675  13.381
17904W        W77198  23.656  16.567   0.352
17905W        W77199  14.743  14.805  11.916
17906W        W77200  41.460  26.029  14.287
17907W        W77201  25.620   6.698  13.464
17908W        W77202  25.165  35.092  11.084
17909W        W77203  15.104  43.788   3.769
17910W        W77204  13.601  39.890  10.469
17911W        W77205  12.208  29.632  13.056
17912W        W77206  30.015  19.247   3.235
17913W        W77207  32.571  24.983  10.460
17914W        W77208  24.547  41.938  12.935
17915W        W77209  15.281   6.784   1.331
17916W        W77210  27.678  15.089   0.928
17917W        W77211   8.248   2.866  13.846
17918W        W77212  42.475  31.531   3.349
17919W        W77213   7.686  26.581  13.052
17920W        W77214   3.728   2.763  12.565
17921W        W77215  35.447  29.091   3.365
17922W        W77216   0.955  26.957   0.432
17923W        W77217   1.859  11.699  14.938
17924W        W77218  36.844  11.712   0.371
17925W        W77219  24.580  39.997   0.255
17926W        W77220  15.160  10.333   0.838
17927W        W77221  24.218  18.645   2.292
17928W        W77222   9.645  25.075  12.378
17929W        W77223  42.015   6.792  12.891
17930W        W77224  10.710  12.189  13.501
17931W        W77225   8.784  28.963  12.548
17932W        W77226  35.980   5.713  11.430
17933W        W77227  22.222  16.637  11.550
17934W        W77228  39.553   6.220   4.127
17935W        W77229  21.515  12.127   4.343
17936W        W77230   9.175  18.545   2.736
17937W        W77231  22.553  42.435  11.474
17938W        W77232   2.805  39.415   3.351
17939W        W77233  15.167  19.542   2.828
17940W        W77234  35.003  43.785  11.447
17941W        W77235  25.216  38.993  10.118
17942W        W77236  40.826  25.478  11.858
17943W        W77237  18.779  41.036   4.210
17944W        W77238  44.492  32.496   0.267
17945W        W77239  21.658  42.017  14.390
17946W        W77240  25.014  44.995   4.832
17947W        W77241   2.317  35.088   2.207
17948W        W77242  43.282  28.167   3.762
17949W        W77243  35.506  37.423  12.941
17950W        W77244   8.361  40.537   4.683
17951W        W77245   5.295  11.777   3.669
17952W        W77246  18.707  43.501  10.611
17953W        W77247  18.259  22.720  14.932
17954W        W77248   0.897  25.167   0.856
17955W        W77249  27.005   0.845   0.869
17956W        W77250  18.195  36.849  10.610
17957W        W77251  21.654  26.168  14.828
17958W        W77252   7.173  30.617  14.409
17959W        W77253  40.397  13.205  11.583
17960W        W77254  41.883   7.405   0.266
17961W        W77255  32.510  30.012   3.831
17962W        W77256  11.263  16.607   4.355
17963W        W77257  35.401  44.377  11.112
17964W        W77258  27.691  12.301  11.867
17965W        W77259   0.809  19.200  13.378
17966W        W77260  32.040  37.988   2.223
17967W        W77261  40.302   1.751  12.895
17968W        W77262   6.803   2.422  14.958
17969W        W77263  27.482  11.791   3.802
17970W        W77264  42.785   8.260   4.785
17971W        W77265  11.864  28.068   3.815
17972W        W77266   2.442  36.016  13.039
17973W        W77267  19.674  41.848  12.353
17974W        W77268   8.317  18.678  14.332
17975W        W77269  30.022  20.585  14.275
17976W        W77270   5.288  23.034   3.164
17977W        W77271  13.651  30.469   0.750
17978W        W77272  19.237  29.019  12.046
17979W        W77273  27.686  38.923   0.833
17980W        W77274  26.482   1.938   1.387
17981W        W77275   6.417   7.274  14.877
17982W        W77276  35.474  10.805   2.727
17983W        W77277  18.679  40.043  10.446
17984W        W77278  17.103   1.257   3.806
17985W        W77279  44.869  37.477  11.050
17986W        W77280  41.447  29.023   3.330
17987W        W77281  35.585   1.953  14.463
17988W        W77282  35.584  30.632  11.878
17989W        W77283  24.034  25.974  13.444
17990W        W77284  31.542  32.977   3.798
17991W        W77285   5.760  27.481  13.927
17992W        W77286  33.888  36.496  13.019
17993W        W77287  26.038  10.875  11.033
17994W        W77288  39.558   7.807  12.848
17995W        W77289   7.396  11.185   0.915
17996W        W77290  36.849  33.469   1.696
17997W        W77291  35.014  27.102   2.733
17998W        W77292  39.056  41.340  11.479
17999W        W77293   0.494  19.742  14.854
18000W        W77294   2.877  44.830   2.691
18001W        W77295   7.245  43.827   3.183
18002W        W77296   3.868   7.344   2.194
18003W        W77297   6.339  15.788   3.706
18004W        W77298  34.927   4.431   1.816
18005W        W77299  15.767   0.431   3.716
18006W        W77300  20.093  22.683  12.090
18007W        W77301  21.721  21.251  13.480
18008W        W77302  19.270  21.521  12.543
18009W        W77303  16.732  17.080  11.002
18010W        W77304  38.032   3.442   3.298
18011W        W77305   5.427  25.518   0.367
18012W        W77306  29.517   1.462  13.505
18013W        W77307  37.928  41.956   3.864
18014W        W77308  30.958  21.557  12.906
18015W        W77309   0.364  17.164   0.292
18016W        W77310  10.801  37.381  13.467
18017W        W77311  27.479  14.791   3.345
18018W        W77312  30.561  16.719  12.387
18019W        W77313  16.077  16.269  13.954
18020W        W77314  10.805  22.613   3.797
18021W        W77315  12.196  28.971   3.194
18022W        W77316  22.222  39.408  11.516
18023W        W77317   0.907  22.076  12.560
18024W        W77318  12.684  39.353  11.099
18025W        W77319   9.248   2.851  14.942
18026W        W77320  33.888  13.122   2.296
18027W        W77321  38.564  44.391  11.960
18028W        W77322  11.721  43.979  14.784
18029W        W77323  38.520  18.659  12.890
18030W        W77324   8.188   9.246  11.923
18031W        W77325  28.553   8.712   0.749
18032W        W77326  18.258   6.898   0.452
18033W        W77327  39.853  13.274   2.903
18034W        W77328  20.599  20.062  11.114
18035W        W77329  25.588   9.766  10.622
18036W        W77330  38.048  26.961  14.475
18037W        W77331  20.039   7.286   0.848
18038W        W77332   6.843  12.166   1.240
18039W        W77333  33.967  40.940  12.960
18040W        W77334   4.321  39.015   1.285
18041W        W77335   0.489  16.682  13.861
18042W        W77336  24.596  19.152   2.852
18043W        W77337  13.662  11.182  14.425
18044W        W77338   2.346  16.314   3.212
18045W        W77339   3.950  24.224  14.503
18046W        W77340  44.425  23.069  12.548
18047W        W77341  44.333  37.831   2.189
18048W        W77342   2.865  43.883   3.181
18049W        W77343  13.207   8.720   0.434
18050W        W77344   6.716  44.331   1.395
18051W        W77345   7.382   4.426  11.920
18052W        W77346  30.910  20.642  14.764
18053W        W77347  16.689  42.382   4.800
18054W        W77348  28.076   8.784  13.485
18055W        W77349  42.989  44.009  10.016
18056W        W77350  36.893   3.221   4.645
18057W        W77351  12.716  11.204   1.728
18058W        W77352  40.548  43.440  11.490
18059W        W77353  16.199  18.255  10.476
18060W        W77354   2.903  14.748   4.304
18061W        W77355  18.276  15.260   4.730
18062W        W77356  20.532  34.599  13.332
18063W        W77357   1.303  33.016   3.269
18064W        W77358  36.553  39.539   2.308
18065W        W77359  42.810  19.080   0.341
18066W        W77360  15.671   8.821  13.480
18067W        W77361  39.900   3.307   1.766
18068W        W77362   6.268   9.214  10.967
18069W        W77363  12.727  27.035   4.226
18070W        W77364  41.495  11.310   1.862
18071W        W77365  20.584  32.068   1.273
18072W        W77366  17.109   5.386   1.217
18073W        W77367  29.033   7.206   1.302
18074W        W77368  25.997  12.272   2.864
18075W        W77369  35.873  17.801   4.317
18076W        W77370  19.686  15.155  13.027
18077W        W77371   2.823  12.724   0.918
18078W        W77372   8.814  43.884   0.469
18079W        W77373  25.510  16.193  12.557
18080W        W77374   1.316  20.225  13.825
18081W        W77375   7.245  15.109   2.225
18082W        W77376  35.398   0.421  12.948
18083W        W77377  16.717  24.708   4.156
18084W        W77378  33.598  11.767   1.359
18085W        W77379  33.524  21.724  14.030
18086W        W77380  18.178  29.623   4.139
18087W        W77381  36.889  11.706  11.475
18088W        W77382  19.266  16.196   1.813
18089W        W77383   1.237  28.171  12.939
18090W        W77384  44.330  35.026   0.451
18091W        W77385  32.999  42.786  12.966
18092W        W77386   5.423  38.044   1.774
18093W        W77387  22.999   0.317   4.143
18094W        W77388   0.960  30.532   2.766
18095W        W77389  16.776  37.403   4.142
18096W        W77390  28.665  22.633   1.780
18097W        W77391  44.910   3.215  12.422
18098W        W77392  17.753  26.594   1.898
18099W        W77393  39.923  16.139  10.986
18100W        W77394  10.655  32.910  12.461
18101W        W77395  31.002  33.921  10.934
18102W        W77396  13.200   2.370   3.713
18103W        W77397  15.799   4.723   0.796
18104W        W77398   3.907  32.050  13.373
18105W        W77399  11.371  42.381  14.327
18106W        W77400  32.045  33.040   0.472
18107W        W77401  29.118  41.935   0.293
18108W        W77402  14.733  32.494  14.922
18109W        W77403  14.127   6.325  14.387
18110W        W77404   7.777  43.006   5.102
18111W        W77405  23.720   6.769   4.219
18112W        W77406   1.922  10.191   1.813
18113W        W77407  16.194  19.058  10.147
18114W        W77408  24.212  37.433   5.293
18115W        W77409  19.534  17.087  13.984
18116W        W77410  20.050  19.251  10.898
18117W        W77411  36.566   5.415  13.003
18118W        W77412  40.436   6.749  12.070
18119W        W77413   5.767  19.690   3.833
18120W        W77414  29.619  19.739   4.322
18121W        W77415  26.550  24.084  14.870
18122W        W77416  16.748  31.461   4.150
18123W        W77417  37.063  38.935   3.152
18124W        W77418   5.825  24.066   4.819
18125W        W77419  42.293  27.636   3.862
18126W        W77420   2.429  41.958  11.540
18127W        W77421  28.459  35.874  14.444
18128W        W77422  10.855  23.632   0.477
18129W        W77423  39.394  38.458  10.933
18130W        W77424  36.558  33.489  12.006
18131W        W77425  40.837   7.788   3.838
18132W        W77426  14.273  40.541   2.871
18133W        W77427  14.700  32.057   2.413
18134W        W77428  38.367  43.772   0.429
18135W        W77429  37.831  30.536  10.087
18136W        W77430  42.359  38.837  13.871
18137W        W77431   6.404   9.789  14.444
18138W        W77432   8.399   2.792   3.213
18139W        W77433  15.687  39.367   4.767
18140W        W77434  42.361  22.059   1.231
18141W        W77435  18.251  12.125   1.421
18142W        W77436  35.070   4.356  12.422
18143W        W77437  22.734  25.481  13.401
18144W        W77438  44.977  25.617   0.483
18145W        W77439  36.874  32.415   0.907
18146W        W77440  24.170  40.925  10.436
18147W        W77441  27.027  16.710  12.012
18148W        W77442  21.026  33.017   2.372
18149W        W77443  39.872  39.049  13.938
18150W        W77444  25.078  14.122  14.845
18151W        W77445  11.283   6.676  14.979
18152W        W77446  24.128  24.723  14.775
18153W        W77447  29.092  38.327   2.798
18154W        W77448  37.064  28.157  14.832
18155W        W77449  40.542  34.415   5.163
18156W        W77450  27.660  30.094  10.488
18157W        W77451  22.520  36.856  11.866
18158W        W77452  21.650  21.109   2.380
18159W        W77453  16.626  16.740   2.722
18160W        W77454  29.979   3.924   1.394
18161W        W77455  15.214  25.188  11.571
18162W        W77456  44.922  38.995  12.534
18163W        W77457   8.191  24.505  13.511
18164W        W77458  30.505  27.659   4.750
18165W        W77459  37.455  33.111  10.636
18166W        W77460  28.650  28.089  10.929
18167W        W77461   2.749   2.324   3.263
18168W        W77462  43.838   6.745   2.693
18169W        W77463  19.728  21.592  11.039
18170W        W77464  32.489  20.604  12.506
18171W        W77465  23.710  37.862  11.026
18172W        W77466   1.471  20.032  12.970
18173W        W77467   5.845  32.609   2.714
18174W        W77468  26.538   9.380   0.412
18175W        W77469  13.613  28.020  14.884
18176W        W77470   2.815  43.367  14.332
18177W        W77471  41.508  42.920  12.469
18178W        W77472  41.793  18.232   1.413
18179W        W77473  26.699  15.235   0.312
18180W        W77474   3.391  10.377   1.263
18181W        W77475  44.861  14.709   4.603
18182W        W77476  44.383  28.477  13.805
18183W        W77477  19.135  12.818  13.444
18184W        W77478  39.351  19.694   3.653
18185W        W77479   5.865  16.790   4.304
18186W        W77480  24.513  26.524  12.912
18187W        W77481  10.816   1.851   5.674
18188W        W77482  40.314   2.468   0.427
18189W        W77483   4.256  23.993   4.660
18190W        W77484  24.651  18.139   4.713
18191W        W77485  20.543  29.451  10.991
18192W        W77486  33.100  44.502   1.727
18193W        W77487   4.269  18.296   2.733
18194W        W77488  44.971   5.207  10.060
18195W        W77489  25.696  44.917  12.492
18196W        W77490  40.482   0.339  11.527
18197W        W77491   1.837  24.213   4.711
18198W        W77492  24.093  25.179   0.430
18199W        W77493  39.986  11.727  14.385
18200W        W77494  21.560  17.771   0.448
18201W        W77495  23.719  37.527   1.822
18202W        W77496  18.079  25.689  14.847
18203W        W77497  22.037  21.691  14.908
18204W        W77498  37.990  18.246   4.783
18205W        W77499  44.429  25.031  11.463
18206W        W77500  39.390  40.362  10.984
18207W        W77501  18.220  40.938   1.357
18208W        W77502   6.288   1.255  11.962
18209W        W77503  20.095   0.378   2.772
18210W        W77504   3.769   3.373   2.235
18211W        W77505  36.542  24.080  12.577
18212W        W77506   6.797   8.315   1.245
18213W        W77507  19.050  18.699  13.354
18214W        W77508  34.968  29.141   3.151
18215W        W77509  41.378   3.722   0.830
18216W        W77510   5.872  13.755   0.804
18217W        W77511   3.771  35.495   3.340
18218W        W77512  34.579  20.574   1.749
18219W        W77513  26.205   2.297  11.902
18220W        W77514  25.982  41.022  11.113
18221W        W77515  24.514  40.916  14.411
18222W        W77516  24.155  28.965  11.051
18223W        W77517  14.292  18.189   4.638
18224W        W77518  39.498   9.181  10.534
18225W        W77519   2.792  27.071  13.874
18226W        W77520  22.997  36.946  14.966
18227W        W77521  44.974   6.369   0.893
18228W        W77522  30.435  30.979  12.950
18229W        W77523  18.647  16.780   3.854
18230W        W77524  23.643  23.118   4.661
18231W        W77525   2.754   2.247   5.604
18232W        W77526   9.817  13.124  13.861
18233W        W77527  36.415   5.331   1.353
18234W        W77528  36.493  32.588  13.540
18235W        W77529  18.564   9.243   1.223
18236W        W77530  20.704   8.367   5.252
18237W        W77531  40.903  16.603   2.729
18238W        W77532  11.821   1.947   0.783
18239W        W77533  34.870  44.830   4.139
18240W        W77534  25.529  42.871  10.412
18241W        W77535  41.813  15.681   4.216
18242W        W77536  16.095  21.525  13.009
18243W        W77537   0.950  17.158  13.358
18244W        W77538  29.537  38.432  14.989
18245W        W77539  21.129  28.582   1.288
18246W        W77540   4.849  40.378   2.383
18247W        W77541  36.917   2.940   3.767
18248W        W77542  15.805  23.150   0.960
18249W        W77543  12.225  36.087  10.971
18250W        W77544  14.764   7.184  12.856
18251W        W77545  33.601  26.625   4.316
18252W        W77546  18.617  17.227  11.076
18253W        W77547  36.945  30.598  11.013
18254W        W77548   7.289  38.865   1.812
18255W        W77549  24.219  34.080  11.026
18256W        W77550   6.411  27.494   4.687
18257W        W77551  25.210  32.482   4.183
18258W        W77552  24.546  43.936   3.802
18259W        W77553  13.830  23.605   4.665
18260W        W77554  41.335  42.822   1.714
18261W        W77555  36.882   9.296   0.935
18262W        W77556  23.194   6.759  11.433
18263W        W77557  15.819  13.110   2.306
18264W        W77558   9.709  22.578  11.419
18265W        W77559  34.892  16.203   2.233
18266W        W77560   2.305  21.614   2.812
18267W        W77561   5.227   4.808   4.308
18268W        W77562  33.476  36.435   2.737
18269W        W77563   5.866  18.780   9.972
18270W        W77564  24.045  11.809  11.468
18271W        W77565  15.255  21.117   1.305
18272W        W77566   7.784  44.316   0.320
18273W        W77567  22.668   0.985   5.083
18274W        W77568  11.210  21.639  11.413
18275W        W77569  40.542  10.858  11.920
18276W        W77570  33.056  21.147   9.929
18277W        W77571  16.603  14.834  13.499
18278W        W77572  35.364  19.048  12.369
18279W        W77573   4.237  10.231  12.458
18280W        W77574  35.097   5.313  13.878
18281W        W77575   8.317  39.321  12.051
18282W        W77576  24.720  35.011   0.811
18283W        W77577  39.497  26.184  14.428
18284W        W77578  23.144  32.462  11.573
18285W        W77579   4.419  35.867  12.030
18286W        W77580  26.672   2.868  11.952
18287W        W77581  28.932   8.184  11.427
18288W        W77582  29.051  42.974  12.538
18289W        W77583   4.859  17.778   4.304
18290W        W77584  18.596  23.211  11.066
18291W        W77585  24.567  10.785  12.549
18292W        W77586  38.568  15.163   3.785
18293W        W77587  44.820  42.438   2.732
18294W        W77588  40.508  34.510  10.046
18295W        W77589  14.733  43.892   3.829
18296W        W77590  29.102  36.393  13.417
18297W        W77591  14.335   0.865   0.365
18298W        W77592   5.914  11.196   2.212
18299W        W77593  18.789   9.662   2.770
18300W        W77594  26.204  31.502   1.370
18301W        W77595  19.053  26.587  12.873
18302W        W77596  19.189  29.151   2.722
18303W        W77597  44.397  26.195   2.224
18304W        W77598  22.519  32.123  14.909
18305W        W77599  24.478  19.100  11.936
18306W        W77600  23.591  37.980   0.404
18307W        W77601   2.373  33.946  14.437
18308W        W77602  39.383  42.777  13.889
18309W        W77603  22.583  18.295   4.723
18310W        W77604  26.982  13.160  14.877
18311W        W77605   1.424  35.518  12.938
18312W        W77606  34.590  26.208  14.399
18313W        W77607  22.055   0.898  11.109
18314W        W77608  17.656  15.680   2.192
18315W        W77609   4.347  22.511  14.948
18316W        W77610  20.228  34.120   0.304
18317W        W77611   0.816   1.732  13.848
18318W        W77612   6.413  22.181  10.507
18319W        W77613  24.712  16.648  13.322
18320W        W77614   4.893  34.991   2.356
18321W        W77615   9.292  12.239  10.563
18322W        W77616  29.925  40.458  13.951
18323W        W77617  32.058   0.794   3.791
18324W        W77618   7.241   7.793   1.365
18325W        W77619  33.040  23.020   2.797
18326W        W77620  41.443  24.170   2.792
18327W        W77621  40.498   7.192   1.398
18328W        W77622  33.124  24.561  12.858
18329W        W77623  24.187  24.097   3.371
18330W        W77624   4.432  42.294   1.416
18331W        W77625   3.299   3.384  11.033
18332W        W77626  42.840  11.759  13.921
18333W        W77627  13.278  31.647  13.526
18334W        W77628  13.808  36.066  14.871
18335W        W77629   2.723  22.110   3.854
18336W        W77630  27.544  10.874   4.301
18337W        W77631  33.879  20.605  10.592
18338W        W77632  13.220  34.460   3.841
18339W        W77633  26.494  40.889  11.471
18340W        W77634   4.941  27.083  12.916
18341W        W77635  30.476  42.839   5.092
18342W        W77636  13.163  26.600   5.098
18343W        W77637   1.780  32.582   4.812
18344W        W77638  44.266  32.024   3.162
18345W        W77639  11.734  15.255   4.743
18346W        W77640  28.117  35.563   3.159
18347W        W77641  40.853  15.229   2.877
18348W        W77642  33.537   7.265   3.187
18349W        W77643   9.818  29.959   3.197
18350W        W77644   0.891  11.349  12.930
18351W        W77645  28.675  44.927   2.265
18352W        W77646  42.473  30.907   2.391
18353W        W77647   3.884  11.723   0.307
18354W        W77648   7.399  25.657   0.471
18355W        W77649   9.798  21.613  10.080
18356W        W77650  31.528  21.118   4.608
18357W        W77651  15.728  18.195  12.046
18358W        W77652  24.149   0.916  14.279
18359W        W77653   5.745  37.478   3.273
18360W        W77654  21.691  26.467   3.156
18361W        W77655  44.912  16.199   4.351
18362W        W77656  19.188  37.347  14.354
18363W        W77657   9.199  17.695  12.896
18364W        W77658   3.738   2.758   4.171
18365W        W77659  21.173  41.861   1.233
18366W        W77660   5.839  13.679  14.996
18367W        W77661   4.774   0.973   5.300
18368W        W77662  23.097  33.933  11.989
18369W        W77663  25.704   1.743   4.170
18370W        W77664  44.982  17.569   1.718
18371W        W77665  44.779   4.358   4.625
18372W        W77666  44.000  17.102  11.862
18373W        W77667  39.528  36.902  11.964
18374W        W77668   5.922  44.919   0.785
18375W        W77669  39.020  20.560   0.795
18376W        W77670  11.753  30.465   2.831
18377W        W77671  31.405   1.818   1.324
18378W        W77672  11.360  25.056  14.845
18379W        W77673  13.841  10.358   4.287
18380W        W77674   3.381  43.432   2.192
18381W        W77675  13.760  23.004  10.045
18382W        W77676  17.231  21.706   0.482
18383W        W77677  15.745  24.157  14.841
18384W        W77678  37.381   0.322   4.158
18385W        W77679  20.152  13.788   5.320
18386W        W77680  18.673  38.837   2.298
18387W        W77681   7.238   1.347   2.408
18388W        W77682  19.582   0.807   1.771
18389W        W77683  40.979  10.652  12.444
18390W        W77684  20.765  39.876  14.464
18391W        W77685   5.324   2.274   4.688
18392W        W77686  42.337  39.373  14.472
18393W        W77687  38.013  24.119  13.420
18394W        W77688  25.192  16.142   4.250
18395W        W77689  36.854  42.451   4.784
18396W        W77690  14.596  37.525  11.042
18397W        W77691  43.958  34.944   4.234
18398W        W77692  13.645  23.198  12.397
18399W        W77693  13.234  28.186   5.102
18400W        W77694  34.419  22.193  13.793
18401W        W77695   0.317  13.196  12.050
18402W        W77696  31.433  25.122   3.175
18403W        W77697  27.979  11.764  11.994
18404W        W77698   0.428  20.161   1.791
18405W        W77699  13.350  35.527   1.902
18406W        W77700  18.738  39.537   3.739
18407W        W77701  34.586   6.253   4.837
18408W        W77702   1.928  21.105   4.676
18409W        W77703  17.701  11.625  13.033
18410W        W77704  30.607  25.510  12.086
18411W        W77705  20.668  33.423  11.437
18412W        W77706  40.522  17.692   2.232
18413W        W77707  36.957  23.516   1.348
18414W        W77708   8.806   0.807  13.948
18415W        W77709  20.263  43.490   0.472
18416W        W77710  43.427  19.778  12.951
18417W        W77711  31.146  40.468   5.281
18418W        W77712   2.835  14.196  13.794
18419W        W77713  16.793  33.427  13.513
18420W        W77714  19.057  34.533   0.728
18421W        W77715  31.470  26.156  14.875
18422W        W77716  10.353  42.310  14.411
18423W        W77717  18.733   5.205   3.681
18424W        W77718  34.948  22.149  12.406
18425W        W77719  44.978  29.473  10.616
18426W        W77720  38.428   5.196   2.286
18427W        W77721  42.387   0.414  11.872
18428W        W77722  20.554  12.228  11.496
18429W        W77723  14.669  23.715   1.289
18430W        W77724   4.757  16.272   2.185
18431W        W77725   8.862   2.829  13.508
18432W        W77726  10.841  31.435  13.458
18433W        W77727  44.405  44.924  12.977
18434W        W77728  25.689  20.029   2.775
18435W        W77729  41.442   7.358  12.010
18436W        W77730  27.680  34.988  12.892
18437W        W77731  20.241  14.278   5.190
18438W        W77732   9.218  18.670  12.097
18439W        W77733   7.738  38.528   3.265
18440W        W77734  14.233  43.932  14.281
18441W        W77735  25.100  11.820   2.396
18442W        W77736  30.506  15.687  10.589
18443W        W77737   6.718  30.096  12.553
18444W        W77738  37.872  11.794  12.994
18445W        W77739  30.164  26.152   4.180
18446W        W77740  20.613  34.896  14.932
18447W        W77741  21.649  13.183   3.811
18448W        W77742  18.130  32.516   0.777
18449W        W77743  40.512   2.893   2.415
18450W        W77744   1.834   2.267   0.904
18451W        W77745  35.441  20.735  10.539
18452W        W77746  17.061  41.905   0.242
18453W        W77747   7.225   1.733  10.012
18454W        W77748  39.494  44.763  12.383
18455W        W77749  10.146  29.105  11.883
18456W        W77750   3.860  15.741  14.499
18457W        W77751   2.750   5.868  12.464
18458W        W77752  18.789  44.315   2.236
18459W        W77753  20.193   4.873  13.884
18460W        W77754   1.419  12.715  13.459
18461W        W77755  18.063   8.704   4.743
18462W        W77756  25.971   9.721  10.430
18463W        W77757  27.593  37.896  14.980
18464W        W77758  11.740   5.786  10.571
18465W        W77759   2.471  35.983  11.988
18466W        W77760  12.728  24.109  14.779
18467W        W77761  27.577  41.829   0.344
18468W        W77762  16.597  40.023  11.969
18469W        W77763  42.821  10.147   2.828
18470W        W77764  19.078   3.358  11.026
18471W        W77765  17.090  31.125   0.388
18472W        W77766   2.905   8.405  12.844
18473W        W77767   1.427  41.980  11.388
18474W        W77768  42.012   3.388  12.459
18475W        W77769   3.376  22.008   0.792
18476W        W77770  25.575   1.436   4.777
18477W        W77771  17.239  28.111   0.416
18478W        W77772   7.262  34.094   0.286
18479W        W77773  39.379  25.656  12.066
18480W        W77774  37.453  37.367   0.391
18481W        W77775   1.975  39.859  11.456
18482W        W77776   9.652  17.594   4.617
18483W        W77777  43.470  32.943   1.266
18484W        W77778  11.264  38.961  13.895
18485W        W77779   6.375   8.842   3.642
18486W        W77780  12.698  13.739  12.514
18487W        W77781  13.692  36.844   0.390
18488W        W77782  44.783   5.414   1.699
18489W        W77783  31.605  38.407  11.032
18490W        W77784  10.329  19.690   1.239
18491W        W77785  11.747  27.635   3.371
18492W        W77786  25.489  26.560  12.359
18493W        W77787  13.184  26.183   0.819
18494W        W77788   1.359  16.740  13.964
18495W        W77789  16.154  36.527  14.362
18496W        W77790  29.578  34.905  12.826
18497W        W77791  24.480  30.492   2.692
18498W        W77792  42.907   1.929   0.280
18499W        W77793  28.959  29.511  11.965
18500W        W77794  43.971  15.253   1.715
18501W        W77795  43.952  42.021  14.879
18502W        W77796  32.927   2.947  13.309
18503W        W77797  25.654  27.945  13.954
18504W        W77798  23.118  27.969  14.019
18505W        W77799  37.565  20.185  12.878
18506W        W77800  30.595  24.645  13.945
18507W        W77801  20.170  21.083  11.059
18508W        W77802  41.331  33.591   1.341
18509W        W77803  21.248  18.271  12.519
18510W        W77804  21.569  12.759  12.956
18511W        W77805  43.397  33.458   0.941
18512W        W77806  13.346  41.841   3.344
18513W        W77807  12.203  11.747   3.841
18514W        W77808  38.329  18.225   4.719
18515W        W77809  20.721  19.618  11.046
18516W        W77810  28.992  29.018   0.760
18517W        W77811  27.640   6.215  10.581
18518W        W77812  43.808   0.978  10.900
18519W        W77813  21.683  32.091   2.783
18520W        W77814  37.504  23.190  14.816
18521W        W77815  35.382  28.948   4.614
18522W        W77816  39.474  13.759   0.471
18523W        W77817   0.775   7.364   0.480
18524W        W77818   7.724   9.749   0.812
18525W        W77819  33.603   3.401  14.369
18526W        W77820  11.238  19.144   4.294
18527W        W77821  21.204  33.894   2.224
18528W        W77822  21.040  19.622  11.965
18529W        W77823  37.528   8.669  11.900
18530W        W77824   5.883   1.747   0.942
18531W        W77825   9.860  28.930   1.892
18532W        W77826   5.729  16.809  13.880
18533W        W77827  12.173  42.998   4.279
18534W        W77828  25.536  32.079   4.288
18535W        W77829  33.128   7.735   4.607
18536W        W77830   9.747  43.915  14.772
18537W        W77831   7.382   2.437  13.962
18538W        W77832  20.144   9.727   1.377
18539W        W77833   1.412  20.234  11.409
18540W        W77834  11.161  29.494  13.427
18541W        W77835  23.608  21.248   4.181
18542W        W77836  14.630  24.516   3.168
18543W        W77837  26.683  40.439   1.231
18544W        W77838   4.291   9.661   2.358
18545W        W77839  12.361  43.462  11.040
18546W        W77840  18.235  28.129  10.018
18547W        W77841  29.964  38.362   1.726
18548W        W77842   8.829  32.899   2.829
18549W        W77843  12.125  42.504  13.851
18550W        W77844  34.068  26.118   0.811
18551W        W77845   2.406   3.435  13.032
18552W        W77846   2.237   1.891  12.033
18553W        W77847  11.240   9.744  12.472
18554W        W77848  44.984  42.795   2.870
18555W        W77849  12.244   3.317   0.370
18556W        W77850   9.307  39.315   0.907
18557W        W77851  11.351   8.839  13.955
18558W        W77852   8.763  35.978   3.335
18559W        W77853   0.900  25.134  13.005
18560W        W77854  17.213  30.418  13.876
18561W        W77855   7.781  24.133  14.360
18562W        W77856  32.965  41.417   3.728
18563W        W77857  37.931  20.612   0.903
18564W        W77858  32.481  37.857  11.532
18565W        W77859  18.681  26.586   4.277
18566W        W77860  26.610  27.190  10.406
18567W        W77861  32.593  21.531  12.844
18568W        W77862  38.454  18.219  11.077
18569W        W77863   5.346  29.934   0.315
18570W        W77864  43.785  43.431  14.923
18571W        W77865  39.496  27.127   3.343
18572W        W77866  44.863  22.204  13.907
18573W        W77867  26.542  41.867   0.364
18574W        W77868   7.909  40.832  13.955
18575W        W77869  36.513   7.298   0.290
18576W        W77870  16.764   1.294   2.852
18577W        W77871  12.310  11.314   4.611
18578W        W77872  25.010  21.578  13.911
18579W        W77873  34.371  39.840   0.876
18580W        W77874  18.296  14.285   4.343
18581W        W77875  21.166  31.102  12.928
18582W        W77876  25.108   6.376   2.749
18583W        W77877   3.879  39.867   3.693
18584W        W77878  36.512   5.754  10.513
18585W        W77879  17.226  41.428   0.248
18586W        W77880  36.504   7.763  14.774
18587W        W77881  35.558  41.408   0.816
18588W        W77882  26.595  33.615  11.423
18589W        W77883  24.664   8.383  13.422
18590W        W77884  29.952  38.551  11.915
18591W        W77885  17.093   5.383   0.746
18592W        W77886  26.539  11.786   0.953
18593W        W77887   1.885  28.672  12.444
18594W        W77888  26.046   9.161  11.981
18595W        W77889  19.183  18.283   3.650
18596W        W77890  14.154  26.104  14.957
18597W        W77891   8.201  16.722   1.321
18598W        W77892   4.786   9.746  10.624
18599W        W77893  34.093  10.348   0.873
18600W        W77894  16.807   0.856  11.612
18601W        W77895  16.755   3.322   1.276
18602W        W77896  26.579  23.690  10.128
18603W        W77897  39.888   8.869  14.411
18604W        W77898   6.783  25.180   2.669
18605W        W77899  17.557  19.069  10.096
18606W        W77900  38.406  29.572   0.790
18607W        W77901  37.969  40.502  14.921
18608W        W77902  22.580  40.799  11.106
18609W        W77903  10.280  26.693   1.250
18610W        W77904  31.556   5.202   3.270
18611W        W77905  28.060  34.615  13.799
18612W        W77906  23.145  10.663  13.862
18613W        W77907   9.290  26.019  13.057
18614W        W77908   3.793  34.914  10.415
18615W        W77909   7.341   1.423  14.839
18616W        W77910   8.700  41.330  12.453
18617W        W77911  24.530  41.344  12.571
18618W        W77912  20.272   3.771  10.631
18619W        W77913   4.443  11.659  14.448
18620W        W77914  35.396   4.310   4.206
18621W        W77915  13.826  33.039  11.072
18622W        W77916  33.445   0.353  10.527
18623W        W77917   3.874   8.794   0.863
18624W        W77918  18.193  41.311  10.520
18625W        W77919  11.263  29.161   3.164
18626W        W77920  22.174  25.494   3.691
18627W        W77921  29.998  13.220  11.400
18628W        W77922  16.716  16.223  12.004
18629W        W77923  25.646   4.727   1.722
18630W        W77924  36.082  23.158  11.494
18631W        W77925  32.044  40.328   0.739
18632W        W77926  26.105  27.041   4.702
18633W        W77927  11.792  36.587  10.505
18634W        W77928  21.522  14.196   0.956
18635W        W77929  30.568  22.110  14.854
18636W        W77930  18.153   8.310  13.318
18637W        W77931   6.258  42.944  13.906
18638W        W77932  41.820  16.305  13.444
18639W        W77933  25.699  38.890   5.264
18640W        W77934  10.373  33.042   4.678
18641W        W77935  41.361   4.812  14.494
18642W        W77936  42.868  36.025   4.723
18643W        W77937  30.039  40.851  12.994
18644W        W77938  25.481  12.780   2.832
18645W        W77939  22.737  21.195   2.762
18646W        W77940  13.648  19.686   4.191
18647W        W77941  42.026   1.842  11.943
18648W        W77942   3.219   0.813   1.798
18649W        W77943  18.633  35.037   2.363
18650W        W77944  34.602  37.577  11.057
18651W        W77945  30.455  38.963  14.804
18652W        W77946  14.208   3.455  12.375
18653W        W77947  36.392  18.252   4.151
18654W        W77948  23.029   8.848  12.035
18655W        W77949  14.176  26.592  12.039
18656W        W77950   9.335  31.968  12.940
18657W        W77951  28.499  34.989   0.816
18658W        W77952  10.358  11.372   3.276
18659W        W77953   1.309   7.751   0.897
18660W        W77954   2.356   9.345   1.258
18661W        W77955   9.735  11.822  10.589
18662W        W77956  11.803  24.637  10.949
18663W        W77957  27.057  11.760   0.960
18664W        W77958  24.065   8.840  13.385
18665W        W77959   5.425   7.330   3.181
18666W        W77960  25.018   9.385  12.346
18667W        W77961   4.894  35.093  12.951
18668W        W77962  34.574   7.885   0.381
18669W        W77963  30.115   0.458  11.064
18670W        W77964  15.140  44.007  13.495
18671W        W77965  14.707   2.752  13.928
18672W        W77966   9.835  16.255  14.357
18673W        W77967   0.778  19.122   0.337
18674W        W77968  44.829   2.439  13.538
18675W        W77969  11.300  19.746   3.175
18676W        W77970  21.614  39.553   1.247
18677W        W77971  18.229  24.690  12.469
18678W        W77972  32.426   0.433   1.732
18679W        W77973  32.633  25.700   4.828
18680W        W77974  10.828   8.209  10.513
18681W        W77975   5.269  29.973   3.812
18682W        W77976   2.470  38.410  12.857
18683W        W77977  35.880  38.991  13.548
18684W        W77978   2.830   4.772   1.237
18685W        W77979   2.756  11.187  12.944
18686W        W77980  26.697  14.694   2.238
18687W        W77981  23.657   7.304  13.955
18688W        W77982  11.626  18.771  12.481
18689W        W77983   7.244  43.932   0.916
18690W        W77984  24.622  40.026  14.395
18691W        W77985  10.371  35.947  10.007
18692W        W77986  31.026  33.917   1.339
18693W        W77987  42.841   2.829  10.919
18694W        W77988  38.836   1.962   4.142
18695W        W77989   3.432  44.923   3.234
18696W        W77990  30.055  43.387  10.551
18697W        W77991   9.689  29.597  12.084
18698W        W77992  42.996  10.681   1.844
18699W        W77993  25.073  30.421  14.516
18700W        W77994  11.146   0.821  14.474
18701W        W77995  16.683  14.109   5.306
18702W        W77996  13.207   6.881  11.064
18703W        W77997   2.868  31.545  13.995
18704W        W77998  18.286   7.254   3.722
18705W        W77999  24.993  14.193  13.883
18706W        W78000   4.442  12.729   3.805
18707W        W78001  33.121  29.041   1.839
18708W        W78002  14.110  41.813   3.654
18709W        W78003  13.842  28.679   2.352
18710W        W78004  26.976  16.569   3.259
18711W        W78005  19.551  35.889  11.921
18712W        W78006  25.666  26.466  10.629
18713W        W78007   8.244  22.034   0.255
18714W        W78008  29.061  22.729   0.267
18715W        W78009  24.091  15.654  13.459
18716W        W78010   9.654   1.796  12.023
18717W        W78011   9.173   3.913   1.416
18718W        W78012  10.174  16.750   1.334
18719W        W78013  17.567  31.530   4.621
18720W        W78014  38.883  38.496   3.198
18721W        W78015  23.531  36.022  11.384
18722W        W78016  19.636  38.044  10.450
18723W        W78017  32.917  20.169  12.843
18724W        W78018  17.223  13.313  14.321
18725W        W78019  19.639  10.239   1.695
18726W        W78020  21.621   8.823   2.370
18727W        W78021  30.161  28.092   1.305
18728W        W78022  41.854  26.101  12.882
18729W        W78023  18.635  21.682   2.415
18730W        W78024  24.554  14.800  10.543
18731W        W78025  21.536   6.395  14.341
18732W        W78026  19.670  26.167  13.917
18733W        W78027  34.573  15.296   1.830
18734W        W78028  21.211  13.692  14.854
18735W        W78029  42.466  18.079   4.124
18736W        W78030  21.247  35.068   3.154
18737W        W78031  24.227  30.501   5.147
18738W        W78032  36.974  39.019   4.656
18739W        W78033  23.070   0.960   3.779
18740W        W78034   4.268   7.890   4.257
18741W        W78035  42.914  33.480  12.893
18742W        W78036  17.225  17.099   0.910
18743W        W78037  31.449   0.806   1.291
18744W        W78038  44.776  34.010   2.411
18745W        W78039  32.396   3.446  13.939
18746W        W78040  42.297  11.674  14.404
18747W        W78041  39.515  24.578   3.637
18748W        W78042  27.586   6.858  11.905
18749W        W78043  37.538  24.523   3.729
18750W        W78044   4.266  10.154  13.454
18751W        W78045  35.528  33.881   2.342
18752W        W78046  27.100  30.134   4.732
18753W        W78047  42.844  37.969  14.369
18754W        W78048  28.180   0.875  12.340
18755W        W78049   1.812  39.894   0.745
18756W        W78050  38.924  18.694  14.934
18757W        W78051   9.874  33.098   5.589
18758W        W78052  40.798  41.962   4.350
18759W        W78053  36.868   8.377   2.810
18760W        W78054   4.422  37.073   4.597
18761W        W78055  39.396   1.924  13.055
18762W        W78056  24.714  33.935  10.538
18763W        W78057   9.366  14.325   1.711
18764W        W78058  27.047  25.007   4.283
18765W        W78059  28.113   9.702  10.092
18766W        W78060  15.717  17.734   4.151
18767W        W78061  20.626  16.659  13.064
18768W        W78062  36.441  25.161   0.831
18769W        W78063  14.244  36.455   1.811
18770W        W78064  29.431  25.522   4.616
18771W        W78065  19.691  29.150   2.677
18772W        W78066  18.110  29.579  11.611
18773W        W78067   4.402  18.224   2.343
18774W        W78068  38.423   0.311  14.893
18775W        W78069  38.542  27.020  13.491
18776W        W78070   1.338   0.743  11.528
18777W        W78071  15.707  31.580  13.360
18778W        W78072  24.168   6.377  12.574
18779W        W78073  36.434  41.812  13.832
18780W        W78074  38.996  21.123   2.850
18781W        W78075  14.704  14.204  11.889
18782W        W78076   1.769  40.436  11.534
18783W        W78077  31.026  34.995  10.500
18784W        W78078  22.657   6.904  14.404
18785W        W78079   3.922  41.304   4.625
18786W        W78080  17.213  22.717  14.936
18787W        W78081   3.862  13.707  13.328
18788W        W78082   3.441  41.942   1.819
18789W        W78083  30.562  28.013   4.782
18790W        W78084   8.329  18.588  14.853
18791W        W78085  37.006   4.447  14.398
18792W        W78086  36.569  35.012   0.321
18793W        W78087  12.792   9.851  13.473
18794W        W78088  29.954  22.575  12.923
18795W        W78089  13.181   4.843  14.812
18796W        W78090  43.441  27.151   2.830
18797W        W78091  16.234  14.758   5.239
18798W        W78092   7.695   7.282   2.675
18799W        W78093  17.795  18.567   1.450
18800W        W78094  26.670  13.201   3.146
18801W        W78095   6.410  16.245   3.237
18802W        W78096  27.500  36.369  13.809
18803W        W78097  27.176   0.918   2.786
18804W        W78098  17.271  34.403   1.880
18805W        W78099   3.914  19.048  13.440
18806W        W78100  29.545   3.331  11.480
18807W        W78101   2.445  22.087  13.965
18808W        W78102   9.358  31.562   1.232
18809W        W78103   4.824  44.998  11.587
18810W        W78104  35.551  41.481   3.325
18811W        W78105  10.277  33.451   1.914
18812W        W78106   1.311  37.357  12.914
18813W        W78107   5.692   2.430  12.378
18814W        W78108   2.750  20.201  12.976
18815W        W78109  37.026  15.789  13.894
18816W        W78110  12.130  29.076   0.432
18817W        W78111  33.047   8.366   5.798
18818W        W78112   1.819  32.956   3.702
18819W        W78113   6.305  31.482  14.275
18820W        W78114  18.069  17.780   4.345
18821W        W78115  34.881  19.539  13.946
18822W        W78116  21.671  43.346   4.178
18823W        W78117  15.692   4.375   3.838
18824W        W78118  25.150  35.893   1.786
18825W        W78119  23.159  20.221  14.422
18826W        W78120  42.451  13.697   2.901
18827W        W78121  21.670  17.283  11.407
18828W        W78122  23.525  20.660   2.310
18829W        W78123  44.325   3.791  14.465
18830W        W78124  38.511   2.760   0.368
18831W        W78125  34.580  28.170   1.301
18832W        W78126  21.595   3.329  10.581
18833W        W78127  14.800  35.024  12.420
18834W        W78128  34.030  31.060  10.624
18835W        W78129  15.618   1.933   1.299
18836W        W78130  43.470   7.339  14.311
18837W        W78131  15.627   7.300  10.620
18838W        W78132  33.450  34.500   0.733
18839W        W78133  18.226  35.442   3.825
18840W        W78134  19.580  31.504  14.804
18841W        W78135  37.001  10.208   4.120
18842W        W78136  25.181  26.123   3.157
18843W        W78137  38.070  20.143   1.793
18844W        W78138  22.635  40.912   1.315
18845W        W78139  15.306  37.982  11.882
18846W        W78140   6.416  23.180   2.887
18847W        W78141  37.570  25.217   0.740
18848W        W78142   3.430  13.334   1.331
18849W        W78143  41.984  36.938   1.885
18850W        W78144   5.932  37.544  13.937
18851W        W78145   5.691   2.959   0.480
18852W        W78146  16.624  15.794  11.004
18853W        W78147  34.017  20.628   0.809
18854W        W78148  20.157  43.362  10.911
18855W        W78149   1.904  42.854   3.228
18856W        W78150   0.441  23.618   1.806
18857W        W78151  38.384  27.537   4.293
18858W        W78152  24.154  36.894  10.511
18859W        W78153   8.162   9.333   0.433
18860W        W78154   7.742  12.149  13.842
18861W        W78155  11.317  33.000   2.667
18862W        W78156  20.063  43.487   3.308
18863W        W78157  18.169  37.383   0.790
18864W        W78158  22.007  41.386  14.847
18865W        W78159  32.072  39.318  11.475
18866W        W78160  33.422  36.914  14.386
18867W        W78161  35.981  20.740   0.437
18868W        W78162  10.289   8.818  13.830
18869W        W78163  27.448  15.098   2.679
18870W        W78164  38.968  33.074   1.819
18871W        W78165  37.402   3.830  11.972
18872W        W78166  23.159  25.524  14.765
18873W        W78167  21.170   5.894   0.798
18874W        W78168  32.988  13.786  12.072
18875W        W78169  35.476   1.780  13.473
18876W        W78170  12.257  25.153  14.402
18877W        W78171  42.313  32.632  13.324
18878W        W78172  24.017  30.520  14.824
18879W        W78173   4.782   7.301  11.410
18880W        W78174  22.744   8.862  12.854
18881W        W78175   0.983  42.472  12.507
18882W        W78176  33.123  10.705  11.862
18883W        W78177  33.059  31.529   2.793
18884W        W78178  20.724  36.027   2.295
18885W        W78179  42.926  21.155  11.028
18886W        W78180  28.603  38.535  13.031
18887W        W78181  41.035  10.187  10.413
18888W        W78182  40.049  44.765   9.610
18889W        W78183  24.514  33.532   4.272
18890W        W78184  16.244  32.104   4.817
18891W        W78185   9.782  40.985  10.894
18892W        W78186  19.572  13.169   2.353
18893W        W78187  29.166  36.026  10.404
18894W        W78188  44.003   5.288  11.444
18895W        W78189   8.316  24.035   0.250
18896W        W78190   1.964  28.538  11.428
18897W        W78191  25.102  23.508   4.132
18898W        W78192   3.709  44.366   0.405
18899W        W78193  10.202  24.588  11.921
18900W        W78194  42.941   4.333  13.049
18901W        W78195  38.471  18.721   2.229
18902W        W78196  33.464  32.945   1.843
18903W        W78197  32.445  22.150   1.264
18904W        W78198  36.577  14.758   4.122
18905W        W78199  36.051  39.450   1.897
18906W        W78200   1.832  32.990   2.890
18907W        W78201  41.992  44.326   0.289
18908W        W78202  41.002  39.960   0.727
18909W        W78203  29.457  25.086  10.419
18910W        W78204   8.735  34.068  14.783
18911W        W78205  29.455  14.610  14.845
18912W        W78206  42.839  24.578   1.728
18913W        W78207  10.361   2.959   4.783
18914W        W78208   7.180  29.479  12.351
18915W        W78209  27.537  13.843  14.012
18916W        W78210  40.393  36.419   4.785
18917W        W78211  17.233  37.833   4.762
18918W        W78212  17.681  18.206   2.780
18919W        W78213   0.883  24.494  14.514
18920W        W78214  10.695   4.204   3.706
18921W        W78215   0.884   1.258   2.862
18922W        W78216  28.488   1.899   0.354
18923W        W78217  18.159  39.361  14.987
18924W        W78218  44.473  31.046   1.281
18925W        W78219   4.222   3.250  12.847
18926W        W78220  10.713  38.066  14.930
18927W        W78221  30.953  16.742   3.644
18928W        W78222   1.921  29.636  13.015
18929W        W78223   1.449  40.419  10.514
18930W        W78224   9.671  44.377  10.916
18931W        W78225   7.755  22.745   0.343
18932W        W78226  44.983   2.954   0.353
18933W        W78227  39.817  14.160   1.264
18934W        W78228  21.093  20.742  11.872
18935W        W78229  28.655  14.599   1.791
18936W        W78230  24.595  32.892   1.858
18937W        W78231  37.036   7.863  13.429
18938W        W78232  20.151  11.696  11.373
18939W        W78233  33.550  18.548   1.434
18940W        W78234  29.051   4.934   3.657
18941W        W78235  32.885  13.300   4.608
18942W        W78236  22.725  44.821   2.231
18943W        W78237  31.100  34.561  12.578
18944W        W78238  33.876  14.207  13.822
18945W        W78239  24.619  43.977  14.352
18946W        W78240  43.921  27.118   0.944
18947W        W78241   3.906   9.818   3.870
18948W        W78242  43.780   5.403   0.890
18949W        W78243  38.397   1.297  14.010
18950W        W78244   9.754   0.432   0.424
18951W        W78245   1.815   7.708   5.154
18952W        W78246  16.178  30.097   2.824
18953W        W78247   5.756  15.251   3.858
18954W        W78248   4.877   1.470  14.307
18955W        W78249  21.747  14.274   0.314
18956W        W78250  39.325  11.338   0.776
18957W        W78251   7.809  37.544   1.247
18958W        W78252  25.032   4.740  11.056
18959W        W78253   1.961  38.477   1.338
18960W        W78254  32.044  35.027  13.815
18961W        W78255  36.513   6.327   0.354
18962W        W78256  39.939   8.857  12.953
18963W        W78257  28.486  32.120  12.825
18964W        W78258   6.232  28.052  10.490
18965W        W78259   6.863  25.606   4.180
18966W        W78260   5.862  32.936  14.392
18967W        W78261  36.900  31.939  14.282
18968W        W78262   4.234  15.322  12.038
18969W        W78263  39.988  11.216   3.362
18970W        W78264  21.691  26.976   0.824
18971W        W78265  41.357  34.501  14.850
18972W        W78266   6.280  42.360  11.418
18973W        W78267   2.262  25.217   2.842
18974W        W78268   9.835  24.570  14.766
18975W        W78269  40.349  17.121  10.560
18976W        W78270   6.768   2.309   3.769
18977W        W78271  24.076   8.865   1.237
18978W        W78272  28.678  41.896  10.976
18979W        W78273   0.862  14.643   0.456
18980W        W78274  19.628  43.831   1.217
18981W        W78275   3.267  44.911   2.225
18982W        W78276  37.458  27.057  12.436
18983W        W78277  21.259  20.762   4.832
18984W        W78278  24.174  15.160   2.789
18985W        W78279  19.767   9.674   3.284
18986W        W78280  30.970  27.522   2.303
18987W        W78281  21.631  30.974   1.933
18988W        W78282  34.602  10.270   2.236
18989W        W78283  34.533  37.831  13.870
18990W        W78284   9.777  44.945   1.931
18991W        W78285  29.669  39.539  11.083
18992W        W78286  36.578   0.764  12.934
18993W        W78287  17.067  22.667   0.293
18994W        W78288   1.290  22.046  12.994
18995W        W78289  22.708   0.981  14.320
18996W        W78290  18.551   8.835  13.914
18997W        W78291  26.580   2.315  14.346
18998W        W78292  33.406  40.800  12.887
18999W        W78293  14.245  35.089  14.345
19000W        W78294   6.237   9.783  13.869
19001W        W78295  13.742  41.387  12.986
19002W        W78296   9.845  25.468   3.685
19003W        W78297  29.966  39.876   0.462
19004W        W78298  20.736  21.587   0.726
19005W        W78299  21.562  30.918   0.481
19006W        W78300  19.232   7.256  10.928
19007W        W78301  24.218  24.661   1.797
19008W        W78302  23.200  33.904  13.543
19009W        W78303   1.861   2.762  14.032
19010W        W78304  21.190  28.964   1.835
19011W        W78305  41.917  19.733   5.311
19012W        W78306   3.329  14.598  14.470
19013W        W78307   9.186  13.791   2.248
19014W        W78308  15.317  22.645  13.971
19015W        W78309  40.942  14.279  12.845
19016W        W78310  42.964  44.976   2.818
19017W        W78311  24.653   1.403   1.314
19018W        W78312   5.854   0.377  13.978
19019W        W78313   3.276   1.757   3.176
19020W        W78314  37.888  43.303   2.227
19021W        W78315  32.425  26.046   3.820
19022W        W78316   4.314  13.758  12.850
19023W        W78317   2.450  20.523  11.535
19024W        W78318  15.085  40.942  14.957
19025W        W78319   8.256   4.904   3.348
19026W        W78320  35.573   3.840   1.218
19027W        W78321  15.249  20.703  11.601
19028W        W78322   4.736   7.210   0.409
19029W        W78323  24.157  44.002  14.328
19030W        W78324  41.808  33.429   9.493
19031W        W78325   3.762  43.884  10.642
19032W        W78326  27.662  35.564   1.248
19033W        W78327   8.279  22.180   2.784
19034W        W78328  40.433  11.651  14.785
19035W        W78329  34.507  15.262  10.416
19036W        W78330  36.025  34.043   2.203
19037W        W78331  38.535  35.977  14.313
19038W        W78332  14.690   6.217  12.470
19039W        W78333  27.502   3.289   3.286
19040W        W78334   6.379  20.749  10.522
19041W        W78335   0.288  26.502  14.829
19042W        W78336  33.524   9.810  10.595
19043W        W78337  21.642  35.410   0.817
19044W        W78338   2.400  12.354   4.273
19045W        W78339  26.199  37.390  12.880
19046W        W78340  10.362  15.729  10.020
19047W        W78341  32.403   9.889   9.638
19048W        W78342   5.878  23.201  13.909
19049W        W78343  38.489  10.809  12.448
19050W        W78344  33.030  43.950   0.455
19051W        W78345  43.883  44.959   5.160
19052W        W78346  34.374  33.436   1.848
19053W        W78347   9.813  18.293  14.837
19054W        W78348  12.674  33.412  10.973
19055W        W78349  25.701  23.597  10.933
19056W        W78350  10.302  34.879  14.848
19057W        W78351  11.156  42.405  10.976
19058W        W78352  27.539   7.224   3.672
19059W        W78353  36.991   7.239  10.930
19060W        W78354  43.409  43.416   3.223
19061W        W78355   3.261  25.599  10.555
19062W        W78356  12.787  32.408  10.530
19063W        W78357  11.693  42.902   2.254
19064W        W78358   4.335  22.025  12.920
19065W        W78359  35.087  14.699  14.005
19066W        W78360  25.092  31.489  12.086
19067W        W78361  23.623  34.903   0.480
19068W        W78362  38.531  11.713  10.594
19069W        W78363  14.145  41.467   4.176
19070W        W78364  36.526  36.542   4.646
19071W        W78365  13.700   5.212   4.116
19072W        W78366  14.339  27.446  11.887
19073W        W78367  35.854  39.860   1.358
19074W        W78368  37.571  33.132  13.836
19075W        W78369  40.846  19.746  10.987
19076W        W78370  11.708  40.829   2.866
19077W        W78371  25.177  41.454  12.406
19078W        W78372  28.480  10.813  14.917
19079W        W78373  18.599   4.792   0.452
19080W        W78374  36.424  37.074  13.463
19081W        W78375  21.125  24.119  14.788
19082W        W78376  22.647   5.280   2.360
19083W        W78377  44.348  40.904   1.212
19084W        W78378  12.196  40.337   4.334
19085W        W78379  27.559   4.377   3.206
19086W        W78380  44.777   4.918  12.516
19087W        W78381  39.036   9.385   4.693
19088W        W78382  17.748  42.841  12.003
19089W        W78383  24.542  14.107   4.352
19090W        W78384   2.377  35.921   0.420
19091W        W78385  14.721   9.780   5.739
19092W        W78386  22.174  14.261   2.411
19093W        W78387  27.020  33.396   1.278
19094W        W78388   2.963  38.891   2.732
19095W        W78389  38.037   8.170   1.736
19096W        W78390  14.681  22.036  11.049
19097W        W78391  39.823  31.896  11.054
19098W        W78392  39.327  16.682  14.323
19099W        W78393  14.707  19.691  12.012
19100W        W78394   4.836  25.639   3.857
19101W        W78395  26.097  32.040   0.425
19102W        W78396  12.126   1.470  13.020
19103W        W78397  11.148  17.777  10.529
19104W        W78398  42.367  42.805  13.851
19105W        W78399  24.127  33.982  11.383
19106W        W78400  17.153  23.696  10.451
19107W        W78401  42.452  32.535   1.433
19108W        W78402   0.248  27.162   1.818
19109W        W78403  37.843   4.339  11.506
19110W        W78404  25.641  32.088  13.513
19111W        W78405  31.923  22.141   3.363
19112W        W78406  34.386  43.429   2.241
19113W        W78407  15.167  43.843  13.806
19114W        W78408  44.843  36.057  10.930
19115W        W78409  39.857  40.303  14.472
19116W        W78410   2.282  29.485  10.620
19117W        W78411  15.779   4.873   5.284
19118W        W78412  30.021  34.554  13.437
19119W        W78413  31.595  30.959  12.843
19120W        W78414  31.004   7.191   2.863
19121W        W78415  38.480  10.845  10.533
19122W        W78416  32.028  33.052   4.265
19123W        W78417   1.394  24.036   3.669
19124W        W78418   9.684   7.845   2.683
19125W        W78419  16.704  14.105   0.771
19126W        W78420  42.008  24.702  11.513
19127W        W78421  19.176  19.042  12.504
19128W        W78422  29.546   0.316   9.993
19129W        W78423   1.249  37.921   1.413
19130W        W78424  37.473  40.952  12.860
19131W        W78425  32.627  40.390   2.836
19132W        W78426  18.660  43.457   3.220
19133W        W78427  32.007  12.338   4.745
19134W        W78428  28.070  40.955   3.642
19135W        W78429   6.331  27.065   0.409
19136W        W78430  10.201   8.857   2.333
19137W        W78431  10.760   1.764   1.385
19138W        W78432  23.202  12.318  14.816
19139W        W78433   2.878  38.547  10.420
19140W        W78434   9.761   1.851  14.352
19141W        W78435  13.223  17.287   0.920
19142W        W78436  13.782  24.636  11.940
19143W        W78437  34.921  27.191   4.270
19144W        W78438  11.743  44.289   1.235
19145W        W78439  28.512  38.017   3.168
19146W        W78440  33.450  33.415  10.974
19147W        W78441   5.809  43.875   2.368
19148W        W78442  40.822   2.732  12.845
19149W        W78443   0.965   2.458   2.702
19150W        W78444  37.928  34.039   9.482
19151W        W78445  30.145   4.815   0.745
19152W        W78446  43.466  19.570   4.747
19153W        W78447   4.339   3.336   4.751
19154W        W78448  34.990   3.930   2.299
19155W        W78449  20.105   6.287  12.019
19156W        W78450   9.647  36.907  14.880
19157W        W78451  25.980  10.160  14.422
19158W        W78452   4.799  17.093  10.490
19159W        W78453   7.843  19.544  11.062
19160W        W78454  39.325  37.909   0.857
19161W        W78455  15.155  20.129   3.769
19162W        W78456  28.108   3.870  10.996
19163W        W78457  22.691   3.947   0.854
19164W        W78458  33.072  38.533   4.709
19165W        W78459   2.883  42.485  14.397
19166W        W78460  39.508   5.812   3.682
19167W        W78461   2.794  35.583  12.549
19168W        W78462  43.001  41.294  13.411
19169W        W78463  40.318  30.560  10.419
19170W        W78464   9.283  37.341  10.051
19171W        W78465   9.288  32.033   4.774
19172W        W78466  17.143  34.553   0.941
19173W        W78467  19.138  10.641   0.808
19174W        W78468  36.905  28.469   1.342
19175W        W78469  42.334  39.354  12.576
19176W        W78470   9.267  41.898   2.741
19177W        W78471  42.510  32.424   0.391
19178W        W78472   5.406  30.642   2.756
19179W        W78473  13.268   5.765  12.969
19180W        W78474  39.826   7.847  14.444
19181W        W78475  35.862  18.194  14.836
19182W        W78476  41.941   1.898  13.523
19183W        W78477  15.185  31.540  12.418
19184W        W78478  17.628  12.175   1.214
19185W        W78479   0.910  10.785   2.231
19186W        W78480  40.414   3.232   2.892
19187W        W78481  24.995  28.183   2.188
19188W        W78482  35.995  19.121  13.326
19189W        W78483  31.411  28.437  13.898
19190W        W78484  37.970  19.253   1.298
19191W        W78485  11.673   3.413   3.385
19192W        W78486  33.382  14.178  12.914
19193W        W78487   5.353  18.546  11.472
19194W        W78488   4.400   1.830   0.888
19195W        W78489   3.794  17.638   0.881
19196W        W78490   1.453   8.278  11.032
19197W        W78491  40.416  16.172  11.099
19198W        W78492   0.307  27.122   1.352
19199W        W78493  27.066   5.783  12.503
19200W        W78494  13.776  30.141  11.966
19201W        W78495  12.731  29.509   2.198
19202W        W78496  32.511  18.203   2.895
19203W        W78497  13.730  13.667   2.320
19204W        W78498  33.563  19.639   0.333
19205W        W78499  13.681  43.967   1.745
19206W        W78500  21.042  23.729   4.745
19207W        W78501  39.466   9.887  10.889
19208W        W78502  23.197   8.360  13.466
19209W        W78503  13.229  20.156   2.302
19210W        W78504   6.835  32.511  12.343
19211W        W78505  44.370   8.873   2.680
19212W        W78506   4.440  28.436   0.450
19213W        W78507  24.030  36.524   4.156
19214W        W78508  41.834   3.249   4.256
19215W        W78509  16.285  21.197  13.026
19216W        W78510   0.465  38.370  10.953
19217W        W78511  38.547  30.587   0.866
19218W        W78512  39.004   3.835   0.893
19219W        W78513  11.711  31.923   1.413
19220W        W78514  39.445  36.081   4.658
19221W        W78515  28.458   9.768   4.297
19222W        W78516  20.216  19.102  14.449
19223W        W78517  23.015  42.445   2.338
19224W        W78518   6.204  31.613   3.252
19225W        W78519  30.021  18.694   2.301
19226W        W78520  29.527  25.018   9.989
19227W        W78521  25.974  35.976  13.311
19228W        W78522  33.947   2.354   1.428
19229W        W78523  36.493  20.694   3.682
19230W        W78524  19.250  19.057   1.892
19231W        W78525  32.094  10.283  14.416
19232W        W78526  26.146  28.044  14.845
19233W        W78527  21.555  27.677  13.028
19234W        W78528  18.651  17.586   1.273
19235W        W78529  38.039  19.054  12.858
19236W        W78530  26.458  43.972   3.749
19237W        W78531  16.800  44.956   0.953
19238W        W78532  31.061  34.406   4.713
19239W        W78533  42.451  16.167  14.921
19240W        W78534  20.609  38.324   4.680
19241W        W78535  29.619   7.402  11.477
19242W        W78536  30.010  29.011  14.297
19243W        W78537  32.935   4.706   2.236
19244W        W78538  14.299   5.227   0.275
19245W        W78539  12.132  27.544  12.453
19246W        W78540  21.659  12.130  10.520
19247W        W78541  20.638  40.971   4.730
19248W        W78542  40.038   0.823   4.640
19249W        W78543   6.774  39.441  11.926
19250W        W78544  11.674   7.726  11.877
19251W        W78545  12.853   9.185  13.956
19252W        W78546   0.412  14.102   4.171
19253W        W78547   7.393   3.241   3.707
19254W        W78548  17.111   3.779  12.525
19255W        W78549  31.924  30.630  14.024
19256W        W78550  40.508  12.181  14.839
19257W        W78551  10.266  42.779  14.396
19258W        W78552  20.048  23.615  12.079
19259W        W78553  15.292  23.036   0.866
19260W        W78554  22.728  24.023   4.169
19261W        W78555  25.480  31.631   3.630
19262W        W78556  32.001   5.283  11.021
19263W        W78557  13.310  33.007   4.724
19264W        W78558  44.332  17.136   4.262
19265W        W78559   1.764  23.621  10.501
19266W        W78560  11.819  10.355   1.839
19267W        W78561  26.483   9.840  11.002
19268W        W78562  23.197  10.663  13.512
19269W        W78563  33.926  15.657  13.511
19270W        W78564  21.688  38.354  10.598
19271W        W78565  38.327  34.450   0.734
19272W        W78566  44.917   6.258  13.833
19273W        W78567  14.191   9.687   0.727
19274W        W78568  14.330  19.758  12.427
19275W        W78569  39.532  30.558   0.835
19276W        W78570  38.947  32.622   2.209
19277W        W78571  31.539   9.834   1.374
19278W        W78572   9.813   3.741   3.730
19279W        W78573  13.622   3.900   2.294
19280W        W78574  16.586   2.757  13.548
19281W        W78575   0.857   3.802   4.175
19282W        W78576   4.750  43.983   1.898
19283W        W78577   3.320   8.700   0.297
19284W        W78578   4.261  40.950   2.214
19285W        W78579  24.538  30.080  12.565
19286W        W78580  23.589  33.929   0.891
19287W        W78581  39.983  23.163   4.290
19288W        W78582  35.892  37.047   3.290
19289W        W78583  15.603  33.104  10.140
19290W        W78584  44.375  26.586   1.768
19291W        W78585  44.833  31.582   0.896
19292W        W78586  30.566   7.866  12.953
19293W        W78587  12.333  12.192  10.589
19294W        W78588  34.472  40.492  14.918
19295W        W78589  17.637  25.010   0.933
19296W        W78590  19.538  44.762   4.262
19297W        W78591  13.307  15.682   1.366
19298W        W78592  11.816   2.381  11.578
19299W        W78593  21.089  20.048   4.620
19300W        W78594   6.862  43.436  10.926
19301W        W78595   1.949  21.694   1.704
19302W        W78596  32.134   8.710  10.587
19303W        W78597  31.531  22.110  12.839
19304W        W78598  15.598  10.769   5.633
19305W        W78599  13.283  38.935  14.455
19306W        W78600  15.716  23.986   4.242
19307W        W78601  42.304  25.626  14.401
19308W        W78602  40.425  33.623  13.884
19309W        W78603  26.165  44.491   0.755
19310W        W78604  29.991  41.435  12.007
19311W        W78605   0.409   8.829   1.276
19312W        W78606  34.078  41.504   1.345
19313W        W78607   8.220  11.266   3.211
19314W        W78608   7.249  44.332  11.580
19315W        W78609  43.344  38.916   3.254
19316W        W78610  44.927  14.655  10.915
19317W        W78611  30.933   7.263   3.821
19318W        W78612  19.658   3.362  13.810
19319W        W78613  38.028  26.070   1.861
19320W        W78614  35.060  34.969   9.962
19321W        W78615  28.178  44.007   4.811
19322W        W78616   6.739   7.181  10.924
19323W        W78617  11.155  26.161  13.468
19324W        W78618  38.834   9.691   4.662
19325W        W78619  20.159  41.477   5.219
19326W        W78620  32.060   6.297   0.793
19327W        W78621  29.649  33.993   2.394
19328W        W78622   1.875  37.431   1.825
19329W        W78623  40.931  30.620  11.548
19330W        W78624  33.483  28.637  13.801
19331W        W78625  29.468  30.131  11.087
19332W        W78626  11.706  21.719  12.346
19333W        W78627  25.665  19.600   9.966
19334W        W78628  16.655  39.030  12.426
19335W        W78629   7.870  14.214  12.563
19336W        W78630  17.200  32.936  14.987
19337W        W78631  10.831  15.771   2.291
19338W        W78632  23.601  32.403  12.371
19339W        W78633  39.987  39.023   4.803
19340W        W78634  39.392  22.720   1.889
19341W        W78635  18.551  15.801  14.821
19342W        W78636  29.594  26.984   4.181
19343W        W78637   4.268  19.182  14.281
19344W        W78638  42.911  35.402  14.336
19345W        W78639  32.416  19.250  12.374
19346W        W78640  13.282   3.290  12.059
19347W        W78641  12.226  35.471   4.757
19348W        W78642  26.565  32.430   3.697
19349W        W78643  39.881  30.034   0.887
19350W        W78644  16.697  32.104   2.228
19351W        W78645  35.939  44.777   0.741
19352W        W78646  39.975  36.450   3.384
19353W        W78647  13.107  16.218  13.402
19354W        W78648  35.932  31.442   2.847
19355W        W78649  35.407  25.102   1.420
19356W        W78650  11.852  38.533  11.913
19357W        W78651  42.506  13.686   0.470
19358W        W78652  19.723  14.796  14.976
19359W        W78653   2.855  20.634   1.447
19360W        W78654  41.867  24.533  13.948
19361W        W78655  25.070  30.916   0.833
19362W        W78656  41.298   0.786  11.418
19363W        W78657  22.693   9.224   3.868
19364W        W78658  36.470  21.705  14.414
19365W        W78659  23.664  18.104  13.947
19366W        W78660  11.356  44.415   1.241
19367W        W78661  41.016  38.355   4.339
19368W        W78662   5.252   2.291   3.690
19369W        W78663   5.806  42.410  11.570
19370W        W78664  20.086  17.193   1.422
19371W        W78665  37.557   0.388  14.490
19372W        W78666  30.519  23.996  13.878
19373W        W78667   4.843   7.384   2.793
19374W        W78668  26.096  22.728   3.283
19375W        W78669  10.172  34.391   2.771
19376W        W78670  25.058  19.578   3.794
19377W        W78671  32.496  27.539   3.766
19378W        W78672  24.488  42.937  13.381
19379W        W78673  11.325  30.466  12.828
19380W        W78674  18.140  43.411   1.344
19381W        W78675   4.783  17.292  13.005
19382W        W78676  13.303  10.837   1.890
19383W        W78677   9.235   1.942   2.884
19384W        W78678  33.046  43.965  14.822
19385W        W78679  38.936   8.705   3.276
19386W        W78680   9.794  44.869  14.835
19387W        W78681  24.479  21.155  10.511
19388W        W78682   1.364  36.387   1.309
19389W        W78683  40.433  35.927   1.871
19390W        W78684  18.104  23.633   2.385
19391W        W78685  15.147  27.126   1.935
19392W        W78686  35.954  43.859   0.348
19393W        W78687   5.297  14.724  11.108
19394W        W78688  19.547  17.710   2.799
19395W        W78689  30.922   4.806   2.206
19396W        W78690  43.011  37.432  14.387
19397W        W78691  26.097   3.218   4.708
19398W        W78692   2.272  12.715  11.055
19399W        W78693   9.737   4.760  12.836
19400W        W78694  15.654  10.286   1.287
19401W        W78695  12.332  40.803  14.912
19402W        W78696  24.153  31.095   0.291
19403W        W78697   1.354  19.595   3.714
19404W        W78698  36.910   1.454   2.189
19405W        W78699  32.624  42.940  14.292
19406W        W78700  12.237  11.644   5.183
19407W        W78701  34.447  17.666   0.390
19408W        W78702  25.493  17.232   3.242
19409W        W78703  31.953   4.776   4.609
19410W        W78704  20.157  14.807   4.712
19411W        W78705  26.160  41.314  12.001
19412W        W78706   8.845  10.314   0.475
19413W        W78707   4.338  24.993  13.364
19414W        W78708  41.511  20.166   0.737
19415W        W78709   5.769  33.929   9.944
19416W        W78710  44.395  10.674  13.547
19417W        W78711  13.748  26.568  13.447
19418W        W78712  28.651  44.974   4.803
19419W        W78713  14.121  23.021   9.953
19420W        W78714  35.552  39.493  13.447
19421W        W78715  32.040  38.890   2.406
19422W        W78716  19.272  26.621   4.350
19423W        W78717  41.397   1.376   1.747
19424W        W78718  25.470  22.736  10.954
19425W        W78719  14.274  14.121   1.290
19426W        W78720  39.405  17.068  11.044
19427W        W78721  37.496  32.440  14.325
19428W        W78722   9.741  16.144   3.667
19429W        W78723  21.021  28.084  12.838
19430W        W78724  41.971   4.294   3.797
19431W        W78725  36.972  39.432   2.777
19432W        W78726   2.352  16.092   0.800
19433W        W78727  25.709  24.116  12.007
19434W        W78728  18.752  31.098  13.389
19435W        W78729  15.312  17.566  13.028
19436W        W78730  29.517  33.025   1.934
19437W        W78731  40.472  19.240   3.716
19438W        W78732   1.402  22.014  13.390
19439W        W78733  32.455  39.815   5.246
19440W        W78734  28.443  28.953   4.204
19441W        W78735  33.130  41.945   0.869
19442W        W78736  25.029  40.934  10.638
19443W        W78737  40.805  44.877   2.251
19444W        W78738  42.462   7.715  14.353
19445W        W78739  11.647  39.330  13.905
19446W        W78740  32.615  19.680   4.762
19447W        W78741  10.363   7.184   2.411
19448W        W78742  23.050  41.329   2.228
19449W        W78743  16.118  12.808   9.436
19450W        W78744  32.541  27.976   2.697
19451W        W78745  31.898   2.958   0.273
19452W        W78746  31.499  15.181  13.936
19453W        W78747  14.714  21.075   5.602
19454W        W78748  42.353  16.655  14.365
19455W        W78749  32.010  36.545   1.707
19456W        W78750  12.153  17.237  14.459
19457W        W78751  33.909   7.871   0.761
19458W        W78752  23.502  19.587  13.444
19459W        W78753  44.836  16.286   4.627
19460W        W78754   4.879  32.084  12.891
19461W        W78755  21.672  33.524   0.475
19462W        W78756  40.879  19.537   4.734
19463W        W78757   5.352   7.791   3.175
19464W        W78758  15.807  28.595  13.476
19465W        W78759   9.823  37.461   2.876
19466W        W78760  34.530  32.123   2.680
19467W        W78761  18.108   8.765  14.990
19468W        W78762  25.568  35.503   4.117
19469W        W78763   2.860  23.695   3.737
19470W        W78764   8.214  30.093   1.412
19471W        W78765   2.244  32.449   1.829
19472W        W78766  18.218   1.801  13.319
19473W        W78767  15.169   3.407   3.296
19474W        W78768  16.665  34.953  10.912
19475W        W78769  15.797  28.479  10.912
19476W        W78770  23.704  21.151   3.320
19477W        W78771  10.851   2.724  12.843
19478W        W78772  41.482  27.474  12.018
19479W        W78773  36.495  40.032   3.721
19480W        W78774  16.594  37.950   3.359
19481W        W78775   1.962  38.029   3.741
19482W        W78776   7.774  11.789   2.874
19483W        W78777  12.675  25.131  10.915
19484W        W78778   9.741  42.992  12.036
19485W        W78779  25.571  38.370   1.450
19486W        W78780  29.107   9.762   0.266
19487W        W78781  30.490  44.329  10.405
19488W        W78782   3.751  20.650  10.501
19489W        W78783   6.741   6.766  12.448
19490W        W78784   5.863  18.294  14.335
19491W        W78785  36.445  37.960   1.423
19492W        W78786   6.765  43.945   5.162
19493W        W78787  21.182   8.751  13.036
19494W        W78788   8.179   1.357  14.288
19495W        W78789  42.890   8.883  14.940
19496W        W78790  36.947  22.742  12.950
19497W        W78791  23.041   6.892  13.935
19498W        W78792   6.845  38.052  13.865
19499W        W78793  32.620  21.257  11.927
19500W        W78794  32.456  29.485  13.378
19501W        W78795   1.911  11.358  14.843
19502W        W78796  25.683  11.335  12.979
19503W        W78797  36.365  44.350  14.396
19504W        W78798  41.992  19.587  10.562
19505W        W78799   3.411  34.935   1.295
19506W        W78800  11.623   9.309  14.985
19507W        W78801  28.590  14.672  12.016
19508W        W78802  21.645   9.384  10.517
19509W        W78803  44.461   6.262   4.346
19510W        W78804  19.285  38.905   0.825
19511W        W78805  31.616  29.544   0.300
19512W        W78806  35.589  35.575   3.809
19513W        W78807  29.552  19.577   3.318
19514W        W78808  22.113  19.537  10.461
19515W        W78809   3.320  40.382   2.725
19516W        W78810   6.705  16.276   1.412
19517W        W78811  32.124  34.519   3.161
19518W        W78812  43.944   0.823  14.912
19519W        W78813  25.490  28.573  13.914
19520W        W78814   4.405  41.360  13.054
19521W        W78815  30.020  34.065   0.252
19522W        W78816  24.659  18.061   4.186
19523W        W78817  21.610   5.837  13.418
19524W        W78818  30.133  14.640  13.950
19525W        W78819  35.921  21.171   3.248
19526W        W78820  14.211   7.674   0.325
19527W        W78821  10.328  14.805  13.905
19528W        W78822  40.914  34.990   3.183
19529W        W78823  28.574   5.899  12.518
19530W        W78824  12.343  17.233   3.641
19531W        W78825  22.637   6.884   3.836
19532W        W78826  20.038  13.743   4.807
19533W        W78827  28.962  14.628   1.798
19534W        W78828   1.303  24.567   0.403
19535W        W78829  41.441   0.439  10.958
19536W        W78830  22.729  25.669   1.776
19537W        W78831  21.565  37.870   4.143
19538W        W78832  28.060  23.711   2.709
19539W        W78833  17.208   7.409   4.202
19540W        W78834  37.059  39.945   2.403
19541W        W78835   9.345  36.859  13.897
19542W        W78836  28.641  18.161   2.180
19543W        W78837  10.736  11.175   2.784
19544W        W78838  43.467  15.709   1.224
19545W        W78839  16.583  11.338   1.746
19546W        W78840  27.049   3.766   2.385
19547W        W78841  34.548  10.842   1.418
19548W        W78842   0.885  30.625   2.229
19549W        W78843  18.729   5.808  12.951
19550W        W78844  41.964  12.145   2.263
19551W        W78845  19.189  14.144   2.374
19552W        W78846   8.291  30.421  13.338
19553W        W78847  23.213  18.591   0.324
19554W        W78848  43.374  41.908   0.380
19555W        W78849  18.136  39.008  11.578
19556W        W78850   9.658  27.497   1.411
19557W        W78851  35.953  16.239   3.378
19558W        W78852  10.827  14.729   3.262
19559W        W78853  19.738  33.420  12.824
19560W        W78854  38.016   5.433  12.825
19561W        W78855   4.812  36.877   1.336
19562W        W78856  19.584  38.992   4.726
19563W        W78857   8.740   1.793  14.792
19564W        W78858   1.921   1.743   4.604
19565W        W78859  34.514  19.561  12.389
19566W        W78860  42.987  34.035  10.951
19567W        W78861  34.946  22.640  14.803
19568W        W78862  17.802  33.885  13.862
19569W        W78863  21.220  37.933  13.894
19570W        W78864  24.055  20.671   3.856
19571W        W78865  32.528  43.401  10.470
19572W        W78866  31.927  36.888   0.306
19573W        W78867  27.079   3.430  12.093
19574W        W78868  21.727  10.767   4.174
19575W        W78869  26.097  42.310   4.243
19576W        W78870  15.664   4.404  10.449
19577W        W78871  25.205   8.394  13.376
19578W        W78872  12.689  39.328  10.539
19579W        W78873  41.312  21.030   0.810
19580W        W78874  14.650  41.424   3.264
19581W        W78875  41.509  43.908  14.437
19582W        W78876  33.395  27.506  11.436
19583W        W78877   0.811  28.644   3.184
19584W        W78878   0.427   6.206  10.966
19585W        W78879  30.150  16.779   1.762
19586W        W78880   9.678  13.320   0.259
19587W        W78881  15.603  34.964   4.747
19588W        W78882  11.822  36.537  14.973
19589W        W78883  18.172  31.936  12.985
19590W        W78884   9.786   9.760  14.498
19591W        W78885  19.127  10.736  11.930
19592W        W78886  14.182  13.163   2.662
19593W        W78887  38.961  31.904   2.699
19594W        W78888  19.130  34.869  10.949
19595W        W78889   5.841   1.756  11.435
19596W        W78890  13.751  34.533  13.433
19597W        W78891   6.262  15.101  11.918
19598W        W78892  31.129  40.531  11.552
19599W        W78893  23.163   5.397   4.637
19600W        W78894  29.509  12.774  13.040
19601W        W78895  26.522   6.713  10.614
19602W        W78896  43.799   8.203   4.250
19603W        W78897  15.141  34.452  10.505
19604W        W78898  21.705  16.129   1.800
19605W        W78899  19.545  20.254   5.160
19606W        W78900  39.452  29.477   4.757
19607W        W78901   5.311  43.354   4.623
19608W        W78902  33.880  22.158  12.346
19609W        W78903   9.349   4.856  14.934
19610W        W78904  33.612  13.232   1.775
19611W        W78905   4.925  44.470   1.900
19612W        W78906  12.636  22.100   4.750
19613W        W78907  13.782  26.174   4.628
19614W        W78908   1.360  33.462  14.859
19615W        W78909  35.878  16.641  10.615
19616W        W78910  11.807  35.360  12.520
19617W        W78911  39.933   9.357  12.463
19618W        W78912   0.896  12.732   0.461
19619W        W78913  43.469   9.810   2.387
19620W        W78914  27.948  41.427   2.216
19621W        W78915  35.033  15.606  14.766
19622W        W78916  23.188  27.690   3.698
19623W        W78917  35.037  11.272  10.936
19624W        W78918  13.819  15.159   2.799
19625W        W78919  39.921   4.427  14.326
19626W        W78920  35.914   5.396   1.880
19627W        W78921   9.339  11.868   4.337
19628W        W78922  32.077  15.099   2.664
19629W        W78923  29.444   5.204  11.088
19630W        W78924   5.311  42.880   1.811
19631W        W78925   9.270  32.896   4.154
19632W        W78926  42.779  43.276   1.425
19633W        W78927  28.550   2.362  14.946
19634W        W78928  31.422  17.790   4.639
19635W        W78929  26.530  29.030   4.722
19636W        W78930   6.855  34.516  13.888
19637W        W78931  41.946  33.046   4.346
19638W        W78932   6.308  42.881  14.817
19639W        W78933  15.677   9.659   1.870
19640W        W78934  37.883  33.100  11.393
19641W        W78935   5.911  18.090   0.747
19642W        W78936  36.881  36.578  14.479
19643W        W78937  16.788  39.500  13.351
19644W        W78938   5.711   7.174  10.896
19645W        W78939  10.274  27.013   4.745
19646W        W78940  42.957  27.193   4.619
19647W        W78941  18.619  43.791   4.695
19648W        W78942   2.943  18.131  11.477
19649W        W78943  13.264  22.200   0.267
19650W        W78944  28.184   7.376  10.102
19651W        W78945  25.010  41.788  14.813
19652W        W78946  22.124  25.655   2.334
19653W        W78947  30.979  12.268  13.482
19654W        W78948  39.329  10.244  14.835
19655W        W78949  42.374  27.949  12.457
19656W        W78950  29.518  13.829   2.209
19657W        W78951  17.106   7.744   0.762
19658W        W78952  31.478  42.870  12.470
19659W        W78953   8.381  14.695   2.894
19660W        W78954  21.737  21.045  12.398
19661W        W78955  39.871   9.858   0.862
19662W        W78956  14.833   4.712  13.390
19663W        W78957  44.858  38.885  10.929
19664W        W78958  34.613   6.224  10.506
19665W        W78959  21.659   0.453   2.690
19666W        W78960  18.278   2.433   3.359
19667W        W78961  13.318  44.469  12.942
19668W        W78962  21.190  21.618   2.719
19669W        W78963  11.714  37.848   3.793
19670W        W78964  39.358  28.501   3.250
19671W        W78965  29.083  37.508   4.265
19672W        W78966   3.226  18.680   3.190
19673W        W78967  28.570  10.337   9.922
19674W        W78968  41.423  33.030   2.675
19675W        W78969  42.395  42.940   0.916
19676W        W78970  25.479  25.172   4.632
19677W        W78971  26.543  24.230  11.047
19678W        W78972  12.327  38.985  11.913
19679W        W78973   4.735  33.073   0.419
19680W        W78974  40.317   4.824  13.916
19681W        W78975  25.074  28.542   0.938
19682W        W78976  17.112  27.641  12.540
19683W        W78977   7.245   1.843   1.730
19684W        W78978  29.123  19.649   0.852
19685W        W78979  32.607   6.379  10.624
19686W        W78980   8.289  23.209  12.067
19687W        W78981  25.028  36.502   1.294
19688W        W78982  21.703  33.442  10.160
19689W        W78983  11.231  31.008  13.529
19690W        W78984  40.447   5.325  10.492
19691W        W78985  21.513  24.993   3.847
19692W        W78986  39.555  41.350   2.392
19693W        W78987  33.604  20.644  11.518
19694W        W78988  38.835  36.984  11.474
19695W        W78989  34.594  12.804  10.956
19696W        W78990   6.248   2.829  12.467
19697W        W78991  24.053  15.127   1.867
19698W        W78992  42.386  39.045  10.588
19699W        W78993   9.195  10.833  12.466
19700W        W78994  11.348  39.990   2.219
19701W        W78995  41.404   8.815   1.422
19702W        W78996  43.847   1.888   4.229
19703W        W78997   8.297  22.746   3.774
19704W        W78998   5.275  19.606   1.333
19705W        W78999  34.094  13.627   2.283
19706W        W79000  35.900  39.486  10.644
19707W        W79001   1.972  31.548  11.585
19708W        W79002  14.282   7.847  14.476
19709W        W79003  28.598  39.031   2.262
19710W        W79004  23.086  28.137  10.433
19711W        W79005  35.022   0.404  11.375
19712W        W79006  33.003  30.554   3.229
19713W        W79007  31.910   2.435   1.724
19714W        W79008  35.110   5.389   5.209
19715W        W79009  31.927  19.175   1.431
19716W        W79010  41.496  41.348  14.424
19717W        W79011  25.167  33.476   3.816
19718W        W79012  44.963   7.732   2.733
19719W        W79013  19.591  32.557   2.788
19720W        W79014  14.258  30.658  14.311
19721W        W79015  10.707  32.487  14.846
19722W        W79016  26.023  22.156   3.370
19723W        W79017  12.126   4.858   3.734
19724W        W79018  32.999  27.626   2.400
19725W        W79019  13.307  11.315  10.482
19726W        W79020  34.903  30.026  14.810
19727W        W79021   7.308  13.634   3.153
19728W        W79022  24.136   9.249  12.401
19729W        W79023   8.783   6.367  11.404
19730W        W79024  21.662   7.406  13.938
19731W        W79025   4.335  26.646   3.720
19732W        W79026  27.039  24.680  11.571
19733W        W79027  27.178  29.489  11.406
19734W        W79028  10.355  10.331   2.189
19735W        W79029  31.644  24.694   4.120
19736W        W79030  36.928  11.362  13.412
19737W        W79031  20.053   0.320  12.865
19738W        W79032  29.640  23.627   4.671
19739W        W79033  35.034  36.953  12.892
19740W        W79034  18.771  15.288  14.295
19741W        W79035  21.557  11.366  11.924
19742W        W79036  38.390  28.009   1.886
19743W        W79037  44.847  16.108   0.729
19744W        W79038  35.462  40.396  11.433
19745W        W79039  21.744  18.559  14.860
19746W        W79040  33.091  36.368  14.280
19747W        W79041  27.173  25.650   2.411
19748W        W79042  19.074   3.322   1.768
19749W        W79043   3.430  44.265   4.293
19750W        W79044  42.867  18.738   3.789
19751W        W79045  13.287  19.567  10.150
19752W        W79046  21.586  19.143  11.989
19753W        W79047  24.179  28.519   2.355
19754W        W79048  42.936   8.717   4.204
19755W        W79049   8.844  25.029   0.841
19756W        W79050  14.627   7.719   3.632
19757W        W79051  29.081  30.515   4.164
19758W        W79052  10.293   0.942   9.665
19759W        W79053  12.149   0.480   3.716
19760W        W79054   5.227  34.895   1.920
19761W        W79055  15.698  37.451  10.553
19762W        W79056  32.076  21.666  13.914
19763W        W79057  15.701  39.830  10.498
19764W        W79058  38.898  13.754  14.359
19765W        W79059  20.096  29.601   3.718
19766W        W79060   5.437  43.017   3.371
19767W        W79061  11.762   9.173   2.887
19768W        W79062  16.813  20.560  10.983
19769W        W79063  21.720  27.653   3.223
19770W        W79064  10.319  36.842   0.802
19771W        W79065   5.698  43.857   1.758
19772W        W79066   8.749  26.515   4.621
19773W        W79067  43.375  37.000  12.095
19774W        W79068  40.437   6.788  13.955
19775W        W79069  26.154  36.913  13.960
19776W        W79070   9.264  13.258   4.201
19777W        W79071  33.488  34.913  13.386
19778W        W79072  27.562   4.844   4.173
19779W        W79073   9.291   9.259  14.975
19780W        W79074  28.945  40.430  13.020
19781W        W79075  18.122   2.384  11.894
19782W        W79076  33.622  37.384   5.205
19783W        W79077  21.703   7.839   2.273
19784W        W79078  28.602  20.571  10.549
19785W        W79079   4.743   7.356   4.673
19786W        W79080   3.814  24.056  13.850
19787W        W79081   5.311  35.444   3.320
19788W        W79082  16.651  14.806   0.735
19789W        W79083  38.494  33.588  12.859
19790W        W79084  26.596  11.673  12.085
19791W        W79085  30.656  22.146   4.304
19792W        W79086  30.538  36.955  14.492
19793W        W79087   3.847   3.925  11.897
19794W        W79088  21.205  17.582  12.472
19795W        W79089  34.436  29.149   2.708
19796W        W79090  21.589  23.119  13.935
19797W        W79091  17.568   0.853   0.386
19798W        W79092  14.152  10.832  12.958
19799W        W79093   9.788  31.087  13.340
19800W        W79094   4.284  13.618   4.624
19801W        W79095  12.155   5.750   2.243
19802W        W79096  29.986  13.737  13.342
19803W        W79097   6.233  27.043   2.334
19804W        W79098  22.085  13.703   3.723
19805W        W79099  17.265   7.338  12.502
19806W        W79100  32.950  41.508   0.416
19807W        W79101   7.840  28.027   4.282
19808W        W79102  28.023  31.144   3.285
19809W        W79103  44.383  17.181   0.259
19810W        W79104  12.698  42.966   1.880
19811W        W79105  44.270   8.234   2.874
19812W        W79106  11.328  27.150  10.452
19813W        W79107  16.789  16.173  14.297
19814W        W79108   0.354  36.438   3.213
19815W        W79109  43.370  38.048  14.977
19816W        W79110  39.388  42.405  11.937
19817W        W79111  27.168  12.780  13.418
19818W        W79112  10.216   3.913  11.419
19819W        W79113  32.502  12.331   3.776
19820W        W79114  42.898   7.262  12.475
19821W        W79115  38.333  25.052  10.452
19822W        W79116  16.108  31.973  14.458
19823W        W79117   1.347  11.322   3.664
19824W        W79118  22.098   2.844   3.345
19825W        W79119  27.563  17.240   0.392
19826W        W79120  16.229  12.199   3.643
19827W        W79121  37.986  26.136  10.571
19828W        W79122  16.645  35.501   2.386
19829W        W79123   0.291  36.348   2.190
19830W        W79124  19.043  14.194  12.068
19831W        W79125  26.613  37.032  11.477
19832W        W79126  12.621  19.173   2.700
19833W        W79127   5.258  10.681   2.200
19834W        W79128  17.698  21.226  12.414
19835W        W79129  22.083  16.182  12.472
19836W        W79130  22.057  30.426   4.310
19837W        W79131  37.529  29.079  14.814
19838W        W79132  27.181  10.756  13.043
19839W        W79133   4.807  24.556   3.237
19840W        W79134  38.411  44.394  14.824
19841W        W79135  15.209   5.307   2.411
19842W        W79136   4.417  35.966   4.243
19843W        W79137  31.147  38.981   4.785
19844W        W79138  37.479  35.509  14.985
19845W        W79139  40.908   4.767  10.594
19846W        W79140  16.140  32.953   3.831
19847W        W79141  22.011  41.952   3.826
19848W        W79142  22.606  23.728  12.379
19849W        W79143  10.725  31.992  10.069
19850W        W79144  24.180   7.690  14.445
19851W        W79145   2.418  17.636   2.681
19852W        W79146  27.681  26.523   2.405
19853W        W79147  26.630  21.664   3.155
19854W        W79148  40.475  11.667  12.899
19855W        W79149  35.376  12.743  14.498
19856W        W79150  32.910  35.865   4.805
19857W        W79151  35.377  27.167   3.319
19858W        W79152  27.612  11.663  12.864
19859W        W79153  39.003  13.245   4.793
19860W        W79154  22.037  42.362  13.316
19861W        W79155   6.352  30.107   1.864
19862W        W79156  23.721  38.047   1.251
19863W        W79157  16.716  18.616  10.593
19864W        W79158   0.970  43.319   0.396
19865W        W79159   8.309  27.036  10.953
19866W        W79160  31.518  30.472  12.539
19867W        W79161   7.249   2.396   1.217
19868W        W79162  42.901  13.828  12.949
19869W        W79163  16.662  14.719   5.286
19870W        W79164  44.312  28.520   0.946
19871W        W79165  12.749  40.422   0.329
19872W        W79166  44.479   3.721   3.202
19873W        W79167  13.743  22.160  12.014
19874W        W79168   6.758   0.474   1.827
19875W        W79169  28.946   9.222   0.789
19876W        W79170  19.614  23.230  12.049
19877W        W79171  33.901   8.776  13.448
19878W        W79172  12.620  36.593  13.896
19879W        W79173  19.164  18.712  14.807
19880W        W79174  26.690  10.334   4.217
19881W        W79175   7.896  27.128  10.903
19882W        W79176  29.483  14.653   1.852
19883W        W79177  15.250  24.681  13.047
19884W        W79178  13.740  33.013  10.508
19885W        W79179  21.060  28.088  13.492
19886W        W79180  39.994  23.114   2.390
19887W        W79181  28.001  37.366  11.533
19888W        W79182   2.420  19.706  10.105
19889W        W79183  30.520  34.385   3.304
19890W        W79184  12.694  20.647  12.091
19891W        W79185  15.802  14.803  13.391
19892W        W79186   5.867  35.377   3.675
19893W        W79187  33.123  15.798   4.793
19894W        W79188  27.506   5.907   3.659
19895W        W79189   4.877  44.296   2.391
19896W        W79190  43.507  18.742   1.346
19897W        W79191  17.236  17.564   0.393
19898W        W79192  26.482  15.747  14.779
19899W        W79193  27.145   2.959  14.950
19900W        W79194   7.397  19.536   0.253
19901W        W79195  24.024  29.615   0.844
19902W        W79196  39.459   8.370   4.777
19903W        W79197  25.010  23.043  10.463
19904W        W79198  42.480  39.842   0.422
19905W        W79199  42.015   6.313  11.905
19906W        W79200  30.575  38.515  14.872
19907W        W79201  13.185  40.038  14.310
19908W        W79202  23.491  14.748   0.863
19909W        W79203  19.717  29.466   2.802
19910W        W79204  41.391  16.171   2.710
19911W        W79205  40.514  21.110   4.803
19912W        W79206  30.133   7.276  13.918
19913W        W79207  24.509   8.689  12.873
19914W        W79208  25.142  35.042   2.781
19915W        W79209   1.402  38.503   3.833
19916W        W79210  40.903  44.938   1.823
19917W        W79211  16.109   9.378  12.427
19918W        W79212  13.189   1.833   1.866
19919W        W79213  13.180  19.235   4.217
19920W        W79214  33.554   0.949   1.242
19921W        W79215  38.365  21.050  13.034
19922W        W79216   1.744   2.849   4.819
19923W        W79217  43.320   8.251  12.994
19924W        W79218  40.442  16.212   0.395
19925W        W79219  19.629  38.034   4.809
19926W        W79220  23.610  22.036  13.041
19927W        W79221  38.907  41.487   2.708
19928W        W79222   7.832  16.279   0.785
19929W        W79223  18.657   2.867   0.262
19930W        W79224  19.575  13.739   3.853
19931W        W79225   0.846  20.765  11.379
19932W        W79226  39.846  36.499  10.472
19933W        W79227  24.228  43.386  10.987
19934W        W79228   9.237  28.623   2.880
19935W        W79229  28.134  36.558  10.045
19936W        W79230  23.664  44.474   0.484
19937W        W79231   1.358  42.845  13.923
19938W        W79232   6.828  18.707  12.858
19939W        W79233  40.844   1.470  12.357
19940W        W79234  26.186  26.574  13.958
19941W        W79235   8.662  29.654  13.322
19942W        W79236  36.886  28.979   0.874
19943W        W79237  17.557  30.504  12.881
19944W        W79238  23.232  34.519  12.454
19945W        W79239  44.370  40.992   4.758
19946W        W79240  37.505  31.909   2.887
19947W        W79241  43.880  15.178  13.792
19948W        W79242  23.120   9.725  13.350
19949W        W79243   2.354  43.299  11.961
19950W        W79244  42.347  38.499   1.872
19951W        W79245  34.876  42.859  11.975
19952W        W79246  28.461   8.378  14.485
19953W        W79247  13.799  27.568  12.413
19954W        W79248  14.131  26.642   0.896
19955W        W79249  15.288  16.589  12.951
19956W        W79250   5.315  42.314   0.302
19957W        W79251  40.334  19.664   3.234
19958W        W79252  20.576  13.839   1.928
19959W        W79253   1.461  30.032  10.453
19960W        W79254  21.138  11.138   4.793
19961W        W79255  31.096  42.962  11.494
19962W        W79256   9.655  19.609  10.427
19963W        W79257  20.264  17.127  10.091
19964W        W79258   6.294   4.446  13.505
19965W        W79259  43.931  18.700   0.782
19966W        W79260  38.542  37.941  11.009
19967W        W79261   6.822  41.535   0.910
19968W        W79262  34.011  44.432  10.593
19969W        W79263   8.669  22.170   2.268
19970W        W79264  17.130  41.468   0.808
19971W        W79265   5.715   1.354  12.083
19972W        W79266   7.747  27.505  13.326
19973W        W79267  32.417  15.306  13.988
19974W        W79268  16.165  27.504  10.511
19975W        W79269  17.775  28.107  10.543
19976W        W79270  20.034   5.375  10.898
19977W        W79271  13.688  34.446  13.053
19978W        W79272  28.619   8.275   0.761
19979W        W79273   9.802  11.227  12.944
19980W        W79274   5.930  41.393  10.424
19981W        W79275  35.097  39.412   1.298
19982W        W79276  42.881  37.952   0.276
19983W        W79277  26.700  32.022   0.268
19984W        W79278  22.054  34.962   1.792
19985W        W79279  22.011   4.849  13.444
19986W        W79280  36.028  36.404  12.852
19987W        W79281   8.879   0.757   2.663
19988W        W79282   0.767   7.672  12.089
19989W        W79283  26.509   3.375   1.304
19990W        W79284   5.271   7.761  13.032
19991W        W79285  17.260   2.339   1.705
19992W        W79286   3.869  13.299  11.535
19993W        W79287  25.110  12.183  13.526
19994W        W79288  44.830  11.633  13.490
19995W        W79289  36.368  12.775  10.997
19996W        W79290  41.933   9.310  12.568
19997W        W79291  25.107  40.989   5.308
19998W        W79292  21.173   2.303   2.810
19999W        W79293  38.450  39.368   5.613
20000W        W79294  22.138  29.573  14.006
20001W        W79295  40.487  35.004   1.419
20002W        W79296  31.481  22.729   0.293
20003W        W79297  30.058  30.621  13.315
20004W        W79298   8.886  10.873  13.056
20005W        W79299  39.522   8.754  10.930
20006W        W79300  26.959  39.995  13.397
20007W        W79301  35.499  23.012   1.714
20008W        W79302  27.623   1.430  12.900
20009W        W79303  25.138   9.769   1.334
20010W        W79304  39.888  13.662  10.927
20011W        W79305  16.088  25.514  12.891
20012W        W79306  26.501   4.719   3.841
20013W        W79307  27.652  32.599   3.694
20014W        W79308   4.332  40.376  14.936
20015W        W79309  11.650   0.904   1.720
20016W        W79310  19.571  21.748   2.250
20017W        W79311  11.177  43.971  12.044
20018W        W79312  35.507   0.413   4.170
20019W        W79313   0.343  22.164   4.664
20020W        W79314  33.016  14.327   4.692
20021W        W79315  25.061   4.732  13.918
20022W        W79316  19.707   1.837   4.301
20023W        W79317   1.314  38.336   2.416
20024W        W79318  22.057   9.713   0.270
20025W        W79319   8.392  29.169   5.081
20026W        W79320  12.356  15.687   4.636
20027W        W79321  37.386  17.602   4.226
20028W        W79322   8.206  36.889  13.896
20029W        W79323  13.251  12.788  14.482
20030W        W79324  42.971  35.391   0.457
20031W        W79325  44.787  22.664   1.766
20032W        W79326  11.291   2.340   0.758
20033W        W79327  36.589  12.822   3.349
20034W        W79328  29.655  41.524   3.851
20035W        W79329  32.954  11.299   3.699
20036W        W79330  32.894  20.089   1.839
20037W        W79331  16.155  13.629   1.224
20038W        W79332  33.432  15.649   1.733
20039W        W79333  20.643  38.411  10.544
20040W        W79334  12.676  30.107   4.222
20041W        W79335   2.732  12.763   3.705
20042W        W79336  43.872  35.876  14.780
20043W        W79337  20.751  13.170  11.402
20044W        W79338  24.479  22.743  10.627
20045W        W79339  37.406  33.904  11.975
20046W        W79340  37.919  44.339  14.482
20047W        W79341   0.419  30.165   0.420
20048W        W79342  22.694  36.577   2.350
20049W        W79343  33.091  13.109  12.396
20050W        W79344  39.916  12.691  14.425
20051W        W79345   0.893  21.083  10.920
20052W        W79346   1.475  21.081  11.949
20053W        W79347  17.213  29.927   0.371
20054W        W79348  39.478  39.941  10.468
20055W        W79349  31.453  41.364  14.334
20056W        W79350  41.869   2.725   0.745
20057W        W79351  36.363  22.044  10.539
20058W        W79352  39.356  28.967  11.416
20059W        W79353  19.642  27.567   9.966
20060W        W79354  41.034  21.576  12.441
20061W        W79355  14.230   7.845   3.350
20062W        W79356  38.867  30.500   0.378
20063W        W79357  27.134  43.015   0.751
20064W        W79358  28.563  37.993  10.535
20065W        W79359  44.792  33.916  12.971
20066W        W79360  44.437   4.298  14.913
20067W        W79361  34.463   6.741  13.988
20068W        W79362  31.406  10.363   3.148
20069W        W79363   8.824   1.937  12.560
20070W        W79364  24.199   4.710  12.901
20071W        W79365  27.049  22.579   2.707
20072W        W79366  37.906  18.116  13.469
20073W        W79367  21.638  12.340   3.213
20074W        W79368  33.879  15.257   1.294
20075W        W79369   8.389  43.413  13.997
20076W        W79370   0.353  18.720   1.218
20077W        W79371  21.170   6.773  12.462
20078W        W79372   9.663  43.466  11.594
20079W        W79373  24.224  40.898  12.493
20080W        W79374  36.846  16.596  14.331
20081W        W79375  21.643  37.887   2.726
20082W        W79376   4.923  30.429  11.954
20083W        W79377  31.114  14.180   4.303
20084W        W79378  19.262  29.486   1.277
20085W        W79379  13.644   4.220   1.868
20086W        W79380   1.452  39.367   1.417
20087W        W79381   3.218  16.629  12.027
20088W        W79382  30.462  14.317  14.850
20089W        W79383  29.474  43.328   0.454
20090W        W79384  26.992  44.341  13.821
20091W        W79385  14.638  17.785   4.218
20092W        W79386  34.604  14.189  13.001
20093W        W79387  31.468  39.380   1.838
20094W        W79388   5.223  32.907  11.489
20095W        W79389  17.738   4.410   3.684
20096W        W79390  27.602  34.453  11.051
20097W        W79391  15.119  10.319  10.933
20098W        W79392  28.165  18.188   2.725
20099W        W79393  32.903  12.130   1.833
20100W        W79394  10.239   9.740   0.314
20101W        W79395  22.708  19.767   3.364
20102W        W79396  41.867   8.329   0.959
20103W        W79397  28.121  29.531  12.049
20104W        W79398  32.126   0.292   3.733
20105W        W79399  32.108   7.834  13.796
20106W        W79400  42.862  21.261   4.711
20107W        W79401   0.281  36.385   1.894
20108W        W79402  10.141   1.966  13.336
20109W        W79403  37.452  20.112  11.576
20110W        W79404   0.928  35.003   2.866
20111W        W79405  40.832  25.549   3.193
20112W        W79406  12.787   2.378   2.707
20113W        W79407  24.164  44.804  11.586
20114W        W79408   7.172   9.683  14.973
20115W        W79409  29.511  29.000   0.742
20116W        W79410  24.200  18.680  13.515
20117W        W79411  24.139   6.410  10.906
20118W        W79412   6.682  12.761   1.398
20119W        W79413  21.586  23.557   1.427
20120W        W79414   8.238   9.841   0.965
20121W        W79415  21.670  36.036   1.881
20122W        W79416   9.847   6.254  11.426
20123W        W79417  32.576  13.277   2.263
20124W        W79418  39.507  42.303   1.347
20125W        W79419   4.311  21.123   2.815
20126W        W79420   8.179  12.310   0.945
20127W        W79421  24.193  15.126  14.428
20128W        W79422  24.198  25.128  10.149
20129W        W79423  26.661  41.308   1.248
20130W        W79424  22.503  40.974   3.376
20131W        W79425  24.560  29.451   3.711
20132W        W79426  20.171  16.242   0.944
20133W        W79427   7.748  21.527  14.458
20134W        W79428  17.126  35.057   4.785
20135W        W79429   3.292  20.146  14.909
20136W        W79430  19.144  41.446  11.037
20137W        W79431  39.939  12.707  11.032
20138W        W79432  35.088  15.799  12.978
20139W        W79433  40.417  22.187  13.335
20140W        W79434  36.551  15.755  11.580
20141W        W79435   1.956   7.315  13.534
20142W        W79436  15.597   9.832  10.540
20143W        W79437   2.333  33.982  10.547
20144W        W79438  15.794  30.076   4.769
20145W        W79439  31.583  32.552  11.527
20146W        W79440  35.859  10.878  10.488
20147W        W79441  32.496  39.949   4.657
20148W        W79442  30.942  31.562  12.392
20149W        W79443  35.494   6.874  11.609
20150W        W79444   3.214   4.842   5.271
20151W        W79445  33.032  22.073  10.613
20152W        W79446  42.932  28.566  14.979
20153W        W79447  28.560  17.590  13.057
20154W        W79448  32.593  31.037  14.972
20155W        W79449  32.987  27.613   0.793
20156W        W79450  32.075  10.182   4.669
20157W        W79451  31.503  21.756   3.842
20158W        W79452   3.399  27.110  12.013
20159W        W79453  26.066  17.248  12.420
20160W        W79454  44.374   5.833   3.647
20161W        W79455   1.257  23.653   3.631
20162W        W79456  21.589  32.127  10.124
20163W        W79457  43.009  32.135   3.164
20164W        W79458  15.244  24.548   2.861
20165W        W79459  35.991  26.067   1.857
20166W        W79460  13.804  15.657  12.925
20167W        W79461  42.921  41.898   0.483
20168W        W79462  37.549  28.140  10.925
20169W        W79463  44.422  17.745   1.261
20170W        W79464   9.842  22.550  12.368
20171W        W79465   6.384  39.056  14.993
20172W        W79466  38.440  10.872   1.770
20173W        W79467   2.900  36.413   4.756
20174W        W79468  19.599  32.991   0.317
20175W        W79469  24.203  36.581  11.525
20176W        W79470  42.017  37.430   4.648
20177W        W79471  13.159  10.156  13.874
20178W        W79472   2.889   7.824  11.876
20179W        W79473  28.047   0.276  12.925
20180W        W79474  40.452  36.443   0.811
20181W        W79475   8.714  33.563  13.835
20182W        W79476  40.832   2.392  11.110
20183W        W79477  27.479  13.825   1.267
20184W        W79478  36.934   6.358  11.070
20185W        W79479  20.255  13.621  14.301
20186W        W79480  13.143   5.744   0.246
20187W        W79481  33.960  30.454  12.035
20188W        W79482  20.570  41.038  10.514
20189W        W79483  29.149   5.226   1.770
20190W        W79484  24.502  27.984  10.635
20191W        W79485  19.094   0.966   2.703
20192W        W79486  13.123  15.132   1.300
20193W        W79487  13.808  21.737  14.944
20194W        W79488  44.965  33.103  10.457
20195W        W79489  26.688  11.321   3.674
20196W        W79490  41.905  35.028  12.966
20197W        W79491  34.873  32.544   4.645
20198W        W79492  39.321  41.789  12.455
20199W        W79493  38.065  25.500  11.591
20200W        W79494   9.161   4.786   4.624
20201W        W79495   3.897   8.237  13.918
20202W        W79496  31.899  15.325  14.367
20203W        W79497  10.236  24.636   4.737
20204W        W79498  28.157   5.826  13.909
20205W        W79499   8.841  39.436  14.465
20206W        W79500   0.932  18.733  12.931
20207W        W79501  11.287  27.460   2.202
20208W        W79502   2.771  25.520  11.463
20209W        W79503  17.684  40.340   1.393
20210W        W79504   0.287  15.814  13.332
20211W        W79505  17.666  18.749   0.729
20212W        W79506   3.891   1.424  13.846
20213W        W79507  29.009   9.351   0.393
20214W        W79508  36.480  37.570   0.285
20215W        W79509  40.303  43.873  14.773
20216W        W79510  13.624  37.077  12.017
20217W        W79511  32.983  12.191   2.884
20218W        W79512  42.003  17.745  13.902
20219W        W79513   8.865   2.861   4.325
20220W        W79514  25.069  37.018  10.498
20221W        W79515  18.123   3.250   0.862
20222W        W79516   2.906  21.231   4.722
20223W        W79517  23.682   9.670  13.825
20224W        W79518  13.197  24.043   1.387
20225W        W79519  28.637  35.393   3.356
20226W        W79520   4.837  30.610   3.785
20227W        W79521  30.924  29.596  14.365
20228W        W79522  12.757  29.534  12.572
20229W        W79523  21.608  32.938   4.829
20230W        W79524  40.941  40.348  11.980
20231W        W79525  25.219  24.592   1.707
20232W        W79526  28.517  23.127   1.759
20233W        W79527  14.260  25.071   4.792
20234W        W79528   9.726  22.158   1.921
20235W        W79529   1.890  24.511   0.902
20236W        W79530   0.840   4.368   3.791
20237W        W79531  40.917  25.965   1.387
20238W        W79532   2.858  28.507  12.469
20239W        W79533  19.117  28.605  12.921
20240W        W79534  29.516  27.579   1.785
20241W        W79535  16.770  21.165   0.420
20242W        W79536   9.374  34.422   3.760
20243W        W79537  31.423  19.624   2.411
20244W        W79538  35.439  40.325   2.338
20245W        W79539  44.396  21.208  11.008
20246W        W79540  20.533  41.354  13.327
20247W        W79541  21.618  20.652  14.283
20248W        W79542  20.572  30.958  10.992
20249W        W79543   5.689  25.057  14.974
20250W        W79544  34.447   1.970   2.331
20251W        W79545  29.065  18.187   4.605
20252W        W79546  42.009   9.375   0.395
20253W        W79547   6.350   5.859  12.352
20254W        W79548  25.004   3.782  11.122
20255W        W79549   3.741  40.362  12.532
20256W        W79550  13.221  11.315  11.599
20257W        W79551  11.689  38.950  12.887
20258W        W79552   2.915  20.749   1.859
20259W        W79553  14.599  39.820   4.320
20260W        W79554  28.598  14.824   1.348
20261W        W79555   7.413  15.086   0.412
20262W        W79556   7.224  42.499  14.891
20263W        W79557  19.158  23.989   0.746
20264W        W79558  28.625  36.399   0.928
20265W        W79559  33.966  35.872  12.032
20266W        W79560  30.106  20.562  13.818
20267W        W79561  19.543  41.358  10.446
20268W        W79562   0.394  18.194  12.431
20269W        W79563  40.418  26.027  12.394
20270W        W79564  21.259  35.034   5.212
20271W        W79565   5.197  36.564   1.292
20272W        W79566   5.744  40.043  14.006
20273W        W79567  44.366   7.796   0.458
20274W        W79568  12.202  15.672   2.327
20275W        W79569  27.672   5.754   2.771
20276W        W79570  34.970  27.051   1.899
20277W        W79571   7.281  23.193   2.771
20278W        W79572  28.586  10.254   3.851
20279W        W79573   2.727  19.549  13.895
20280W        W79574  15.741   1.450  13.963
20281W        W79575   4.919   7.242  14.004
20282W        W79576   9.747  24.661  12.471
20283W        W79577  35.070  34.072  14.333
20284W        W79578   8.202  27.081   4.146
20285W        W79579  34.557  26.059  13.358
20286W        W79580  34.610  35.579   0.776
20287W        W79581  13.203  42.821   4.180
20288W        W79582  44.444  38.878  11.861
20289W        W79583  30.575  24.687   4.298
20290W        W79584  37.083  17.263  13.019
20291W        W79585  26.005  22.664  11.956
20292W        W79586  10.874  22.182   1.391
20293W        W79587  22.242  40.357  14.921
20294W        W79588  10.226  37.387  11.499
20295W        W79589  20.611   1.901  14.340
20296W        W79590  22.631  28.152  14.852
20297W        W79591  27.035   4.921   1.797
20298W        W79592   9.872  23.566  13.424
20299W        W79593  15.140   9.193  10.897
20300W        W79594  25.575  43.880   3.242
20301W        W79595  43.307  11.718  14.419
20302W        W79596  44.946  10.350  11.452
20303W        W79597  30.105  27.063  10.428
20304W        W79598  12.263  15.305  13.036
20305W        W79599  28.462  22.246  14.939
20306W        W79600  43.392  35.538  13.791
20307W        W79601   4.249  12.319   3.215
20308W        W79602  12.336  35.570  11.994
20309W        W79603  36.389   6.230  11.411
20310W        W79604  39.042  25.180  11.428
20311W        W79605   4.369  29.958   0.426
20312W        W79606   7.304   3.856  14.440
20313W        W79607  18.131   4.331  14.911
20314W        W79608   1.837   1.962  14.391
20315W        W79609  16.217  35.993   3.739
20316W        W79610   2.901  24.635   4.152
20317W        W79611  24.036   6.831   2.347
20318W        W79612   7.194  28.124   3.190
20319W        W79613  33.949   3.956   4.353
20320W        W79614  19.729  18.591   2.899
20321W        W79615   8.703  22.617   0.795
20322W        W79616  22.228  32.904   1.320
20323W        W79617  44.503  34.414   3.305
20324W        W79618  40.394  38.857   1.892
20325W        W79619  37.051  14.269   1.905
20326W        W79620  28.121  37.582   4.710
20327W        W79621  16.640  19.569  13.838
20328W        W79622   4.379  23.522   1.757
20329W        W79623  37.489  19.248   0.767
20330W        W79624  42.899  28.935  13.970
20331W        W79625  38.995  40.472   2.699
20332W        W79626  22.074  12.759  11.080
20333W        W79627  28.634  37.002   1.897
20334W        W79628  14.689  41.893   3.734
20335W        W79629  12.613  41.323   1.312
20336W        W79630  31.134  25.007  11.039
20337W        W79631  25.543  16.246   0.352
20338W        W79632  26.038  30.483   2.347
20339W        W79633  13.336  31.435   1.354
20340W        W79634  25.136   2.900  12.369
20341W        W79635  29.057   7.689  12.388
20342W        W79636  40.439  39.441   4.802
20343W        W79637   7.845  23.648   2.898
20344W        W79638  26.688  16.224   2.861
20345W        W79639   8.299  24.055  14.304
20346W        W79640  31.409  19.662   1.221
20347W        W79641  38.424   5.751   0.369
20348W        W79642   8.219   2.800  14.393
20349W        W79643  12.181   0.430   1.717
20350W        W79644   4.240  34.447   0.354
20351W        W79645   4.837  26.671   0.961
20352W        W79646  12.794  19.729  13.476
20353W        W79647  18.082  10.167   1.812
20354W        W79648  23.003   9.267  13.913
20355W        W79649   2.338  11.189  10.544
20356W        W79650  35.510  39.893  13.383
20357W        W79651  34.593  34.042  14.424
20358W        W79652   4.380  36.367  10.550
20359W        W79653  38.048  28.116  10.919
20360W        W79654  10.271   6.382  11.867
20361W        W79655   7.401   5.712   3.825
20362W        W79656  28.641  19.197   2.866
20363W        W79657  16.156  41.838  12.923
20364W        W79658  12.117  33.958  14.307
20365W        W79659  14.168  30.617   3.686
20366W        W79660  22.193  26.128  12.507
20367W        W79661   0.328  34.976  11.993
20368W        W79662  41.899  18.724  11.084
20369W        W79663   7.372  34.924   0.770
20370W        W79664  24.638   9.164  14.418
20371W        W79665  33.965   2.773   0.821
20372W        W79666  20.142  21.617  14.964
20373W        W79667  33.127  11.693   3.722
20374W        W79668  18.082  10.746   2.867
20375W        W79669  22.056  32.472  12.535
20376W        W79670  43.312  44.903   2.362
20377W        W79671  42.382   6.349  12.074
20378W        W79672  10.324   6.718  12.364
20379W        W79673  41.941  37.422  12.916
20380W        W79674   7.378  15.692   1.319
20381W        W79675  30.965  15.622  12.015
20382W        W79676  30.547  41.404   0.258
20383W        W79677  28.633  42.949  10.905
20384W        W79678  21.026  17.661   2.694
20385W        W79679  16.686   1.917  10.527
20386W        W79680  30.023  30.572   2.753
20387W        W79681  22.715   3.232   4.724
20388W        W79682   2.413   6.350   4.220
20389W        W79683   5.302  39.821   4.119
20390W        W79684  19.611   8.181  11.866
20391W        W79685  31.448  24.050   3.696
20392W        W79686  15.743  13.674  14.978
20393W        W79687  33.443  36.415  12.020
20394W        W79688  12.828  42.394   1.450
20395W        W79689  12.249  34.997   2.371
20396W        W79690   5.400   2.877   1.414
20397W        W79691  15.207   1.383  11.104
20398W        W79692  44.976  31.045  13.898
20399W        W79693   9.699   7.198  10.538
20400W        W79694  16.687  36.965  13.817
20401W        W79695  13.169  42.330   2.205
20402W        W79696  41.017   0.934   9.996
20403W        W79697  41.880   4.876   1.914
20404W        W79698   3.412   1.360  13.392
20405W        W79699  19.106  13.712   2.246
20406W        W79700  22.090  17.656  12.049
20407W        W79701  10.863  17.085   3.780
20408W        W79702   4.910   0.949   4.188
20409W        W79703   7.387  15.722  13.801
20410W        W79704  24.103  13.115  12.079
20411W        W79705  41.370  39.897  12.347
20412W        W79706  37.366   8.193  13.854
20413W        W79707  40.405  27.502  12.062
20414W        W79708  40.827  12.358   2.205
20415W        W79709  15.202   1.403   0.927
20416W        W79710  42.907  13.308   2.744
20417W        W79711  10.285  24.498  13.496
20418W        W79712  40.914  15.619  14.912
20419W        W79713  11.360   6.257   4.773
20420W        W79714  10.239  25.572  11.909
20421W        W79715   9.310  26.071  11.473
20422W        W79716  30.638  43.484  12.505
20423W        W79717  34.092   3.291  13.821
20424W        W79718  25.593  35.004  12.882
20425W        W79719  40.855  19.045   4.768
20426W        W79720  25.599  41.028   2.854
20427W        W79721  25.625  16.316  14.394
20428W        W79722   5.778   5.689   1.330
20429W        W79723   6.686  25.504   1.380
20430W        W79724  35.935  19.570  10.894
20431W        W79725   0.914  16.104   4.612
20432W        W79726  31.042  20.266  10.898
20433W        W79727  35.426  29.663   1.370
20434W        W79728  41.456  36.044  13.540
20435W        W79729  24.608   7.781  13.907
20436W        W79730  31.989  20.048  13.471
20437W        W79731  29.175  16.762  10.479
20438W        W79732   2.888  11.729   4.633
20439W        W79733  31.098  23.518   3.832
20440W        W79734   2.735   0.339  10.469
20441W        W79735  42.448  35.901  12.023
20442W        W79736  32.521  44.991  11.476
20443W        W79737  42.375  39.835  13.506
20444W        W79738  31.602  10.712  13.049
20445W        W79739   1.954  43.821   0.436
20446W        W79740  42.300  29.921   1.447
20447W        W79741  11.149   0.961  10.473
20448W        W79742   0.299  29.082  13.040
20449W        W79743   1.918   7.191  12.861
20450W        W79744  25.164  38.367   3.757
20451W        W79745  38.836  37.830  11.062
20452W        W79746  41.439  16.221  11.878
20453W        W79747  11.344  30.620   3.248
20454W        W79748  11.298  40.858   1.372
20455W        W79749  17.570  22.073   3.372
20456W        W79750  17.793  33.487  13.034
20457W        W79751  24.512   6.769   1.893
20458W        W79752  36.079   2.355   0.955
20459W        W79753   3.393  44.337  13.480
20460W        W79754  32.941   7.742  12.458
20461W        W79755  26.615  44.939   4.184
20462W        W79756  32.075  37.505   4.295
20463W        W79757  30.015  23.106  12.844
20464W        W79758  33.595   9.315  13.900
20465W        W79759  20.594   5.782   3.244
20466W        W79760  40.801   1.441   9.504
20467W        W79761   9.682  23.207  12.874
20468W        W79762  20.055  11.252   4.352
20469W        W79763  39.829  16.171   0.931
20470W        W79764   8.307  28.164  10.034
20471W        W79765   5.411  41.032   1.440
20472W        W79766  18.587   8.211  13.930
20473W        W79767  11.641   9.367  10.112
20474W        W79768   8.281  30.103  10.143
20475W        W79769   7.352  20.703   2.236
20476W        W79770   0.858   1.903  11.488
20477W        W79771  24.202  10.649  13.933
20478W        W79772  19.165   2.818  11.995
20479W        W79773  24.655  19.202  13.839
20480W        W79774   7.760   0.760  12.964
20481W        W79775  13.775  38.421  11.934
20482W        W79776  21.092  10.288   2.368
20483W        W79777  44.905  18.209   1.725
20484W        W79778  40.888  20.580  12.936
20485W        W79779  23.588   8.791  13.497
20486W        W79780  40.924  26.586   0.460
20487W        W79781  24.149   0.826   2.199
20488W        W79782  40.394  30.103  13.368
20489W        W79783  19.648  11.780   1.904
20490W        W79784  20.231  34.480   9.934
20491W        W79785  38.428  39.016  11.522
20492W        W79786  21.709  24.520  14.821
20493W        W79787  21.051   8.795   2.310
20494W        W79788  40.493  16.625  14.435
20495W        W79789  21.192  16.086   3.676
20496W        W79790  31.147  26.685  11.900
20497W        W79791  14.652  25.052  14.367
20498W        W79792  38.991  32.427  11.087
20499W        W79793  15.300  37.409  12.851
20500W        W79794  28.642  18.139   4.143
20501W        W79795  21.533  15.786   2.749
20502W        W79796  24.099  31.060   3.801
20503W        W79797  30.026  43.327  12.405
20504W        W79798   9.712   0.315   2.289
20505W        W79799   8.842  18.581   5.198
20506W        W79800   3.727  30.489   0.454
20507W        W79801  31.001   2.790   1.697
20508W        W79802   2.858  42.393   4.117
20509W        W79803  31.063  30.009   4.299
20510W        W79804  11.303   4.247   3.768
20511W        W79805  20.134  19.606   9.667
20512W        W79806  39.416  42.943   1.791
20513W        W79807  40.921  32.943  10.921
20514W        W79808  26.658  24.142  13.524
20515W        W79809  39.318  36.412  13.539
20516W        W79810  28.520  17.300   4.223
20517W        W79811  14.826   5.419  13.346
20518W        W79812  25.034  40.389  12.512
20519W        W79813  25.604   3.446  13.434
20520W        W79814  36.434  24.523  14.025
20521W        W79815  27.036  13.741  14.502
20522W        W79816  35.915  25.494  14.997
20523W        W79817  17.659  33.083  13.329
20524W        W79818  25.043  18.183  14.302
20525W        W79819  34.956  41.998   1.231
20526W        W79820  29.134   7.912   3.241
20527W        W79821  39.373  25.145  13.026
20528W        W79822  32.581  43.888   2.852
20529W        W79823  20.562   2.355  14.824
20530W        W79824   1.803  32.527  13.426
20531W        W79825  11.225   2.752   3.793
20532W        W79826  39.489  17.155  10.134
20533W        W79827  19.660  43.476  10.412
20534W        W79828  43.500   7.904   2.663
20535W        W79829   9.842   2.817  14.978
20536W        W79830  13.303  13.153  12.397
20537W        W79831  37.420   4.432  11.885
20538W        W79832  26.972   2.940   1.255
20539W        W79833   8.872   2.424   3.639
20540W        W79834   5.209  36.002   1.230
20541W        W79835  10.749  20.133  12.059
20542W        W79836   2.802  43.866  12.950
20543W        W79837  19.213  15.162  14.472
20544W        W79838   3.752  28.476   0.877
20545W        W79839  13.760  44.911   0.840
20546W        W79840  41.398  28.676   1.750
20547W        W79841   2.839  33.096   1.402
20548W        W79842   2.855   1.949  10.058
20549W        W79843  23.171  37.061   1.427
20550W        W79844  30.427  14.714  10.436
20551W        W79845  39.873   9.763   2.360
20552W        W79846   0.877  31.502  12.937
20553W        W79847   2.724  12.269  10.493
20554W        W79848  21.606   7.264  13.465
20555W        W79849   6.316  44.312  10.461
20556W        W79850  29.425  17.208   2.830
20557W        W79851  13.263   4.927   5.220
20558W        W79852   9.860   6.254  13.518
20559W        W79853  41.315  14.750   1.380
20560W        W79854  24.626   1.944  10.425
20561W        W79855  28.975  35.037  12.354
20562W        W79856  42.499  29.661   0.293
20563W        W79857  27.028  30.466   3.206
20564W        W79858  24.541  33.477  12.045
20565W        W79859  43.912  44.876  14.466
20566W        W79860   1.332  37.941  12.930
20567W        W79861  27.968  36.055  13.814
20568W        W79862   5.930   5.296   3.681
20569W        W79863  19.590  29.659   5.203
20570W        W79864   7.860   9.814  14.947
20571W        W79865  16.268   9.151   9.510
20572W        W79866  39.062  35.910   2.343
20573W        W79867   0.958   9.365   1.241
20574W        W79868   9.299   8.192  13.042
20575W        W79869   4.331   3.902  14.375
20576W        W79870  26.086  26.009   3.693
20577W        W79871   3.804  23.073   2.727
20578W        W79872  40.514  14.105   4.667
20579W        W79873   3.732  40.374   1.434
20580W        W79874  21.075  17.218  11.858
20581W        W79875  23.992  40.458  14.977
20582W        W79876  29.974   1.278  13.512
20583W        W79877   4.866  19.150   2.843
20584W        W79878  18.708  19.257  13.825
20585W        W79879  39.834   1.783  10.601
20586W        W79880   1.257  20.638   4.354
20587W        W79881  34.111  19.093  12.451
20588W        W79882  19.041  15.230  11.418
20589W        W79883  38.030   2.230  12.509
20590W        W79884  36.973  28.988  12.082
20591W        W79885  30.431  30.610  11.974
20592W        W79886  17.124  15.163   2.846
20593W        W79887   7.304  27.044  10.593
20594W        W79888   0.947   3.252  11.103
20595W        W79889   4.324  40.998   4.706
20596W        W79890  33.972  25.977   2.755
20597W        W79891  23.492  35.053   4.671
20598W        W79892  22.251   5.691  11.916
20599W        W79893  15.611  22.177  14.029
20600W        W79894  38.920   9.871  10.644
20601W        W79895  43.453  26.062   3.344
20602W        W79896  28.981   4.407  10.556
20603W        W79897  42.417  44.934  13.852
20604W        W79898   5.794   0.443   0.249
20605W        W79899  44.845  15.698   2.700
20606W        W79900   9.221  22.536  11.372
20607W        W79901  18.657  10.200   3.714
20608W        W79902  43.016  23.615   1.886
20609W        W79903  41.437  15.095  12.342
20610W        W79904   5.810  40.841   3.221
20611W        W79905  33.981   1.904  10.574
20612W        W79906  39.467  28.978  14.322
20613W        W79907  37.462  25.109  10.498
20614W        W79908  41.868  35.366   1.806
20615W        W79909   9.229  35.557  13.015
20616W        W79910  30.997  44.773  10.889
20617W        W79911   6.250   8.332   2.241
20618W        W79912  12.747  17.268   1.400
20619W        W79913  23.161  30.477   2.709
20620W        W79914  21.686   1.807   4.211
20621W        W79915  11.260  10.838   0.877
20622W        W79916  41.403  25.142   3.780
20623W        W79917   9.815  18.748   0.482
20624W        W79918  28.622   9.386  13.325
20625W        W79919  12.620  40.458   4.652
20626W        W79920  11.138  22.608  14.821
20627W        W79921  28.020  13.321  11.059
20628W        W79922  24.091  40.869  13.940
20629W        W79923  36.483  35.047   3.371
20630W        W79924  42.342   5.373  12.052
20631W        W79925  11.331  25.691  14.473
20632W        W79926  42.316  44.378  11.990
20633W        W79927  20.751   2.352  13.050
20634W        W79928  27.637  27.662  14.907
20635W        W79929  37.476  33.407   4.709
20636W        W79930   5.881  16.630  11.555
20637W        W79931  29.612   3.355  11.972
20638W        W79932   3.367  16.618   2.703
20639W        W79933  22.200   0.285   0.242
20640W        W79934  33.554   7.737   3.231
20641W        W79935   3.845  14.235   3.242
20642W        W79936  36.463  43.351   2.374
20643W        W79937  30.136  41.794  14.009
20644W        W79938  16.721   4.316   0.291
20645W        W79939  27.666  32.416   2.746
20646W        W79940   0.255   6.889   0.953
20647W        W79941   4.815   1.949   0.371
20648W        W79942  41.913   8.832   4.826
20649W        W79943   7.739  26.501  11.879
20650W        W79944  16.274   6.721   2.317
20651W        W79945  21.147  22.538   1.378
20652W        W79946  13.817  10.695   1.766
20653W        W79947  29.013  11.285  14.947
20654W        W79948  41.498  17.101   3.351
20655W        W79949  33.998   9.675   3.217
20656W        W79950  39.042  15.218   2.729
20657W        W79951  12.315  30.004  10.565
20658W        W79952   3.323  27.498   2.752
20659W        W79953  12.148  19.557  13.800
20660W        W79954  36.470  17.165  12.472
20661W        W79955  10.207  23.586  11.604
20662W        W79956  44.794  14.731  10.597
20663W        W79957  13.729  38.331   3.293
20664W        W79958   6.832   1.330  12.502
20665W        W79959   8.405  37.538  12.496
20666W        W79960  14.333  15.604   4.713
20667W        W79961  25.147   6.715  14.287
20668W        W79962  26.653   7.286  14.433
20669W        W79963  10.297   9.264  12.378
20670W        W79964  28.474  23.578  14.489
20671W        W79965   7.399  37.341  14.467
20672W        W79966  11.751   4.280  14.008
20673W        W79967  31.055  33.051   2.676
20674W        W79968  19.565   4.328  14.311
20675W        W79969  11.230   8.824  13.373
20676W        W79970  38.872  21.623  11.869
20677W        W79971  42.461  31.499   4.324
20678W        W79972   1.295  35.390  13.476
20679W        W79973  22.719  25.706  10.941
20680W        W79974   1.770   1.423  14.016
20681W        W79975  21.617   7.670  12.927
20682W        W79976  33.615   9.193   0.867
20683W        W79977  41.835  41.950   1.854
20684W        W79978   2.850  32.033  10.532
20685W        W79979  18.783  33.104   1.263
20686W        W79980  23.647  25.163  12.880
20687W        W79981  28.627   9.337   3.221
20688W        W79982   2.904  12.142   4.751
20689W        W79983   3.225   3.919  14.349
20690W        W79984  12.153  40.012  14.925
20691W        W79985  30.983   3.237  11.513
20692W        W79986  19.153  32.076  14.309
20693W        W79987  10.360  41.332  12.443
20694W        W79988  21.093  32.132  14.949
20695W        W79989   7.698  12.336   3.748
20696W        W79990  17.663   1.393  12.864
20697W        W79991  33.626  30.997  13.019
20698W        W79992  36.374  10.805  10.911
20699W        W79993   2.930  13.194  10.930
20700W        W79994   7.878  24.492  12.035
20701W        W79995  31.947  20.738  14.420
20702W        W79996  32.894  44.904  14.816
20703W        W79997  16.586   9.266  13.868
20704W        W79998  26.686  35.052  10.456
20705W        W79999   1.973   9.356   1.215
20706W        W80000  36.529  44.418   0.804
20707W        W80001  19.593  23.118  14.009
20708W        W80002  35.953  25.009   2.189
20709W        W80003  13.719  34.545  11.449
20710W        W80004  38.489  19.109   3.364
20711W        W80005  19.249  20.659   1.744
20712W        W80006  23.115  10.739   2.684
20713W        W80007  42.388  27.116   3.864
20714W        W80008  37.423   0.258  12.021
20715W        W80009  31.125  21.665   1.289
20716W        W80010  19.642  21.598  14.307
20717W        W80011  11.133   8.265   3.216
20718W        W80012  16.279   5.701  10.463
20719W        W80013   5.229   0.291   3.774
20720W        W80014  36.046  32.135   3.742
20721W        W80015  16.153  44.981   2.846
20722W        W80016  38.532  13.243  10.416
20723W        W80017  17.712   6.251   3.366
20724W        W80018  38.836   4.712  12.096
20725W        W80019  13.130  19.711  12.882
20726W        W80020  24.166   4.284   3.680
20727W        W80021  26.665   7.399   2.709
20728W        W80022  39.814  14.267  11.521
20729W        W80023  22.692  14.188   3.667
20730W        W80024  26.994  30.031  11.537
20731W        W80025  17.221  30.471  13.331
20732W        W80026   9.707   7.172  13.882
20733W        W80027  31.929  26.103   2.888
20734W        W80028  26.112  20.658   4.140
20735W        W80029  43.799  35.965  11.543
20736W        W80030  12.815  41.878   0.953
20737W        W80031   8.883  43.415   1.701
20738W        W80032  10.211  19.752   2.236
20739W        W80033  28.986  28.446   0.353
20740W        W80034  36.054  23.009  14.960
20741W        W80035  41.040  35.096   3.764
20742W        W80036  35.378   5.268  13.899
20743W        W80037  31.997  29.996  14.423
20744W        W80038   6.685  44.334   0.374
20745W        W80039  15.793   9.785   0.334
20746W        W80040  30.128  40.319  14.873
20747W        W80041  39.042  20.258   3.290
20748W        W80042  24.228  14.256   5.154
20749W        W80043   1.335  18.587   2.276
20750W        W80044   9.292  24.668   1.394
20751W        W80045  16.729  25.987  12.413
20752W        W80046  12.317   8.718   3.217
20753W        W80047  42.993  10.762  10.435
20754W        W80048  44.922  32.063  13.992
20755W        W80049  36.985   2.268   0.351
20756W        W80050  37.358  40.468   3.339
20757W        W80051  32.501  43.360  12.845
20758W        W80052  25.978  30.134   0.476
20759W        W80053  37.423  22.039   3.723
20760W        W80054  42.898  40.319  10.932
20761W        W80055   3.746  34.499  11.025
20762W        W80056  22.654  18.127  11.900
20763W        W80057   0.465   3.938   0.430
20764W        W80058  18.753   7.267  13.321
20765W        W80059   4.287  26.989   2.338
20766W        W80060  10.155   0.857  11.534
20767W        W80061  19.245  10.658  12.466
20768W        W80062  41.965  25.001   4.214
20769W        W80063  41.414  28.585   3.344
20770W        W80064  26.514  11.775   4.305
20771W        W80065  24.110   7.786   1.906
20772W        W80066  43.020  18.586   4.166
20773W        W80067  14.818   8.265   3.177
20774W        W80068  11.861   7.296   5.193
20775W        W80069  34.018  15.738  11.914
20776W        W80070  26.605   2.331   5.207
20777W        W80071   2.813   8.747   3.848
20778W        W80072  38.853  38.518  13.516
20779W        W80073  34.046  12.853   1.701
20780W        W80074  28.656  35.400   2.259
20781W        W80075  41.463   0.852   0.903
20782W        W80076   2.866  44.010   0.820
20783W        W80077  14.775  18.097   0.737
20784W        W80078  41.528  40.458   5.285
20785W        W80079  40.017  13.318  13.476
20786W        W80080   1.474   2.772  10.485
20787W        W80081   8.368  24.591  10.417
20788W        W80082  25.687  18.213  13.945
20789W        W80083  19.080  38.978  14.494
20790W        W80084  26.491  27.589  13.350
20791W        W80085  42.788  32.019  12.563
20792W        W80086  40.491  44.763  14.962
20793W        W80087  12.310   3.236   3.202
20794W        W80088  31.437  13.280   2.213
20795W        W80089  35.956  29.009  12.477
20796W        W80090  28.460  43.960  13.484
20797W        W80091  34.559  35.055  11.986
20798W        W80092   0.301   6.905   1.316
20799W        W80093  42.434  23.570   2.298
20800W        W80094  23.685  20.577   0.775
20801W        W80095  13.247  35.510  11.897
20802W        W80096  18.220   2.316  12.434
20803W        W80097  32.498  16.242   4.646
20804W        W80098  33.957   7.402  14.349
20805W        W80099  27.448  37.412  11.911
20806W        W80100   0.934  10.793  12.868
20807W        W80101   3.370  37.487  12.459
20808W        W80102  37.552  15.648   2.234
20809W        W80103  27.645  24.157  14.355
20810W        W80104   9.310  26.978  11.085
20811W        W80105  32.923  19.203  10.414
20812W        W80106   7.830  28.956   0.819
20813W        W80107  24.020  31.985  10.025
20814W        W80108  41.343  43.388  10.905
20815W        W80109  37.463  28.144  10.584
20816W        W80110   7.873  43.944   2.689
20817W        W80111  42.511  11.351  12.879
20818W        W80112  23.685  10.317  12.919
20819W        W80113   9.767   0.347   9.645
20820W        W80114   3.461  42.809   5.272
20821W        W80115  12.362  26.197  13.857
20822W        W80116   6.408  18.102   2.361
20823W        W80117  37.086  16.774  10.892
20824W        W80118   2.252  30.588   4.831
20825W        W80119   1.480   4.869  10.147
20826W        W80120  30.079  28.104  11.049
20827W        W80121  31.439  33.036   0.754
20828W        W80122  11.744   4.437  11.904
20829W        W80123   9.286  25.558  11.931
20830W        W80124   3.279  22.534  11.402
20831W        W80125  27.550  37.071  14.923
20832W        W80126  24.059   3.425   1.780
20833W        W80127  39.813  39.950  10.970
20834W        W80128  39.333   9.203   4.149
20835W        W80129  25.191  10.760  14.464
20836W        W80130  13.245  27.084   0.852
20837W        W80131  13.602  20.659  10.568
20838W        W80132  44.497  10.299   3.862
20839W        W80133  13.708  15.596  13.913
20840W        W80134  14.728  34.392  12.521
20841W        W80135   4.444  40.032  14.779
20842W        W80136  40.333   3.800   0.397
20843W        W80137  42.422  19.552  10.625
20844W        W80138  14.180  35.909  13.061
20845W        W80139  24.544  21.685  12.380
20846W        W80140  32.517  22.140  12.432
20847W        W80141  23.159   2.843   2.211
20848W        W80142  22.539  28.504   3.324
20849W        W80143  30.515  41.028   4.695
20850W        W80144  17.783  29.447  13.352
20851W        W80145  35.464  21.214  13.984
20852W        W80146   9.780  27.063  13.888
20853W        W80147  40.500  23.025   0.790
20854W        W80148  15.230  39.324  12.045
20855W        W80149  21.696  15.741   4.153
20856W        W80150  38.563   3.729   2.218
20857W        W80151   0.907  25.676   4.204
20858W        W80152  17.686  24.130  11.944
20859W        W80153   3.366  15.100  13.442
20860W        W80154  29.490  25.473   4.289
20861W        W80155  37.383   0.768  13.452
20862W        W80156  34.502  16.194  11.467
20863W        W80157  31.988  31.915   1.776
20864W        W80158   8.762  30.105   2.686
20865W        W80159  27.984  41.888   5.317
20866W        W80160  21.051   7.174   0.737
20867W        W80161  34.432  38.875  11.979
20868W        W80162  26.521  39.346  13.331
20869W        W80163  38.945   5.365  10.599
20870W        W80164  24.172   5.842  10.959
20871W        W80165  34.515  13.154  11.466
20872W        W80166  35.895  38.330  13.876
20873W        W80167  21.694  33.124  13.328
20874W        W80168  12.640  41.878  10.593
20875W        W80169   5.882  43.777  12.557
20876W        W80170  35.541   1.802   4.198
20877W        W80171  18.773  41.000  12.343
20878W        W80172  28.000  44.778  13.926
20879W        W80173  22.726  43.471   0.894
20880W        W80174  32.418  15.787   1.422
20881W        W80175  34.971  22.071  13.540
20882W        W80176  20.113   2.359  14.857
20883W        W80177  18.677  25.084   3.762
20884W        W80178  26.992  31.465  12.537
20885W        W80179  40.380  19.145   2.365
20886W        W80180  33.982  32.061   2.731
20887W        W80181   4.759  27.537  11.961
20888W        W80182  18.216  32.969  12.823
20889W        W80183   6.764  32.433   9.606
20890W        W80184  13.601  19.065   3.385
20891W        W80185  25.150  33.447   4.763
20892W        W80186  26.060  37.847   0.394
20893W        W80187  11.327  11.760  12.903
20894W        W80188  27.684  35.920   1.717
20895W        W80189  36.952  36.090   5.202
20896W        W80190  14.137  14.193   4.264
20897W        W80191  10.201  21.623   1.926
20898W        W80192   3.737  18.058   4.737
20899W        W80193  32.509  21.576  10.522
20900W        W80194  39.051  34.975  10.473
20901W        W80195  34.011  23.201   1.253
20902W        W80196  25.611  38.407  12.046
20903W        W80197  37.840  31.904   1.712
20904W        W80198  18.248  17.651   2.811
20905W        W80199   6.908  10.195   2.329
20906W        W80200  31.532   8.335  13.000
20907W        W80201  35.444  30.538  14.508
20908W        W80202  38.358  25.495   0.429
20909W        W80203   5.328   0.857  12.533
20910W        W80204  43.776  17.263   0.769
20911W        W80205  26.177   0.810  12.030
20912W        W80206  39.327   1.775  14.510
20913W        W80207   6.768  34.979   0.934
20914W        W80208  16.121  38.326  12.374
20915W        W80209  30.480  16.183  14.792
20916W        W80210   3.873   7.406  12.341
20917W        W80211  36.469  30.971  14.774
20918W        W80212   0.833   0.756   3.803
20919W        W80213  10.637   0.965   1.406
20920W        W80214  40.819  43.912   3.712
20921W        W80215   9.681  28.543  13.375
20922W        W80216  18.772  27.567  14.921
20923W        W80217  43.283   8.695   1.439
20924W        W80218  15.130  11.717  13.448
20925W        W80219   1.947  29.990  11.387
20926W        W80220   6.391  34.543   2.713
20927W        W80221  11.860  39.960  11.526
20928W        W80222   2.727   5.853  13.328
20929W        W80223  11.131   2.387   3.349
20930W        W80224  36.453   6.235  12.354
20931W        W80225   5.313  32.899   2.674
20932W        W80226  37.525   3.752   1.339
20933W        W80227   6.403  19.132   3.274
20934W        W80228   0.974  39.891   2.861
20935W        W80229  10.273  29.936   2.192
20936W        W80230   7.385  32.484   3.356
20937W        W80231  26.575  23.089   3.724
20938W        W80232  19.536   8.401  11.481
20939W        W80233   1.470  15.675  13.329
20940W        W80234  35.106  15.290  10.441
20941W        W80235   4.876  20.274  12.826
20942W        W80236  28.145  36.538   1.448
20943W        W80237  43.334  15.236  13.796
20944W        W80238  35.591  20.241  14.858
20945W        W80239   4.810  27.960  14.465
20946W        W80240   4.766  38.937  12.993
20947W        W80241   9.775  16.773   1.766
20948W        W80242  42.980  24.667  12.834
20949W        W80243  43.358  33.945  12.962
20950W        W80244  22.230  37.005   1.926
20951W        W80245   5.882  12.686  11.439
20952W        W80246  41.847  27.948  10.941
20953W        W80247  42.804  28.627  10.624
20954W        W80248  41.490  31.528   4.671
20955W        W80249   0.468  22.186   2.354
20956W        W80250  29.958  12.188   0.730
20957W        W80251  13.189  33.482   2.749
20958W        W80252  37.839   9.173   0.966
20959W        W80253  28.539  43.787  13.884
20960W        W80254  35.425  42.797  12.833
20961W        W80255  38.466  29.966   1.902
20962W        W80256  12.818  18.618  11.024
20963W        W80257  10.350  34.077  11.011
20964W        W80258  30.498  42.827  12.002
20965W        W80259  41.907  39.023   1.279
20966W        W80260   0.887  13.304   0.945
20967W        W80261  43.503  38.914  10.444
20968W        W80262   3.432  21.737  13.814
20969W        W80263  39.009  11.633   4.141
20970W        W80264  14.716  41.878  12.878
20971W        W80265  19.237   3.430   0.950
20972W        W80266  12.204  10.763  14.991
20973W        W80267  11.749   3.896  14.898
20974W        W80268  14.715  24.066  11.611
20975W        W80269  22.583  13.656  13.021
20976W        W80270  20.272  13.251  11.081
20977W        W80271  11.128  39.032  12.828
20978W        W80272  18.050  14.765   0.740
20979W        W80273   1.773  15.132  14.893
20980W        W80274  42.428  16.192  14.326
20981W        W80275  12.337  41.902   0.319
20982W        W80276  33.051  34.088   1.743
20983W        W80277  22.684  20.537  13.890
20984W        W80278  12.356  15.293   0.437
20985W        W80279   5.301  42.020  11.919
20986W        W80280   9.785  21.102   3.243
20987W        W80281   6.199  41.515   5.278
20988W        W80282  12.132  22.163  13.925
20989W        W80283   1.385  10.634  10.599
20990W        W80284  41.359   5.251   2.411
20991W        W80285  25.206   7.301  14.401
20992W        W80286  27.570  31.648   3.760
20993W        W80287   5.296  43.479  14.027
20994W        W80288   2.408  35.507  10.614
20995W        W80289  14.750  22.156   1.719
20996W        W80290  24.058  18.113  12.952
20997W        W80291  20.638  10.827  12.456
20998W        W80292  32.553  15.736   3.846
20999W        W80293  16.585  31.953  13.418
21000W        W80294  19.061  16.592   4.300
21001W        W80295  40.001  36.061   4.825
21002W        W80296   6.755  30.612  11.373
21003W        W80297   0.341  35.479  13.815
21004W        W80298   1.824  38.473   0.371
21005W        W80299  13.332   1.836  12.489
21006W        W80300  31.976  43.366   4.196
21007W        W80301  24.624  12.832  14.402
21008W        W80302  33.055  31.922  13.452
21009W        W80303  15.602   8.833   1.808
21010W        W80304  39.840  44.869   3.317
21011W        W80305  16.710  28.520  14.902
21012W        W80306  32.613  18.224  12.383
21013W        W80307  22.559  21.571  14.849
21014W        W80308  11.247  35.417   0.932
21015W        W80309   3.453  13.803   3.691
21016W        W80310  43.388   1.336  14.338
21017W        W80311  41.386  33.444  10.041
21018W        W80312   9.283  16.637   2.672
21019W        W80313  27.051  12.315   2.702
21020W        W80314  40.939   2.389  12.391
21021W        W80315  21.559  43.312  10.543
21022W        W80316  29.160  22.078  14.364
21023W        W80317  42.378  27.089  10.537
21024W        W80318  27.125   9.797   0.415
21025W        W80319  22.501  22.014   4.290
21026W        W80320  41.454  28.591  12.492
21027W        W80321  40.465  13.821   3.722
21028W        W80322  35.066  31.982  10.103
21029W        W80323  17.780  31.615  11.611
21030W        W80324  43.826   8.663  12.488
21031W        W80325  11.714  11.764  13.390
21032W        W80326  22.222  14.745   2.692
21033W        W80327  39.819  23.608   2.867
21034W        W80328  21.248  14.656   0.929
21035W        W80329  22.725  43.319   3.307
21036W        W80330  19.042  20.128   2.678
21037W        W80331  41.014  27.087   1.304
21038W        W80332  18.685   0.259   4.135
21039W        W80333  41.483  30.591   2.851
21040W        W80334  19.768  35.089   0.959
21041W        W80335  34.424  41.455   2.680
21042W        W80336  40.390  19.156  14.858
21043W        W80337   5.827   6.682  10.914
21044W        W80338  18.166  19.616  14.390
21045W        W80339   0.284  15.182   0.933
21046W        W80340  13.132  35.445   3.859
21047W        W80341  41.965  16.251  12.936
21048W        W80342  29.436  33.077   0.857
21049W        W80343  37.001  19.076   4.832
21050W        W80344  40.994  17.150  10.426
21051W        W80345  41.406  23.032   4.672
21052W        W80346  38.502   3.303   2.814
21053W        W80347  39.336  44.913   3.289
21054W        W80348  15.194  44.331  11.012
21055W        W80349  14.628  37.008  10.431
21056W        W80350  31.007  27.523   1.442
21057W        W80351  38.450  42.885   3.667
21058W        W80352  19.653  29.965  12.371
21059W        W80353  30.135  32.122   0.919
21060W        W80354   6.246  41.367  13.535
21061W        W80355  15.148  41.835  10.613
21062W        W80356  16.091  17.148   2.676
21063W        W80357  37.842  13.173   3.805
21064W        W80358  12.151  40.448  14.982
21065W        W80359  43.426   9.785  12.919
21066W        W80360  33.500  20.239   4.649
21067W        W80361  34.474   3.332   2.391
21068W        W80362  22.660  17.145   2.351
21069W        W80363  38.995  43.351   2.273
21070W        W80364  18.619  29.139   3.341
21071W        W80365  24.587  27.032  12.454
21072W        W80366  10.368  40.514   9.953
21073W        W80367  21.184   6.812   3.193
21074W        W80368  27.944  16.584   3.871
21075W        W80369   4.221  13.159   0.295
21076W        W80370  40.461   4.445  12.434
21077W        W80371   0.957   5.699  14.809
21078W        W80372   2.426   1.281  11.104
21079W        W80373  13.815   3.895  14.841
21080W        W80374  42.391   0.765   1.861
21081W        W80375  39.046  33.542  11.104
21082W        W80376  28.954  10.356   0.272
21083W        W80377  41.330  35.358   9.933
21084W        W80378  22.564  41.941  13.399
21085W        W80379  15.597   1.818  12.399
21086W        W80380  24.074  33.111  13.532
21087W        W80381  26.473   1.285   4.796
21088W        W80382  42.298   1.327  14.816
21089W        W80383   8.781  41.364   3.230
21090W        W80384  25.997   9.162  12.346
21091W        W80385  37.354  11.674  12.481
21092W        W80386  24.601  20.656  14.962
21093W        W80387   1.809   7.907   1.219
21094W        W80388  11.838  33.473   0.921
21095W        W80389  38.563  43.270  12.436
21096W        W80390  27.567  40.852   0.351
21097W        W80391  12.688   8.182   0.827
21098W        W80392  21.650  28.454  11.474
21099W        W80393   8.809  35.389  10.919
21100W        W80394  24.501  43.811  14.876
21101W        W80395  17.729  38.386  12.934
21102W        W80396  18.604  20.567  13.543
21103W        W80397  41.393  32.631   1.797
21104W        W80398  38.863   6.232   3.824
21105W        W80399  40.802  12.210  14.868
21106W        W80400  40.915  21.741   4.188
21107W        W80401  44.369  25.492   3.704
21108W        W80402  42.852  30.586   3.748
21109W        W80403   6.216  42.328   1.323
21110W        W80404  19.606   7.895  12.490
21111W        W80405  15.198   9.875  13.413
21112W        W80406  40.885  17.783   0.402
21113W        W80407   7.400  14.182   1.259
21114W        W80408   5.901  39.451  13.019
21115W        W80409   1.778  36.843  13.064
21116W        W80410   8.201   3.852  13.309
21117W        W80411  14.302  18.572   3.237
21118W        W80412   9.712  13.701   4.180
21119W        W80413  29.504  28.497  12.906
21120W        W80414   4.319  29.485   2.388
21121W        W80415  30.968  33.452   4.237
21122W        W80416  32.052   8.369   4.170
21123W        W80417   9.236  44.279  11.898
21124W        W80418  33.582  20.549  11.969
21125W        W80419  42.875  30.920   2.838
21126W        W80420  17.240  24.033  13.374
21127W        W80421  37.435  16.163   3.166
21128W        W80422  40.951  31.583   4.217
21129W        W80423  39.064  40.969  12.851
21130W        W80424  30.908   6.874  12.503
21131W        W80425   3.804  37.506   2.822
21132W        W80426  18.242  35.584  13.449
21133W        W80427  39.423   8.888  13.905
21134W        W80428  14.612  14.326  11.025
21135W        W80429  29.104  17.138   1.250
21136W        W80430   7.675   4.889   4.325
21137W        W80431  35.505  25.039  10.485
21138W        W80432  37.035  20.528  13.895
21139W        W80433  44.959  20.591  12.036
21140W        W80434  24.069   2.950   0.408
21141W        W80435  27.005  38.509  12.401
21142W        W80436  43.494  28.628   4.286
21143W        W80437  22.639  20.627   0.785
21144W        W80438  17.225  43.999   1.828
21145W        W80439  21.032   1.462  13.495
21146W        W80440  44.799   9.157   0.811
21147W        W80441  23.195   6.310  10.620
21148W        W80442  30.100   0.870   4.646
21149W        W80443  17.780  27.012  11.949
21150W        W80444  34.048   3.769  14.459
21151W        W80445   3.709   9.362  14.799
21152W        W80446   8.878   5.817   3.777
21153W        W80447  38.369   1.972   3.683
21154W        W80448  22.149  17.752   1.371
21155W        W80449  17.114  37.883  14.988
21156W        W80450  19.598  21.662  12.985
21157W        W80451  24.139  30.022   0.771
21158W        W80452  16.151   2.241   0.833
21159W        W80453  43.299  10.651  12.885
21160W        W80454   1.333  35.554  14.476
21161W        W80455  29.430  41.345  10.523
21162W        W80456   2.904   0.968   2.752
21163W        W80457   3.412  25.024  10.459
21164W        W80458   3.398   6.404  10.481
21165W        W80459   9.781  16.183  13.449
21166W        W80460  31.606  18.703  14.865
21167W        W80461   1.371  18.658  13.519
21168W        W80462  38.823  10.791   3.812
21169W        W80463  16.585  21.736   2.855
21170W        W80464  15.787  17.785  11.562
21171W        W80465  40.496  37.451  11.608
21172W        W80466  39.984  38.508  11.013
21173W        W80467  28.573  28.571  12.953
21174W        W80468  27.086  12.214  12.083
21175W        W80469   1.742  40.515   4.310
21176W        W80470   2.352  18.156   3.205
21177W        W80471  42.818  23.687   4.636
21178W        W80472  19.571  27.599  13.957
21179W        W80473  21.157  12.825  10.504
21180W        W80474   1.761  42.775  11.495
21181W        W80475  41.983  31.984   3.840
21182W        W80476  17.231  17.221   4.756
21183W        W80477  41.841  44.806   1.884
21184W        W80478  12.271  44.994   0.843
21185W        W80479  14.268  23.659   0.253
21186W        W80480  41.971  11.307   0.332
21187W        W80481  20.209  24.512   3.703
21188W        W80482  33.980  36.857   1.354
21189W        W80483  32.433  39.504   0.467
21190W        W80484   2.430   5.418  12.883
21191W        W80485   6.284  25.547   3.745
21192W        W80486  44.943   8.866  12.004
21193W        W80487   2.789  21.591  13.904
21194W        W80488  18.134  22.145   4.669
21195W        W80489  23.138  31.435  12.835
21196W        W80490  21.672   5.845   0.469
21197W        W80491  38.870  19.050   3.829
21198W        W80492  10.683  42.341   3.813
21199W        W80493  21.744  23.543  14.297
21200W        W80494  43.835   7.342  14.007
21201W        W80495   5.801  40.362   2.765
21202W        W80496   5.410  16.734  14.020
21203W        W80497  28.035  16.609  10.136
21204W        W80498  30.158  20.564   3.695
21205W        W80499   0.926  13.214  10.958
21206W        W80500  31.065  21.609   2.270
21207W        W80501  15.785  11.736   5.247
21208W        W80502  26.663  24.632  12.842
21209W        W80503  23.127  19.112  13.933
21210W        W80504  12.301  12.318   1.833
21211W        W80505  28.590  15.718  14.787
21212W        W80506  29.123  40.363  11.888
21213W        W80507  15.288  41.795  10.985
21214W        W80508  31.013  37.888  11.889
21215W        W80509  21.666  23.715   3.158
21216W        W80510  28.577  29.083  11.112
21217W        W80511  17.220  17.645   0.874
21218W        W80512   7.221  17.113   1.823
21219W        W80513   6.232  32.574   3.718
21220W        W80514   4.401  43.449   4.188
21221W        W80515  28.014  27.551  10.454
21222W        W80516  11.228  29.000   1.877
21223W        W80517  27.158  31.138   2.342
21224W        W80518   5.858  24.990   5.317
21225W        W80519  12.792   0.935  10.504
21226W        W80520  33.383  29.140  11.871
21227W        W80521  30.473   4.699   1.921
21228W        W80522  25.467  37.006   1.351
21229W        W80523  23.083  39.829   1.352
21230W        W80524   0.254  32.945   3.841
21231W        W80525   1.463  27.942  13.830
21232W        W80526  38.959  44.475  12.054
21233W        W80527  25.130  42.951  11.471
21234W        W80528  18.695  30.977   4.730
21235W        W80529   9.855   1.441   9.670
21236W        W80530  13.824  14.305  12.347
21237W        W80531  29.533   5.839  11.476
21238W        W80532  32.992  20.036  12.549
21239W        W80533  26.042  35.957   0.333
21240W        W80534  17.062  32.082  12.421
21241W        W80535  29.542  43.401  12.898
21242W        W80536   1.303  32.973   2.352
21243W        W80537  25.214   6.295   2.393
21244W        W80538  22.503  32.059   2.332
21245W        W80539   5.746  16.232   2.793
21246W        W80540  20.627  19.724   2.375
21247W        W80541  34.077   9.297   1.220
21248W        W80542  23.202  26.668   2.900
21249W        W80543  44.498   8.882  14.797
21250W        W80544  29.085  36.844  12.007
21251W        W80545  14.260  39.930  13.064
21252W        W80546  35.077  34.017  11.076
21253W        W80547  40.919  18.172  11.513
21254W        W80548  35.938   5.804   0.937
21255W        W80549   9.243  12.190   2.856
21256W        W80550  43.408  11.717  11.934
21257W        W80551  18.156  13.217   1.308
21258W        W80552  29.050  22.054  11.586
21259W        W80553  31.581  36.544   2.678
21260W        W80554   6.242  42.307   4.291
21261W        W80555  37.493  21.100  13.807
21262W        W80556  12.291  34.431  10.446
21263W        W80557  20.664  41.356  11.106
21264W        W80558  13.208  38.062  12.580
21265W        W80559  24.214   3.324   2.326
21266W        W80560  29.644  41.383   2.361
21267W        W80561  19.553  16.205   1.321
21268W        W80562  16.651  31.545  11.925
21269W        W80563  20.184  13.215  11.611
21270W        W80564  36.461  40.479   2.793
21271W        W80565  28.974  34.523   0.763
21272W        W80566  27.516  43.840   1.698
21273W        W80567   9.247  29.943  11.876
21274W        W80568  15.656  10.297   5.248
21275W        W80569  14.122  22.064  12.503
21276W        W80570  19.149  12.702   4.255
21277W        W80571   1.355  11.834  11.869
21278W        W80572   5.716  10.714   2.314
21279W        W80573  23.622  35.489  12.398
21280W        W80574  34.491   5.395   4.748
21281W        W80575  31.414   3.954   4.687
21282W        W80576  10.787  22.125  11.585
21283W        W80577  31.487   4.823   0.871
21284W        W80578  31.088  32.116   2.719
21285W        W80579  32.957  19.686  14.020
21286W        W80580   8.830  26.478  13.424
21287W        W80581  19.109  32.940   3.681
21288W        W80582  18.673  12.690  10.436
21289W        W80583  21.757  42.895   3.818
21290W        W80584  32.605  27.567  11.861
21291W        W80585  37.863  24.562  11.959
21292W        W80586  24.039  44.897  12.426
21293W        W80587  21.655  18.084  10.535
21294W        W80588   8.877   7.773  13.362
21295W        W80589  24.718  13.630  14.855
21296W        W80590   7.329   9.861   3.217
21297W        W80591  16.760   8.268  13.901
21298W        W80592  43.347  15.325  11.396
21299W        W80593  18.714   3.320   5.254
21300W        W80594  25.669  30.649   9.933
21301W        W80595   1.744   0.830  11.863
21302W        W80596  41.964  29.078  12.048
21303W        W80597  38.435  35.950  13.797
21304W        W80598  35.958  21.628  10.636
21305W        W80599   5.272  25.644  12.995
21306W        W80600  26.120   8.324   9.648
21307W        W80601  31.538  23.696   1.288
21308W        W80602  16.247  40.929  10.491
21309W        W80603   4.754  20.532  11.959
21310W        W80604  20.669  37.953  13.514
21311W        W80605  15.186  42.904   1.803
21312W        W80606  40.376   5.917   2.748
21313W        W80607  11.802  37.876   1.403
21314W        W80608  39.343  30.564  12.480
21315W        W80609  12.149   6.749   2.339
21316W        W80610  19.771  12.823   1.701
21317W        W80611   6.777  16.219  10.415
21318W        W80612  37.473  34.064  11.410
21319W        W80613  42.312  25.490   4.173
21320W        W80614  14.802  12.827  12.054
21321W        W80615  12.180  31.581   5.682
21322W        W80616  18.655  14.327  13.478
21323W        W80617  10.795  40.988  12.043
21324W        W80618  38.890  34.969   2.231
21325W        W80619   0.908   3.269  13.978
21326W        W80620  28.162   4.749  12.880
21327W        W80621  37.352  39.909  14.277
21328W        W80622   8.721  43.373  12.035
21329W        W80623   9.253  19.752   2.690
21330W        W80624  16.191  28.978  13.020
21331W        W80625  33.979   6.384  11.478
21332W        W80626  11.867  33.458   3.670
21333W        W80627  13.602  27.013   2.239
21334W        W80628  35.966  37.535   1.391
21335W        W80629  10.384  33.948  13.398
21336W        W80630   7.379   9.731  10.641
21337W        W80631  25.501   3.255   1.774
21338W        W80632  18.075  11.712   3.855
21339W        W80633  31.626  27.545  11.563
21340W        W80634  39.824  25.567  10.561
21341W        W80635   7.404  28.030  13.968
21342W        W80636  38.910  13.148  10.538
21343W        W80637  26.517   8.863  14.828
21344W        W80638  38.862  15.640   0.966
21345W        W80639  42.304  27.071  12.547
21346W        W80640  39.909  14.143  10.423
21347W        W80641  19.077  41.321  12.905
21348W        W80642  27.010  30.437  11.989
21349W        W80643  10.336  25.514  10.641
21350W        W80644  31.646   9.262  10.644
21351W        W80645  29.957  14.796  14.779
21352W        W80646  39.812  21.148  11.398
21353W        W80647  24.619   1.856   0.469
21354W        W80648  14.791   5.814   4.837
21355W        W80649  13.347  15.790   2.781
21356W        W80650  37.929  32.450  12.057
21357W        W80651   3.845  35.564  14.760
21358W        W80652  32.587   3.887   2.778
21359W        W80653   6.729  29.105   2.865
21360W        W80654  42.972  30.428  11.395
21361W        W80655  11.710   9.288  12.491
21362W        W80656  34.896  23.491  11.487
21363W        W80657  31.937  10.651  10.550
21364W        W80658  14.182  21.199   3.193
21365W        W80659  17.785  15.661   3.325
21366W        W80660  40.433  10.764   2.349
21367W        W80661  21.189  20.725   2.217
21368W        W80662   6.242   5.343   9.949
21369W        W80663   8.314  27.451   1.719
21370W        W80664  24.226  30.511   0.403
21371W        W80665   4.358  23.126   3.361
21372W        W80666  25.184  14.178   0.325
21373W        W80667   9.810  27.470   0.751
21374W        W80668  39.963  33.382  11.489
21375W        W80669  31.449  40.512   0.884
21376W        W80670  29.145   5.795   3.770
21377W        W80671  32.481   7.727   1.909
21378W        W80672  18.557  21.620   2.735
21379W        W80673  28.990   0.480  14.000
21380W        W80674   0.805  38.865  10.550
21381W        W80675  14.692  27.610   0.759
21382W        W80676  23.062  22.090  13.836
21383W        W80677  22.103   4.409  11.376
21384W        W80678  39.925  34.008  14.396
21385W        W80679   9.845  11.219  11.029
21386W        W80680   9.332  43.443   2.852
21387W        W80681  20.561  26.594  14.381
21388W        W80682  23.985  30.608   4.269
21389W        W80683  41.924  14.172   4.131
21390W        W80684  36.920   7.851  10.614
21391W        W80685  43.339   5.202   3.300
21392W        W80686  33.437  40.434   2.315
21393W        W80687  16.283   0.817   1.924
21394W        W80688  44.801   7.259   4.828
21395W        W80689  42.896  26.002  12.052
21396W        W80690  19.061   0.816   1.871
21397W        W80691  38.961  13.328  13.528
21398W        W80692  18.767   2.245   3.386
21399W        W80693  33.465  37.949   0.813
21400W        W80694   3.432  17.150   2.820
21401W        W80695   0.389  15.619  12.463
21402W        W80696  18.617   4.375   2.321
21403W        W80697  24.133   5.418   1.309
21404W        W80698  28.010  44.503  11.383
21405W        W80699  36.395  13.713  13.471
21406W        W80700  25.140  22.043   0.374
21407W        W80701  36.090  21.113   2.385
21408W        W80702  30.947  37.833  13.820
21409W        W80703  15.748  34.895   2.247
21410W        W80704   6.198  41.920  12.528
21411W        W80705   4.749  11.308   4.680
21412W        W80706  40.862   6.890  10.990
21413W        W80707  39.986   8.770  10.415
21414W        W80708   6.291   1.841  10.598
21415W        W80709  42.403   9.854  14.859
21416W        W80710  33.591   7.860   9.459
21417W        W80711  33.557   5.903  11.101
21418W        W80712  26.675  36.423   1.240
21419W        W80713  20.172  25.690   0.761
21420W        W80714  25.085  33.625   4.270
21421W        W80715  22.170  19.065   1.328
21422W        W80716  31.090  37.879   3.862
21423W        W80717  32.565  10.233  10.601
21424W        W80718   1.848  18.296  11.978
21425W        W80719   0.319   1.273   3.381
21426W        W80720  13.197  38.921  12.536
21427W        W80721  29.493  36.494  14.448
21428W        W80722  17.291   9.166   3.159
21429W        W80723  15.104   1.967  14.387
21430W        W80724  22.736  14.181  12.931
21431W        W80725   1.293  27.139   1.791
21432W        W80726  39.489  24.675  11.127
21433W        W80727  17.779  27.964  10.960
21434W        W80728  42.888  10.878   0.890
21435W        W80729  29.618  20.607   3.250
21436W        W80730  41.474  27.125   3.380
21437W        W80731   9.188  17.665  14.886
21438W        W80732  32.000  10.870   2.849
21439W        W80733  18.110  31.633  11.378
21440W        W80734  29.650  13.258   4.330
21441W        W80735   8.395  37.406   4.812
21442W        W80736  20.555  43.443  10.557
21443W        W80737  40.384  39.026   5.300
21444W        W80738  15.265  14.596  13.003
21445W        W80739  35.489   9.711  12.550
21446W        W80740   5.689  26.555   2.733
21447W        W80741   5.318   8.655  12.929
21448W        W80742   6.916  33.944  13.887
21449W        W80743   4.362  27.566  12.838
21450W        W80744  18.658  27.635   0.945
21451W        W80745  33.622   6.222   4.212
21452W        W80746  22.515  32.974   0.355
21453W        W80747  19.600  13.690   2.891
21454W        W80748  34.028  21.139  14.958
21455W        W80749  26.637  27.962   0.358
21456W        W80750  26.122  37.524   3.352
21457W        W80751  30.576  44.368   0.903
21458W        W80752  29.142  32.462  10.584
21459W        W80753  39.994  15.679  14.773
21460W        W80754  26.981  31.128   0.941
21461W        W80755  26.130   6.698   0.771
21462W        W80756  43.483  32.579  11.948
21463W        W80757   6.198  29.998   1.221
21464W        W80758  22.640  36.521  10.435
21465W        W80759  39.433  27.657  13.800
21466W        W80760  13.666  41.328   4.640
21467W        W80761   0.269  26.009   2.779
21468W        W80762  10.228   5.298  14.412
21469W        W80763  38.486   1.305   4.155
21470W        W80764  11.127  31.579   0.266
21471W        W80765  22.580  39.857   2.746
21472W        W80766   4.743  36.012  11.110
21473W        W80767  17.566  43.933  10.931
21474W        W80768  34.425   0.786   4.633
21475W        W80769  40.411  30.937   1.931
21476W        W80770  14.589  30.414  11.538
21477W        W80771  11.829  19.585  12.848
21478W        W80772  19.639  34.085  14.328
21479W        W80773  20.559  42.032   3.364
21480W        W80774   8.739  10.717   4.792
21481W        W80775   8.686  41.870  14.480
21482W        W80776  22.063  42.411  10.937
21483W        W80777  12.351  36.942  10.525
21484W        W80778   3.736  24.976  10.042
21485W        W80779  32.008  40.386  11.063
21486W        W80780   4.212  39.962   1.230
21487W        W80781  20.043  17.776   0.744
21488W        W80782  25.105  44.869  10.643
21489W        W80783  14.771  41.451   1.769
21490W        W80784  10.850  12.321   1.401
21491W        W80785  31.645  33.453  12.580
21492W        W80786  44.961  11.840  14.325
21493W        W80787  44.842  39.948   1.878
21494W        W80788  17.724   8.678   1.743
21495W        W80789   3.264  19.229   2.418
21496W        W80790   8.761  30.920   2.221
21497W        W80791  21.072  42.863   1.745
21498W        W80792  31.634  27.157  14.880
21499W        W80793  42.883  15.738   0.792
21500W        W80794  17.177  14.625   3.234
21501W        W80795  24.507  35.528   0.746
21502W        W80796   6.362  23.713  13.400
21503W        W80797  31.504   1.907   3.836
21504W        W80798  29.491  28.579   4.119
21505W        W80799  27.622  10.709  14.955
21506W        W80800  15.166  33.942  12.476
21507W        W80801  16.212  34.917  12.066
21508W        W80802   0.970  16.119   1.728
21509W        W80803  44.868  16.202  14.291
21510W        W80804   0.289  44.338  12.363
21511W        W80805  38.910  20.635  14.858
21512W        W80806  35.530  12.322   3.687
21513W        W80807   5.255  12.211   3.148
21514W        W80808  24.076  20.543  11.107
21515W        W80809  30.925  18.249   5.227
21516W        W80810  30.971  40.011   2.263
21517W        W80811  18.157  31.020   4.699
21518W        W80812  10.643  17.792   2.407
21519W        W80813  35.963  31.588   1.211
21520W        W80814   8.675  43.474  10.975
21521W        W80815  19.543  43.416  12.550
21522W        W80816  26.174  17.266   2.795
21523W        W80817  28.541   7.818   4.692
21524W        W80818  39.034  33.466   1.737
21525W        W80819  38.390  18.771   0.398
21526W        W80820  17.676  24.997   1.870
21527W        W80821   5.253   3.816   1.852
21528W        W80822  41.846   7.682   3.802
21529W        W80823   7.377  28.154   3.816
21530W        W80824  28.082  17.643   2.369
21531W        W80825  15.722  27.628  10.161
21532W        W80826   6.308  26.952   0.733
21533W        W80827  22.239  26.027  13.936
21534W        W80828  31.644  30.436  12.950
21535W        W80829   2.415  13.286  14.896
21536W        W80830  28.169   6.778  11.954
21537W        W80831  22.056  42.791   1.392
21538W        W80832  22.555  11.659  14.025
21539W        W80833  18.109  37.444  14.935
21540W        W80834  40.930  29.995   3.377
21541W        W80835  27.531  22.526  14.290
21542W        W80836   5.291   3.291  13.959
21543W        W80837  41.928  15.696  12.071
21544W        W80838   0.332   1.782   2.776
21545W        W80839   4.411  18.165   3.339
21546W        W80840  12.175  32.455  14.973
21547W        W80841  30.565  20.078   1.828
21548W        W80842   2.271  22.566   0.770
21549W        W80843  23.669  19.626   3.162
21550W        W80844  39.321  34.109  10.995
21551W        W80845  37.414   1.732   4.319
21552W        W80846  19.145  37.022   3.848
21553W        W80847  32.622  14.649  14.397
21554W        W80848  13.226  17.736  10.983
21555W        W80849  40.361  44.388   5.102
21556W        W80850  27.613  24.990   2.291
21557W        W80851  13.821  41.918   1.269
21558W        W80852  13.671  32.887  11.605
21559W        W80853  32.120   1.400  14.483
21560W        W80854  27.664   8.655  12.017
21561W        W80855  40.862  12.122  11.859
21562W        W80856  40.874  26.605  12.409
21563W        W80857  36.583  16.218  11.611
21564W        W80858  22.585  14.120  12.566
21565W        W80859  30.950   0.363   0.961
21566W        W80860   1.916  11.255  11.960
21567W        W80861  22.714  36.970   1.341
21568W        W80862  30.083  33.957   4.727
21569W        W80863  29.514   2.912   3.378
21570W        W80864  12.295  14.245  11.554
21571W        W80865   9.353  34.065  13.509
21572W        W80866   4.329  33.046  14.782
21573W        W80867   3.811  13.128  10.968
21574W        W80868   4.341   3.824  14.009
21575W        W80869   5.884  30.156   0.827
21576W        W80870  25.507  39.339   3.285
21577W        W80871  26.688  25.142   0.446
21578W        W80872  21.105  30.987   3.346
21579W        W80873  36.063   4.752  10.910
21580W        W80874  43.773  14.228  10.585
21581W        W80875  25.030  15.104  12.486
21582W        W80876   1.968   3.247  14.443
21583W        W80877   9.190  35.429   5.721
21584W        W80878  13.691  30.055   4.809
21585W        W80879  43.363  42.466   2.682
21586W        W80880  32.449   7.862   0.878
21587W        W80881  22.035  26.561  12.996
21588W        W80882  35.549  28.093   3.778
21589W        W80883  14.329   8.234  14.891
21590W        W80884  14.653  36.540   2.318
21591W        W80885  34.934  42.962  12.874
21592W        W80886  40.364  44.996   3.211
21593W        W80887  31.522  22.558  14.858
21594W        W80888  20.538  23.005  12.352
21595W        W80889  13.199  42.362   4.780
21596W        W80890  16.644  44.780   4.194
21597W        W80891   0.488  28.107  12.920
21598W        W80892  43.868  26.475   0.951
21599W        W80893  11.193  18.684   3.699
21600W        W80894   0.864  20.682   4.175
21601W        W80895  11.303  30.088   0.247
21602W        W80896  15.667  10.209  13.900
21603W        W80897  27.627  36.058   5.322
21604W        W80898  19.702  43.335  11.010
21605W        W80899  42.932  44.823  10.099
21606W        W80900  41.515   4.859   0.287
21607W        W80901  13.783  38.866   2.689
21608W        W80902  13.209   8.284   1.894
21609W        W80903  10.172  27.631  13.800
21610W        W80904  41.916  21.263   3.266
21611W        W80905  37.916   1.918  12.481
21612W        W80906  30.955  26.027  11.383
21613W        W80907  12.282   5.916   1.240
21614W        W80908   6.778   1.908   5.127
21615W        W80909  14.748  14.293   1.331
21616W        W80910  12.280  44.923   4.742
21617W        W80911  16.151  15.744  12.346
21618W        W80912  13.121  32.470  11.382
21619W        W80913  21.101  25.492   4.833
21620W        W80914  17.299   8.718  13.028
21621W        W80915  29.457   6.919   0.436
21622W        W80916   9.678  11.215   0.338
21623W        W80917  22.567   1.423   3.197
21624W        W80918   3.844  12.724  11.071
21625W        W80919  38.896  38.865  12.037
21626W        W80920  28.563  10.772  11.063
21627W        W80921  39.524  36.045  13.468
21628W        W80922   3.743   4.914  13.454
21629W        W80923  14.602  29.586   1.292
21630W        W80924  15.593  34.399  14.372
21631W        W80925  14.291  26.027   4.204
21632W        W80926  31.966   2.384  13.511
21633W        W80927  28.520   1.363   0.771
21634W        W80928  29.000   3.774  13.975
21635W        W80929  37.898  41.897   1.897
21636W        W80930  31.542   7.813   4.677
21637W        W80931  14.595  21.129  12.970
21638W        W80932   3.917  16.677   3.709
21639W        W80933   9.224  35.597   2.347
21640W        W80934   8.356   1.413  11.992
21641W        W80935  21.039  42.009   1.741
21642W        W80936  30.952   1.435  11.586
21643W        W80937  44.295  39.346  11.051
21644W        W80938  31.587   1.803   1.908
21645W        W80939  21.057  12.210  11.888
21646W        W80940  28.638  44.289   3.349
21647W        W80941  40.316   7.357  10.093
21648W        W80942  40.450  29.612  13.488
21649W        W80943   4.740   5.340   0.797
21650W        W80944  14.663  23.673   4.221
21651W        W80945  33.514  12.849  11.125
21652W        W80946   8.839  40.341  10.571
21653W        W80947  36.383  18.641  13.888
21654W        W80948  29.475  24.618  11.110
21655W        W80949  14.709  22.184   2.326
21656W        W80950  21.647  34.604   4.662
21657W        W80951  34.083  39.018   3.689
21658W        W80952  27.687   4.716   1.224
21659W        W80953  34.011  38.525  14.305
21660W        W80954   6.321  32.009   5.249
21661W        W80955  44.869  16.106  11.094
21662W        W80956  18.296  34.879  14.343
21663W        W80957  41.475  16.151  12.401
21664W        W80958   4.333   2.349   0.771
21665W        W80959   1.784  12.290  13.418
21666W        W80960  42.826  35.399  11.462
21667W        W80961  21.136   9.332  13.923
21668W        W80962  29.451  24.987   1.405
21669W        W80963   6.828  18.215   2.893
21670W        W80964  28.980  35.950   1.430
21671W        W80965   1.880  12.333   4.601
21672W        W80966  13.243   4.732   2.362
21673W        W80967   4.928  18.138   2.740
21674W        W80968  25.572  39.344  14.367
21675W        W80969   0.439  13.622  14.871
21676W        W80970  43.948  21.526  11.587
21677W        W80971  38.904   4.408  14.942
21678W        W80972  15.260   2.740   2.197
21679W        W80973  16.744   3.930  11.010
21680W        W80974  10.385  37.994  11.554
21681W        W80975  34.884  15.718  12.055
21682W        W80976  13.157  16.163   3.226
21683W        W80977  25.217  17.719  11.027
21684W        W80978   2.357  18.717   4.295
21685W        W80979   5.709   7.302  14.863
21686W        W80980  22.220  14.228   2.816
21687W        W80981  12.219  27.467  13.460
21688W        W80982   9.827   2.950  11.974
21689W        W80983  42.970  34.963   3.358
21690W        W80984  12.217  15.775   1.709
21691W        W80985  14.264  41.811  13.988
21692W        W80986  23.669  42.818   4.296
21693W        W80987  41.524  19.221   0.849
21694W        W80988  20.274  38.499  13.431
21695W        W80989  11.318  25.106  11.059
21696W        W80990  41.447  13.841  13.316
21697W        W80991  24.609  33.961   1.309
21698W        W80992  34.587  11.367  14.884
21699W        W80993  31.499  43.294   3.851
21700W        W80994   1.302  32.010   4.741
21701W        W80995  40.968   1.440  12.884
21702W        W80996   8.272  39.985  12.074
21703W        W80997  38.531   8.814   2.895
21704W        W80998  12.320   4.217   2.282
21705W        W80999  42.506  37.506  11.381
21706W        W81000  11.249  24.116  14.924
21707W        W81001  26.536   9.824   2.213
21708W        W81002  14.113  36.490  13.424
21709W        W81003  14.326  25.093  11.926
21710W        W81004   5.217   5.309  10.620
21711W        W81005   6.704  26.142   4.832
21712W        W81006  20.615  25.102   0.285
21713W        W81007  36.923  11.127  13.064
21714W        W81008  38.851  34.080  13.485
21715W        W81009  18.764  25.065   1.800
21716W        W81010   8.823  21.237   1.337
21717W        W81011  39.979  14.193  13.373
21718W        W81012  26.687  39.318  14.886
21719W        W81013  12.171   2.806   0.257
21720W        W81014  27.448  19.666   2.781
21721W        W81015  12.346  13.646  12.546
21722W        W81016  11.728  22.541   3.766
21723W        W81017  11.177  23.179   1.344
21724W        W81018   8.868  41.371  14.950
21725W        W81019   0.767  25.049  13.530
21726W        W81020  19.652  24.108   4.178
21727W        W81021  42.898  40.441   5.095
21728W        W81022  15.277  28.499   3.745
21729W        W81023   7.273  24.201  10.505
21730W        W81024  15.670  11.787  14.956
21731W        W81025  21.652  23.559   3.682
21732W        W81026  43.902  29.463   2.275
21733W        W81027  34.078  25.511   2.255
21734W        W81028  17.245   4.764   5.206
21735W        W81029  42.306   7.687  12.015
21736W        W81030  26.458  15.739   1.276
21737W        W81031  19.116  21.601  11.978
21738W        W81032  41.419  31.949   1.349
21739W        W81033  21.688  11.744   0.737
21740W        W81034  33.977   9.650  11.017
21741W        W81035  24.021   0.849   4.712
21742W        W81036   1.755  31.116   4.690
21743W        W81037  26.676  36.551  10.404
21744W        W81038  29.126  27.630  13.427
21745W        W81039  34.999   4.333   2.737
21746W        W81040  25.998  17.255   0.771
21747W        W81041  41.907   8.261  10.891
21748W        W81042   2.434  21.756   0.931
21749W        W81043  42.433  32.532  11.387
21750W        W81044  40.809  26.175  12.033
21751W        W81045  12.611  11.688  13.878
21752W        W81046  41.999  38.515   3.268
21753W        W81047  20.589  29.517   4.721
21754W        W81048   7.741   0.892   2.266
21755W        W81049   2.931  38.005   1.921
21756W        W81050  25.972  37.058  13.023
21757W        W81051  39.457   8.317  13.497
21758W        W81052  28.172  25.551   5.187
21759W        W81053  17.795  33.621  11.489
21760W        W81054   3.822  39.876   3.147
21761W        W81055  31.154  29.026   3.157
21762W        W81056   0.792   4.883  12.988
21763W        W81057  22.625  16.805  11.512
21764W        W81058  37.071  38.011   5.177
21765W        W81059   5.749  31.930   5.131
21766W        W81060  35.411  43.823   2.668
21767W        W81061  38.335  42.441   3.375
21768W        W81062   2.819  20.585   9.603
21769W        W81063  38.403  27.666   2.773
21770W        W81064  33.104  26.490   4.225
21771W        W81065  14.191  37.531  14.394
21772W        W81066  36.915  31.988   1.816
21773W        W81067  38.407  31.995   2.375
21774W        W81068  20.264  36.510  13.497
21775W        W81069  44.903  36.048   0.445
21776W        W81070   6.263  12.703   5.089
21777W        W81071  24.038   6.714   3.329
21778W        W81072  33.880  39.951   2.405
21779W        W81073  36.864  42.506  13.828
21780W        W81074  44.779  26.076   2.341
21781W        W81075   9.762  10.675   2.840
21782W        W81076  32.980  27.549  11.402
21783W        W81077  28.936  35.884   5.248
21784W        W81078  30.506  17.622  13.833
21785W        W81079  17.595  44.768   1.320
21786W        W81080  26.958   4.410   0.830
21787W        W81081  14.217  39.015  12.476
21788W        W81082  10.372  33.978  14.449
21789W        W81083  14.212  27.130  12.428
21790W        W81084   3.773  40.333   1.851
21791W        W81085   8.813  29.477  10.146
21792W        W81086  38.915   9.728  11.004
21793W        W81087   1.363  17.160  13.430
21794W        W81088  21.579   9.154   1.851
21795W        W81089  19.096  11.158  14.985
21796W        W81090  30.007  17.296  11.423
21797W        W81091  30.598  13.241  13.979
21798W        W81092  34.560  18.179  13.547
21799W        W81093  37.392  13.809   2.263
21800W        W81094  36.041  24.527   3.848
21801W        W81095  29.597  11.163  11.999
21802W        W81096   3.432  37.982  14.422
21803W        W81097  27.651  20.153   1.864
21804W        W81098  20.527  30.635  12.908
21805W        W81099  12.230   9.341   2.419
21806W        W81100  39.428  29.980   2.797
21807W        W81101  25.116   1.413   3.805
21808W        W81102  37.988   4.706  11.458
21809W        W81103  32.078  38.401  14.861
21810W        W81104  43.861   6.834  12.879
21811W        W81105   3.741   0.253  13.316
21812W        W81106   5.736  37.983   3.376
21813W        W81107  39.963  20.727   3.224
21814W        W81108   1.802  38.502  13.360
21815W        W81109  42.359  37.373   0.727
21816W        W81110  44.308  10.297  11.883
21817W        W81111  42.872   6.201  11.991
21818W        W81112   6.414  34.893  14.426
21819W        W81113  41.361  30.416   4.691
21820W        W81114  37.066  21.034   3.760
21821W        W81115  44.504  21.257   3.722
21822W        W81116  33.961  39.459  12.022
21823W        W81117  37.056  27.084  14.792
21824W        W81118  20.223   0.836   5.157
21825W        W81119  15.611  41.901   0.464
21826W        W81120   1.374  43.933  10.892
21827W        W81121  15.694  37.923   3.365
21828W        W81122  19.775  36.560  11.581
21829W        W81123  14.229   7.787  13.367
21830W        W81124  34.487   5.739  11.544
21831W        W81125  15.294   5.907   0.276
21832W        W81126  31.414  34.970  11.588
21833W        W81127  12.158  19.144  14.010
21834W        W81128  24.548  28.009  11.588
21835W        W81129  28.595  22.168  11.469
21836W        W81130  11.769  22.740  10.582
21837W        W81131  24.221  42.417   1.785
21838W        W81132  24.564  26.969   0.768
21839W        W81133  43.877  10.238   1.898
21840W        W81134  14.336  17.214   3.678
21841W        W81135  32.964  21.167  10.427
21842W        W81136  16.767  18.720  11.480
21843W        W81137  35.468  38.487  13.853
21844W        W81138  28.483  17.123  10.929
21845W        W81139  18.653  23.150   0.411
21846W        W81140  44.324  10.182  12.523
21847W        W81141  10.291   6.221   0.928
21848W        W81142   0.852  30.423   3.708
21849W        W81143  40.350  13.743  11.903
21850W        W81144  34.511  22.193   3.344
21851W        W81145  30.077   4.799   2.394
21852W        W81146  20.616  43.431  12.358
21853W        W81147  25.626  14.589   1.365
21854W        W81148  10.297   3.837  14.488
21855W        W81149  21.702  27.194   0.249
21856W        W81150  35.071  37.536  13.331
21857W        W81151  27.631  10.145   0.417
21858W        W81152  26.012  34.442   3.707
21859W        W81153   8.821  28.976   1.420
21860W        W81154   1.801  41.015  11.053
21861W        W81155  36.068   3.883  11.889
21862W        W81156  21.177  17.701  10.900
21863W        W81157   5.765   6.283  11.029
21864W        W81158  27.105  32.912  14.345
21865W        W81159   1.971  36.502  12.848
21866W        W81160  40.450  40.335  14.410
21867W        W81161  38.971   2.735   3.746
21868W        W81162  44.467  11.151   0.369
21869W        W81163  30.496   3.304  12.532
21870W        W81164  20.064   0.856  14.989
21871W        W81165  34.047  12.229  14.476
21872W        W81166   3.800  30.476  11.916
21873W        W81167  10.743  32.079  13.991
21874W        W81168  42.438  23.068   0.819
21875W        W81169  16.260  12.738   1.703
21876W        W81170   7.833  26.699   3.384
21877W        W81171  27.657   1.842  14.857
21878W        W81172   1.799  26.052   3.782
21879W        W81173  33.608  11.333  14.373
21880W        W81174  30.483   2.417  13.471
21881W        W81175   7.354  35.956   3.360
21882W        W81176  21.730   6.418   3.367
21883W        W81177   3.818  15.795   4.123
21884W        W81178  23.717  17.692   2.355
21885W        W81179  23.699   6.857   0.335
21886W        W81180   8.299   9.162  14.831
21887W        W81181  14.159  42.979   4.272
21888W        W81182  44.447  29.669  12.865
21889W        W81183  30.925   6.920  11.982
21890W        W81184  32.423   2.787   3.241
21891W        W81185   2.318  23.134  13.867
21892W        W81186  14.290   8.899  10.470
21893W        W81187  10.653   5.232   3.742
21894W        W81188  44.989  37.471  12.058
21895W        W81189  24.701  16.640  14.885
21896W        W81190  43.909  39.315  10.411
21897W        W81191   6.920  25.973   1.813
21898W        W81192   1.884  17.213   3.246
21899W        W81193  19.562  42.348   4.779
21900W        W81194   0.404  31.928  13.337
21901W        W81195  26.501   6.315  11.462
21902W        W81196   0.453   3.419   2.761
21903W        W81197  32.106  11.268  14.772
21904W        W81198  36.587  18.595   1.421
21905W        W81199  22.196  12.846  13.990
21906W        W81200   6.225  24.614   3.755
21907W        W81201  31.034   1.420  12.844
21908W        W81202   5.912  27.622  14.330
21909W        W81203   2.266  19.062   1.211
21910W        W81204  30.997   9.321  13.409
21911W        W81205  23.735   8.341  14.829
21912W        W81206  16.159  28.949   3.303
21913W        W81207   3.276   5.932  10.891
21914W        W81208  43.993  36.031   2.197
21915W        W81209  42.813  27.550  14.506
21916W        W81210  22.062   9.690   3.259
21917W        W81211  13.294  44.922  14.514
21918W        W81212  41.034  28.528  12.563
21919W        W81213  27.959  35.376   3.731
21920W        W81214  27.598   3.768  14.987
21921W        W81215  29.502   0.885   4.614
21922W        W81216   4.753  40.977   2.399
21923W        W81217  28.152  10.276  13.484
21924W        W81218   9.271   6.182  13.927
21925W        W81219  43.469  34.569  13.806
21926W        W81220  44.792   6.770  12.037
21927W        W81221   3.384  21.034  10.453
21928W        W81222  41.390  11.155   0.914
21929W        W81223  34.612   1.449  14.021
21930W        W81224  31.582  32.969  13.857
21931W        W81225  36.506  43.349  13.936
21932W        W81226  28.548  44.328  14.292
21933W        W81227  17.184  19.227  10.600
21934W        W81228  17.657  25.534  11.424
21935W        W81229  38.341  16.595  11.398
21936W        W81230  26.553  42.496  11.442
21937W        W81231  30.142  11.791   1.718
21938W        W81232  43.312  31.470  14.311
21939W        W81233   7.684  22.546   3.334
21940W        W81234  24.685   5.335  10.144
21941W        W81235  41.427  30.057  11.528
21942W        W81236  19.230  39.454   1.858
21943W        W81237  35.592  11.759   1.865
21944W        W81238  44.267  13.306  13.862
21945W        W81239  24.228  36.517   4.713
21946W        W81240  39.508  30.091  12.574
21947W        W81241  11.729  31.414  11.932
21948W        W81242  31.122  31.556  11.460
21949W        W81243  40.503  29.927  10.580
21950W        W81244  28.534   3.393  14.372
21951W        W81245  23.564  38.023  14.409
21952W        W81246  20.240  15.171  14.328
21953W        W81247  11.629  30.041  10.501
21954W        W81248   4.882  14.665   4.749
21955W        W81249  20.545  17.248  11.898
21956W        W81250  38.501   4.247  13.006
21957W        W81251  36.406  42.780  12.571
21958W        W81252  39.835  18.056  14.027
21959W        W81253   8.779  41.351   4.764
21960W        W81254  13.303  11.236   3.380
21961W        W81255  32.119  11.650   5.156
21962W        W81256  20.692   1.446  12.841
21963W        W81257  34.574  17.680  13.317
21964W        W81258   4.737  26.463   3.343
21965W        W81259  35.404  39.839   0.313
21966W        W81260  17.566  10.741  13.992
21967W        W81261  35.919  10.355  12.943
21968W        W81262  26.650  33.552  14.388
21969W        W81263   7.269  14.743   1.845
21970W        W81264  40.526   4.248   3.764
21971W        W81265  25.074   5.694   1.284
21972W        W81266   6.890   1.867  14.378
21973W        W81267  36.564  22.180   4.624
21974W        W81268  12.162   1.405   3.850
21975W        W81269   7.414  14.815  13.424
21976W        W81270  43.826   1.378  11.054
21977W        W81271  29.468  33.476  14.007
21978W        W81272  35.015  42.479   3.311
21979W        W81273  11.224  42.929  13.966
21980W        W81274  30.081  15.153  11.431
21981W        W81275  44.431  44.798   1.431
21982W        W81276  25.583  10.806  12.994
21983W        W81277   5.890  27.564   1.914
21984W        W81278  36.503  17.795  11.933
21985W        W81279  42.825   3.875  13.389
21986W        W81280   2.748  19.661  13.363
21987W        W81281   4.699  28.004   0.320
21988W        W81282  33.410  16.798  12.869
21989W        W81283  14.823   1.766  13.406
21990W        W81284  11.787  31.047   1.785
21991W        W81285  21.087  33.502   2.799
21992W        W81286  18.691   1.838   3.728
21993W        W81287  28.030   7.701  13.920
21994W        W81288  15.134  14.125   2.730
21995W        W81289  13.268  23.561   1.902
21996W        W81290   8.290  43.325   9.958
21997W        W81291  34.901  18.146  14.932
21998W        W81292  15.757  19.709  14.925
21999W        W81293  28.663  30.467  12.998
22000W        W81294  27.962  29.539   3.730
22001W        W81295  37.065  36.508  10.913
22002W        W81296  19.635  22.007   2.790
22003W        W81297  23.071   3.765  14.833
22004W        W81298  39.320  44.941  10.469
22005W        W81299   8.867  42.429  11.949
22006W        W81300  30.108  27.096  11.068
22007W        W81301   8.206  18.788  11.461
22008W        W81302   4.704  27.144  11.539
22009W        W81303  36.993  28.590   4.819
22010W        W81304   3.717  12.752   3.267
22011W        W81305  15.749  29.590  10.514
22012W        W81306   7.391   5.355  13.060
22013W        W81307  34.004  22.674  11.414
22014W        W81308  18.686  33.927   2.732
22015W        W81309  21.045  24.692  11.934
22016W        W81310  37.952  12.634   1.449
22017W        W81311   0.775  39.862  11.511
22018W        W81312  17.592  15.084   4.247
22019W        W81313  31.568  12.281  10.920
22020W        W81314  19.611   1.865  12.460
22021W        W81315  17.228  29.011   5.131
22022W        W81316  11.664   5.294   0.834
22023W        W81317  35.967   3.729   0.282
22024W        W81318  32.041  39.525  13.526
22025W        W81319  13.660  39.830  12.526
22026W        W81320  23.613  17.790   2.749
22027W        W81321  11.257  24.017   4.150
22028W        W81322  14.132  33.538   1.855
22029W        W81323  21.533   0.337  11.433
22030W        W81324  30.423   3.434   2.739
22031W        W81325  30.002  25.583  11.009
22032W        W81326  32.556  26.088  13.831
22033W        W81327  24.210  37.936  10.426
22034W        W81328   0.930  26.560  12.911
22035W        W81329  15.153  44.922  13.339
22036W        W81330  38.392  24.220  14.431
22037W        W81331  20.526  25.158   3.776
22038W        W81332  12.735  38.445   3.686
22039W        W81333  40.830  10.226  14.891
22040W        W81334   7.788  15.736   0.341
22041W        W81335  25.663  39.488   5.643
22042W        W81336  28.035  14.251   4.831
22043W        W81337  21.698   9.322   3.699
22044W        W81338   2.275  41.978   3.341
22045W        W81339  18.290  42.030   2.306
22046W        W81340  14.692   4.797   4.598
22047W        W81341  39.987  43.402  12.562
22048W        W81342   5.845  18.247  12.391
22049W        W81343  28.962  16.247   2.378
22050W        W81344  36.563   0.954   1.250
22051W        W81345  16.570  43.948  10.959
22052W        W81346  34.114  33.479  11.530
22053W        W81347  31.610   6.281   3.752
22054W        W81348  13.272  28.087  11.449
22055W        W81349   2.448  11.279   3.661
22056W        W81350  18.142  43.857   0.805
22057W        W81351   9.760  26.524   5.225
22058W        W81352   5.295  38.060   4.220
22059W        W81353  17.252  32.448  14.988
22060W        W81354  16.075  43.361  13.907
22061W        W81355  18.161  18.162  14.861
22062W        W81356  37.873   6.860   1.880
22063W        W81357  33.967  43.460   0.820
22064W        W81358  11.666  25.664   0.276
22065W        W81359  12.163  35.934  11.436
22066W        W81360  43.428  39.492  10.926
22067W        W81361  26.146  41.534  14.285
22068W        W81362  28.067  13.831  11.896
22069W        W81363  16.147   4.911   0.903
22070W        W81364   4.235   2.728   2.414
22071W        W81365  17.587  25.514   4.147
22072W        W81366   8.288  19.719   4.262
22073W        W81367  22.714  32.100   4.133
22074W        W81368  44.924  29.509  12.863
22075W        W81369  44.777  37.048  10.476
22076W        W81370  12.247  31.126   3.819
22077W        W81371   9.676  11.237   3.866
22078W        W81372   9.721  12.686   2.273
22079W        W81373  33.001  33.941   4.277
22080W        W81374  36.082  30.946   1.332
22081W        W81375   7.405  24.159  12.899
22082W        W81376  32.518   7.805   3.729
22083W        W81377  19.145   7.238   1.392
22084W        W81378  30.962   1.890  11.080
22085W        W81379  21.121   0.907  14.287
22086W        W81380  33.893  38.064   2.878
22087W        W81381  19.165  16.092  12.937
22088W        W81382  33.937  37.567   1.851
22089W        W81383  30.462   0.885   2.670
22090W        W81384   6.299  42.802   0.312
22091W        W81385  34.912  29.594  10.518
22092W        W81386  33.083  21.248   3.775
22093W        W81387   5.893  33.563  13.363
22094W        W81388   1.934  39.955   0.353
22095W        W81389   5.368  15.139  13.380
22096W        W81390  39.357  32.076   3.701
22097W        W81391  35.549  24.534   3.871
22098W        W81392  38.516  10.336  12.088
22099W        W81393  26.140  41.971  13.992
22100W        W81394  13.151  37.903  13.452
22101W        W81395  34.546   7.234   0.797
22102W        W81396   0.462  26.028   4.743
22103W        W81397  13.785  15.780   3.737
22104W        W81398  33.930  13.608  13.533
22105W        W81399  36.501   5.847   1.712
22106W        W81400  34.569  26.485   1.872
22107W        W81401  19.707  28.175   5.180
22108W        W81402  27.577  17.701   1.319
22109W        W81403  30.982  24.607  11.401
22110W        W81404  40.496  23.652   1.897
22111W        W81405  34.005   7.264  13.322
22112W        W81406   1.882  11.329   4.183
22113W        W81407   7.673  10.730   4.674
22114W        W81408  25.147   7.688  14.025
22115W        W81409  18.721  26.515  11.028
22116W        W81410  29.659  23.228   1.412
22117W        W81411  21.632  31.150  10.942
22118W        W81412  13.779  39.043  14.867
22119W        W81413  34.985  11.850   0.862
22120W        W81414  21.206   8.384  12.014
22121W        W81415  39.903  12.857   0.432
22122W        W81416   2.274  32.586  13.439
22123W        W81417   6.737   5.918   4.341
22124W        W81418  11.210  23.131  10.971
22125W        W81419  17.158  41.303   2.733
22126W        W81420  44.301  33.002   3.791
22127W        W81421  12.351  10.337  13.881
22128W        W81422  13.610  22.570   4.615
22129W        W81423  19.573  38.350   2.182
22130W        W81424  36.042  22.120  10.605
22131W        W81425  27.508   4.322   4.347
22132W        W81426  26.571   2.431  14.822
22133W        W81427  14.649  11.740   2.277
22134W        W81428  42.432  30.605   1.391
22135W        W81429  27.647   7.398   0.448
22136W        W81430  27.559  27.069   4.764
22137W        W81431  19.545  39.491   2.697
22138W        W81432  21.512   3.298   1.749
22139W        W81433  40.463   2.872   5.109
22140W        W81434  33.092  21.109  12.839
22141W        W81435   7.403  13.152  12.421
22142W        W81436  43.974   1.438  12.492
22143W        W81437  28.567  25.064  13.920
22144W        W81438  30.063  38.486  13.826
22145W        W81439  12.632  32.886  12.943
22146W        W81440  43.774   0.902   4.684
22147W        W81441  40.858   7.787  12.483
22148W        W81442  11.646  28.539   4.772
22149W        W81443  37.027  44.440  11.037
22150W        W81444  39.954  40.949   4.236
22151W        W81445  17.111  36.400   3.370
22152W        W81446  41.867  18.544  14.762
22153W        W81447  35.028  29.938  11.012
22154W        W81448  41.427  16.801  10.957
22155W        W81449   8.362   5.821  14.015
22156W        W81450  17.128  40.979  14.020
22157W        W81451  30.031  21.720   2.669
22158W        W81452  42.511  41.031   4.281
22159W        W81453  16.783  26.134   4.322
22160W        W81454   0.426  13.273  13.403
22161W        W81455  16.148  39.898  10.605
22162W        W81456  11.846  19.689   2.198
22163W        W81457  44.798  35.497   0.948
22164W        W81458  41.888  32.054   3.147
22165W        W81459  12.667  22.630  13.861
22166W        W81460   7.193  17.715   3.811
22167W        W81461  24.973  30.054  12.461
22168W        W81462  25.023   0.989   2.267
22169W        W81463  14.594  42.424   0.797
22170W        W81464  13.840  41.444   0.374
22171W        W81465   6.317  20.155   2.743
22172W        W81466  29.981   4.760   4.705
22173W        W81467  18.281   2.367  13.976
22174W        W81468   5.932   4.776  11.978
22175W        W81469  16.690   2.466   0.420
22176W        W81470  25.643  13.656   1.329
22177W        W81471  36.510  21.053  13.436
22178W        W81472   4.828  35.396  13.845
22179W        W81473  39.055  29.591   4.169
22180W        W81474   4.321  37.470  11.934
22181W        W81475  32.978  35.470  12.988
22182W        W81476  12.787  13.804   0.917
22183W        W81477  42.296  35.074   4.837
22184W        W81478  39.017  43.387  11.588
22185W        W81479  38.958  23.212  14.893
22186W        W81480   0.456  20.750  13.545
22187W        W81481  25.658  23.519   3.334
22188W        W81482  25.057  12.330  11.977
22189W        W81483  39.527  28.109  12.387
22190W        W81484  34.868  17.701   1.811
22191W        W81485  15.279  30.083  13.470
22192W        W81486  30.038   6.698   0.915
22193W        W81487  26.458  43.795  13.531
22194W        W81488  20.029   9.884  13.529
22195W        W81489  23.515  20.089  12.980
22196W        W81490  26.554  44.486  11.903
22197W        W81491   2.420  42.939   0.765
22198W        W81492   8.214  10.709  12.867
22199W        W81493  10.157  43.374  14.313
22200W        W81494   1.396  41.387   3.374
22201W        W81495  15.749  28.179  11.015
22202W        W81496  19.698  32.575   4.822
22203W        W81497  24.093  27.529   1.835
22204W        W81498  23.222  15.135  14.340
22205W        W81499  36.493  33.902  11.612
22206W        W81500  23.643   7.794  12.486
22207W        W81501  35.565  32.574  14.972
22208W        W81502  32.141  40.322   1.776
22209W        W81503  19.576  13.610   0.819
22210W        W81504  24.013  19.694  14.318
22211W        W81505   5.391   0.439  10.987
22212W        W81506  25.506  28.073   2.299
22213W        W81507   8.231  24.629  11.433
22214W        W81508   6.821  40.975   3.221
22215W        W81509  30.999   5.354  13.852
22216W        W81510  19.131  25.072   2.274
22217W        W81511  42.847  26.157  12.563
22218W        W81512  16.187  35.426  13.017
22219W        W81513  23.588   4.380   2.295
22220W        W81514   5.872  19.759   5.294
22221W        W81515  39.438  31.044  10.898
22222W        W81516  15.258  28.134   3.296
22223W        W81517  29.505   2.800   1.233
22224W        W81518  38.885  42.956  10.040
22225W        W81519  37.896  31.916   1.343
22226W        W81520  29.527  16.293  11.607
22227W        W81521   2.958  25.598   0.264
22228W        W81522  39.408   9.884   5.284
22229W        W81523  30.487  15.162   4.121
22230W        W81524  20.737   3.455   0.900
22231W        W81525   5.314  13.129   0.423
22232W        W81526  14.644  36.500   2.844
22233W        W81527  18.665  33.518  12.013
22234W        W81528  15.703   8.234   0.854
22235W        W81529   3.352  40.350  12.534
22236W        W81530  42.012  40.868   4.252
22237W        W81531  15.598  32.035   1.719
22238W        W81532   1.901  31.019   4.267
22239W        W81533  42.394   4.416   2.292
22240W        W81534  26.079  17.773   3.380
22241W        W81535  10.716  14.822   1.833
22242W        W81536  32.928  32.045   0.864
22243W        W81537  23.077  30.627  13.034
22244W        W81538   2.428   3.366   9.453
22245W        W81539  26.069  21.051   2.352
22246W        W81540   3.381   8.775   1.220
22247W        W81541  23.531  27.949   2.228
22248W        W81542  22.123  28.959  11.556
22249W        W81543  44.349   4.816  12.489
22250W        W81544  44.875  38.358   2.298
22251W        W81545  31.083  17.221  14.988
22252W        W81546  10.838  40.397  14.363
22253W        W81547  31.477  17.700   4.122
22254W        W81548  14.713  36.901  14.374
22255W        W81549   5.791  13.311   4.285
22256W        W81550  29.164  12.355   1.866
22257W        W81551   2.258  12.164   2.389
22258W        W81552  11.243   0.276   4.713
22259W        W81553   6.193  33.096   3.640
22260W        W81554  12.238  41.500  14.324
22261W        W81555   2.377  44.262  13.944
22262W        W81556   7.685  23.735  10.921
22263W        W81557  15.172  40.404  13.793
22264W        W81558  35.462   5.691   2.202
22265W        W81559  11.682  19.547  10.517
22266W        W81560  14.282  43.004  11.380
22267W        W81561  37.464  28.445  12.354
22268W        W81562  22.034   1.439  11.933
22269W        W81563  26.558   8.826  11.398
22270W        W81564  17.128  44.767  13.819
22271W        W81565   5.840  27.545  11.983
22272W        W81566  42.436  32.985   3.222
22273W        W81567   7.728  36.913   1.734
22274W        W81568  34.083  27.466   4.779
22275W        W81569  41.461   8.863   0.872
22276W        W81570  14.752  27.469   1.351
22277W        W81571   4.224  27.033  11.496
22278W        W81572  11.735   7.797   3.785
22279W        W81573   2.337  25.018  14.841
22280W        W81574  12.771  13.198   2.229
22281W        W81575   8.201  24.112  12.417
22282W        W81576  17.101  22.656  14.370
22283W        W81577  14.748  25.113   0.446
22284W        W81578   3.268  36.365  11.528
22285W        W81579  42.879  12.670   0.946
22286W        W81580   9.320   8.319  14.948
22287W        W81581   4.236   7.706  13.837
22288W        W81582   0.823   0.275  13.965
22289W        W81583  29.627  42.331   1.382
22290W        W81584  19.680   5.305   3.249
22291W        W81585   1.956  33.615   3.243
22292W        W81586  18.611  22.070  10.979
22293W        W81587  38.868  27.551  11.439
22294W        W81588  32.548   0.412  11.868
22295W        W81589  44.339  21.621  14.813
22296W        W81590   9.339  16.614   1.814
22297W        W81591  32.128   0.755   0.865
22298W        W81592  33.498   4.442   4.248
22299W        W81593   0.850  43.923   5.264
22300W        W81594  30.561  24.597  12.573
22301W        W81595  26.467  21.177  13.007
22302W        W81596  33.406  31.947   1.726
22303W        W81597   3.853  13.798  11.115
22304W        W81598  23.138  23.060   3.318
22305W        W81599  26.519  20.254   3.203
22306W        W81600   0.372  23.230  12.943
22307W        W81601  39.809  19.535   3.731
22308W        W81602  23.141  21.130   1.761
22309W        W81603  12.207  43.014  14.934
22310W        W81604  43.359   0.413   4.309
22311W        W81605   7.350  27.680  11.898
22312W        W81606  19.611  34.404   4.346
22313W        W81607  35.414  44.768  14.399
22314W        W81608  38.481  32.532   1.879
22315W        W81609  15.758  31.034   1.733
22316W        W81610  19.721  16.115   0.841
22317W        W81611  21.228   5.869   0.368
22318W        W81612   2.731   7.772   3.314
22319W        W81613  18.208  11.841  13.448
22320W        W81614   6.774  23.216   0.837
22321W        W81615  17.113   6.904  12.072
22322W        W81616   4.864  20.546   2.666
22323W        W81617  11.636   0.477   0.427
22324W        W81618  18.605   9.868  13.996
22325W        W81619  25.592  13.344  12.861
22326W        W81620  19.665  17.591  11.455
22327W        W81621  18.554  25.512  12.497
22328W        W81622   6.368   0.745   2.856
22329W        W81623   4.426  22.674   4.698
22330W        W81624  30.465   7.863  14.367
22331W        W81625  34.609   9.792  14.921
22332W        W81626   7.240  16.602  11.546
22333W        W81627  18.739  33.453   4.640
22334W        W81628  42.892  19.591  11.417
22335W        W81629  28.481   0.457  10.494
22336W        W81630  22.717   1.786  13.399
22337W        W81631  16.605  19.675  11.124
22338W        W81632  19.285  44.437  13.448
22339W        W81633  22.682  33.989   1.762
22340W        W81634  15.778   3.774   5.273
22341W        W81635  36.569   6.844  10.604
22342W        W81636  34.376  13.120   2.260
22343W        W81637  42.006  20.054   0.306
22344W        W81638  14.792  23.215   1.734
22345W        W81639  16.220  33.089   1.382
22346W        W81640  26.128  42.411  12.869
22347W        W81641  16.597  37.371   0.383
22348W        W81642   4.246  37.929   3.238
22349W        W81643  26.637  16.708  14.443
22350W        W81644   1.264  14.678  14.299
22351W        W81645  17.097   0.978  11.376
22352W        W81646  31.096  27.649  10.525
22353W        W81647   6.769  30.070  10.465
22354W        W81648  28.978  42.005   4.296
22355W        W81649  21.114  15.811  10.598
22356W        W81650  26.197  40.994  11.567
22357W        W81651  38.049  33.435   4.675
22358W        W81652  23.073  27.504  13.812
22359W        W81653  20.638  18.576  10.946
22360W        W81654  30.540  27.992  14.869
22361W        W81655  29.160  22.076   0.899
22362W        W81656  42.389   0.960  14.769
22363W        W81657  42.955   8.199   0.735
22364W        W81658  12.701  41.877  12.531
22365W        W81659  39.481  23.036   0.793
22366W        W81660  24.528   1.793   3.147
22367W        W81661  31.572   4.375   0.445
22368W        W81662  31.923  32.075   9.957
22369W        W81663  43.866  23.721   2.391
22370W        W81664  25.542  11.729   0.744
22371W        W81665  23.599  16.223  13.527
22372W        W81666  35.510  27.522  12.867
22373W        W81667   7.364   6.391   0.909
22374W        W81668  40.343   6.788  14.897
22375W        W81669  18.728  23.546  14.501
22376W        W81670  21.703  35.880   3.334
22377W        W81671  14.753   4.447   4.327
22378W        W81672  23.157  29.557  10.494
22379W        W81673   6.792   1.308   0.882
22380W        W81674  29.961   8.399   2.682
22381W        W81675  37.394  13.720  12.539
22382W        W81676  42.327   1.883  10.074
22383W        W81677  43.425  13.706   2.699
22384W        W81678  35.431  27.621   4.185
22385W        W81679  42.286  22.191   3.696
22386W        W81680   8.739  23.151   2.400
22387W        W81681  34.460  40.802  14.979
22388W        W81682  15.800  21.112   2.843
22389W        W81683   8.160  20.629  13.481
22390W        W81684  37.510  23.037   0.767
22391W        W81685  34.074  14.756   2.789
22392W        W81686  35.945  15.749   0.381
22393W        W81687  18.761   4.374   0.943
22394W        W81688  25.099   2.800   3.262
22395W        W81689   3.272  16.202   3.339
22396W        W81690  15.251  37.348   4.231
22397W        W81691  38.877   1.912  14.896
22398W        W81692  29.431  14.248   3.645
22399W        W81693  29.070  27.521   4.680
22400W        W81694   9.291  34.903   3.340
22401W        W81695  36.488  38.430  11.583
22402W        W81696  39.444  31.984   4.739
22403W        W81697  24.020  33.610   1.370
22404W        W81698  36.354  40.377  11.087
22405W        W81699  18.697  21.175  13.962
22406W        W81700   1.310   1.893  13.319
22407W        W81701  20.547  21.558  10.067
22408W        W81702  36.989   5.747   1.699
22409W        W81703   3.918  12.255  13.804
22410W        W81704  12.679  15.661  12.470
22411W        W81705  44.978  23.654   3.839
22412W        W81706  29.013  17.129  10.937
22413W        W81707   8.852  39.024  10.473
22414W        W81708  38.988  17.211  10.611
22415W        W81709  40.370  27.122   3.238
22416W        W81710  43.362  23.554  11.883
22417W        W81711  15.165  24.491   3.752
22418W        W81712  27.611  19.566  13.915
22419W        W81713  23.028   6.305   3.277
22420W        W81714   3.418  25.664   1.440
22421W        W81715  44.456   6.402  11.101
22422W        W81716  21.035  26.652   4.657
22423W        W81717   7.834  36.939  13.811
22424W        W81718  34.041  38.056  11.526
22425W        W81719  12.300  29.002  10.039
22426W        W81720  18.158  21.733  12.505
22427W        W81721  30.933  28.556   3.384
22428W        W81722   2.964  37.993   4.280
22429W        W81723  40.365  32.515   2.800
22430W        W81724   8.295  41.407  13.831
22431W        W81725  42.357  29.590  13.496
22432W        W81726  33.394  16.768  13.973
22433W        W81727  33.941  18.094   2.209
22434W        W81728  31.465  29.059   1.381
22435W        W81729  14.265  18.700  12.068
22436W        W81730  31.905  22.061   4.727
22437W        W81731  37.967  39.009  10.572
22438W        W81732  20.635  41.381   0.829
22439W        W81733  24.140  32.111   5.269
22440W        W81734  29.998  14.663  11.447
22441W        W81735  37.844   1.755   3.794
22442W        W81736   3.283  12.760  11.989
22443W        W81737  34.480   2.418  10.629
22444W        W81738  16.755   3.392   4.658
22445W        W81739   6.868  29.168  10.510
22446W        W81740  23.566  19.095   3.260
22447W        W81741  29.023   8.713  14.790
22448W        W81742  25.038  28.060  11.492
22449W        W81743  33.109   0.373  14.946
22450W        W81744  35.008  36.358   4.190
22451W        W81745  38.386  20.261   4.343
22452W        W81746  30.528   3.938   0.937
22453W        W81747  27.137  20.079  12.073
22454W        W81748  20.271  29.129  14.995
22455W        W81749   5.710  44.886   9.649
22456W        W81750  14.697   1.907  10.482
22457W        W81751  22.028   5.361  14.843
22458W        W81752  28.646  28.532  12.015
22459W        W81753  28.583  19.725   0.733
22460W        W81754  44.914  36.354   4.188
22461W        W81755  15.107  34.560   0.420
22462W        W81756  12.805   4.843   0.757
22463W        W81757  18.758  11.644  10.463
22464W        W81758   5.217  28.118   4.246
22465W        W81759   9.329  29.037   0.404
22466W        W81760  15.300  44.818   0.328
22467W        W81761   8.248   5.842  14.788
22468W        W81762  33.409  27.959   1.276
22469W        W81763   8.183  34.077  12.068
22470W        W81764  25.177  39.488  10.508
22471W        W81765  28.162  43.848   4.203
22472W        W81766  13.197  25.195   4.312
22473W        W81767  11.190  38.324   1.710
22474W        W81768  24.115  19.545   4.347
22475W        W81769  40.455  29.467  12.457
22476W        W81770   4.328  12.793  12.963
22477W        W81771   6.842  12.168   0.309
22478W        W81772  21.720  18.552   0.883
22479W        W81773  25.632  20.570   2.308
22480W        W81774  28.062   5.337   2.323
22481W        W81775  16.665  36.531   1.882
22482W        W81776  27.625  43.458  13.829
22483W        W81777  41.934  27.646   4.346
22484W        W81778  12.778   3.710   0.928
22485W        W81779  13.638  14.150   2.742
22486W        W81780  32.536  21.079  10.593
22487W        W81781  10.265  15.150   3.212
22488W        W81782  23.182  24.154   2.394
22489W        W81783   5.828  36.047   2.764
22490W        W81784  10.196   1.473   0.303
22491W        W81785  24.040  43.313   0.918
22492W        W81786  41.411  29.448  14.805
22493W        W81787  33.382  13.331   4.624
22494W        W81788  42.811   5.263   1.225
22495W        W81789  31.006  15.093  13.973
22496W        W81790  34.079   1.257  12.529
22497W        W81791  26.525  16.599  14.778
22498W        W81792  21.671   9.204   0.441
22499W        W81793  21.085  14.096  12.897
22500W        W81794  28.961  27.977  11.966
22501W        W81795  26.998   0.413   0.264
22502W        W81796  19.645   3.875   3.307
22503W        W81797  24.601   5.723  13.025
22504W        W81798  39.017   8.893  14.822
22505W        W81799  30.940   5.896   1.400
22506W        W81800  31.133  40.538  10.892
22507W        W81801  40.029  40.004   3.270
22508W        W81802  29.126  21.522   3.184
22509W        W81803  30.013  15.305   0.967
22510W        W81804  17.203  18.057  10.515
22511W        W81805   3.751   0.848  10.081
22512W        W81806  26.972  24.067   2.316
22513W        W81807  24.151  41.533   0.823
22514W        W81808   7.321  22.641   4.135
22515W        W81809  40.533  23.583  12.828
22516W        W81810  39.532  29.030  12.992
22517W        W81811   3.858  38.400  12.918
22518W        W81812  32.071  24.651   4.294
22519W        W81813   5.357   3.419   4.170
22520W        W81814   2.472  37.491  13.513
22521W        W81815  24.630  33.037  13.307
22522W        W81816  40.487   3.722  13.957
22523W        W81817  23.198  21.232   0.910
22524W        W81818  40.800   3.336  14.990
22525W        W81819  20.688  43.879  14.973
22526W        W81820   3.718   0.939   2.220
22527W        W81821  27.067  27.458   1.421
22528W        W81822  22.742   3.745  13.423
22529W        W81823  22.034  15.127  10.892
22530W        W81824  15.671  38.929  13.384
22531W        W81825  39.943   2.924   0.432
22532W        W81826  20.686  41.983  10.540
22533W        W81827  13.187  30.603   1.861
22534W        W81828  12.331  35.560   2.413
22535W        W81829  29.968  23.015  13.387
22536W        W81830  14.201  25.635  12.340
22537W        W81831  14.135   9.771   3.689
22538W        W81832   0.350  20.126   4.718
22539W        W81833  43.500  29.526   4.616
22540W        W81834  30.557  26.568   4.252
22541W        W81835  34.549  27.153  11.535
22542W        W81836  27.534  18.733  14.886
22543W        W81837   5.405   3.752  10.448
22544W        W81838  12.232  40.345  12.874
22545W        W81839  38.978  16.304   0.740
22546W        W81840  35.993  15.667  10.475
22547W        W81841  33.902   7.821  14.472
22548W        W81842  30.536  19.064   2.823
22549W        W81843  11.167   1.957  11.885
22550W        W81844  44.936  35.018  13.871
22551W        W81845  15.791   3.849   1.728
22552W        W81846   7.280  41.942  12.350
22553W        W81847  32.587  31.519  13.391
22554W        W81848  35.506  28.569  13.974
22555W        W81849   9.759  29.935   2.359
22556W        W81850  38.432   5.749   4.188
22557W        W81851   0.861  14.138  12.828
22558W        W81852   7.805  37.944  14.970
22559W        W81853  26.546   8.786   0.318
22560W        W81854  39.005   9.276  14.924
22561W        W81855  35.893  20.104   1.275
22562W        W81856  36.918  29.085  10.450
22563W        W81857  32.508  36.874  14.327
22564W        W81858  26.674  33.959   4.692
22565W        W81859   5.355  20.583   2.817
22566W        W81860  20.683   0.420  12.050
22567W        W81861  30.511  35.402   3.209
22568W        W81862   5.393  20.274  13.307
22569W        W81863  19.635  42.400  10.516
22570W        W81864  39.383  33.966   0.278
22571W        W81865  43.405  13.146  11.476
22572W        W81866  40.033  32.937  13.368
22573W        W81867  34.437  27.121  12.454
22574W        W81868   5.303  14.686  14.425
22575W        W81869  37.872  14.238   2.303
22576W        W81870  19.094  25.583  14.945
22577W        W81871  36.391  22.636   1.263
22578W        W81872  18.289  42.406  12.096
22579W        W81873  41.856  30.973  14.308
22580W        W81874  18.276   4.306   4.342
22581W        W81875   1.774   7.254  14.515
22582W        W81876  16.179   2.424  12.408
22583W        W81877   6.285  38.035  10.034
22584W        W81878  11.192   4.830  11.567
22585W        W81879  29.926   3.392   4.168
22586W        W81880  37.423  29.509   5.134
22587W        W81881  26.089   4.226   0.777
22588W        W81882  23.602   4.840  10.450
22589W        W81883  40.025   7.287  11.402
22590W        W81884  19.579  10.303   2.667
22591W        W81885  22.096  10.227   2.230
22592W        W81886  39.880  26.535   2.393
22593W        W81887  31.600  25.155  12.928
22594W        W81888  31.454  36.400   0.380
22595W        W81889  41.302  12.167   2.381
22596W        W81890  38.553  25.696   3.256
22597W        W81891  15.120  34.462   4.230
22598W        W81892  44.262  13.140   3.736
22599W        W81893   6.183  35.988   3.327
22600W        W81894   8.866  43.905  11.038
22601W        W81895  40.402   1.977   0.299
22602W        W81896  39.017  34.946   0.249
22603W        W81897  26.462  42.999  14.014
22604W        W81898  43.490  20.675  12.003
22605W        W81899  40.881  44.769   3.307
22606W        W81900  21.630  30.468   4.251
22607W        W81901  41.811   2.792  13.039
22608W        W81902  27.573  31.576   1.797
22609W        W81903   0.287  16.176  13.545
22610W        W81904   5.848  26.025   4.215
22611W        W81905  38.822  43.435  14.908
22612W        W81906  39.390  36.006  12.428
22613W        W81907  13.340   8.890  13.872
22614W        W81908  41.448  33.980   3.657
22615W        W81909  26.072  20.042  13.999
22616W        W81910  27.001  37.507  13.480
22617W        W81911  38.331  44.955  10.894
22618W        W81912  12.721   4.787  13.546
22619W        W81913  44.808  41.933  11.905
22620W        W81914  37.420   1.265  14.794
22621W        W81915   4.253  11.128  10.972
22622W        W81916  27.195  34.505   4.175
22623W        W81917  22.055  14.720   3.738
22624W        W81918  38.543   5.324  14.373
22625W        W81919  36.530  38.889   0.300
22626W        W81920  28.001  41.304   0.341
22627W        W81921  32.113  36.844   2.667
22628W        W81922  11.678  20.196   4.246
22629W        W81923  39.318  41.868   2.677
22630W        W81924  26.096  13.143  12.917
22631W        W81925   1.761   4.762   4.147
22632W        W81926   8.872  15.119   2.249
22633W        W81927  29.575  25.989  13.827
22634W        W81928   1.862  28.546  14.457
22635W        W81929   4.229  14.770  11.562
22636W        W81930  39.494  20.060  13.463
22637W        W81931   9.744  22.099  13.027
22638W        W81932  41.999  14.686   1.722
22639W        W81933  18.609  16.605  10.532
22640W        W81934  34.113  41.852   3.319
22641W        W81935  13.779   2.930  10.609
22642W        W81936  12.227  44.796  13.342
22643W        W81937  35.985  42.910  14.918
22644W        W81938   7.245  31.405   1.233
22645W        W81939  33.129  17.602  13.497
22646W        W81940  17.211  28.038  13.388
22647W        W81941  40.018  41.362   4.627
22648W        W81942  34.499   3.386   3.737
22649W        W81943  15.097  32.996  13.034
22650W        W81944   8.201   0.871  10.551
22651W        W81945  39.448  38.955  10.459
22652W        W81946  40.431   6.359  13.541
22653W        W81947  13.729   5.363   2.243
22654W        W81948  36.072   2.271  13.793
22655W        W81949  34.400  36.002   2.386
22656W        W81950  26.543  40.034   5.222
22657W        W81951  32.588   8.872   2.355
22658W        W81952  37.507  36.398  11.507
22659W        W81953   6.729  20.554  12.058
22660W        W81954  21.556   2.904  11.583
22661W        W81955  43.870  16.669  11.509
22662W        W81956  43.808   1.977   3.202
22663W        W81957  20.069  20.629  10.973
22664W        W81958  13.787   4.420  14.396
22665W        W81959  28.474  37.553   0.947
22666W        W81960  21.178  21.598   2.363
22667W        W81961  43.475   4.813  12.465
22668W        W81962  12.833   5.926  12.384
22669W        W81963  32.528  39.821  12.842
22670W        W81964  38.837  36.901  13.324
22671W        W81965   2.735  27.974  13.921
22672W        W81966  41.486  11.813   3.192
22673W        W81967  22.099  31.035  10.622
22674W        W81968  39.019  40.497  12.550
22675W        W81969  38.952  26.968  14.763
22676W        W81970  38.433   3.868  13.812
22677W        W81971  28.526  21.262   4.320
22678W        W81972   7.876  31.146  14.870
22679W        W81973  39.959  10.175  12.870
22680W        W81974  28.012  33.436   4.285
22681W        W81975   8.222  21.699  13.352
22682W        W81976  33.609  28.547   1.394
22683W        W81977  21.190  43.372  11.857
22684W        W81978  28.533   2.832   0.431
22685W        W81979  44.890  42.405   3.375
22686W        W81980  32.948   0.799   2.792
22687W        W81981  20.111  43.408   0.771
22688W        W81982  40.877  34.482   4.229
22689W        W81983  19.219   3.750  11.891
22690W        W81984   9.156  35.554  10.966
22691W        W81985  12.789  35.964  13.352
22692W        W81986  39.030  11.160   1.426
22693W        W81987  16.080   8.367   3.335
22694W        W81988  43.948  30.505  10.477
22695W        W81989  43.344  36.365   4.164
22696W        W81990  20.754  11.161   3.303
22697W        W81991  19.161   8.184   1.306
22698W        W81992  32.463   8.774  12.900
22699W        W81993   2.348   1.957  11.475
22700W        W81994  28.009  30.486   5.153
22701W        W81995  31.558  29.146  11.500
22702W        W81996  21.035  28.480   1.741
22703W        W81997  14.202  39.397  14.021
22704W        W81998  13.790   2.425   0.759
22705W        W81999   1.385   6.337   4.122
22706W        W82000  22.518  43.294   1.775
22707W        W82001  43.404  41.314  12.339
22708W        W82002  41.535  34.460  12.351
22709W        W82003  21.262  38.913   2.201
22710W        W82004   9.709   6.200   4.344
22711W        W82005   4.716  18.269   2.207
22712W        W82006  13.182  10.724   4.635
22713W        W82007  17.766   1.379   4.334
22714W        W82008  15.180  43.908  12.064
22715W        W82009   1.749  41.394   0.916
22716W        W82010  17.122  18.618  14.306
22717W        W82011  32.137  23.718   3.732
22718W        W82012  19.661  42.877  10.908
22719W        W82013  43.311  35.977   3.256
22720W        W82014  30.964   2.309  12.534
22721W        W82015  36.358  15.812  10.962
22722W        W82016  13.703  41.963  10.932
22723W        W82017  40.505  26.621  10.996
22724W        W82018  41.978  19.181   0.734
22725W        W82019  25.069  27.463   0.417
22726W        W82020   8.712  30.428  14.823
22727W        W82021  38.920  37.002  10.517
22728W        W82022  19.206  25.050   1.259
22729W        W82023  35.944  18.606   1.413
22730W        W82024  31.915  18.758  11.050
22731W        W82025   7.312  44.333  10.634
22732W        W82026  14.788  43.969  12.480
22733W        W82027  35.085  38.053  12.464
22734W        W82028  22.083  34.406  13.037
22735W        W82029  34.527  20.595   0.287
22736W        W82030  44.291  10.866   0.772
22737W        W82031   1.814  32.994  14.971
22738W        W82032   2.743  41.320   4.294
22739W        W82033  22.717  24.063  12.004
22740W        W82034  14.133   8.287  10.631
22741W        W82035  15.774  24.560  11.116
22742W        W82036  23.668  22.557   3.692
22743W        W82037  31.401  39.039  12.863
22744W        W82038   4.389  16.304   4.279
22745W        W82039   0.939  18.658   9.953
22746W        W82040  30.463  29.427  11.467
22747W        W82041  24.076  35.967  14.782
22748W        W82042  14.201  25.526  11.126
22749W        W82043   1.813  17.144   0.469
22750W        W82044  23.643  35.472  14.904
22751W        W82045  14.194  20.227  13.457
22752W        W82046  43.374   0.855   0.908
22753W        W82047   2.338   5.783  14.984
22754W        W82048  41.506  12.271   4.353
22755W        W82049  25.069  17.299  14.004
22756W        W82050   9.392  33.591  11.431
22757W        W82051  27.124  24.616   0.469
22758W        W82052  42.823  24.106   0.811
22759W        W82053  23.173  13.183   3.831
22760W        W82054  38.448  26.592  14.826
22761W        W82055  16.727  43.018  13.872
22762W        W82056   1.477  40.426  10.962
22763W        W82057  27.135   4.261   3.354
22764W        W82058  36.415  22.525   1.863
22765W        W82059  28.489  15.183  10.983
22766W        W82060  12.347  44.270  14.014
22767W        W82061  30.551  27.037  13.342
22768W        W82062  16.653  10.238   2.880
22769W        W82063  34.551   1.928  14.460
22770W        W82064  29.951  38.013  13.379
22771W        W82065  33.130  31.416   1.386
22772W        W82066  19.272  36.908   1.885
22773W        W82067   0.968  22.699  14.398
22774W        W82068  13.693  14.218   0.333
22775W        W82069   0.897   9.887  13.051
22776W        W82070  14.668  18.168  10.575
22777W        W82071  21.220  31.072   2.861
22778W        W82072  43.412  31.483   0.312
22779W        W82073   0.912  43.819  11.468
22780W        W82074  20.731  30.136  14.473
22781W        W82075   4.728   9.351  10.991
22782W        W82076  43.410   3.908  11.563
22783W        W82077  18.151  19.591  13.817
22784W        W82078  17.754  38.338  11.870
22785W        W82079  11.146  34.931   4.737
22786W        W82080  18.215  39.452   3.670
22787W        W82081  41.815   1.970  14.313
22788W        W82082  19.732   6.769  12.439
22789W        W82083   5.753  29.654   4.640
22790W        W82084  21.682  31.142   0.843
22791W        W82085  28.964   1.774  11.463
22792W        W82086  35.062   2.315   2.222
22793W        W82087  27.000  33.032  12.003
22794W        W82088  44.316  27.527   0.248
22795W        W82089   1.881   3.833   0.830
22796W        W82090  19.643  28.656  14.775
22797W        W82091   4.761  25.198  10.500
22798W        W82092   6.769  25.135   3.682
22799W        W82093  18.142  12.814  13.000
22800W        W82094  27.136  10.208  10.546
22801W        W82095   0.297  26.008  14.008
22802W        W82096  41.957  17.770  11.994
22803W        W82097  19.114  28.183  13.882
22804W        W82098  42.354  12.173   2.247
22805W        W82099  18.776  38.065  14.294
22806W        W82100  30.546  39.466  11.991
22807W        W82101   4.816   9.243  12.950
22808W        W82102   1.290  11.200   2.803
22809W        W82103  41.035   4.350  14.459
22810W        W82104  38.488  15.822  11.560
22811W        W82105  41.007  25.677   2.879
22812W        W82106  12.650  11.231   3.370
22813W        W82107   3.382   9.754   2.834
22814W        W82108   6.339  10.152   1.849
22815W        W82109  38.049   1.418  11.403
22816W        W82110  34.048  13.822  12.441
22817W        W82111  21.559  15.635   3.181
22818W        W82112   5.687  37.982   3.736
22819W        W82113  24.501  27.140  12.981
22820W        W82114  38.416  12.337  13.849
22821W        W82115   7.709  28.673  13.886
22822W        W82116   3.271  20.177   5.194
22823W        W82117   6.411  24.227  10.888
22824W        W82118  35.040  21.719  14.815
22825W        W82119  39.490  22.110   4.139
22826W        W82120  34.411  34.555  14.908
22827W        W82121   5.896  38.385  11.961
22828W        W82122  24.565  20.667   3.658
22829W        W82123  32.031  40.367  12.032
22830W        W82124  13.146   0.958   0.340
22831W        W82125  24.200  30.023  14.444
22832W        W82126  34.464  40.364   1.338
22833W        W82127  32.430  38.387  11.582
22834W        W82128   7.765   3.936  14.826
22835W        W82129  41.325  21.201   1.414
22836W        W82130  14.625  37.864  10.631
22837W        W82131   9.804  37.914   4.762
22838W        W82132   8.691  36.420  11.904
22839W        W82133  37.343  32.627   0.817
22840W        W82134  26.113  29.148   1.410
22841W        W82135  29.632  35.479  12.893
22842W        W82136  21.650  39.058  12.933
22843W        W82137  41.803  20.728   2.250
22844W        W82138  39.908  29.968  11.893
22845W        W82139  24.117   3.831  11.862
22846W        W82140   3.893  34.918  12.996
22847W        W82141  23.220   1.295   4.807
22848W        W82142  39.503  19.131  11.036
22849W        W82143   5.764  30.617  13.051
22850W        W82144  36.996  17.587   4.145
22851W        W82145   5.287  27.943  10.099
22852W        W82146   0.460  38.888   0.445
22853W        W82147  39.368  17.633   3.849
22854W        W82148  12.205   6.678  12.452
22855W        W82149  26.564  15.238   2.807
22856W        W82150  39.463   1.404   0.344
22857W        W82151  41.831  41.301  13.968
22858W        W82152   0.383  19.275   0.337
22859W        W82153  27.023  23.087  10.540
22860W        W82154  14.645  18.050   2.414
22861W        W82155  30.635  25.017  13.023
22862W        W82156  18.562  44.980   0.454
22863W        W82157   3.232  10.214   4.192
22864W        W82158  34.087  26.609  11.866
22865W        W82159  12.645  26.005   1.308
22866W        W82160  19.155  17.766   4.191
22867W        W82161  27.984  37.918   0.369
22868W        W82162  22.677  19.241  11.387
22869W        W82163   6.364  31.648   2.215
22870W        W82164  14.687  29.985  11.978
22871W        W82165  28.131  28.155  14.863
22872W        W82166  23.020  19.255   3.653
22873W        W82167  27.943  40.854   1.250
22874W        W82168  31.926  11.795   4.831
22875W        W82169   5.321  24.053   3.239
22876W        W82170  38.899  33.907  14.368
22877W        W82171  15.198   0.468  10.963
22878W        W82172  17.603  33.483  10.462
22879W        W82173  43.396   3.880   4.113
22880W        W82174  19.184   9.249   3.854
22881W        W82175   4.429  29.920  12.827
22882W        W82176  25.496  25.151  10.574
22883W        W82177  24.719  18.567  13.474
22884W        W82178   1.874  20.572   1.825
22885W        W82179   9.337  44.288   0.949
22886W        W82180  15.607  12.824  10.482
22887W        W82181  40.390  22.612   2.721
22888W        W82182  24.610  13.257   4.658
22889W        W82183  32.075  11.807   3.851
22890W        W82184  37.939  27.006  10.978
22891W        W82185  34.426   9.859   2.189
22892W        W82186  34.464  27.962   0.843
22893W        W82187   8.719  20.227  13.319
22894W        W82188   2.413   7.797   1.805
22895W        W82189   3.440  21.551   1.739
22896W        W82190  10.791  44.924   4.642
22897W        W82191   4.437  29.999   1.872
22898W        W82192  27.108  25.153  11.027
22899W        W82193   7.843  23.073  13.465
22900W        W82194   9.882   7.361  10.993
22901W        W82195  28.465  19.258   1.295
22902W        W82196   9.774  11.659   4.799
22903W        W82197  31.451  12.709   3.380
22904W        W82198  22.057   7.196  11.464
22905W        W82199  17.676   7.909  11.071
22906W        W82200  20.549  28.049  12.065
22907W        W82201  27.091  34.553   4.806
22908W        W82202  27.609  17.698  14.016
22909W        W82203   4.270  18.138   1.254
22910W        W82204  18.568  28.445  12.501
22911W        W82205  16.234   7.668   1.834
22912W        W82206   3.874  42.522   2.241
22913W        W82207  15.583  16.752   5.581
22914W        W82208  40.812  39.344  13.494
22915W        W82209  33.064  39.335  12.972
22916W        W82210   5.292  11.179  12.011
22917W        W82211  15.096  38.028  13.352
22918W        W82212  42.025  11.833  14.955
22919W        W82213   9.321  31.591  14.976
22920W        W82214  20.243   5.353   3.870
22921W        W82215   2.261  15.152   1.873
22922W        W82216  40.531   3.241   4.233
22923W        W82217   8.404  17.790   2.308
22924W        W82218   4.869  33.064   3.356
22925W        W82219  13.796   8.274   4.791
22926W        W82220  38.017  33.494   0.281
22927W        W82221   6.334  18.157   3.278
22928W        W82222  19.281  38.072   2.784
22929W        W82223  40.010   8.661  11.421
22930W        W82224  11.209  35.542   1.876
22931W        W82225  42.799  17.114   4.352
22932W        W82226   8.663   7.375   1.222
22933W        W82227  40.038  35.503   1.425
22934W        W82228  34.911   8.693  14.766
22935W        W82229  18.087  17.607  11.097
22936W        W82230   9.219  27.025   0.267
22937W        W82231  42.485  26.581  10.455
22938W        W82232  34.508   9.688   0.795
22939W        W82233  11.713  12.196   4.666
22940W        W82234  20.652   3.746  11.883
22941W        W82235  20.271  14.679  10.526
22942W        W82236  16.236   8.255   3.753
22943W        W82237   2.953  33.012   2.722
22944W        W82238  38.560  24.658   3.815
22945W        W82239   3.303  43.847  11.512
22946W        W82240   5.402  29.656   3.803
22947W        W82241  40.308   9.873   2.789
22948W        W82242  40.467  43.408   3.365
22949W        W82243  26.103  11.761  12.478
22950W        W82244  38.001   6.340   4.325
22951W        W82245  25.540  12.849   3.236
22952W        W82246  20.739   5.276   2.794
22953W        W82247  36.422  35.937   1.235
22954W        W82248  25.616  15.646  13.836
22955W        W82249  23.059  32.455  11.090
22956W        W82250  11.722  40.914  11.111
22957W        W82251  10.841  14.721   0.899
22958W        W82252   0.807  28.033  14.821
22959W        W82253  13.209   6.372   1.301
22960W        W82254  25.520  15.309   4.796
22961W        W82255  44.342  22.518   3.214
22962W        W82256   9.706  11.759   1.212
22963W        W82257  20.198  19.156  12.352
22964W        W82258   1.928   0.923   4.670
22965W        W82259   8.323  32.636  14.483
22966W        W82260  27.685   4.938  13.537
22967W        W82261  15.271  27.019  12.533
22968W        W82262   9.676  19.160   9.626
22969W        W82263  16.203  44.332   4.347
22970W        W82264  22.159  16.729  14.802
22971W        W82265  36.844   1.427  11.067
22972W        W82266  23.187  13.309  11.025
22973W        W82267  28.017  37.022   1.447
22974W        W82268  17.614  24.058  10.615
22975W        W82269  15.702  21.558   2.290
22976W        W82270  10.817  32.889   0.432
22977W        W82271  25.489   8.818  14.360
22978W        W82272   3.255  35.510   3.735
22979W        W82273  40.945  30.067   4.816
22980W        W82274  26.465   0.817   4.115
22981W        W82275  15.137  19.780  10.592
22982W        W82276  44.923   1.387  14.354
22983W        W82277  31.511  41.303   1.264
22984W        W82278  26.635  37.036  13.944
22985W        W82279  35.958  21.538   0.405
22986W        W82280  13.213  29.510   2.390
22987W        W82281  29.568  13.300  10.894
22988W        W82282   4.379  27.678   3.235
22989W        W82283  25.598  18.626  14.393
22990W        W82284  15.598  21.703  14.386
22991W        W82285  39.960  19.559   4.261
22992W        W82286  40.798  40.853  13.884
22993W        W82287  30.496  35.519   2.676
22994W        W82288   4.237  12.204   4.165
22995W        W82289  44.321   8.678  11.446
22996W        W82290  28.077  35.105  14.791
22997W        W82291  13.748  28.018   3.647
22998W        W82292  34.394  19.205   1.781
22999W        W82293  37.564  14.682  11.102
23000W        W82294  33.022  28.544   3.641
23001W        W82295  22.049  18.107  12.077
23002W        W82296  44.755  35.991   1.696
23003W        W82297   5.397  10.863  11.487
23004W        W82298  19.771  12.164  12.468
23005W        W82299  37.956  32.564   0.242
23006W        W82300  17.785  30.111   1.233
23007W        W82301  20.205  10.854  10.975
23008W        W82302  30.977  29.941   3.156
23009W        W82303  19.773  43.015  10.118
23010W        W82304   8.858   3.236  14.449
23011W        W82305  26.041  15.631  12.991
23012W        W82306   6.909  41.476   1.752
23013W        W82307  29.478  26.605  14.772
23014W        W82308  19.209  37.375  13.852
23015W        W82309  31.407  38.001   0.915
23016W        W82310   4.733  25.628  10.452
23017W        W82311  18.263  10.739   1.302
23018W        W82312  26.088   9.750   5.222
23019W        W82313  14.321  17.724   2.309
23020W        W82314  26.602  36.086  14.489
23021W        W82315  34.100  20.089   4.652
23022W        W82316  30.430  35.943   4.319
23023W        W82317  21.674   1.372  13.057
23024W        W82318  28.080  30.062   0.962
23025W        W82319  31.558  22.069  12.080
23026W        W82320  42.316  12.777  10.526
23027W        W82321  19.080  21.528  11.042
23028W        W82322  21.183  25.564   3.171
23029W        W82323  26.959  33.896  12.949
23030W        W82324  38.864  29.136  13.526
23031W        W82325  24.654  20.034   0.343
23032W        W82326  29.950  40.797   1.909
23033W        W82327  19.114  43.868   2.293
23034W        W82328  19.640  20.531   3.743
23035W        W82329  21.218  19.560  13.000
23036W        W82330  28.495  39.821  10.983
23037W        W82331   8.365  35.099   3.343
23038W        W82332  25.601  32.525  13.967
23039W        W82333  13.614  25.612  10.570
23040W        W82334   7.232  21.129   3.718
23041W        W82335  21.238   1.907   4.627
23042W        W82336  19.145  29.021  13.996
23043W        W82337  21.518  44.915  13.528
23044W        W82338  15.739   5.715   2.858
23045W        W82339   6.288  29.561  12.542
23046W        W82340  12.658  17.254   4.265
23047W        W82341   3.233  15.129  12.041
23048W        W82342  40.979   2.298   0.419
23049W        W82343  16.668  44.325  11.004
23050W        W82344  18.554  24.632  12.438
23051W        W82345  42.352  10.290   3.231
23052W        W82346   2.865  11.824  13.516
23053W        W82347   1.770  18.282  10.592
23054W        W82348  32.097  21.195   3.157
23055W        W82349  40.534  33.910  13.961
23056W        W82350  11.711  12.222   1.357
23057W        W82351  16.246  10.311   3.819
23058W        W82352  34.942   4.798  13.022
23059W        W82353  21.732  39.519  13.862
23060W        W82354   8.674  14.755  10.552
23061W        W82355  37.470  30.527   4.270
23062W        W82356   4.860  42.877  11.858
23063W        W82357  37.052  29.995  13.463
23064W        W82358   4.244  43.794   4.719
23065W        W82359  18.228   7.399  11.517
23066W        W82360  41.301   1.404   5.320
23067W        W82361  25.018  22.146   2.805
23068W        W82362  28.182  24.151   0.953
23069W        W82363  41.381  15.136   4.805
23070W        W82364  27.994  28.001  10.459
23071W        W82365  29.463  19.765   5.210
23072W        W82366   8.846   5.687  10.911
23073W        W82367   4.405  10.230  14.909
23074W        W82368  25.204  24.684   3.258
23075W        W82369   7.191  12.176  11.983
23076W        W82370  24.019  15.751   1.422
23077W        W82371  16.630  22.594  14.878
23078W        W82372  21.543   8.839   0.907
23079W        W82373   9.324  23.668  13.426
23080W        W82374  19.708  23.050   2.382
23081W        W82375   4.879  25.035   2.695
23082W        W82376  22.210  30.525   3.366
23083W        W82377  21.571  39.447   2.664
23084W        W82378  15.291   6.753  10.912
23085W        W82379  17.139  23.024   5.254
23086W        W82380   4.764  41.434  14.389
23087W        W82381  10.784  27.127   1.805
23088W        W82382  31.583  28.449  13.414
23089W        W82383  16.787  11.330   0.394
23090W        W82384   7.311  37.857   1.918
23091W        W82385  34.907  20.126   1.432
23092W        W82386  40.886  35.962  14.032
23093W        W82387  18.131  38.448  14.001
23094W        W82388  20.133  37.494   3.383
23095W        W82389  44.374  17.606   3.176
23096W        W82390  39.852  21.621  10.923
23097W        W82391  24.113  43.022   0.830
23098W        W82392  24.703   6.863   0.327
23099W        W82393  38.967   9.296  13.438
23100W        W82394  29.162  19.103  12.387
23101W        W82395   5.837  30.586   3.192
23102W        W82396  43.881  31.437  10.625
23103W        W82397  39.421  22.179   4.614
23104W        W82398  14.166  17.681  12.383
23105W        W82399   0.891  14.118  14.303
23106W        W82400   0.900   2.798  10.957
23107W        W82401  27.103   7.255  10.514
23108W        W82402  20.268  27.019   3.153
23109W        W82403  41.391  12.240   3.691
23110W        W82404   2.947  25.607  10.451
23111W        W82405  10.776  37.546   1.305
23112W        W82406  17.560  41.414   0.825
23113W        W82407   5.405   7.303   3.849
23114W        W82408  16.629  31.463   0.961
23115W        W82409  14.628  41.851   4.250
23116W        W82410  42.313   9.667   3.204
23117W        W82411  18.054   9.346  10.991
23118W        W82412  32.984   0.912   3.381
23119W        W82413  11.728  22.240   1.833
23120W        W82414  16.227  15.745  10.559
23121W        W82415  24.083  43.865   2.897
23122W        W82416   6.844  38.874   0.808
23123W        W82417  15.176  26.015   3.384
23124W        W82418   8.866  44.791  14.418
23125W        W82419   4.388  37.375   2.190
23126W        W82420  37.484  20.762   2.673
23127W        W82421  13.709  29.097  14.977
23128W        W82422   2.262   0.414   5.293
23129W        W82423  19.230  17.143   1.819
23130W        W82424  40.315  10.140  13.394
23131W        W82425  43.422  25.101   1.322
23132W        W82426  14.620  39.822   0.886
23133W        W82427  20.153  15.799  13.985
23134W        W82428  14.823  14.779   4.271
23135W        W82429  39.989  20.233   4.209
23136W        W82430  39.487  17.197  14.775
23137W        W82431  21.687  28.632   3.166
23138W        W82432   8.811   5.819   0.403
23139W        W82433  24.030  28.091   0.478
23140W        W82434  24.188   6.406  13.379
23141W        W82435  44.943   6.350  10.950
23142W        W82436  21.070  36.854  11.463
23143W        W82437   7.316   4.815  10.508
23144W        W82438  35.549  33.484   3.697
23145W        W82439   3.937   5.828   2.380
23146W        W82440  42.879  17.716  12.983
23147W        W82441   2.380   2.723   3.359
23148W        W82442   6.409   2.359   2.701
23149W        W82443  32.921   1.906  14.365
23150W        W82444  12.692   0.755   3.275
23151W        W82445  38.375   8.764  10.006
23152W        W82446  25.006  41.815   3.208
23153W        W82447  37.379   1.464   1.906
23154W        W82448  17.133  17.698   2.877
23155W        W82449  31.502  15.723   3.172
23156W        W82450  21.546   6.697   1.230
23157W        W82451  20.679  12.198   1.370
23158W        W82452  28.524  31.490  14.796
23159W        W82453  25.534  21.704  11.024
23160W        W82454  21.657  21.656   2.889
23161W        W82455  29.486  23.209  12.541
23162W        W82456  35.859  41.001  11.015
23163W        W82457   2.867   8.327   0.458
23164W        W82458  33.030   6.923  10.641
23165W        W82459  13.150  13.209   2.721
23166W        W82460  41.808  35.944  12.550
23167W        W82461   4.941  38.527   4.673
23168W        W82462  31.115   0.466  10.035
23169W        W82463  41.504  40.324  13.870
23170W        W82464  31.638  31.925  11.432
23171W        W82465   4.389   9.350   4.215
23172W        W82466  28.046  42.841   3.324
23173W        W82467  23.131  39.035  14.009
23174W        W82468  38.841  24.023  13.418
23175W        W82469  12.286  19.118  12.881
23176W        W82470   1.732  22.503   1.382
23177W        W82471  40.907   5.816  14.353
23178W        W82472   9.773  31.139   0.866
23179W        W82473   9.252  16.159  11.471
23180W        W82474  42.461  30.451   3.800
23181W        W82475  17.771  21.709  12.950
23182W        W82476  14.236  21.237   5.172
23183W        W82477  39.819  36.453   4.626
23184W        W82478   9.884  30.563  12.080
23185W        W82479  17.718  42.448   3.343
23186W        W82480  33.502   0.968  14.279
23187W        W82481  42.012  26.484  14.339
23188W        W82482   2.338  16.802   4.247
23189W        W82483  22.514  14.164   1.235
23190W        W82484   3.418   9.842  10.435
23191W        W82485  16.685  34.554  11.567
23192W        W82486  10.744  43.288   2.269
23193W        W82487  14.321  28.651  12.430
23194W        W82488   0.926  11.186  11.435
23195W        W82489  26.984   2.320   4.837
23196W        W82490  35.550  26.175  11.941
23197W        W82491  25.581  27.129   2.413
23198W        W82492   9.218   6.836   2.366
23199W        W82493  24.483  41.913   3.228
23200W        W82494  13.719  28.573  12.397
23201W        W82495  14.177  23.083  14.934
23202W        W82496  42.337  15.744  13.804
23203W        W82497   4.420  35.443  14.829
23204W        W82498  20.060  23.088  10.605
23205W        W82499   0.778  33.875  10.952
23206W        W82500  29.540  21.244   2.380
23207W        W82501  25.520  18.718  10.446
23208W        W82502   8.896  25.969   1.706
23209W        W82503  13.218  14.758  13.821
23210W        W82504   9.243  38.955   4.800
23211W        W82505   6.301  42.490  13.839
23212W        W82506   3.950  14.104   1.729
23213W        W82507  11.342   4.215  14.913
23214W        W82508  10.861  36.531   1.930
23215W        W82509  31.931  28.172  11.861
23216W        W82510   4.358  41.973   4.787
23217W        W82511  30.568   8.823   1.769
23218W        W82512  16.681  25.099  14.490
23219W        W82513  42.850  14.735   1.842
23220W        W82514  21.197  17.581   4.315
23221W        W82515  21.087  22.116  11.598
23222W        W82516  20.701  31.101  10.591
23223W        W82517  16.746  18.715   5.668
23224W        W82518  28.446  26.119  14.494
23225W        W82519  10.851  28.471  12.833
23226W        W82520   8.747  17.672  14.395
23227W        W82521  23.134  36.373   4.761
23228W        W82522  13.129  30.068   2.334
23229W        W82523  18.240  38.921   0.811
23230W        W82524  44.472  13.769  13.057
23231W        W82525   3.925  18.262  10.556
23232W        W82526   3.912   3.356  13.053
23233W        W82527  12.330   4.449  11.122
23234W        W82528   9.173  17.218   1.414
23235W        W82529  15.640  41.426   1.401
23236W        W82530   1.300   7.258  11.007
23237W        W82531  22.189  39.360   4.215
23238W        W82532  33.894  31.134   0.388
23239W        W82533  28.593  31.906  11.453
23240W        W82534   3.323  35.555   4.617
23241W        W82535  19.214   8.843  13.414
23242W        W82536  38.920  38.567   2.186
23243W        W82537  32.449  34.564  13.515
23244W        W82538   9.711  23.063  14.911
23245W        W82539   7.693  38.822  13.465
23246W        W82540  18.082  21.621   0.843
23247W        W82541  37.409  44.760   4.253
23248W        W82542   5.314   4.843   1.284
23249W        W82543   7.873  25.652  11.382
23250W        W82544  20.237   6.849   1.302
23251W        W82545   8.675  24.088   0.459
23252W        W82546  39.043  14.663   1.377
23253W        W82547  39.331  33.517   0.287
23254W        W82548   7.414   1.923   1.355
23255W        W82549  17.174  22.058   0.837
23256W        W82550  34.411  15.724  13.054
23257W        W82551   4.924  37.869   1.443
23258W        W82552  24.015  31.552   3.697
23259W        W82553  24.493  11.295   5.208
23260W        W82554  19.626  21.670  12.348
23261W        W82555  42.326  15.228   4.122
23262W        W82556   1.341  24.482  12.932
23263W        W82557  25.135  41.932  13.397
23264W        W82558  11.648  39.883   4.755
23265W        W82559  24.201  21.251  10.508
23266W        W82560   2.429  17.665   4.182
23267W        W82561   4.922  12.302   0.377
23268W        W82562  44.267   1.254  12.440
23269W        W82563  15.270  39.849   0.901
23270W        W82564  41.925  30.621   0.296
23271W        W82565  23.661  39.018  14.404
23272W        W82566   5.719  31.102   4.240
23273W        W82567   9.863   7.716   1.894
23274W        W82568  37.920  23.525   1.277
23275W        W82569  42.852  16.192  12.007
23276W        W82570  13.196   3.433  10.158
23277W        W82571  28.111  34.935   9.987
23278W        W82572  34.387   9.330   1.338
23279W        W82573  14.221  23.127   1.359
23280W        W82574   5.923  44.782  14.006
23281W        W82575  19.633  28.126  12.418
23282W        W82576  42.032  17.088   4.355
23283W        W82577  41.538   9.157   0.736
23284W        W82578   5.307   1.901   4.802
23285W        W82579   3.396  18.736  12.879
23286W        W82580  37.897  43.328   2.818
23287W        W82581  23.570  33.500   2.854
23288W        W82582   9.284  13.293   0.754
23289W        W82583  21.073  10.756   0.340
23290W        W82584  10.836  37.526   1.814
23291W        W82585  43.008   5.922  11.472
23292W        W82586  15.697  17.259   4.655
23293W        W82587   4.829   4.441  13.955
23294W        W82588   7.225  23.067   3.162
23295W        W82589  28.140  14.243  10.023
23296W        W82590  13.231  16.317  12.965
23297W        W82591   7.707   3.248  14.359
23298W        W82592  16.744  19.247   5.308
23299W        W82593   4.402  22.186  13.409
23300W        W82594   1.262  26.135   2.222
23301W        W82595  38.349  29.630   1.916
23302W        W82596  24.986  42.976   1.700
23303W        W82597   2.383  32.627  11.587
23304W        W82598  41.468  28.483   2.858
23305W        W82599  38.537   9.723   2.367
23306W        W82600   8.364  38.064  12.442
23307W        W82601   0.410  27.503  11.020
23308W        W82602  26.552  21.545  13.921
23309W        W82603  11.710   7.227  10.634
23310W        W82604  40.861  12.685  10.491
23311W        W82605  22.667   9.228  14.759
23312W        W82606   1.732   8.343  11.080
23313W        W82607  26.208  30.040   4.735
23314W        W82608  15.172  40.334   3.169
23315W        W82609  42.297  19.630  14.792
23316W        W82610  11.766   2.933   3.630
23317W        W82611   1.407  15.226   3.354
23318W        W82612  24.142  27.045  10.507
23319W        W82613  33.489  32.960   4.704
23320W        W82614  26.547   8.804   2.805
23321W        W82615  35.074   1.915  12.431
23322W        W82616  32.889  41.392  11.920
23323W        W82617  42.026  36.998  13.531
23324W        W82618  12.739  17.720   4.188
23325W        W82619  20.220  10.637   1.883
23326W        W82620   7.763   3.245  13.890
23327W        W82621   1.826  42.427   4.164
23328W        W82622  23.496  13.225   9.566
23329W        W82623  38.498  39.899  10.578
23330W        W82624  37.405  14.162  10.502
23331W        W82625  10.262   7.739  13.848
23332W        W82626  23.240  42.837  12.892
23333W        W82627  20.100  11.680  11.904
23334W        W82628   9.177  22.239  13.914
23335W        W82629  43.462  21.547   0.371
23336W        W82630  34.960   9.383   2.374
23337W        W82631  28.127  14.277  13.438
23338W        W82632  14.128   9.711   4.350
23339W        W82633   6.677  28.479   1.793
23340W        W82634  41.039  29.032  14.512
23341W        W82635   2.920  27.676  12.558
23342W        W82636  43.764   0.750   2.399
23343W        W82637  40.899  41.511   4.771
23344W        W82638   6.231  20.104  13.990
23345W        W82639  29.090   2.354  11.398
23346W        W82640  35.370  33.600  12.852
23347W        W82641  24.712   4.383   2.859
23348W        W82642  37.432  42.012  13.341
23349W        W82643  11.236  30.550  13.312
23350W        W82644  13.626   1.945   3.796
23351W        W82645   9.727  41.847  14.984
23352W        W82646  26.551  12.207  12.920
23353W        W82647   8.772  40.012   2.256
23354W        W82648  37.414  37.047  13.542
23355W        W82649  14.299  41.492   1.855
23356W        W82650   6.707   2.747   3.293
23357W        W82651  21.186  33.402  12.064
23358W        W82652  18.152  42.926  12.961
23359W        W82653  43.398  11.637   3.201
23360W        W82654  26.146   4.422  13.876
23361W        W82655  21.039  42.018  13.497
23362W        W82656  27.989  31.492   1.254
23363W        W82657   5.242  11.827  13.391
23364W        W82658  20.219   1.936   3.800
23365W        W82659  38.409  36.584  12.013
23366W        W82660  27.574  12.357  12.835
23367W        W82661  28.083  43.348   4.214
23368W        W82662  37.450  35.029  13.869
23369W        W82663  21.564  34.942  12.409
23370W        W82664   3.803  21.597  11.052
23371W        W82665  24.132  39.819  14.308
23372W        W82666  14.789   7.721   4.289
23373W        W82667  44.438   4.863   4.230
23374W        W82668  43.276  22.109  12.899
23375W        W82669  23.620   3.839   3.349
23376W        W82670  27.653   5.776  14.905
23377W        W82671  44.484  33.618  12.893
23378W        W82672   1.943  21.733   1.247
23379W        W82673  35.564   9.318   9.491
23380W        W82674  14.591  36.873  11.457
23381W        W82675  43.298  20.115   2.371
23382W        W82676  11.799  24.516  14.986
23383W        W82677  22.544  38.982   1.772
23384W        W82678   6.294  26.137  13.357
23385W        W82679  26.051   6.377   3.810
23386W        W82680  32.950   4.915  10.422
23387W        W82681  11.360  29.919  11.115
23388W        W82682  44.489  41.856   2.694
23389W        W82683  40.426  41.916   0.412
23390W        W82684   1.267  24.065   1.730
23391W        W82685  26.060  43.404   1.367
23392W        W82686  37.919  24.158  10.947
23393W        W82687  12.235   2.903  11.414
23394W        W82688  31.995  33.624   1.888
23395W        W82689  34.510  22.104  11.384
23396W        W82690  12.631   6.286   4.775
23397W        W82691  10.696   4.242  13.487
23398W        W82692  21.535  25.142  13.309
23399W        W82693   9.843  21.233  12.397
23400W        W82694  16.286  10.862   0.368
23401W        W82695   7.171  21.115  10.598
23402W        W82696  24.487   0.764   3.834
23403W        W82697   7.756  25.672  12.968
23404W        W82698  42.964  12.835   4.678
23405W        W82699  43.893  24.195  14.460
23406W        W82700  26.093  33.005   2.750
23407W        W82701  19.759  39.823   2.402
23408W        W82702   6.830   5.866  11.923
23409W        W82703   9.284  31.987  14.364
23410W        W82704  26.106  19.690  12.459
23411W        W82705  17.146  36.932  14.389
23412W        W82706   1.252  22.017   0.472
23413W        W82707  31.145  37.581   3.340
23414W        W82708  38.929  13.815  12.914
23415W        W82709  22.132  31.603   0.736
23416W        W82710   2.856  23.592   2.200
23417W        W82711  24.139   0.750  13.378
23418W        W82712  32.899   4.275  10.519
23419W        W82713   5.225  29.936   3.150
23420W        W82714  34.015  38.514  11.898
23421W        W82715   7.365  18.768  14.981
23422W        W82716  13.801  16.592   4.758
23423W        W82717   3.325  10.179  10.536
23424W        W82718  36.917  19.218  13.498
23425W        W82719  38.504  32.113   3.667
23426W        W82720  19.720  41.372   3.344
23427W        W82721  11.741  21.718   0.442
23428W        W82722  41.444  39.973  14.420
23429W        W82723   7.251   9.265  13.489
23430W        W82724   3.824  27.192   4.304
23431W        W82725  29.046  25.645  12.991
23432W        W82726  21.661  35.494   1.805
23433W        W82727   7.850  29.023   3.780
23434W        W82728  24.014  29.123  13.034
23435W        W82729  27.481  37.414  12.442
23436W        W82730  19.112  13.181   1.880
23437W        W82731  32.436  17.191   0.898
23438W        W82732  16.225  14.247  13.915
23439W        W82733  20.231  17.220   1.795
23440W        W82734   3.809   8.758   5.207
23441W        W82735  12.125  42.468  11.404
23442W        W82736  43.353  21.700  12.899
23443W        W82737  15.603  35.056   4.132
23444W        W82738  37.455   3.461  12.855
23445W        W82739  38.391  19.555   0.899
23446W        W82740  39.551   9.286  14.485
23447W        W82741  21.183   9.791   3.385
23448W        W82742   9.888  33.382  13.514
23449W        W82743  40.537  27.156   1.694
23450W        W82744   5.400  36.851   1.746
23451W        W82745   0.444  37.513   1.362
23452W        W82746  40.392  37.420  14.916
23453W        W82747  42.371  11.692  12.994
23454W        W82748  29.985  37.495  13.980
23455W        W82749   6.783   0.867   1.867
23456W        W82750  21.115   9.684   2.790
23457W        W82751   1.800  35.973   0.904
23458W        W82752  14.271  29.429   1.876
23459W        W82753  36.567  17.186  11.061
23460W        W82754  24.608  36.477  14.486
23461W        W82755  27.954  15.655  14.404
23462W        W82756  17.771  39.038  12.940
23463W        W82757   7.327  20.128  12.376
23464W        W82758   1.376   8.893  11.391
23465W        W82759  10.846  38.554  11.479
23466W        W82760  17.702  21.653   0.325
23467W        W82761  35.367  42.283   3.332
23468W        W82762  38.948  31.419  11.415
23469W        W82763  35.445  21.553   3.752
23470W        W82764   8.840  43.908  13.400
23471W        W82765  40.054  13.744  10.638
23472W        W82766   6.779  42.976  10.579
23473W        W82767  20.602   5.215   4.678
23474W        W82768  11.771  27.170   3.234
23475W        W82769  39.004  28.186  10.942
23476W        W82770  16.272  43.312  11.587
23477W        W82771  21.023  30.583   4.838
23478W        W82772  29.035   7.808  11.953
23479W        W82773  10.793  44.929  11.484
23480W        W82774  44.346  37.361   0.783
23481W        W82775  11.630  35.538  14.862
23482W        W82776  25.102  35.903  14.416
23483W        W82777  31.576  34.905  11.943
23484W        W82778  33.494  31.484  11.958
23485W        W82779  25.967  23.729   0.908
23486W        W82780  27.473  20.657   2.671
23487W        W82781  13.708  17.247   3.845
23488W        W82782  20.104  39.932  10.641
23489W        W82783  32.629  41.822   4.732
23490W        W82784  17.682  44.794  10.592
23491W        W82785  39.863  27.627  14.292
23492W        W82786  33.547  12.296   4.261
23493W        W82787   8.886  24.704   1.278
23494W        W82788  19.247  28.458   0.792
23495W        W82789  29.631   4.838  14.839
23496W        W82790   3.796  19.102   3.684
23497W        W82791  44.335  44.771  13.796
23498W        W82792  37.887  22.613   4.817
23499W        W82793  34.926  42.904  14.483
23500W        W82794  26.142   0.372   3.228
23501W        W82795  33.482  25.998   4.149
23502W        W82796  13.821   7.846   3.248
23503W        W82797  29.085  19.778  13.468
23504W        W82798  40.360  17.781  14.000
23505W        W82799  11.253  34.037   3.666
23506W        W82800  31.075  23.238   0.740
23507W        W82801  27.125  43.769  12.919
23508W        W82802   3.848  24.093   2.738
23509W        W82803  11.252   1.963   1.762
23510W        W82804  34.971  32.405  10.613
23511W        W82805   4.798   0.952  12.988
23512W        W82806   8.687  25.102  12.860
23513W        W82807  26.062  43.935   3.348
23514W        W82808  32.506   7.302  13.385
23515W        W82809  13.196   5.299   3.796
23516W        W82810  43.471  36.887  11.510
23517W        W82811  34.478  32.570   0.732
23518W        W82812  42.434  32.427  12.444
23519W        W82813  22.682  30.465  13.872
23520W        W82814  18.057  34.107  11.585
23521W        W82815  20.741  10.267   3.797
23522W        W82816  13.606  34.592   1.285
23523W        W82817   4.928  33.948  11.475
23524W        W82818  36.995  41.529   2.810
23525W        W82819  33.379  21.240   1.401
23526W        W82820  25.181  40.853   0.409
23527W        W82821  35.081  17.712   2.689
23528W        W82822  28.609  22.042   4.598
23529W        W82823  41.318   8.706  12.523
23530W        W82824  18.108   5.886   2.384
23531W        W82825  17.733  11.737   3.275
23532W        W82826  32.544   3.325   4.633
23533W        W82827  39.986  13.291   4.169
23534W        W82828  44.936  25.123  13.443
23535W        W82829  30.947  28.150   1.389
23536W        W82830  19.642   8.671  10.578
23537W        W82831  36.035  19.717   2.277
23538W        W82832   1.419  18.179   3.783
23539W        W82833  43.516  38.925  10.047
23540W        W82834  37.428  18.226   1.851
23541W        W82835  15.699   9.260   4.789
23542W        W82836  11.783   6.896  12.905
23543W        W82837  18.173  29.437   4.748
23544W        W82838  24.638  17.739  14.357
23545W        W82839  37.374  26.091  11.565
23546W        W82840  34.009  31.457   3.239
23547W        W82841  39.055   5.307   0.257
23548W        W82842  21.551  13.768   1.918
23549W        W82843  44.398  32.036  12.920
23550W        W82844  42.876  26.669  14.318
23551W        W82845  31.926  36.438  11.611
23552W        W82846  39.500  39.478   3.311
23553W        W82847  40.484  27.153   3.804
23554W        W82848   6.250  20.661   3.176
23555W        W82849  12.343  17.253  14.805
23556W        W82850  14.322   5.233   1.839
23557W        W82851  27.166   2.438   2.249
23558W        W82852  40.309   7.705  14.304
23559W        W82853  18.142   7.823   0.750
23560W        W82854   5.327   7.685  12.003
23561W        W82855  15.598  14.314   3.756
23562W        W82856  37.987   6.917   1.310
23563W        W82857   0.794   3.916  14.316
23564W        W82858  18.670  23.557   2.222
23565W        W82859   2.306  32.069  11.547
23566W        W82860  42.305  40.534  11.430
23567W        W82861  41.883  13.224   1.405
23568W        W82862   9.366  29.929   2.295
23569W        W82863  31.532   6.909   2.201
23570W        W82864  23.632  15.598  10.928
23571W        W82865   5.752  14.794  13.018
23572W        W82866  23.648  11.801   1.863
23573W        W82867  40.462  32.112  11.478
23574W        W82868  21.653   4.930  10.158
23575W        W82869  23.082  15.259   4.243
23576W        W82870  29.149  26.017   3.303
23577W        W82871  39.361  11.299   0.268
23578W        W82872  31.439   0.952  11.904
23579W        W82873  18.277  42.417   1.402
23580W        W82874  40.385  27.461   3.149
23581W        W82875  19.271   2.235  11.040
23582W        W82876  35.899  12.358  11.438
23583W        W82877  34.885  37.870   2.737
23584W        W82878  28.647   2.235   4.136
23585W        W82879  20.228   9.224  11.043
23586W        W82880  18.603   1.925   2.305
23587W        W82881  44.401  32.588  12.382
23588W        W82882  23.068   6.916  13.480
23589W        W82883  18.116   5.319  11.613
23590W        W82884  31.477  10.673  14.409
23591W        W82885  28.069  34.051  12.065
23592W        W82886   2.420  20.625   2.263
23593W        W82887  12.848  37.443  11.498
23594W        W82888   8.858  23.207  12.504
23595W        W82889  27.982  17.190  13.057
23596W        W82890  14.752   8.866   0.962
23597W        W82891  10.672   0.751  12.017
23598W        W82892  20.273  13.132  10.526
23599W        W82893  13.214  17.584  13.834
23600W        W82894  23.492   3.261   0.284
23601W        W82895  10.751   6.850  10.968
23602W        W82896  28.944  34.883  11.975
23603W        W82897   6.221   3.822   4.134
23604W        W82898  11.789  25.963  13.977
23605W        W82899   4.766  42.852   3.809
23606W        W82900  25.112  29.985   3.314
23607W        W82901  36.872  14.680  10.502
23608W        W82902  34.393  24.655   3.387
23609W        W82903  16.714  30.030   0.481
23610W        W82904  22.998  30.638  11.559
23611W        W82905   6.264  11.827   4.130
23612W        W82906  14.140  36.902   3.284
23613W        W82907  13.743   4.212  11.870
23614W        W82908   2.403  33.539  12.892
23615W        W82909  32.100  23.689  12.417
23616W        W82910  16.581   8.171   3.681
23617W        W82911  43.331  12.118  10.907
23618W        W82912   2.861   4.703   0.323
23619W        W82913   2.913   7.890   4.682
23620W        W82914   0.818  23.047  12.437
23621W        W82915  14.203  40.850  14.965
23622W        W82916  32.397  30.159  13.966
23623W        W82917  22.212  22.177   3.366
23624W        W82918  32.076  40.802   5.576
23625W        W82919   0.916  28.667   2.685
23626W        W82920  25.617  25.133  11.058
23627W        W82921  21.030  30.937   4.300
23628W        W82922  11.370   5.433  14.354
23629W        W82923  35.495  39.446   4.128
23630W        W82924  14.131   9.288   3.768
23631W        W82925   4.267  20.240  13.923
23632W        W82926  33.075  44.929  14.416
23633W        W82927  28.144  41.017  13.438
23634W        W82928  35.587   1.735  11.978
23635W        W82929  30.944  19.175   2.713
23636W        W82930  43.928   7.786  11.507
23637W        W82931  42.840  35.399  12.569
23638W        W82932  29.493  32.615  12.383
23639W        W82933  29.163  26.638   0.747
23640W        W82934   8.239  29.044   0.855
23641W        W82935  16.318   7.181   4.288
23642W        W82936  29.542  26.482  10.146
23643W        W82937  17.238  44.268  12.358
23644W        W82938   9.291  42.815  13.031
23645W        W82939   7.801  16.627  13.465
23646W        W82940  24.622  26.519   3.776
23647W        W82941  13.195  33.438   1.318
23648W        W82942  16.590  40.029   3.347
23649W        W82943  33.617   7.181   4.208
23650W        W82944  30.093   4.821   2.683
23651W        W82945  41.854  40.950  11.083
23652W        W82946  25.156   8.689  14.434
23653W        W82947  13.732   9.236  13.468
23654W        W82948  18.742  17.580   3.152
23655W        W82949   2.326   5.410   0.317
23656W        W82950  20.736  16.686  10.452
23657W        W82951  44.466  11.348  14.374
23658W        W82952  15.717   9.352  12.472
23659W        W82953  35.881   8.695  11.103
23660W        W82954  11.838  26.633  10.406
23661W        W82955  40.970  13.324  11.103
23662W        W82956   9.179  23.061  12.838
23663W        W82957  25.552   0.487  14.953
23664W        W82958  18.559  36.378  11.505
23665W        W82959  24.641   5.382  11.566
23666W        W82960  34.061  34.447  13.917
23667W        W82961  14.189   4.941  12.569
23668W        W82962   5.348  13.646  13.804
23669W        W82963  26.577  15.684   2.370
23670W        W82964   2.751  26.020   4.701
23671W        W82965  22.121  16.201   2.303
23672W        W82966  26.111   8.799  12.866
23673W        W82967  32.410  20.590  12.043
23674W        W82968   3.336  35.370   0.791
23675W        W82969   9.788  38.043  12.497
23676W        W82970  35.553   2.928  13.471
23677W        W82971   1.330   2.859  12.518
23678W        W82972  26.126  33.120  12.517
23679W        W82973  13.138  29.096   0.346
23680W        W82974  23.545  19.561   3.737
23681W        W82975  15.748  40.842   4.225
23682W        W82976  22.116  43.439  12.830
23683W        W82977   0.853   4.879  11.553
23684W        W82978  32.108  33.973   3.326
23685W        W82979  33.416  19.272  10.944
23686W        W82980  38.929  40.382  14.492
23687W        W82981  24.190   1.254   0.382
23688W        W82982   2.852  37.555   0.342
23689W        W82983  29.136  41.468  13.939
23690W        W82984  44.805   7.236  11.915
23691W        W82985  35.078  18.572  12.986
23692W        W82986  32.953  31.444   2.205
23693W        W82987  21.183  41.347   2.803
23694W        W82988  29.642   9.381  12.492
23695W        W82989  30.154  42.426   2.704
23696W        W82990  31.902  23.029  13.979
23697W        W82991  26.085  31.451   2.901
23698W        W82992  24.693  38.893   3.835
23699W        W82993  22.632  24.996  11.116
23700W        W82994   1.260  40.473  12.494
23701W        W82995  37.939  34.394   9.924
23702W        W82996  18.277  24.204  11.103
23703W        W82997   3.947  33.031   1.889
23704W        W82998  10.851  42.933   3.748
23705W        W82999  25.512  25.148  13.409
23706W        W83000  22.236  21.741  10.515
23707W        W83001   4.874  10.244  13.468
23708W        W83002  22.032  36.573  11.549
23709W        W83003  22.710  14.628   9.964
23710W        W83004  44.925  13.268  11.418
23711W        W83005  34.495  22.192  14.376
23712W        W83006  12.810  33.967   2.712
23713W        W83007  14.636  32.894  12.538
23714W        W83008  24.140  35.584   4.835
23715W        W83009  14.617  41.906   1.224
23716W        W83010   6.428   1.365   1.352
23717W        W83011  39.900  31.562   3.806
23718W        W83012  21.608  17.276  12.006
23719W        W83013  37.010  32.993   4.178
23720W        W83014  35.963  42.984   0.892
23721W        W83015   1.968   5.738   4.670
23722W        W83016  29.148  26.683  14.492
23723W        W83017  21.023  11.809   2.891
23724W        W83018   6.253   1.837  13.338
23725W        W83019   4.821  16.566  13.877
23726W        W83020  38.358  34.991  10.987
23727W        W83021  15.238  27.029   4.704
23728W        W83022  11.758   1.835   2.823
23729W        W83023  36.088   6.880   5.209
23730W        W83024   1.280  28.444   1.320
23731W        W83025  24.982  28.679  11.610
23732W        W83026   1.791   8.691  14.787
23733W        W83027  23.719  39.502   0.290
23734W        W83028  38.864  31.906  10.089
23735W        W83029   7.297  10.240  13.395
23736W        W83030  20.205  25.683  12.578
23737W        W83031  35.859  37.517  11.888
23738W        W83032  32.444  41.523   1.364
23739W        W83033  19.258  14.633   2.216
23740W        W83034   8.809   9.874  14.471
23741W        W83035  34.955  34.489   5.306
23742W        W83036  28.591  36.507  11.879
23743W        W83037  13.698  18.272  12.566
23744W        W83038  15.093  44.449   2.784
23745W        W83039  41.457   4.790  11.092
23746W        W83040  19.693  28.587  11.499
23747W        W83041  12.611  38.962  12.971
23748W        W83042  41.510   4.897  11.478
23749W        W83043   4.717  41.937   4.690
23750W        W83044  34.450  24.642   1.368
23751W        W83045  12.360  18.668  10.483
23752W        W83046  24.163  24.525   2.879
23753W        W83047  31.945   7.863  14.426
23754W        W83048  26.510  41.400   0.858
23755W        W83049  17.183  11.631  13.869
23756W        W83050  41.947  20.179  14.890
23757W        W83051   8.262  14.699  11.387
23758W        W83052  39.821   8.694  14.778
23759W        W83053  19.712  38.514  13.831
23760W        W83054  36.501   0.271   2.799
23761W        W83055  38.504  42.448   3.854
23762W        W83056   6.866   7.346  12.891
23763W        W83057  33.422  27.011   4.807
23764W        W83058  33.910  34.068  11.416
23765W        W83059   3.352  11.834   5.273
23766W        W83060  42.027  18.614   3.641
23767W        W83061  25.157   9.665   1.889
23768W        W83062   9.814  32.115  13.968
23769W        W83063  17.298  26.167  12.473
23770W        W83064  25.494  40.055   4.310
23771W        W83065   8.706  31.578  14.929
23772W        W83066  31.581  31.974  10.641
23773W        W83067  25.988  17.239   2.291
23774W        W83068  20.210  26.079  13.927
23775W        W83069  33.482  32.912  10.516
23776W        W83070  21.134  22.241  13.014
23777W        W83071  39.319  36.518   3.838
23778W        W83072  13.717  19.586   2.669
23779W        W83073  16.258  32.609  10.566
23780W        W83074  24.069  34.567  10.002
23781W        W83075  37.508  23.521  12.465
23782W        W83076  38.970  15.280   5.185
23783W        W83077  24.115  11.802  12.577
23784W        W83078  30.523   8.844  14.769
23785W        W83079  28.436  26.585  13.059
23786W        W83080  34.887  27.479  12.408
23787W        W83081  31.470   0.429  11.015
23788W        W83082  17.741  44.486  10.491
23789W        W83083  35.077  31.440   2.230
23790W        W83084  41.921  22.560  10.972
23791W        W83085  20.152  34.893   0.895
23792W        W83086  38.034  10.676  12.842
23793W        W83087  14.669  24.223  13.958
23794W        W83088  17.144   8.733   2.882
23795W        W83089  16.701  26.672   4.623
23796W        W83090  12.643  12.250   4.281
23797W        W83091  12.733  16.283  14.761
23798W        W83092   6.302  31.010  10.488
23799W        W83093  24.180  43.767   0.245
23800W        W83094  24.117   3.272   4.628
23801W        W83095  16.259  31.085  13.012
23802W        W83096   8.807  26.471   3.227
23803W        W83097  13.137   9.802  12.350
23804W        W83098   0.765  42.788  11.031
23805W        W83099  30.532  18.282  10.548
23806W        W83100  19.576  38.482   4.315
23807W        W83101   7.774  24.694   4.248
23808W        W83102  28.469  22.619  10.477
23809W        W83103  10.754  26.630  13.950
23810W        W83104  32.464  37.061  10.557
23811W        W83105  10.840  16.778  14.430
23812W        W83106  17.168  20.085   3.744
23813W        W83107  23.189   1.782  14.887
23814W        W83108  23.607  22.187   0.436
23815W        W83109  20.665  23.540   3.690
23816W        W83110   7.306  22.675   0.847
23817W        W83111   6.395  40.393   4.255
23818W        W83112   5.916  15.248  11.524
23819W        W83113   6.842  11.796  12.932
23820W        W83114  12.851  20.146   0.824
23821W        W83115  23.015   3.827  12.087
23822W        W83116  38.902  28.091  12.467
23823W        W83117  44.819  24.480  14.896
23824W        W83118  16.697  43.809   4.807
23825W        W83119  19.621  23.022  10.498
23826W        W83120  41.811   2.466   0.309
23827W        W83121   0.410  12.678  11.446
23828W        W83122  26.187  38.964   1.340
23829W        W83123  41.482  26.078  11.882
23830W        W83124  17.197  32.993  12.965
23831W        W83125   8.322  10.705  11.880
23832W        W83126  13.232  12.321  12.964
23833W        W83127  36.580  19.672   0.440
23834W        W83128  11.280  14.302  10.896
23835W        W83129  28.441  15.287  13.843
23836W        W83130  17.136  15.273   0.735
23837W        W83131  15.770  16.750   9.956
23838W        W83132  37.523  40.802   2.743
23839W        W83133  11.764   4.221   3.631
23840W        W83134  26.974  15.301  10.895
23841W        W83135   8.166   3.875  12.842
23842W        W83136  27.103   9.814  11.575
23843W        W83137  24.051  19.548  14.846
23844W        W83138   8.699  26.171   4.343
23845W        W83139  26.155  26.594   1.368
23846W        W83140  14.321  34.884   4.786
23847W        W83141  33.477  31.632   0.957
23848W        W83142  21.745  12.203   2.684
23849W        W83143  19.054  34.370   1.744
23850W        W83144  16.622   5.743   3.188
23851W        W83145  27.124   0.432  13.902
23852W        W83146  14.773   9.274  12.894
23853W        W83147  27.123  19.055  13.307
23854W        W83148  32.994  13.636   0.338
23855W        W83149  34.426  36.877  12.073
23856W        W83150  20.747   5.252   3.263
23857W        W83151  33.022  42.014   2.269
23858W        W83152  41.419  18.642  10.609
23859W        W83153  40.931  32.620  13.796
23860W        W83154  11.237  12.671  13.907
23861W        W83155  40.962  14.597   3.154
23862W        W83156  17.747  39.478   2.233
23863W        W83157  15.808  38.946  14.279
23864W        W83158   8.299  14.115  14.884
23865W        W83159  40.822  37.389   0.300
23866W        W83160   1.951  13.684  10.961
23867W        W83161  31.014  12.342  10.614
23868W        W83162   4.841  19.658   0.798
23869W        W83163   6.381  40.374   2.895
23870W        W83164  14.256  27.093   2.296
23871W        W83165  14.252  11.758  12.829
23872W        W83166  11.695  38.851   5.190
23873W        W83167   6.920  13.802  11.029
23874W        W83168  19.667   0.364  14.292
23875W        W83169  30.067  35.465  14.399
23876W        W83170  42.886  32.960   0.369
23877W        W83171  43.821  11.354  12.410
23878W        W83172  38.956  41.303   1.746
23879W        W83173  42.931   1.278   3.334
23880W        W83174  10.168  27.602  12.072
23881W        W83175  35.103   9.172  12.500
23882W        W83176   8.685  13.173   2.882
23883W        W83177   9.183  28.086   3.828
23884W        W83178   0.805  13.724  12.981
23885W        W83179  17.559  41.340  11.556
23886W        W83180  30.946  44.768  14.829
23887W        W83181  43.892  32.488  10.492
23888W        W83182  38.455  38.001  14.774
23889W        W83183  26.194  24.578  13.839
23890W        W83184   9.807  14.745  10.564
23891W        W83185   7.190   4.882  13.360
23892W        W83186  37.508  33.967  12.501
23893W        W83187  36.966  27.986   2.677
23894W        W83188  35.965  44.784  14.445
23895W        W83189  12.175  18.213   3.684
23896W        W83190   7.702   2.924   4.830
23897W        W83191  23.606   5.434  11.450
23898W        W83192  29.618   9.741   2.408
23899W        W83193  32.945  31.143   3.708
23900W        W83194  21.178  15.662  10.119
23901W        W83195  33.418  27.493  10.898
23902W        W83196  43.409  44.857   9.442
23903W        W83197   4.934   0.781   4.641
23904W        W83198  13.787  18.612   3.171
23905W        W83199  31.077  16.643  11.397
23906W        W83200  40.394  35.402  11.465
23907W        W83201  14.833   2.326  11.554
23908W        W83202  17.794  25.668  12.033
23909W        W83203  16.274  14.818  12.461
23910W        W83204  22.574  26.533   1.421
23911W        W83205  20.037  16.200   1.749
23912W        W83206  37.499   1.843  14.872
23913W        W83207   0.742  12.805   3.650
23914W        W83208  10.837  26.148   3.158
23915W        W83209  11.339  41.495  14.995
23916W        W83210  43.932   5.736   4.791
23917W        W83211  24.198  15.729   2.180
23918W        W83212  26.159  37.392  13.494
23919W        W83213   5.247  12.270   1.371
23920W        W83214  24.695  28.446  10.476
23921W        W83215   4.443  30.001   1.300
23922W        W83216  15.219   4.443  10.965
23923W        W83217  36.879  37.582   3.237
23924W        W83218  32.890  34.384   4.176
23925W        W83219   3.259  39.848  10.494
23926W        W83220  29.140   3.843   2.372
23927W        W83221  10.157   8.217   3.220
23928W        W83222   4.774  30.556   1.763
23929W        W83223  35.498  43.846  13.826
23930W        W83224  10.274  30.931   1.730
23931W        W83225  40.546  30.621   1.387
23932W        W83226  21.757  15.110   0.357
23933W        W83227  25.001   8.781   2.329
23934W        W83228  35.951  13.172  12.413
23935W        W83229   4.377   7.196  14.429
23936W        W83230  40.352  35.432   5.230
23937W        W83231  27.553  12.254   4.206
23938W        W83232   7.318   8.292  14.436
23939W        W83233  20.068  12.337  11.613
23940W        W83234  20.635   1.914   4.756
23941W        W83235  31.051  10.671  14.422
23942W        W83236  26.505   0.962  14.330
23943W        W83237  42.017  17.153  14.277
23944W        W83238  19.210  27.049  11.007
23945W        W83239  40.827  19.751   3.176
23946W        W83240  42.849  10.286  13.511
23947W        W83241   5.348   6.885   0.272
23948W        W83242  42.314   4.353  13.874
23949W        W83243  33.406  42.436   4.307
23950W        W83244  37.068  24.010   1.849
23951W        W83245  15.654  26.206   9.951
23952W        W83246  31.114  40.529  14.855
23953W        W83247  35.574  25.991   3.202
23954W        W83248   6.909   9.246  14.908
23955W        W83249  44.989   9.175  11.600
23956W        W83250  19.107  34.576  14.978
23957W        W83251  34.409   8.384   0.839
23958W        W83252  12.212  25.021  11.913
23959W        W83253   4.216  18.666   1.860
23960W        W83254  20.226  42.454  11.439
23961W        W83255   5.403  16.698   1.856
23962W        W83256   6.389  19.071   4.286
23963W        W83257  22.101  30.632  11.083
23964W        W83258  44.472   5.742  12.871
23965W        W83259  37.993  27.964   2.272
23966W        W83260  29.537  42.006  14.906
23967W        W83261  39.558  28.461   1.759
23968W        W83262  28.003  15.156   3.343
23969W        W83263  21.177  26.631  12.033
23970W        W83264  16.768  38.866  10.549
23971W        W83265  31.979  43.797   0.365
23972W        W83266  25.090  22.576   3.686
23973W        W83267  31.643  21.668  13.491
23974W        W83268  15.749  15.297  12.876
23975W        W83269  37.852   7.695   1.343
23976W        W83270  34.881  11.200   1.768
23977W        W83271  16.641  22.244  11.111
23978W        W83272  33.945  32.009   0.895
23979W        W83273  44.398  13.194  13.329
23980W        W83274  30.582  38.412   5.301
23981W        W83275  14.626  36.057  14.882
23982W        W83276  33.023  24.172   4.186
23983W        W83277  18.098  39.458  12.445
23984W        W83278  35.993  22.157   1.419
23985W        W83279  34.869  39.450  11.053
23986W        W83280   2.781  33.093   4.781
23987W        W83281  24.624  22.626  10.971
23988W        W83282  18.735  30.484   5.206
23989W        W83283  18.256   6.695   3.253
23990W        W83284  24.566  23.520  10.513
23991W        W83285  21.531  32.070  12.882
23992W        W83286  39.525   5.843  13.003
23993W        W83287  24.116   8.279   3.303
23994W        W83288  15.180  28.116   4.339
23995W        W83289  41.991  10.738   1.862
23996W        W83290   1.877  10.841   0.295
23997W        W83291  28.626  17.658  10.454
23998W        W83292  43.429   7.191   5.155
23999W        W83293   1.773  21.752   4.223
24000W        W83294  28.522   0.292  10.921
24001W        W83295  27.677   0.353   0.760
24002W        W83296  44.327  11.673   2.338
24003W        W83297  29.086  43.431   0.246
24004W        W83298  22.082  19.232  12.090
24005W        W83299  16.226   2.371  10.425
24006W        W83300   2.242  28.009  12.060
24007W        W83301  33.461   3.784   4.663
24008W        W83302  29.973  38.343  14.848
24009W        W83303  13.280  27.626   4.302
24010W        W83304   4.230  42.800  14.510
24011W        W83305  12.798  19.764   2.838
24012W        W83306  44.795   9.822   4.783
24013W        W83307   5.796  10.793   1.327
24014W        W83308  29.553   8.720   3.360
24015W        W83309  27.633  32.966  12.008
24016W        W83310  13.755  25.615   1.735
24017W        W83311  10.774  36.872  12.467
24018W        W83312  43.789  17.732   2.847
24019W        W83313  29.950  27.959   0.426
24020W        W83314   3.454  21.050   5.297
24021W        W83315  19.715   8.888  10.024
24022W        W83316  12.181  38.542   0.450
24023W        W83317   1.918  22.078  11.995
24024W        W83318  15.313  10.362   0.300
24025W        W83319  17.667   9.814   0.472
24026W        W83320  40.814  21.614   2.241
24027W        W83321  28.137  29.574  10.486
24028W        W83322  26.470  32.046   1.257
24029W        W83323  34.478   5.713  13.906
24030W        W83324   1.368   1.380  13.015
24031W        W83325  28.620  44.445   3.760
24032W        W83326  11.207  37.998   2.761
24033W        W83327  13.844  32.503   3.761
24034W        W83328  29.524  24.671  12.576
24035W        W83329   0.890   9.255   4.820
24036W        W83330  32.442   5.239   3.770
24037W        W83331  14.746   6.417  11.531
24038W        W83332  30.108  32.600   2.681
24039W        W83333  36.060  32.058   0.447
24040W        W83334  39.466  31.432   4.729
24041W        W83335  23.514  32.125   2.383
24042W        W83336  17.730  23.002  13.916
24043W        W83337   2.779  22.563   2.782
24044W        W83338  32.402   0.883  10.043
24045W        W83339  31.929  31.957  14.972
24046W        W83340  44.473  13.283  11.425
24047W        W83341  25.593  34.463  11.885
24048W        W83342   9.773  13.686   0.887
24049W        W83343  35.990  10.313   0.924
24050W        W83344  26.639  37.040  11.068
24051W        W83345  42.991  18.192  10.032
24052W        W83346  11.649  16.811   0.913
24053W        W83347  17.237  30.138  10.427
24054W        W83348  44.772   5.298   3.249
24055W        W83349   3.920  28.589   2.254
24056W        W83350  40.471  33.438   1.797
24057W        W83351   2.823  39.402  13.979
24058W        W83352  21.243   9.369  10.128
24059W        W83353  16.734  26.993   2.380
24060W        W83354  19.203   9.727   2.400
24061W        W83355  33.517   1.898  12.958
24062W        W83356   3.721   0.884  13.044
24063W        W83357  36.885  39.532   2.391
24064W        W83358   4.795  22.641   3.358
24065W        W83359  43.381  29.118   1.226
24066W        W83360  41.420  16.687   1.713
24067W        W83361  42.800  39.329  14.005
24068W        W83362   0.918  31.541   3.723
24069W        W83363   4.704  27.645   4.115
24070W        W83364  43.444  26.170   0.416
24071W        W83365  26.058  11.748  13.454
24072W        W83366  34.440  35.883  12.065
24073W        W83367  26.544  25.000   4.617
24074W        W83368  41.864  16.264  11.107
24075W        W83369  38.343  39.855   0.348
24076W        W83370  30.465   6.863   1.701
24077W        W83371   8.831  43.017  10.902
24078W        W83372  39.919  16.318  10.500
24079W        W83373  10.295  22.551  11.015
24080W        W83374  26.643  35.873  11.947
24081W        W83375  25.605  12.180   2.877
24082W        W83376   8.675  28.557   3.211
24083W        W83377   6.352  28.573  14.416
24084W        W83378   9.189  15.291  14.490
24085W        W83379  27.486  40.040  13.870
24086W        W83380  23.629  10.730  14.799
24087W        W83381  12.630   2.251   0.386
24088W        W83382  31.121  19.188  13.501
24089W        W83383  36.371  15.753   1.740
24090W        W83384  22.050  18.599   2.805
24091W        W83385  14.668  29.616  13.934
24092W        W83386   2.374  25.994   2.700
24093W        W83387  11.788  31.996   5.187
24094W        W83388  29.093  25.124   5.209
24095W        W83389  14.335  31.423   1.927
24096W        W83390  38.481  14.786   4.610
24097W        W83391  21.253  40.326  13.412
24098W        W83392  19.617   7.172  11.046
24099W        W83393  20.687  25.191  13.472
24100W        W83394  19.167  14.755   3.279
24101W        W83395  10.711  22.236   4.733
24102W        W83396   4.769  13.812  13.518
24103W        W83397  26.694  31.541  13.396
24104W        W83398  22.013  24.626   3.718
24105W        W83399  31.948   5.883   1.248
24106W        W83400  15.592  18.754  13.545
24107W        W83401   3.911  14.826   0.964
24108W        W83402  16.153  34.598  10.507
24109W        W83403  19.767  43.972   1.784
24110W        W83404   0.454   3.865  11.078
24111W        W83405  17.272  41.801  14.968
24112W        W83406  34.457  29.658   2.403
24113W        W83407   4.226  32.590  11.607
24114W        W83408   4.929  24.199   0.246
24115W        W83409   6.909  28.002  14.791
24116W        W83410   3.311  44.972  12.429
24117W        W83411  10.780  30.558   5.253
24118W        W83412   2.397  18.715  12.555
24119W        W83413   7.367   8.354  13.318
24120W        W83414  28.996   7.336  13.975
24121W        W83415  15.222  12.356  13.955
24122W        W83416  20.539  18.720  12.068
24123W        W83417  12.176  20.725   3.219
24124W        W83418   8.334  11.769  13.797
24125W        W83419  23.613  37.502   3.734
24126W        W83420  12.678  40.340   3.651
24127W        W83421  12.260  10.865   3.631
24128W        W83422   7.241  43.434  13.481
24129W        W83423  14.193  13.122   3.252
24130W        W83424   6.336  21.658   4.142
24131W        W83425  21.603  43.008  12.041
24132W        W83426  22.245  33.951   3.635
24133W        W83427  22.234  24.194  13.385
24134W        W83428  21.171  33.569   4.832
24135W        W83429   3.812   5.358   1.883
24136W        W83430  10.375  25.633   0.403
24137W        W83431   9.768  33.074  14.348
24138W        W83432  38.435  40.899  13.451
24139W        W83433  19.237  44.889  14.350
24140W        W83434  33.522  19.181  12.020
24141W        W83435  32.588  16.267   0.866
24142W        W83436  43.368  32.028   2.823
24143W        W83437  32.567   4.294   2.375
24144W        W83438  42.809   0.947  14.341
24145W        W83439  40.471  42.491  12.918
24146W        W83440  26.559  13.319  12.929
24147W        W83441   0.459  31.059  14.353
24148W        W83442  34.084  14.679   4.117
24149W        W83443   2.784  40.497  13.499
24150W        W83444  37.401  31.538   0.379
24151W        W83445  21.043  33.491   3.222
24152W        W83446  35.382  44.445  12.873
24153W        W83447  23.656   0.386  10.631
24154W        W83448  19.285  22.083  13.310
24155W        W83449   2.427  39.385  12.907
24156W        W83450   7.335  33.586  10.557
24157W        W83451  29.925  27.530   3.633
24158W        W83452  17.204  16.688  14.021
24159W        W83453   3.375  32.412  10.895
24160W        W83454  18.754  19.672  12.560
24161W        W83455  11.673   3.393  10.008
24162W        W83456  36.584   3.231  12.089
24163W        W83457  44.342  10.262   1.214
24164W        W83458  32.423  17.171  13.520
24165W        W83459  28.673   5.371  13.352
24166W        W83460  40.972  31.039   1.265
24167W        W83461   9.872  25.632   0.391
24168W        W83462  43.874  33.068   4.240
24169W        W83463  10.315  11.251  12.852
24170W        W83464  18.614   9.842   4.329
24171W        W83465  40.510   3.829   3.331
24172W        W83466  25.492   3.245   2.756
24173W        W83467  21.736  25.651  12.516
24174W        W83468  31.915  13.672  11.036
24175W        W83469  28.018  16.572  13.998
24176W        W83470  29.662   5.281  13.004
24177W        W83471  19.237  11.841  12.387
24178W        W83472  26.108   6.699   0.320
24179W        W83473  11.215  28.959   2.804
24180W        W83474  27.622  10.750   3.679
24181W        W83475  30.416  30.534   0.354
24182W        W83476  44.297   4.809  10.548
24183W        W83477  33.019  10.230  13.378
24184W        W83478  25.635  22.053  10.470
24185W        W83479  25.523  14.123  12.359
24186W        W83480   1.361  20.087   1.286
24187W        W83481  19.622   1.238   0.887
24188W        W83482  28.566  38.941   0.359
24189W        W83483  21.626   5.401   3.766
24190W        W83484  20.652   8.214  11.471
24191W        W83485   2.825  20.251  11.088
24192W        W83486  28.058  11.328   4.602
24193W        W83487  25.181  43.504   4.244
24194W        W83488   5.398   3.765   5.276
24195W        W83489  27.987  11.315   0.930
24196W        W83490  28.459   8.184   1.313
24197W        W83491  42.806  19.630   3.849
24198W        W83492   9.885   8.835  14.952
24199W        W83493  16.812  32.977  12.488
24200W        W83494  35.512  29.651   2.820
24201W        W83495   7.906  40.407   0.442
24202W        W83496  42.939  32.613   0.379
24203W        W83497  25.116  28.988   4.309
24204W        W83498  26.568  22.024  12.389
24205W        W83499  28.094  19.685   0.353
24206W        W83500  44.342  25.207  10.124
24207W        W83501  30.952  41.397  14.904
24208W        W83502  13.337  43.890   1.233
24209W        W83503  12.204  30.074  10.910
24210W        W83504   6.423   7.312   2.670
24211W        W83505  26.456  15.301  13.350
24212W        W83506   1.801  31.490  13.332
24213W        W83507  15.300  18.737  12.513
24214W        W83508  20.203  29.580  11.606
24215W        W83509  11.624  21.189  14.014
24216W        W83510   0.749  23.561  13.808
24217W        W83511  20.245   7.184  11.055
24218W        W83512  19.064  31.455  13.313
24219W        W83513  10.321   1.758  11.564
24220W        W83514  29.024  15.199   4.137
24221W        W83515  21.749  26.663  10.576
24222W        W83516   1.770  44.797   4.704
24223W        W83517  20.530   6.293  13.055
24224W        W83518  33.993  30.047   4.723
24225W        W83519  26.986  25.603   3.295
24226W        W83520  18.691  42.910  10.522
24227W        W83521  21.673  17.657   2.828
24228W        W83522  15.199  33.995  14.280
24229W        W83523  13.737  20.047   3.380
24230W        W83524  42.351  11.759   4.184
24231W        W83525  18.568   6.279  14.413
24232W        W83526  11.364  43.452  11.997
24233W        W83527  10.375  18.674  13.954
24234W        W83528  32.533  36.931   2.735
24235W        W83529  26.129   8.358  14.481
24236W        W83530  39.538  32.000  11.517
24237W        W83531  44.469  37.928  12.541
24238W        W83532  33.941  44.324   4.148
24239W        W83533  38.366   1.361   2.225
24240W        W83534   6.245   9.788  12.029
24241W        W83535  13.697  37.472  14.424
24242W        W83536   9.758  27.668   5.235
24243W        W83537  31.959   0.326  13.355
24244W        W83538  24.005  14.787   1.811
24245W        W83539  17.187  19.674   2.271
24246W        W83540   2.422  30.095   2.787
24247W        W83541  11.669  24.033  10.565
24248W        W83542   7.745  41.011   1.420
24249W        W83543  31.061  17.629  14.293
24250W        W83544  13.349  21.259   3.774
24251W        W83545  19.681  24.217  11.057
24252W        W83546  20.102  18.292  12.916
24253W        W83547  28.106   1.821   2.765
24254W        W83548  14.098  20.523   4.161
24255W        W83549  19.733  44.277   3.763
24256W        W83550   8.291   7.683   0.361
24257W        W83551  33.529  19.720  13.846
24258W        W83552  19.250  19.058  11.397
24259W        W83553  42.452  13.615   3.189
24260W        W83554  27.570  16.110   3.814
24261W        W83555  10.777  20.606   4.247
24262W        W83556  16.133  16.128  14.800
24263W        W83557   2.352  38.481  10.975
24264W        W83558  22.594  39.441  10.506
24265W        W83559  33.428  15.683   4.207
24266W        W83560  18.242  15.620  12.339
24267W        W83561  15.220  35.569  10.567
24268W        W83562  28.680  34.988   4.303
24269W        W83563  18.635  32.028  13.029
24270W        W83564  21.187  11.697   4.732
24271W        W83565   3.320  16.704   1.362
24272W        W83566  25.676   7.686  12.424
24273W        W83567  43.904   7.381   2.860
24274W        W83568  34.609  42.016   3.736
24275W        W83569  18.559  16.746   2.803
24276W        W83570  28.504   3.297   0.424
24277W        W83571   0.271  42.887  12.394
24278W        W83572   8.385  20.710  12.373
24279W        W83573  44.892  28.010  14.347
24280W        W83574  37.875  35.077   2.725
24281W        W83575  37.567  43.434   4.827
24282W        W83576  13.741  13.636  11.036
24283W        W83577  32.007   4.347  13.029
24284W        W83578   4.808  35.911  13.887
24285W        W83579   4.744  40.399  11.910
24286W        W83580  16.165  42.023   3.152
24287W        W83581   7.861   4.907  13.309
24288W        W83582   0.345  43.008   1.781
24289W        W83583  12.266  13.699   2.200
24290W        W83584  24.152   2.321   2.672
24291W        W83585  13.304  44.005  10.593
24292W        W83586  27.608   5.387   4.127
24293W        W83587   2.898  18.250   4.235
24294W        W83588   9.366  22.651  10.967
24295W        W83589  38.544  24.623  13.448
24296W        W83590  15.203  44.300   4.265
24297W        W83591  30.474  12.312   1.357
24298W        W83592  36.919  19.266  12.395
24299W        W83593  12.244  10.703  14.324
24300W        W83594  39.823  15.607   2.830
24301W        W83595  24.179   4.870  12.398
24302W        W83596  29.067  25.562   1.835
24303W        W83597  29.596  44.434  14.403
24304W        W83598  25.468  12.714  14.327
24305W        W83599  44.774  27.558  12.404
24306W        W83600  37.578   1.240  13.435
24307W        W83601  21.143  32.918   0.399
24308W        W83602  34.928  24.230  14.011
24309W        W83603  26.620   8.401   0.350
24310W        W83604  41.985  43.437   4.117
24311W        W83605  22.125   2.277  10.516
24312W        W83606  23.137   3.933  11.073
24313W        W83607   0.948  11.711  12.904
24314W        W83608  24.657   5.728   1.414
24315W        W83609  43.458  42.450  11.018
24316W        W83610  40.849   6.693   0.444
24317W        W83611  34.069  17.240   2.759
24318W        W83612   5.366  28.662   0.455
24319W        W83613  22.021  39.914   1.722
24320W        W83614  29.145   3.799  13.516
24321W        W83615  26.641  12.299   3.653
24322W        W83616  22.194   2.332  12.550
24323W        W83617  20.108  41.986  13.820
24324W        W83618  38.396  23.148   0.898
24325W        W83619  13.134  10.364   0.334
24326W        W83620  33.545   9.813  11.899
24327W        W83621  21.121  42.383   3.160
24328W        W83622  10.275  31.612   0.815
24329W        W83623  29.565  17.659   3.700
24330W        W83624  42.486  23.582   1.431
24331W        W83625  35.529  34.966  11.420
24332W        W83626  32.400  42.405  12.402
24333W        W83627  34.076   5.766  11.883
24334W        W83628  43.006   4.436   1.725
24335W        W83629  13.790   7.176  12.835
24336W        W83630  10.318  13.845   0.954
24337W        W83631  23.225  32.129  14.325
24338W        W83632  36.502  33.570   2.339
24339W        W83633   6.417  11.866   0.753
24340W        W83634  10.804  25.161   4.167
24341W        W83635  15.223   8.268  14.805
24342W        W83636   4.830  41.400   4.829
24343W        W83637  44.009  17.145  13.506
24344W        W83638   7.668  13.147  13.801
24345W        W83639   2.247  10.785   3.657
24346W        W83640  43.021  10.177  12.868
24347W        W83641   8.658  41.941   4.721
24348W        W83642  21.102  18.592  11.883
24349W        W83643   8.878   3.924   4.179
24350W        W83644  28.442  27.118  14.935
24351W        W83645  27.055  44.812   0.434
24352W        W83646  37.423  21.716   1.746
24353W        W83647  29.524   2.763  14.288
24354W        W83648  13.334  25.713   4.700
24355W        W83649   6.406   3.886   0.472
24356W        W83650  41.449  28.130  14.821
24357W        W83651  38.825  25.637  12.572
24358W        W83652  22.609  34.018   3.839
24359W        W83653  32.626  16.615   3.711
24360W        W83654  30.521  26.582   3.776
24361W        W83655  13.636  11.202  12.999
24362W        W83656   4.335  16.288  14.786
24363W        W83657  37.437   8.345   0.753
24364W        W83658  33.470  38.378  14.461
24365W        W83659   5.237  16.651   2.815
24366W        W83660  42.314  19.552  12.487
24367W        W83661  41.322  35.028  10.537
24368W        W83662  27.964  22.096   1.308
24369W        W83663  32.524  32.933  14.413
24370W        W83664  38.920  39.949   1.318
24371W        W83665  25.091  26.079  14.911
24372W        W83666  40.402  37.511   0.327
24373W        W83667   0.809  16.722   4.675
24374W        W83668  44.370  18.075  11.044
24375W        W83669   8.846  19.153   3.249
24376W        W83670   5.788  41.453  12.085
24377W        W83671  28.485  16.629   3.165
24378W        W83672  34.469  43.897  12.824
24379W        W83673   6.261   7.811   1.287
24380W        W83674  16.801   0.781   3.294
24381W        W83675  23.045   2.339   4.647
24382W        W83676  17.297  41.918  10.497
24383W        W83677  18.599  38.987  10.012
24384W        W83678  25.123  43.906  10.427
24385W        W83679   1.758  11.835  11.022
24386W        W83680  32.546  28.046   4.832
24387W        W83681  26.046  23.204  10.618
24388W        W83682  19.599  28.968  11.424
24389W        W83683  19.278   8.829   4.289
24390W        W83684  17.725  18.549  14.761
24391W        W83685  19.587  32.139  12.377
24392W        W83686  19.679  12.271   3.738
24393W        W83687  41.507  21.123  12.576
24394W        W83688  23.041   6.785   0.795
24395W        W83689  37.917  22.585   0.821
24396W        W83690   2.825  21.719  11.030
24397W        W83691  26.986   5.701   1.706
24398W        W83692   6.909  11.712  14.407
24399W        W83693  20.075  27.987  14.933
24400W        W83694  35.573  43.775  14.881
24401W        W83695  24.672  15.751   2.672
24402W        W83696  34.449  13.222   2.796
24403W        W83697  17.199  27.996  10.905
24404W        W83698  26.650  38.359   3.177
24405W        W83699  28.071   9.341   0.937
24406W        W83700   0.801  22.583   1.334
24407W        W83701  17.061  33.894   2.808
24408W        W83702   7.382  38.012   1.235
24409W        W83703  13.738  29.567   0.884
24410W        W83704   9.322  22.521  10.424
24411W        W83705  14.193  11.293  11.556
24412W        W83706   7.771   8.322   3.234
24413W        W83707  22.655  36.953  13.345
24414W        W83708  39.340  14.293  11.123
24415W        W83709  41.897   5.277  10.550
24416W        W83710  25.983  36.407  11.988
24417W        W83711  41.920  12.833   1.447
24418W        W83712  29.176  28.120  12.543
24419W        W83713   2.928  18.119  14.377
24420W        W83714  15.123  26.660   1.755
24421W        W83715  20.704  12.776  11.601
24422W        W83716  26.185  42.402   1.242
24423W        W83717  44.374   1.395   0.302
24424W        W83718  43.807   6.221  14.417
24425W        W83719  29.489  18.651   4.230
24426W        W83720  42.490  17.788  12.369
24427W        W83721  14.648   8.701  13.315
24428W        W83722  32.005  25.541  10.888
24429W        W83723  23.118  36.845  10.434
24430W        W83724   7.176  24.142  13.850
24431W        W83725  21.143   0.754  12.932
24432W        W83726  43.312  35.976   0.255
24433W        W83727  11.317  10.269   2.809
24434W        W83728  13.106  13.117  14.395
24435W        W83729   7.903  25.087   1.240
24436W        W83730  34.517  22.665   2.192
24437W        W83731  20.187  20.538   2.219
24438W        W83732   5.243  40.993  10.997
24439W        W83733  44.456  21.126  11.572
24440W        W83734  41.351  17.735   1.816
24441W        W83735  40.410  42.988   1.270
24442W        W83736  13.223  26.056  13.342
24443W        W83737  36.888  37.450   0.392
24444W        W83738  39.006  20.547  11.418
24445W        W83739  25.701  14.606  11.581
24446W        W83740  34.054  29.933   1.844
24447W        W83741  26.012  40.972  14.491
24448W        W83742  38.410  28.009  10.594
24449W        W83743  26.071  16.706  12.917
24450W        W83744  35.542  32.605   3.635
24451W        W83745  30.104   0.874   1.781
24452W        W83746  14.278  20.103   3.824
24453W        W83747  39.916  32.478  13.538
24454W        W83748  37.368  25.591  11.389
24455W        W83749   9.869  17.692  14.916
24456W        W83750  21.543  15.320   3.313
24457W        W83751  27.625   3.409  14.516
24458W        W83752   7.313  33.518   0.872
24459W        W83753  17.108  12.613   1.228
24460W        W83754   0.981  23.187   3.662
24461W        W83755  14.695  38.449  14.281
24462W        W83756  14.204   5.703   4.706
24463W        W83757  36.430  31.507   0.327
24464W        W83758  26.639  44.811   4.818
24465W        W83759  31.970  30.146  14.880
24466W        W83760  31.012  40.336   4.729
24467W        W83761  28.018  14.629   1.892
24468W        W83762   7.701  43.297  12.392
24469W        W83763   9.644  23.089   3.178
24470W        W83764  22.739  32.019   0.371
24471W        W83765  21.539  19.230  14.281
24472W        W83766   0.744  31.946   2.693
24473W        W83767  32.028  24.002   2.801
24474W        W83768  24.984  11.635  11.990
24475W        W83769  44.831   5.755   0.891
24476W        W83770  37.907  32.474   1.388
24477W        W83771  20.580  26.003   4.179
24478W        W83772  18.636  40.468  10.937
24479W        W83773  32.113  10.338   1.336
24480W        W83774  11.846  24.687  12.537
24481W        W83775  28.039  31.024   1.711
24482W        W83776  34.950  20.596   4.690
24483W        W83777  41.315  23.125  11.860
24484W        W83778  21.176  40.853  13.331
24485W        W83779  35.387   8.747  13.002
24486W        W83780  15.109   7.863  12.576
24487W        W83781  38.960  14.240  11.021
24488W        W83782   2.843  41.008  10.522
24489W        W83783  41.531  35.874   1.789
24490W        W83784  10.765  18.172  12.419
24491W        W83785  38.522  27.646  11.584
24492W        W83786  13.297  11.633  13.433
24493W        W83787   2.834  23.042  12.388
24494W        W83788  12.709   5.843   4.193
24495W        W83789  44.491  31.414   3.757
24496W        W83790  22.740  31.055   1.791
24497W        W83791  24.119  21.030   5.187
24498W        W83792  41.374   3.461   4.299
24499W        W83793   6.419  37.501   1.382
24500W        W83794  40.885  41.930  14.410
24501W        W83795   2.443  18.675  11.469
24502W        W83796   2.845  29.426  14.977
24503W        W83797  29.560  26.073  12.040
24504W        W83798  22.998   9.322  12.358
24505W        W83799  43.894  38.822  14.014
24506W        W83800  23.660  39.042   0.950
24507W        W83801  11.841   3.733   0.401
24508W        W83802  25.498  10.818  14.971
24509W        W83803  17.296  22.568   4.300
24510W        W83804   4.810  16.682   3.197
24511W        W83805  12.349  21.664  12.457
24512W        W83806   1.913  42.937  12.027
24513W        W83807  40.893  22.723   4.244
24514W        W83808  16.659  40.972   4.350
24515W        W83809  17.594  38.912  10.611
24516W        W83810  38.331  35.081   1.879
24517W        W83811  28.442  23.602  12.384
24518W        W83812  10.692  41.950  13.811
24519W        W83813  37.445  28.996  12.025
24520W        W83814  10.673  28.477  14.762
24521W        W83815  15.763  39.018  12.093
24522W        W83816  10.191  15.301   4.148
24523W        W83817   4.317  42.786   0.914
24524W        W83818  14.266   1.307   0.321
24525W        W83819   3.881  38.934  12.381
24526W        W83820  18.183  40.546  13.889
24527W        W83821  23.169  30.158   4.121
24528W        W83822  22.227  13.105   2.330
24529W        W83823  16.687  39.521   0.394
24530W        W83824   1.938  25.119  12.050
24531W        W83825  18.197  28.665   4.271
24532W        W83826  29.550  19.564  14.304
24533W        W83827  41.885  44.834   4.193
24534W        W83828  11.222   7.721  12.057
24535W        W83829  31.959  21.685  11.546
24536W        W83830  31.093   4.874   3.741
24537W        W83831   1.731  24.124   3.761
24538W        W83832  24.132  16.739  14.290
24539W        W83833   6.702  17.621  13.975
24540W        W83834  25.703  41.819  14.488
24541W        W83835  24.136  34.613   3.226
24542W        W83836  31.066  15.586   1.289
24543W        W83837  30.441  37.081   4.180
24544W        W83838   6.805  30.990   4.814
24545W        W83839   3.254  35.420   0.475
24546W        W83840  42.978  39.384  13.308
24547W        W83841   5.704  20.737   3.222
24548W        W83842  40.505   2.826  11.547
24549W        W83843  40.895  19.553   0.291
24550W        W83844  36.482  27.611   0.260
24551W        W83845  27.992   5.843   0.319
24552W        W83846  22.559  32.887   2.328
24553W        W83847  12.123  38.498   3.251
24554W        W83848  40.967  40.372  13.970
24555W        W83849  40.004  42.376  11.414
24556W        W83850  30.973  37.047   1.387
24557W        W83851  36.473  17.585   2.321
24558W        W83852  18.162  40.928  10.439
24559W        W83853   3.416   9.752   2.194
24560W        W83854  37.440   3.413  11.386
24561W        W83855  31.416  22.575   2.282
24562W        W83856  39.860  24.647   2.713
24563W        W83857   9.241  25.512  13.360
24564W        W83858  21.698  36.845  14.321
24565W        W83859  11.679  42.917  13.357
24566W        W83860  41.877  28.045  14.443
24567W        W83861  19.744  11.745  14.452
24568W        W83862  37.527  17.571   4.802
24569W        W83863  27.491  30.512   0.421
24570W        W83864  17.197  23.054  11.945
24571W        W83865   4.874  19.615  11.566
24572W        W83866  29.094  24.987   0.382
24573W        W83867   9.356  17.116  14.873
24574W        W83868  33.435  28.008  11.039
24575W        W83869   4.831  11.698  10.913
24576W        W83870  37.565  15.657   0.385
24577W        W83871  29.008  44.408   4.749
24578W        W83872  26.471  16.652   2.307
24579W        W83873   1.332  43.881  12.871
24580W        W83874  12.241   6.384   1.705
24581W        W83875  30.027  12.829  14.503
24582W        W83876  40.910  40.826   0.877
24583W        W83877  28.980  38.486  12.421
24584W        W83878  24.713  33.413  13.955
24585W        W83879   5.212   4.256   2.833
24586W        W83880  13.190  28.044   1.211
24587W        W83881  23.210  43.003   2.222
24588W        W83882  16.646  20.158   3.209
24589W        W83883   1.790  26.497  12.065
24590W        W83884  33.427  10.816  12.354
24591W        W83885  33.130  33.119  10.517
24592W        W83886  11.319  30.165   4.700
24593W        W83887  13.775  28.561  14.430
24594W        W83888  14.221  29.560   4.180
24595W        W83889  28.141  31.943  13.455
24596W        W83890   4.449  38.878   1.860
24597W        W83891   1.399  16.656   3.229
24598W        W83892  19.176  31.569   1.364
24599W        W83893  40.844  15.736  10.047
24600W        W83894  37.972  37.968  12.058
24601W        W83895  11.751  18.623   4.668
24602W        W83896  28.536  28.037  14.492
24603W        W83897  24.513   7.331  10.118
24604W        W83898  28.039  44.947  13.060
24605W        W83899  34.886  15.085  14.835
24606W        W83900  40.313  37.879  10.633
24607W        W83901  37.483   5.766  10.118
24608W        W83902   1.433  43.453   1.738
24609W        W83903  11.801  44.500   4.130
24610W        W83904  17.198  12.758  13.915
24611W        W83905  27.575  43.377   4.651
24612W        W83906   1.860  23.634  12.904
24613W        W83907  18.549  37.551   3.718
24614W        W83908   7.871   3.788  11.501
24615W        W83909  13.229  12.287   3.309
24616W        W83910   0.252   8.341  12.847
24617W        W83911  36.850  40.836  14.396
24618W        W83912  18.289  29.568  12.466
24619W        W83913  34.451   3.383  13.451
24620W        W83914  30.964   4.869  14.348
24621W        W83915  32.480   6.362   1.407
24622W        W83916  29.586   4.717  12.466
24623W        W83917   3.253   9.178  12.011
24624W        W83918  24.060  25.608  13.469
24625W        W83919  27.465  31.625  13.950
24626W        W83920  32.615  35.980  13.949
24627W        W83921  27.620  44.920  12.841
24628W        W83922  28.577  24.995   0.310
24629W        W83923  35.100  28.591  14.859
24630W        W83924  11.683  26.003   1.419
24631W        W83925  39.537  30.934  11.857
24632W        W83926  16.665   2.407   2.411
24633W        W83927  11.203  42.380   3.829
24634W        W83928  11.260  18.150   0.262
24635W        W83929  28.620  38.539   3.701
24636W        W83930   9.814  20.645   4.773
24637W        W83931  12.710  33.976  12.014
24638W        W83932  20.052  14.800   0.415
24639W        W83933  13.787  11.778  12.991
24640W        W83934   0.300   7.806   4.298
24641W        W83935  31.579  34.965  14.794
24642W        W83936  33.468  23.077  13.520
24643W        W83937  12.172  16.619  13.525
24644W        W83938   5.853  22.244   0.728
24645W        W83939  35.436  41.877  12.872
24646W        W83940   5.307  43.927  14.886
24647W        W83941  19.280  32.029  13.930
24648W        W83942  25.590  29.606  12.994
24649W        W83943  44.840  14.241   4.636
24650W        W83944  26.572   2.967   4.328
24651W        W83945  10.139  42.481  14.820
24652W        W83946  29.950  11.357   0.253
24653W        W83947  33.380   9.777  11.401
24654W        W83948  39.353  37.495  11.975
24655W        W83949  36.922   5.816  11.477
24656W        W83950  11.242  41.847  12.343
24657W        W83951   8.322  26.604   3.379
24658W        W83952  28.131   4.407   4.242
24659W        W83953   0.475  29.500  14.384
24660W        W83954  19.128  43.352   1.879
24661W        W83955  27.002  40.958   4.280
24662W        W83956  13.264  21.161  10.493
24663W        W83957  41.994  16.705  11.039
24664W        W83958  25.571  44.883  11.100
24665W        W83959   1.792  30.543   0.828
24666W        W83960  29.467  36.561  13.827
24667W        W83961  20.195  44.424   4.795
24668W        W83962  32.085  16.258   1.306
24669W        W83963   6.225  11.810   1.374
24670W        W83964  40.402  38.458   3.248
24671W        W83965  18.087  26.185  13.055
24672W        W83966  37.422   4.781   0.853
24673W        W83967  37.372  37.061   1.316
24674W        W83968  18.582  11.866  14.443
24675W        W83969  39.495  20.622  14.503
24676W        W83970   3.802  17.680   1.875
24677W        W83971  41.319  19.073   4.180
24678W        W83972  27.623  24.111   4.289
24679W        W83973  37.938  17.231  13.973
24680W        W83974  40.898   7.358   0.801
24681W        W83975   4.888  15.164  11.595
24682W        W83976   3.900  27.959  13.828
24683W        W83977  13.739  33.546  11.393
24684W        W83978  22.514  29.146   3.354
24685W        W83979  28.103  37.417   0.728
24686W        W83980  42.322   9.282  10.581
24687W        W83981   0.251  25.024  14.876
24688W        W83982   4.242  23.543  13.853
24689W        W83983  32.461  24.584  11.073
24690W        W83984  22.076  43.808  13.527
24691W        W83985  16.140  12.645  11.436
24692W        W83986  41.881  31.049   4.296
24693W        W83987  43.856   0.814  14.328
24694W        W83988  41.931  29.631  10.429
24695W        W83989   3.885  43.797   0.959
24696W        W83990  19.209  28.148  10.603
24697W        W83991  24.620  36.872  14.782
24698W        W83992  35.471  10.315  11.532
24699W        W83993   7.391  10.271   3.655
24700W        W83994  11.766  33.077  11.907
24701W        W83995   6.203  41.359   4.753
24702W        W83996  22.230  16.739   3.767
24703W        W83997  44.306  28.959  11.057
24704W        W83998  11.816  37.422  11.058
24705W        W83999  11.350  27.109  11.070
24706W        W84000  42.018  20.143  11.490
24707W        W84001  10.162   1.769   4.716
24708W        W84002   9.253  31.565  10.993
24709W        W84003  29.102  25.073   2.347
24710W        W84004  28.999  44.830   0.834
24711W        W84005  11.162  28.638   0.453
24712W        W84006  39.811  19.095  14.345
24713W        W84007   4.905  35.449   2.344
24714W        W84008  24.992  34.879   1.292
24715W        W84009  16.606   2.309  11.903
24716W        W84010  11.733  24.508   4.323
24717W        W84011  31.977  31.944  14.370
24718W        W84012  12.713   6.881   1.816
24719W        W84013   1.944  26.962   0.805
24720W        W84014  32.096  13.801   1.857
24721W        W84015  18.121  37.483  11.508
24722W        W84016  18.216  13.699   3.284
24723W        W84017   4.311  10.647  14.482
24724W        W84018  35.935   2.311   1.719
24725W        W84019  26.669  39.428   5.306
24726W        W84020   7.355  28.035  14.856
24727W        W84021  34.406  44.492  14.440
24728W        W84022  10.245   2.458   2.385
24729W        W84023  24.479  17.590   0.810
24730W        W84024  24.499  28.960   1.701
24731W        W84025  14.197  19.196   1.912
24732W        W84026   7.690  28.539   1.872
24733W        W84027   1.259  31.510  13.894
24734W        W84028   7.292  26.000  13.491
24735W        W84029   6.769  42.475   2.890
24736W        W84030  15.231  14.255  12.455
24737W        W84031  23.662  18.667   3.733
24738W        W84032  37.458  39.919  10.025
24739W        W84033  13.258   0.760  14.810
24740W        W84034  33.114   1.266   4.254
24741W        W84035   5.291   6.873  12.890
24742W        W84036   8.167  13.196   1.302
24743W        W84037  18.599  32.973   2.223
24744W        W84038   6.343   8.749  13.946
24745W        W84039  40.318   7.385  14.493
24746W        W84040  29.591   8.662  14.500
24747W        W84041  32.585   1.827  13.946
24748W        W84042  30.989  37.471  13.941
24749W        W84043  44.853  15.086  12.959
24750W        W84044  21.120  11.848   0.873
24751W        W84045  34.381  16.301  14.806
24752W        W84046  12.626  11.703   3.354
24753W        W84047  31.491   9.794  11.855
24754W        W84048  14.213  40.845   2.347
24755W        W84049   3.932  27.550  11.458
24756W        W84050  29.938   7.900  12.492
24757W        W84051  15.287  42.980  13.875
24758W        W84052  23.666  19.714   4.253
24759W        W84053  39.514  19.040  12.923
24760W        W84054  34.399  23.492   3.706
24761W        W84055   7.257  25.588   4.680
24762W        W84056   2.895  13.120  12.975
24763W        W84057   6.871  35.390   1.820
24764W        W84058   4.332  44.787  10.957
24765W        W84059  18.694  12.362  13.968
24766W        W84060   5.731   4.344  14.426
24767W        W84061   0.771   7.763   0.361
24768W        W84062  34.933   3.214   3.831
24769W        W84063  20.095  41.382   1.784
24770W        W84064  43.990  30.517  11.374
24771W        W84065  16.089   4.293  10.582
24772W        W84066  11.219  25.193   5.290
24773W        W84067   5.766  39.889  14.776
24774W        W84068  37.570  43.839  10.065
24775W        W84069  38.885   8.397  14.941
24776W        W84070  23.135  29.100   4.822
24777W        W84071  38.363  33.019  13.466
24778W        W84072  16.135  18.553  12.343
24779W        W84073  32.123  28.959  10.112
24780W        W84074  20.174  18.637   1.840
24781W        W84075  34.088   8.370  13.405
24782W        W84076  36.938  15.284  11.975
24783W        W84077  43.904   4.838   4.267
24784W        W84078  10.204  41.974  12.489
24785W        W84079  18.087  13.663   2.320
24786W        W84080  20.207  22.236   0.808
24787W        W84081  30.016  34.875  11.977
24788W        W84082   2.409  25.706   3.809
24789W        W84083  34.529  17.763  12.439
24790W        W84084  14.778  28.107  14.777
24791W        W84085  44.361  27.646  12.401
24792W        W84086  11.721  40.425  14.395
24793W        W84087  29.427  29.982   3.151
24794W        W84088  14.317  33.535   4.609
24795W        W84089   5.284  30.595  14.427
24796W        W84090  25.478   6.249  11.450
24797W        W84091  34.461  35.450  11.446
24798W        W84092  31.055  34.482   1.333
24799W        W84093  20.194   6.268  14.976
24800W        W84094  28.484   5.792   3.846
24801W        W84095  39.545  23.688   4.773
24802W        W84096   4.274   7.405  11.411
24803W        W84097  13.824   4.925  13.455
24804W        W84098  31.041  22.651  14.860
24805W        W84099  43.908  15.667  14.331
24806W        W84100  23.679  19.114  11.909
24807W        W84101  18.633   1.754  14.774
24808W        W84102  20.258   6.293   0.431
24809W        W84103  39.853  36.917   2.671
24810W        W84104  19.577   3.870   1.357
24811W        W84105  19.197  42.904  13.830
24812W        W84106  19.205   8.214  12.880
24813W        W84107  27.083   4.818   3.243
24814W        W84108  38.500  38.829   1.707
24815W        W84109  35.398  18.551   1.288
24816W        W84110  10.835  18.691  11.951
24817W        W84111   2.942  42.842   3.380
24818W        W84112  19.723   1.264   1.746
24819W        W84113  12.341  40.888   1.809
24820W        W84114   1.753  14.757  13.389
24821W        W84115  29.956  41.858   2.223
24822W        W84116  20.228  15.178  13.012
24823W        W84117  13.697  26.686   2.713
24824W        W84118  16.253  42.522   0.772
24825W        W84119   1.263  22.188  14.795
24826W        W84120  13.841  25.098  13.409
24827W        W84121  25.113  43.404   2.843
24828W        W84122   7.324   3.416   0.440
24829W        W84123   3.440   3.234  14.982
24830W        W84124   0.476  39.988  14.444
24831W        W84125  39.900  34.607   3.738
24832W        W84126   1.394  21.063   1.784
24833W        W84127  13.775  34.090   0.272
24834W        W84128   3.788  41.421  10.072
24835W        W84129  17.177  35.539   2.353
24836W        W84130   4.848   4.713   3.866
24837W        W84131  19.758  25.130  13.527
24838W        W84132  42.959  17.204   2.750
24839W        W84133   1.455  43.022  10.563
24840W        W84134  18.638  43.447   4.769
24841W        W84135  44.862  40.875   3.802
24842W        W84136  24.629  18.201  13.442
24843W        W84137  27.099   9.885   3.724
24844W        W84138  11.304   3.355  11.063
24845W        W84139  43.358  36.570   0.895
24846W        W84140   3.772  18.059  14.863
24847W        W84141  24.618   3.307   3.221
24848W        W84142   6.874  14.170  13.402
24849W        W84143  40.852   8.756   4.345
24850W        W84144   7.193  19.708   4.659
24851W        W84145  18.555   0.340   3.752
24852W        W84146  23.125   1.306   1.908
24853W        W84147   7.275  22.513   5.301
24854W        W84148  14.237  19.179  14.829
24855W        W84149  44.478   5.874   1.267
24856W        W84150  36.924  30.462  13.023
24857W        W84151  16.256   7.218   3.868
24858W        W84152  23.543  28.447   0.790
24859W        W84153  16.154  17.247   2.224
24860W        W84154  41.308  12.342  14.306
24861W        W84155   5.217  23.524   0.298
24862W        W84156  42.379   8.701  14.806
24863W        W84157  26.629  26.636  13.911
24864W        W84158   5.912   9.843   0.408
24865W        W84159  44.317  18.554   4.609
24866W        W84160  14.784  13.814   1.882
24867W        W84161  40.338  30.615  13.840
24868W        W84162  41.456  32.624   2.184
24869W        W84163  22.655  37.397  11.940
24870W        W84164  41.372  27.040  11.581
24871W        W84165  10.144  27.167  12.823
24872W        W84166  39.427  22.720  11.455
24873W        W84167  42.421  43.825  11.069
24874W        W84168  36.561  32.608  14.770
24875W        W84169  16.644  29.147  11.984
24876W        W84170  40.872   7.704   2.688
24877W        W84171  25.013  26.960  11.389
24878W        W84172  22.078  37.013  14.278
24879W        W84173  22.050  30.650  10.534
24880W        W84174  13.724  16.569  13.439
24881W        W84175  20.534  25.625   0.858
24882W        W84176  36.872  28.959  12.461
24883W        W84177   7.807   9.323   0.944
24884W        W84178   4.443  23.560  14.984
24885W        W84179  12.835  34.103  10.486
24886W        W84180  14.824   5.721   3.697
24887W        W84181   9.739  34.932   0.455
24888W        W84182  32.563  24.982  10.103
24889W        W84183  38.918  17.751  13.453
24890W        W84184  32.494  22.594   2.696
24891W        W84185  22.555  27.462   3.333
24892W        W84186  11.629  33.437   1.837
24893W        W84187  21.018  30.441  10.582
24894W        W84188  28.985  15.817  11.066
24895W        W84189  25.563  24.508   2.833
24896W        W84190   8.869  26.682   5.156
24897W        W84191   9.328   0.487  13.446
24898W        W84192  19.771  42.327   3.221
24899W        W84193  28.020  15.281   0.276
24900W        W84194   5.281  41.409   2.687
24901W        W84195  18.293  27.021  12.908
24902W        W84196  26.188  21.749  13.389
24903W        W84197  26.169  32.944  12.017
24904W        W84198  31.056  37.351   2.228
24905W        W84199  10.745  10.371  12.932
24906W        W84200  20.739  23.233   1.371
24907W        W84201  22.595  24.991  13.859
24908W        W84202  37.893  24.170  11.552
24909W        W84203   9.807  35.105   2.392
24910W        W84204  38.379  13.338  13.919
24911W        W84205  30.147  22.168   4.160
24912W        W84206  22.579  33.493   3.334
24913W        W84207  38.041   9.165   5.247
24914W        W84208  30.488   1.762   0.264
24915W        W84209   1.481  43.010   2.247
24916W        W84210   6.730  21.660  10.425
24917W        W84211  11.622  18.727   0.407
24918W        W84212  20.618  36.427  13.888
24919W        W84213   1.865  41.428   3.740
24920W        W84214  35.874   4.928   0.388
24921W        W84215  32.023   8.220  10.925
24922W        W84216  29.655  13.803  12.397
24923W        W84217  39.327  22.691  12.851
24924W        W84218   0.905  19.614   0.761
24925W        W84219  10.235  43.787   1.350
24926W        W84220  27.598  30.058  14.464
24927W        W84221  18.145   3.761   2.361
24928W        W84222  31.611  12.776   1.905
24929W        W84223  23.155  29.965  13.447
24930W        W84224  22.631   4.317  14.998
24931W        W84225   3.304  41.800   2.698
24932W        W84226  29.047  43.809   1.261
24933W        W84227   2.255  25.058   4.730
24934W        W84228   5.757  10.310   2.408
24935W        W84229   7.245  25.624   3.839
24936W        W84230  25.185  36.881  11.445
24937W        W84231  27.677  17.231  11.027
24938W        W84232  41.338   7.318   2.843
24939W        W84233  10.151  28.186  13.526
24940W        W84234   9.320  22.649  14.304
24941W        W84235  35.573   7.859   2.868
24942W        W84236  13.686   5.883   2.749
24943W        W84237   9.246  24.647  12.052
24944W        W84238  25.990  42.819  12.834
24945W        W84239   8.373  40.483   0.295
24946W        W84240  36.360  28.610   3.801
24947W        W84241  11.158  27.091  13.989
24948W        W84242  36.024  26.683   0.958
24949W        W84243  28.649   6.359  11.857
24950W        W84244  40.967  29.086   0.431
24951W        W84245   5.758  42.490   0.793
24952W        W84246  29.156  34.490   3.682
24953W        W84247  22.745  20.210  11.932
24954W        W84248   6.759  41.372   3.191
24955W        W84249  22.012   8.187  13.381
24956W        W84250  42.359  22.655  14.300
24957W        W84251  30.163  22.724  11.527
24958W        W84252  32.514  32.486  10.945
24959W        W84253  28.161   3.443  11.011
24960W        W84254   4.903  25.981   3.729
24961W        W84255  14.776  33.053   0.308
24962W        W84256   0.790  23.522  12.393
24963W        W84257  31.036  20.073   2.190
24964W        W84258  14.720   8.232   2.871
24965W        W84259   0.778  41.980   4.331
24966W        W84260  36.536  17.776  10.946
24967W        W84261  10.305   5.220   3.648
24968W        W84262  23.527   3.765   4.721
24969W        W84263  41.003  11.195  14.029
24970W        W84264  44.329  35.876  10.086
24971W        W84265   6.264  10.760  11.538
24972W        W84266  25.017   6.864  11.961
24973W        W84267  34.982  29.131  13.797
24974W        W84268   0.869  27.655   3.776
24975W        W84269  44.850  28.176   4.328
24976W        W84270  18.608  41.394  12.006
24977W        W84271   6.882   6.268  13.309
24978W        W84272  27.073  23.068   0.390
24979W        W84273  14.140  44.918  12.406
24980W        W84274  39.342  19.773   0.326
24981W        W84275  35.378  11.239   1.852
24982W        W84276   8.180   7.706  10.625
24983W        W84277  21.538  21.674   4.163
24984W        W84278  25.165  14.728   3.156
24985W        W84279  44.784  40.965  12.924
24986W        W84280  33.521  44.813   2.786
24987W        W84281  30.643  34.488  12.920
24988W        W84282  41.794  25.099   1.773
24989W        W84283  29.061  31.944  11.861
24990W        W84284  33.041  28.619  11.555
24991W        W84285  10.741   1.750   0.341
24992W        W84286  10.223  18.255   4.235
24993W        W84287  34.917   4.927   4.634
24994W        W84288  19.773  18.149  12.887
24995W        W84289  21.252  26.148  14.888
24996W        W84290  13.656  10.214  14.938
24997W        W84291  38.837   8.270  14.310
24998W        W84292  15.614  31.632   9.940
24999W        W84293  26.974  38.448   0.435
25000W        W84294   9.193  29.006  13.532
25001W        W84295  14.251   6.327  12.927
25002W        W84296  42.802  35.394   1.449
25003W        W84297  12.707  19.759  14.900
25004W        W84298   0.851  30.639   4.765
25005W        W84299  18.184  31.107   0.942
25006W        W84300   6.840  41.939   1.707
25007W        W84301   3.836  38.436   0.923
25008W        W84302  15.105  10.338  11.901
25009W        W84303  37.522  28.005   2.688
25010W        W84304  18.213  44.469  12.535
25011W        W84305  38.569   9.668  13.532
25012W        W84306  19.249   5.800   2.262
25013W        W84307  20.619  35.858   3.795
25014W        W84308  30.028  20.106   0.403
25015W        W84309  24.066  16.662   2.725
25016W        W84310  13.713   0.887  13.847
25017W        W84311  44.770  23.684  10.427
25018W        W84312   5.293  25.987   1.300
25019W        W84313   0.470   2.450   3.667
25020W        W84314  37.870   3.896  12.514
25021W        W84315  30.423  15.762  14.383
25022W        W84316  33.501   2.883   0.279
25023W        W84317   5.198  32.058  10.447
25024W        W84318   6.816   4.364   4.758
25025W        W84319  22.602  27.498   0.730
25026W        W84320  13.728  13.602   0.323
25027W        W84321  40.379  36.383  13.887
25028W        W84322  15.729  18.051   0.783
25029W        W84323  31.967  11.188  12.855
25030W        W84324  17.197  32.026  11.539
25031W        W84325   9.887  28.678   4.214
25032W        W84326  31.451  44.847   2.675
25033W        W84327  16.600  26.653  11.437
25034W        W84328  10.276  32.122  10.444
25035W        W84329  39.386   6.385  14.800
25036W        W84330  44.303   4.769  11.561
25037W        W84331  36.868  34.899   2.236
25038W        W84332  42.374   0.315   0.798
25039W        W84333  20.132   3.227   5.134
25040W        W84334  42.869  39.864  13.374
25041W        W84335  30.432  41.029  13.355
25042W        W84336  29.067  18.709   1.370
25043W        W84337  43.381  42.446   1.309
25044W        W84338  40.940  40.510  13.322
25045W        W84339  37.384   9.795  11.500
25046W        W84340  37.013  32.582   9.972
25047W        W84341  39.060   9.323   1.402
25048W        W84342  10.734  18.189  10.473
25049W        W84343  24.131  22.189  13.047
25050W        W84344   8.170  11.680  12.024
25051W        W84345  30.098  17.260  10.426
25052W        W84346   8.862  14.242  12.058
25053W        W84347  26.046  42.921   5.187
25054W        W84348  11.260  23.509   4.635
25055W        W84349  35.564  21.729   3.329
25056W        W84350  38.008  15.328  10.568
25057W        W84351  27.446  29.049   0.933
25058W        W84352  21.584  10.259  13.898
25059W        W84353  10.211   1.324  12.571
25060W        W84354  30.917  31.428   4.235
25061W        W84355   0.292  23.712   4.813
25062W        W84356  18.789   4.253  12.377
25063W        W84357   3.838   2.837   2.743
25064W        W84358  17.152  32.488   0.834
25065W        W84359  36.888  21.126   1.375
25066W        W84360  36.434  19.674   5.203
25067W        W84361  41.952  20.218  13.056
25068W        W84362   2.916  17.633  11.509
25069W        W84363  25.538  24.122  12.534
25070W        W84364  25.970  37.570  12.068
25071W        W84365  14.147  24.487   4.752
25072W        W84366  36.423   6.799   1.297
25073W        W84367   8.777   6.227  13.456
25074W        W84368  20.738  13.763  11.559
25075W        W84369  24.485  33.418   0.308
25076W        W84370   9.182  30.585  10.550
25077W        W84371  24.093  20.149  10.555
25078W        W84372  38.548  36.911   1.400
25079W        W84373   1.381  26.138   3.775
25080W        W84374   2.766  36.918   0.852
25081W        W84375  29.995  21.159  14.481
25082W        W84376  38.017  21.201  13.442
25083W        W84377   0.424  12.196  10.962
25084W        W84378  36.066  17.192   3.242
25085W        W84379  25.470  29.991   4.818
25086W        W84380  29.965  13.716  14.497
25087W        W84381  15.817   6.694  12.887
25088W        W84382   7.400  33.034  10.495
25089W        W84383  23.609  15.285  10.940
25090W        W84384  28.642  18.710   2.742
25091W        W84385  15.660   4.292   2.400
25092W        W84386  10.682  12.197  13.949
25093W        W84387  28.517  10.280   2.303
25094W        W84388  13.116  30.541  11.424
25095W        W84389  37.558  38.560  14.422
25096W        W84390  18.124  20.686   3.147
25097W        W84391  28.109  19.190   4.182
25098W        W84392  23.573  14.831   0.456
25099W        W84393  31.036  43.991   2.673
25100W        W84394   6.794  44.903   1.345
25101W        W84395  11.149  40.354  14.994
25102W        W84396  35.863  30.427  12.410
25103W        W84397  10.769  18.295   4.659
25104W        W84398  15.096  44.867  10.557
25105W        W84399  27.662  13.238   3.697
25106W        W84400  21.640  19.747   2.710
25107W        W84401  22.054  18.691  13.968
25108W        W84402   4.447  14.196   5.203
25109W        W84403  24.672   4.919   1.896
25110W        W84404   3.719  18.068   4.162
25111W        W84405  44.342  23.078  12.921
25112W        W84406   2.357  13.785   1.800
25113W        W84407  24.524  19.203  13.353
25114W        W84408   8.793  24.072  11.973
25115W        W84409  35.910  26.637   4.342
25116W        W84410  18.182  28.151  12.481
25117W        W84411  36.509  31.140   4.685
25118W        W84412   5.341  24.644  10.601
25119W        W84413  32.084  35.428   4.785
25120W        W84414  38.833  17.601  11.075
25121W        W84415   9.214  44.438  14.368
25122W        W84416  13.627  27.071  13.793
25123W        W84417  12.794   3.902   3.161
25124W        W84418   8.771  10.756  11.426
25125W        W84419   2.871  33.910   0.345
25126W        W84420  33.619  39.394  11.908
25127W        W84421  16.127  29.125  11.058
25128W        W84422  23.217   4.732   1.761
25129W        W84423  29.149  23.055   3.163
25130W        W84424  36.981  25.526  10.613
25131W        W84425  22.633  20.559   3.692
25132W        W84426  26.104  33.474  14.950
25133W        W84427  44.384  41.381   0.390
25134W        W84428   8.772   5.323  10.572
25135W        W84429  16.184  26.017  14.917
25136W        W84430  43.982  15.296   1.423
25137W        W84431   8.785  25.623  14.290
25138W        W84432  29.497  32.002   2.352
25139W        W84433   7.808  18.551   3.728
25140W        W84434  40.879  17.743  12.953
25141W        W84435   1.345  41.819   1.900
25142W        W84436  43.468  33.936  13.316
25143W        W84437   2.911   1.893   1.837
25144W        W84438  25.577   7.794   5.277
25145W        W84439  14.676  30.439   3.720
25146W        W84440  39.449  41.463   4.643
25147W        W84441  26.138  25.021  12.983
25148W        W84442  38.324  35.859   0.883
25149W        W84443   7.335  12.662  12.070
25150W        W84444  13.617   0.764   4.782
25151W        W84445  19.535  32.036   1.914
25152W        W84446  41.810  37.845   3.738
25153W        W84447  38.553  26.159  14.881
25154W        W84448  33.554  20.729  10.568
25155W        W84449  11.330  30.644   1.851
25156W        W84450  42.294  14.287  13.059
25157W        W84451  32.034  16.253  11.900
25158W        W84452   7.666  14.183   1.401
25159W        W84453   3.804  29.533  13.537
25160W        W84454  13.310  14.789   2.380
25161W        W84455  36.991  34.434  14.882
25162W        W84456   3.745  23.034  11.030
25163W        W84457  19.181  33.126   4.751
25164W        W84458  22.180  19.715  11.008
25165W        W84459  10.153   0.744   4.703
25166W        W84460   5.896   2.273   3.749
25167W        W84461  35.473  37.952  13.533
25168W        W84462  33.039  13.618   2.789
25169W        W84463  35.368   2.755  11.445
25170W        W84464   3.877  44.502   3.263
25171W        W84465  39.005   7.404  10.479
25172W        W84466  14.755  23.214   4.657
25173W        W84467  26.112  12.856  11.446
25174W        W84468  28.945  13.131   0.815
25175W        W84469  19.540  11.637  10.912
25176W        W84470  40.931   4.231   0.261
25177W        W84471  15.204  32.914   2.699
25178W        W84472   2.853  35.575  12.014
25179W        W84473  34.087   4.772   0.859
25180W        W84474  24.541  25.640   0.390
25181W        W84475  29.974  27.060   2.834
25182W        W84476  25.094  23.601  14.463
25183W        W84477   4.939  31.084   4.714
25184W        W84478  38.490   2.231  13.498
25185W        W84479  40.333  17.749   4.266
25186W        W84480  14.702  31.486  14.802
25187W        W84481  29.482   8.691   1.358
25188W        W84482  42.851  33.898  12.451
25189W        W84483  15.781  12.185   3.317
25190W        W84484   3.743  36.017  11.126
25191W        W84485   9.301   4.262   4.602
25192W        W84486  14.246  35.034   0.799
25193W        W84487  11.193  20.629   2.228
25194W        W84488   9.350   3.805   3.771
25195W        W84489   3.432   6.269   1.231
25196W        W84490  44.907  26.011  11.034
25197W        W84491  29.549  19.721   4.761
25198W        W84492  19.571  30.071  10.981
25199W        W84493  15.787  39.498  12.429
25200W        W84494  31.549  19.188  11.859
25201W        W84495   5.354  10.141   4.771
25202W        W84496  41.385  19.767   0.471
25203W        W84497  20.036  30.963   4.732
25204W        W84498   4.840  44.927  13.039
25205W        W84499  22.078  37.918  11.919
25206W        W84500   7.905   6.220   5.194
25207W        W84501  18.193  33.523  10.900
25208W        W84502  33.446  10.162   1.891
25209W        W84503  20.118  16.249  14.403
25210W        W84504  37.038  28.467   1.808
25211W        W84505  35.009  33.033   3.298
25212W        W84506  40.024   7.719  11.085
25213W        W84507  42.879  17.646  11.533
25214W        W84508  38.459  25.684  13.488
25215W        W84509  21.088   6.743  13.004
25216W        W84510  13.157  23.054  14.298
25217W        W84511  44.295  40.357   2.733
25218W        W84512   4.788  28.032  12.064
25219W        W84513  13.805  33.885  13.354
25220W        W84514  11.863  12.693   0.285
25221W        W84515  34.573   7.202   3.645
25222W        W84516  29.495  22.669   9.971
25223W        W84517  42.926  22.167  11.864
25224W        W84518  31.540   2.420   2.748
25225W        W84519   5.878  40.318   3.279
25226W        W84520  23.048  43.999  14.385
25227W        W84521  32.594  20.161  12.037
25228W        W84522  35.372  17.141   4.161
25229W        W84523  22.065   3.731  13.464
25230W        W84524  20.546   3.386   3.241
25231W        W84525  44.787  25.538   0.802
25232W        W84526  20.528  13.185   4.737
25233W        W84527  23.660  21.030   2.259
25234W        W84528  20.270   2.228  14.480
25235W        W84529  38.871  32.050   2.361
25236W        W84530  14.100  22.730   2.189
25237W        W84531   5.205  31.898   9.970
25238W        W84532  19.042  33.460  13.049
25239W        W84533   1.434   5.850  14.916
25240W        W84534  38.874  29.473  11.972
25241W        W84535  14.250  24.192  14.850
25242W        W84536  36.905   1.800   3.162
25243W        W84537  24.714  41.787   4.121
25244W        W84538   1.368  43.861  13.896
25245W        W84539  27.151  27.458   2.287
25246W        W84540  39.957  40.414  12.933
25247W        W84541  21.064   3.331  10.992
25248W        W84542  24.126   2.290   2.260
25249W        W84543  43.770  23.562   1.343
25250W        W84544  35.523  31.568  11.121
25251W        W84545   7.676  11.136   4.707
25252W        W84546  28.657  42.346   1.284
25253W        W84547  37.868  32.994  14.016
25254W        W84548  28.552  25.081   1.877
25255W        W84549   5.360  26.661  13.036
25256W        W84550  13.203   2.885   3.867
25257W        W84551  30.911  31.038  13.001
25258W        W84552  14.789  20.138   3.741
25259W        W84553  41.427   1.271  13.329
25260W        W84554  39.353   5.380  10.521
25261W        W84555  14.272  40.375   1.730
25262W        W84556  18.266  11.708  12.364
25263W        W84557  20.545  18.291  13.846
25264W        W84558  22.674   3.727  13.945
25265W        W84559   0.404  22.544  14.370
25266W        W84560  13.192  18.131   2.330
25267W        W84561  35.059  39.437   3.296
25268W        W84562  16.613  20.178   2.835
25269W        W84563  13.162  27.562   3.371
25270W        W84564   5.283   6.188   2.211
25271W        W84565  11.738  36.083   1.321
25272W        W84566  10.382  14.281   2.823
25273W        W84567  14.284  31.505   4.192
25274W        W84568  18.188  19.235   4.249
25275W        W84569  38.493   0.338   1.734
25276W        W84570   6.359  14.136   2.882
25277W        W84571  25.577  32.995   2.299
25278W        W84572  30.492   5.705  14.838
25279W        W84573  24.572  25.631  12.527
25280W        W84574  44.368   3.758  10.151
25281W        W84575   9.655  13.289  14.351
25282W        W84576  42.377  21.157  13.821
25283W        W84577  25.971  41.511  10.953
25284W        W84578  25.195  34.390  10.924
25285W        W84579  28.481   6.389   3.334
25286W        W84580  14.650  23.031   0.808
25287W        W84581  26.079   2.964   4.258
25288W        W84582  34.469   3.218   1.282
25289W        W84583  21.732  28.522   1.349
25290W        W84584   9.303  19.160   0.939
25291W        W84585  44.808   7.320  13.526
25292W        W84586   4.875  29.958   2.795
25293W        W84587  19.563  16.078   0.477
25294W        W84588  34.068   1.740   0.731
25295W        W84589  19.618  27.036   3.701
25296W        W84590  17.739  38.473  11.048
25297W        W84591  16.309  34.962   2.386
25298W        W84592  38.061  20.733  10.602
25299W        W84593  18.178  36.442  10.602
25300W        W84594  38.959   3.898   1.275
25301W        W84595  40.042   7.176  14.818
25302W        W84596  28.678   2.755   1.752
25303W        W84597  32.919  44.273  11.409
25304W        W84598  22.506  34.887   4.119
25305W        W84599   6.819   5.704  14.991
25306W        W84600  22.052  43.901  11.025
25307W        W84601   8.370  40.497  12.830
25308W        W84602  44.502   2.408  12.378
25309W        W84603   4.774  24.087   0.922
25310W        W84604  23.117   7.772  11.481
25311W        W84605  43.303  42.858   3.326
25312W        W84606  37.350  23.225   1.424
25313W        W84607  21.072  27.075  12.344
25314W        W84608  41.923  38.525   0.423
25315W        W84609  31.987  28.639   3.864
25316W        W84610   3.305   5.243  12.460
25317W        W84611  38.007  35.435   0.453
25318W        W84612   6.247  29.653   1.340
25319W        W84613  16.092   8.876   5.320
25320W        W84614  22.572  23.584   1.242
25321W        W84615  15.739  40.493  13.055
25322W        W84616   7.241  24.567  13.327
25323W        W84617  18.284  12.299   1.864
25324W        W84618  35.895  11.661  11.586
25325W        W84619  31.973  19.648  11.515
25326W        W84620  35.996   6.201  11.957
25327W        W84621  13.260  31.970   0.946
25328W        W84622  28.091  36.420   2.793
25329W        W84623  15.784   1.893  13.399
25330W        W84624  38.973  22.074   1.235
25331W        W84625  43.368  27.097  11.543
25332W        W84626  38.984   3.877  10.138
25333W        W84627  26.206  17.128   3.356
25334W        W84628  42.406  15.108   3.867
25335W        W84629  29.020  24.602   0.449
25336W        W84630  35.919  35.972  13.513
25337W        W84631  37.362  14.119  12.962
25338W        W84632  14.733  23.065  14.396
25339W        W84633  32.100   0.327  14.006
25340W        W84634  19.040  19.578   4.694
25341W        W84635  14.337   6.329   0.406
25342W        W84636  11.674  11.756  10.506
25343W        W84637  39.382   8.861   3.814
25344W        W84638  14.713  26.659   0.480
25345W        W84639  11.319   2.458  11.461
25346W        W84640  11.770  22.691  13.506
25347W        W84641  31.029  42.369  10.898
25348W        W84642   8.739  26.039  14.469
25349W        W84643   1.828  12.842   2.245
25350W        W84644  40.383  37.525   4.267
25351W        W84645  27.638  13.315   2.342
25352W        W84646  30.426  21.722  12.888
25353W        W84647  43.436  21.193  12.514
25354W        W84648  23.080  33.600  11.472
25355W        W84649  29.001  33.579   3.644
25356W        W84650  39.436  33.917   3.181
25357W        W84651   6.906  39.889   4.691
25358W        W84652  36.874  44.994   3.196
25359W        W84653  29.593  38.413  11.944
25360W        W84654  28.446  16.800   1.882
25361W        W84655  17.739  37.991  14.882
25362W        W84656  10.185  12.768  14.335
25363W        W84657  22.165  42.458  12.436
25364W        W84658  31.015  42.778   5.082
25365W        W84659  22.538   2.277  14.997
25366W        W84660  12.704  37.419   0.959
25367W        W84661  35.453  42.785  12.404
25368W        W84662   5.712  28.014   1.758
25369W        W84663  12.768   0.866   4.117
25370W        W84664   9.872  18.169   1.436
25371W        W84665  38.870  36.001   2.731
25372W        W84666  30.960  23.652   2.350
25373W        W84667  24.041  32.020  14.510
25374W        W84668  15.710  14.823   5.097
25375W        W84669  23.107  10.143   4.661
25376W        W84670  13.129   0.474   4.825
25377W        W84671  34.088   1.790  12.568
25378W        W84672  35.395  10.343   3.670
25379W        W84673  25.108  16.298   3.710
25380W        W84674  32.989  30.440  14.774
25381W        W84675  31.489  24.992  11.980
25382W        W84676  33.483  31.492   3.386
25383W        W84677  43.477  15.638   2.706
25384W        W84678   5.314   6.227   0.813
25385W        W84679  33.528  42.484  11.392
25386W        W84680  32.491  23.188   2.301
25387W        W84681  26.010  39.964  14.391
25388W        W84682  39.478  28.522  13.033
25389W        W84683  34.598   7.384  10.159
25390W        W84684  13.800  35.961   3.161
25391W        W84685  40.832  40.801   1.909
25392W        W84686  17.716   0.360  10.414
25393W        W84687  39.855  44.903  12.899
25394W        W84688  37.033  33.901   2.213
25395W        W84689   2.730  32.625  11.896
25396W        W84690  42.429  34.991   4.344
25397W        W84691  32.970  31.962   9.966
25398W        W84692  36.903  10.383  12.387
25399W        W84693  24.195   6.256  11.611
25400W        W84694  23.134  25.032  14.334
25401W        W84695  28.470  32.069   1.299
25402W        W84696  40.806  18.553   1.295
25403W        W84697  30.131  21.237   5.252
25404W        W84698  38.475  26.029  14.343
25405W        W84699   1.406  44.355   2.369
25406W        W84700  13.652   0.752  12.354
25407W        W84701  21.755  19.682   2.195
25408W        W84702  41.514  27.545  14.931
25409W        W84703   5.421  42.933  10.963
25410W        W84704  29.919   5.703  11.868
25411W        W84705   3.379   7.191  10.112
25412W        W84706  18.146  16.747  13.318
25413W        W84707  17.655  38.330   0.347
25414W        W84708   5.420  30.937   1.418
25415W        W84709   3.331  21.123   3.336
25416W        W84710  22.120  33.997  10.504
25417W        W84711  26.479  34.423   3.161
25418W        W84712  15.580  17.616  14.452
25419W        W84713   0.778   0.849   0.290
25420W        W84714  35.024  39.390   0.857
25421W        W84715  18.106  24.505   2.878
25422W        W84716  33.422  15.587   3.180
25423W        W84717  14.725  15.112   0.753
25424W        W84718  19.685   2.468  10.467
25425W        W84719  13.109  24.208   4.723
25426W        W84720  21.746   2.276  13.981
25427W        W84721   4.843  21.634  11.949
25428W        W84722  31.517  34.589  12.548
25429W        W84723  28.619  18.056  12.860
25430W        W84724   7.260   3.802  13.517
25431W        W84725  17.699  11.278   4.334
25432W        W84726  32.923  30.612  11.059
25433W        W84727   4.794   7.309  14.440
25434W        W84728  14.612  38.355   0.387
25435W        W84729  28.935  37.562  12.547
25436W        W84730  34.115  16.262  14.513
25437W        W84731   7.343  14.719  12.060
25438W        W84732   9.234  43.805  13.381
25439W        W84733  33.938  40.016  14.974
25440W        W84734   4.941  41.860   4.146
25441W        W84735   6.678  23.626   3.271
25442W        W84736   5.818  17.234   2.271
25443W        W84737  18.248  44.401   1.334
25444W        W84738  14.336   0.436  10.966
25445W        W84739  36.069  16.637   3.761
25446W        W84740  31.966   3.934  12.434
25447W        W84741  20.222  31.631  14.784
25448W        W84742  30.081   3.374   0.263
25449W        W84743  30.146  42.947  12.095
25450W        W84744   1.303  18.107  12.453
25451W        W84745   4.448   6.686  12.508
25452W        W84746   7.814  41.787   4.240
25453W        W84747  44.859  15.664  12.470
25454W        W84748  20.689  22.620   4.219
25455W        W84749  21.033  44.318   5.195
25456W        W84750  24.147   7.229   1.845
25457W        W84751  32.035  21.092   1.698
25458W        W84752  34.443  19.680  13.962
25459W        W84753  43.945  29.521   1.814
25460W        W84754  30.629  31.088   1.808
25461W        W84755  24.480  19.133   3.846
25462W        W84756  17.659  38.843   3.681
25463W        W84757  24.170  31.607   1.802
25464W        W84758  24.517  30.593  12.488
25465W        W84759  24.523  38.863   4.275
25466W        W84760  25.675   9.369  14.951
25467W        W84761  30.642  38.046   2.773
25468W        W84762  13.225  16.804  13.393
25469W        W84763  33.573   2.755   4.140
25470W        W84764  35.400  24.014  14.396
25471W        W84765  44.767  37.448   4.311
25472W        W84766   3.257   0.277   4.687
25473W        W84767  32.887   5.223   0.806
25474W        W84768  34.913  11.281   2.324
25475W        W84769  22.591  30.504  11.941
25476W        W84770  40.957  23.178   4.788
25477W        W84771  43.998   9.201   1.837
25478W        W84772   6.772   0.958  14.429
25479W        W84773  23.665  29.131   4.289
25480W        W84774  36.850  16.285   4.270
25481W        W84775   7.314  20.257   1.768
25482W        W84776  28.598  12.809   2.883
25483W        W84777  42.512  12.739  11.534
25484W        W84778  41.832  30.574  14.823
25485W        W84779  38.480  16.112  13.024
25486W        W84780  16.665   6.259  14.863
25487W        W84781   7.179   9.292   3.164
25488W        W84782  21.189  25.061  13.310
25489W        W84783  20.574  10.337  13.419
25490W        W84784  11.719  27.660   4.295
25491W        W84785  32.542  18.583   4.817
25492W        W84786   6.722  11.358  11.041
25493W        W84787  30.112  13.610  12.863
25494W        W84788  13.256  12.176  13.796
25495W        W84789  16.712  17.627  12.992
25496W        W84790  32.013  12.239   2.765
25497W        W84791  27.033  16.720   4.210
25498W        W84792  13.716  25.045   0.958
25499W        W84793   0.355   8.265  13.445
25500W        W84794  31.046   7.342  14.334
25501W        W84795   0.266  41.831   1.928
25502W        W84796  41.835   7.280   3.841
25503W        W84797  32.476   4.779  10.060
25504W        W84798  40.046  15.691  12.512
25505W        W84799  12.610  26.084   0.878
25506W        W84800   0.259  42.790   3.778
25507W        W84801   7.856  35.048  10.145
25508W        W84802  10.860   9.202  14.364
25509W        W84803  16.166  15.634   4.811
25510W        W84804  14.152  11.778  12.560
25511W        W84805  17.769  23.178   2.343
25512W        W84806  40.942  24.182   2.744
25513W        W84807  44.872  22.662  10.404
25514W        W84808   6.409   8.867   0.419
25515W        W84809  37.992   2.382  13.986
25516W        W84810   1.254  15.233  14.850
25517W        W84811  28.182  23.615   1.226
25518W        W84812   6.815  14.808  12.349
25519W        W84813  10.342  30.560   1.803
25520W        W84814   3.228  10.381   0.796
25521W        W84815   3.859   7.666   1.885
25522W        W84816  20.108  31.017  13.350
25523W        W84817  42.808  32.974   0.888
25524W        W84818  41.840  30.629  10.975
25525W        W84819  41.811   5.700  14.804
25526W        W84820   9.195  30.636   3.362
25527W        W84821   8.678  15.791  11.481
25528W        W84822  14.197  29.150  11.961
25529W        W84823   4.838  10.189  14.994
25530W        W84824  36.035  15.297  12.436
25531W        W84825   3.782  44.431  10.055
25532W        W84826  12.720  32.430   4.215
25533W        W84827  10.305  10.234  14.934
25534W        W84828  42.512  35.916   0.447
25535W        W84829  25.558  37.959  10.536
25536W        W84830  14.307  15.683   2.775
25537W        W84831  10.240   4.738   0.446
25538W        W84832  32.439   3.305   2.785
25539W        W84833  16.121   5.199   4.664
25540W        W84834  14.294  17.590  13.938
25541W        W84835   6.196  32.400   1.344
25542W        W84836  37.456   0.982   3.636
25543W        W84837  28.460  14.283   5.224
25544W        W84838  11.316   0.299   3.825
25545W        W84839   9.197  28.983   4.175
25546W        W84840   1.448  10.771  12.993
25547W        W84841  19.562   7.261   1.716
25548W        W84842  20.208  32.509  11.390
25549W        W84843  37.537  12.792  10.944
25550W        W84844  20.601  27.987   3.377
25551W        W84845  35.033   6.744   3.155
25552W        W84846  34.502  20.656  13.526
25553W        W84847  43.490  19.697   4.354
25554W        W84848  23.033  37.542  11.916
25555W        W84849  38.486   1.820  10.889
25556W        W84850  29.125  24.076   2.282
25557W        W84851  25.162  20.182  12.093
25558W        W84852  32.447   8.858  13.830
25559W        W84853  35.877  14.116   4.151
25560W        W84854  40.041  41.503   1.724
25561W        W84855  40.839   6.778   4.699
25562W        W84856  33.959  23.692  12.470
25563W        W84857   4.218   0.440  10.498
25564W        W84858  24.133   0.467   2.748
25565W        W84859   4.408  15.218   3.705
25566W        W84860  13.280  35.972  10.596
25567W        W84861   7.858  27.518   1.382
25568W        W84862  42.900  44.866  13.934
25569W        W84863   3.779   5.246   3.804
25570W        W84864  34.486  16.095   0.292
25571W        W84865  13.340  29.133   3.255
25572W        W84866  17.734  34.516  11.091
25573W        W84867   6.742  21.025  10.625
25574W        W84868  29.503  26.569  12.040
25575W        W84869  33.094  27.994  10.626
25576W        W84870  10.250   3.402   4.642
25577W        W84871  15.147  43.382  12.530
25578W        W84872   1.459  43.326  14.359
25579W        W84873  15.310  34.079   0.787
25580W        W84874  12.120  29.532   2.338
25581W        W84875  29.047  22.023  14.892
25582W        W84876  12.281   2.364   2.872
25583W        W84877  25.966   3.377  12.954
25584W        W84878  28.646  43.794   3.182
25585W        W84879  24.482  41.963  14.325
25586W        W84880   4.283  43.807  10.976
25587W        W84881  21.124  12.679  13.828
25588W        W84882  43.351  43.469  14.013
25589W        W84883  21.610  38.547   2.356
25590W        W84884  10.669  40.533   0.753
25591W        W84885   6.744  13.653   3.369
25592W        W84886  32.628   9.702   2.271
25593W        W84887  21.538   9.669   1.704
25594W        W84888   1.407  40.969   3.355
25595W        W84889  14.762  14.280  13.048
25596W        W84890  38.024   6.334  13.434
25597W        W84891  14.328   4.711   1.733
25598W        W84892  19.636  25.537  10.479
25599W        W84893   6.265  15.217   1.850
25600W        W84894  22.659   5.231   4.126
25601W        W84895  34.585   3.283   4.806
25602W        W84896   4.796  23.689  14.401
25603W        W84897   7.857  26.153  14.007
25604W        W84898  14.200  24.197   0.863
25605W        W84899  25.533  10.873   2.416
25606W        W84900  21.563  15.607  14.027
25607W        W84901   0.395   4.943   3.217
25608W        W84902  29.037  43.358   2.216
25609W        W84903  11.853  13.287  14.361
25610W        W84904  25.662  44.370  10.555
25611W        W84905  43.291  10.217  10.515
25612W        W84906   0.344  41.020   4.197
25613W        W84907  44.770  24.998  10.454
25614W        W84908   2.460  36.943   4.600
25615W        W84909   7.846   1.427   2.733
25616W        W84910  34.402  28.148  10.552
25617W        W84911   4.302   5.398  11.071
25618W        W84912  11.671  18.694  10.571
25619W        W84913  28.963  41.026   0.755
25620W        W84914  37.459  26.952   2.832
25621W        W84915  25.024  25.597   4.271
25622W        W84916  41.929   8.380  12.444
25623W        W84917  13.692  35.379  12.938
25624W        W84918  24.164  15.134   0.397
25625W        W84919  21.544  36.557   3.667
25626W        W84920  11.849  13.739  14.418
25627W        W84921  10.334  23.185   3.351
25628W        W84922  35.570  29.969   4.793
25629W        W84923   3.384  28.629  11.939
25630W        W84924  37.496  28.066   2.189
25631W        W84925   9.722  13.829  10.901
25632W        W84926  21.719  27.981   1.723
25633W        W84927   3.859   9.698  12.958
25634W        W84928   8.299  13.778  13.950
25635W        W84929   3.454  43.818   2.742
25636W        W84930   6.317  21.589   5.159
25637W        W84931  44.393  38.458   4.318
25638W        W84932   0.860  38.383   3.162
25639W        W84933  39.008  29.097   1.905
25640W        W84934  23.225  10.702   1.240
25641W        W84935  44.004  44.457   5.321
25642W        W84936  36.890  14.161   4.353
25643W        W84937  10.325  35.915   0.956
25644W        W84938   2.408  18.276   1.730
25645W        W84939  41.866  19.041   2.874
25646W        W84940  16.294  41.978   3.691
25647W        W84941  43.914   1.738   4.812
25648W        W84942  25.996  35.936   3.803
25649W        W84943  27.187  26.063  12.558
25650W        W84944  39.053  31.989   4.806
25651W        W84945  23.207  35.954   4.749
25652W        W84946   8.669  30.929  13.463
25653W        W84947  31.627  37.859   0.311
25654W        W84948   8.772  19.133   3.764
25655W        W84949  13.138  15.123  13.805
25656W        W84950  21.097  10.634   4.146
25657W        W84951  31.900  28.497  10.640
25658W        W84952  15.148  26.975  13.037
25659W        W84953   7.307  16.711  12.579
25660W        W84954  27.009  36.478   0.895
25661W        W84955  33.947  12.184   2.241
25662W        W84956  20.564  18.109  12.580
25663W        W84957  42.820  26.674  14.936
25664W        W84958  10.786  22.655  11.444
25665W        W84959  34.089  18.166   1.357
25666W        W84960   6.834  19.566  12.951
25667W        W84961  37.457  38.979   9.938
25668W        W84962  17.174  27.185   1.290
25669W        W84963  22.572   7.274   0.790
25670W        W84964  15.603  22.562  14.479
25671W        W84965  38.902  20.255   4.799
25672W        W84966   4.288  40.842  12.017
25673W        W84967  18.603  34.983   4.249
25674W        W84968   6.286  22.176   2.182
25675W        W84969  21.210  34.380  10.956
25676W        W84970   7.201  23.716  12.834
25677W        W84971  16.158  24.701   2.306
25678W        W84972  15.260  40.818   2.282
25679W        W84973   8.886  24.522  14.852
25680W        W84974  11.310  28.500  13.418
25681W        W84975   5.341  21.556  14.876
25682W        W84976   4.805  24.484   1.858
25683W        W84977  37.532  34.895   3.790
25684W        W84978  38.538  29.449   3.357
25685W        W84979  31.138  20.158  10.435
25686W        W84980  41.798  27.529   3.157
25687W        W84981  12.251  30.457   2.702
25688W        W84982  30.590   7.823   0.352
25689W        W84983  44.325  30.486   5.173
25690W        W84984   6.236  28.141  13.511
25691W        W84985  33.070  27.556   1.782
25692W        W84986  14.211   5.398  12.871
25693W        W84987  40.999  42.331  12.933
25694W        W84988   9.343  42.516  14.998
25695W        W84989   8.219  38.822   3.736
25696W        W84990  39.518  24.701  10.472
25697W        W84991   4.932  19.277  11.881
25698W        W84992  30.493  14.208   4.313
25699W        W84993  41.927  13.648  14.277
25700W        W84994  31.640  15.114   3.743
25701W        W84995   2.957  28.579   1.274
25702W        W84996  43.919   3.886   1.272
25703W        W84997  24.699  42.000  11.946
25704W        W84998   3.397  35.965  13.833
25705W        W84999  43.930  43.420  10.488
25706W        W85000  43.281  32.891   3.650
25707W        W85001  12.205  29.127  14.876
25708W        W85002   8.265  36.531   3.220
25709W        W85003  10.706  30.077  10.104
25710W        W85004  19.642   6.738  10.526
25711W        W85005   8.696  34.969   3.299
25712W        W85006  15.684  14.727   4.688
25713W        W85007  22.585  19.175   3.831
25714W        W85008  18.666   6.188  11.483
25715W        W85009   0.918   9.657  13.997
25716W        W85010   4.422  30.638   4.224
25717W        W85011  28.165  12.767  12.028
25718W        W85012  13.834  27.988   2.860
25719W        W85013  16.813  44.290   1.877
25720W        W85014  37.558  27.138  13.928
25721W        W85015   4.429  15.208   4.666
25722W        W85016   1.782  11.762   1.336
25723W        W85017   7.751  32.565  10.940
25724W        W85018  34.906  44.259  13.530
25725W        W85019  17.159  40.500  10.595
25726W        W85020  20.740   8.365  10.532
25727W        W85021  19.157  36.900  12.536
25728W        W85022  30.038  26.578  12.444
25729W        W85023  15.264  29.646   2.802
25730W        W85024   2.846   0.424  13.507
25731W        W85025  38.996  16.168   2.222
25732W        W85026  34.096  28.490  10.530
25733W        W85027  13.216  32.529  11.125
25734W        W85028  19.771   0.267   3.677
25735W        W85029  24.037  43.299   4.673
25736W        W85030   2.863   5.793   1.424
25737W        W85031  29.987  14.687  12.009
25738W        W85032  35.540  19.199  10.460
25739W        W85033  27.101  21.585  11.611
25740W        W85034  33.121  26.975  12.537
25741W        W85035  42.507  13.136  14.986
25742W        W85036  20.684   6.224  11.071
25743W        W85037  27.979  35.056  10.589
25744W        W85038   4.852  29.133  11.103
25745W        W85039  29.971  21.514   4.252
25746W        W85040  16.171  14.738   0.372
25747W        W85041  24.501  32.899  12.944
25748W        W85042  28.049  17.622  14.321
25749W        W85043  37.968  44.894  12.850
25750W        W85044  39.395  27.639  12.931
25751W        W85045  25.998  26.506  11.971
25752W        W85046  22.690   9.322   4.323
25753W        W85047  44.264  11.308  12.552
25754W        W85048  26.476   3.790  12.018
25755W        W85049  10.202   3.948  10.590
25756W        W85050  30.446  27.162   1.850
25757W        W85051  32.925  26.060  13.951
25758W        W85052  15.281  26.613   2.811
25759W        W85053   4.716  13.146  10.891
25760W        W85054   6.676  27.035   1.734
25761W        W85055   6.384  30.451   9.616
25762W        W85056  13.330  34.909   4.348
25763W        W85057  15.147   2.315   3.711
25764W        W85058   3.355  14.232  13.830
25765W        W85059  13.601  44.466  14.922
25766W        W85060   1.310   3.918  10.616
25767W        W85061  27.056  30.088  12.375
25768W        W85062  33.005   2.383   0.890
25769W        W85063   1.780  23.512  11.599
25770W        W85064  21.154  11.274  13.521
25771W        W85065  28.673  21.252   3.652
25772W        W85066  36.045  11.244  14.337
25773W        W85067  12.321   0.984   3.630
25774W        W85068  25.121   2.742   4.605
25775W        W85069  40.805   5.752  11.431
25776W        W85070  38.894  11.708   2.819
25777W        W85071  29.944  13.159  12.445
25778W        W85072  31.999   2.854   5.263
25779W        W85073  29.046  20.219  14.488
25780W        W85074  29.999  25.213   4.699
25781W        W85075  27.028  37.467  11.044
25782W        W85076  11.782   4.286  12.926
25783W        W85077   5.862   5.843  11.522
25784W        W85078  19.763  43.306   0.763
25785W        W85079   2.282  14.702   1.904
25786W        W85080  10.818  12.231  11.480
25787W        W85081  42.843  44.917  13.032
25788W        W85082  32.972  30.159   2.326
25789W        W85083   7.700  17.579  10.541
25790W        W85084  44.757   9.798   3.758
25791W        W85085  41.913  42.988   1.219
25792W        W85086  35.105  13.796  11.382
25793W        W85087  11.768  17.190   1.384
25794W        W85088  10.823  32.995  10.498
25795W        W85089   2.965   3.713   3.245
25796W        W85090   7.701  15.227   3.792
25797W        W85091  29.008  42.909   3.846
25798W        W85092  17.757  23.075   2.732
25799W        W85093   0.954  21.754   4.199
25800W        W85094   3.769  42.383   1.813
25801W        W85095  14.268  25.155  12.882
25802W        W85096  24.048  18.717  13.906
25803W        W85097  26.021  25.537   2.771
25804W        W85098  44.871   7.387   0.755
25805W        W85099   9.214  29.153   3.354
25806W        W85100  15.201   1.276  11.453
25807W        W85101   1.763  25.570   0.802
25808W        W85102  10.817  20.666  11.611
25809W        W85103   3.889  41.465   3.188
25810W        W85104   7.772  28.179  13.461
25811W        W85105  24.660  18.712  14.456
25812W        W85106  13.309  29.948  12.891
25813W        W85107  17.283   4.809  10.001
25814W        W85108   6.769  25.550  12.540
25815W        W85109   7.326  29.104   2.894
25816W        W85110   5.278  23.624   1.790
25817W        W85111  39.500   0.335   2.404
25818W        W85112  31.902   7.712   4.129
25819W        W85113  35.545  20.251  12.394
25820W        W85114  40.906  10.808  13.359
25821W        W85115   1.353   8.182   2.238
25822W        W85116  33.987  25.162  12.410
25823W        W85117  24.179  42.879   2.807
25824W        W85118  21.620  29.044  10.962
25825W        W85119   3.877  10.790  13.868
25826W        W85120   1.923   8.345   0.438
25827W        W85121  41.919   4.287   0.441
25828W        W85122  36.527  17.178   3.287
25829W        W85123  21.169  25.129  13.954
25830W        W85124   5.932  24.025   0.275
25831W        W85125  37.410  30.647  13.949
25832W        W85126   3.426  30.945   2.734
25833W        W85127  27.124  34.009  14.302
25834W        W85128   4.812  44.799   0.332
25835W        W85129  28.489  33.622   4.305
25836W        W85130  38.514  42.797  13.848
25837W        W85131  30.143  30.910   3.763
25838W        W85132  22.590  12.123  14.830
25839W        W85133   4.734  39.905   0.836
25840W        W85134   2.910   5.267  10.573
25841W        W85135  39.002  42.952   5.142
25842W        W85136  30.032  29.630   0.962
25843W        W85137   7.190  43.453   2.204
25844W        W85138  43.817  19.184  13.937
25845W        W85139   8.237   7.873   1.368
25846W        W85140  38.002  11.282   2.884
25847W        W85141  34.905  31.975  10.497
25848W        W85142  38.389  17.623  12.953
25849W        W85143  27.659  15.174  13.991
25850W        W85144  31.582   1.806   4.673
25851W        W85145  34.471  22.075   4.325
25852W        W85146  39.869  32.611  14.352
25853W        W85147  41.331  30.627   4.129
25854W        W85148   0.917   8.738   4.157
25855W        W85149  29.952   6.373  12.936
25856W        W85150   5.707  30.431   1.930
25857W        W85151   9.793  12.157  10.404
25858W        W85152  37.859  14.814  14.902
25859W        W85153   8.398  24.714   4.288
25860W        W85154   5.427   6.700  14.961
25861W        W85155  24.156  32.917  11.075
25862W        W85156   6.747   3.719   1.296
25863W        W85157  42.520  27.470  10.975
25864W        W85158  13.816  35.890   1.915
25865W        W85159  32.974  40.824   3.265
25866W        W85160  29.633  44.403  11.523
25867W        W85161  28.522  41.829   1.218
25868W        W85162  13.733  28.543   4.188
25869W        W85163  18.737  25.639  11.474
25870W        W85164  36.431   9.317   0.753
25871W        W85165   1.475  32.997  13.028
25872W        W85166  42.995  14.635  11.026
25873W        W85167  19.727   8.250  13.921
25874W        W85168   1.442  27.463  14.954
25875W        W85169   8.226  34.384  12.842
25876W        W85170  42.317  35.999   4.771
25877W        W85171  16.735  16.598  10.575
25878W        W85172   8.324  12.774  11.479
25879W        W85173   9.294   8.856   4.218
25880W        W85174  22.104   1.820  10.894
25881W        W85175   8.699  20.054  12.935
25882W        W85176  16.260  39.896  13.916
25883W        W85177  12.142  35.459  13.814
25884W        W85178  25.039  13.163   1.413
25885W        W85179  20.136  18.633   1.297
25886W        W85180  19.179  16.282  10.550
25887W        W85181  26.144  19.186   3.850
25888W        W85182  35.370   1.387   4.349
25889W        W85183  18.257  13.738  11.107
25890W        W85184   7.769   8.774   0.965
25891W        W85185  27.475  21.580  11.412
25892W        W85186  41.968  33.915   9.978
25893W        W85187  40.816   6.864  14.492
25894W        W85188   0.958  22.030   3.722
25895W        W85189  30.498  42.506  13.394
25896W        W85190  18.553   3.798  11.437
25897W        W85191  34.539  15.763  14.878
25898W        W85192  36.495   9.187  12.362
25899W        W85193  19.191   0.931   0.786
25900W        W85194  13.646  31.623   0.454
25901W        W85195  27.192  38.437  12.912
25902W        W85196  39.452  14.796   0.923
25903W        W85197  25.152  20.223  12.936
25904W        W85198  30.613  13.821   4.274
25905W        W85199  29.607  31.130  13.474
25906W        W85200  32.572  26.521  11.043
25907W        W85201  25.638  23.048  11.989
25908W        W85202  25.213   5.343  14.847
25909W        W85203  16.777  14.126  13.319
25910W        W85204  33.984  41.804   2.418
25911W        W85205  27.615  29.155   1.414
25912W        W85206  18.727  17.288  11.870
25913W        W85207  39.825   5.200  13.347
25914W        W85208  41.349  28.983  10.496
25915W        W85209  41.919  16.590   0.825
25916W        W85210  35.476  38.974  12.532
25917W        W85211  17.754  42.989   2.745
25918W        W85212  32.061  14.167   1.301
25919W        W85213  17.232  10.383  13.341
25920W        W85214  34.942  36.006   2.317
25921W        W85215  16.103  37.930   0.391
25922W        W85216  34.022   5.204   1.753
25923W        W85217  14.329   2.255   1.749
25924W        W85218  21.063   2.747  10.509
25925W        W85219   3.830  27.652  11.877
25926W        W85220   9.291  13.193   3.171
25927W        W85221  23.598  11.368   1.271
25928W        W85222  39.314  43.879   4.189
25929W        W85223  12.183  40.045   2.355
25930W        W85224  43.385  32.124   1.759
25931W        W85225  22.019  27.137  10.963
25932W        W85226  21.672  14.723   2.273
25933W        W85227   8.846  10.759  11.857
25934W        W85228   0.947  13.114  11.395
25935W        W85229  20.173  28.514  14.279
25936W        W85230   1.837   0.927  11.542
25937W        W85231  42.936   5.399   3.263
25938W        W85232  23.544  29.034  11.613
25939W        W85233  37.841  17.298   2.758
25940W        W85234  16.131  17.251  12.030
25941W        W85235  24.193  34.042  11.868
25942W        W85236  18.240   7.347   0.350
25943W        W85237  33.389  37.062   2.742
25944W        W85238   4.446   7.177   4.335
25945W        W85239  33.115   9.698  10.539
25946W        W85240  10.347  40.416  10.548
25947W        W85241  19.553  37.459  10.499
25948W        W85242  42.435  18.094  12.984
25949W        W85243  38.822  30.149   0.398
25950W        W85244  33.411  39.988  11.874
25951W        W85245  13.759  19.669  13.882
25952W        W85246   2.773  14.803   4.747
25953W        W85247  16.240  42.983  10.639
25954W        W85248  14.611  24.080   0.434
25955W        W85249  43.999  32.564   3.232
25956W        W85250  11.227  31.422   9.515
25957W        W85251  10.817   0.297   2.715
25958W        W85252  22.052  14.143   4.211
25959W        W85253  29.067  42.470   2.334
25960W        W85254  16.155  19.653   1.742
25961W        W85255  44.431  16.188   2.274
25962W        W85256  32.986   5.210  12.510
25963W        W85257  13.607  13.134  12.096
25964W        W85258  13.166  11.858  13.797
25965W        W85259  18.113   5.302  13.056
25966W        W85260  39.533   2.965   0.790
25967W        W85261   4.351  25.017  12.007
25968W        W85262  12.216  24.484   1.290
25969W        W85263  11.795   2.418  10.980
25970W        W85264  34.944  23.529  11.877
25971W        W85265  34.095  30.496  10.506
25972W        W85266   9.313   7.337  11.868
25973W        W85267  20.632  40.318  11.541
25974W        W85268  40.316   8.278   2.235
25975W        W85269  37.844  34.469   5.289
25976W        W85270  14.294  20.230   0.364
25977W        W85271   2.825   7.323   3.793
25978W        W85272  39.989   4.797  10.903
25979W        W85273  41.842   1.966  11.543
25980W        W85274  23.645  16.292  13.888
25981W        W85275   7.304   3.440   1.232
25982W        W85276  16.755  27.543  13.386
25983W        W85277   7.270  10.666  10.906
25984W        W85278  15.118  23.507  11.123
25985W        W85279  38.329  10.866  13.798
25986W        W85280  35.510  39.821   1.384
25987W        W85281   3.392  44.761  14.919
25988W        W85282   2.924  12.854   2.902
25989W        W85283  19.610  16.790  14.769
25990W        W85284   2.927   1.854   2.229
25991W        W85285  13.152  10.738   1.418
25992W        W85286   5.334  16.211  13.356
25993W        W85287  33.559   2.326  12.948
25994W        W85288  30.939  33.993   3.237
25995W        W85289  27.660  32.576  10.470
25996W        W85290  16.602   8.377  11.107
25997W        W85291  10.777   1.462   1.696
25998W        W85292  33.903  20.640  14.872
25999W        W85293  26.482  34.051  14.374
26000W        W85294  21.145  30.595   4.276
26001W        W85295  32.126  30.939   1.846
26002W        W85296   8.669   7.893   2.387
26003W        W85297  32.410  43.842  14.468
26004W        W85298   2.889  21.638   4.751
26005W        W85299  14.724  30.427   1.364
26006W        W85300  18.110  14.643   2.685
26007W        W85301  33.099   7.728   4.206
26008W        W85302   9.179   4.232  12.450
26009W        W85303  42.867   5.795   4.277
26010W        W85304  43.799  23.536   1.732
26011W        W85305  42.959  22.079   0.447
26012W        W85306   7.365  33.481  13.418
26013W        W85307  35.360  31.597   0.255
26014W        W85308   4.872   1.741   1.284
26015W        W85309  29.646  13.200   2.689
26016W        W85310  21.087   0.916  14.009
26017W        W85311  28.092  35.001  11.870
26018W        W85312  35.866  29.076  14.296
26019W        W85313  39.991   7.885   0.430
26020W        W85314  35.478   1.378  13.899
26021W        W85315  11.795  42.424  14.915
26022W        W85316   3.906  39.841  14.820
26023W        W85317  26.197  29.599   1.346
26024W        W85318  10.704  15.242  12.880
26025W        W85319  17.634  26.148   1.896
26026W        W85320   2.273  16.318  10.435
26027W        W85321  32.902   4.345   2.833
26028W        W85322   6.336  27.137   1.832
26029W        W85323  33.030  20.274   0.765
26030W        W85324  16.213  25.157  12.926
26031W        W85325   8.838   9.300  12.393
26032W        W85326  18.099  15.120  13.542
26033W        W85327  43.487  39.430  14.295
26034W        W85328  27.048  32.082  10.425
26035W        W85329  28.442  15.115  11.430
26036W        W85330  12.169  33.099   0.919
26037W        W85331  15.284   2.919  13.319
26038W        W85332  12.339  29.052  12.919
26039W        W85333  41.422  15.672  10.550
26040W        W85334  42.979  36.971   0.456
26041W        W85335  37.564  44.478   4.155
26042W        W85336   7.271  10.185  14.341
26043W        W85337  41.838  10.230   9.962
26044W        W85338  38.878  33.512   1.360
26045W        W85339   6.678   7.731  12.027
26046W        W85340  40.975  16.676   0.868
26047W        W85341  29.128  18.552   4.305
26048W        W85342  41.475  13.745   3.644
26049W        W85343  31.446  44.927  14.925
26050W        W85344  34.431  17.164  14.467
26051W        W85345  31.554  35.896   2.800
26052W        W85346  30.574  36.927  11.905
26053W        W85347  23.629  40.857   0.335
26054W        W85348  42.022  33.440   2.720
26055W        W85349  25.690  29.490   0.965
26056W        W85350  13.231  29.526   3.319
26057W        W85351  13.221   1.949   0.967
26058W        W85352  20.705  30.594   0.439
26059W        W85353  25.176  35.856   1.262
26060W        W85354  13.610  27.170   3.709
26061W        W85355   7.240  23.552   0.864
26062W        W85356  34.876  39.063   4.739
26063W        W85357  16.120  31.051   4.193
26064W        W85358  26.651   7.805   1.843
26065W        W85359  40.949  42.456   0.384
26066W        W85360  36.048  33.033  13.507
26067W        W85361  11.859  41.929  10.092
26068W        W85362  16.097  18.575   0.329
26069W        W85363  21.637   5.916  14.470
26070W        W85364  28.486  23.529  12.050
26071W        W85365  22.172  34.572   3.639
26072W        W85366  32.066  13.747  12.896
26073W        W85367  13.818   7.386  14.948
26074W        W85368   1.334   9.352   3.742
26075W        W85369  12.283  15.234  14.477
26076W        W85370  12.134  24.033  13.892
26077W        W85371  41.373  15.230  11.092
26078W        W85372  25.711  16.229  11.929
26079W        W85373  43.962  42.364   5.759
26080W        W85374   5.791  33.115  12.916
26081W        W85375  34.377  13.702   1.740
26082W        W85376  14.232   0.266   4.711
26083W        W85377  26.996  22.248  12.548
26084W        W85378  26.648  37.561  14.456
26085W        W85379  35.471  29.651   2.268
26086W        W85380   1.429  36.055  14.453
26087W        W85381   2.913  31.000   3.866
26088W        W85382  44.437  14.288  13.485
26089W        W85383  24.634  17.123  12.421
26090W        W85384   8.893  13.165   1.424
26091W        W85385  39.896  29.043  13.028
26092W        W85386  24.115   2.756  12.943
26093W        W85387   8.319   4.908  11.529
26094W        W85388  20.257  39.002   1.226
26095W        W85389  18.218   3.935   0.472
26096W        W85390   1.270  22.061   4.251
26097W        W85391  41.515  15.648  11.396
26098W        W85392  13.120  44.391   0.728
26099W        W85393  13.299   2.249  11.418
26100W        W85394  33.411  18.275  10.908
26101W        W85395  14.767  16.171  11.014
26102W        W85396  25.024  41.907  11.532
26103W        W85397   5.698   9.320  10.417
26104W        W85398   4.308  21.754  13.894
26105W        W85399   9.179  35.541  14.913
26106W        W85400   4.340  17.228   4.242
26107W        W85401   8.189   7.880  12.400
26108W        W85402  31.990  12.341  14.790
26109W        W85403  27.682   7.255  10.515
26110W        W85404  33.059  22.193  11.959
26111W        W85405  43.767  30.450   1.801
26112W        W85406   0.880  21.593  13.997
26113W        W85407  34.587  16.574  11.113
26114W        W85408  27.515  21.102  13.384
26115W        W85409  38.962   1.312  10.602
26116W        W85410  14.147  38.435   3.696
26117W        W85411  11.835  21.741   2.684
26118W        W85412  13.201  22.080  12.543
26119W        W85413  26.189  34.947  14.766
26120W        W85414  35.422  20.131   3.364
26121W        W85415  13.126   6.399   3.758
26122W        W85416  30.119   7.312   2.673
26123W        W85417  22.041  28.463   1.334
26124W        W85418   1.848  28.934   1.716
26125W        W85419  36.458  29.638   1.891
26126W        W85420  29.925  35.529  14.025
26127W        W85421  11.639   5.244  14.954
26128W        W85422  24.047  28.939   2.214
26129W        W85423   0.485  10.846  14.883
26130W        W85424  17.640  14.604   0.255
26131W        W85425  36.059  37.363  13.913
26132W        W85426  24.637  36.568   4.625
26133W        W85427  14.310  19.062   2.358
26134W        W85428  43.505   3.245  11.590
26135W        W85429  30.575  12.206  13.811
26136W        W85430   7.346  30.482   2.190
26137W        W85431  10.297   8.730   0.409
26138W        W85432  20.566  39.036  10.960
26139W        W85433  37.886  42.912   0.780
26140W        W85434  31.435  33.908   0.897
26141W        W85435  34.416  16.175   4.838
26142W        W85436  32.082  38.964   1.390
26143W        W85437  12.780   6.779  12.989
26144W        W85438   5.691  17.065  14.355
26145W        W85439  30.988   5.713  10.971
26146W        W85440  11.634  17.718  10.413
26147W        W85441   0.381  44.343  11.601
26148W        W85442  18.618   5.278   2.348
26149W        W85443  41.497  27.457   1.393
26150W        W85444  14.645  32.079  13.930
26151W        W85445  40.899  27.459  12.558
26152W        W85446  28.581  42.499  10.405
26153W        W85447  10.382  14.712   2.746
26154W        W85448  16.118  33.409   2.698
26155W        W85449  36.542  32.997  11.045
26156W        W85450  24.637  22.111  14.506
26157W        W85451  17.141  22.606   3.297
26158W        W85452  24.679   1.349   1.878
26159W        W85453  10.666  26.172  12.855
26160W        W85454  23.669  10.243  13.501
26161W        W85455  12.747   1.443   3.800
26162W        W85456  27.071   5.212   3.692
26163W        W85457  21.528  39.019   2.814
26164W        W85458  17.759  29.972  10.969
26165W        W85459  40.513  41.847   3.743
26166W        W85460  17.151  23.206   0.743
26167W        W85461   1.783  40.350   4.759
26168W        W85462  19.743  36.050  14.955
26169W        W85463   1.975  30.552  13.888
26170W        W85464  20.602  23.607   0.735
26171W        W85465  11.661   8.872  10.500
26172W        W85466  25.178  15.201  13.433
26173W        W85467  39.336   7.685   9.924
26174W        W85468   2.892  16.296   2.793
26175W        W85469  22.701   0.940   4.180
26176W        W85470  11.338  42.010  14.031
26177W        W85471  12.216  38.934   4.153
26178W        W85472  11.337  31.492   2.752
26179W        W85473   7.235  37.572  10.908
26180W        W85474  23.575  28.001   0.474
26181W        W85475  38.468   2.401  11.607
26182W        W85476  22.657  18.241  11.548
26183W        W85477  38.495   1.268  11.477
26184W        W85478  11.238   4.942  14.953
26185W        W85479   1.397  15.687  11.888
26186W        W85480   3.719   7.807   3.818
26187W        W85481  25.513  31.923  12.426
26188W        W85482  11.853  24.202   1.257
26189W        W85483  31.544  40.507   4.122
26190W        W85484  14.711  15.729  13.863
26191W        W85485  44.864  20.097   0.379
26192W        W85486  34.546  41.994  12.011
26193W        W85487  22.024  39.891  13.009
26194W        W85488  36.981  21.641  11.999
26195W        W85489  44.312  38.982  14.029
26196W        W85490  11.278  44.447  13.016
26197W        W85491  21.141  43.417  13.031
26198W        W85492  18.285  20.678  10.921
26199W        W85493  20.734  19.755   4.232
26200W        W85494   5.757  32.559  11.502
26201W        W85495   2.929  17.579   0.315
26202W        W85496  33.886   4.901   3.315
26203W        W85497  30.083  35.509  12.923
26204W        W85498  22.015  16.697  12.548
26205W        W85499  13.154   4.862  13.419
26206W        W85500  26.037  18.153   4.134
26207W        W85501  22.217  30.110   4.137
26208W        W85502  37.883  24.608   2.685
26209W        W85503   3.811  39.997   0.411
26210W        W85504  40.903  40.505  10.908
26211W        W85505  18.166  20.135  11.895
26212W        W85506  27.007  22.663  10.003
26213W        W85507   2.438  43.777   1.247
26214W        W85508  12.798  18.697  12.448
26215W        W85509  17.270  22.112  12.517
26216W        W85510  16.778  16.266   3.174
26217W        W85511  42.836  43.270   3.372
26218W        W85512   9.217   2.342   4.236
26219W        W85513  40.344  20.157  10.621
26220W        W85514  34.384  29.593   4.713
26221W        W85515  30.042   3.430  14.317
26222W        W85516  14.684  44.375  12.019
26223W        W85517  26.488  14.707   0.297
26224W        W85518  31.460  24.649  11.389
26225W        W85519  28.511  30.467   3.277
26226W        W85520  44.403  10.877   3.821
26227W        W85521   6.732  18.089  13.500
26228W        W85522  20.216  43.508   1.394
26229W        W85523  13.223  41.419   2.859
26230W        W85524  32.051  27.559   2.368
26231W        W85525  28.087  42.897   0.776
26232W        W85526   7.729  28.596   2.304
26233W        W85527  31.643   1.755   4.153
26234W        W85528   3.260  28.532   0.858
26235W        W85529  10.667  22.191   2.687
26236W        W85530   4.942  24.598   0.869
26237W        W85531  42.419   6.326   2.314
26238W        W85532  19.274  14.719  10.627
26239W        W85533  39.469   5.302   1.418
26240W        W85534  20.144  14.329   2.315
26241W        W85535  12.167  32.442  13.036
26242W        W85536  38.368  44.269  13.398
26243W        W85537  34.056  37.401  14.839
26244W        W85538  21.255  43.978  12.387
26245W        W85539   2.250  33.580   4.782
26246W        W85540   9.676  31.475   3.156
26247W        W85541  26.067  37.891   0.790
26248W        W85542   2.944  42.443  13.411
26249W        W85543  16.774  26.618  13.324
26250W        W85544  22.086  15.698  11.103
26251W        W85545  32.129   6.891  11.483
26252W        W85546  28.671  28.094   0.944
26253W        W85547  37.438  42.920  13.841
26254W        W85548  34.906  38.065   0.771
26255W        W85549  25.700  37.929   4.193
26256W        W85550   4.269  33.938  12.347
26257W        W85551   2.941   7.711  13.985
26258W        W85552  38.848  27.944  14.816
26259W        W85553  39.897  14.166  14.824
26260W        W85554  25.688   9.679  13.493
26261W        W85555  19.575   7.774   0.389
26262W        W85556  19.556   8.160  10.902
26263W        W85557  21.185  25.526   1.366
26264W        W85558  26.174  41.041   1.314
26265W        W85559  26.032  15.711  14.800
26266W        W85560  26.981  21.259   2.896
26267W        W85561  24.555  14.806  13.472
26268W        W85562  10.721  43.861  14.422
26269W        W85563  42.281  33.899  10.452
26270W        W85564   0.850  27.991  10.113
26271W        W85565  41.861  29.669   2.890
26272W        W85566  36.909  35.520   0.810
26273W        W85567   3.741  19.096   3.185
26274W        W85568  23.683  42.012   3.854
26275W        W85569   3.908   0.394  14.365
26276W        W85570   0.879  12.818   1.399
26277W        W85571  28.071  13.791  11.482
26278W        W85572  41.306   5.929  11.377
26279W        W85573  39.873  21.191   0.763
26280W        W85574  15.716  14.121   2.186
26281W        W85575  22.646  13.631  14.322
26282W        W85576  11.642  15.598   3.372
26283W        W85577  13.233  35.444  11.592
26284W        W85578   6.872   5.201   0.431
26285W        W85579  33.533  43.474   4.306
26286W        W85580  25.988  15.097  13.853
26287W        W85581  19.231  34.055  11.482
26288W        W85582  12.711  23.541  12.053
26289W        W85583  42.294  35.932  11.042
26290W        W85584  23.162  11.652   1.811
26291W        W85585  26.472  25.590   3.652
26292W        W85586  14.112  27.541  10.920
26293W        W85587  29.165  30.164   0.335
26294W        W85588  29.036  41.517   1.722
26295W        W85589   5.789  27.941  14.282
26296W        W85590  40.351  24.077  11.987
26297W        W85591  41.935  14.706   4.752
26298W        W85592  12.668  29.550   4.699
26299W        W85593  42.413  44.788   2.280
26300W        W85594   6.872  20.152   0.465
26301W        W85595   6.374  41.849  13.327
26302W        W85596  12.317  15.738  14.503
26303W        W85597  39.889  22.182   0.743
26304W        W85598  33.431  35.934   1.363
26305W        W85599   8.672  40.818  10.638
26306W        W85600  42.304  41.402   4.300
26307W        W85601   6.360  31.022  11.874
26308W        W85602  32.028  29.527  12.085
26309W        W85603   1.360   9.161   1.269
26310W        W85604   3.441   7.314  11.409
26311W        W85605   6.776  34.605  10.607
26312W        W85606  44.423  44.790  10.432
26313W        W85607   6.409  12.725  11.879
26314W        W85608   5.204  42.781  10.618
26315W        W85609  30.584  41.365   3.370
26316W        W85610  43.962   7.784  12.069
26317W        W85611  16.146  41.867   1.219
26318W        W85612  10.241  13.184   2.700
26319W        W85613   7.897  19.743  12.978
26320W        W85614   6.272   1.395   3.275
26321W        W85615  38.820  36.407  14.997
26322W        W85616  20.088  23.184   1.873
26323W        W85617  33.025   6.192   9.983
26324W        W85618   8.706  32.918  12.960
26325W        W85619  41.851  39.029   4.778
26326W        W85620  35.383   9.283   2.374
26327W        W85621  29.629  13.809  10.449
26328W        W85622  18.699  42.988  12.486
26329W        W85623  33.094  16.706  12.546
26330W        W85624   9.222  28.079   4.656
26331W        W85625  38.416  28.509   1.298
26332W        W85626  31.049  11.737  14.327
26333W        W85627  10.249  39.429  14.418
26334W        W85628  43.894  13.640   2.326
26335W        W85629  26.993  23.540  12.859
26336W        W85630  32.047  32.595   3.642
26337W        W85631  14.296   1.930  14.992
26338W        W85632  43.009   5.435  14.338
26339W        W85633  22.218   0.832   0.814
26340W        W85634  12.622  11.175   0.345
26341W        W85635  34.008   0.969   0.377
26342W        W85636  33.081  18.064  14.811
26343W        W85637  21.535   1.461   4.763
26344W        W85638  37.962   5.720  11.428
26345W        W85639   4.381  27.567  12.024
26346W        W85640   6.209  15.681  13.533
26347W        W85641  40.374  43.384  12.878
26348W        W85642  43.348  40.018  12.414
26349W        W85643  44.454  19.050   1.800
26350W        W85644  33.391  33.540   1.315
26351W        W85645  39.407  11.750  12.824
26352W        W85646  35.432   7.297  11.898
26353W        W85647  43.012   2.448   2.407
26354W        W85648   9.723   7.794  10.615
26355W        W85649  34.482  14.652  12.434
26356W        W85650  37.005  12.260  13.946
26357W        W85651   4.434   8.888   3.238
26358W        W85652  44.452  43.320   2.682
26359W        W85653   0.441  30.059  14.923
26360W        W85654  34.445  36.016  14.418
26361W        W85655  23.149  13.341   3.173
26362W        W85656  13.757  39.557  10.595
26363W        W85657  42.959  44.957   3.153
26364W        W85658  31.929   3.833  11.873
26365W        W85659  10.715  15.586  11.873
26366W        W85660   8.670  27.680   3.277
26367W        W85661  20.559   2.318   1.340
26368W        W85662   0.830  23.010  10.533
26369W        W85663  38.411  33.093  10.898
26370W        W85664  12.188  38.359  14.324
26371W        W85665  14.275  43.295  14.277
26372W        W85666  32.563  23.667   2.350
26373W        W85667   5.423  37.853   3.346
26374W        W85668  22.571  20.522  13.022
26375W        W85669  12.147  26.181  14.444
26376W        W85670   6.319   2.933   3.196
26377W        W85671  32.059  38.389  12.567
26378W        W85672  15.179  19.752  12.083
26379W        W85673  12.737  28.955   4.768
26380W        W85674  14.221   3.414  10.637
26381W        W85675  32.617   6.870  13.962
26382W        W85676  40.969   8.846  14.301
26383W        W85677   3.795   2.421  14.312
26384W        W85678  20.084  29.025  10.417
26385W        W85679  44.971   9.692  14.484
26386W        W85680  15.178  17.098  10.580
26387W        W85681  44.371  39.913  10.056
26388W        W85682  42.472  22.136  10.890
26389W        W85683  39.422  21.549  11.941
26390W        W85684   2.911  33.479  12.515
26391W        W85685  16.179  11.283  12.357
26392W        W85686  35.547  10.322   2.276
26393W        W85687  33.438  17.584   1.816
26394W        W85688  31.959   9.832  12.419
26395W        W85689   1.791   9.712   2.817
26396W        W85690  18.597  29.565  13.834
26397W        W85691  10.199  30.147   4.829
26398W        W85692  20.609  11.144  13.407
26399W        W85693   6.301   0.350  14.815
26400W        W85694   2.330  35.416  13.956
26401W        W85695  36.009  15.762  14.790
26402W        W85696   7.252  12.337   4.328
26403W        W85697   0.915  29.098  10.404
26404W        W85698  23.630   7.283   9.931
26405W        W85699  37.499   4.868  11.485
26406W        W85700  44.975  41.872  14.378
26407W        W85701  11.762  35.403   1.868
26408W        W85702  35.509   1.873   4.804
26409W        W85703  12.131  38.960   2.319
26410W        W85704  17.163  35.473  10.996
26411W        W85705  37.487  42.950   3.662
26412W        W85706  14.797  17.258   4.335
26413W        W85707  33.544  18.605  13.492
26414W        W85708  44.005   5.334  11.978
26415W        W85709  44.485   8.879  14.293
26416W        W85710  23.575  23.655  10.994
26417W        W85711  44.886  10.702   3.177
26418W        W85712   5.413  44.383  10.548
26419W        W85713   2.361   1.796   3.731
26420W        W85714  30.034  21.147   0.322
26421W        W85715  13.145  32.053  10.124
26422W        W85716  23.727  42.361  11.530
26423W        W85717   1.390  15.619  12.977
26424W        W85718  30.467   5.345  14.322
26425W        W85719  15.621   3.865  13.918
26426W        W85720  27.127  28.049   4.295
26427W        W85721  16.687  44.280   3.746
26428W        W85722  27.954  18.077  10.567
26429W        W85723  15.619  42.935   5.090
26430W        W85724  38.922  28.457  14.020
26431W        W85725  40.509  24.622  12.897
26432W        W85726  24.525  29.024   0.801
26433W        W85727   3.802  15.281  10.925
26434W        W85728  42.505  12.846   1.363
26435W        W85729  26.187  19.683  11.531
26436W        W85730  30.907  30.442   2.662
26437W        W85731   3.913  18.580   2.894
26438W        W85732  35.987  20.246  11.561
26439W        W85733  30.108  40.476   1.856
26440W        W85734  24.638  44.984  11.074
26441W        W85735  14.247  40.525  11.881
26442W        W85736  21.072  27.002  11.881
26443W        W85737   9.682  14.832   1.848
26444W        W85738  35.556  28.546   4.782
26445W        W85739  16.166  41.409  12.008
26446W        W85740  28.084  25.157  13.509
26447W        W85741   1.422  13.227  10.504
26448W        W85742  20.724  37.341  10.413
26449W        W85743  17.287   9.715   0.830
26450W        W85744  39.462  38.342  10.095
26451W        W85745  33.451   7.228   3.779
26452W        W85746  37.338   1.809   1.249
26453W        W85747  14.139   9.208  10.943
26454W        W85748  17.067  35.079  11.929
26455W        W85749  25.662  24.488   0.853
26456W        W85750  26.608  24.119   5.230
26457W        W85751   7.676  18.721  11.110
26458W        W85752  10.328   2.373  14.793
26459W        W85753  12.223  43.864   4.822
26460W        W85754  40.415  33.922  10.445
26461W        W85755  26.645  29.967   1.843
26462W        W85756   1.247  43.899   5.162
26463W        W85757  15.728  22.058  11.427
26464W        W85758  43.337  27.154   1.339
26465W        W85759  38.431  14.276  11.037
26466W        W85760  43.884  40.386  14.413
26467W        W85761  19.551  34.034  10.999
26468W        W85762  10.248  29.489   0.336
26469W        W85763  33.395  31.462  14.806
26470W        W85764  27.676   3.743   0.849
26471W        W85765  21.252  19.181  12.896
26472W        W85766  36.389  36.465  12.424
26473W        W85767  31.079  28.550  14.405
26474W        W85768  14.815  16.684   2.803
26475W        W85769   3.276  11.187  14.296
26476W        W85770  25.565  30.448   3.238
26477W        W85771  33.421  15.810   0.261
26478W        W85772  10.638  12.149  14.920
26479W        W85773  16.810  11.329  13.432
26480W        W85774   3.259  43.960   2.353
26481W        W85775  17.658  21.547   5.598
26482W        W85776  16.267   9.686   0.781
26483W        W85777  33.423  14.787   0.243
26484W        W85778  21.734  13.760  13.040
26485W        W85779   4.911  23.029   0.384
26486W        W85780   9.224  37.492  11.578
26487W        W85781  41.039  10.352  14.487
26488W        W85782  40.824  35.853   0.371
26489W        W85783  26.640   5.788  13.489
26490W        W85784  29.119  44.814   4.675
26491W        W85785  44.310  38.392  10.435
26492W        W85786  33.913  16.787   2.272
26493W        W85787  18.203  43.326   2.269
26494W        W85788  35.456  35.484  13.464
26495W        W85789  23.150  37.041   3.274
26496W        W85790  40.389  34.430   2.872
26497W        W85791  44.943  32.561   3.227
26498W        W85792  21.713  38.976  14.947
26499W        W85793  11.369   1.320   0.734
26500W        W85794   2.313  33.585  10.435
26501W        W85795  42.017  36.912  11.497
26502W        W85796  31.530   5.807  13.009
26503W        W85797  38.998   1.268   1.446
26504W        W85798  12.778  18.789   4.715
26505W        W85799  34.475  44.868   4.258
26506W        W85800  17.221  15.702   5.173
26507W        W85801  33.893   6.347   0.884
26508W        W85802  34.510   8.285   2.894
26509W        W85803  36.867   7.320  11.425
26510W        W85804  16.716  33.076  12.986
26511W        W85805  20.695  42.425   0.314
26512W        W85806   4.897  40.320   3.332
26513W        W85807  24.103  37.408  13.324
26514W        W85808  39.339  16.318  12.528
26515W        W85809  37.022   3.219  13.392
26516W        W85810  14.240  43.330   2.361
26517W        W85811  15.177  16.669   9.442
26518W        W85812  36.998  23.040   4.771
26519W        W85813   6.379  29.992   0.782
26520W        W85814  17.217   0.424   4.722
26521W        W85815  31.439  28.072  12.913
26522W        W85816  29.986  23.589   3.188
26523W        W85817  10.169  12.362  10.987
26524W        W85818  16.717  15.773   1.762
26525W        W85819  37.985  16.191  11.917
26526W        W85820   0.381  28.436  10.952
26527W        W85821  24.016  24.528   0.750
26528W        W85822   7.766  24.111   0.726
26529W        W85823  34.089  43.492  11.979
26530W        W85824  33.072   4.409   1.870
26531W        W85825   3.250  32.566   2.901
26532W        W85826  31.970  10.169   0.452
26533W        W85827  16.793   5.255  12.556
26534W        W85828  37.457  42.872   4.163
26535W        W85829   5.730  25.611  13.446
26536W        W85830  18.771  38.336   4.692
26537W        W85831  29.466  31.938  11.466
26538W        W85832  44.419  15.286   3.180
26539W        W85833  35.554   8.286   3.329
26540W        W85834   4.251  25.672  12.461
26541W        W85835  40.344  38.344   3.741
26542W        W85836  41.928  38.072  13.915
26543W        W85837  15.812  10.842   2.396
26544W        W85838  41.901  41.940   4.769
26545W        W85839   6.795  41.962   4.264
26546W        W85840  26.964  25.031  10.429
26547W        W85841   9.665  16.733   4.664
26548W        W85842  41.910  43.827  11.114
26549W        W85843   8.679  32.032  12.837
26550W        W85844  14.198  27.605   2.348
26551W        W85845  13.276  15.200   3.202
26552W        W85846  18.297   7.316   2.304
26553W        W85847   5.343  40.043  14.473
26554W        W85848  23.587  40.002   1.366
26555W        W85849  20.139   8.873  12.504
26556W        W85850  13.816  40.477   3.689
26557W        W85851  20.227  40.344   1.710
26558W        W85852  10.654  21.637   3.684
26559W        W85853   2.749  23.078   4.822
26560W        W85854  29.030   4.721  12.934
26561W        W85855  35.436  26.504   3.290
26562W        W85856  24.207  26.093   3.685
26563W        W85857   8.359  20.667   2.718
26564W        W85858   2.861  30.609   4.737
26565W        W85859   9.380   2.824   1.411
26566W        W85860  21.257  26.175  10.454
26567W        W85861  23.572   1.796  10.594
26568W        W85862  15.606  33.573   3.184
26569W        W85863  17.112   9.270  13.398
26570W        W85864  37.579  14.608   5.285
26571W        W85865  36.468  19.204   4.149
26572W        W85866   4.444   2.322  13.507
26573W        W85867  42.863  44.482   4.613
26574W        W85868   9.742  39.510   3.329
26575W        W85869  14.286  35.955   2.251
26576W        W85870   3.714  15.145   2.673
26577W        W85871  43.334  15.108   0.282
26578W        W85872   2.743  19.539   0.832
26579W        W85873  39.498  13.800   3.683
26580W        W85874  16.773  33.539  12.451
26581W        W85875  31.130  17.661  12.046
26582W        W85876  29.164  16.621  12.477
26583W        W85877   7.303  36.573  12.579
26584W        W85878  35.536  38.029  14.821
26585W        W85879  41.966  17.198  12.502
26586W        W85880  22.073  22.634  10.911
26587W        W85881  40.915   7.811   1.409
26588W        W85882  14.801  26.483   0.757
26589W        W85883  34.912  14.813  12.891
26590W        W85884  35.479  19.567   3.703
26591W        W85885  43.274  44.892   5.292
26592W        W85886  25.125  13.797   1.241
26593W        W85887  26.969  35.477  13.907
26594W        W85888   9.220  28.449  13.422
26595W        W85889  33.908  29.652   3.254
26596W        W85890  35.004  17.120   1.803
26597W        W85891  13.239  29.547   0.821
26598W        W85892  12.853   3.750  12.828
26599W        W85893  32.924  19.774  12.548
26600W        W85894  25.074  24.495  12.355
26601W        W85895   1.242  24.725   2.825
26602W        W85896  11.787  14.109  14.796
26603W        W85897  18.788  18.735  11.124
26604W        W85898  20.727   4.699   3.340
26605W        W85899  10.738   2.472  13.822
26606W        W85900  14.820  27.677  13.791
26607W        W85901  20.621  13.811   2.666
26608W        W85902  20.532  42.001  12.836
26609W        W85903   0.369  42.004  11.958
26610W        W85904  32.439  41.483   3.233
26611W        W85905  30.118  26.592   3.255
26612W        W85906   8.200  14.686  13.474
26613W        W85907  15.703  15.210  10.490
26614W        W85908  10.169  31.470   3.310
26615W        W85909  30.428  22.511   3.330
26616W        W85910   3.804   8.816   3.286
26617W        W85911  42.500  28.573  11.104
26618W        W85912   7.753  10.856   2.732
26619W        W85913  33.104   3.715   0.320
26620W        W85914  35.492  40.978   3.277
26621W        W85915  23.649   6.419  10.159
26622W        W85916  36.930  35.103  13.403
26623W        W85917   9.710  14.186  13.888
26624W        W85918   6.768   1.965   0.386
26625W        W85919  40.505  41.359  12.086
26626W        W85920  35.083  21.736  11.432
26627W        W85921  16.657  20.634   3.762
26628W        W85922  40.464  11.306   4.250
26629W        W85923   8.400  38.515   2.808
26630W        W85924  42.883  34.886   1.429
26631W        W85925  37.054  38.401  11.598
26632W        W85926   6.399  14.260   4.170
26633W        W85927  32.415  13.791   4.738
26634W        W85928  14.163  41.464   1.352
26635W        W85929   8.279  22.669  10.891
26636W        W85930  21.682  21.677  12.524
26637W        W85931   1.877  10.231   3.821
26638W        W85932  28.656  26.998   2.809
26639W        W85933  25.208  20.608   1.402
26640W        W85934  29.460  44.377   0.451
26641W        W85935   9.276   3.452  11.039
26642W        W85936  42.988  19.762  13.958
26643W        W85937  25.709  27.644   1.283
26644W        W85938  35.893  11.757   3.780
26645W        W85939  33.623   7.706   4.307
26646W        W85940  31.123  17.675   4.835
26647W        W85941  18.227   4.385  13.843
26648W        W85942  44.853   0.407   2.858
26649W        W85943  14.701   7.396   3.722
26650W        W85944  11.809  29.564  13.390
26651W        W85945  24.538   3.274  13.887
26652W        W85946  41.928  44.882  14.839
26653W        W85947  28.980  32.920  14.868
26654W        W85948  37.509  42.963   1.319
26655W        W85949  41.989  23.713   3.255
26656W        W85950  10.263  23.643   3.762
26657W        W85951  32.530  12.632  11.080
26658W        W85952   3.869  22.677  13.473
26659W        W85953  27.155   3.428  13.903
26660W        W85954  36.968   6.212   3.862
26661W        W85955  41.828  39.447   4.154
26662W        W85956  37.423  21.095  12.527
26663W        W85957  16.727  19.254   0.903
26664W        W85958  14.667   2.845  12.887
26665W        W85959  23.202  22.726  12.380
26666W        W85960  19.748  22.639  13.953
26667W        W85961  26.154  36.031   1.826
26668W        W85962  11.797  13.628   1.766
26669W        W85963   1.371  34.417   4.290
26670W        W85964  23.088  21.108  13.041
26671W        W85965   2.727  42.380  12.478
26672W        W85966  32.632  35.000   2.380
26673W        W85967  30.613  28.525   0.265
26674W        W85968  13.173  26.568   2.192
26675W        W85969   2.938  43.952   0.362
26676W        W85970  34.562  22.628   4.349
26677W        W85971   8.282  26.044   3.662
26678W        W85972  35.085  24.700  14.318
26679W        W85973  40.965  19.182   2.690
26680W        W85974   8.375   1.887   0.268
26681W        W85975  29.555  26.156   3.211
26682W        W85976  42.284  11.199   4.728
26683W        W85977  38.057  39.871  14.371
26684W        W85978  38.963  11.299   2.688
26685W        W85979   6.354  44.329   1.792
26686W        W85980   0.373  24.139   0.472
26687W        W85981   1.327   7.385  14.774
26688W        W85982  10.796   9.844  13.850
26689W        W85983  21.099   4.303  10.005
26690W        W85984  39.519  21.066  11.011
26691W        W85985  18.730   0.853  11.921
26692W        W85986  17.209  40.899   0.262
26693W        W85987  18.255  44.481  13.534
26694W        W85988  41.950  40.379   4.170
26695W        W85989  35.423  20.701   4.830
26696W        W85990  34.051  42.873   0.853
26697W        W85991   6.704  27.193  11.932
26698W        W85992  17.593  30.478   2.357
26699W        W85993  21.700   7.365  14.338
26700W        W85994  40.952  18.572   3.683
26701W        W85995  34.525  22.032  11.883
26702W        W85996   3.763   8.178  14.409
26703W        W85997   5.923   7.800  13.540
26704W        W85998   1.747  19.651   1.300
26705W        W85999  24.533  44.765  12.341
26706W        W86000  37.039   0.298   2.250
26707W        W86001  42.526  18.773   3.256
26708W        W86002  24.037  20.535   3.283
26709W        W86003  28.105  10.150  10.476
26710W        W86004  33.999  33.567   0.308
26711W        W86005  38.442  34.495   0.356
26712W        W86006  36.926  14.819  10.974
26713W        W86007   4.864  40.979  12.038
26714W        W86008  27.148  24.665   3.366
26715W        W86009   6.350   3.337   3.187
26716W        W86010  27.009  14.170   3.355
26717W        W86011  30.010  16.772   3.267
26718W        W86012  33.128   4.217  14.933
26719W        W86013  25.573  43.988  13.806
26720W        W86014  11.751  41.035   1.333
26721W        W86015  31.445  36.001  13.886
26722W        W86016  20.050   2.441   0.912
26723W        W86017  43.798  14.148   1.791
26724W        W86018  14.307  19.283   3.734
26725W        W86019  10.288  42.791   3.243
26726W        W86020  22.123  32.412   1.894
26727W        W86021  33.560  27.641  14.899
26728W        W86022  40.501  26.623   4.286
26729W        W86023  12.134  28.049   3.740
26730W        W86024  21.598  35.944  14.336
26731W        W86025  21.668  38.953   4.267
26732W        W86026   4.815  27.198  14.818
26733W        W86027  23.540  18.267  11.418
26734W        W86028   6.846  26.675   3.817
26735W        W86029  24.990  31.082   3.650
26736W        W86030  14.269  16.230   4.125
26737W        W86031  26.157  18.670   2.803
26738W        W86032  17.165  34.404  13.807
26739W        W86033  13.674  38.908   4.256
26740W        W86034   5.246   3.876  14.363
26741W        W86035  43.388  21.749   2.184
26742W        W86036  15.762   7.737   3.287
26743W        W86037   8.352  23.663  13.970
26744W        W86038  41.818  32.094  10.636
26745W        W86039   4.845  37.960  14.032
26746W        W86040  41.446  38.031   3.735
26747W        W86041  44.877   4.415  14.452
26748W        W86042  22.196   5.296   3.688
26749W        W86043  11.215  19.664  13.451
26750W        W86044  27.996  13.659   0.784
26751W        W86045  26.059  21.034  10.961
26752W        W86046   0.280  29.087   1.862
26753W        W86047  25.701  24.501  11.385
26754W        W86048  34.499   4.391  14.836
26755W        W86049  20.250   3.384  11.486
26756W        W86050  33.016  25.084  12.366
26757W        W86051   8.327  13.288   1.762
26758W        W86052   0.860  43.309   3.716
26759W        W86053   0.891  43.933   3.659
26760W        W86054  14.672   4.248   0.839
26761W        W86055  28.504  31.625   2.262
26762W        W86056  24.693   1.883   2.663
26763W        W86057   6.376  24.218   5.261
26764W        W86058  32.130  14.303  14.888
26765W        W86059  38.037  42.009  11.074
26766W        W86060  10.720   1.835  10.115
26767W        W86061  26.482  10.295   1.771
26768W        W86062  13.747   6.184  11.093
26769W        W86063  14.176   0.870  12.896
26770W        W86064  28.984  25.117   1.299
26771W        W86065  36.419  29.647  10.429
26772W        W86066  33.513  17.237   4.266
26773W        W86067  39.377   9.735  10.644
26774W        W86068  14.590   7.900  11.977
26775W        W86069  30.099  28.596  14.367
26776W        W86070  16.186  41.527  12.416
26777W        W86071  29.637  41.438   1.877
26778W        W86072  41.967  13.112  14.801
26779W        W86073  37.981  18.577   4.200
26780W        W86074   7.286  17.582  11.874
26781W        W86075  23.012  21.532  10.973
26782W        W86076  23.175   9.316  14.812
26783W        W86077   9.760  35.442  14.902
26784W        W86078  27.983  34.494   2.894
26785W        W86079  21.719   2.772  14.019
26786W        W86080  12.180  26.077  12.839
26787W        W86081   3.272  23.048   0.355
26788W        W86082  12.223   5.779  13.431
26789W        W86083  34.935  10.670  12.419
26790W        W86084   8.324  42.495  12.370
26791W        W86085  15.606  43.270   1.720
26792W        W86086  20.631  25.179   1.297
26793W        W86087  33.415  40.950   3.834
26794W        W86088  34.378  26.515  14.370
26795W        W86089   2.831  15.295  14.935
26796W        W86090  15.615   5.352   0.913
26797W        W86091  10.204  32.396   2.778
26798W        W86092  37.510  31.014   0.811
26799W        W86093  10.807  14.292   2.761
26800W        W86094  18.226  21.025  14.927
26801W        W86095  32.533  24.166  11.937
26802W        W86096  21.085  25.014  14.412
26803W        W86097  44.896  33.594  12.969
26804W        W86098  18.791  15.584   3.637
26805W        W86099  18.183  17.199   0.370
26806W        W86100  33.089  28.061   4.712
26807W        W86101  11.827  32.533  12.382
26808W        W86102  26.135  27.000   0.960
26809W        W86103  40.845   2.903   2.372
26810W        W86104   0.912  43.378   1.235
26811W        W86105  13.245  26.592   0.301
26812W        W86106  29.517  27.614  13.432
26813W        W86107  25.175  39.060   4.807
26814W        W86108  43.837  10.322  10.592
26815W        W86109   3.445  38.416   3.344
26816W        W86110  39.886  35.367  11.922
26817W        W86111  44.426  38.917   3.636
26818W        W86112  42.435   4.944   0.950
26819W        W86113  24.712  11.161   3.204
26820W        W86114   8.195   4.721   4.757
26821W        W86115  10.713  26.184  11.457
26822W        W86116  33.449  12.143  12.510
26823W        W86117   2.236  26.175  12.855
26824W        W86118  25.514  10.325   1.389
26825W        W86119  29.943  38.544   0.328
26826W        W86120  35.427  23.599  13.539
26827W        W86121  23.489  43.968   0.351
26828W        W86122  22.722  12.323   0.333
26829W        W86123  42.850  11.248  12.848
26830W        W86124  11.833  14.610   1.227
26831W        W86125  41.313  38.441   1.228
26832W        W86126  38.903  20.157  10.635
26833W        W86127   8.700  13.722  14.324
26834W        W86128  39.852   3.842  11.983
26835W        W86129  26.625  12.236   1.711
26836W        W86130  32.433  15.719  10.630
26837W        W86131  36.874  10.832   1.709
26838W        W86132   9.888   0.808   2.747
26839W        W86133  40.983  38.436   3.781
26840W        W86134  17.659  35.100   1.397
26841W        W86135  22.079  37.497   1.707
26842W        W86136   2.326  34.579   3.762
26843W        W86137  14.252   7.198   1.355
26844W        W86138  41.886  12.733   4.598
26845W        W86139   7.405  18.133  13.057
26846W        W86140  17.160  39.555  10.591
26847W        W86141  15.310  12.152   1.368
26848W        W86142  22.599   8.216   0.926
26849W        W86143  16.746   7.227   2.389
26850W        W86144  11.299   2.292  13.811
26851W        W86145  19.747  23.646  13.008
26852W        W86146  31.955  15.774   5.277
26853W        W86147  24.197  31.460   3.205
26854W        W86148   7.671  22.618   0.838
26855W        W86149  39.830  11.229   3.830
26856W        W86150   1.391  18.550   1.352
26857W        W86151  12.354   4.435  13.447
26858W        W86152   9.765  27.005   3.703
26859W        W86153  12.696  27.183   0.908
26860W        W86154  21.232  27.982   3.666
26861W        W86155  25.677  14.642   2.772
26862W        W86156  42.945  40.042  11.410
26863W        W86157  16.134   6.261  10.473
26864W        W86158  35.962  31.934  11.448
26865W        W86159  18.243  42.951   4.727
26866W        W86160  26.599  41.425   2.317
26867W        W86161  17.673  39.355  14.996
26868W        W86162  41.831  26.963  10.925
26869W        W86163  26.510   5.921   4.122
26870W        W86164   2.861  23.073   3.258
26871W        W86165   1.405   3.822  14.330
26872W        W86166  32.983   9.224  13.369
26873W        W86167  12.792  17.678  11.428
26874W        W86168   9.382  43.957  12.039
26875W        W86169  24.598  12.610   4.646
26876W        W86170  24.614  18.645   3.235
26877W        W86171  33.602  43.272  10.917
26878W        W86172   2.383  30.470  14.871
26879W        W86173  41.005  19.592  13.348
26880W        W86174   5.869  25.164  14.028
26881W        W86175  17.728  27.049   3.340
26882W        W86176  35.396   0.431   4.607
26883W        W86177   3.245  25.050   0.289
26884W        W86178   2.957  14.213  14.883
26885W        W86179  14.197  27.949  10.979
26886W        W86180  21.242  20.634   1.376
26887W        W86181   5.834  19.688   9.537
26888W        W86182  11.299  29.056  12.467
26889W        W86183   5.313  35.389  11.445
26890W        W86184  25.103  23.065   0.737
26891W        W86185  16.138   7.391  12.049
26892W        W86186   8.684  24.542   1.807
26893W        W86187  44.299  14.671  14.498
26894W        W86188  29.527  37.017   0.412
26895W        W86189  34.374  35.904  10.068
26896W        W86190  36.453  32.978   0.861
26897W        W86191  18.558  24.513  10.616
26898W        W86192  30.040  18.124   1.817
26899W        W86193  21.591  11.131  13.455
26900W        W86194  18.107  44.834  13.062
26901W        W86195  39.890  37.068   2.197
26902W        W86196   2.228  34.917  13.826
26903W        W86197  32.927  31.640   4.248
26904W        W86198  17.783  37.467   4.325
26905W        W86199  24.712  12.358  11.020
26906W        W86200  36.355   1.779  12.397
26907W        W86201  15.176  33.527   2.202
26908W        W86202  31.426  41.484   2.273
26909W        W86203   2.758   0.837   4.185
26910W        W86204   0.485  28.440  12.483
26911W        W86205  20.694  44.800  12.435
26912W        W86206   4.204   0.374   2.195
26913W        W86207   1.907  41.436  14.323
26914W        W86208   4.363  21.046  12.053
26915W        W86209  30.094   3.222   4.788
26916W        W86210  26.493  11.713   1.345
26917W        W86211  38.498  11.175   0.462
26918W        W86212   5.310  44.484   2.264
26919W        W86213   3.454  23.627   1.755
26920W        W86214   6.759  25.074  11.859
26921W        W86215  28.930  33.071   2.185
26922W        W86216   9.750  39.417  14.289
26923W        W86217  32.440  21.057   5.252
26924W        W86218   7.844  34.985  12.860
26925W        W86219   0.261  10.171  13.431
26926W        W86220  20.235  34.442   0.247
26927W        W86221  33.965  28.109   2.876
26928W        W86222   2.264  21.084   3.380
26929W        W86223  16.228  15.153  10.498
26930W        W86224  40.376  28.634  13.969
26931W        W86225  23.507  44.893   2.200
26932W        W86226  33.492  36.413  10.450
26933W        W86227  41.425  16.189  10.906
26934W        W86228  10.201  28.657  12.376
26935W        W86229  25.039   1.460  11.064
26936W        W86230  38.557  33.046   3.645
26937W        W86231   8.837  32.537  12.481
26938W        W86232  39.950  40.348  14.860
26939W        W86233   8.855  31.130  12.909
26940W        W86234  30.535   2.257  10.906
26941W        W86235   7.275  37.571  13.384
26942W        W86236  27.462  10.655   1.377
26943W        W86237  25.547  21.613   2.268
26944W        W86238  13.803  41.448  11.877
26945W        W86239  31.995  12.665  11.403
26946W        W86240  16.790   1.425   0.855
26947W        W86241   5.388  38.935  12.018
26948W        W86242  25.994  25.012   3.643
26949W        W86243  17.589  13.228  12.533
26950W        W86244   0.757  44.402  14.005
26951W        W86245   8.879  29.492   5.210
26952W        W86246  22.161  41.890  13.869
26953W        W86247  42.019  21.192  11.017
26954W        W86248  15.684  44.288  11.527
26955W        W86249  22.216  12.208   5.098
26956W        W86250  40.022  25.141   1.880
26957W        W86251  44.808  38.389   4.678
26958W        W86252  31.639  28.622  14.825
26959W        W86253  26.544  28.971  12.867
26960W        W86254  37.847  38.452  13.047
26961W        W86255  12.141  36.476  14.879
26962W        W86256   6.830  30.970   0.321
26963W        W86257  22.701  14.285  10.151
26964W        W86258  10.775  38.923  14.363
26965W        W86259  30.419  27.161  13.907
26966W        W86260  30.648  44.289  14.329
26967W        W86261  27.547  27.614   3.698
26968W        W86262   8.344   0.875  12.429
26969W        W86263  18.747  13.326  10.450
26970W        W86264  26.047  44.297  12.574
26971W        W86265  23.625  14.663   1.702
26972W        W86266  28.971  29.457   3.644
26973W        W86267   2.846   0.840   3.672
26974W        W86268   8.877  21.054  11.576
26975W        W86269  36.063  36.903   4.670
26976W        W86270  33.513  28.181  11.568
26977W        W86271  19.708  42.808   1.321
26978W        W86272  25.660  28.177  12.530
26979W        W86273  11.757   0.273  13.967
26980W        W86274  22.595  23.007  10.629
26981W        W86275  35.441  18.148  10.471
26982W        W86276  44.961  31.568  12.055
26983W        W86277  28.182  37.907   0.916
26984W        W86278  19.587  11.268  11.862
26985W        W86279  18.691   5.292  14.480
26986W        W86280  18.696  36.081   5.096
26987W        W86281  28.629   9.714   1.238
26988W        W86282  22.067   3.914  13.038
26989W        W86283  42.307  35.365  13.830
26990W        W86284   3.874  25.018   3.686
26991W        W86285  33.123  44.405  12.007
26992W        W86286  44.269  10.172   3.205
26993W        W86287  28.645  38.865  10.982
26994W        W86288  17.233  41.343  11.518
26995W        W86289  44.377  42.968  11.041
26996W        W86290  36.906  15.724  12.397
26997W        W86291   7.268  11.780   4.603
26998W        W86292   3.224  35.436  10.494
26999W        W86293  40.495   9.847  10.571
27000W        W86294  18.547   8.287  11.519
27001W        W86295  20.652  34.100   4.683
27002W        W86296  36.863   4.922   1.733
27003W        W86297  42.028  27.190   4.791
27004W        W86298  23.615  10.326  11.076
27005W        W86299  24.560  16.193  11.536
27006W        W86300   6.886  38.415   4.706
27007W        W86301  37.504  21.047   3.669
27008W        W86302  25.472  30.540  14.785
27009W        W86303  23.161  15.777   2.851
27010W        W86304   8.388  22.196  10.046
27011W        W86305   9.668  27.021   3.284
27012W        W86306  26.173  10.292   1.919
27013W        W86307  28.103   6.424   2.837
27014W        W86308  12.317  19.607  11.421
27015W        W86309  24.171  41.899  14.977
27016W        W86310   1.281  30.152   0.804
27017W        W86311  30.513  42.783  13.431
27018W        W86312  33.117  20.702   3.382
27019W        W86313   9.804  20.266  13.922
27020W        W86314  31.925   2.956  13.998
27021W        W86315  27.160  35.073   0.891
27022W        W86316   0.957  33.982   2.844
27023W        W86317  11.185  18.093  12.823
27024W        W86318  42.951  28.968  13.457
27025W        W86319   0.370  24.599  14.502
27026W        W86320  30.463  17.243  13.822
27027W        W86321  17.610  31.105  14.833
27028W        W86322  35.929  17.216  14.760
27029W        W86323  30.607  43.298  14.316
27030W        W86324  14.661  23.144  13.476
27031W        W86325  23.037  32.088   3.745
27032W        W86326   1.948  41.369   1.700
27033W        W86327  41.794   8.699   0.738
27034W        W86328   1.776  10.161  11.078
27035W        W86329  17.751   5.705   4.120
27036W        W86330  24.992  44.475   3.661
27037W        W86331  42.934  39.004  11.611
27038W        W86332  19.550  39.060  11.513
27039W        W86333   9.884  34.536   2.833
27040W        W86334  18.702  10.797   3.316
27041W        W86335   8.862  12.244  14.354
27042W        W86336  18.125  35.922   3.256
27043W        W86337  35.936  38.043   1.448
27044W        W86338  36.060   3.928   1.407
27045W        W86339  27.469  42.283   3.219
27046W        W86340  23.013  33.891   2.211
27047W        W86341  42.804  24.606   0.268
27048W        W86342  26.992  29.939  11.981
27049W        W86343  18.125  23.046   3.671
27050W        W86344  27.458   2.384  10.965
27051W        W86345  42.788   4.742  11.377
27052W        W86346   9.172  18.628  11.424
27053W        W86347  36.572  37.387  14.953
27054W        W86348  30.908   8.362   3.846
27055W        W86349  36.367  43.393   3.777
27056W        W86350  32.093  32.453   4.247
27057W        W86351  10.326   0.915   1.427
27058W        W86352   6.905  37.984  11.073
27059W        W86353  32.933  37.899  14.950
27060W        W86354  29.158  29.547  14.969
27061W        W86355  28.030  26.508   2.347
27062W        W86356  28.545  37.886   1.884
27063W        W86357  12.809  29.992   3.731
27064W        W86358   7.374   3.798  11.857
27065W        W86359  37.466  37.397  12.936
27066W        W86360  43.478  44.948  12.916
27067W        W86361  30.422   4.916  11.111
27068W        W86362  24.076   3.749   3.361
27069W        W86363  33.115  44.340   0.424
27070W        W86364  11.348  27.533  11.022
27071W        W86365  11.837  38.394  12.512
27072W        W86366   4.724   3.377   4.154
27073W        W86367  40.428  37.950  11.945
27074W        W86368  43.512  37.852   3.793
27075W        W86369  17.727  16.303  13.347
27076W        W86370   4.375  31.944  14.991
27077W        W86371   7.357  32.141  14.456
27078W        W86372   2.409  26.615   4.668
27079W        W86373  27.475   6.889   1.805
27080W        W86374  15.242  33.958  14.792
27081W        W86375   4.313  28.443   4.722
27082W        W86376  42.914  12.772   1.822
27083W        W86377  36.943   8.179  14.928
27084W        W86378  17.663   1.732   2.267
27085W        W86379  33.926   1.959   3.183
27086W        W86380  15.706  44.266  10.944
27087W        W86381  40.036  14.777   4.304
27088W        W86382  43.505   7.361  10.992
27089W        W86383  21.647   2.801  14.905
27090W        W86384  26.466  35.554  11.510
27091W        W86385  40.541  24.101  14.298
27092W        W86386  34.436  12.628  10.573
27093W        W86387  12.663  31.060  10.558
27094W        W86388  28.521   1.976   4.670
27095W        W86389  13.658  35.449   1.861
27096W        W86390  18.761  41.808   2.308
27097W        W86391  16.256  38.510   3.210
27098W        W86392  16.218  42.855   0.798
27099W        W86393  12.140   4.400   1.833
27100W        W86394  34.113  16.614  10.471
27101W        W86395  20.063  27.575  11.124
27102W        W86396  36.503   4.930   4.291
27103W        W86397  19.243  40.937  13.476
27104W        W86398   1.468  42.975   5.169
27105W        W86399  27.021  43.406   3.264
27106W        W86400  23.627  27.479  13.881
27107W        W86401   4.857  17.259   2.225
27108W        W86402  24.163  41.975   4.244
27109W        W86403  26.701  44.391   2.194
27110W        W86404  38.867  12.223   2.180
27111W        W86405  39.461  12.767   0.314
27112W        W86406  37.933  38.561  10.413
27113W        W86407  40.838   4.783   2.717
27114W        W86408  11.175   6.797   3.865
27115W        W86409   7.281  21.122  12.445
27116W        W86410  44.798  19.763  13.318
27117W        W86411  34.046  10.281   4.134
27118W        W86412   3.915  42.447   2.718
27119W        W86413  11.644  39.555  11.905
27120W        W86414  44.375   5.232  11.473
27121W        W86415  30.933  12.846   1.412
27122W        W86416  13.680  38.373   2.755
27123W        W86417  10.164  42.289  13.790
27124W        W86418  32.065  25.594  14.971
27125W        W86419  34.383  30.601  11.005
27126W        W86420   2.729   3.379   0.814
27127W        W86421  25.664  32.001   4.754
27128W        W86422  17.155  28.590  14.874
27129W        W86423  35.959  14.267  12.949
27130W        W86424  16.296   0.943   4.787
27131W        W86425   8.292  20.526   2.327
27132W        W86426  20.029   8.199  10.094
27133W        W86427  21.714  18.088   2.779
27134W        W86428  26.646  35.477   3.662
27135W        W86429  15.799   3.757  11.961
27136W        W86430  40.912  17.642   1.918
27137W        W86431  15.618  37.040   5.304
27138W        W86432  19.062  44.997  11.551
27139W        W86433   0.921  11.169   0.272
27140W        W86434  30.460   5.338   3.863
27141W        W86435  13.345   5.918   2.671
27142W        W86436   7.848  11.644   1.368
27143W        W86437  18.564  21.523  11.498
27144W        W86438  29.148  18.702  12.840
27145W        W86439  26.965   0.286  12.931
27146W        W86440  34.976  36.964  11.029
27147W        W86441  27.943   8.699  12.892
27148W        W86442   5.304  24.027  11.608
27149W        W86443   0.856  42.468   2.871
27150W        W86444  44.495   8.251  11.486
27151W        W86445  37.918   2.441  13.380
27152W        W86446  35.477  29.132  14.493
27153W        W86447  35.524  26.032  13.431
27154W        W86448  13.712  27.164   4.648
27155W        W86449   7.249  34.966   4.289
27156W        W86450  31.964   9.348  12.454
27157W        W86451  23.125  38.444  11.902
27158W        W86452  38.884  30.935  11.408
27159W        W86453  37.347  10.338  12.486
27160W        W86454  41.941  36.963  14.392
27161W        W86455  32.562   7.751  14.944
27162W        W86456  15.726  10.343   9.530
27163W        W86457  12.710   9.682   2.299
27164W        W86458  38.863   4.932  10.069
27165W        W86459  28.158   5.802   1.819
27166W        W86460  18.157  28.183   2.349
27167W        W86461  12.645   1.914   2.304
27168W        W86462  13.688  35.876   2.725
27169W        W86463   5.193   8.224  13.512
27170W        W86464  26.563  10.217   2.780
27171W        W86465   5.847  26.702  14.311
27172W        W86466  39.986   3.333  13.039
27173W        W86467  14.115  10.674   3.794
27174W        W86468  12.779  40.537   1.873
27175W        W86469   4.896  27.114  10.422
27176W        W86470  43.884  44.306   4.137
27177W        W86471  14.698  10.287  12.945
27178W        W86472   6.278  23.581   0.963
27179W        W86473  30.036  23.013  12.570
27180W        W86474  33.129   2.895  12.869
27181W        W86475  29.549  27.986  14.775
27182W        W86476   0.765  41.522  14.301
27183W        W86477  41.456  17.102   0.361
27184W        W86478  13.702  39.853  13.801
27185W        W86479  23.129  22.605  13.539
27186W        W86480  25.128  27.546   1.285
27187W        W86481   0.442  31.127   0.323
27188W        W86482   2.247   5.845  13.358
27189W        W86483   2.851  10.861  13.371
27190W        W86484   1.244  27.049  10.913
27191W        W86485  27.658   2.756  12.555
27192W        W86486  18.689  40.049   0.427
27193W        W86487  10.676  39.544  11.065
27194W        W86488  40.901   6.211  10.618
27195W        W86489  34.873  30.614  14.933
27196W        W86490  16.614  28.438  10.961
27197W        W86491   9.201  34.534  11.105
27198W        W86492  26.491   0.895   2.766
27199W        W86493  22.014  19.780  13.032
27200W        W86494  17.801  17.201  11.045
27201W        W86495  42.958  24.035   0.328
27202W        W86496  15.777  36.972   4.735
27203W        W86497  41.391   2.890  13.992
27204W        W86498  12.216  17.779   2.693
27205W        W86499  38.397   4.881  14.406
27206W        W86500  18.772  28.965  12.823
27207W        W86501  31.550  35.061   0.464
27208W        W86502   0.772   3.873   1.445
27209W        W86503  20.212  20.590  13.854
27210W        W86504  21.701   8.191  13.543
27211W        W86505  23.657  17.610   0.848
27212W        W86506   8.375  28.957  13.322
27213W        W86507  15.111   9.373  12.893
27214W        W86508  23.061  10.330  12.090
27215W        W86509   7.862  10.848  12.090
27216W        W86510   9.301  18.594   4.738
27217W        W86511  13.164  16.217   4.190
27218W        W86512  16.171  18.203  13.803
27219W        W86513  36.929  17.646   4.741
27220W        W86514  33.605  15.305   1.825
27221W        W86515  13.710  19.051   4.683
27222W        W86516  38.874  18.779   3.723
27223W        W86517  33.023  33.007  14.997
27224W        W86518   4.737  29.648  11.995
27225W        W86519   5.895  15.170  13.466
27226W        W86520  12.136  23.621  13.529
27227W        W86521   8.363   2.230  13.920
27228W        W86522  10.149  43.504  14.769
27229W        W86523  10.717  36.371   2.405
27230W        W86524  29.639   5.795   3.320
27231W        W86525  40.902  17.242  11.937
27232W        W86526  15.684  16.251   4.318
27233W        W86527   0.472   4.914   4.165
27234W        W86528  42.950   4.893   2.369
27235W        W86529  26.095  33.551   3.291
27236W        W86530  38.354  32.486   3.787
27237W        W86531  35.931  35.512  13.947
27238W        W86532  11.266   9.306   2.352
27239W        W86533  23.598   0.837  13.394
27240W        W86534  41.505  18.050   1.815
27241W        W86535   2.435  41.497   2.403
27242W        W86536  34.414  41.948   2.321
27243W        W86537  23.224  33.033  13.389
27244W        W86538  32.122  24.206  12.509
27245W        W86539   7.734   8.212  14.983
27246W        W86540  20.131  17.197   0.864
27247W        W86541  18.144  15.650   0.841
27248W        W86542  34.060   1.815   5.314
27249W        W86543  21.641   5.811   1.307
27250W        W86544   2.917  29.121   0.339
27251W        W86545  21.035  42.516  12.557
27252W        W86546   3.307  25.602  10.904
27253W        W86547  21.625  43.900   1.210
27254W        W86548   6.777   3.785   4.741
27255W        W86549  32.569  29.573  14.331
27256W        W86550  10.862  15.085  12.017
27257W        W86551  21.583   6.719  11.596
27258W        W86552  27.456  15.754  12.014
27259W        W86553  29.566  27.121   3.648
27260W        W86554  12.354  16.789   4.330
27261W        W86555  23.704  12.776  12.977
27262W        W86556  27.459  43.897   2.714
27263W        W86557  41.302   4.220  14.861
27264W        W86558  34.541  39.945  13.326
27265W        W86559  22.654   2.380  10.101
27266W        W86560   7.276  13.335  14.784
27267W        W86561  38.516  16.197   3.723
27268W        W86562  11.795   5.324   3.301
27269W        W86563   0.330  38.993  13.414
27270W        W86564  35.527  23.691  13.935
27271W        W86565  30.494   1.419   2.812
27272W        W86566  29.537  35.032   2.867
27273W        W86567  32.441   7.249  14.766
27274W        W86568   6.351  37.851  12.431
27275W        W86569  17.150   3.798   4.647
27276W        W86570  27.556  44.321  13.061
27277W        W86571   7.691  14.268   4.260
27278W        W86572  10.246   2.457  11.522
27279W        W86573  28.985  26.978   0.399
27280W        W86574  21.173  10.322  13.985
27281W        W86575  33.920  33.443   1.448
27282W        W86576  15.675  12.754  14.813
27283W        W86577  25.102  15.321   4.116
27284W        W86578  19.594  30.051   4.837
27285W        W86579   1.450  38.036  11.500
27286W        W86580  34.004  25.680   4.260
27287W        W86581  12.769  28.134  13.361
27288W        W86582  43.424   3.329   0.909
27289W        W86583  32.026  28.089   4.120
27290W        W86584  16.739  43.982   4.125
27291W        W86585  20.625  31.589   1.345
27292W        W86586   4.803  22.026   2.755
27293W        W86587  18.784  24.519   0.955
27294W        W86588   7.395   0.761   4.145
27295W        W86589  12.229  13.657   9.436
27296W        W86590  37.413  24.196  12.078
27297W        W86591  30.154  25.515  12.560
27298W        W86592  38.822   1.341  13.539
27299W        W86593   5.296  34.603   3.651
27300W        W86594  28.673  36.559  10.445
27301W        W86595  12.728   3.884   0.432
27302W        W86596  44.367  39.551   4.697
27303W        W86597   6.788  12.248   2.241
27304W        W86598  41.932  17.224  11.502
27305W        W86599  25.208  11.783   2.843
27306W        W86600  14.117  25.493   4.176
27307W        W86601  15.805  22.603  11.374
27308W        W86602  14.125  30.442   1.727
27309W        W86603  24.126  39.389   0.402
27310W        W86604  24.710  16.073   4.345
27311W        W86605  44.823   4.347  10.110
27312W        W86606  13.321   6.354   4.325
27313W        W86607  26.571  35.923  11.032
27314W        W86608  18.663  38.973  10.514
27315W        W86609  44.858  12.220  11.867
27316W        W86610  40.011  22.100   1.231
27317W        W86611  25.645   9.343  13.848
27318W        W86612   8.896   6.695  14.346
27319W        W86613  26.088  40.961   1.833
27320W        W86614  32.902  17.305  13.334
27321W        W86615  19.693  40.386  14.438
27322W        W86616  18.237   6.696  12.906
27323W        W86617  23.536  36.354  12.345
27324W        W86618   0.375  24.604   2.678
27325W        W86619   7.796   2.450   4.224
27326W        W86620  16.755  13.251  13.521
27327W        W86621   0.462   9.865  12.973
27328W        W86622   3.365  31.960  10.539
27329W        W86623  11.670  40.495   4.344
27330W        W86624  17.112  15.117  10.968
27331W        W86625  11.781  33.990  14.974
27332W        W86626   9.846   0.791   3.774
27333W        W86627  39.346  10.784   4.824
27334W        W86628  39.855  33.567  11.090
27335W        W86629  27.455  28.054  13.398
27336W        W86630  41.914  36.400  13.980
27337W        W86631   5.231  35.448  14.510
27338W        W86632  21.627   8.719   1.356
27339W        W86633   9.812  16.276   0.916
27340W        W86634  10.766  33.905  11.459
27341W        W86635  18.579  27.027  11.433
27342W        W86636  14.270  37.959   3.188
27343W        W86637   3.870  28.487  13.394
27344W        W86638  25.540  43.916   2.222
27345W        W86639  24.143  15.702  14.372
27346W        W86640  22.164  38.897  12.075
27347W        W86641  41.474  44.964   4.194
27348W        W86642  44.282   3.400   2.671
27349W        W86643  21.571  31.559   4.269
27350W        W86644  33.884  44.852  12.922
27351W        W86645  29.471  32.907  11.536
27352W        W86646  25.067   0.764  13.412
27353W        W86647   2.753  16.781  12.454
27354W        W86648   3.795  14.760  11.039
27355W        W86649  32.442  28.536   2.685
27356W        W86650  39.840   9.372   2.845
27357W        W86651  31.144  22.217   4.607
27358W        W86652  40.432  20.134   2.215
27359W        W86653  37.834  36.024   3.237
27360W        W86654  25.549  42.457   1.769
27361W        W86655  30.991   4.753  13.393
27362W        W86656  24.676  31.611   1.699
27363W        W86657   3.406  30.910   3.154
27364W        W86658  12.686   6.891  10.472
27365W        W86659   4.324  21.570  14.428
27366W        W86660  39.386  15.224  14.955
27367W        W86661  31.602  30.566   4.197
27368W        W86662  18.092  42.318  12.931
27369W        W86663  19.773  37.513   3.822
27370W        W86664   6.185  29.071   2.234
27371W        W86665  27.538  15.156  10.979
27372W        W86666  36.468  11.722   4.205
27373W        W86667  42.893  29.519   1.399
27374W        W86668  32.429  40.913  10.563
27375W        W86669  38.335  44.824  11.872
27376W        W86670   3.722  29.983  12.959
27377W        W86671  38.857  32.996  13.484
27378W        W86672   5.744  29.432  14.915
27379W        W86673  37.500  13.822   1.346
27380W        W86674  13.297  15.684  14.811
27381W        W86675  22.509  35.393  11.862
27382W        W86676  17.175  14.707  14.903
27383W        W86677  31.430  30.494  11.612
27384W        W86678  41.449  22.249   4.318
27385W        W86679   5.919  36.408   0.253
27386W        W86680  10.759   0.890  10.985
27387W        W86681  43.390  29.953   2.410
27388W        W86682  28.068   6.303   1.907
27389W        W86683   2.862  32.008  12.072
27390W        W86684  44.397  24.657  11.521
27391W        W86685  10.360  25.170   5.106
27392W        W86686  25.489  10.216   4.675
27393W        W86687  36.403  24.613   3.668
27394W        W86688  40.004   9.233  14.855
27395W        W86689  29.535  30.431   1.695
27396W        W86690  14.593   0.920  13.513
27397W        W86691  38.386  38.931   0.910
27398W        W86692  16.137  40.425  11.611
27399W        W86693  22.547  23.984  10.935
27400W        W86694   7.693   8.304  12.011
27401W        W86695  12.130  13.342   2.668
27402W        W86696  28.601  28.559   1.324
27403W        W86697  39.059   0.981  14.998
27404W        W86698   8.749  42.808  14.974
27405W        W86699  13.754  33.470  10.608
27406W        W86700  22.526  31.063  12.575
27407W        W86701  36.067  44.972  13.436
27408W        W86702   7.876  25.493   4.827
27409W        W86703  25.600  13.760   4.277
27410W        W86704  19.124  15.086   4.797
27411W        W86705   5.765  32.973  13.501
27412W        W86706  26.014  34.539  12.020
27413W        W86707  39.454  38.854   3.766
27414W        W86708   9.782  27.449   9.607
27415W        W86709  31.968   6.393   3.315
27416W        W86710  17.287  30.098  10.927
27417W        W86711  18.290   2.839  13.801
27418W        W86712   0.779  33.022   0.820
27419W        W86713  23.646  39.422  13.860
27420W        W86714  12.183  43.806  14.797
27421W        W86715  18.681  33.531   2.857
27422W        W86716  28.968  35.948   0.341
27423W        W86717   5.273  12.185  12.410
27424W        W86718  31.115   2.797   0.841
27425W        W86719  34.487  20.234  11.039
27426W        W86720  33.433  18.117  14.896
27427W        W86721   7.291   3.909  13.015
27428W        W86722  32.131  15.200   0.316
27429W        W86723  28.681  36.955  14.416
27430W        W86724  33.615  24.523  11.404
27431W        W86725   1.761   9.316   0.741
27432W        W86726   6.283   9.216  12.456
27433W        W86727  27.687  20.255   0.832
27434W        W86728  15.718  12.185  13.322
27435W        W86729  15.751  10.681   5.160
27436W        W86730  37.376  37.860   3.631
27437W        W86731  20.658  12.297  13.039
27438W        W86732  11.647  36.039   5.192
27439W        W86733   8.746  34.397   2.406
27440W        W86734  32.530  11.825   3.310
27441W        W86735   7.858   8.852   2.283
27442W        W86736  26.619  41.834   4.203
27443W        W86737  15.281   1.286   4.822
27444W        W86738  21.655  39.039   2.220
27445W        W86739   5.286  16.104  14.794
27446W        W86740  41.897  35.885   0.728
27447W        W86741  33.435  35.569   2.391
27448W        W86742  12.631  18.648  12.070
27449W        W86743  35.407  32.055  13.336
27450W        W86744  14.609  31.928   5.196
27451W        W86745  21.203  21.031   0.881
27452W        W86746  26.054  24.122  12.558
27453W        W86747  38.496  25.966  13.531
27454W        W86748  22.166  41.937  13.438
27455W        W86749  21.107   3.257  11.525
27456W        W86750  22.007   0.488  10.913
27457W        W86751  20.612  33.567   2.682
27458W        W86752  40.516  43.929   0.945
27459W        W86753  24.979  29.126   0.297
27460W        W86754  38.464  12.289   1.337
27461W        W86755  38.906  19.600  10.482
27462W        W86756  24.200  12.138  13.021
27463W        W86757  25.143  35.373  10.560
27464W        W86758  18.286  17.632  14.502
27465W        W86759   3.287   4.403   2.902
27466W        W86760  10.241   0.265   0.906
27467W        W86761  23.052  11.681   5.145
27468W        W86762   2.443  30.527   5.246
27469W        W86763   9.780  17.255   0.768
27470W        W86764  39.919   5.385   1.239
27471W        W86765  16.201  40.808   1.750
27472W        W86766   0.901  26.029   1.395
27473W        W86767  29.089  18.060   2.745
27474W        W86768  40.885  22.014  13.350
27475W        W86769  29.950   2.467   2.746
27476W        W86770  29.501   0.468   4.316
27477W        W86771  20.744  39.907   3.313
27478W        W86772  11.162   0.372   0.404
27479W        W86773  14.760  41.311  10.998
27480W        W86774  39.442  14.741   4.807
27481W        W86775  36.505  11.308   2.736
27482W        W86776  33.968  25.008  14.825
27483W        W86777  17.590   4.909  14.474
27484W        W86778  23.626  38.911  12.397
27485W        W86779  33.933  24.078  12.377
27486W        W86780   9.659  41.409   1.430
27487W        W86781  35.861  37.561   1.702
27488W        W86782  19.217  36.970   1.234
27489W        W86783  11.354  41.831  14.351
27490W        W86784  20.246  28.184   1.833
27491W        W86785  30.426  41.860  11.470
27492W        W86786   6.908  15.731   2.316
27493W        W86787  19.578  20.268  14.990
27494W        W86788  11.259  28.665   2.340
27495W        W86789   0.453  19.119  10.504
27496W        W86790  38.943  21.685   1.896
27497W        W86791  30.009  13.798  13.902
27498W        W86792  43.497  10.140   1.753
27499W        W86793  43.302   2.739  11.107
27500W        W86794  44.869   8.235   0.339
27501W        W86795  33.041   8.798   5.238
27502W        W86796  23.060  11.336   4.290
27503W        W86797  15.144  14.245  13.003
27504W        W86798  11.716  19.774  13.538
27505W        W86799  27.669   6.309   4.157
27506W        W86800  26.034  14.820   2.356
27507W        W86801  36.507  19.684   3.235
27508W        W86802  16.715  12.687   3.354
27509W        W86803  22.644  19.051   4.182
27510W        W86804   6.806  21.704   3.783
27511W        W86805  40.335  36.391  11.480
27512W        W86806  36.472   6.405   3.374
27513W        W86807  43.418  12.307   3.297
27514W        W86808   1.474  20.204  11.953
27515W        W86809  33.956  28.573  14.941
27516W        W86810  25.691  34.067  10.507
27517W        W86811  15.714  14.211   5.673
27518W        W86812  42.993  40.030  11.110
27519W        W86813  41.527  40.988  14.950
27520W        W86814  44.341   3.951   0.297
27521W        W86815  20.735  14.677  13.462
27522W        W86816  16.135  34.482  14.358
27523W        W86817  13.665  29.987  13.861
27524W        W86818  41.359  25.987   4.274
27525W        W86819  10.376   4.768   2.811
27526W        W86820  32.403  23.095  11.901
27527W        W86821  38.343  15.277   2.295
27528W        W86822  33.078  42.923   4.735
27529W        W86823  23.515  35.935   1.896
27530W        W86824  32.596  20.186  14.977
27531W        W86825  27.548   6.245   1.922
27532W        W86826  43.844  33.432  13.030
27533W        W86827  39.021   0.427  14.984
27534W        W86828   8.680   8.759  11.008
27535W        W86829  42.504  32.600  10.942
27536W        W86830  39.512  38.844  13.346
27537W        W86831  33.570  27.159  14.005
27538W        W86832   3.763  42.858   3.381
27539W        W86833  35.042  36.054   9.624
27540W        W86834   8.402  14.792   4.247
27541W        W86835  19.065  10.208   4.647
27542W        W86836   1.866  10.674  11.400
27543W        W86837  15.650   5.850  12.579
27544W        W86838  44.479  39.925  11.393
27545W        W86839   6.769  43.424  10.531
27546W        W86840  42.408   1.885  14.322
27547W        W86841  11.774  29.110   5.322
27548W        W86842   7.306  11.142   2.819
27549W        W86843   1.482  38.511  13.018
27550W        W86844  39.865  12.630  12.943
27551W        W86845  17.283  43.499   4.195
27552W        W86846  11.252  11.826   1.908
27553W        W86847  33.522   1.378  14.936
27554W        W86848  29.434   3.840  10.630
27555W        W86849  41.012  32.581  12.978
27556W        W86850  15.307  12.188   3.339
27557W        W86851  10.342   2.229   0.389
27558W        W86852  18.275  28.059   4.790
27559W        W86853  12.676  20.059  14.999
27560W        W86854  42.009  25.133   0.862
27561W        W86855   6.919  36.065   1.403
27562W        W86856  38.552  21.131  14.026
27563W        W86857  40.869  44.947   4.201
27564W        W86858  27.035  16.742  13.857
27565W        W86859   1.905   0.794   1.703
27566W        W86860  24.045  15.660  14.868
27567W        W86861   4.932  35.877   3.226
27568W        W86862   7.211  19.193   4.307
27569W        W86863   6.745  11.841   1.405
27570W        W86864  29.656   3.224  12.997
27571W        W86865  23.532  18.271   2.728
27572W        W86866  32.989  22.556   3.208
27573W        W86867   0.874   9.865  14.860
27574W        W86868  22.652  26.468   1.921
27575W        W86869   5.246   3.399   0.344
27576W        W86870  41.999   4.209  14.961
27577W        W86871  40.981   8.250  14.776
27578W        W86872  16.810   9.349   1.830
27579W        W86873  23.054  33.013  11.914
27580W        W86874  17.193  37.443  13.966
27581W        W86875  17.184   4.329  13.360
27582W        W86876   6.334  36.938   2.296
27583W        W86877  28.987  21.578  10.581
27584W        W86878  40.881  16.634  14.777
27585W        W86879   7.238  39.974  14.443
27586W        W86880  33.077  12.348  10.955
27587W        W86881   2.745  38.420  13.810
27588W        W86882  10.381  44.762   1.450
27589W        W86883  27.619  11.776  12.381
27590W        W86884  40.919  36.949   4.668
27591W        W86885  36.360  22.143  14.464
27592W        W86886  39.479   5.689  10.432
27593W        W86887  42.375  28.095  11.599
27594W        W86888  10.834  33.615   1.799
27595W        W86889  43.923   9.702  10.602
27596W        W86890  12.743  30.548  14.511
27597W        W86891  36.560  29.160   9.947
27598W        W86892  26.464   6.299  12.074
27599W        W86893  39.362  10.801   2.382
27600W        W86894  28.965   7.308  12.895
27601W        W86895  41.827  31.096   2.880
27602W        W86896  40.978  32.024  13.546
27603W        W86897  33.882   8.286  11.568
27604W        W86898  40.407  30.949  12.352
27605W        W86899  39.935  40.868  12.932
27606W        W86900  42.378   2.910   2.710
27607W        W86901  34.111  14.717   1.725
27608W        W86902  43.435  27.142   0.812
27609W        W86903   4.305  42.364   0.303
27610W        W86904  44.889  11.733   2.679
27611W        W86905  13.827   5.742  11.051
27612W        W86906   2.266  19.644   2.234
27613W        W86907  39.522  43.000  14.380
27614W        W86908  28.965  37.526   3.277
27615W        W86909  19.205  37.025   3.249
27616W        W86910  11.809  36.467   1.774
27617W        W86911  23.099  17.141   4.655
27618W        W86912  30.968  44.427  11.470
27619W        W86913   3.782  42.315  10.902
27620W        W86914  28.442  27.546  11.533
27621W        W86915  29.051   2.325   1.911
27622W        W86916  34.107  28.568   0.404
27623W        W86917  44.437  22.545  10.501
27624W        W86918  12.334  38.558  13.855
27625W        W86919  29.122  18.083   3.716
27626W        W86920  16.799  41.490  13.866
27627W        W86921  23.674  28.091  10.569
27628W        W86922   2.255  35.458  12.353
27629W        W86923  34.939  21.234  14.023
27630W        W86924  40.442  31.038   3.322
27631W        W86925  17.062  24.194  11.387
27632W        W86926  32.622   3.833  10.444
27633W        W86927  11.867  18.653  13.022
27634W        W86928  13.119  43.895  12.572
27635W        W86929   0.910  20.145  12.992
27636W        W86930  32.051  42.283   0.280
27637W        W86931   5.330  14.824  10.570
27638W        W86932  41.807   4.923   2.270
27639W        W86933  30.990  27.502  14.499
27640W        W86934  30.534  11.146  14.969
27641W        W86935  43.967  28.157  11.871
27642W        W86936  10.654   2.843  15.000
27643W        W86937  38.019  14.311  14.997
27644W        W86938   2.871  41.941   3.375
27645W        W86939  42.487  26.980  14.435
27646W        W86940  11.131  33.030   0.799
27647W        W86941  26.026  10.707   4.272
27648W        W86942  18.557  25.614   1.927
27649W        W86943  27.511   1.904   1.778
27650W        W86944  31.118  25.672  13.435
27651W        W86945  16.734  22.542   9.980
27652W        W86946  23.674  16.728  14.008
27653W        W86947  36.982   4.357   4.347
27654W        W86948  26.612  15.711   9.941
27655W        W86949   2.753  15.231  14.287
27656W        W86950  42.499   0.955  12.934
27657W        W86951  17.275   1.831  10.608
27658W        W86952  33.569  25.597   2.725
27659W        W86953  11.191  22.252   2.360
27660W        W86954  22.098  26.680  13.346
27661W        W86955  43.360  11.775   3.797
27662W        W86956   5.703  38.346   2.302
27663W        W86957   3.311  19.567  14.838
27664W        W86958   9.675  27.645   4.674
27665W        W86959  16.168  38.978  12.380
27666W        W86960  34.882  19.195  11.994
27667W        W86961   6.306  24.994   3.270
27668W        W86962  20.604  23.515   0.432
27669W        W86963  11.744  19.259  12.885
27670W        W86964  42.860   0.433  12.092
27671W        W86965  40.495  14.635   2.747
27672W        W86966  44.875  10.326  13.307
27673W        W86967  38.523  11.850  13.952
27674W        W86968   5.242  19.227   9.973
27675W        W86969   3.949  41.973  12.862
27676W        W86970  13.284  35.480   2.396
27677W        W86971  13.719  39.987   4.764
27678W        W86972   4.703  15.758   1.894
27679W        W86973  11.370   7.335  11.886
27680W        W86974  38.524  25.508   2.224
27681W        W86975  25.018   1.863  13.823
27682W        W86976   5.789  38.029  13.861
27683W        W86977  23.552  14.809  12.968
27684W        W86978  15.178   0.349   3.189
27685W        W86979  26.150  12.844   3.679
27686W        W86980  11.361   6.742   3.322
27687W        W86981  36.085  38.917  11.489
27688W        W86982  40.467  29.510   0.891
27689W        W86983  17.672  44.271   0.280
27690W        W86984  40.007  41.951   2.228
27691W        W86985  13.337  30.098   1.252
27692W        W86986  26.002  32.085   2.198
27693W        W86987  12.776   5.398  12.827
27694W        W86988  40.322  18.702   0.767
27695W        W86989  43.982   9.888   3.855
27696W        W86990  40.360  36.914  11.042
27697W        W86991   0.762  16.248  12.055
27698W        W86992   1.784   5.234  13.475
27699W        W86993  39.832  19.199  14.912
27700W        W86994  10.264   7.189   2.814
27701W        W86995   3.725  26.660   1.245
27702W        W86996   2.791   8.332  13.920
27703W        W86997  30.510  17.063   2.248
27704W        W86998   8.728  44.963   5.803
27705W        W86999  27.137  12.139  12.447
27706W        W87000  27.033  31.494  10.494
27707W        W87001  23.099   7.679  12.547
27708W        W87002   7.319   2.362   3.318
27709W        W87003  19.109  10.247   1.849
27710W        W87004   6.736  26.539  12.876
27711W        W87005   6.679  35.472   3.315
27712W        W87006  21.563  21.726  14.987
27713W        W87007  13.830  25.630   1.223
27714W        W87008   8.254  13.313   0.799
27715W        W87009  14.166   2.796  13.920
27716W        W87010  44.951  29.040  12.545
27717W        W87011  14.622  40.052  10.493
27718W        W87012  31.573  21.114   3.161
27719W        W87013  31.540  29.441   1.753
27720W        W87014  15.301   2.298   3.283
27721W        W87015  41.329   8.848  13.988
27722W        W87016  16.739  20.692  13.827
27723W        W87017  21.712  13.111  14.375
27724W        W87018  16.115  23.717   1.433
27725W        W87019  11.253  29.453   2.795
27726W        W87020  24.710   4.251   3.646
27727W        W87021  22.565  19.600   2.334
27728W        W87022  39.065  21.521  10.493
27729W        W87023  30.582  14.606  12.458
27730W        W87024  14.701  37.832  14.030
27731W        W87025  35.495  12.226   2.341
27732W        W87026  19.689  22.130  12.472
27733W        W87027  11.307  32.897  12.994
27734W        W87028  25.639  33.879  11.608
27735W        W87029  12.224  30.000   2.238
27736W        W87030  17.712  37.485  11.098
27737W        W87031   5.779  40.920  12.486
27738W        W87032  14.709  22.117   0.820
27739W        W87033   0.849  35.361   4.627
27740W        W87034   6.233  36.056   0.372
27741W        W87035  42.498   5.240  13.329
27742W        W87036   1.891  37.381  12.032
27743W        W87037  14.301   3.863  14.973
27744W        W87038  44.400  21.653  12.995
27745W        W87039  22.744  42.317   4.131
27746W        W87040  42.018   8.401   1.404
27747W        W87041  39.359   4.248   0.791
27748W        W87042  29.163   2.269   0.473
27749W        W87043  41.016  33.003   1.904
27750W        W87044  21.249  27.119   4.236
27751W        W87045  17.144  38.846   2.706
27752W        W87046  13.169   6.262  13.307
27753W        W87047   1.765  16.177  10.965
27754W        W87048  12.141  27.511   2.737
27755W        W87049  11.266  13.747  11.038
27756W        W87050   0.849   8.388  13.044
27757W        W87051  29.994  22.123  14.772
27758W        W87052   6.197  39.445  13.912
27759W        W87053  38.907  29.602   3.856
27760W        W87054  13.348  25.698  13.798
27761W        W87055  34.389  43.383  14.978
27762W        W87056   2.810  18.692   4.761
27763W        W87057  37.033  28.627  13.449
27764W        W87058  42.871  32.543  12.429
27765W        W87059  30.635  42.976  10.970
27766W        W87060  35.986  16.572  14.323
27767W        W87061   8.791  43.826  13.795
27768W        W87062   6.718  17.627   9.464
27769W        W87063  39.398  12.799  10.984
27770W        W87064  16.636   3.713   1.233
27771W        W87065   4.348  13.151  10.605
27772W        W87066  40.402   4.328   1.444
27773W        W87067  24.615  23.216  12.078
27774W        W87068  19.598  44.862   0.733
27775W        W87069  30.127  11.797   2.852
27776W        W87070  35.584  13.228   1.416
27777W        W87071  20.272  14.184   4.807
27778W        W87072   1.976  29.160  14.857
27779W        W87073   6.737  44.418   4.252
27780W        W87074  29.552   1.732  12.033
27781W        W87075   1.364  29.514  14.435
27782W        W87076  20.109  25.022  11.591
27783W        W87077  31.080  41.416  12.028
27784W        W87078  23.015  42.798   1.436
27785W        W87079  39.557  12.816  13.979
27786W        W87080  20.138   6.840   0.409
27787W        W87081   8.315  16.146  14.857
27788W        W87082  32.063  10.859  14.295
27789W        W87083   6.378  19.704   4.306
27790W        W87084  26.473  37.040  14.512
27791W        W87085  37.411   3.772  12.569
27792W        W87086  38.543  24.605  12.981
27793W        W87087  19.616  18.750   4.791
27794W        W87088  40.314  26.644  14.942
27795W        W87089  26.602   9.869  13.851
27796W        W87090  25.132  18.580  11.464
27797W        W87091  25.066  14.164   1.865
27798W        W87092  10.156  18.234   3.277
27799W        W87093  43.498  21.558  14.444
27800W        W87094   2.788  35.020  11.017
27801W        W87095  20.109   8.763  10.505
27802W        W87096  39.922   0.361   3.848
27803W        W87097  43.282  12.265   0.767
27804W        W87098  34.091  44.900   0.297
27805W        W87099  38.373   8.205  14.905
27806W        W87100  17.603  29.601   1.234
27807W        W87101  20.062  32.040  10.488
27808W        W87102  24.222  26.681   4.683
27809W        W87103  30.135  44.392   0.444
27810W        W87104  22.047  16.240  14.416
27811W        W87105  27.644  43.445  14.389
27812W        W87106  20.690  29.115  14.948
27813W        W87107  13.196   4.780   3.377
27814W        W87108  15.217  31.115   4.796
27815W        W87109   0.437  40.931   3.800
27816W        W87110  16.146   0.744  14.953
27817W        W87111  15.086  22.632  11.128
27818W        W87112  36.063  21.032  10.486
27819W        W87113  12.686  40.345  11.069
27820W        W87114  14.110  15.735  12.555
27821W        W87115  14.743  11.329  13.874
27822W        W87116   2.372   3.265  10.577
27823W        W87117  14.776  40.800   3.173
27824W        W87118  10.666  13.751  13.497
27825W        W87119  12.280  17.229  12.478
27826W        W87120  35.884  20.262   2.329
27827W        W87121  40.948  23.659  13.899
27828W        W87122  29.978   8.870   2.249
27829W        W87123  15.296   3.407  11.589
27830W        W87124  11.729  30.425  13.412
27831W        W87125  21.258  39.858  14.493
27832W        W87126  35.086  25.517   2.669
27833W        W87127   3.424  28.670  12.987
27834W        W87128  17.799  33.051  11.563
27835W        W87129  34.991  32.084  11.886
27836W        W87130  37.451   1.783  12.873
27837W        W87131   9.695  21.562  12.341
27838W        W87132  30.526  43.322   3.386
27839W        W87133  37.007  29.596   1.844
27840W        W87134  40.007  16.790  10.982
27841W        W87135  31.105  32.930   0.893
27842W        W87136  29.089  10.728  13.442
27843W        W87137  21.079  44.962  11.977
27844W        W87138  26.494  27.186   4.761
27845W        W87139  17.234  26.976  14.862
27846W        W87140  38.848  41.821  12.901
27847W        W87141  12.624   8.865   4.267
27848W        W87142  43.993  17.630   3.768
27849W        W87143  19.242  19.046  14.899
27850W        W87144  40.014  25.472   4.302
27851W        W87145   7.813   8.163  12.867
27852W        W87146  14.711   9.869   3.710
27853W        W87147  32.624  24.490  13.888
27854W        W87148  28.539  16.264   3.857
27855W        W87149  19.678  21.729   4.337
27856W        W87150  27.582  25.606   2.195
27857W        W87151   4.432  42.959   3.365
27858W        W87152   0.951  40.957   0.406
27859W        W87153  21.218   7.367  10.545
27860W        W87154  44.823  27.515  14.516
27861W        W87155  30.513  40.905  10.898
27862W        W87156  41.374  30.094  10.632
27863W        W87157   4.207  23.155  12.375
27864W        W87158  34.615   0.265  11.550
27865W        W87159  30.645   1.307   3.177
27866W        W87160  25.580   9.340  13.440
27867W        W87161  19.233  15.276   2.695
27868W        W87162  10.172  13.637   3.822
27869W        W87163  19.748  31.962   2.235
27870W        W87164  24.557  37.887  12.871
27871W        W87165  32.480   5.354   1.722
27872W        W87166   7.185   3.936   0.860
27873W        W87167   0.277  13.642  11.055
27874W        W87168  31.556  28.141   1.326
27875W        W87169   3.300   8.861   2.205
27876W        W87170  23.232   2.383  11.531
27877W        W87171  25.011  37.548   1.771
27878W        W87172  31.075  14.251   1.814
27879W        W87173  11.152  26.654   4.279
27880W        W87174  22.226   5.308  12.490
27881W        W87175  41.331  38.019  12.543
27882W        W87176  15.742  42.032  14.030
27883W        W87177  26.178  11.813   2.277
27884W        W87178   4.728  28.668  13.520
27885W        W87179  42.009  25.073  10.139
27886W        W87180  15.793   4.420  12.528
27887W        W87181   5.429   2.382   4.209
27888W        W87182  44.265   2.389  11.960
27889W        W87183  36.433  31.500   4.174
27890W        W87184  38.919  17.229   4.196
27891W        W87185  27.949   5.331  14.770
27892W        W87186  33.520  18.242  12.872
27893W        W87187  13.334  34.075   0.331
27894W        W87188   6.823  35.013   2.377
27895W        W87189   3.443   5.250  12.884
27896W        W87190  37.409  17.070   0.277
27897W        W87191  42.990   7.893   2.416
27898W        W87192  17.696   3.393   0.258
27899W        W87193  39.391  17.694   4.184
27900W        W87194  39.496  41.963  14.838
27901W        W87195  36.024  24.074  14.312
27902W        W87196   9.675  12.651  14.854
27903W        W87197   2.280  38.339   0.811
27904W        W87198  22.730   0.986  12.899
27905W        W87199   2.304  15.200   4.601
27906W        W87200  24.049  19.056  10.949
27907W        W87201  32.635  14.131  11.374
27908W        W87202  30.431  18.190  12.419
27909W        W87203  37.020  15.258  14.965
27910W        W87204  42.492  25.985   1.293
27911W        W87205   0.351  24.572   4.745
27912W        W87206  37.994  44.886   1.918
27913W        W87207  41.291  28.949  11.500
27914W        W87208  40.526  28.990  11.975
27915W        W87209  37.073   9.191  14.972
27916W        W87210  35.974  26.168  14.429
27917W        W87211  22.575  18.253  10.583
27918W        W87212  37.839  24.713   3.778
27919W        W87213  29.650   5.872  13.457
27920W        W87214   4.892  18.087   0.764
27921W        W87215   7.204  12.208  11.431
27922W        W87216  29.518  44.313  13.890
27923W        W87217  37.044  31.433   4.246
27924W        W87218  41.357  29.644   0.411
27925W        W87219  37.494  19.230   2.316
27926W        W87220   2.263  42.925  11.389
27927W        W87221   8.363  27.663  11.087
27928W        W87222  26.698  23.015   2.822
27929W        W87223  37.931  20.763   4.219
27930W        W87224  26.162  14.766   3.776
27931W        W87225   1.439  22.504  12.533
27932W        W87226  20.254  32.474  10.917
27933W        W87227   4.259   6.710  12.994
27934W        W87228  38.928  27.509  12.511
27935W        W87229  12.166  16.221   0.810
27936W        W87230  19.668  35.980  10.573
27937W        W87231  11.266  34.561  12.416
27938W        W87232   8.733  31.504   0.911
27939W        W87233  18.703  20.158  12.462
27940W        W87234  23.716  26.505   2.259
27941W        W87235  28.185  35.541   2.865
27942W        W87236  11.294  25.559   1.781
27943W        W87237   4.871   5.415   4.265
27944W        W87238   8.378  27.456  14.507
27945W        W87239  24.194  44.458   4.114
27946W        W87240  33.103  37.855  12.094
27947W        W87241  28.037  19.286   2.898
27948W        W87242  38.517  21.719   2.328
27949W        W87243  10.180  34.475  11.059
27950W        W87244  43.338  25.588   3.335
27951W        W87245  14.657   7.665   2.186
27952W        W87246  10.360  17.206  14.826
27953W        W87247  37.909   7.871   2.743
27954W        W87248  20.652  10.831   1.309
27955W        W87249   6.738  35.520  10.981
27956W        W87250  29.167  19.615  14.774
27957W        W87251  17.303   2.943  12.982
27958W        W87252  39.552   8.705   3.277
27959W        W87253  32.459   9.173  12.537
27960W        W87254  31.921   5.877   2.239
27961W        W87255  35.051  31.490   0.331
27962W        W87256  29.152  34.391   2.839
27963W        W87257  10.227   5.355   1.351
27964W        W87258   8.337  23.045   2.417
27965W        W87259  43.292  27.583   3.818
27966W        W87260  27.478   8.268  10.046
27967W        W87261  37.879  17.645   4.153
27968W        W87262   9.834  11.213  11.939
27969W        W87263  38.039   2.337  10.455
27970W        W87264  26.108  42.417  10.909
27971W        W87265  39.322  15.661   4.213
27972W        W87266   0.268  16.141   3.341
27973W        W87267  35.075  15.232  11.938
27974W        W87268  37.351  34.929  11.542
27975W        W87269   3.238   8.659   4.780
27976W        W87270   2.864  19.246   0.779
27977W        W87271   2.421  27.003  10.929
27978W        W87272  28.550  16.810  14.315
27979W        W87273  21.031   6.321   1.771
27980W        W87274  28.651  34.582  13.058
27981W        W87275   0.864  32.596   1.281
27982W        W87276  42.905  31.406  14.992
27983W        W87277  33.973  42.343   0.424
27984W        W87278  18.642  20.226  14.466
27985W        W87279   6.806  14.642   2.202
27986W        W87280  12.804   9.748  12.825
27987W        W87281  16.609   4.857   3.302
27988W        W87282  43.477  44.896   1.393
27989W        W87283  10.378  19.253   0.802
27990W        W87284   8.706  19.216   4.598
27991W        W87285  10.814  15.694   0.248
27992W        W87286  11.255   7.804  13.545
27993W        W87287  19.615  13.623   1.742
27994W        W87288  33.426   7.909   1.302
27995W        W87289  41.982  19.669  13.510
27996W        W87290  33.893  36.351   4.138
27997W        W87291  31.080  12.181   0.419
27998W        W87292  43.431  27.683   2.238
27999W        W87293  13.719  28.672  11.927
28000W        W87294  44.781  30.422  14.322
28001W        W87295  37.982   4.220   2.834
28002W        W87296  19.773   7.412   2.341
28003W        W87297  33.114  17.229   0.243
28004W        W87298  28.591  21.615   2.842
28005W        W87299  39.022  25.482   3.286
28006W        W87300   6.406  43.475   4.791
28007W        W87301  29.662  12.284   1.760
28008W        W87302  39.062  36.971   2.678
28009W        W87303  33.611   7.748  10.080
28010W        W87304  36.859  40.824   3.766
28011W        W87305  36.938  19.187   2.873
28012W        W87306  15.182   2.794   1.882
28013W        W87307   4.390  17.071  10.535
28014W        W87308  19.775  24.069   5.140
28015W        W87309  25.670   0.918   3.220
28016W        W87310  38.950  37.073  13.949
28017W        W87311   8.265  39.025   1.860
28018W        W87312  38.880  29.660  11.054
28019W        W87313  41.886  18.209  10.898
28020W        W87314   5.269  24.015   0.303
28021W        W87315   9.169   7.259   1.428
28022W        W87316  20.142  24.675  10.463
28023W        W87317  23.591  20.212   2.753
28024W        W87318  13.158   1.338   0.797
28025W        W87319  16.662  41.790  14.508
28026W        W87320   7.218  24.489   9.462
28027W        W87321  34.044  40.989   4.276
28028W        W87322  27.116   9.197   1.765
28029W        W87323  19.184  20.179   5.144
28030W        W87324  42.780  29.668   4.337
28031W        W87325   9.264  33.927   4.335
28032W        W87326  12.725  28.553  12.431
28033W        W87327  44.329  17.629  11.999
28034W        W87328  30.975  37.467  12.422
28035W        W87329   2.782   0.974  14.991
28036W        W87330  11.823   6.861   3.214
28037W        W87331  11.263  26.563  11.093
28038W        W87332  21.131   1.474  10.570
28039W        W87333  22.151  26.203  11.450
28040W        W87334  35.005  37.577   2.292
28041W        W87335  32.081  15.732   3.307
28042W        W87336   5.777  29.501  13.467
28043W        W87337  27.576  44.279   4.312
28044W        W87338  16.218  16.085  10.457
28045W        W87339  29.570  32.018   3.788
28046W        W87340   1.873   2.808  14.490
28047W        W87341  29.999  38.508   4.200
28048W        W87342  41.329  28.114   2.323
28049W        W87343  20.624   6.217   0.331
28050W        W87344  37.502  33.520  14.892
28051W        W87345  28.063  16.637  10.486
28052W        W87346  37.076  10.165   0.755
28053W        W87347  24.215  33.909   1.773
28054W        W87348  42.413  16.291  12.852
28055W        W87349  15.695  32.557   1.405
28056W        W87350  40.976  19.623   1.379
28057W        W87351   6.918   0.891   3.246
28058W        W87352   6.349   1.294  12.829
28059W        W87353  42.349  38.337   2.779
28060W        W87354  29.525  39.940  13.899
28061W        W87355  20.138  42.027   2.672
28062W        W87356  42.409  30.618   2.764
28063W        W87357   0.775  26.457   3.802
28064W        W87358   4.883   6.264   0.869
28065W        W87359  30.499  15.657   3.255
28066W        W87360   7.381  15.707  11.893
28067W        W87361  14.779  18.186  11.081
28068W        W87362   5.328  39.853  11.017
28069W        W87363  10.268  43.303   4.132
28070W        W87364  30.984  25.073  13.009
28071W        W87365  13.310   5.737   3.843
28072W        W87366  31.981  22.674  13.486
28073W        W87367  19.280  42.508  12.035
28074W        W87368  40.479   7.203  12.393
28075W        W87369  11.149  35.032   2.381
28076W        W87370  26.186  36.855   1.406
28077W        W87371  27.521   7.901   3.281
28078W        W87372  15.630  22.511   0.831
28079W        W87373   6.829  37.008  13.455
28080W        W87374  16.596  10.843  11.397
28081W        W87375  28.125  12.193  14.958
28082W        W87376  23.636  31.551   0.790
28083W        W87377  22.154  15.607  10.041
28084W        W87378  17.664   3.914  12.018
28085W        W87379  26.593  20.638  14.882
28086W        W87380  28.518  38.968   2.835
28087W        W87381  41.803  35.867   1.717
28088W        W87382  35.029  31.497   4.343
28089W        W87383  35.944  16.313  14.432
28090W        W87384  26.099  13.179   3.257
28091W        W87385  26.083  29.670  11.381
28092W        W87386   9.859  16.733  14.351
28093W        W87387  29.947  43.805   3.812
28094W        W87388  18.750  18.123  12.372
28095W        W87389  44.505  40.839  13.496
28096W        W87390  32.962  44.988  13.064
28097W        W87391  29.612   8.714  14.911
28098W        W87392  44.351  35.379  11.042
28099W        W87393  26.568  39.460   0.780
28100W        W87394  11.676  12.181  13.362
28101W        W87395  20.119  29.584   4.624
28102W        W87396   3.382   2.425   5.599
28103W        W87397   1.838  29.586   4.827
28104W        W87398  30.479   0.948  12.945
28105W        W87399   4.743  43.453  14.028
28106W        W87400  32.518   7.785  10.095
28107W        W87401  33.386  40.046   2.233
28108W        W87402  11.756   0.775   2.726
28109W        W87403  34.930  34.391   1.342
28110W        W87404  11.796  18.754  14.349
28111W        W87405  15.667  14.731  11.103
28112W        W87406  20.545  40.509  11.064
28113W        W87407  29.162  15.239   1.788
28114W        W87408  24.103  27.114   0.965
28115W        W87409  23.113   8.661  13.005
28116W        W87410  11.623   8.739  11.116
28117W        W87411  29.525   9.239   4.138
28118W        W87412  19.149  25.057  13.358
28119W        W87413   9.786   1.276   2.369
28120W        W87414  16.749  43.962  11.513
28121W        W87415  44.984  19.585  12.871
28122W        W87416  25.650  28.474   4.606
28123W        W87417  28.648  42.878   4.198
28124W        W87418  24.975   0.487   2.212
28125W        W87419  40.920  29.036  11.481
28126W        W87420  19.258  12.238  10.515
28127W        W87421   8.800  13.206   3.220
28128W        W87422  43.355  41.024   3.789
28129W        W87423  43.992  17.256   3.630
28130W        W87424  12.614  31.413  14.479
28131W        W87425   5.408   5.716  12.021
28132W        W87426  16.728  41.298   0.862
28133W        W87427  17.218  44.861  11.880
28134W        W87428  16.803   4.789   0.945
28135W        W87429   2.856  32.133  12.547
28136W        W87430  41.803  11.722  12.476
28137W        W87431  21.087  27.653  11.987
28138W        W87432  43.922  36.559   4.679
28139W        W87433  14.311  22.666  14.775
28140W        W87434  15.608  15.746   2.779
28141W        W87435  35.087   0.345  14.350
28142W        W87436  18.063  14.195  13.461
28143W        W87437  20.124  14.094  14.962
28144W        W87438  27.625   3.797  11.428
28145W        W87439   9.824  43.498   2.772
28146W        W87440  20.657   6.879  11.018
28147W        W87441  14.758  41.323  14.813
28148W        W87442  44.363  42.971   9.982
28149W        W87443  26.062   5.859  14.849
28150W        W87444  43.954   6.273  13.465
28151W        W87445  19.561  21.589   2.801
28152W        W87446   6.350  32.892  13.061
28153W        W87447   3.290  23.516   3.870
28154W        W87448  31.545  29.967   0.246
28155W        W87449  29.623   3.253   0.394
28156W        W87450   5.365  28.538   2.826
28157W        W87451  11.809  33.962   3.255
28158W        W87452  39.516  14.606  14.769
28159W        W87453   6.192  31.084   1.244
28160W        W87454  43.293  33.033   1.767
28161W        W87455  14.834  38.019  11.442
28162W        W87456  41.933  23.678  14.994
28163W        W87457  12.254  13.291  14.297
28164W        W87458   9.687  16.669  12.955
28165W        W87459   7.727  25.970   2.325
28166W        W87460  38.397  23.686   2.278
28167W        W87461   2.442  20.104   0.808
28168W        W87462  37.528  14.659  14.397
28169W        W87463  37.060  20.712   1.395
28170W        W87464  42.859  29.133  11.037
28171W        W87465  17.288  25.216   3.795
28172W        W87466   6.264  29.573   1.897
28173W        W87467  13.740  19.170  13.432
28174W        W87468  42.834  12.732   3.843
28175W        W87469  18.203   9.304   0.326
28176W        W87470  44.971   9.183   3.318
28177W        W87471  25.198  17.672   4.603
28178W        W87472  25.082  32.423   2.823
28179W        W87473   6.185  39.450   2.178
28180W        W87474  17.281  20.101  13.339
28181W        W87475  32.906  17.224  12.453
28182W        W87476  38.057   2.904  12.526
28183W        W87477  14.322   0.753  12.422
28184W        W87478  12.187  44.842   4.221
28185W        W87479   9.335   9.151   0.793
28186W        W87480  38.389  38.558  12.921
28187W        W87481  34.045  10.712  13.436
28188W        W87482  43.933  16.676   4.278
28189W        W87483   7.906  13.613  14.493
28190W        W87484  32.015  29.996   3.251
28191W        W87485  33.593   2.917   2.355
28192W        W87486  13.681  28.004   2.283
28193W        W87487  24.037  17.083   4.146
28194W        W87488   7.835  39.021   4.332
28195W        W87489  26.694  14.674  11.389
28196W        W87490  39.479  42.411  14.910
28197W        W87491   4.204  11.280   2.798
28198W        W87492  23.035  32.445   1.854
28199W        W87493  32.510  33.977   1.235
28200W        W87494  38.476  17.791   3.385
28201W        W87495  38.544  22.612  12.430
28202W        W87496  28.104  33.519  12.395
28203W        W87497  10.772   0.930  10.596
28204W        W87498  43.397  30.046  11.037
28205W        W87499   7.244   8.747  13.060
28206W        W87500   5.363   9.808   0.423
28207W        W87501   7.294  24.065  11.962
28208W        W87502  17.580  12.617  11.538
28209W        W87503   4.217  20.176  12.481
28210W        W87504  24.165  23.495   4.620
28211W        W87505  44.338  13.255   1.893
28212W        W87506  42.299  16.268  10.413
28213W        W87507  28.931  22.136  13.426
28214W        W87508  23.097   4.805   4.828
28215W        W87509  20.744  17.231  13.051
28216W        W87510  42.428  16.738   0.409
28217W        W87511  28.102  34.987   4.273
28218W        W87512  38.500  22.124  14.370
28219W        W87513  36.448  26.090   2.265
28220W        W87514  13.633  35.034   2.338
28221W        W87515   2.795  39.949  13.374
28222W        W87516  18.756  36.445  11.032
28223W        W87517   0.469  15.741   1.742
28224W        W87518  19.622   6.387   3.657
28225W        W87519   5.361  20.245  13.910
28226W        W87520   7.252  28.617  12.340
28227W        W87521  34.386  27.645  10.463
28228W        W87522  33.453  42.286  11.044
28229W        W87523   0.304  36.424  10.976
28230W        W87524   8.366  20.600  13.005
28231W        W87525  22.561  33.121  14.491
28232W        W87526  25.490  15.712  10.888
28233W        W87527  25.968  30.005  14.338
28234W        W87528  33.579   1.275   0.897
28235W        W87529   6.879  34.901  11.960
28236W        W87530  34.507   0.270   4.158
28237W        W87531  27.506   9.685   3.745
28238W        W87532  43.938  10.754  14.476
28239W        W87533  31.513  14.717  13.489
28240W        W87534  13.657  18.586  11.058
28241W        W87535  31.939   0.916   0.411
28242W        W87536  38.936  36.565   3.238
28243W        W87537  29.530  28.459   1.747
28244W        W87538  27.592   9.764   4.132
28245W        W87539  43.788  38.437   2.817
28246W        W87540  22.124   4.778   3.846
28247W        W87541  19.090  24.698   0.408
28248W        W87542   6.182  11.677  11.561
28249W        W87543  16.117   8.722  12.361
28250W        W87544   4.727   1.276  13.896
28251W        W87545   5.720  15.198  12.071
28252W        W87546   2.797  31.639  14.413
28253W        W87547  38.938   8.328  10.420
28254W        W87548  32.426  20.743   0.445
28255W        W87549  38.879  30.641  14.817
28256W        W87550  41.310   4.821   2.690
28257W        W87551  43.765  37.029  11.868
28258W        W87552  37.390  39.868  11.392
28259W        W87553  36.974  30.033  11.946
28260W        W87554  12.637  31.940  14.405
28261W        W87555  13.673  24.178  13.883
28262W        W87556  40.030  13.259  14.800
28263W        W87557   1.256  24.999  13.799
28264W        W87558  28.472  11.857   0.248
28265W        W87559  12.153  10.777   2.387
28266W        W87560  34.924  19.688  12.093
28267W        W87561  44.449  41.529   0.730
28268W        W87562  20.170  10.321  13.319
28269W        W87563   2.741   0.311   2.186
28270W        W87564  14.631   7.906   2.681
28271W        W87565   6.679  27.194  13.413
28272W        W87566   2.290  44.373  10.106
28273W        W87567  31.984  26.621   0.903
28274W        W87568  25.642  12.162  14.940
28275W        W87569  26.487  15.814  10.991
28276W        W87570  37.036  32.608   3.184
28277W        W87571  30.048  36.384   0.312
28278W        W87572   3.829  37.904   0.397
28279W        W87573   0.438  35.552   1.904
28280W        W87574  14.195  21.559  13.801
28281W        W87575   9.859  21.041  14.333
28282W        W87576  32.603   9.887  10.960
28283W        W87577   7.890   2.926  12.835
28284W        W87578   1.432  43.433  13.312
28285W        W87579  17.235  33.616   1.289
28286W        W87580   4.700  35.598  14.389
28287W        W87581  35.035  16.309   0.402
28288W        W87582  43.908  29.947   1.406
28289W        W87583  36.002  13.242   0.813
28290W        W87584  23.091  24.209  14.786
28291W        W87585  37.077  39.014   0.449
28292W        W87586  38.371  16.656  14.879
28293W        W87587  17.709  12.354   2.718
28294W        W87588   8.181  41.404  13.347
28295W        W87589   8.792  22.539  14.285
28296W        W87590  22.631   4.712  13.932
28297W        W87591  22.034   4.292  14.004
28298W        W87592   6.744  32.105   9.658
28299W        W87593   3.926  24.634   1.736
28300W        W87594  11.156  39.002  10.436
28301W        W87595  39.962  32.545   3.270
28302W        W87596   1.959  13.708  14.375
28303W        W87597  36.454  41.298  13.019
28304W        W87598   0.441  15.174   0.468
28305W        W87599  18.641  16.310   2.182
28306W        W87600  14.607   6.420  14.377
28307W        W87601  38.946   9.218  12.442
28308W        W87602  30.979  15.641  14.361
28309W        W87603  44.428   7.836  11.032
28310W        W87604  26.592  33.127   0.857
28311W        W87605  13.288  26.701  11.983
28312W        W87606  40.536  21.033  12.014
28313W        W87607  39.901  40.354   4.828
28314W        W87608  43.424  37.562  12.502
28315W        W87609  24.026  24.569  13.442
28316W        W87610  22.726  25.579  14.824
28317W        W87611  26.075  17.719   2.230
28318W        W87612  38.547  25.048   4.835
28319W        W87613  37.893  23.705  15.000
28320W        W87614  44.895  35.463  11.009
28321W        W87615  31.433  18.558   4.186
28322W        W87616  20.672  18.117   3.754
28323W        W87617  14.097  41.901  11.894
28324W        W87618  28.438   3.347  10.465
28325W        W87619  23.587  41.525   4.319
28326W        W87620   5.844  12.325   4.676
28327W        W87621  23.503  13.333   4.717
28328W        W87622   2.227  34.993  12.905
28329W        W87623  20.645  35.893   3.259
28330W        W87624   1.802  41.299  14.000
28331W        W87625  35.995  29.988  14.503
28332W        W87626  28.642  29.499   4.206
28333W        W87627  34.510  22.154  12.879
28334W        W87628   3.881  41.471  10.545
28335W        W87629  16.114  43.508   1.723
28336W        W87630  17.273  13.172  14.873
28337W        W87631  39.512  37.954  10.440
28338W        W87632   8.751  28.553  14.379
28339W        W87633  41.454  36.923   4.767
28340W        W87634  22.132  44.768  13.008
28341W        W87635   2.315  28.029  13.314
28342W        W87636  17.597  13.230  13.544
28343W        W87637  34.114  43.970  13.002
28344W        W87638   7.377  34.517   2.304
28345W        W87639  18.182  16.310  12.080
28346W        W87640  37.549  39.537  14.433
28347W        W87641  19.601  43.350   2.670
28348W        W87642   8.758  21.232   3.647
28349W        W87643  30.594  35.410   4.833
28350W        W87644  37.965  31.991  11.996
28351W        W87645   4.705  34.445  14.456
28352W        W87646  42.801  36.508   2.710
28353W        W87647   9.861  24.084   0.377
28354W        W87648  43.318   3.895  13.326
28355W        W87649  25.621  27.184  12.573
28356W        W87650   6.340  41.404  12.569
28357W        W87651  23.057   9.375   2.286
28358W        W87652  42.922  44.907  13.354
28359W        W87653  15.215   9.678   2.360
28360W        W87654  27.663  22.603   1.392
28361W        W87655  43.331  28.989  13.003
28362W        W87656  14.628  35.409  14.011
28363W        W87657   7.902   2.428   0.401
28364W        W87658  23.062  31.923  12.487
28365W        W87659  19.659  39.944  10.138
28366W        W87660   0.844  41.794  13.839
28367W        W87661  34.380  12.181   0.399
28368W        W87662  32.470  41.789   1.323
28369W        W87663   2.721  40.312  14.489
28370W        W87664   3.306  20.553  10.001
28371W        W87665   2.342  29.159  10.415
28372W        W87666  20.078  11.262   0.728
28373W        W87667  33.905  34.870  13.886
28374W        W87668   9.674  27.634   2.691
28375W        W87669   7.183  24.654   0.841
28376W        W87670  19.583  29.129  10.615
28377W        W87671  40.830  17.779   1.325
28378W        W87672  43.442   8.811  11.405
28379W        W87673  41.316  36.936   3.310
28380W        W87674  44.823  20.118   4.188
28381W        W87675  29.040  20.175   2.754
28382W        W87676  33.974  39.019  12.357
28383W        W87677  19.764   5.692  12.568
28384W        W87678   7.770  33.595   0.755
28385W        W87679   3.849  16.089  12.075
28386W        W87680  43.904   8.256   1.830
28387W        W87681  12.815  33.047  12.029
28388W        W87682  26.200  20.195   4.710
28389W        W87683  17.193  33.101  10.494
28390W        W87684  30.030  38.445  13.432
28391W        W87685  39.012  14.124  14.977
28392W        W87686  23.711   1.822   2.879
28393W        W87687  11.849  13.181  13.343
28394W        W87688  13.718   9.726  12.430
28395W        W87689  24.207  42.872   2.182
28396W        W87690   8.179  13.108  14.791
28397W        W87691  15.114  12.296   1.740
28398W        W87692   4.400   0.283   0.458
28399W        W87693  39.356  33.963   0.916
28400W        W87694  21.573  12.783   0.937
28401W        W87695  25.140   0.325  13.433
28402W        W87696  32.909  20.198   1.279
28403W        W87697  39.859  18.762  13.315
28404W        W87698  36.947  18.603   3.350
28405W        W87699   5.790  40.542   0.425
28406W        W87700   1.902  32.576   3.751
28407W        W87701   0.269  30.068   2.233
28408W        W87702  29.156  42.396   3.851
28409W        W87703  26.109  38.020   2.876
28410W        W87704  13.835  19.201  12.438
28411W        W87705  29.036  31.634   2.795
28412W        W87706  16.275  35.465   0.916
28413W        W87707  12.804  11.258  11.457
28414W        W87708   2.747  17.215   4.113
28415W        W87709  19.602  43.807   0.255
28416W        W87710   6.410   3.414   2.793
28417W        W87711  16.628  20.616   1.737
28418W        W87712  34.584  24.094  11.482
28419W        W87713   9.705  10.847   4.742
28420W        W87714   4.760   4.809   9.993
28421W        W87715   7.261   4.257   2.757
28422W        W87716  14.593  14.113   0.269
28423W        W87717  31.107  31.487  12.044
28424W        W87718  27.610  30.552   3.871
28425W        W87719  12.620  33.074   0.430
28426W        W87720  27.951  19.592  12.981
28427W        W87721  23.631  11.816   2.261
28428W        W87722  32.923  31.930  11.432
28429W        W87723   9.743   3.936  11.074
28430W        W87724  23.233  26.142  11.901
28431W        W87725   2.273  33.484  11.452
28432W        W87726  27.655   0.875  11.442
28433W        W87727  15.656  13.285  11.061
28434W        W87728  10.709  22.239  14.837
28435W        W87729  42.886  25.182   0.814
28436W        W87730  44.825   4.359   3.828
28437W        W87731   5.286  12.254  12.857
28438W        W87732  15.647  33.549   5.251
28439W        W87733  23.154  22.209   2.279
28440W        W87734  38.016  36.435  12.432
28441W        W87735  33.600  39.327   4.618
28442W        W87736  44.848  36.081   4.788
28443W        W87737  27.122  40.487  14.498
28444W        W87738   5.201  37.963  14.827
28445W        W87739  28.140  21.225   3.240
28446W        W87740  31.993  28.612   1.717
28447W        W87741  41.012  25.505   4.237
28448W        W87742  22.074  32.508   4.765
28449W        W87743  34.014  15.806  11.428
28450W        W87744  39.535  16.656  11.991
28451W        W87745  31.492  42.020  11.046
28452W        W87746   8.852  39.037   0.963
28453W        W87747   8.388  24.983   2.810
28454W        W87748   1.242  17.617  14.899
28455W        W87749  26.074  29.436   4.663
28456W        W87750   0.849   5.782   4.794
28457W        W87751  29.979  32.398   4.152
28458W        W87752  30.006  19.686   4.120
28459W        W87753  42.344  21.248  10.507
28460W        W87754   4.731   4.417  11.961
28461W        W87755  43.385   4.392  12.094
28462W        W87756  18.645  34.903   3.687
28463W        W87757   9.885  30.547  12.863
28464W        W87758  18.574  24.011  12.934
28465W        W87759   3.777  36.059   4.230
28466W        W87760   9.868   5.438   4.707
28467W        W87761  42.320  31.494  12.530
28468W        W87762  13.794  24.074  11.376
28469W        W87763  10.195   9.825  12.408
28470W        W87764  15.271  15.203  12.005
28471W        W87765  24.528  30.029  10.604
28472W        W87766  21.559   4.382  14.955
28473W        W87767  12.704  41.388   2.843
28474W        W87768  36.552  39.998  14.430
28475W        W87769  40.360  41.021   1.861
28476W        W87770   7.358  35.366  12.063
28477W        W87771  32.985  42.435  14.388
28478W        W87772   2.896  35.421   1.347
28479W        W87773  31.637  18.714   1.211
28480W        W87774  27.012  27.948  13.344
28481W        W87775  10.749  42.020   4.145
28482W        W87776  20.767  11.324  13.015
28483W        W87777  33.986  39.865  10.594
28484W        W87778  41.404   7.171   4.197
28485W        W87779  33.940  21.682  12.565
28486W        W87780  33.020  29.023  11.605
28487W        W87781  32.915  26.088  12.470
28488W        W87782   6.794  29.471  10.434
28489W        W87783  13.722  13.618  14.279
28490W        W87784  42.301  32.939  12.461
28491W        W87785  38.538  40.540  10.899
28492W        W87786  15.741  29.542   0.251
28493W        W87787   5.906   1.362   2.362
28494W        W87788  28.539   7.370   2.362
28495W        W87789  24.978  27.177   4.723
28496W        W87790  31.456   4.938   1.443
28497W        W87791  25.086   4.294  13.528
28498W        W87792  27.673  10.653   4.624
28499W        W87793   2.738  33.484   1.745
28500W        W87794  16.248   2.926  14.976
28501W        W87795  42.350  13.808  14.776
28502W        W87796  42.821  42.817   1.929
28503W        W87797  16.180  29.446  13.879
28504W        W87798  23.047  41.815   3.218
28505W        W87799  17.778  10.216   4.214
28506W        W87800  39.024  12.225  13.845
28507W        W87801   0.790  14.172   3.363
28508W        W87802  19.778   0.969   3.861
28509W        W87803  38.953  26.586   2.700
28510W        W87804   1.289  36.375   4.289
28511W        W87805  35.983  34.104   4.296
28512W        W87806  42.002  24.713  12.448
28513W        W87807  40.855   9.795  12.882
28514W        W87808  41.456  12.168  12.473
28515W        W87809  11.226  44.438   4.830
28516W        W87810  24.179  30.601  11.898
28517W        W87811  20.617   3.248   1.903
28518W        W87812  13.780   8.285   1.397
28519W        W87813   2.390  41.983   0.411
28520W        W87814   5.780  33.601   4.220
28521W        W87815   2.369  13.758   4.252
28522W        W87816  25.196   7.227   0.821
28523W        W87817  22.130  43.787  14.415
28524W        W87818  33.482  12.172   2.295
28525W        W87819  10.240  43.458   2.381
28526W        W87820  44.766  18.245  10.904
28527W        W87821  43.856   1.902  14.375
28528W        W87822  36.554  42.896  11.043
28529W        W87823   8.247  43.844  13.407
28530W        W87824  17.249  40.398  13.539
28531W        W87825  16.667  44.503   3.277
28532W        W87826  29.042  35.514  13.357
28533W        W87827  17.770  32.010   3.352
28534W        W87828  35.061  38.006   9.524
28535W        W87829   5.838  15.755  14.999
28536W        W87830  37.078  43.285   0.788
28537W        W87831  19.757  19.235  12.946
28538W        W87832  27.087  41.465  13.043
28539W        W87833  37.961  17.070   0.296
28540W        W87834  15.588  31.485   3.793
28541W        W87835   3.283  10.344   1.748
28542W        W87836  19.119  35.435   0.934
28543W        W87837  29.483  42.458   1.779
28544W        W87838  12.760  14.706  10.573
28545W        W87839  28.453  15.328   0.962
28546W        W87840  38.846  41.865   4.186
28547W        W87841  40.970  22.573   3.216
28548W        W87842   5.374  31.454   1.285
28549W        W87843   7.245  21.567  11.888
28550W        W87844  23.695  44.943   1.415
28551W        W87845  13.812  12.348  13.813
28552W        W87846  38.486  25.142   2.240
28553W        W87847  36.568   7.906  13.835
28554W        W87848   5.893  16.753   2.342
28555W        W87849  28.536  16.692   2.678
28556W        W87850  28.036  29.626  12.927
28557W        W87851  39.918  41.994   4.679
28558W        W87852   6.262   7.879  13.983
28559W        W87853  11.715  38.918   2.238
28560W        W87854  38.963  11.814  13.811
28561W        W87855  37.384  38.933  12.031
28562W        W87856  22.544  42.836   9.976
28563W        W87857  15.660   6.799   2.677
28564W        W87858  16.216  39.451  10.969
28565W        W87859  14.226  36.590  12.505
28566W        W87860  26.029  43.940  12.866
28567W        W87861  40.027  32.023   5.181
28568W        W87862  40.545  21.182  12.985
28569W        W87863  35.015  26.147  13.793
28570W        W87864   4.843  29.568  11.393
28571W        W87865  15.792  14.169  10.058
28572W        W87866  33.010  22.134  11.016
28573W        W87867  21.080  37.075  12.943
28574W        W87868  36.383  31.430  11.492
28575W        W87869   7.729   8.772  11.579
28576W        W87870  25.639   3.871  14.016
28577W        W87871   9.720  37.576   1.406
28578W        W87872  22.676  33.099  14.766
28579W        W87873  16.251  22.668   1.294
28580W        W87874  41.521  42.301   1.283
28581W        W87875   4.266  21.090   2.328
28582W        W87876  11.777  37.485   4.113
28583W        W87877   5.721  37.351   1.898
28584W        W87878  30.459  18.088  11.863
28585W        W87879   3.276  20.634  13.535
28586W        W87880  28.625  35.361  11.077
28587W        W87881  28.514   3.902   1.782
28588W        W87882  23.729  32.101   4.137
28589W        W87883  17.655  40.873  13.358
28590W        W87884  18.151  22.124   3.863
28591W        W87885  37.901  13.258   3.221
28592W        W87886  23.230  39.930  12.541
28593W        W87887  41.037  43.369   2.193
28594W        W87888   6.418  34.911   9.958
28595W        W87889  29.477  31.145   0.760
28596W        W87890  37.521  31.547   2.252
28597W        W87891  27.051  29.966  14.826
28598W        W87892  29.535  44.810   2.808
28599W        W87893  28.091  13.207   4.753
28600W        W87894  34.069   5.862  11.128
28601W        W87895   4.804   1.875   9.927
28602W        W87896   6.887   4.910   1.447
28603W        W87897   9.866   1.320   5.754
28604W        W87898  38.070  41.923   2.797
28605W        W87899  27.059  30.637   5.088
28606W        W87900  12.320  38.445  14.827
28607W        W87901   7.862  32.452  14.367
28608W        W87902  37.839  32.020   4.340
28609W        W87903  18.255  12.265  11.565
28610W        W87904   9.199  30.052   9.923
28611W        W87905  30.432  25.163   3.300
28612W        W87906  21.216   3.784  11.099
28613W        W87907  12.612   3.263   3.703
28614W        W87908   0.977  42.030   3.738
28615W        W87909  14.095   8.402   2.849
28616W        W87910  22.184  15.136  12.931
28617W        W87911  30.645  41.528   1.749
28618W        W87912  37.468  23.089  10.548
28619W        W87913  10.187  40.543   0.383
28620W        W87914   1.404  28.007   1.451
28621W        W87915   0.753  15.286   0.319
28622W        W87916  27.173  23.150  14.917
28623W        W87917  13.802  38.462   4.785
28624W        W87918  39.040   2.898   4.276
28625W        W87919  24.196   3.857  13.809
28626W        W87920  23.094   1.975   0.915
28627W        W87921  10.201  31.495  14.468
28628W        W87922  20.099  42.408  12.934
28629W        W87923  31.037  18.576   3.671
28630W        W87924  22.551  36.581   1.335
28631W        W87925   9.380  13.748  13.414
28632W        W87926  18.214  22.722  11.972
28633W        W87927  19.284  16.137  14.381
28634W        W87928  23.207  15.800   0.344
28635W        W87929  33.460  41.433  10.476
28636W        W87930  43.314   1.364  13.908
28637W        W87931  30.978  33.097   3.364
28638W        W87932  22.181  11.305  13.544
28639W        W87933  30.014  14.341   0.781
28640W        W87934   9.355   2.789  12.497
28641W        W87935  28.132  31.150   0.355
28642W        W87936   2.915  23.612  14.406
28643W        W87937  33.427  28.167  12.474
28644W        W87938  44.889  35.538  12.565
28645W        W87939   4.809   0.881   0.323
28646W        W87940  42.891  20.562   2.882
28647W        W87941  35.038   3.946   1.340
28648W        W87942  31.417   4.265  10.570
28649W        W87943   8.354   3.376   5.305
28650W        W87944  32.022   1.448   0.428
28651W        W87945  19.710  21.549   0.317
28652W        W87946  31.001   6.189   3.161
28653W        W87947  19.761   7.194   3.718
28654W        W87948  19.098  41.922  11.891
28655W        W87949  32.552  38.870   5.231
28656W        W87950  23.156  17.583   0.340
28657W        W87951  15.689   7.298   2.789
28658W        W87952   7.856  25.010   4.672
28659W        W87953  31.949   0.801  11.001
28660W        W87954  43.353  12.295   1.421
28661W        W87955  21.692  38.355   4.798
28662W        W87956  30.614  13.786  10.532
28663W        W87957  10.376  21.564   4.787
28664W        W87958  19.151  40.803  10.899
28665W        W87959  40.856  13.814  11.073
28666W        W87960   1.318   2.862   2.243
28667W        W87961  40.948  38.502  14.872
28668W        W87962  44.783  15.101   4.178
28669W        W87963   1.815  29.578   4.118
28670W        W87964   6.865   1.340  13.386
28671W        W87965  29.024   8.835  11.591
28672W        W87966  41.472  17.264  10.485
28673W        W87967  25.108  39.058  14.475
28674W        W87968  43.305  30.921  14.782
28675W        W87969  25.175  16.688  13.379
28676W        W87970   3.836  19.739  12.859
28677W        W87971  14.214  17.211   1.248
28678W        W87972   5.833   2.263  11.860
28679W        W87973  36.482  28.150  11.956
28680W        W87974  36.459  26.597   4.664
28681W        W87975  43.458  16.732   4.817
28682W        W87976  33.554  37.550  12.423
28683W        W87977  17.690  17.703  14.789
28684W        W87978   8.871  25.706  12.999
28685W        W87979   6.807  31.154  13.437
28686W        W87980  38.925  21.677   2.307
28687W        W87981  12.330  33.409   0.288
28688W        W87982   7.687  36.394  12.547
28689W        W87983  13.722  19.591  11.562
28690W        W87984  10.862   7.712   0.248
28691W        W87985  36.068  42.434   3.223
28692W        W87986  21.631  23.212  12.022
28693W        W87987  26.068  41.021  13.327
28694W        W87988  14.805   9.237   3.744
28695W        W87989  20.169   6.735  14.764
28696W        W87990  40.000  19.702   0.468
28697W        W87991  40.050  27.025  11.403
28698W        W87992  27.517   0.773  14.813
28699W        W87993  20.042  23.059   3.817
28700W        W87994  13.171  34.606   0.815
28701W        W87995  11.345  40.949   0.296
28702W        W87996  41.472  38.435  13.836
28703W        W87997   2.377   8.898   3.373
28704W        W87998  31.948  39.846   9.928
28705W        W87999  30.587  19.255   3.232
28706W        W88000   8.311  11.781  13.384
28707W        W88001  38.340  16.151  13.883
28708W        W88002  37.553  28.032   1.252
28709W        W88003  23.635  12.684   5.632
28710W        W88004  37.440  39.998   4.825
28711W        W88005   7.757  41.418   1.290
28712W        W88006  19.603  40.906  12.343
28713W        W88007   1.861  38.029   2.686
28714W        W88008   1.767  39.914  10.520
28715W        W88009  28.090   1.800  12.926
28716W        W88010  17.254  17.292  10.915
28717W        W88011   9.688  30.988  11.521
28718W        W88012  38.513  38.077  12.480
28719W        W88013  40.798   8.829  12.024
28720W        W88014  42.427  20.623   4.133
28721W        W88015  28.174  19.068  13.006
28722W        W88016   7.701  18.627  12.580
28723W        W88017  23.033  40.936   1.451
28724W        W88018  10.143  24.069  14.305
28725W        W88019  15.821  27.948  11.961
28726W        W88020  10.806  18.631   2.864
28727W        W88021  35.551  17.079  10.610
28728W        W88022  31.954  29.657   1.895
28729W        W88023  21.621  14.163  12.485
28730W        W88024  30.122  18.726   0.847
28731W        W88025   0.805  35.579   2.235
28732W        W88026  37.411  33.575   3.326
28733W        W88027  24.065  36.572  13.061
28734W        W88028  37.446  35.452   1.787
28735W        W88029   3.955  26.483  14.360
28736W        W88030   3.735   5.352  12.471
28737W        W88031   3.297  11.693   1.239
28738W        W88032  28.178  21.661  13.357
28739W        W88033  20.093   2.370   0.466
28740W        W88034  44.271  31.634  13.972
28741W        W88035  11.136   3.876  13.791
28742W        W88036  36.073   9.792   2.367
28743W        W88037  35.404  25.178   4.782
28744W        W88038   4.810  12.741   2.830
28745W        W88039  27.001  24.626  10.584
28746W        W88040   1.387   2.941   3.255
28747W        W88041  11.726  40.891   3.352
28748W        W88042  33.504   4.223   0.344
28749W        W88043  18.634  14.631  12.898
28750W        W88044  21.168  22.112  11.925
28751W        W88045  18.214  24.000   2.301
28752W        W88046  24.714  24.479   4.323
28753W        W88047  24.639  15.614   0.310
28754W        W88048   4.357  32.968  12.352
28755W        W88049   3.836  36.090   3.771
28756W        W88050  25.112  18.619  12.008
28757W        W88051  30.986  10.373  10.509
28758W        W88052   6.690  24.003  10.497
28759W        W88053  30.046  15.263   2.283
28760W        W88054  36.408  13.106   3.165
28761W        W88055  36.909   6.913   3.817
28762W        W88056   2.328   2.410   1.843
28763W        W88057  11.720  28.461  14.799
28764W        W88058   3.215   4.330  14.324
28765W        W88059  43.810  12.151  12.415
28766W        W88060  33.007  24.077  13.844
28767W        W88061   7.203  44.440   5.271
28768W        W88062  27.514  29.544  13.031
28769W        W88063  22.098  29.984  10.591
28770W        W88064   3.714  23.691   3.384
28771W        W88065  29.055   7.399   4.825
28772W        W88066   5.265  37.868  13.905
28773W        W88067  43.331  40.540  14.842
28774W        W88068  13.721  39.998  12.831
28775W        W88069   3.745  15.731   0.929
28776W        W88070  35.892  37.945   0.808
28777W        W88071  27.162  44.282   0.967
28778W        W88072  39.012  26.119   1.775
28779W        W88073  17.593  17.219   0.908
28780W        W88074  18.200  36.509  12.398
28781W        W88075   8.876  30.002   3.831
28782W        W88076   8.732  20.072   2.746
28783W        W88077  15.257  29.478   3.335
28784W        W88078  20.592  33.408  14.385
28785W        W88079  10.668  44.999   3.221
28786W        W88080  37.447  23.173   2.891
28787W        W88081  36.577  11.302  14.868
28788W        W88082   0.299  39.840   4.138
28789W        W88083  42.341  26.059  14.947
28790W        W88084   1.329  29.162  12.899
28791W        W88085  19.245  20.137  13.465
28792W        W88086  17.159  31.049   1.853
28793W        W88087  11.144  40.051  14.399
28794W        W88088  21.558   6.222   3.648
28795W        W88089  20.712   9.795   0.817
28796W        W88090  42.930   6.292   1.708
28797W        W88091   9.751  14.252  12.997
28798W        W88092  39.856   9.669   3.697
28799W        W88093  21.213  18.570   5.322
28800W        W88094  30.440  37.347   2.867
28801W        W88095   1.440  26.084   4.327
28802W        W88096  24.653   2.450   2.364
28803W        W88097  43.481  38.455  13.517
28804W        W88098  13.178  25.189   1.312
28805W        W88099  21.170   1.969  12.062
28806W        W88100  21.148  32.567   4.314
28807W        W88101  15.710   5.882   3.374
28808W        W88102  33.402  42.835   1.735
28809W        W88103   3.447   3.891  13.009
28810W        W88104  19.746  41.528   0.851
28811W        W88105  17.234  18.093  13.477
28812W        W88106  11.732  44.914  10.007
28813W        W88107   5.213   0.439  10.155
28814W        W88108   8.179  32.100  13.936
28815W        W88109  40.489  28.065  11.032
28816W        W88110   9.779   9.816   2.666
28817W        W88111   5.275  12.833   2.234
28818W        W88112   4.845   6.202   1.348
28819W        W88113  11.635  44.399   3.180
28820W        W88114  10.255  36.967   4.819
28821W        W88115  12.746  12.304   9.977
28822W        W88116  26.604   8.741  12.882
28823W        W88117  24.220  41.464   9.987
28824W        W88118  26.148  28.629   1.795
28825W        W88119   0.761  44.443   0.251
28826W        W88120  40.310  27.463  14.000
28827W        W88121  12.147  43.963  13.352
28828W        W88122  18.568  38.884  13.340
28829W        W88123  25.046   8.338  12.001
28830W        W88124  31.145   6.245  12.467
28831W        W88125  29.084  37.545   1.795
28832W        W88126  36.559  26.458   1.741
28833W        W88127  11.345  19.645   1.810
28834W        W88128  12.849  28.455   4.736
28835W        W88129  15.644  36.406  11.865
28836W        W88130  13.131  39.990   3.771
28837W        W88131   2.904  40.970  14.015
28838W        W88132  29.572  15.758   3.192
28839W        W88133   3.283  40.044  14.342
28840W        W88134   2.854   6.889   0.323
28841W        W88135  12.621   8.767  13.005
28842W        W88136  22.029   4.928   4.784
28843W        W88137   4.310   6.833  13.810
28844W        W88138  40.431  23.570   4.774
28845W        W88139  43.437  39.044   2.234
28846W        W88140  33.608  44.760  12.997
28847W        W88141   7.682  41.795  10.573
28848W        W88142  28.611  15.804   2.880
28849W        W88143  29.119  37.496  14.952
28850W        W88144  33.079  39.022  13.877
28851W        W88145  42.415  16.615  13.514
28852W        W88146  43.402   4.232   3.767
28853W        W88147  19.602  34.593  11.556
28854W        W88148  18.575  16.600   3.246
28855W        W88149  25.001  39.889  14.434
28856W        W88150  23.228   9.674   0.378
28857W        W88151  14.766  40.048   3.192
28858W        W88152  26.595  18.733   1.836
28859W        W88153  35.387  16.185   0.308
28860W        W88154  19.712  19.278   4.742
28861W        W88155  37.357  42.887  13.448
28862W        W88156  32.071  12.769   4.311
28863W        W88157  19.573  20.719  13.907
28864W        W88158   6.885  42.017   3.730
28865W        W88159  41.491  34.054   1.901
28866W        W88160  39.983   7.881   0.923
28867W        W88161   6.916   0.936  14.917
28868W        W88162  29.598  27.479   4.148
28869W        W88163  32.978  18.600   0.785
28870W        W88164  38.919  32.107  11.042
28871W        W88165  36.073  42.527  13.392
28872W        W88166  30.441  23.235  11.928
28873W        W88167  42.408  19.111  13.364
28874W        W88168  40.919  14.660   2.811
28875W        W88169  12.825  15.236  12.485
28876W        W88170   0.884  25.140  10.576
28877W        W88171  39.867   0.431   5.640
28878W        W88172  17.162  34.113   1.294
28879W        W88173  38.535  23.060  12.954
28880W        W88174  30.147  40.459   2.331
28881W        W88175  35.568  16.767   2.732
28882W        W88176  10.767  40.008   0.407
28883W        W88177   8.215  27.535  12.410
28884W        W88178  24.653   7.752   3.685
28885W        W88179  31.089  11.277  14.867
28886W        W88180   0.370  12.291   3.300
28887W        W88181   2.815  39.374   3.751
28888W        W88182  17.180   9.226  13.019
28889W        W88183  18.545  10.730   2.829
28890W        W88184  26.634  40.538   4.688
28891W        W88185  20.629  38.982  12.981
28892W        W88186  34.975  13.751  11.094
28893W        W88187  42.857   5.873  13.986
28894W        W88188  44.881  30.562  10.547
28895W        W88189   2.287   8.257   0.862
28896W        W88190  42.509   8.858   4.301
28897W        W88191  27.014   2.245   1.285
28898W        W88192   0.801   0.402  11.522
28899W        W88193   1.741   7.344   0.325
28900W        W88194  21.638  21.206   1.272
28901W        W88195  41.475   6.356  14.984
28902W        W88196  26.984  15.297  13.985
28903W        W88197  23.088   5.203  14.782
28904W        W88198  15.661  13.663   4.155
28905W        W88199  20.759  19.632   0.359
28906W        W88200  20.144   6.801  12.495
28907W        W88201   2.419  40.037  10.624
28908W        W88202  30.578  22.242  10.430
28909W        W88203   3.331  39.844  12.094
28910W        W88204  25.570  34.457  10.963
28911W        W88205  22.551  16.098  10.473
28912W        W88206  14.300  44.933  13.980
28913W        W88207   3.735  37.486  14.291
28914W        W88208   2.248  12.320  12.823
28915W        W88209  31.478   4.250   4.778
28916W        W88210  15.166  16.804   0.776
28917W        W88211  39.553  15.275  11.527
28918W        W88212   9.184  28.579   0.843
28919W        W88213  10.819  24.034   2.778
28920W        W88214  16.179   8.292  11.548
28921W        W88215  40.006  29.931  11.610
28922W        W88216  40.437  41.823   4.137
28923W        W88217   8.892  27.497   4.175
28924W        W88218   5.252  43.515  12.467
28925W        W88219   9.790  39.840   1.265
28926W        W88220  34.457  20.192   2.785
28927W        W88221  24.001  19.121   4.230
28928W        W88222   7.371   0.981   1.890
28929W        W88223   8.719  27.644  10.058
28930W        W88224   5.822   6.912   3.785
28931W        W88225  21.553  33.976  13.903
28932W        W88226  35.005  22.214   2.797
28933W        W88227  32.525  35.518  12.483
28934W        W88228  33.493  24.088   4.217
28935W        W88229   8.881  32.916  12.074
28936W        W88230   0.299  33.517   2.801
28937W        W88231  38.463  28.974   4.808
28938W        W88232  37.013  44.833   0.352
28939W        W88233   8.356  41.414   2.206
28940W        W88234  20.089  27.635   4.629
28941W        W88235  27.058   1.947  13.510
28942W        W88236   2.871  28.515   2.293
28943W        W88237  15.305  43.422   0.893
28944W        W88238  34.942  33.394   0.385
28945W        W88239  27.186  33.600  12.071
28946W        W88240   2.471  17.095   3.225
28947W        W88241  11.310   0.887   0.950
28948W        W88242  40.862  39.410  11.589
28949W        W88243  29.035  28.656  10.986
28950W        W88244  31.918  30.541   3.188
28951W        W88245  26.579  20.198   0.383
28952W        W88246  18.156  29.649   0.280
28953W        W88247  10.218   9.847  12.895
28954W        W88248  18.568   1.429   1.890
28955W        W88249  19.077  42.949   1.388
28956W        W88250  39.988  25.669   4.679
28957W        W88251  15.715  13.337  14.002
28958W        W88252  28.555  39.065  14.922
28959W        W88253   5.695  31.611  13.808
28960W        W88254  29.070  24.100  13.355
28961W        W88255  44.403  28.148   0.869
28962W        W88256  33.432  11.152   3.814
28963W        W88257   8.877  20.663  11.894
28964W        W88258  32.575  13.321   4.745
28965W        W88259  19.679  41.900   0.468
28966W        W88260   5.428  29.922  12.999
28967W        W88261  43.452  25.121  10.450
28968W        W88262  28.448  34.465  10.483
28969W        W88263  13.330  41.020  13.828
28970W        W88264  30.975  33.921  11.587
28971W        W88265  19.230   4.245   0.781
28972W        W88266  35.929  13.729  10.908
28973W        W88267  36.467  13.747   4.598
28974W        W88268  16.726  20.573   0.732
28975W        W88269   2.950   7.758   0.858
28976W        W88270   1.867   5.375   3.168
28977W        W88271  14.135  21.221  12.960
28978W        W88272  35.935   8.750  10.093
28979W        W88273   4.715   0.937  10.130
28980W        W88274  22.529  33.381  10.416
28981W        W88275  16.110   3.356  12.579
28982W        W88276   0.328  22.512  12.912
28983W        W88277  31.627   4.701   4.209
28984W        W88278  16.093  11.770   1.786
28985W        W88279  24.058  25.569   3.227
28986W        W88280  36.019  36.929  14.881
28987W        W88281  27.989  29.972   0.479
28988W        W88282  25.166  34.894  13.339
28989W        W88283  21.524   2.377   2.207
28990W        W88284  31.621  11.852  12.351
28991W        W88285  33.018  13.140   2.340
28992W        W88286  39.000  19.169  13.338
28993W        W88287  38.491  38.414   2.813
28994W        W88288  30.060  42.025  14.314
28995W        W88289  32.582  33.401  12.466
28996W        W88290  10.758  17.658  13.795
28997W        W88291  39.544   3.221  11.874
28998W        W88292  31.110  10.224   1.448
28999W        W88293  14.784  28.083   1.264
29000W        W88294  17.582   5.715   1.241
29001W        W88295  17.744   0.933  10.535
29002W        W88296  44.904  17.220  10.912
29003W        W88297  44.494   9.177  10.612
29004W        W88298   1.328  25.110   1.280
29005W        W88299   2.914  39.994   1.776
29006W        W88300  44.865  37.500  10.415
29007W        W88301  35.991  35.913  14.429
29008W        W88302  27.617   4.861  14.891
29009W        W88303  19.051  24.001   0.309
29010W        W88304  25.554  38.338   2.360
29011W        W88305  44.468  10.228  13.433
29012W        W88306  34.009  25.533  14.806
29013W        W88307  30.466   3.882   3.199
29014W        W88308   6.893  42.790   0.444
29015W        W88309   4.444  39.379  14.761
29016W        W88310  10.285  36.936  12.560
29017W        W88311   9.245   4.425   2.254
29018W        W88312  43.805   3.929   1.793
29019W        W88313  27.994   6.815   4.188
29020W        W88314   2.791   9.288  12.435
29021W        W88315  32.511  41.805  11.507
29022W        W88316  42.019  17.291   2.767
29023W        W88317  41.915  12.616  14.279
29024W        W88318   2.839  11.660   2.363
29025W        W88319  10.763  12.194  12.915
29026W        W88320  24.225  14.228   4.120
29027W        W88321   4.726  43.336  11.417
29028W        W88322  32.108   2.946   4.274
29029W        W88323  36.018  31.504  13.035
29030W        W88324  32.963  12.155   4.599
29031W        W88325  20.710   8.811  13.476
29032W        W88326  22.734  19.683   4.738
29033W        W88327  30.652  37.430  12.547
29034W        W88328   1.769   1.901   3.827
29035W        W88329   5.420   8.281  10.556
29036W        W88330  29.000  10.202   1.749
29037W        W88331   2.784  29.565  10.605
29038W        W88332  12.194  35.602   2.770
29039W        W88333  27.551  11.748   1.926
29040W        W88334   9.848  22.507  13.916
29041W        W88335   1.974  33.942   1.750
29042W        W88336  25.092   2.947   2.826
29043W        W88337  21.600  28.623  12.482
29044W        W88338  35.419  12.677  12.990
29045W        W88339   2.825  43.799   2.413
29046W        W88340  26.465  17.786   1.709
29047W        W88341   7.898  43.464   1.451
29048W        W88342  38.343   0.877  14.307
29049W        W88343   4.393  37.359   3.776
29050W        W88344  11.174   7.338  13.999
29051W        W88345  20.063   7.885  10.502
29052W        W88346  44.782  29.650   2.825
29053W        W88347  24.056  33.507   2.215
29054W        W88348  14.808   6.829  11.039
29055W        W88349  19.704  24.122  10.641
29056W        W88350  31.060  42.475  14.461
29057W        W88351  28.629  33.548   1.792
29058W        W88352  40.867  18.583  13.456
29059W        W88353  37.067  21.579  11.016
29060W        W88354  37.077  26.062   3.645
29061W        W88355  34.018  37.912   1.276
29062W        W88356  31.571  14.290   3.284
29063W        W88357  39.552  21.094  14.972
29064W        W88358  42.311   9.655  12.014
29065W        W88359  43.943  12.611  12.050
29066W        W88360  26.581  16.783   3.176
29067W        W88361  42.358  37.860   3.324
29068W        W88362   4.322  12.147   1.887
29069W        W88363  21.214  23.110   1.700
29070W        W88364  23.026  21.530   3.867
29071W        W88365  30.025  19.247  12.360
29072W        W88366   1.889  24.206   1.743
29073W        W88367  19.639  38.819  14.469
29074W        W88368   8.758  14.188  11.474
29075W        W88369  12.628  17.150   4.668
29076W        W88370  13.674  25.078  14.770
29077W        W88371  13.186  28.491  14.910
29078W        W88372  38.371   1.760  12.498
29079W        W88373  17.090  37.408  14.909
29080W        W88374  10.731  43.820   2.864
29081W        W88375  14.747  26.969  14.859
29082W        W88376   0.894  24.225  14.961
29083W        W88377  35.990  27.450  13.890
29084W        W88378  31.134   7.240  13.537
29085W        W88379  20.164   9.820  13.893
29086W        W88380   4.361  38.337   1.405
29087W        W88381  30.099  19.732   3.371
29088W        W88382  36.890  22.599   1.279
29089W        W88383  28.083   0.807  11.528
29090W        W88384  40.951  18.635  12.055
29091W        W88385  31.437  32.087  14.865
29092W        W88386  32.512  29.985   0.409
29093W        W88387  31.530  34.381   2.395
29094W        W88388  32.471  41.794  14.984
29095W        W88389  23.030   6.251   2.212
29096W        W88390  27.945  28.008  13.864
29097W        W88391  21.212  36.393   2.230
29098W        W88392  37.849   3.764  10.513
29099W        W88393  39.028  43.773   3.840
29100W        W88394   0.467  12.732  10.584
29101W        W88395  27.513  37.517   0.945
29102W        W88396  44.321  13.656  12.489
29103W        W88397  21.593  24.508  12.040
29104W        W88398  16.682  36.488  12.825
29105W        W88399   6.319   8.827  12.926
29106W        W88400  15.789  11.665   4.275
29107W        W88401  33.436  36.900   1.361
29108W        W88402  44.862  41.488  10.924
29109W        W88403  13.129   8.713   1.434
29110W        W88404  29.629  17.189  14.007
29111W        W88405  12.733  32.140   1.275
29112W        W88406  13.302  22.664  13.374
29113W        W88407  20.607  41.500   3.650
29114W        W88408  29.081  11.701  13.907
29115W        W88409  37.367  26.625  14.965
29116W        W88410  43.367  24.224  10.148
29117W        W88411  12.770  34.065  13.376
29118W        W88412   8.832   1.305   1.271
29119W        W88413  42.338   6.847  14.476
29120W        W88414  42.990  16.749   4.826
29121W        W88415  11.242  35.577  14.027
29122W        W88416  41.969  14.671  10.949
29123W        W88417   9.299  43.405  14.828
29124W        W88418  33.088  17.572   4.689
29125W        W88419  40.489   7.225  12.861
29126W        W88420  44.446  13.340  12.418
29127W        W88421  21.695  34.107   1.731
29128W        W88422  42.988  12.182   0.861
29129W        W88423  32.138  14.206  12.835
29130W        W88424   0.411  23.170  10.508
29131W        W88425  19.284  28.503   1.305
29132W        W88426  29.148  39.556   0.436
29133W        W88427  28.152  42.490  10.997
29134W        W88428  41.338  20.145  14.460
29135W        W88429  15.628   8.684  12.018
29136W        W88430   7.747  17.588  13.400
29137W        W88431  41.423  23.688  13.850
29138W        W88432  24.711   6.868  12.906
29139W        W88433   8.237   4.825  13.863
29140W        W88434   9.154  11.185   4.201
29141W        W88435  23.182  40.885   0.339
29142W        W88436  27.104  23.108  12.451
29143W        W88437  43.814   8.879  14.386
29144W        W88438  12.176  44.444   2.267
29145W        W88439   5.733   7.799   0.743
29146W        W88440  44.404  13.316   1.440
29147W        W88441   9.656  43.399  13.995
29148W        W88442  20.585  27.061   4.688
29149W        W88443  38.855  28.949  14.807
29150W        W88444  19.282  18.790   2.819
29151W        W88445  10.205  17.297  10.058
29152W        W88446  16.763   5.366   4.722
29153W        W88447  31.140  39.002   0.919
29154W        W88448  26.627  42.430  13.327
29155W        W88449  35.552  34.902  12.498
29156W        W88450  14.220   9.329   3.337
29157W        W88451  10.156  29.609  13.870
29158W        W88452   3.916  10.272  12.535
29159W        W88453  17.651  24.482   5.127
29160W        W88454  31.463   0.836  14.468
29161W        W88455  38.344  33.128  10.512
29162W        W88456  30.511   2.818  11.088
29163W        W88457  30.455   9.689  10.559
29164W        W88458  31.094  19.656  13.954
29165W        W88459   1.757   5.210   2.726
29166W        W88460  20.709  22.696  11.870
29167W        W88461  39.441  32.452   1.241
29168W        W88462  17.207   8.734   1.425
29169W        W88463  20.703   5.724  12.908
29170W        W88464   7.347  32.917   3.159
29171W        W88465  27.082  26.470   0.271
29172W        W88466  27.123  10.849   3.311
29173W        W88467  33.533  42.814  11.506
29174W        W88468  39.439  23.505  14.484
29175W        W88469  37.016  27.576  14.850
29176W        W88470  22.692  17.652   3.328
29177W        W88471  19.058  40.501   4.736
29178W        W88472  26.991  35.475  14.978
29179W        W88473  18.104  21.126   5.681
29180W        W88474  32.584  36.969  11.376
29181W        W88475  13.634   5.821  13.338
29182W        W88476  31.414  11.143   1.240
29183W        W88477  38.003  35.463  10.485
29184W        W88478  29.092  36.914   3.333
29185W        W88479  33.381  32.944  12.965
29186W        W88480  16.292  40.312  14.772
29187W        W88481  29.524  19.238   1.267
29188W        W88482   3.765  37.337   1.223
29189W        W88483  25.701  44.763  14.498
29190W        W88484  40.548  38.952   2.702
29191W        W88485  11.191   7.412   0.448
29192W        W88486  31.032  23.089   3.187
29193W        W88487  38.503  35.919  11.547
29194W        W88488  44.275  38.877  14.998
29195W        W88489  32.477  35.924   0.474
29196W        W88490  26.138  13.839  13.882
29197W        W88491   0.925  29.444   4.674
29198W        W88492  32.899  33.475   0.913
29199W        W88493   3.956  36.890  10.553
29200W        W88494  20.167   2.352  13.937
29201W        W88495  24.612   3.837   2.813
29202W        W88496  13.646  12.360   2.705
29203W        W88497   5.231  17.212  12.827
29204W        W88498   4.796  30.069  11.977
29205W        W88499  33.884  11.689  11.927
29206W        W88500  17.090  41.490  12.538
29207W        W88501  38.844   0.401   0.953
29208W        W88502  15.123  11.209  14.820
29209W        W88503   5.701   1.905   1.838
29210W        W88504  33.478   1.446  13.829
29211W        W88505   3.339   5.748  10.593
29212W        W88506  12.766   6.275  14.949
29213W        W88507  19.051  12.256   3.287
29214W        W88508   0.417  43.270  10.453
29215W        W88509  15.207   5.207  11.026
29216W        W88510  30.032  43.480   1.916
29217W        W88511  41.967  44.938   0.370
29218W        W88512  33.479  22.170  11.991
29219W        W88513  24.720  39.874  12.038
29220W        W88514  20.763  34.875   3.283
29221W        W88515  34.984  11.180   0.400
29222W        W88516  24.189  42.944   3.690
29223W        W88517   6.272  19.551   9.675
29224W        W88518  16.231  23.094   4.231
29225W        W88519   4.203  15.280  10.406
29226W        W88520  38.430  38.053   0.776
29227W        W88521  30.008  22.721   3.265
29228W        W88522  25.218  12.228   1.883
29229W        W88523  44.350  27.459  12.003
29230W        W88524  27.533   4.746  11.886
29231W        W88525  23.170   1.423  11.870
29232W        W88526   3.836   7.257  10.931
29233W        W88527  33.476  30.941   1.886
29234W        W88528  22.660  30.018   1.896
29235W        W88529  27.634  29.980  11.523
29236W        W88530  33.096  44.356  14.487
29237W        W88531  21.104  14.728   5.110
29238W        W88532  41.892  23.123  13.928
29239W        W88533   7.198  17.586  10.481
29240W        W88534  40.899  20.722   0.895
29241W        W88535   1.482  30.550   1.853
29242W        W88536  13.717  12.804   1.760
29243W        W88537   3.269   4.396  13.400
29244W        W88538   7.308  13.804  10.488
29245W        W88539  32.480  27.124  11.013
29246W        W88540  44.446  27.460  13.502
29247W        W88541  39.881  16.242   1.336
29248W        W88542  26.200  24.226  12.849
29249W        W88543  35.464  41.846   2.184
29250W        W88544  38.445   4.320  14.511
29251W        W88545  37.465  24.663  14.937
29252W        W88546  44.449  38.431  10.987
29253W        W88547  26.634   8.889  13.542
29254W        W88548  41.864  18.706   5.275
29255W        W88549  41.488  30.966   1.229
29256W        W88550  19.205   0.940  10.563
29257W        W88551  37.456   5.701  10.528
29258W        W88552  43.802  30.434  11.026
29259W        W88553  38.910  11.776   0.447
29260W        W88554  34.088  12.655  12.883
29261W        W88555  30.055  17.111  14.912
29262W        W88556   9.284  44.916   1.705
29263W        W88557  34.573   4.764   1.760
29264W        W88558  19.153  15.687  11.028
29265W        W88559  16.308   0.450   2.311
29266W        W88560  14.814  18.680   3.197
29267W        W88561   0.347  30.608  11.556
29268W        W88562  33.122  30.064   4.624
29269W        W88563  44.371  30.503   4.803
29270W        W88564  37.903  35.890  11.436
29271W        W88565  35.360   7.410   5.147
29272W        W88566   7.876  40.452   1.447
29273W        W88567  25.187  44.840   0.944
29274W        W88568   2.308  44.423  11.537
29275W        W88569   5.272  15.293   3.851
29276W        W88570  10.143  34.046   2.258
29277W        W88571  39.535  28.497   1.292
29278W        W88572  43.809  15.282  10.621
29279W        W88573  42.303  24.085   2.748
29280W        W88574  16.191  36.946  10.955
29281W        W88575   4.781   1.444   4.719
29282W        W88576  29.046  14.815   2.289
29283W        W88577  39.988  17.685   2.386
29284W        W88578  44.977  14.701   3.145
29285W        W88579  41.420  35.594  12.546
29286W        W88580  40.478   9.822   1.910
29287W        W88581  26.157  20.563   3.649
29288W        W88582   7.759  42.894   0.267
29289W        W88583  22.656  19.743   1.244
29290W        W88584  39.890  41.822   3.328
29291W        W88585  40.968  29.668   0.821
29292W        W88586  24.217  44.460   1.719
29293W        W88587  22.008  27.556  13.792
29294W        W88588   1.274  34.580  13.002
29295W        W88589   2.834  30.052  10.570
29296W        W88590  23.100  38.432   4.340
29297W        W88591  26.005  33.943  13.982
29298W        W88592   8.757  29.569   2.734
29299W        W88593  33.428  35.081   3.261
29300W        W88594  18.558   5.762   4.171
29301W        W88595   2.246  39.882   4.193
29302W        W88596  26.164   8.728   1.925
29303W        W88597  37.954  28.014   1.447
29304W        W88598  21.105  14.777   4.606
29305W        W88599  30.007  34.368  12.860
29306W        W88600  37.939   0.864   2.705
29307W        W88601  19.187  17.197  12.879
29308W        W88602  37.553  30.479   1.353
29309W        W88603  42.334   6.723  11.572
29310W        W88604  19.647  28.130   3.351
29311W        W88605  25.108   8.740  12.394
29312W        W88606  23.194  29.595   0.799
29313W        W88607  27.968   7.760   0.842
29314W        W88608  35.528   6.205   0.824
29315W        W88609  34.936  36.424  11.005
29316W        W88610  14.163  38.016  12.862
29317W        W88611  42.428  27.544   3.370
29318W        W88612  10.869  10.321   0.928
29319W        W88613  34.964   9.775   4.605
29320W        W88614   3.911   2.255   2.370
29321W        W88615  39.347  28.615  14.395
29322W        W88616  28.059  41.432  13.958
29323W        W88617   4.924   4.746   2.870
29324W        W88618  14.708  24.601   0.917
29325W        W88619  36.977  11.711   4.305
29326W        W88620  39.462  17.271   1.242
29327W        W88621  39.864  38.064   4.218
29328W        W88622   0.818  23.995   0.913
29329W        W88623  14.805  13.721  11.967
29330W        W88624  39.556   3.912   1.429
29331W        W88625   5.205  21.706   1.821
29332W        W88626  37.574   9.354   3.349
29333W        W88627  17.170   0.890  14.393
29334W        W88628   0.455  15.730  11.072
29335W        W88629   5.700  38.866   2.184
29336W        W88630  22.176  34.883   3.178
29337W        W88631  15.090  25.136  14.943
29338W        W88632   0.271  32.112  10.974
29339W        W88633  20.557  26.140   3.864
29340W        W88634  13.646  17.692   3.282
29341W        W88635  17.074  42.788   0.456
29342W        W88636   7.751   6.394   1.866
29343W        W88637  18.610  15.628   2.314
29344W        W88638  42.320  35.972   1.449
29345W        W88639  34.018  17.771   0.323
29346W        W88640  44.968  14.290   5.187
29347W        W88641  21.623  11.835   3.323
29348W        W88642  41.972  31.442   2.188
29349W        W88643  31.122  23.212  13.803
29350W        W88644  35.939  24.479  14.404
29351W        W88645  18.071  25.207   2.306
29352W        W88646   9.712  25.135   0.419
29353W        W88647  23.159   0.474   3.694
29354W        W88648  44.795  21.603   1.900
29355W        W88649  24.488  11.853   4.260
29356W        W88650   9.236  11.825  13.410
29357W        W88651  42.521  22.060   0.753
29358W        W88652  21.526  43.815  12.374
29359W        W88653  44.973  38.032   4.659
29360W        W88654  14.651  32.461  11.054
29361W        W88655  23.183  29.027   2.244
29362W        W88656  13.679  44.884  12.949
29363W        W88657   5.315  44.335  13.507
29364W        W88658  10.816  30.001  12.969
29365W        W88659  22.630  26.153   4.198
29366W        W88660  28.064   9.814  13.981
29367W        W88661  24.203   7.719   2.333
29368W        W88662  14.623  12.704  12.514
29369W        W88663  28.123  24.112  12.080
29370W        W88664   5.256  42.414   4.313
29371W        W88665  12.654  22.115   5.170
29372W        W88666  35.508   1.802  11.559
29373W        W88667  43.851  21.257   0.264
29374W        W88668   0.486   9.871   4.114
29375W        W88669  39.481  34.881   2.871
29376W        W88670  25.162  28.544   3.734
29377W        W88671  15.603  34.902   3.295
29378W        W88672  28.625  12.639  13.347
29379W        W88673  11.161  15.246  13.921
29380W        W88674  23.675  26.025  12.911
29381W        W88675  35.528  12.151   4.244
29382W        W88676   3.851  32.514  14.930
29383W        W88677  22.051  24.126  13.830
29384W        W88678  39.424  44.345   4.766
29385W        W88679  32.050  32.637  13.471
29386W        W88680  17.178  11.202  10.052
29387W        W88681  13.248  43.812  11.566
29388W        W88682  18.559  22.704   4.141
29389W        W88683  28.565  20.148  12.498
29390W        W88684  21.134  35.504   4.191
29391W        W88685  13.254  37.433  13.510
29392W        W88686   3.327  37.881  14.811
29393W        W88687  44.902  12.720  12.067
29394W        W88688  39.911  17.799  11.946
29395W        W88689  12.696  36.938   4.325
29396W        W88690  13.328  35.857   9.943
29397W        W88691  29.576  33.397  11.959
29398W        W88692  30.065   4.763   1.334
29399W        W88693  14.322   8.754   3.653
29400W        W88694   0.312   7.234  14.937
29401W        W88695  25.963  24.173   0.831
29402W        W88696  36.578  29.936  10.590
29403W        W88697  16.694  15.218  14.759
29404W        W88698  29.021  16.775  12.940
29405W        W88699   1.453   6.288   3.768
29406W        W88700  36.402  44.976   0.927
29407W        W88701  11.210  12.212   0.754
29408W        W88702   5.411  36.015   1.826
29409W        W88703  16.626  11.335   2.408
29410W        W88704  13.730   2.780  13.340
29411W        W88705  31.916   9.832   2.800
29412W        W88706  21.687   0.919  11.948
29413W        W88707  19.632  19.547   9.672
29414W        W88708  43.422   3.309   1.843
29415W        W88709   6.815  12.161   2.677
29416W        W88710   4.772   4.408   2.895
29417W        W88711   7.731  34.378  14.310
29418W        W88712  23.524  40.943  11.939
29419W        W88713  41.907  11.723  14.422
29420W        W88714  39.051  18.544   0.455
29421W        W88715  32.978  15.768   0.281
29422W        W88716  23.565  29.135  10.614
29423W        W88717  26.611  11.819   1.843
29424W        W88718  21.563  39.479  12.449
29425W        W88719  22.613   6.378  11.994
29426W        W88720  21.256  36.503   4.793
29427W        W88721  27.054  24.028  14.983
29428W        W88722  26.995  15.688   1.445
29429W        W88723  25.022  36.577   0.771
29430W        W88724   3.808  34.520   3.794
29431W        W88725   8.685  23.515  10.527
29432W        W88726  32.605  12.718   4.332
29433W        W88727  13.289  40.856   3.737
29434W        W88728  30.556   6.278   3.264
29435W        W88729  43.414  28.451   3.682
29436W        W88730  15.793  38.998   3.652
29437W        W88731  27.036  19.233   0.964
29438W        W88732  14.216  22.738   1.771
29439W        W88733  37.082  12.207  12.927
29440W        W88734   9.201  34.963  12.348
29441W        W88735  22.529   6.226   4.801
29442W        W88736  21.162  42.887  10.508
29443W        W88737  33.025  43.475   2.767
29444W        W88738   3.262   9.817   4.149
29445W        W88739  36.467  13.154   2.901
29446W        W88740  37.008  32.135   4.741
29447W        W88741  17.176  43.430   3.652
29448W        W88742  17.077  39.867  11.408
29449W        W88743   3.877  25.974  11.409
29450W        W88744   4.853  35.474   4.205
29451W        W88745   6.749  15.240   1.277
29452W        W88746  20.594  22.191  11.925
29453W        W88747  16.607  16.198   5.139
29454W        W88748   4.746  15.587   2.257
29455W        W88749  17.127  18.165  12.936
29456W        W88750  20.682   4.830   1.857
29457W        W88751  38.442  12.700  11.958
29458W        W88752  40.539  12.797   9.982
29459W        W88753   9.326  13.781   0.333
29460W        W88754  25.635   5.272   0.357
29461W        W88755   6.701  10.729  11.524
29462W        W88756  16.709  40.365   1.782
29463W        W88757  27.971  32.936   2.208
29464W        W88758   2.951  32.074   1.824
29465W        W88759  26.702  13.656   1.283
29466W        W88760  31.972  29.930  13.529
29467W        W88761  29.074   5.415  13.483
29468W        W88762  13.816  43.775  12.992
29469W        W88763  38.860  31.982   4.239
29470W        W88764   1.287  20.701  14.821
29471W        W88765   2.865   1.248   2.344
29472W        W88766  15.618  18.712  11.082
29473W        W88767  44.847  17.739   4.790
29474W        W88768  13.628  11.818   0.476
29475W        W88769  14.115  20.242   1.396
29476W        W88770  43.321  32.899  10.531
29477W        W88771   1.887  33.894  12.902
29478W        W88772  35.553   5.219  13.024
29479W        W88773  42.026  32.632   0.302
29480W        W88774   9.370  42.300  12.527
29481W        W88775   2.357  28.604   0.857
29482W        W88776  36.912  43.320   3.260
29483W        W88777  43.395  18.128   1.891
29484W        W88778  40.320  17.228  14.013
29485W        W88779  23.551  10.692  12.547
29486W        W88780  12.762  16.705  14.888
29487W        W88781  34.424  36.380  12.365
29488W        W88782   8.670  12.752   4.135
29489W        W88783   2.370   2.777  13.976
29490W        W88784  11.223  22.176  11.894
29491W        W88785  40.860  31.515  12.423
29492W        W88786  10.144  28.002  12.392
29493W        W88787  18.167  25.119  14.292
29494W        W88788  17.723  42.504   4.162
29495W        W88789  29.557  28.962  12.063
29496W        W88790   9.748  14.745  11.942
29497W        W88791  22.666  35.077   2.888
29498W        W88792  30.603  43.324  12.060
29499W        W88793  39.347  38.398   9.561
29500W        W88794  33.429  27.502  13.978
29501W        W88795  15.168  28.975  11.398
29502W        W88796  28.594  17.132  12.362
29503W        W88797   4.720   7.201   0.814
29504W        W88798  36.906  39.000   1.824
29505W        W88799  44.938   4.789   1.773
29506W        W88800  21.113  15.277   2.752
29507W        W88801  23.181  17.635   4.116
29508W        W88802   2.930   7.393  12.414
29509W        W88803  14.217   5.901   3.217
29510W        W88804   0.768  18.569  13.354
29511W        W88805  40.484   0.288   9.676
29512W        W88806  38.401  13.633   3.371
29513W        W88807   6.366  13.173   0.905
29514W        W88808  39.918  16.286   1.935
29515W        W88809  11.240  23.132  13.350
29516W        W88810   4.283  42.462  13.062
29517W        W88811  35.532  33.019   1.443
29518W        W88812  41.835   8.730   1.699
29519W        W88813   8.866  40.869  13.872
29520W        W88814  11.729  25.975  14.315
29521W        W88815  12.814   0.443   3.232
29522W        W88816  42.022  17.783  11.541
29523W        W88817  23.533  26.115  11.955
29524W        W88818  31.543  28.477  10.420
29525W        W88819  40.872  22.517   4.751
29526W        W88820  34.966   0.986   1.214
29527W        W88821  17.258   1.384   4.355
29528W        W88822  10.336  23.725   4.283
29529W        W88823  39.857  43.513   1.219
29530W        W88824  12.780  20.068  14.288
29531W        W88825  42.456  15.670  11.460
29532W        W88826  23.241  40.002   3.252
29533W        W88827  20.753   0.445   3.231
29534W        W88828  29.919  30.622  11.029
29535W        W88829  40.525  29.175  13.386
29536W        W88830  33.089  16.591  10.626
29537W        W88831  39.875  36.074   4.265
29538W        W88832   3.291  39.403   3.241
29539W        W88833   1.748   6.873   4.253
29540W        W88834   3.309   6.746   3.706
29541W        W88835  24.555  30.916   3.816
29542W        W88836  40.334  17.723  12.506
29543W        W88837  28.966  17.793   3.291
29544W        W88838  13.166   5.880  11.386
29545W        W88839  34.115  34.996  12.019
29546W        W88840  44.404  22.039   0.410
29547W        W88841  36.023  29.121  11.907
29548W        W88842   1.313   3.344   4.807
29549W        W88843  34.079  39.028   3.285
29550W        W88844   8.367  42.441   0.845
29551W        W88845  29.140  34.441   2.373
29552W        W88846  30.001  31.545  14.339
29553W        W88847  23.990  33.445  11.880
29554W        W88848  27.672  44.789   3.325
29555W        W88849  43.853  29.480   1.389
29556W        W88850  31.034  32.458  13.048
29557W        W88851  33.985  18.173  12.456
29558W        W88852  21.254  40.915   4.139
29559W        W88853   0.915  35.891  11.601
29560W        W88854  26.201   5.802  13.893
29561W        W88855  17.102  28.512   4.168
29562W        W88856  24.646   3.226  12.361
29563W        W88857  24.500  38.554   2.850
29564W        W88858  26.059   3.886  12.348
29565W        W88859  25.020   9.360  10.994
29566W        W88860  26.593   5.328  10.486
29567W        W88861  10.143  20.612   3.685
29568W        W88862   2.309   7.404   0.325
29569W        W88863   2.752  32.503   0.943
29570W        W88864  20.108   1.738  13.993
29571W        W88865  10.197  38.479   0.812
29572W        W88866   9.725   2.953  11.001
29573W        W88867  43.334  43.796  12.006
29574W        W88868  28.475   2.344  11.042
29575W        W88869  20.762  29.652  12.021
29576W        W88870  13.327  22.509  13.016
29577W        W88871  14.670  26.199  10.515
29578W        W88872  34.420  39.488  11.544
29579W        W88873   4.228  24.500   3.321
29580W        W88874  35.372  37.888  11.074
29581W        W88875  11.862  38.510   3.308
29582W        W88876  29.437   5.708   1.809
29583W        W88877  43.961  44.344  12.430
29584W        W88878   3.399  29.594  14.869
29585W        W88879  37.567  37.858   5.662
29586W        W88880   2.868  36.921  11.936
29587W        W88881  10.675  17.175   4.346
29588W        W88882  44.913  32.574   0.457
29589W        W88883  30.507  14.808  14.976
29590W        W88884  13.170   3.341   4.837
29591W        W88885   6.699   3.910  14.844
29592W        W88886  14.331  15.212  12.363
29593W        W88887   8.367   8.213   2.332
29594W        W88888   1.385   9.213  13.057
29595W        W88889   3.399  43.419   2.894
29596W        W88890  31.492   4.771   1.814
29597W        W88891   9.745  40.548  13.310
29598W        W88892   7.778  14.316   3.667
29599W        W88893  37.567  40.903  13.963
29600W        W88894  24.069  20.577   4.827
29601W        W88895  38.926   4.795  11.595
29602W        W88896  13.671   2.434  13.962
29603W        W88897  39.940  30.598  11.118
29604W        W88898  44.956  35.586  14.379
29605W        W88899   6.353  26.571   2.686
29606W        W88900  21.132  39.464  11.896
29607W        W88901  42.481  24.537  14.512
29608W        W88902   5.251  18.123   1.844
29609W        W88903  10.198   7.730   1.885
29610W        W88904  11.220   8.789  11.433
29611W        W88905   3.930  15.589   2.818
29612W        W88906   7.782  14.776   1.774
29613W        W88907  36.040  20.197   0.810
29614W        W88908   4.351  32.560  13.998
29615W        W88909  36.903  21.082  13.997
29616W        W88910  32.108  41.411   3.827
29617W        W88911  10.739  21.523  10.958
29618W        W88912  40.431  25.482  13.958
29619W        W88913   4.814   1.907  10.507
29620W        W88914   7.779  35.904   9.926
29621W        W88915   9.795  31.933   5.139
29622W        W88916  29.497  20.165  11.116
29623W        W88917  10.334  43.780   4.114
29624W        W88918  27.061  20.611   0.481
29625W        W88919  31.135  23.148  12.954
29626W        W88920   1.364  40.982   4.305
29627W        W88921   6.221   4.250   2.841
29628W        W88922  32.463  34.540  14.766
29629W        W88923  26.601   8.699  11.897
29630W        W88924  37.869  39.001  13.985
29631W        W88925  16.679  39.938   0.440
29632W        W88926   5.251  13.156  12.058
29633W        W88927   1.330  18.695  10.946
29634W        W88928  34.043   1.868   3.792
29635W        W88929  23.146  42.832  13.389
29636W        W88930  40.973  40.973  12.340
29637W        W88931  24.982  39.462   4.664
29638W        W88932  29.505  28.111  10.907
29639W        W88933  42.302  29.011  11.406
29640W        W88934  28.519  28.612  11.392
29641W        W88935  13.298  30.093   3.659
29642W        W88936  20.079   5.766   3.679
29643W        W88937   0.865  16.652   1.920
29644W        W88938   6.921  17.595  14.300
29645W        W88939  13.334  38.429  10.445
29646W        W88940  26.673   3.432  11.968
29647W        W88941  20.124  27.966   0.437
29648W        W88942  34.987  23.076   4.774
29649W        W88943  15.795  30.608  10.456
29650W        W88944  33.512  36.915  13.000
29651W        W88945  29.604  19.110   3.376
29652W        W88946  15.324  40.533  11.434
29653W        W88947  13.121   5.328   4.210
29654W        W88948  37.530  10.265  14.349
29655W        W88949  39.454  39.485  11.049
29656W        W88950  13.641   9.808   0.362
29657W        W88951   5.248  44.492  14.450
29658W        W88952   9.373  24.507  12.418
29659W        W88953  23.647  39.503  11.385
29660W        W88954  31.921  30.132  13.823
29661W        W88955  24.044  10.802   9.449
29662W        W88956  38.964  19.180  13.837
29663W        W88957  34.504   0.821  13.433
29664W        W88958  15.233  41.032  11.098
29665W        W88959  25.602  22.700  14.901
29666W        W88960  43.351   1.968   1.323
29667W        W88961  19.712   8.365  14.454
29668W        W88962  31.403   7.743   0.912
29669W        W88963  42.908  29.164  14.816
29670W        W88964  39.479  18.548  14.392
29671W        W88965  38.850   6.265   3.292
29672W        W88966   8.777   3.756  11.535
29673W        W88967   9.360  34.004  12.575
29674W        W88968  23.669  12.766   2.733
29675W        W88969  13.339  29.434   2.688
29676W        W88970  22.090   9.675   5.286
29677W        W88971  41.948   1.326  13.476
29678W        W88972   9.174   8.270   2.400
29679W        W88973   3.357  18.146   2.806
29680W        W88974  41.952  35.045   0.817
29681W        W88975  24.059  21.712  14.415
29682W        W88976  32.477  13.765   2.247
29683W        W88977  28.062  32.505  12.093
29684W        W88978  37.463  16.608  13.949
29685W        W88979  39.967  20.581  14.878
29686W        W88980   9.379  22.215   1.902
29687W        W88981  22.063   3.338   1.746
29688W        W88982  29.605   6.685  11.114
29689W        W88983  41.994   4.748  10.902
29690W        W88984  21.252  43.498  11.437
29691W        W88985  20.065  38.046  13.512
29692W        W88986  16.572  27.156   1.924
29693W        W88987  23.576  28.004   3.254
29694W        W88988  42.502  15.660   1.738
29695W        W88989  41.848  13.706   3.769
29696W        W88990  13.796  33.530   2.696
29697W        W88991  28.005   8.655   3.823
29698W        W88992  28.503  31.002   3.339
29699W        W88993  37.386  21.089  12.082
29700W        W88994  39.834  25.611   2.749
29701W        W88995  10.270   5.873   1.324
29702W        W88996  23.147  16.262   1.393
29703W        W88997   5.835  22.507   2.393
29704W        W88998  12.759  22.141   3.653
29705W        W88999   6.848  17.593  14.942
29706W        W89000  28.023  28.943   0.856
29707W        W89001  36.470  33.961  14.762
29708W        W89002  37.507  13.341   4.135
29709W        W89003  34.966  33.577  11.603
29710W        W89004  29.092  34.911  12.888
29711W        W89005  26.487  24.193   4.822
29712W        W89006  25.974  18.070   0.931
29713W        W89007  19.645   1.358  11.094
29714W        W89008  35.018  21.042   5.307
29715W        W89009  26.658  42.826   1.768
29716W        W89010   0.830  38.497  13.375
29717W        W89011   1.920  39.397  10.577
29718W        W89012  44.786  34.483   3.718
29719W        W89013   4.402  16.745  11.019
29720W        W89014  18.738  36.009   1.342
29721W        W89015   1.943  30.498   2.296
29722W        W89016  40.005  26.600   1.707
29723W        W89017  21.030  19.139  12.430
29724W        W89018  32.084  19.090   3.747
29725W        W89019  35.486  37.363  10.933
29726W        W89020   9.280   7.890   3.697
29727W        W89021  43.321  12.709  14.300
29728W        W89022  28.173  23.219   0.947
29729W        W89023  39.933   0.972  10.411
29730W        W89024  22.171  38.327   0.903
29731W        W89025  39.481   9.767   2.351
29732W        W89026  12.836  43.782   2.711
29733W        W89027   5.780  16.231  12.460
29734W        W89028  29.970  15.817  10.489
29735W        W89029   7.774  44.826  14.843
29736W        W89030  30.536  40.877   3.250
29737W        W89031  44.831  22.028   2.402
29738W        W89032  18.760  30.438   3.650
29739W        W89033  26.664  27.176  12.900
29740W        W89034  40.906   8.173  14.292
29741W        W89035  39.457  30.557  11.438
29742W        W89036  14.102   6.895  13.902
29743W        W89037  38.427   9.152   3.799
29744W        W89038  22.614  42.822   1.441
29745W        W89039  11.633  25.013  12.531
29746W        W89040   5.886  31.085   1.851
29747W        W89041  13.307   7.316  12.416
29748W        W89042  22.545  39.851  11.514
29749W        W89043  37.033  30.951  13.800
29750W        W89044  41.868  40.532  11.386
29751W        W89045  19.118  30.504  11.919
29752W        W89046   3.272  21.258   4.194
29753W        W89047  17.594  43.766  12.360
29754W        W89048   0.255  22.036  11.488
29755W        W89049  14.120  41.304  10.628
29756W        W89050  17.243  38.331   1.934
29757W        W89051  25.683  27.623  11.053
29758W        W89052   0.302  37.961   4.818
29759W        W89053  31.516  31.626   2.889
29760W        W89054   1.254  40.543   1.893
29761W        W89055  38.449  29.159   3.775
29762W        W89056   0.444   9.222  11.409
29763W        W89057  13.827  43.476   0.311
29764W        W89058  22.121  24.067  12.880
29765W        W89059  13.711  18.282  13.978
29766W        W89060  27.019   1.357   0.370
29767W        W89061  35.551  24.033   4.306
29768W        W89062  14.630  23.195   4.348
29769W        W89063  14.642  18.600   1.430
29770W        W89064  18.639  42.958   0.858
29771W        W89065  30.087  14.241  10.579
29772W        W89066  10.264  35.946  11.472
29773W        W89067   9.357  32.541  12.558
29774W        W89068  35.898   2.300  11.903
29775W        W89069  10.193  27.460   0.738
29776W        W89070  33.129   4.219   4.707
29777W        W89071  28.567  29.936  12.007
29778W        W89072  29.662  22.741   5.153
29779W        W89073  41.837  31.008  11.493
29780W        W89074  10.366  27.480  10.442
29781W        W89075  31.470  11.230  11.974
29782W        W89076  43.970   5.223  14.350
29783W        W89077   2.407  16.690  13.951
29784W        W89078  18.125  44.338  12.988
29785W        W89079  17.563  34.452   3.656
29786W        W89080  33.380  33.979  11.050
29787W        W89081   9.259   3.410   1.359
29788W        W89082  12.664  36.886   1.343
29789W        W89083  26.970   7.863   0.295
29790W        W89084  29.522  18.083   2.668
29791W        W89085  18.704   0.938  14.938
29792W        W89086  22.039   9.649   2.273
29793W        W89087  13.676  16.763   3.201
29794W        W89088   9.650  17.170  11.537
29795W        W89089  20.051  39.874  11.454
29796W        W89090  10.802  41.400  12.349
29797W        W89091   7.362   2.925   5.801
29798W        W89092  39.350  39.437   4.192
29799W        W89093   6.839  34.963   3.779
29800W        W89094  39.956  39.066   4.113
29801W        W89095   6.885  11.137   0.317
29802W        W89096  26.094  24.182  11.423
29803W        W89097   3.944  42.907   3.681
29804W        W89098  41.897  34.897  10.554
29805W        W89099  38.876  27.061   1.741
29806W        W89100  23.143  26.150  14.410
29807W        W89101  21.602  33.597  11.034
29808W        W89102   7.297  25.021  12.039
29809W        W89103  24.479  28.157  14.831
29810W        W89104  24.144  38.895  10.129
29811W        W89105  22.548  30.030  13.955
29812W        W89106  42.301  31.976   5.110
29813W        W89107  22.621  22.709   2.737
29814W        W89108  40.520  16.176  12.859
29815W        W89109  27.673  34.596   2.699
29816W        W89110  40.855  24.582  13.843
29817W        W89111  16.275  19.594   1.300
29818W        W89112   1.935   7.712  10.486
29819W        W89113  41.304  15.630   2.889
29820W        W89114  33.962   9.767  14.939
29821W        W89115  32.110   6.250  14.326
29822W        W89116  31.934   6.226  10.577
29823W        W89117   4.420  14.201   4.220
29824W        W89118  43.508  22.068   1.740
29825W        W89119  40.474  38.935  12.091
29826W        W89120  41.349   2.944  14.293
29827W        W89121  28.629  32.109  14.027
29828W        W89122  17.189  24.614  12.489
29829W        W89123   2.829  44.429   1.247
29830W        W89124  38.564  38.497  11.900
29831W        W89125  39.039  12.215   4.248
29832W        W89126  22.572  44.392  14.396
29833W        W89127  26.533  13.602   4.726
29834W        W89128  35.098   1.925  10.534
29835W        W89129  41.993  29.498  10.006
29836W        W89130  12.683   4.358  10.417
29837W        W89131  40.315  39.443  10.913
29838W        W89132   4.913  13.202  13.961
29839W        W89133  12.281   6.392  13.793
29840W        W89134  22.090  37.957   0.828
29841W        W89135  34.963  23.552   3.707
29842W        W89136  28.138  26.195   3.227
29843W        W89137  39.426   5.930   2.387
29844W        W89138  33.087   5.912  10.059
29845W        W89139  25.472  17.304   5.119
29846W        W89140  40.028  16.635  13.422
29847W        W89141  17.796  26.201  10.559
29848W        W89142   8.681  38.395   3.371
29849W        W89143   0.780  41.401   4.164
29850W        W89144   4.360  15.235  14.954
29851W        W89145  39.525  28.046  12.039
29852W        W89146  19.190  12.792  13.826
29853W        W89147  21.196  22.676  10.942
29854W        W89148  31.444  16.284   4.144
29855W        W89149   3.761  30.033   3.646
29856W        W89150  10.815  14.631   3.728
29857W        W89151  21.628  19.684   4.627
29858W        W89152   8.314   2.268   0.257
29859W        W89153  42.955  42.445   0.458
29860W        W89154  29.562   9.213   1.241
29861W        W89155  21.533  37.983  13.488
29862W        W89156  29.425  19.584  14.988
29863W        W89157  15.154  40.953  13.528
29864W        W89158  28.993  26.529   4.175
29865W        W89159  24.986  23.159   2.811
29866W        W89160  30.036   1.941   2.819
29867W        W89161  38.034  25.495  13.849
29868W        W89162   1.440  36.418  13.901
29869W        W89163  42.393  34.945  13.535
29870W        W89164  35.990  12.640  13.058
29871W        W89165  11.288  32.006   3.251
29872W        W89166  27.152  35.907  11.998
29873W        W89167   6.921  16.254   0.778
29874W        W89168  13.323  26.001   0.422
29875W        W89169  22.632   4.243   0.377
29876W        W89170   0.350  22.011   0.246
29877W        W89171   8.801  36.997   1.862
29878W        W89172  39.952   4.886   2.750
29879W        W89173  40.884  12.749  13.512
29880W        W89174   5.808  36.474  14.446
29881W        W89175  33.939   4.925  13.356
29882W        W89176   5.242  12.257  11.502
29883W        W89177  14.321  30.056  12.364
29884W        W89178  15.747  16.177  12.383
29885W        W89179  17.088  22.686   0.811
29886W        W89180  43.909  26.170   3.795
29887W        W89181  35.421   7.840  14.466
29888W        W89182  11.234  27.511  14.295
29889W        W89183  14.832   0.806   0.786
29890W        W89184  41.292  39.029  14.440
29891W        W89185  18.207  35.000  12.825
29892W        W89186   1.847  44.757   2.366
29893W        W89187  12.179  40.014  10.547
29894W        W89188  27.655  25.979   3.639
29895W        W89189  37.536  11.740   4.622
29896W        W89190   4.796  37.469  11.114
29897W        W89191  24.205  23.505   0.312
29898W        W89192  14.338   5.745   4.209
29899W        W89193   5.930   3.398  12.558
29900W        W89194   8.741  40.964  14.769
29901W        W89195  28.155  17.221   4.115
29902W        W89196  11.662  37.441   1.292
29903W        W89197  24.161  39.351  13.013
29904W        W89198  15.739  11.698   3.268
29905W        W89199  10.232  21.625  12.460
29906W        W89200  21.651  22.043   3.789
29907W        W89201   0.372  35.500  11.578
29908W        W89202  12.697  18.238   0.467
29909W        W89203   4.819  29.627  14.290
29910W        W89204  39.345  37.929   5.223
29911W        W89205   1.299   0.771   4.691
29912W        W89206  31.082   7.234  10.129
29913W        W89207  24.034  44.470   3.255
29914W        W89208  23.104  36.993  13.854
29915W        W89209  23.231  28.065   0.253
29916W        W89210  25.147  14.630   4.332
29917W        W89211   7.236  16.265   4.757
29918W        W89212  20.057  34.959  14.281
29919W        W89213  30.005   2.825   3.650
29920W        W89214  44.322   1.868   2.750
29921W        W89215  24.180  41.308   0.249
29922W        W89216  19.126  26.994   4.701
29923W        W89217  18.113  39.433   4.739
29924W        W89218   9.212  44.896   2.738
29925W        W89219  27.623  11.351   2.871
29926W        W89220  40.458  27.621   1.815
29927W        W89221   9.211  36.859   4.320
29928W        W89222  22.671  38.562  13.791
29929W        W89223  18.062  33.105  10.945
29930W        W89224  15.761  42.334  11.905
29931W        W89225   7.721  41.336  12.956
29932W        W89226  18.056  20.251   1.422
29933W        W89227  36.377   3.790  13.797
29934W        W89228  33.447  38.831   0.879
29935W        W89229   6.802   7.253   2.685
29936W        W89230   0.365  40.437  14.287
29937W        W89231  21.119  25.152   2.244
29938W        W89232  43.515  43.957   1.299
29939W        W89233  31.441   5.924   0.344
29940W        W89234  16.124  24.647  11.608
29941W        W89235  11.130   8.180  13.460
29942W        W89236   3.780  28.058   3.171
29943W        W89237  29.044   5.323  13.063
29944W        W89238   4.839  40.881  13.420
29945W        W89239  28.094  35.966   1.811
29946W        W89240   1.926  19.196   0.941
29947W        W89241  21.635  29.985   0.844
29948W        W89242  26.507   3.329   2.394
29949W        W89243  44.816  13.342  12.047
29950W        W89244  29.120  11.320  12.902
29951W        W89245  34.486  40.033  12.431
29952W        W89246  34.919  16.229  12.360
29953W        W89247  43.816  27.180  12.563
29954W        W89248   0.444  31.526  12.372
29955W        W89249  25.488  36.419   1.406
29956W        W89250  24.036  34.474   5.221
29957W        W89251  17.580  42.379  12.002
29958W        W89252  17.584   2.801   4.273
29959W        W89253  10.312  42.893   1.836
29960W        W89254  38.339   2.308   0.949
29961W        W89255   8.354   4.762  12.539
29962W        W89256  35.983  28.629   0.310
29963W        W89257  28.982   4.823  11.942
29964W        W89258  14.181   6.919  14.367
29965W        W89259  35.955  38.067   5.212
29966W        W89260  13.618  40.410  12.550
29967W        W89261  12.712  15.582  10.044
29968W        W89262  28.550   7.344  10.967
29969W        W89263  19.743   4.420  11.050
29970W        W89264  21.140  28.569   2.265
29971W        W89265  24.985  38.864   0.846
29972W        W89266   0.377   6.718   2.359
29973W        W89267   7.254  40.951  13.061
29974W        W89268  44.850  33.458  11.918
29975W        W89269  38.533  33.115   4.322
29976W        W89270  24.620  34.009  12.852
29977W        W89271   6.789  26.953  11.583
29978W        W89272  34.890  11.794   5.300
29979W        W89273   2.727   2.324  14.904
29980W        W89274  24.022   8.730  12.944
29981W        W89275  14.638  26.665   5.110
29982W        W89276  40.945  26.609   4.203
29983W        W89277  28.131  12.689  12.566
29984W        W89278  38.462   7.696   0.371
29985W        W89279  13.612  29.158   2.849
29986W        W89280   5.209  40.535  10.420
29987W        W89281  14.611  14.661  14.003
29988W        W89282   5.417  23.624   3.695
29989W        W89283  35.030   8.298   3.331
29990W        W89284  41.410  28.105   3.239
29991W        W89285  23.044  42.492   0.831
29992W        W89286  28.476   7.404  13.872
29993W        W89287  22.700  32.063   3.311
29994W        W89288   7.286  32.059   9.461
29995W        W89289  16.604  35.452  14.025
29996W        W89290  11.825  20.738  13.845
29997W        W89291  33.057   1.851   3.818
29998W        W89292  32.480  14.697  12.081
29999W        W89293  32.911  26.146   3.740
30000W        W89294  11.672   2.416  12.845
30001W        W89295  17.596  30.613  14.834
30002W        W89296  37.041  37.493   1.339
30003W        W89297  21.249  17.748   1.825
30004W        W89298  42.484  22.179  14.457
30005W        W89299  36.474   8.275  12.850
30006W        W89300  16.716  14.808  11.407
30007W        W89301  30.424  33.904   1.819
30008W        W89302  10.865  19.072  14.824
30009W        W89303  31.610  34.565  14.009
30010W        W89304  29.666  14.790  10.921
30011W        W89305  17.560  13.222  10.581
30012W        W89306  16.643  35.975  10.572
30013W        W89307  11.259   9.169  13.821
30014W        W89308  31.424   8.256   3.724
30015W        W89309   0.932  17.141   4.684
30016W        W89310  41.330  22.088  10.625
30017W        W89311  15.696  10.187  10.594
30018W        W89312   6.828  23.172   4.126
30019W        W89313  12.699  34.976   1.360
30020W        W89314  27.113  42.990  11.397
30021W        W89315  37.379  18.244   0.439
30022W        W89316  13.228   0.975  10.459
30023W        W89317  35.017  40.866   2.730
30024W        W89318  37.833  34.565   3.810
30025W        W89319   2.267   2.361   2.280
30026W        W89320   6.402   6.758  14.872
30027W        W89321  25.593  14.334  14.471
30028W        W89322  28.008  27.012  11.404
30029W        W89323  15.264  24.062  14.003
30030W        W89324   3.401  24.104   4.613
30031W        W89325  19.540  10.790  11.453
30032W        W89326   8.265  24.688  13.975
30033W        W89327  10.342  37.851  13.003
30034W        W89328  21.107  23.120   2.285
30035W        W89329  26.502  29.456   4.834
30036W        W89330  33.953  28.450   0.925
30037W        W89331  33.459  43.792   2.287
30038W        W89332  39.993  28.621   0.398
30039W        W89333   2.464   3.219  13.876
30040W        W89334   0.454  24.131  14.440
30041W        W89335  11.334  33.444  14.830
30042W        W89336   4.773  33.517  11.044
30043W        W89337  43.796  29.576   3.155
30044W        W89338  12.654  44.906   3.332
30045W        W89339   9.880  21.060   1.389
30046W        W89340  41.992  38.471  14.967
30047W        W89341  22.726  18.294  12.345
30048W        W89342  18.636  28.102  11.574
30049W        W89343  21.141  26.458   5.146
30050W        W89344   0.908  29.639  11.582
30051W        W89345  33.875  37.561  11.025
30052W        W89346  35.439  24.700   2.356
30053W        W89347  33.986  20.620  12.998
30054W        W89348   1.317  22.655   0.269
30055W        W89349   3.442   2.957  12.963
30056W        W89350  42.454  32.049   1.929
30057W        W89351  12.710  31.933  13.371
30058W        W89352  26.132  39.839  12.034
30059W        W89353   5.719   2.321  10.948
30060W        W89354  32.618  40.028  14.339
30061W        W89355  20.076  33.968  12.425
30062W        W89356  23.131  15.310   3.630
30063W        W89357  15.189  31.965   0.763
30064W        W89358  23.048   5.328   3.834
30065W        W89359  41.925  28.533   1.840
30066W        W89360  24.544   4.305  13.975
30067W        W89361   3.269  37.444   2.274
30068W        W89362  15.181  31.986   1.903
30069W        W89363  38.957  23.123  13.850
30070W        W89364  24.546  14.826  11.416
30071W        W89365   7.708   9.793  13.063
30072W        W89366  20.640  42.819  11.910
30073W        W89367  34.399  33.084  13.396
30074W        W89368   7.789  14.749  14.864
30075W        W89369  35.993   2.942   4.686
30076W        W89370  28.152  17.722   4.157
30077W        W89371  28.441  24.605  14.907
30078W        W89372  17.285  22.051   4.728
30079W        W89373  43.887  33.004  12.912
30080W        W89374  38.049  29.621  14.498
30081W        W89375  12.757  16.169  11.078
30082W        W89376  26.090  43.320  10.566
30083W        W89377   6.829  41.364   3.802
30084W        W89378  14.628  36.859   1.753
30085W        W89379  31.965  26.483   1.846
30086W        W89380  28.143  13.713   3.802
30087W        W89381  21.716   6.802   2.662
30088W        W89382   5.750  20.176  13.013
30089W        W89383  31.617   2.270  11.449
30090W        W89384  37.363  36.453   1.914
30091W        W89385  33.024  19.255   4.638
30092W        W89386  16.724   1.271   3.188
30093W        W89387  17.795  32.891  12.421
30094W        W89388  18.712  44.807  10.519
30095W        W89389  12.745  32.448   0.246
30096W        W89390  27.456  19.724   4.660
30097W        W89391  39.046  21.703  12.898
30098W        W89392   3.375   4.925   4.680
30099W        W89393  11.281   8.365   2.839
30100W        W89394   8.749   3.941  12.505
30101W        W89395   5.387  10.341  13.539
30102W        W89396  11.344  14.828   2.274
30103W        W89397   0.777  42.389   4.705
30104W        W89398  11.190  37.401  14.032
30105W        W89399  19.207  22.248  13.966
30106W        W89400   5.926  20.584   2.816
30107W        W89401  12.809   7.812   2.290
30108W        W89402  44.441   8.722   1.440
30109W        W89403  40.815  22.547  11.859
30110W        W89404  12.659  14.619   4.295
30111W        W89405  44.339  32.074  14.360
30112W        W89406  21.645  41.835  10.599
30113W        W89407  14.756  19.167  14.907
30114W        W89408  16.085  29.633  11.479
30115W        W89409   1.305  41.382  14.914
30116W        W89410   5.902  28.147   0.321
30117W        W89411  36.002  14.664   3.250
30118W        W89412  12.120  39.028   1.305
30119W        W89413   4.226  33.558   1.285
30120W        W89414  29.537  26.513  11.021
30121W        W89415  38.873  10.733   1.796
30122W        W89416   4.401  32.573   4.815
30123W        W89417   3.381  21.554   4.328
30124W        W89418  31.624  27.682   1.403
30125W        W89419  38.997  15.272  14.351
30126W        W89420  31.954   8.663   0.966
30127W        W89421   6.824   1.885  13.981
30128W        W89422  33.386  24.199   5.149
30129W        W89423  27.057  12.298  10.934
30130W        W89424  30.554  38.903  11.610
30131W        W89425   4.215   5.267  11.440
30132W        W89426  11.774  25.006   4.255
30133W        W89427  23.676  35.588  13.391
30134W        W89428  26.670  25.609   0.794
30135W        W89429   9.654  16.229   2.842
30136W        W89430  19.598  36.960  10.415
30137W        W89431  22.668  41.004   3.630
30138W        W89432  16.733  22.114  13.408
30139W        W89433  42.910  19.119  11.451
30140W        W89434  19.601  34.098  13.839
30141W        W89435  15.679   1.882  10.423
30142W        W89436  24.022   4.380   2.297
30143W        W89437  38.553  11.776   1.437
30144W        W89438  13.235  28.117   0.895
30145W        W89439   4.450   1.366   4.603
30146W        W89440  39.532  39.527   0.325
30147W        W89441  41.373   3.282   2.727
30148W        W89442  14.303   7.380  13.533
30149W        W89443   4.381  32.921  12.042
30150W        W89444  12.337  25.135   4.745
30151W        W89445  30.060  31.930   2.255
30152W        W89446  30.494  33.409  14.803
30153W        W89447  30.155  20.208   3.700
30154W        W89448   2.305   2.866  14.345
30155W        W89449  33.580  40.944   2.739
30156W        W89450  15.298  12.622  12.521
30157W        W89451  35.573  24.014  11.576
30158W        W89452  14.215  24.013  12.359
30159W        W89453  26.176  14.331   0.334
30160W        W89454  32.945  39.811   4.349
30161W        W89455  23.598   3.713   4.290
30162W        W89456   5.213   1.421   2.296
30163W        W89457   8.701  33.599  11.113
30164W        W89458  29.147  10.811   1.813
30165W        W89459  21.746   1.366  11.046
30166W        W89460  10.864   6.872   2.682
30167W        W89461   2.947  11.764   3.170
30168W        W89462  39.867   3.460   0.905
30169W        W89463   1.394  24.630  12.459
30170W        W89464  22.562  34.077  11.461
30171W        W89465   0.251  18.622   3.744
30172W        W89466  33.430  34.025   1.231
30173W        W89467  11.152  13.673   4.235
30174W        W89468  37.491  16.173  12.454
30175W        W89469  35.942  42.480   4.805
30176W        W89470  35.895   7.417   4.751
30177W        W89471  32.946  41.349  11.052
30178W        W89472   3.865   1.285   3.164
30179W        W89473  17.143   1.847   9.926
30180W        W89474   0.880  29.084   4.132
30181W        W89475  17.771   2.857  14.907
30182W        W89476  38.909  26.619  14.867
30183W        W89477  29.598  26.121  11.117
30184W        W89478  44.822  16.624   1.887
30185W        W89479  27.144  18.628  14.342
30186W        W89480   9.206  15.594  12.576
30187W        W89481  24.224  11.726   3.213
30188W        W89482   6.282  17.085  10.499
30189W        W89483   3.790  25.641  10.577
30190W        W89484  25.195   3.729   4.339
30191W        W89485  26.482   0.404  12.004
30192W        W89486  27.497  14.110  12.413
30193W        W89487   1.315  34.063  14.428
30194W        W89488  30.504  17.169   1.845
30195W        W89489   3.312   5.239  11.576
30196W        W89490  34.390  31.943   1.909
30197W        W89491  36.586  13.739  10.989
30198W        W89492   9.382   9.742  13.516
30199W        W89493  26.059  21.668   0.264
30200W        W89494  19.774  22.697  12.850
30201W        W89495   3.812   2.402   4.761
30202W        W89496  42.784   9.726  12.899
30203W        W89497  30.471   7.774   1.713
30204W        W89498  18.181  41.411  12.004
30205W        W89499  20.673  28.501   1.771
30206W        W89500  10.181  32.447   4.710
30207W        W89501  31.925  40.321  11.596
30208W        W89502   8.746  40.458   1.728
30209W        W89503  14.638  44.809   3.310
30210W        W89504  10.322   1.474  11.524
30211W        W89505  37.023  28.977   2.720
30212W        W89506  14.103  28.015   5.193
30213W        W89507  36.465  37.958  12.481
30214W        W89508  26.632  39.342  12.823
30215W        W89509  31.607  10.268   3.731
30216W        W89510  32.532  30.091  10.457
30217W        W89511  14.751  17.282   2.313
30218W        W89512  22.068  25.549   4.154
30219W        W89513  14.197   6.276   0.878
30220W        W89514   9.278  24.103  13.790
30221W        W89515  30.528  43.275   4.309
30222W        W89516  31.423  26.204  13.421
30223W        W89517  17.663  10.837  12.038
30224W        W89518  38.953   5.744  10.114
30225W        W89519   1.294  32.912  10.638
30226W        W89520   1.761  30.582   4.697
30227W        W89521   1.788   0.357   3.767
30228W        W89522  40.347   4.236  13.475
30229W        W89523  22.509  32.907   3.298
30230W        W89524  32.892  41.792  11.595
30231W        W89525  26.625  17.296  13.054
30232W        W89526  16.643   3.787  14.419
30233W        W89527   4.236   9.379  11.410
30234W        W89528  37.482  13.178   0.891
30235W        W89529  14.158  43.015  12.563
30236W        W89530  17.254  29.538  14.982
30237W        W89531  16.659  27.509   2.225
30238W        W89532  15.626   6.845   3.758
30239W        W89533  43.881  37.891   1.352
30240W        W89534   2.237  41.474  14.909
30241W        W89535  39.944   2.794  14.028
30242W        W89536  21.189  28.119   1.437
30243W        W89537  19.089  42.000   2.893
30244W        W89538  36.393  42.515  12.438
30245W        W89539  25.565  36.971  14.419
30246W        W89540  42.318   7.349   0.372
30247W        W89541  26.148  19.169   4.344
30248W        W89542  16.117   5.932   4.232
30249W        W89543  30.452   7.333  12.997
30250W        W89544   5.722  28.568   1.831
30251W        W89545  20.077   8.711   1.755
30252W        W89546   0.385   9.750  10.631
30253W        W89547   9.307  40.451   0.890
30254W        W89548  27.973  43.390  12.979
30255W        W89549  16.253  40.888   3.702
30256W        W89550  41.922  35.458   4.609
30257W        W89551  42.479  16.691   4.244
30258W        W89552  13.648  37.975  11.610
30259W        W89553  22.179  44.888  10.583
30260W        W89554  41.853  36.523   5.086
30261W        W89555  24.571  28.586  13.951
30262W        W89556  37.914  23.115   3.640
30263W        W89557  25.967   3.953  11.943
30264W        W89558  36.076   2.955  12.456
30265W        W89559   0.847  44.918   4.188
30266W        W89560  42.879   7.213   1.875
30267W        W89561  11.154  17.775  13.864
30268W        W89562  12.841   9.761  11.567
30269W        W89563   9.653  12.139  11.603
30270W        W89564  30.571  34.460  10.961
30271W        W89565   3.325  36.853   3.229
30272W        W89566  35.556   6.828   4.131
30273W        W89567  16.751  19.239  10.093
30274W        W89568   5.834  11.855  12.906
30275W        W89569   5.263   9.824  12.968
30276W        W89570  37.441  24.210  10.940
30277W        W89571  11.136   6.339  10.596
30278W        W89572  12.687  23.188  12.025
30279W        W89573  25.005  13.245   2.874
30280W        W89574  15.808  22.564  12.008
30281W        W89575   2.839  16.651  14.959
30282W        W89576  39.968  31.402  12.484
30283W        W89577  22.741  14.233   1.711
30284W        W89578  26.475  17.245  13.514
30285W        W89579  25.190  33.475  11.971
30286W        W89580   9.856  12.789  11.372
30287W        W89581  12.247  28.606  13.983
30288W        W89582  35.433  42.836  13.836
30289W        W89583  11.850  42.892   0.399
30290W        W89584  33.124  31.134   3.186
30291W        W89585  26.527  29.443   3.702
30292W        W89586   1.353   0.432   0.439
30293W        W89587  16.206  13.843  11.475
30294W        W89588   4.904  34.606  12.891
30295W        W89589  32.426  17.743  10.585
30296W        W89590  37.377  38.038   0.807
30297W        W89591   3.782  31.479  10.969
30298W        W89592  35.919  26.655   1.435
30299W        W89593  11.280  17.063  11.945
30300W        W89594   3.275  41.505  12.423
30301W        W89595  42.322  13.607   4.256
30302W        W89596   5.799  40.013   0.925
30303W        W89597   1.464  43.816   9.570
30304W        W89598  29.951  18.589   0.278
30305W        W89599  23.237  23.551  10.985
30306W        W89600   8.715  15.185   2.812
30307W        W89601  26.698  30.080   4.788
30308W        W89602  43.970  12.843   4.720
30309W        W89603  10.305  41.042  10.953
30310W        W89604   5.916  43.973  13.928
30311W        W89605  25.133  15.286  13.845
30312W        W89606  28.455  13.144   0.342
30313W        W89607  42.935  33.069  14.957
30314W        W89608  10.169   2.781  13.540
30315W        W89609  41.921  29.071  14.349
30316W        W89610  18.091  42.004  13.913
30317W        W89611   0.417  26.500   0.812
30318W        W89612  30.592  44.456  13.403
30319W        W89613  30.066   3.284  13.438
30320W        W89614  29.436  25.146   1.701
30321W        W89615  42.003  37.989  10.529
30322W        W89616  19.738  25.982   2.374
30323W        W89617   7.214  19.200   1.875
30324W        W89618   5.789  42.317  14.014
30325W        W89619  32.608  29.162  13.501
30326W        W89620  34.079   1.802   4.202
30327W        W89621  34.379  13.301   3.336
30328W        W89622  16.310  21.664  10.493
30329W        W89623  28.597  13.669  10.420
30330W        W89624  27.120  44.273   2.752
30331W        W89625   9.793  27.948   4.760
30332W        W89626   9.282  21.590  10.417
30333W        W89627  38.459   3.438   3.374
30334W        W89628  21.521  37.490   3.724
30335W        W89629  36.060  22.709   2.279
30336W        W89630   7.287  15.119   1.238
30337W        W89631  27.963  14.631   4.316
30338W        W89632   4.228  27.152   1.336
30339W        W89633   5.277  34.951  12.985
30340W        W89634  39.050  18.230  13.996
30341W        W89635   3.324  14.649   4.787
30342W        W89636  27.014   7.752  14.794
30343W        W89637  43.940  40.036  11.603
30344W        W89638  41.339  14.744  10.466
30345W        W89639  42.394  27.165  13.833
30346W        W89640  20.669  33.527  13.851
30347W        W89641   5.274   8.240   4.687
30348W        W89642  36.454  31.961  12.986
30349W        W89643  33.086  33.431   2.215
30350W        W89644  26.566  12.169  10.631
30351W        W89645  37.855  39.925  11.021
30352W        W89646  11.249  37.875   3.761
30353W        W89647  17.710  16.230   2.815
30354W        W89648   9.790  22.594   0.265
30355W        W89649  16.075  38.333   2.332
30356W        W89650  21.624   2.965   1.901
30357W        W89651  10.818  10.837  10.927
30358W        W89652   6.388  28.116  11.981
30359W        W89653  18.109  13.247   0.480
30360W        W89654  25.523  34.106   0.284
30361W        W89655  24.983  31.566  13.886
30362W        W89656  21.036  12.775  12.825
30363W        W89657   8.711  11.664   1.856
30364W        W89658  28.625  14.685   2.663
30365W        W89659  18.775   2.835   3.811
30366W        W89660   0.773  20.547  14.025
30367W        W89661  37.006  24.656  14.414
30368W        W89662  40.928  16.081   2.308
30369W        W89663  43.838  24.076  10.487
30370W        W89664   6.353  36.092  13.433
30371W        W89665   4.434  36.430  12.458
30372W        W89666  12.632  30.013   5.297
30373W        W89667  43.906  19.210  11.392
30374W        W89668  40.529  44.804   2.333
30375W        W89669  25.192  28.107  14.340
30376W        W89670   9.356  22.194   2.407
30377W        W89671  34.052  17.075   0.827
30378W        W89672  18.080  12.259  13.861
30379W        W89673  28.667  34.027  11.914
30380W        W89674  24.049  25.018   2.398
30381W        W89675  22.156  20.100  12.460
30382W        W89676  22.252  23.159  14.824
30383W        W89677   0.351  33.557   3.840
30384W        W89678  25.124  14.315   1.397
30385W        W89679  40.982  35.861  10.629
30386W        W89680  42.030  28.011  12.075
30387W        W89681  38.065  28.563  12.572
30388W        W89682  44.314  32.602   1.395
30389W        W89683  36.387  36.573  13.459
30390W        W89684   5.226  33.441   1.304
30391W        W89685  32.911   6.358  13.813
30392W        W89686  10.703  32.057  10.586
30393W        W89687  26.607  43.953   2.765
30394W        W89688  31.436  15.776  13.994
30395W        W89689  22.154   1.287  14.839
30396W        W89690   4.797  15.798  14.895
30397W        W89691   6.694  12.844   2.884
30398W        W89692   1.361  29.160   1.250
30399W        W89693   3.878  16.137  10.934
30400W        W89694  25.563  36.047   1.433
30401W        W89695  35.890  30.082   1.423
30402W        W89696  42.785  13.130  11.120
30403W        W89697  14.127  19.596  12.906
30404W        W89698  35.379  16.079  13.896
30405W        W89699  24.589  13.194  11.430
30406W        W89700  41.786   5.438   3.633
30407W        W89701  22.598  35.961   4.289
30408W        W89702  20.116   5.790  14.955
30409W        W89703   6.428  40.821   1.389
30410W        W89704  43.314  32.068  11.978
30411W        W89705  14.109   5.843  14.016
30412W        W89706  12.797  24.005   4.736
30413W        W89707  29.435  13.199  12.371
30414W        W89708   9.811  29.424  12.574
30415W        W89709  44.283  40.492   0.443
30416W        W89710   3.721   2.275   5.263
30417W        W89711  31.954  22.027  12.530
30418W        W89712  19.627  39.948   4.353
30419W        W89713  20.247  17.577  12.847
30420W        W89714  37.557   6.354   2.387
30421W        W89715  43.911  20.034  12.868
30422W        W89716  17.274  43.314   1.430
30423W        W89717  36.897  35.601   2.713
30424W        W89718   7.285  34.918   1.844
30425W        W89719  44.857  27.652   1.772
30426W        W89720   3.866  14.706   2.296
30427W        W89721  37.901  19.537   0.799
30428W        W89722   8.881  11.773   2.327
30429W        W89723  39.541  19.620  12.448
30430W        W89724  35.035  17.073  10.621
30431W        W89725  27.457  32.012   2.270
30432W        W89726  15.128   4.428  12.971
30433W        W89727   0.447  38.890  14.292
30434W        W89728   7.250  33.896  14.439
30435W        W89729  29.056   5.419  10.513
30436W        W89730  32.518  12.672  11.497
30437W        W89731  23.128  23.727   2.896
30438W        W89732   0.355  15.688  13.941
30439W        W89733  17.777  16.209  14.278
30440W        W89734   3.307   6.790  13.064
30441W        W89735  30.118  43.929   0.284
30442W        W89736  21.054  26.990  13.799
30443W        W89737  39.963   2.802   2.887
30444W        W89738  13.288   0.456   4.161
30445W        W89739  44.868  37.351  14.491
30446W        W89740  24.043  35.955   4.323
30447W        W89741  24.510  22.061  13.881
30448W        W89742   7.285  22.533   3.712
30449W        W89743  38.504  14.610  12.943
30450W        W89744   3.789  11.134   1.214
30451W        W89745  12.129  44.913   3.848
30452W        W89746  21.171   7.911   1.795
30453W        W89747  30.113  28.522   0.735
30454W        W89748  31.949  30.090  12.027
30455W        W89749  44.904   4.241  14.795
30456W        W89750  11.247  22.723   4.656
30457W        W89751  42.310  22.114   3.167
30458W        W89752  35.573  40.017  13.886
30459W        W89753   7.851  11.140   3.307
30460W        W89754  31.112  41.426  13.910
30461W        W89755  11.132  40.471  13.991
30462W        W89756  39.550  32.479   2.359
30463W        W89757  13.220   3.956  12.010
30464W        W89758   8.294  20.141  13.797
30465W        W89759  21.748  28.648   0.758
30466W        W89760  37.448  23.058   2.397
30467W        W89761  18.559  29.105   1.267
30468W        W89762  40.811  25.137   5.207
30469W        W89763  15.717  20.086   2.686
30470W        W89764  26.558  41.531  13.529
30471W        W89765   4.217  18.260  11.043
30472W        W89766   1.759  30.946  14.943
30473W        W89767  35.034   0.306   4.207
30474W        W89768  22.711  32.468   4.704
30475W        W89769  16.246  17.230   5.790
30476W        W89770  16.787  38.542  11.562
30477W        W89771  15.197  29.923   4.746
30478W        W89772  23.708   2.450   0.353
30479W        W89773   2.847  17.733   2.369
30480W        W89774   9.324  33.547   0.874
30481W        W89775  37.451  17.285  14.911
30482W        W89776  21.728  30.979   3.679
30483W        W89777  30.912  24.115   3.648
30484W        W89778   8.345  40.437   2.822
30485W        W89779  14.187  13.179   0.435
30486W        W89780  36.526   0.887  12.498
30487W        W89781  36.529  37.478  14.319
30488W        W89782   5.886  20.733  11.884
30489W        W89783  30.427  40.004   0.386
30490W        W89784  24.039   3.875   1.892
30491W        W89785  37.555  42.967   2.340
30492W        W89786  25.051  11.239  13.911
30493W        W89787   4.436  27.968  11.594
30494W        W89788   0.390  44.002   3.152
30495W        W89789  37.389  32.502   4.660
30496W        W89790  25.992  37.003  12.048
30497W        W89791  41.040  35.009  10.499
30498W        W89792  27.976  22.172   1.880
30499W        W89793  17.069  27.562  10.562
30500W        W89794  21.758  24.102   3.639
30501W        W89795  13.227   2.966   3.223
30502W        W89796   2.788  32.892  12.468
30503W        W89797  13.314   4.343   2.727
30504W        W89798  27.629  42.325  12.863
30505W        W89799  13.765  32.418   2.674
30506W        W89800  21.727  15.106  14.785
30507W        W89801  15.168  29.580  12.046
30508W        W89802  19.586  34.960   3.349
30509W        W89803  26.632  40.050   1.388
30510W        W89804   1.315  30.987  13.908
30511W        W89805  43.891  36.034  13.053
30512W        W89806  43.505  13.260  13.961
30513W        W89807  40.449   5.745  14.385
30514W        W89808  30.027  22.526  14.358
30515W        W89809   8.828  43.959  14.369
30516W        W89810  11.255  34.064   2.321
30517W        W89811  36.477  26.046  12.832
30518W        W89812  41.847  28.134   3.288
30519W        W89813   7.229  38.843  10.633
30520W        W89814   4.836  13.188  12.837
30521W        W89815  21.566  44.784   4.744
30522W        W89816  28.558  44.951   3.640
30523W        W89817   3.788  40.800   4.309
30524W        W89818   2.245  26.503   5.125
30525W        W89819  39.836  42.293  12.913
30526W        W89820  22.716   5.697  12.901
30527W        W89821  23.041  43.466   2.663
30528W        W89822   7.208  26.142  11.108
30529W        W89823  40.896  29.552   2.669
30530W        W89824  39.948  29.575  14.846
30531W        W89825  23.542  27.619   4.250
30532W        W89826  42.422  15.633  11.117
30533W        W89827  21.262   6.230   3.819
30534W        W89828  26.986  27.581  14.405
30535W        W89829  23.710  43.425  14.385
30536W        W89830  41.983  25.665  10.478
30537W        W89831   0.251  35.975   1.748
30538W        W89832  33.904  43.765   0.468
30539W        W89833  22.114  22.078   1.819
30540W        W89834  19.085  40.921   3.261
30541W        W89835  18.123  21.213  11.009
30542W        W89836   1.462   9.384  10.503
30543W        W89837  35.943   0.451   4.352
30544W        W89838  30.625  40.993  14.335
30545W        W89839   2.367  34.489   4.726
30546W        W89840   1.857   2.884   4.186
30547W        W89841  41.786   9.204  12.823
30548W        W89842  39.972  24.533  12.526
30549W        W89843  19.251   6.799   4.754
30550W        W89844   8.694  28.069   5.183
30551W        W89845  41.359   3.932   3.154
30552W        W89846  19.637  42.921  12.019
30553W        W89847  43.895  30.002  13.347
30554W        W89848  24.099  40.039   1.312
30555W        W89849  12.666  12.622  11.463
30556W        W89850  30.925  39.981  14.798
30557W        W89851   5.382  15.221  12.391
30558W        W89852   5.212  32.422  12.369
30559W        W89853  25.697   2.366   4.707
30560W        W89854  34.999  32.627   4.149
30561W        W89855  39.355  16.623  14.895
30562W        W89856  33.501   5.862   0.444
30563W        W89857  11.654   1.916   1.433
30564W        W89858  25.554  26.571  14.341
30565W        W89859   1.276  40.038  11.924
30566W        W89860  29.534  21.200   0.813
30567W        W89861  17.729  21.153   2.305
30568W        W89862  15.618   6.217   2.251
30569W        W89863  23.205  19.575  13.360
30570W        W89864   6.426  22.020   9.933
30571W        W89865  10.664  17.625   4.307
30572W        W89866   1.745  23.988  13.369
30573W        W89867  19.112  19.704   2.309
30574W        W89868  25.600  16.705   0.467
30575W        W89869  15.242  28.086  10.924
30576W        W89870   3.283  29.451   2.405
30577W        W89871  27.590   0.378   3.350
30578W        W89872   2.260  36.852   3.664
30579W        W89873  19.131  15.314  14.028
30580W        W89874  27.958  19.122  10.532
30581W        W89875  40.933  37.475  11.906
30582W        W89876  22.064  19.041   4.186
30583W        W89877  23.130  37.003  13.480
30584W        W89878  11.139  16.200   0.455
30585W        W89879  35.093  25.544  14.938
30586W        W89880  26.073  13.629  11.026
30587W        W89881  22.169   0.491   1.316
30588W        W89882   1.237   3.858  12.997
30589W        W89883  29.625  18.569   2.347
30590W        W89884  14.340  34.466   2.866
30591W        W89885   7.820   4.375  13.338
30592W        W89886   6.318   0.822  11.865
30593W        W89887  15.321   6.384  12.411
30594W        W89888  25.503  20.200  13.373
30595W        W89889  39.510  15.230   3.806
30596W        W89890  17.288  39.536   3.196
30597W        W89891  34.379  34.978  14.389
30598W        W89892  11.148  31.517  13.931
30599W        W89893   9.771  18.294   2.343
30600W        W89894  21.538  23.217  13.002
30601W        W89895  44.356  32.540   2.843
30602W        W89896  13.837   9.169   2.180
30603W        W89897  21.715  32.127   4.816
30604W        W89898  13.233  44.884  10.421
30605W        W89899  39.453  10.383  13.497
30606W        W89900  27.990  21.085   4.346
30607W        W89901  42.845  35.099  11.036
30608W        W89902  17.725  32.505  10.906
30609W        W89903  30.147  28.024   2.730
30610W        W89904  44.270  17.558   4.292
30611W        W89905  26.658   9.153   1.881
30612W        W89906  29.523  35.087   3.268
30613W        W89907  13.693  19.193  14.392
30614W        W89908  20.155  36.928   4.661
30615W        W89909  23.164  36.422  13.816
30616W        W89910  37.885  11.130  11.410
30617W        W89911   1.482  36.553   2.398
30618W        W89912   0.856  41.361   3.739
30619W        W89913  15.720  14.802   1.230
30620W        W89914   2.886  15.140   2.793
30621W        W89915  25.519  28.498   0.269
30622W        W89916  44.488  18.717  10.043
30623W        W89917  42.355  19.540   2.215
30624W        W89918  41.385  18.570   0.269
30625W        W89919  41.019  44.394   4.201
30626W        W89920  31.492  32.964   4.255
30627W        W89921  17.105  36.461   0.728
30628W        W89922  14.325  16.744   3.846
30629W        W89923  11.136  16.778  13.452
30630W        W89924   4.346  29.094   4.805
30631W        W89925  21.052  26.172  13.376
30632W        W89926  37.474  22.033   4.700
30633W        W89927  44.870  15.597   2.253
30634W        W89928  35.052  33.532  14.838
30635W        W89929   6.765  17.558   0.403
30636W        W89930  26.161  32.984   0.911
30637W        W89931  15.094  35.539  11.484
30638W        W89932  17.064  24.575  14.322
30639W        W89933  32.912  11.738   5.118
30640W        W89934  35.866  15.308  14.421
30641W        W89935  36.448  21.703   2.681
30642W        W89936  29.606  23.224   0.242
30643W        W89937  38.545  40.923   4.653
30644W        W89938  27.687  44.349  12.373
30645W        W89939  11.361  36.438   3.801
30646W        W89940  17.229  38.982  12.991
30647W        W89941  25.584  21.245  10.918
30648W        W89942  15.712  36.988  11.890
30649W        W89943   9.729   4.382  11.083
30650W        W89944  31.136  13.274  13.443
30651W        W89945   6.307  42.991  12.545
30652W        W89946  13.227  29.085  10.997
30653W        W89947  42.327  33.949  11.065
30654W        W89948   7.345  21.526   3.343
30655W        W89949  42.010  29.137  11.483
30656W        W89950  38.820  17.238   4.599
30657W        W89951   0.759   2.820   3.661
30658W        W89952  16.192   1.773   3.221
30659W        W89953  15.227  37.420  10.975
30660W        W89954  13.327   8.725   0.748
30661W        W89955  44.333   3.916  12.506
30662W        W89956  21.585   1.394  12.498
30663W        W89957  35.921  20.148  12.427
30664W        W89958  38.876  17.291   3.353
30665W        W89959  22.159  26.512   2.863
30666W        W89960  20.616  27.579  14.856
30667W        W89961   7.853  40.458  14.485
30668W        W89962  12.710  32.447   2.355
30669W        W89963  36.926  22.241   2.248
30670W        W89964  42.378   1.912  13.014
30671W        W89965  20.070  44.925  14.809
30672W        W89966  41.403  23.171  13.469
30673W        W89967  39.425  13.799  12.908
30674W        W89968  29.161  15.802   1.912
30675W        W89969  21.538  17.225   1.726
30676W        W89970  18.156  28.573  13.379
30677W        W89971  23.006   4.333   1.336
30678W        W89972  28.050  34.889   3.717
30679W        W89973  27.978   8.867  14.953
30680W        W89974  21.170  30.477  10.087
30681W        W89975   6.311  14.622  12.493
30682W        W89976  23.985  16.762   0.781
30683W        W89977  27.165  17.144  12.483
30684W        W89978  35.109  10.350  14.856
30685W        W89979  11.184  20.128   2.684
30686W        W89980   9.748  44.848  13.807
30687W        W89981  11.669  35.962   9.943
30688W        W89982  13.271  11.733   9.547
30689W        W89983   2.380  27.027  11.991
30690W        W89984  35.073   5.436   0.765
30691W        W89985  15.180   9.277  12.552
30692W        W89986  29.043  39.941   0.470
30693W        W89987  12.311  25.698   3.727
30694W        W89988  37.396   5.920  13.988
30695W        W89989  41.844  24.517   0.436
30696W        W89990  34.539  10.194   1.355
30697W        W89991  19.276   6.306   0.380
30698W        W89992  29.948   8.654  13.832
30699W        W89993  13.749  44.772  12.086
30700W        W89994  27.955   8.274  14.354
30701W        W89995   1.746   7.826   2.381
30702W        W89996  33.068  15.242   4.815
30703W        W89997  38.015  32.456  14.467
30704W        W89998   4.449  44.267  11.961
30705W        W89999  13.769  23.509  12.981
30706W        W90000  41.863   4.324   2.412
30707W        W90001  28.523  23.673   1.375
30708W        W90002   9.160  14.295  13.004
30709W        W90003  25.039  20.227  14.937
30710W        W90004  41.462  37.340  10.075
30711W        W90005  42.436  23.221  13.035
30712W        W90006  15.799  15.119   4.823
30713W        W90007  20.059  34.491   3.792
30714W        W90008  26.468  42.290   4.715
30715W        W90009  22.651  33.099  10.917
30716W        W90010  42.464  13.308   3.829
30717W        W90011  43.917  10.330  12.017
30718W        W90012  22.136  20.091   1.789
30719W        W90013  36.999  43.853  12.014
30720W        W90014   0.805  26.517   0.297
30721W        W90015  14.671  14.738  11.375
30722W        W90016  40.974   1.929  13.390
30723W        W90017  44.461  23.639  11.373
30724W        W90018   0.864  26.616   1.402
30725W        W90019  26.177  12.286   3.718
30726W        W90020  33.449  44.410  14.360
30727W        W90021   8.272  27.108   3.763
30728W        W90022  35.422   6.346  12.367
30729W        W90023   9.774   7.280  14.326
30730W        W90024  17.571  33.449   0.775
30731W        W90025  31.096  25.681  14.369
30732W        W90026  21.043   4.727   3.319
30733W        W90027  18.172  41.456   0.737
30734W        W90028  36.550  34.484   3.782
30735W        W90029   7.720  31.958  12.348
30736W        W90030   3.890  22.659  11.506
30737W        W90031  30.105  12.176   4.798
30738W        W90032  18.723  25.088  12.452
30739W        W90033  28.676  30.619  14.354
30740W        W90034  38.041  39.427   2.219
30741W        W90035   8.782  32.603  11.100
30742W        W90036  19.184  31.438  12.566
30743W        W90037  30.566  39.863  14.891
30744W        W90038  26.646  19.592  10.415
30745W        W90039   4.263  14.753  12.012
30746W        W90040  42.777  27.033   0.774
30747W        W90041  39.907  37.530   0.247
30748W        W90042  43.867  36.914   4.257
30749W        W90043  26.577  35.576  12.967
30750W        W90044  10.138  14.172  14.381
30751W        W90045  11.671  11.623   5.199
30752W        W90046   0.943   0.333   9.940
30753W        W90047  25.696  33.888  14.286
30754W        W90048  39.552   7.799   2.188
30755W        W90049  27.587  38.546  14.348
30756W        W90050   5.825   9.792  12.409
30757W        W90051   5.350   9.763  10.932
30758W        W90052   3.436   8.357  14.505
30759W        W90053  29.537  26.193   0.270
30760W        W90054  23.019  27.021  12.469
30761W        W90055  41.934   2.869   0.306
30762W        W90056   1.265   7.206  12.505
30763W        W90057  15.764  42.918   4.286
30764W        W90058  35.983  14.284  11.497
30765W        W90059  30.563  11.195   4.282
30766W        W90060  39.487  33.067   2.879
30767W        W90061  22.248  35.917   2.216
30768W        W90062  28.995  33.051   3.690
30769W        W90063  21.545   6.694   4.122
30770W        W90064  27.467  17.562  11.561
30771W        W90065  36.009  33.911  12.430
30772W        W90066   6.344  24.029   3.240
30773W        W90067  31.588  29.112   0.785
30774W        W90068  17.079   5.794   1.262
30775W        W90069   0.753   1.463  13.859
30776W        W90070  11.161  21.032  12.003
30777W        W90071  27.500  22.194   3.741
30778W        W90072  11.862  11.694  14.761
30779W        W90073  36.572  33.121   3.205
30780W        W90074   5.327  33.057  13.818
30781W        W90075   6.236  34.485   4.802
30782W        W90076   2.952  30.985  11.104
30783W        W90077   7.674  13.699   1.845
30784W        W90078  25.553  16.598  11.483
30785W        W90079   4.776   9.384  10.482
30786W        W90080   2.965   0.405   3.256
30787W        W90081  32.040  29.029  14.000
30788W        W90082  35.490  12.181   4.647
30789W        W90083  36.058   2.821  13.509
30790W        W90084  18.164   6.195   1.778
30791W        W90085  40.013  25.626   1.915
30792W        W90086  17.607  24.658  11.128
30793W        W90087  10.202  29.056   2.714
30794W        W90088  38.496  19.534  13.496
30795W        W90089  20.665  32.920   0.835
30796W        W90090  44.887  17.565  13.324
30797W        W90091  21.550   9.284  13.515
30798W        W90092  15.635  42.847  14.777
30799W        W90093  24.646  21.602   0.958
30800W        W90094  18.095  39.426  13.050
30801W        W90095  28.552  37.552   5.190
30802W        W90096  22.736   5.265   0.757
30803W        W90097  13.845  36.943  14.307
30804W        W90098  28.444  15.282  13.470
30805W        W90099  30.968   0.762  14.826
30806W        W90100  32.941  15.631   2.701
30807W        W90101  10.378   6.306   1.412
30808W        W90102  25.136  32.046  12.040
30809W        W90103   0.262   5.742  12.536
30810W        W90104  30.142   7.667  11.579
30811W        W90105  14.335  16.647   1.733
30812W        W90106  18.558  14.256  11.885
30813W        W90107  43.019  24.568  12.343
30814W        W90108  34.019  29.993  13.886
30815W        W90109  12.274  33.510   4.229
30816W        W90110  31.539  21.085  12.005
30817W        W90111  28.065  19.628   1.743
30818W        W90112  19.107  10.287   9.968
30819W        W90113   2.256  31.094   1.285
30820W        W90114  29.994  21.060   1.286
30821W        W90115  36.860   9.765  13.953
30822W        W90116  22.652  12.690   1.244
30823W        W90117  34.460  18.762   1.853
30824W        W90118  13.732  20.101  11.025
30825W        W90119  31.137  23.619   0.294
30826W        W90120  10.827  40.898   4.329
30827W        W90121  10.837   6.692  14.768
30828W        W90122  44.850  14.692  14.793
30829W        W90123  15.236  44.266  14.470
30830W        W90124   9.320   3.225   0.280
30831W        W90125  35.985   8.351   2.808
30832W        W90126  42.885  29.116   4.688
30833W        W90127  22.077  40.836  11.027
30834W        W90128  39.493  32.033  12.436
30835W        W90129  41.942   6.770   2.353
30836W        W90130  13.681   3.774   4.247
30837W        W90131  37.355  44.398   2.300
30838W        W90132   7.231  19.613   4.261
30839W        W90133  34.612  37.379  14.990
30840W        W90134  42.944  26.063  11.454
30841W        W90135  19.046  41.983  13.964
30842W        W90136  31.552  23.190  14.485
30843W        W90137  16.566  36.488  10.404
30844W        W90138  37.356  44.924  13.866
30845W        W90139  27.144  30.564   2.752
30846W        W90140   4.280  11.711   3.176
30847W        W90141   7.736   1.472   0.357
30848W        W90142   1.861  23.687  11.037
30849W        W90143  42.817  16.645  11.471
30850W        W90144  22.718  22.712   2.263
30851W        W90145  40.416   3.850  14.469
30852W        W90146  13.206   5.362  11.577
30853W        W90147  30.607  11.288  10.540
30854W        W90148  40.997  37.347  10.611
30855W        W90149  29.087   4.875   1.855
30856W        W90150   7.840  24.053   1.846
30857W        W90151  40.525  15.318  12.892
30858W        W90152  14.617  39.326  12.382
30859W        W90153  44.781  24.178  12.430
30860W        W90154  12.638  10.337   4.728
30861W        W90155  17.731  17.114  10.110
30862W        W90156  16.590  21.584  10.640
30863W        W90157   2.350  25.607  12.559
30864W        W90158   6.379   0.985   1.876
30865W        W90159  14.712  31.414   4.325
30866W        W90160  22.587  28.601  14.931
30867W        W90161  36.058  31.026   0.340
30868W        W90162  14.173   1.439   1.926
30869W        W90163   6.232  33.930   1.916
30870W        W90164  32.516  38.859  10.466
30871W        W90165   2.255   3.757   1.297
30872W        W90166  15.148  38.902  11.609
30873W        W90167  24.064   5.824  13.842
30874W        W90168  38.049  27.525   3.673
30875W        W90169  20.040  32.099   0.464
30876W        W90170  14.166   0.343  13.801
30877W        W90171  36.517   3.735   4.621
30878W        W90172   3.921  19.770   4.139
30879W        W90173  19.250   6.895  12.824
30880W        W90174  10.673  16.636  12.992
30881W        W90175  11.721  35.893   0.826
30882W        W90176  15.201  10.685   0.904
30883W        W90177  29.951  43.946  14.370
30884W        W90178  22.167  36.554   0.441
30885W        W90179  21.180   1.278  11.939
30886W        W90180   0.392   2.273  12.837
30887W        W90181  43.506  22.666  13.313
30888W        W90182   5.852  26.481   1.725
30889W        W90183  32.930  30.544   3.838
30890W        W90184  22.029   1.937   2.708
30891W        W90185  26.509  19.200  10.493
30892W        W90186  28.457  39.869   1.933
30893W        W90187  33.994   4.771  12.904
30894W        W90188  11.663  25.524  10.446
30895W        W90189  11.653  16.271   4.227
30896W        W90190  11.806   7.879  10.534
30897W        W90191  42.373  40.452  13.448
30898W        W90192  32.003  37.874   1.897
30899W        W90193  35.591  27.049  10.568
30900W        W90194  22.712  36.567  11.553
30901W        W90195  10.667   2.818   3.749
30902W        W90196  31.924  14.790   3.863
30903W        W90197  10.151  24.717   1.253
30904W        W90198  28.166   9.181   3.249
30905W        W90199  19.587  40.030   3.829
30906W        W90200  34.487  38.493   3.169
30907W        W90201  38.381  29.464  11.426
30908W        W90202   0.293  38.910   2.208
30909W        W90203  43.829   2.235   2.308
30910W        W90204  30.912   4.312   4.281
30911W        W90205   8.869  25.100  13.999
30912W        W90206  37.554   9.825   0.254
30913W        W90207  44.768  34.992   3.256
30914W        W90208  39.920  20.752   1.252
30915W        W90209   9.200  40.809   1.281
30916W        W90210  10.720   6.778   0.419
30917W        W90211   4.845  38.461  14.965
30918W        W90212   3.374  40.797   4.712
30919W        W90213  30.624  18.183   3.722
30920W        W90214  16.652  14.277  11.531
30921W        W90215   7.334  15.150   1.867
30922W        W90216  25.998  12.281  13.044
30923W        W90217  26.960  33.474  10.496
30924W        W90218  28.572  28.159   2.291
30925W        W90219  32.493   5.821  10.459
30926W        W90220   2.873  42.811  13.307
30927W        W90221   6.335   4.882  11.875
30928W        W90222  39.939   3.327   3.708
30929W        W90223  15.704   3.289  10.404
30930W        W90224  13.785   1.442  13.459
30931W        W90225   9.283   2.244   2.757
30932W        W90226   6.335  15.589   0.367
30933W        W90227  26.637  31.012   0.307
30934W        W90228  41.034  33.921   5.218
30935W        W90229   0.886  17.124   0.921
30936W        W90230  14.605  30.443  13.974
30937W        W90231  38.336  26.980   2.389
30938W        W90232  11.246  33.598   9.490
30939W        W90233  35.915  24.154  14.014
30940W        W90234  14.797  21.721   3.827
30941W        W90235  35.549   8.697   4.288
30942W        W90236  34.061  29.001  14.438
30943W        W90237  40.007  44.940   2.880
30944W        W90238   8.192  26.665   0.906
30945W        W90239   4.775  18.057  11.473
30946W        W90240  26.206  18.597   4.142
30947W        W90241  28.938   8.265   3.187
30948W        W90242   6.869   4.850  10.947
30949W        W90243  37.031  18.237  13.803
30950W        W90244  23.061  14.253   4.281
30951W        W90245  20.614  32.414   3.837
30952W        W90246  11.340  41.452   3.339
30953W        W90247  42.425  41.838   3.358
30954W        W90248  43.475  10.855  14.858
30955W        W90249  33.934   9.749  14.303
30956W        W90250  10.347  16.787   0.324
30957W        W90251  40.028   8.279   0.893
30958W        W90252  39.881  21.140  12.538
30959W        W90253  12.807  14.801   1.698
30960W        W90254  33.436  30.037  11.026
30961W        W90255   5.730   4.229  11.524
30962W        W90256  29.992  23.162   0.734
30963W        W90257  15.814  24.695   2.786
30964W        W90258  26.594  29.648  10.888
30965W        W90259   1.268  29.661   1.785
30966W        W90260   4.439   4.931   3.185
30967W        W90261   4.862   2.286  12.938
30968W        W90262  35.463  32.577   4.341
30969W        W90263  15.119  44.777   1.313
30970W        W90264  36.906  44.828   4.711
30971W        W90265  18.093   5.261   4.256
30972W        W90266   6.283  27.987  12.962
30973W        W90267  41.883  37.390  10.609
30974W        W90268  22.206  38.058  12.850
30975W        W90269  38.425  35.097   3.358
30976W        W90270  13.303  35.381   4.174
30977W        W90271  37.533  20.170   3.229
30978W        W90272   6.736  28.673  11.986
30979W        W90273  24.533  21.245   1.778
30980W        W90274  12.697  29.959  14.007
30981W        W90275   9.333  29.526   3.172
30982W        W90276   5.707  34.522   0.902
30983W        W90277   5.819  18.699  10.928
30984W        W90278  38.542  24.641   0.962
30985W        W90279   4.291  32.437  14.888
30986W        W90280   5.709   5.393   2.258
30987W        W90281   6.396   7.897   3.665
30988W        W90282  38.336  16.306   2.706
30989W        W90283  43.977   0.898  13.032
30990W        W90284  29.503  23.729   1.868
30991W        W90285  11.835  26.598  11.974
30992W        W90286  43.471   1.843   1.792
30993W        W90287  35.489  19.208   3.725
30994W        W90288  37.909  15.262   0.462
30995W        W90289   2.381  22.550  14.446
30996W        W90290  43.839   3.712   0.383
30997W        W90291  42.498  10.310  11.474
30998W        W90292   3.726  22.215   4.747
30999W        W90293  43.330  33.009   4.139
31000W        W90294  34.893  37.457   0.412
31001W        W90295  16.171   2.798  10.987
31002W        W90296  40.531   7.666  10.406
31003W        W90297   9.241   4.287   2.812
31004W        W90298  34.598  28.625  11.442
31005W        W90299  19.735  39.861   3.179
31006W        W90300  28.492  32.442   2.296
31007W        W90301   1.792  38.555   2.739
31008W        W90302  38.017  44.409   4.637
31009W        W90303  35.937  15.637   1.307
31010W        W90304  13.837  37.065   2.411
31011W        W90305   4.240  25.189   0.385
31012W        W90306  22.191  17.634   3.685
31013W        W90307  13.680  11.275   2.326
31014W        W90308  31.986  25.708  12.420
31015W        W90309  28.941  17.306   2.865
31016W        W90310  21.687  39.404   3.287
31017W        W90311   1.301  37.418   0.462
31018W        W90312  18.763  11.326   2.691
31019W        W90313  41.872   1.949  14.946
31020W        W90314   2.413   7.234  12.476
31021W        W90315   8.403  42.511   4.340
31022W        W90316  40.459  32.392   5.170
31023W        W90317  37.347  21.192   2.378
31024W        W90318  35.056  20.143   2.221
31025W        W90319   6.860  11.626   4.642
31026W        W90320  15.175  40.822  10.531
31027W        W90321  21.230  14.231   2.386
31028W        W90322  28.509   6.309  14.506
31029W        W90323  25.991   7.354  10.525
31030W        W90324  33.880  36.033  10.513
31031W        W90325  18.197  29.454   1.239
31032W        W90326  22.192  39.399  13.397
31033W        W90327  19.150  32.409  10.519
31034W        W90328  36.363  41.292  14.765
31035W        W90329   9.262   0.388   0.382
31036W        W90330  10.206  25.150   4.272
31037W        W90331   0.426  40.524   4.768
31038W        W90332   5.258  24.634  11.501
31039W        W90333  25.625  13.336   4.174
31040W        W90334  31.112  42.920  14.447
31041W        W90335  23.627  26.547   3.827
31042W        W90336  30.524   2.904   4.812
31043W        W90337  23.643  26.532  10.463
31044W        W90338   2.371   9.349   2.878
31045W        W90339  15.618  37.000  12.487
31046W        W90340  25.666  26.502  13.058
31047W        W90341  32.394  17.770   2.352
31048W        W90342  30.602  10.774   4.160
31049W        W90343  25.184   0.938   3.355
31050W        W90344  35.591   8.294   1.223
31051W        W90345  34.571  14.186   3.360
31052W        W90346  16.618  32.509  12.076
31053W        W90347  15.320  31.046   1.435
31054W        W90348  40.527  10.373  11.024
31055W        W90349   9.855  21.142  11.925
31056W        W90350  18.174  10.770  10.455
31057W        W90351  33.875   3.897   1.398
31058W        W90352   8.812  12.193  12.020
31059W        W90353  36.484   2.872  11.096
31060W        W90354  35.454  21.243   0.444
31061W        W90355  22.737  40.366  11.393
31062W        W90356   4.422  37.361   4.835
31063W        W90357   6.750   1.404  12.001
31064W        W90358  35.015  39.821  13.976
31065W        W90359   1.912  13.729  12.458
31066W        W90360  11.307  34.419  11.896
31067W        W90361   0.863  38.537  10.004
31068W        W90362  29.927  13.139   4.751
31069W        W90363  17.114  10.670   4.300
31070W        W90364  18.654  10.355  12.042
31071W        W90365  36.959  35.508  13.036
31072W        W90366  44.773  24.122   0.275
31073W        W90367  42.301  17.619  13.809
31074W        W90368  10.139  14.794   3.386
31075W        W90369  29.497  37.345   4.833
31076W        W90370   9.150  13.799   3.354
31077W        W90371  22.237  33.131  12.932
31078W        W90372  23.560  13.838   0.482
31079W        W90373   6.909  17.181   1.427
31080W        W90374  25.533  11.725  12.469
31081W        W90375   6.760  38.900   3.195
31082W        W90376  16.240  43.772  13.519
31083W        W90377  21.637  11.342  11.559
31084W        W90378  25.052   1.382  12.024
31085W        W90379  27.489   0.853  13.018
31086W        W90380  38.457   7.854   5.108
31087W        W90381  28.643  40.419   3.272
31088W        W90382  39.818  23.609  12.538
31089W        W90383  10.789  26.009   2.852
31090W        W90384   4.450  23.668   0.334
31091W        W90385  35.377  15.143  13.059
31092W        W90386  40.858  32.580   4.711
31093W        W90387   7.814  27.990  11.028
31094W        W90388  43.866   8.200  12.563
31095W        W90389  36.414  26.989  12.005
31096W        W90390  31.058  24.089   2.216
31097W        W90391  31.507   6.908   0.910
31098W        W90392  35.371   4.812  12.477
31099W        W90393  14.163  29.552  13.905
31100W        W90394  39.417  20.064   1.851
31101W        W90395  25.498  33.007  11.018
31102W        W90396  34.391  29.566  14.374
31103W        W90397  35.040   9.382   1.387
31104W        W90398   1.923   3.947  12.395
31105W        W90399  24.538  31.072  12.564
31106W        W90400  12.716  33.985   9.478
31107W        W90401  35.998  25.213   1.701
31108W        W90402   7.329   1.856  12.382
31109W        W90403  24.162  24.142   4.617
31110W        W90404  16.640  34.057   0.912
31111W        W90405   0.428   6.791  14.353
31112W        W90406  14.710  32.510  11.400
31113W        W90407   4.370  15.818  10.502
31114W        W90408  12.232  23.033  13.535
31115W        W90409  15.601  33.045   3.780
31116W        W90410  24.534   0.361   2.807
31117W        W90411   6.184  34.528   3.236
31118W        W90412   1.818  40.491  13.916
31119W        W90413  13.134   0.355  14.322
31120W        W90414  37.880  42.937   2.734
31121W        W90415  35.901  31.033   1.874
31122W        W90416   6.816  10.879   0.304
31123W        W90417  20.041   5.268  11.565
31124W        W90418  32.994  27.058   2.381
31125W        W90419   4.719  37.399  13.437
31126W        W90420  19.746  17.101  13.016
31127W        W90421  14.259  21.043   0.874
31128W        W90422  21.065   3.283  12.058
31129W        W90423   6.226   9.348   3.378
31130W        W90424  10.822  31.641   0.397
31131W        W90425   1.263  21.597   4.625
31132W        W90426  13.268   9.752   0.854
31133W        W90427  16.750  41.527   3.680
31134W        W90428   5.750  13.335   0.785
31135W        W90429   7.340  40.381  11.578
31136W        W90430  13.800  16.773   0.921
31137W        W90431  15.267  41.891   0.469
31138W        W90432  16.601  34.504   2.692
31139W        W90433  31.958  10.236  10.624
31140W        W90434  31.968  11.833   3.196
31141W        W90435   3.372   4.255   4.218
31142W        W90436  34.033   0.913   0.866
31143W        W90437  39.870   2.939   5.238
31144W        W90438  15.259   9.185  10.572
31145W        W90439  29.436  22.124   1.783
31146W        W90440   0.974  36.420   1.846
31147W        W90441   5.714  11.737  12.050
31148W        W90442  38.938  30.458   4.620
31149W        W90443  10.312  32.517  12.071
31150W        W90444  15.766  16.107  10.461
31151W        W90445   5.698  15.626   2.268
31152W        W90446  21.112  18.221   0.807
31153W        W90447  16.240  18.165  12.369
31154W        W90448  31.999  41.531   2.821
31155W        W90449  26.490  11.855  14.776
31156W        W90450  30.481  34.944  11.126
31157W        W90451  44.868  32.555  14.448
31158W        W90452  16.598  15.255   4.197
31159W        W90453   7.210  13.808  11.586
31160W        W90454   9.822  34.592   0.821
31161W        W90455   4.214   1.432  12.089
31162W        W90456  13.197   3.808   0.942
31163W        W90457  30.592  22.129  13.548
31164W        W90458   7.341  37.491   2.839
31165W        W90459   9.663  30.619  14.829
31166W        W90460  24.524  36.397   2.385
31167W        W90461  19.273  27.503  14.282
31168W        W90462  15.320  30.588  11.856
31169W        W90463  15.214  32.572   3.328
31170W        W90464  30.476  19.120  11.885
31171W        W90465   7.688  18.568  11.878
31172W        W90466  22.231   9.272   0.796
31173W        W90467  38.994   3.265   1.703
31174W        W90468  22.228  25.981   0.422
31175W        W90469  28.466   7.722  14.844
31176W        W90470  12.275   7.417   2.892
31177W        W90471  41.963   8.192  10.494
31178W        W90472  27.684  33.382   0.850
31179W        W90473  22.037   0.444  12.077
31180W        W90474   4.763   8.339   2.295
31181W        W90475  44.959   0.366   1.236
31182W        W90476  28.163  36.841  14.939
31183W        W90477  24.147   4.278  10.617
31184W        W90478   4.364   9.699   3.795
31185W        W90479  33.566  21.602   1.890
31186W        W90480   7.239   8.790  13.913
31187W        W90481  29.502  26.469   0.774
31188W        W90482  41.419  41.379   4.648
31189W        W90483  16.127   0.476   4.631
31190W        W90484  33.485  15.263   3.369
31191W        W90485  34.979   1.780   0.313
31192W        W90486  16.605  21.104  12.963
31193W        W90487  27.043  41.322   0.914
31194W        W90488  38.937   3.951  12.547
31195W        W90489  41.424  16.800   2.704
31196W        W90490   5.244  19.280   3.649
31197W        W90491  15.681  33.585   0.330
31198W        W90492  20.219  27.662  14.805
31199W        W90493   3.796  34.552  14.418
31200W        W90494   9.652  32.529   3.322
31201W        W90495   0.840  23.703   4.285
31202W        W90496  13.204  42.357  14.326
31203W        W90497  21.035  35.425  13.470
31204W        W90498  38.852  32.123   0.365
31205W        W90499   2.232  13.734   0.927
31206W        W90500  44.971   5.745  13.378
31207W        W90501   1.822   8.865   2.215
31208W        W90502  36.353  38.941   4.792
31209W        W90503  17.720  43.445   2.884
31210W        W90504  38.999  27.058  13.027
31211W        W90505  10.212  32.011   2.711
31212W        W90506  37.850   5.386  14.884
31213W        W90507  30.607  35.872  12.995
31214W        W90508  34.026  44.489   1.935
31215W        W90509  27.114  21.252   1.893
31216W        W90510  16.261  25.179   2.333
31217W        W90511  24.033  40.362   1.444
31218W        W90512  42.027   0.478  14.012
31219W        W90513   8.198  35.015  12.354
31220W        W90514  42.501  43.978  13.800
31221W        W90515  21.197   1.800   1.308
31222W        W90516  17.743  26.053  12.914
31223W        W90517  43.796   8.662   1.377
31224W        W90518  17.744   1.416   3.804
31225W        W90519  31.963  33.095  10.901
31226W        W90520  17.776  28.497  13.051
31227W        W90521   3.810  30.055   4.246
31228W        W90522  32.002  11.196   1.429
31229W        W90523   4.742  25.683   4.731
31230W        W90524  15.161  30.953   2.258
31231W        W90525   1.767  37.852  12.037
31232W        W90526  14.784   7.297  10.534
31233W        W90527  10.284  35.380  12.020
31234W        W90528   7.269  17.246   4.682
31235W        W90529  33.008   6.357  11.088
31236W        W90530  18.694  23.627  13.548
31237W        W90531  34.880  40.491   3.185
31238W        W90532  21.669  38.476  10.977
31239W        W90533  13.295  34.614   1.281
31240W        W90534   4.724  24.558  14.277
31241W        W90535  38.431  32.593  12.551
31242W        W90536   1.900  30.059   2.324
31243W        W90537   7.690   0.908  11.088
31244W        W90538  39.396  18.222   3.681
31245W        W90539   2.919   0.866  12.999
31246W        W90540  26.201  13.330  13.948
31247W        W90541  10.690  32.973  10.991
31248W        W90542  30.975  28.635  13.915
31249W        W90543  42.826  30.585   2.831
31250W        W90544  21.641  32.103   1.360
31251W        W90545   5.230  17.193   2.853
31252W        W90546  18.691   7.880   2.407
31253W        W90547  41.345  24.202  11.493
31254W        W90548  32.956  43.818   3.332
31255W        W90549  26.142   9.852   1.771
31256W        W90550   7.841  14.152  11.111
31257W        W90551   4.715  16.222   1.870
31258W        W90552  18.157  38.492   2.749
31259W        W90553  41.906  24.977   2.683
31260W        W90554  29.097  42.485  13.503
31261W        W90555  10.149  34.532  13.060
31262W        W90556   1.802   2.280   5.572
31263W        W90557  23.049  35.109   2.826
31264W        W90558  11.237  40.970   3.166
31265W        W90559   8.325  43.376  14.344
31266W        W90560   9.743  33.889   4.158
31267W        W90561  43.333  25.482  14.400
31268W        W90562  20.723   4.340  10.895
31269W        W90563  29.574   5.336  14.436
31270W        W90564   1.290  11.210   0.470
31271W        W90565  34.942  18.219  10.592
31272W        W90566  20.651   2.342   2.741
31273W        W90567   5.242  33.602  12.551
31274W        W90568  39.343  42.409   0.920
31275W        W90569  21.524  34.063  12.396
31276W        W90570  30.955  39.402  14.760
31277W        W90571   6.209  26.202  10.917
31278W        W90572  10.784  28.991  10.919
31279W        W90573  38.428   4.798  11.047
31280W        W90574  24.574  40.367  14.286
31281W        W90575  41.832   1.821   5.665
31282W        W90576  20.664  34.402   4.251
31283W        W90577   2.342  14.129   1.310
31284W        W90578   7.267  36.396  14.490
31285W        W90579   4.437  27.166  12.453
31286W        W90580   7.408  16.137  12.951
31287W        W90581  30.986   7.213  12.046
31288W        W90582  31.925   6.740  10.931
31289W        W90583   5.823  29.106   4.761
31290W        W90584   2.387  30.988  12.542
31291W        W90585   5.394  12.228   2.312
31292W        W90586  36.399   4.378   0.818
31293W        W90587  38.371  15.586  14.938
31294W        W90588  10.657  27.048  14.293
31295W        W90589  38.508  21.725   1.724
31296W        W90590  24.202  31.474   4.167
31297W        W90591  22.068  12.694   0.253
31298W        W90592   1.810  31.430   4.236
31299W        W90593  25.567  41.873   3.211
31300W        W90594  13.219  25.997   4.690
31301W        W90595  28.489  13.258   1.249
31302W        W90596  16.249  39.449  13.373
31303W        W90597   1.439  42.516  14.888
31304W        W90598  23.005  11.351  12.465
31305W        W90599  37.931  15.301  11.586
31306W        W90600   5.224  28.123  11.963
31307W        W90601   6.896  42.024   4.618
31308W        W90602   9.233  43.895  12.908
31309W        W90603   6.382  34.913  12.081
31310W        W90604  24.649  22.679   2.899
31311W        W90605  39.029   0.797   4.195
31312W        W90606   8.787  10.154   3.358
31313W        W90607  41.908   8.900  11.426
31314W        W90608  13.782  15.643   4.615
31315W        W90609   7.184  24.216  14.820
31316W        W90610   0.492   8.243   2.671
31317W        W90611  13.250   4.204   4.802
31318W        W90612  13.342   3.446   2.418
31319W        W90613  15.197  26.543  11.042
31320W        W90614   6.829  10.722  11.894
31321W        W90615  36.042  35.370  12.562
31322W        W90616  35.488  15.673  12.378
31323W        W90617   9.253   4.839   0.761
31324W        W90618  28.153  18.224   4.294
31325W        W90619  27.981  23.048   3.637
31326W        W90620  17.767   1.247  13.453
31327W        W90621  28.981  13.617   3.856
31328W        W90622  22.132  27.473  12.528
31329W        W90623  33.960  27.127  12.480
31330W        W90624  17.227  23.120  14.998
31331W        W90625  30.573  35.440   1.300
31332W        W90626  21.046  29.613   0.364
31333W        W90627  39.535  11.227  14.029
31334W        W90628  39.547  37.879   4.137
31335W        W90629  20.054   4.769  10.588
31336W        W90630  21.142  36.015  12.942
31337W        W90631  18.651  35.881   0.962
31338W        W90632  26.038  44.788   4.604
31339W        W90633  27.037  33.601   3.804
31340W        W90634  12.287  16.730   3.311
31341W        W90635  37.572  36.092   5.299
31342W        W90636  35.566  13.133   0.434
31343W        W90637  39.986  24.699   1.328
31344W        W90638   0.289  38.555  11.563
31345W        W90639  19.252  17.303  13.829
31346W        W90640  20.031   1.259   4.697
31347W        W90641  20.585  16.714   4.340
31348W        W90642  12.358  23.202   4.793
31349W        W90643  20.537  14.722   1.336
31350W        W90644  35.593  10.635   1.343
31351W        W90645  15.726  25.069  14.356
31352W        W90646   2.388   1.978   4.126
31353W        W90647  24.224  38.948   2.875
31354W        W90648   1.789  11.808   1.866
31355W        W90649  28.963  23.221   4.269
31356W        W90650  18.182  19.274  14.363
31357W        W90651   9.829  22.592   4.142
31358W        W90652  43.917  23.193   3.727
31359W        W90653  37.848  39.493   5.783
31360W        W90654  44.496   5.892   0.267
31361W        W90655  36.912  32.470  12.560
31362W        W90656   8.220   1.380  10.611
31363W        W90657  23.106  28.489  12.094
31364W        W90658   0.957  23.558  13.506
31365W        W90659  16.734   4.807  14.459
31366W        W90660  42.836   5.325  12.423
31367W        W90661  42.996  38.956  12.863
31368W        W90662   2.850  10.720  13.972
31369W        W90663   9.800   1.354  10.012
31370W        W90664  37.505  12.653   2.295
31371W        W90665  10.675  11.807  12.468
31372W        W90666  29.047  42.458  11.003
31373W        W90667  24.714  32.620  13.346
31374W        W90668  42.965  14.713   1.264
31375W        W90669  27.606  20.651  11.415
31376W        W90670  31.103  16.778  12.426
31377W        W90671  34.982  41.514   1.210
31378W        W90672   1.404  27.476   4.816
31379W        W90673  41.325  33.487  11.092
31380W        W90674  26.616  14.591  13.345
31381W        W90675  14.789  32.619   2.670
31382W        W90676  31.147   1.935  10.095
31383W        W90677  14.333  18.619  14.818
31384W        W90678  15.638  25.138   9.963
31385W        W90679  35.443  24.039   2.798
31386W        W90680   4.812  15.714  13.456
31387W        W90681  11.687  18.260  11.023
31388W        W90682  35.557  19.102   2.696
31389W        W90683  21.147  38.020  11.940
31390W        W90684   0.936   2.302   4.348
31391W        W90685  31.516  38.002  12.095
31392W        W90686  28.972  20.029   1.880
31393W        W90687  41.833  22.588   3.783
31394W        W90688   4.279  21.620  10.454
31395W        W90689  39.887  36.430  13.407
31396W        W90690   8.785  36.028   0.258
31397W        W90691  13.773  22.116   5.185
31398W        W90692   2.418   4.930  12.084
31399W        W90693   0.265   9.752   2.894
31400W        W90694  35.410  33.578   1.889
31401W        W90695  36.039  12.239   0.362
31402W        W90696  21.627  32.988   0.900
31403W        W90697  21.179  16.732   3.761
31404W        W90698  18.150  25.495   3.730
31405W        W90699   4.283  32.483  13.344
31406W        W90700  41.908  35.864  14.782
31407W        W90701  41.788  21.692  12.339
31408W        W90702  42.954  28.066  14.991
31409W        W90703  32.971  43.819  13.801
31410W        W90704  41.375   0.851  14.943
31411W        W90705  39.382  43.862  14.017
31412W        W90706  40.885  26.002  12.455
31413W        W90707  25.186   9.347  11.522
31414W        W90708  34.478  30.101   3.156
31415W        W90709  36.865  31.431  13.507
31416W        W90710   6.826  35.379   4.652
31417W        W90711  19.143  15.642  11.989
31418W        W90712   8.299  23.543   1.803
31419W        W90713  25.011  34.440  14.834
31420W        W90714   0.254  40.493  12.369
31421W        W90715  22.551  18.768  11.971
31422W        W90716  29.961  18.200   0.252
31423W        W90717  17.071  42.829  14.959
31424W        W90718  22.194  25.072   4.728
31425W        W90719  11.133  32.080   4.254
31426W        W90720  35.589  35.528  14.445
31427W        W90721  26.164  16.189   3.370
31428W        W90722  19.657   0.379  10.474
31429W        W90723  20.167  39.557  12.358
31430W        W90724  31.453  37.970   4.656
31431W        W90725  16.257   7.247  14.296
31432W        W90726   2.308  35.005   3.328
31433W        W90727  44.963  24.608  14.333
31434W        W90728  37.899  10.182   4.655
31435W        W90729  40.858  35.604  14.448
31436W        W90730  18.612  26.967   1.274
31437W        W90731  30.445  23.680  11.109
31438W        W90732  16.711  41.333   4.625
31439W        W90733  29.460  29.012   1.336
31440W        W90734  21.702  30.067  13.912
31441W        W90735  19.118  31.585   0.967
31442W        W90736  40.378  28.535  11.902
31443W        W90737  33.463   3.879  14.996
31444W        W90738   2.344  11.351   0.244
31445W        W90739  21.656  36.565  14.892
31446W        W90740  34.474  20.572  12.546
31447W        W90741  18.602  11.717   0.865
31448W        W90742   4.701  18.288   1.337
31449W        W90743  35.488  25.051  14.391
31450W        W90744  37.474  42.429  14.438
31451W        W90745  12.249  17.742  13.343
31452W        W90746  13.324  18.170   3.707
31453W        W90747  33.569  27.605   1.307
31454W        W90748  22.181  30.483  12.835
31455W        W90749  20.752  23.189   3.198
31456W        W90750  31.124  23.674  10.559
31457W        W90751   7.292  44.279  13.374
31458W        W90752   4.345  31.112   2.782
31459W        W90753  16.612  34.985  12.984
31460W        W90754  37.544   3.390   2.299
31461W        W90755  39.344  15.744  12.487
31462W        W90756  38.066   3.797   2.719
31463W        W90757   0.744   6.232   2.260
31464W        W90758  11.673  35.479  13.329
31465W        W90759  13.635  41.983  12.002
31466W        W90760  16.738  42.784   4.728
31467W        W90761  31.577  41.819   0.311
31468W        W90762  11.761  31.914   2.395
31469W        W90763  43.333  42.284  13.516
31470W        W90764  13.120   7.381   5.250
31471W        W90765  10.769  22.199   3.756
31472W        W90766  38.857  23.009   0.364
31473W        W90767   2.291   6.691   4.172
31474W        W90768  21.684  35.103   0.385
31475W        W90769  11.146  14.739  11.595
31476W        W90770  15.582  13.125   2.690
31477W        W90771  32.628  32.452   4.698
31478W        W90772   4.353  20.524  11.417
31479W        W90773   4.855  14.295  14.951
31480W        W90774   9.783   5.231   1.724
31481W        W90775  18.075  15.771  14.839
31482W        W90776  37.400  31.486  10.125
31483W        W90777  19.747  43.811   3.849
31484W        W90778   8.250   6.421   0.838
31485W        W90779  24.087   5.870  12.858
31486W        W90780  30.629  25.995  12.580
31487W        W90781  35.960  21.734  11.580
31488W        W90782  13.265   0.835   3.844
31489W        W90783   7.713  16.287   2.271
31490W        W90784  25.493  30.156   1.862
31491W        W90785  12.211  24.006   3.804
31492W        W90786   8.696  23.705   3.213
31493W        W90787  10.744  18.757  11.500
31494W        W90788  28.141  24.543  12.955
31495W        W90789  40.504   0.466   3.356
31496W        W90790   7.861  27.685   0.341
31497W        W90791   7.292  29.573   1.451
31498W        W90792  11.808  16.695  10.023
31499W        W90793   2.745  17.144  10.967
31500W        W90794  19.262  24.113  13.526
31501W        W90795   1.791  34.412   4.835
31502W        W90796  24.561  15.654  10.892
31503W        W90797  35.052  27.167  12.832
31504W        W90798  33.926  19.586  11.469
31505W        W90799  26.522  21.520   4.321
31506W        W90800  15.807  10.715   0.889
31507W        W90801  16.689   4.892   2.235
31508W        W90802  41.978  33.490  13.907
31509W        W90803   6.323  31.973   3.845
31510W        W90804  34.561   3.947  11.425
31511W        W90805  36.408  37.949  11.075
31512W        W90806  36.555   8.656   2.816
31513W        W90807  11.846   2.308   3.790
31514W        W90808  29.121   9.296  14.023
31515W        W90809   9.881  19.721  11.920
31516W        W90810   1.332  27.096  14.412
31517W        W90811  24.668  32.395   4.755
31518W        W90812  15.240  14.594   3.282
31519W        W90813  17.206  36.593   4.316
31520W        W90814  36.583  17.173  14.471
31521W        W90815  32.458  30.002   2.316
31522W        W90816  10.270   9.855   3.293
31523W        W90817   5.410  19.536   2.693
31524W        W90818  37.504  12.132   3.148
31525W        W90819  26.469  21.043  11.055
31526W        W90820  13.618  26.115  14.507
31527W        W90821  10.160  25.200   3.239
31528W        W90822  38.409  31.580  10.642
31529W        W90823  25.993  16.567   3.852
31530W        W90824  14.804   9.877   2.854
31531W        W90825  28.606  25.598   0.738
31532W        W90826  32.964  11.789  11.039
31533W        W90827  26.473  17.582  11.561
31534W        W90828  25.131  42.781   3.217
31535W        W90829   1.930  11.162  11.014
31536W        W90830  18.697  33.986  14.438
31537W        W90831  13.642  28.109  12.898
31538W        W90832  21.638  32.121   0.459
31539W        W90833  10.639  18.242   0.252
31540W        W90834   4.422   7.903  12.529
31541W        W90835   7.718  35.082  14.944
31542W        W90836  10.279   7.270   0.767
31543W        W90837  44.784  19.091   1.334
31544W        W90838  25.089  32.459   1.714
31545W        W90839   7.228  30.087  12.854
31546W        W90840  40.007   3.392   5.318
31547W        W90841  41.836  31.986  10.098
31548W        W90842  31.621  20.625  11.591
31549W        W90843   1.885  23.008  11.071
31550W        W90844  40.862  22.642  14.967
31551W        W90845  31.944  31.418  11.923
31552W        W90846  21.638  21.138  10.942
31553W        W90847   3.236   2.820  12.036
31554W        W90848  13.325  44.343   5.210
31555W        W90849  44.366  31.077  12.002
31556W        W90850  23.695  43.009   1.375
31557W        W90851  20.067  19.143   1.289
31558W        W90852  21.754  34.908   2.818
31559W        W90853   3.719   4.264  10.537
31560W        W90854   7.804  35.375  11.410
31561W        W90855  27.094  18.109  12.973
31562W        W90856  16.104   0.766   1.321
31563W        W90857  34.111  27.052  11.077
31564W        W90858  33.442   4.713  10.896
31565W        W90859   3.791  13.703  11.457
31566W        W90860  23.691  27.623   3.699
31567W        W90861   0.286  41.795   3.633
31568W        W90862  25.591  41.031  13.032
31569W        W90863  14.322   0.447  10.145
31570W        W90864  32.980   4.241  13.970
31571W        W90865  25.629  39.377  13.361
31572W        W90866  10.829  34.427   0.345
31573W        W90867  39.533  32.401  10.931
31574W        W90868  25.520  38.875  12.922
31575W        W90869   3.322  13.193   3.691
31576W        W90870  31.573  38.873  13.939
31577W        W90871  30.917  18.066   3.841
31578W        W90872  36.016   3.216  14.810
31579W        W90873   9.247   9.178  12.930
31580W        W90874  37.000  24.197  13.544
31581W        W90875  41.321   4.834  14.031
31582W        W90876  21.599  39.318   2.190
31583W        W90877  11.129  33.539  11.890
31584W        W90878   3.925  32.479   4.780
31585W        W90879   8.733  32.989   0.963
31586W        W90880  35.071  27.591   4.794
31587W        W90881  23.108  18.271   3.732
31588W        W90882   6.701  19.147  10.889
31589W        W90883  38.987  19.118  14.780
31590W        W90884  17.652  11.679   1.393
31591W        W90885  14.295  23.730   3.301
31592W        W90886  27.942  37.995  14.832
31593W        W90887  40.434  41.961  14.013
31594W        W90888  14.593  34.061  13.877
31595W        W90889  32.089  28.513   2.899
31596W        W90890   7.330  13.683  14.336
31597W        W90891  27.089  24.978  12.873
31598W        W90892  13.659   9.649  10.423
31599W        W90893  22.051  12.204   2.229
31600W        W90894   5.846  28.444  11.474
31601W        W90895   4.911  17.617   0.463
31602W        W90896  18.680  19.579   2.712
31603W        W90897  31.104  16.686   1.243
31604W        W90898  25.585  18.195  13.526
31605W        W90899  20.227  27.605  13.031
31606W        W90900  31.456  21.755  11.971
31607W        W90901  20.033  17.233   4.621
31608W        W90902  11.141  43.483   4.730
31609W        W90903  31.414   9.800   3.346
31610W        W90904  30.452  33.027  11.017
31611W        W90905  10.668   5.239  10.575
31612W        W90906  33.978  16.102   4.742
31613W        W90907  30.632  33.411   3.840
31614W        W90908  42.926  18.580   2.764
31615W        W90909  34.028  11.766   3.217
31616W        W90910  27.058  20.253  10.946
31617W        W90911  31.986  34.547  13.403
31618W        W90912  29.918  36.997  12.892
31619W        W90913  14.277  26.598  11.432
31620W        W90914  25.501  20.576  14.934
31621W        W90915  25.047  28.538   3.280
31622W        W90916  29.956  25.541   0.336
31623W        W90917   5.224  44.824  11.583
31624W        W90918  37.984  38.041  11.015
31625W        W90919  26.112   4.773   2.849
31626W        W90920  40.461  25.701   4.296
31627W        W90921  32.541  38.896  13.801
31628W        W90922  40.437  31.916  11.048
31629W        W90923  26.957  23.029  11.471
31630W        W90924  33.057   5.871  10.588
31631W        W90925  28.100  36.420   0.350
31632W        W90926  44.916  44.981   4.837
31633W        W90927  24.181  28.681  10.591
31634W        W90928  20.744  16.665  10.895
31635W        W90929  19.699  41.934   3.173
31636W        W90930  39.425  36.380  13.914
31637W        W90931  42.448  34.593  12.883
31638W        W90932  23.615  36.440   0.808
31639W        W90933  41.419  34.572  13.353
31640W        W90934   7.737  14.194  10.103
31641W        W90935  28.494  19.178   1.910
31642W        W90936   9.273  37.057  13.536
31643W        W90937  39.458  11.656   1.266
31644W        W90938   5.768  20.556   0.284
31645W        W90939  23.666  27.996   2.837
31646W        W90940  23.107  43.502   1.366
31647W        W90941  20.612  18.703  13.426
31648W        W90942  33.050   9.373   1.927
31649W        W90943  11.824  26.030   2.682
31650W        W90944  36.395  32.523   1.790
31651W        W90945  15.192   5.812   3.159
31652W        W90946   6.722  11.135   2.885
31653W        W90947  23.504  37.037  11.909
31654W        W90948  38.498   6.757  14.881
31655W        W90949  42.864  32.034  11.966
31656W        W90950  21.628  31.020  12.085
31657W        W90951  40.006  41.860  12.841
31658W        W90952  13.736  35.057  14.017
31659W        W90953   4.398  11.832   1.900
31660W        W90954  12.126  13.215   0.415
31661W        W90955   7.800   1.845  12.535
31662W        W90956   3.778   5.261   4.230
31663W        W90957   0.352  37.891  11.393
31664W        W90958  10.798  25.662   3.258
31665W        W90959  15.175  36.071  11.081
31666W        W90960  23.164  43.510   0.894
31667W        W90961  40.855   6.272  13.949
31668W        W90962  34.120   2.404  11.505
31669W        W90963  10.636  29.140   1.881
31670W        W90964  35.894  40.000   0.353
31671W        W90965  33.931   5.869  12.996
31672W        W90966  23.682   8.274  13.317
31673W        W90967  27.521  17.737   2.878
31674W        W90968  24.047  35.428   1.274
31675W        W90969  28.075  35.037   2.292
31676W        W90970  22.238   1.909   3.330
31677W        W90971  16.163  44.941  10.447
31678W        W90972  33.092   7.854   9.595
31679W        W90973  42.920   0.869   0.749
31680W        W90974  23.642  32.940   4.651
31681W        W90975  23.068   3.334   3.262
31682W        W90976  27.004  17.691  11.938
31683W        W90977  38.426  22.185  13.443
31684W        W90978   7.245   9.319  14.942
31685W        W90979  36.883  42.889  13.821
31686W        W90980  22.089  35.999  13.350
31687W        W90981   5.772  25.589  11.409
31688W        W90982  40.368  23.658   2.396
31689W        W90983   1.766  14.114  12.517
31690W        W90984  39.819  21.119  12.883
31691W        W90985  44.945   8.258  11.003
31692W        W90986   3.354  44.265   3.704
31693W        W90987   8.228  22.106   1.260
31694W        W90988  18.556  42.013   0.752
31695W        W90989  26.669  35.914   4.220
31696W        W90990  39.035  34.001   0.425
31697W        W90991  24.222  42.979  11.079
31698W        W90992  21.188  35.089   1.709
31699W        W90993  30.106  14.718   1.730
31700W        W90994  40.001   6.703  13.433
31701W        W90995  33.566   7.677   0.801
31702W        W90996  17.091  38.370   3.218
31703W        W90997   6.916  33.578  11.519
31704W        W90998  24.719  17.131  14.360
31705W        W90999  35.980  17.211   3.835
31706W        W91000  41.976  10.842  14.511
31707W        W91001  19.213  44.349  10.601
31708W        W91002  35.069   5.843   0.907
31709W        W91003  31.085  35.567   2.311
31710W        W91004  26.552  27.558  11.507
31711W        W91005  30.559  11.671   0.480
31712W        W91006  18.686  44.464   3.630
31713W        W91007  38.044  35.038   3.257
31714W        W91008   8.867  19.550   3.834
31715W        W91009   1.739  28.069  13.445
31716W        W91010  34.411  13.136  10.903
31717W        W91011   8.231  38.897  14.926
31718W        W91012   8.816  39.414  12.029
31719W        W91013  31.514  40.431  10.918
31720W        W91014  40.460  16.652   4.742
31721W        W91015  17.255  27.030  11.575
31722W        W91016  11.805  37.490   4.760
31723W        W91017  20.175  17.241  14.784
31724W        W91018  24.039  33.392   4.658
31725W        W91019  18.272  33.589   4.235
31726W        W91020  11.366  22.173   0.833
31727W        W91021  13.230  35.092   1.342
31728W        W91022  23.529  15.224   4.725
31729W        W91023  31.092  30.590  13.973
31730W        W91024  35.393  27.186  10.889
31731W        W91025  30.107  16.629   4.729
31732W        W91026  19.101  44.910  13.546
31733W        W91027  15.252  16.627  13.377
31734W        W91028  41.868  35.894   9.974
31735W        W91029  35.590  13.723   3.842
31736W        W91030  35.386  12.687   5.797
31737W        W91031  31.027  36.004  10.038
31738W        W91032   4.310  35.437  12.084
31739W        W91033  15.654  38.346   2.741
31740W        W91034  31.415   0.759   2.316
31741W        W91035  35.045  17.305   0.771
31742W        W91036  18.206  14.810  11.532
31743W        W91037  24.694  13.663   0.387
31744W        W91038  16.301  17.223   4.347
31745W        W91039  20.586   0.260   0.289
31746W        W91040  24.196  23.135   3.145
31747W        W91041  39.813   8.768   3.836
31748W        W91042   2.442  26.069  10.939
31749W        W91043   6.240  12.705  13.412
31750W        W91044  39.451   5.830   1.402
31751W        W91045  10.280  34.418  11.533
31752W        W91046  25.651  34.527   4.721
31753W        W91047  11.224  14.239   1.779
31754W        W91048  15.750  40.455  13.495
31755W        W91049  18.156  27.137  11.395
31756W        W91050  13.701  17.719  10.897
31757W        W91051  35.023   9.869  12.855
31758W        W91052  20.751  25.664   1.361
31759W        W91053   2.230   6.223  12.095
31760W        W91054  19.202  19.266   2.353
31761W        W91055  36.887  40.848  11.598
31762W        W91056  34.564  18.225  12.872
31763W        W91057  21.544  28.557  12.026
31764W        W91058  25.150  20.764  13.828
31765W        W91059   7.784  11.848  12.052
31766W        W91060  18.190  37.442  14.431
31767W        W91061  30.583  10.724  13.376
31768W        W91062  16.679  42.819   1.243
31769W        W91063  13.118  15.247  10.071
31770W        W91064   3.906  33.519  10.069
31771W        W91065  33.541  22.639   2.305
31772W        W91066   7.797   5.275   4.638
31773W        W91067  42.862  26.146  13.366
31774W        W91068  10.146  29.468   4.139
31775W        W91069  31.635  43.012  14.995
31776W        W91070  28.938  34.519  12.855
31777W        W91071  26.592   1.396   0.871
31778W        W91072  24.014  22.059   2.235
31779W        W91073  35.107   4.764  11.111
31780W        W91074  38.895  17.732  14.458
31781W        W91075  35.440  38.361   0.243
31782W        W91076  29.646  34.117  10.970
31783W        W91077  34.022   2.901   2.836
31784W        W91078  19.242  12.765  10.412
31785W        W91079  43.324  31.539  11.997
31786W        W91080   1.427  40.321   3.203
31787W        W91081  15.628  12.813   3.722
31788W        W91082  43.333  19.582  13.845
31789W        W91083  36.452  44.786  13.026
31790W        W91084  30.496  30.971   0.893
31791W        W91085  25.474   9.880   0.364
31792W        W91086  33.425   5.300   2.838
31793W        W91087  29.630  37.469  10.991
31794W        W91088  11.246   7.193   2.178
31795W        W91089  29.015  10.660   0.344
31796W        W91090   0.758  43.354   3.289
31797W        W91091  16.749  29.990   2.882
31798W        W91092  16.228  13.815  12.880
31799W        W91093  16.139  24.562  12.359
31800W        W91094  20.562   0.362  12.573
31801W        W91095   0.297  11.811   1.858
31802W        W91096   2.341  12.349  11.902
31803W        W91097  13.135   8.265  11.396
31804W        W91098  22.205  30.498  13.894
31805W        W91099   6.367  40.834   3.385
31806W        W91100   7.217   2.251  11.384
31807W        W91101   3.794  32.545  13.514
31808W        W91102  27.962  13.642   1.864
31809W        W91103  24.976  25.572   0.945
31810W        W91104   2.297  37.905   0.789
31811W        W91105   2.875  24.645  13.533
31812W        W91106  16.730  32.472   4.242
31813W        W91107  24.192  32.110   0.783
31814W        W91108   6.791  19.216  13.796
31815W        W91109  31.445  23.673  11.462
31816W        W91110  17.289  19.554   0.294
31817W        W91111  36.076  33.015   0.343
31818W        W91112   1.359  41.911  14.275
31819W        W91113   0.748   2.955   1.257
31820W        W91114  15.293  35.897  11.509
31821W        W91115  16.097  31.067  13.459
31822W        W91116  16.078  36.433   4.714
31823W        W91117  40.321  25.139  12.849
31824W        W91118  34.513  22.536  10.924
31825W        W91119  42.875  28.056   1.233
31826W        W91120  35.371  10.711   0.804
31827W        W91121  32.106  39.983   3.313
31828W        W91122  36.097  43.415   0.369
31829W        W91123   0.775   1.864   2.201
31830W        W91124  11.683  17.792   1.745
31831W        W91125  40.391  16.791   3.866
31832W        W91126  33.532  10.340  11.906
31833W        W91127  17.629  12.258  12.876
31834W        W91128  22.133  43.959   0.934
31835W        W91129   6.314  27.522  14.487
31836W        W91130  35.397  39.512   2.379
31837W        W91131  30.612  29.575  13.522
31838W        W91132   0.410  19.144  11.069
31839W        W91133   5.364  35.058  14.930
31840W        W91134  35.020  36.365  12.848
31841W        W91135  32.489  33.984   3.795
31842W        W91136  16.587   6.899  10.550
31843W        W91137  15.653  35.023   5.238
31844W        W91138  29.542  23.598  12.948
31845W        W91139  34.563   2.383   1.219
31846W        W91140  41.510  40.969   3.363
31847W        W91141  17.683  33.499  13.356
31848W        W91142  28.612   3.315   3.264
31849W        W91143  14.647  36.413   4.601
31850W        W91144   2.772  43.388   3.216
31851W        W91145  17.167  31.017   0.951
31852W        W91146   8.379  35.464   0.760
31853W        W91147  38.953  39.401   1.437
31854W        W91148  32.142  12.194  11.102
31855W        W91149  17.281   4.425   4.130
31856W        W91150  22.061  12.322   3.276
31857W        W91151   3.225  38.951   2.902
31858W        W91152   3.788   4.866   0.774
31859W        W91153  19.716  18.200  13.456
31860W        W91154  17.278  30.057  13.477
31861W        W91155   0.419  11.767  11.887
31862W        W91156  42.900  28.639  11.479
31863W        W91157  28.101  43.437  13.826
31864W        W91158  11.838  25.670   1.451
31865W        W91159  19.115  38.365   0.955
31866W        W91160   0.491   4.771  11.856
31867W        W91161  22.720  30.010  11.013
31868W        W91162   0.322  26.985   3.307
31869W        W91163  42.317  22.715  12.354
31870W        W91164  20.538  33.546   2.414
31871W        W91165  41.824   5.720   3.704
31872W        W91166  34.595   9.333  13.050
31873W        W91167  17.769  19.229   0.825
31874W        W91168  27.989  28.575   0.788
31875W        W91169  40.886  20.682   3.763
31876W        W91170   2.411   0.281   1.433
31877W        W91171  31.113  17.191  11.446
31878W        W91172  26.059  22.627  13.967
31879W        W91173  14.173  13.805  11.467
31880W        W91174  25.628  30.083   0.894
31881W        W91175  28.624  30.074  13.930
31882W        W91176  16.146   4.343  13.388
31883W        W91177  23.027  42.308  10.449
31884W        W91178  22.542   2.417   2.703
31885W        W91179  26.559  43.811   0.865
31886W        W91180  24.157  19.572  13.862
31887W        W91181   2.363  19.765   3.671
31888W        W91182   2.793   6.383  11.376
31889W        W91183   1.944   4.748   4.717
31890W        W91184   7.827  14.664   0.760
31891W        W91185   6.239  17.714  10.419
31892W        W91186  18.618  34.953   1.417
31893W        W91187  27.191  18.296   0.248
31894W        W91188  23.196  44.913  14.865
31895W        W91189  36.522  40.861  13.308
31896W        W91190  36.984  27.665  12.946
31897W        W91191  35.466  31.472  12.503
31898W        W91192  10.688  30.026   2.881
31899W        W91193   6.248   6.221   9.922
31900W        W91194  37.576   8.259   2.804
31901W        W91195  17.258   6.778   3.790
31902W        W91196  33.508  38.331  13.802
31903W        W91197   4.705  31.504  12.526
31904W        W91198  35.947   9.347   0.879
31905W        W91199  19.780  20.705   1.863
31906W        W91200  31.986  40.991  11.523
31907W        W91201  13.156  24.985   0.332
31908W        W91202  28.110   4.342  12.832
31909W        W91203   5.718  37.376  11.572
31910W        W91204  20.608  11.161   2.381
31911W        W91205  12.293   2.433   2.354
31912W        W91206   7.398  44.780  13.450
31913W        W91207  39.056   5.817  13.030
31914W        W91208  17.222  38.455   4.232
31915W        W91209   6.781   5.229  14.023
31916W        W91210  19.089   0.852  11.925
31917W        W91211   8.344  27.487   1.273
31918W        W91212   7.400  28.088   4.676
31919W        W91213  18.146   0.883   0.960
31920W        W91214  23.622   6.840   5.229
31921W        W91215  34.515  43.858   3.203
31922W        W91216   4.834  32.900   1.784
31923W        W91217  24.590  33.067  10.996
31924W        W91218  23.507  27.622  11.472
31925W        W91219  15.629  23.602  11.495
31926W        W91220  41.955  15.705   4.812
31927W        W91221  39.359  27.551   2.770
31928W        W91222  31.106  17.765  13.502
31929W        W91223  22.172  40.422  13.862
31930W        W91224  14.646  32.068   1.219
31931W        W91225   7.757  31.633  14.964
31932W        W91226  38.932  16.775   3.217
31933W        W91227  10.333   2.301  10.951
31934W        W91228  13.194  18.187   4.815
31935W        W91229  44.855  33.113   3.784
31936W        W91230  15.096  14.330   1.910
31937W        W91231   1.822  27.029  12.978
31938W        W91232  13.314  41.958   1.279
31939W        W91233  12.222  15.194  11.590
31940W        W91234  34.397  27.496   3.726
31941W        W91235  13.184  15.095   4.191
31942W        W91236  32.587   7.240   4.830
31943W        W91237  31.568   7.865  13.488
31944W        W91238   4.445  24.065   4.307
31945W        W91239   5.840  16.793  12.556
31946W        W91240   6.840  14.269  10.458
31947W        W91241  44.498   6.789  13.403
31948W        W91242  35.008  39.831   1.884
31949W        W91243  39.435  36.484   1.803
31950W        W91244  23.010  42.318   4.317
31951W        W91245  26.698  17.730   2.234
31952W        W91246   7.331   8.212   3.157
31953W        W91247  10.777  21.732   2.809
31954W        W91248  16.768  44.263   2.199
31955W        W91249   1.338  23.181  14.276
31956W        W91250  39.552  26.616  13.421
31957W        W91251  32.510   0.275   2.357
31958W        W91252   6.403  38.855   1.272
31959W        W91253  44.921   2.943  13.542
31960W        W91254  36.432   4.263  12.530
31961W        W91255  38.857  22.207   2.708
31962W        W91256  20.213   8.321  10.968
31963W        W91257  24.015  18.721  11.516
31964W        W91258  14.226   7.381   3.357
31965W        W91259  25.547  11.819   2.886
31966W        W91260   0.486  41.987  13.531
31967W        W91261   4.227  42.359  13.528
31968W        W91262   0.871  24.012  13.872
31969W        W91263  25.005  17.580  12.988
31970W        W91264  14.219  12.263  13.429
31971W        W91265  29.122   5.245  12.523
31972W        W91266   2.296  43.419   0.387
31973W        W91267   4.431   8.801   2.684
31974W        W91268  29.999  33.912   2.183
31975W        W91269  38.058   9.706  12.513
31976W        W91270  19.179  19.657   3.335
31977W        W91271  23.496  26.188  14.468
31978W        W91272  18.666  30.468   4.795
31979W        W91273   4.928  19.160  14.994
31980W        W91274  19.601  27.636   1.871
31981W        W91275  26.466  37.343  12.445
31982W        W91276  14.315  28.476   1.702
31983W        W91277  28.587  26.979  10.557
31984W        W91278   5.784  27.688   3.808
31985W        W91279  38.974  15.687  14.913
31986W        W91280  42.287   0.458   0.316
31987W        W91281  43.458  16.700  12.040
31988W        W91282  26.463  12.703  10.544
31989W        W91283  20.045   7.871   0.300
31990W        W91284  15.670  32.620   2.701
31991W        W91285  33.455  24.981   2.343
31992W        W91286  41.533  26.030  12.828
31993W        W91287  18.673  29.558  10.547
31994W        W91288  43.777   5.698   2.238
31995W        W91289  40.890   9.363  13.820
31996W        W91290  17.567  38.368  12.469
31997W        W91291  35.370  26.701  13.828
31998W        W91292  20.691  10.840  14.840
31999W        W91293  34.587  32.087   1.376
32000W        W91294  24.494   4.369  11.919
32001W        W91295   3.425  11.644  10.485
32002W        W91296   4.383  13.812  14.986
32003W        W91297  41.450  20.100   4.314
32004W        W91298  18.204  29.080   2.410
32005W        W91299  25.130   6.392  10.478
32006W        W91300  18.663  36.055   4.805
32007W        W91301  39.053  30.047   4.285
32008W        W91302  41.951  37.472   5.292
32009W        W91303  21.139  27.045  12.887
32010W        W91304   2.454  40.951   1.728
32011W        W91305  44.812  25.570   4.688
32012W        W91306  12.164   7.295  14.423
32013W        W91307  16.616  26.997  11.425
32014W        W91308  33.380  41.424  12.903
32015W        W91309  39.499  42.395   3.347
32016W        W91310  12.814  17.717   2.362
32017W        W91311  28.501  30.435   5.260
32018W        W91312  20.260   1.880  14.994
32019W        W91313  28.992  21.552   2.276
32020W        W91314   0.873  29.457  12.455
32021W        W91315  41.327   9.296   2.260
32022W        W91316  43.386   7.886  13.423
32023W        W91317  42.994  43.464   4.828
32024W        W91318  25.705  20.603   1.380
32025W        W91319  27.472  21.165   2.354
32026W        W91320  19.770  12.647   2.733
32027W        W91321  11.189  33.598  12.908
32028W        W91322   1.325   0.308   0.731
32029W        W91323  44.768  41.819   2.303
32030W        W91324   2.803  43.994  11.387
32031W        W91325  26.106  35.922  11.604
32032W        W91326  31.406  38.542   0.410
32033W        W91327  10.739  27.505   1.871
32034W        W91328  12.220  42.353  14.357
32035W        W91329  31.004   3.777  14.760
32036W        W91330  31.443   0.350   3.221
32037W        W91331  39.851  12.769  13.466
32038W        W91332   9.650  41.883   1.812
32039W        W91333  42.994  11.312   2.246
32040W        W91334  42.450   5.412   3.305
32041W        W91335  22.600   1.895  12.883
32042W        W91336   8.792  40.875   2.283
32043W        W91337  32.908  13.188  12.976
32044W        W91338  18.672  18.600   0.798
32045W        W91339  18.769  33.024  13.513
32046W        W91340  12.654  37.493   0.361
32047W        W91341  28.442  12.679  11.880
32048W        W91342  42.903  14.236   1.708
32049W        W91343  40.930   2.228  13.795
32050W        W91344  42.454  23.194   3.707
32051W        W91345   1.766  24.483  13.829
32052W        W91346  33.914  17.136   1.805
32053W        W91347   6.881  38.991   1.696
32054W        W91348  22.134  21.085  11.608
32055W        W91349  36.407  36.552   3.357
32056W        W91350  36.499   4.884   2.339
32057W        W91351  22.128   4.812  14.802
32058W        W91352  27.648   7.391  12.076
32059W        W91353   3.298  39.334  14.385
32060W        W91354  13.635  21.743  10.536
32061W        W91355  14.702  33.901  11.411
32062W        W91356   8.757  44.407   2.684
32063W        W91357  32.893  13.153  13.993
32064W        W91358  43.342  25.150  13.916
32065W        W91359  37.349  12.656   1.872
32066W        W91360  42.943  17.631  14.940
32067W        W91361  25.468  44.900   4.733
32068W        W91362  17.264   1.416   0.891
32069W        W91363  24.979  36.877  12.522
32070W        W91364  33.611  20.693   0.827
32071W        W91365   9.650  43.441  12.570
32072W        W91366  22.517   4.824   0.936
32073W        W91367  40.803   0.381   4.177
32074W        W91368  24.655  12.703   1.416
32075W        W91369   8.854  18.683  10.553
32076W        W91370  43.491   1.789   3.385
32077W        W91371  18.192  13.237  14.417
32078W        W91372   7.257   9.260   0.481
32079W        W91373  14.798  22.096  14.402
32080W        W91374  35.885   1.936  11.980
32081W        W91375  32.099  30.573  10.065
32082W        W91376   7.405  43.485  14.423
32083W        W91377  15.271  12.699  13.815
32084W        W91378   9.813  14.162   2.203
32085W        W91379  27.065  37.022  11.544
32086W        W91380  35.079  42.392   3.822
32087W        W91381  11.636  15.127   1.438
32088W        W91382  17.681   3.778   4.324
32089W        W91383  19.737  42.995   2.395
32090W        W91384   7.180  25.133   1.265
32091W        W91385  12.722  26.047  14.417
32092W        W91386  43.275   9.280   4.764
32093W        W91387   3.331  29.933   2.742
32094W        W91388  31.473  25.515   3.345
32095W        W91389  34.092   3.712  11.999
32096W        W91390  39.902  39.850   0.878
32097W        W91391  16.275  41.910  11.973
32098W        W91392  13.281   3.325   1.932
32099W        W91393   7.376  17.556  11.439
32100W        W91394  31.486  34.402  10.424
32101W        W91395  44.277  14.158   0.360
32102W        W91396   1.322  43.789   2.341
32103W        W91397  17.138   8.402   2.366
32104W        W91398   5.339  44.878   9.966
32105W        W91399  28.475  25.079  10.988
32106W        W91400  16.712   2.303   0.799
32107W        W91401  18.752  11.209   1.891
32108W        W91402   9.806   0.411  13.383
32109W        W91403  12.286   3.291   3.750
32110W        W91404  31.454  24.669  12.345
32111W        W91405  18.232   9.879   4.697
32112W        W91406  10.266  44.294   1.798
32113W        W91407  40.439  14.286  11.489
32114W        W91408   8.862   2.391  11.942
32115W        W91409  26.555   9.298   3.790
32116W        W91410  21.105  44.789  14.436
32117W        W91411   7.775  34.015   4.220
32118W        W91412  25.187  16.099  12.908
32119W        W91413   1.331  17.559  14.395
32120W        W91414   0.349  40.399   2.243
32121W        W91415  20.542  41.940   2.846
32122W        W91416  24.976  15.702   3.803
32123W        W91417  39.437   2.940  12.096
32124W        W91418  14.768  42.338  13.866
32125W        W91419  30.656  29.964  12.040
32126W        W91420  26.543  23.063   1.840
32127W        W91421  19.763   6.270   1.328
32128W        W91422  15.684  26.025  11.450
32129W        W91423   9.359  42.374   4.193
32130W        W91424  21.057  40.390   0.287
32131W        W91425   7.381  37.031  11.951
32132W        W91426  35.602   3.903  10.420
32133W        W91427  43.466  40.874   4.232
32134W        W91428  23.059  27.193  14.901
32135W        W91429   9.293  33.981   0.766
32136W        W91430   6.410   8.331   0.251
32137W        W91431  29.006  25.158  12.347
32138W        W91432  38.014  31.461  13.449
32139W        W91433  26.004  19.698   2.782
32140W        W91434  12.287  28.446   4.740
32141W        W91435  22.692  34.894  12.898
32142W        W91436  16.573   8.314  14.423
32143W        W91437  33.082  27.000  11.085
32144W        W91438  17.082  25.050  10.041
32145W        W91439  33.896  17.587   4.221
32146W        W91440  41.380  26.545  12.448
32147W        W91441   1.477  39.498   3.652
32148W        W91442  21.571   5.230  12.579
32149W        W91443  20.251  21.525   5.242
32150W        W91444  16.613  30.921   2.178
32151W        W91445  17.169  24.194  13.945
32152W        W91446  34.872  14.334   2.268
32153W        W91447  29.536   8.697  10.926
32154W        W91448  16.679   7.865  14.275
32155W        W91449  34.498  43.330   3.356
32156W        W91450  26.622   4.724  14.278
32157W        W91451   6.230  44.417   0.421
32158W        W91452   1.354   4.349  14.872
32159W        W91453  36.587  15.754   9.948
32160W        W91454  42.439  24.974  13.056
32161W        W91455  27.520  31.092  13.967
32162W        W91456  15.623   4.704  12.904
32163W        W91457  35.097  44.342   0.255
32164W        W91458  39.513  11.142   3.173
32165W        W91459  18.275  25.712  12.999
32166W        W91460   8.243  19.616  11.584
32167W        W91461   6.217   7.825  13.350
32168W        W91462  21.567  12.289   2.335
32169W        W91463  18.615  14.101  12.363
32170W        W91464  21.101  29.158  12.455
32171W        W91465  16.629   1.366   1.905
32172W        W91466  33.451  33.986  14.837
32173W        W91467  36.914   6.816   2.858
32174W        W91468  41.437  38.947  10.466
32175W        W91469  22.087  17.725  10.609
32176W        W91470   0.378  24.561  10.522
32177W        W91471  31.607  35.945  12.896
32178W        W91472  19.128  28.480   3.850
32179W        W91473   1.252  23.572  10.477
32180W        W91474  24.109  18.206  11.594
32181W        W91475  42.778   0.477  14.771
32182W        W91476  26.666   0.954  11.476
32183W        W91477   8.885  15.605  12.843
32184W        W91478  25.685  15.589   4.785
32185W        W91479  38.397  27.121  10.890
32186W        W91480  30.609  32.065   5.192
32187W        W91481  16.165  35.972   3.173
32188W        W91482  38.401  44.867  12.499
32189W        W91483  36.089  19.760   4.606
32190W        W91484  22.117  14.107   3.681
32191W        W91485  35.379   9.776   4.603
32192W        W91486  37.482   4.347   3.686
32193W        W91487  35.558  43.327   4.601
32194W        W91488   0.439   2.930  10.892
32195W        W91489  39.453  18.295   2.208
32196W        W91490   4.246  17.302  13.887
32197W        W91491  10.863  40.881   1.871
32198W        W91492  15.813  11.774   0.937
32199W        W91493  20.723  29.144   0.372
32200W        W91494  15.151   7.891  10.428
32201W        W91495  38.527   6.284  11.382
32202W        W91496  16.739  10.810   3.262
32203W        W91497  34.497  30.129  10.455
32204W        W91498  20.740  30.490  11.421
32205W        W91499  38.875  18.088   3.743
32206W        W91500   9.870  32.913   4.740
32207W        W91501  40.835   7.688   0.819
32208W        W91502  12.157  35.014   4.305
32209W        W91503  37.832  31.946   0.404
32210W        W91504  24.215   0.393  14.366
32211W        W91505  39.011   7.840  12.367
32212W        W91506   7.397  26.201  10.493
32213W        W91507  30.967  18.285  13.030
32214W        W91508  35.602   7.883  12.398
32215W        W91509  14.274  28.452   3.727
32216W        W91510  33.071   1.738  13.413
32217W        W91511  38.003  40.361   2.713
32218W        W91512  33.433   2.437  14.485
32219W        W91513  15.761  20.130  12.413
32220W        W91514  39.976  14.657   3.745
32221W        W91515  35.467  28.443   2.848
32222W        W91516  38.513  42.005  13.474
32223W        W91517  43.857  26.662  14.799
32224W        W91518  11.833  42.459  12.076
32225W        W91519  14.772  10.778   1.713
32226W        W91520  21.238  34.951  13.927
32227W        W91521  31.557  35.552   4.134
32228W        W91522   2.299  25.045   5.102
32229W        W91523  16.264   3.950  14.766
32230W        W91524  40.447   3.298  11.413
32231W        W91525  35.567   2.851  14.804
32232W        W91526  23.032  41.034  14.857
32233W        W91527  40.323   6.363   0.750
32234W        W91528   4.222  35.568  11.518
32235W        W91529  19.273  43.983  13.985
32236W        W91530  12.266  36.570  12.563
32237W        W91531   8.770  31.139   1.312
32238W        W91532  22.122  12.154  14.937
32239W        W91533  24.500   4.415  12.418
32240W        W91534  32.919  26.190   4.730
32241W        W91535  20.546   5.731  11.004
32242W        W91536  23.512  43.846   4.781
32243W        W91537   4.764  37.402   2.285
32244W        W91538  32.040  10.646   2.203
32245W        W91539  18.183  22.060   1.823
32246W        W91540  42.897  23.198  14.806
32247W        W91541  27.003   2.235  11.891
32248W        W91542   1.476  33.593  13.502
32249W        W91543   8.199  21.181   1.302
32250W        W91544  31.475  35.480   1.735
32251W        W91545  33.422  17.691   4.624
32252W        W91546  12.719  19.595   0.446
32253W        W91547  13.318  26.558  14.772
32254W        W91548  42.944  19.140  10.641
32255W        W91549  11.349  41.832  11.526
32256W        W91550  38.836  26.145  14.918
32257W        W91551  19.067  28.022   0.378
32258W        W91552   4.435  16.318   3.687
32259W        W91553  21.726  44.820  12.401
32260W        W91554  14.303  43.840  10.438
32261W        W91555   1.937  42.394   2.316
32262W        W91556  42.306  39.321  12.077
32263W        W91557   5.354  11.825   0.763
32264W        W91558  10.345  37.559   1.211
32265W        W91559  41.975   4.805  13.346
32266W        W91560  43.882   7.714   1.917
32267W        W91561  12.849  44.494   4.329
32268W        W91562  38.822  42.932   1.698
32269W        W91563  27.647  16.172   1.444
32270W        W91564  20.140  39.925  11.063
32271W        W91565  28.661   4.708  11.607
32272W        W91566  31.046   1.291   1.931
32273W        W91567  34.488  31.053   0.446
32274W        W91568  26.579  38.467  14.422
32275W        W91569   0.417  15.116  14.933
32276W        W91570  16.231  24.695   0.961
32277W        W91571  36.503  31.426  13.523
32278W        W91572  34.481  31.470  10.526
32279W        W91573  21.219  27.189   2.695
32280W        W91574   7.266  10.877  11.441
32281W        W91575  21.713  29.480  13.363
32282W        W91576  16.264  14.747  14.939
32283W        W91577  43.776  29.121   1.759
32284W        W91578  41.346  26.477   0.479
32285W        W91579  42.393  24.683  12.404
32286W        W91580   8.201  19.571   0.748
32287W        W91581   3.294   5.792   2.347
32288W        W91582  28.617  31.154   4.286
32289W        W91583  18.177  34.552   1.724
32290W        W91584  41.039  18.249  10.610
32291W        W91585  32.986  25.179   4.803
32292W        W91586  16.800  17.608   0.865
32293W        W91587  14.718  19.577   0.817
32294W        W91588  41.966  34.977  12.088
32295W        W91589  36.370  24.166   3.636
32296W        W91590  33.477  31.113  14.287
32297W        W91591   4.278  33.033   2.293
32298W        W91592  24.175  43.430  10.470
32299W        W91593  31.436  11.715   4.179
32300W        W91594  43.812  16.665   3.744
32301W        W91595  36.419   2.936  13.518
32302W        W91596   0.352  23.229  14.844
32303W        W91597   9.864  16.761   3.385
32304W        W91598  33.464  22.094   2.334
32305W        W91599  41.884  28.495   0.450
32306W        W91600  28.476  39.477  11.402
32307W        W91601  34.391  13.210  14.850
32308W        W91602  23.521  26.639   2.683
32309W        W91603  18.653  28.116   0.734
32310W        W91604  37.364   6.891  12.506
32311W        W91605  13.843  27.040   2.696
32312W        W91606  43.298  15.662   0.471
32313W        W91607  39.822  44.462  13.035
32314W        W91608   9.673  11.635   0.434
32315W        W91609  38.011   4.904   2.854
32316W        W91610  10.664   0.819   5.211
32317W        W91611  36.461  42.379   0.881
32318W        W91612  26.574  13.195   0.331
32319W        W91613  12.362  27.575  12.847
32320W        W91614  20.564  23.621   4.615
32321W        W91615  39.892  23.655  10.922
32322W        W91616  26.129  16.316   4.200
32323W        W91617  22.662  38.383  14.492
32324W        W91618  15.634  23.599  10.577
32325W        W91619  16.704  25.158  13.511
32326W        W91620  30.600   7.295  10.406
32327W        W91621  37.994  27.186   0.408
32328W        W91622   2.292   4.418  14.509
32329W        W91623  11.746  20.736  12.411
32330W        W91624  21.681  13.726   3.375
32331W        W91625  17.760   6.340   2.293
32332W        W91626  23.707  21.035   2.894
32333W        W91627   6.295  42.346   3.187
32334W        W91628  43.990  43.342  13.467
32335W        W91629  28.147   5.275   1.246
32336W        W91630   3.393  24.010   2.683
32337W        W91631  28.986  25.113   3.353
32338W        W91632  32.978  35.009  12.000
32339W        W91633  39.329  35.939   5.196
32340W        W91634  40.939  10.729  13.937
32341W        W91635   4.841  38.329  13.042
32342W        W91636   0.310  20.637  11.858
32343W        W91637  30.523  44.887  10.439
32344W        W91638  38.822  31.519   1.251
32345W        W91639  27.665  17.304  14.780
32346W        W91640  12.287   1.391  10.998
32347W        W91641  26.596   0.811  12.871
32348W        W91642  42.370   1.324  12.440
32349W        W91643  18.644  36.557   2.207
32350W        W91644  19.218  41.448   4.253
32351W        W91645  25.997   2.441   4.670
32352W        W91646  26.977   8.403   9.604
32353W        W91647  28.579  41.903   3.791
32354W        W91648  43.457  44.282  13.398
32355W        W91649   1.289   1.329  10.123
32356W        W91650   0.455  44.368  11.036
32357W        W91651  35.066   8.286   2.734
32358W        W91652  13.844  12.209  14.499
32359W        W91653  20.595  14.286  12.562
32360W        W91654  10.686  12.671  11.446
32361W        W91655  21.531  20.642   1.278
32362W        W91656  15.781  44.261  13.044
32363W        W91657  44.986  16.806  13.966
32364W        W91658  36.421  27.074  14.975
32365W        W91659  29.627  20.593   0.863
32366W        W91660  30.465  21.749   4.605
32367W        W91661  18.136  32.899  10.507
32368W        W91662  39.954  12.209  11.518
32369W        W91663  17.678  35.877   3.666
32370W        W91664  43.348  22.557  11.064
32371W        W91665  11.652  33.438  13.485
32372W        W91666   6.326  13.840  14.438
32373W        W91667  31.044  40.412   4.297
32374W        W91668   1.265   2.836   4.642
32375W        W91669  39.835  14.767   2.286
32376W        W91670  27.099  25.602   2.733
32377W        W91671  44.867  25.973  12.410
32378W        W91672  37.913  32.411  13.055
32379W        W91673  30.140  42.893  13.398
32380W        W91674  35.410  16.736  14.009
32381W        W91675   4.367  41.397  12.482
32382W        W91676   7.186  34.414  12.059
32383W        W91677  36.370  39.020  13.481
32384W        W91678  23.497  29.989   2.710
32385W        W91679   3.855  11.158   2.705
32386W        W91680  44.403   7.820  13.052
32387W        W91681  15.593   5.396   4.218
32388W        W91682   8.360   9.676   0.450
32389W        W91683  43.998   5.880  13.966
32390W        W91684  36.872  44.308  12.548
32391W        W91685  44.900  35.478  11.474
32392W        W91686  29.934  15.127  14.009
32393W        W91687  29.511   4.206  14.916
32394W        W91688   7.416  40.949   4.726
32395W        W91689  39.481   0.862   0.767
32396W        W91690   4.886  31.949   9.925
32397W        W91691   4.830  35.917  12.870
32398W        W91692  36.588  16.275  11.882
32399W        W91693  12.688  32.547   1.412
32400W        W91694  32.060  42.386   2.897
32401W        W91695  15.591   4.278  13.812
32402W        W91696  32.555  40.881  12.880
32403W        W91697   9.202  20.242  13.059
32404W        W91698  13.693  18.714   4.704
32405W        W91699  29.120  18.204  10.616
32406W        W91700  28.561  40.383  13.063
32407W        W91701  37.922  26.018   4.354
32408W        W91702  35.880   8.900   3.695
32409W        W91703   3.450  30.099  12.980
32410W        W91704  36.351  44.404  14.977
32411W        W91705   8.801   2.784   1.741
32412W        W91706   8.702  33.463  12.043
32413W        W91707  22.689  16.603   4.682
32414W        W91708   6.800  38.403   0.932
32415W        W91709  39.446  38.466   5.138
32416W        W91710  17.148  15.738  14.376
32417W        W91711  25.564  33.396  11.540
32418W        W91712  33.874  18.582   0.873
32419W        W91713   1.971  28.005   0.477
32420W        W91714  14.721  13.642  13.370
32421W        W91715  38.371  31.078   0.807
32422W        W91716  31.079  23.706   0.798
32423W        W91717  35.050  39.039  13.886
32424W        W91718  34.502  43.877   0.419
32425W        W91719   8.897  35.978  14.011
32426W        W91720  41.393  34.538  13.881
32427W        W91721  15.803  31.648  10.589
32428W        W91722   3.361  29.534  13.494
32429W        W91723  23.588  11.294  10.917
32430W        W91724  25.659  27.622  11.544
32431W        W91725  13.260  10.741  11.473
32432W        W91726   5.375   4.209  12.057
32433W        W91727   2.942  20.074   4.186
32434W        W91728  43.920  35.958  10.544
32435W        W91729  12.277  24.541  13.815
32436W        W91730   1.272  12.267   3.826
32437W        W91731  30.118  18.149   2.359
32438W        W91732  37.492  41.440   1.737
32439W        W91733  29.656  44.834   4.679
32440W        W91734  25.161  17.281   3.370
32441W        W91735  36.456  16.316  10.483
32442W        W91736  39.866  26.080   1.391
32443W        W91737   1.934  13.137   0.340
32444W        W91738  19.217  38.468  13.400
32445W        W91739  13.634  34.940  11.936
32446W        W91740   3.367  13.229   2.667
32447W        W91741   7.399  18.620   3.330
32448W        W91742  33.956  37.045   0.788
32449W        W91743  42.917  10.202   4.236
32450W        W91744   5.196  33.379   2.373
32451W        W91745  13.267  36.565  11.025
32452W        W91746  42.327  30.453  12.001
32453W        W91747   8.402  24.623   0.889
32454W        W91748  13.267  17.222  10.436
32455W        W91749  17.716   1.900  13.431
32456W        W91750   8.739  28.646   2.754
32457W        W91751  18.089  18.608  12.356
32458W        W91752  41.899  34.935  14.464
32459W        W91753  42.438  17.152  12.557
32460W        W91754  29.483  41.940   2.760
32461W        W91755  12.228  30.525  10.450
32462W        W91756  35.086  36.018   3.799
32463W        W91757   4.206   8.209   3.665
32464W        W91758  39.925  39.389  12.979
32465W        W91759  23.517  17.175   3.740
32466W        W91760   8.351  37.371  11.538
32467W        W91761  38.545  19.773  11.464
32468W        W91762  21.111  26.464   3.858
32469W        W91763  35.512  35.050  12.993
32470W        W91764  41.031  28.961  13.935
32471W        W91765  29.575   8.318   1.444
32472W        W91766   8.357   8.892  12.881
32473W        W91767   1.480  17.738  13.514
32474W        W91768  37.913  43.893   2.866
32475W        W91769   9.153  29.665   9.661
32476W        W91770  32.960  10.746   2.861
32477W        W91771   0.870  20.678  10.494
32478W        W91772  22.664  15.109  10.513
32479W        W91773  40.547  40.006   2.847
32480W        W91774  11.317  16.132   2.207
32481W        W91775  22.738  14.611  10.922
32482W        W91776   4.836  10.337  14.284
32483W        W91777  30.644   8.666  12.387
32484W        W91778   3.251  37.366   3.295
32485W        W91779  11.679  32.961  12.364
32486W        W91780  28.048  10.339  14.338
32487W        W91781   9.308  29.627   3.836
32488W        W91782  37.454  40.513   0.907
32489W        W91783  28.067   0.284   3.254
32490W        W91784   2.328   0.312  13.024
32491W        W91785   1.383  21.724  13.459
32492W        W91786  21.623  23.147   1.808
32493W        W91787  30.989  14.148  14.333
32494W        W91788  36.876  30.434   3.747
32495W        W91789  43.939  40.001   0.926
32496W        W91790  19.760  29.563   0.727
32497W        W91791  38.377  10.668  10.967
32498W        W91792  15.820  29.940   1.359
32499W        W91793  34.018  36.555   4.756
32500W        W91794  44.858   4.789   5.701
32501W        W91795  12.689   0.823   2.255
32502W        W91796   2.238  36.474  10.983
32503W        W91797   0.886  35.993   1.263
32504W        W91798  42.497  14.751  11.034
32505W        W91799  10.367  20.658   0.786
32506W        W91800  19.273  21.154  11.907
32507W        W91801   6.714  18.586  13.908
32508W        W91802  25.656   8.689   0.746
32509W        W91803   6.405  16.079  12.533
32510W        W91804  26.551  27.023   3.204
32511W        W91805  25.022   6.309   0.768
32512W        W91806   8.733   0.294   1.760
32513W        W91807  24.231  40.044  12.001
32514W        W91808  18.552  14.607  11.474
32515W        W91809  44.929   2.232   2.730
32516W        W91810  23.232  44.922   3.197
32517W        W91811  42.958  40.493  11.575
32518W        W91812  14.639  34.014  10.974
32519W        W91813   2.962  42.965  11.406
32520W        W91814  35.898  19.698  12.456
32521W        W91815  43.288  22.600  12.891
32522W        W91816  27.154  25.589   1.440
32523W        W91817  29.126  42.023  10.461
32524W        W91818  18.258  22.250  14.766
32525W        W91819  13.166   4.290  12.929
32526W        W91820   9.218   6.910   0.440
32527W        W91821  26.043  33.512  10.564
32528W        W91822  41.461   9.806  13.390
32529W        W91823  31.484  39.924   9.539
32530W        W91824  33.095  38.013   2.230
32531W        W91825  42.982   7.727   4.713
32532W        W91826  38.550  41.395  10.421
32533W        W91827  19.707  28.452  13.341
32534W        W91828  16.607  20.106  13.424
32535W        W91829  24.076   7.300   9.569
32536W        W91830  21.619  29.022  12.893
32537W        W91831  18.754   4.707   3.696
32538W        W91832  19.689  41.015   4.136
32539W        W91833   8.736   7.694  12.533
32540W        W91834  41.297  19.137  10.914
32541W        W91835  13.319  21.063  14.399
32542W        W91836  10.701  36.909   0.839
32543W        W91837  33.433  36.095   0.849
32544W        W91838  31.434  14.163  12.002
32545W        W91839  24.138  42.840  10.418
32546W        W91840   6.367   1.934  11.957
32547W        W91841  23.086  42.450  13.974
32548W        W91842  26.200  42.509   0.948
32549W        W91843   8.864  24.099  12.995
32550W        W91844  23.490  23.038  11.592
32551W        W91845  13.208  13.736  11.554
32552W        W91846   6.247  28.540   0.396
32553W        W91847  42.340  13.617   4.631
32554W        W91848  13.181  17.695   2.792
32555W        W91849   7.232   4.891   2.853
32556W        W91850  37.521  41.370  10.614
32557W        W91851  33.966   4.729  13.925
32558W        W91852  19.671  41.354  14.892
32559W        W91853   5.207  32.967  11.080
32560W        W91854  43.978  36.551   0.878
32561W        W91855  28.015  24.083   1.304
32562W        W91856  33.574  26.664   2.902
32563W        W91857   3.827   2.258   2.809
32564W        W91858  30.522  33.097  14.416
32565W        W91859  36.919  38.032  10.953
32566W        W91860  25.682  23.145  13.841
32567W        W91861  24.187  32.516  12.415
32568W        W91862  31.519  39.012   0.805
32569W        W91863  32.905  38.861  14.864
32570W        W91864  12.847  43.391  12.474
32571W        W91865  42.025  29.992  14.893
32572W        W91866  33.909  35.991   3.222
32573W        W91867  10.813  42.871  14.943
32574W        W91868  41.901  34.999   4.658
32575W        W91869   5.285  35.576  11.908
32576W        W91870  22.746  26.047  13.891
32577W        W91871  12.218   7.739  13.942
32578W        W91872  40.489  23.550  12.095
32579W        W91873  18.239   5.711   1.718
32580W        W91874   1.336  15.128  11.482
32581W        W91875  13.633  22.626   2.726
32582W        W91876  11.717  18.581  11.552
32583W        W91877  40.928   9.660   3.173
32584W        W91878  18.749  30.514   1.405
32585W        W91879  26.490  14.807   3.697
32586W        W91880   0.801  34.600  14.966
32587W        W91881  43.003  11.821   1.306
32588W        W91882   5.789  26.015  13.422
32589W        W91883  12.796   8.867  12.560
32590W        W91884  25.180   0.441  13.937
32591W        W91885  41.033  40.953  14.910
32592W        W91886  17.768  32.071   1.866
32593W        W91887  17.299  27.104  12.024
32594W        W91888  38.414  36.380   1.746
32595W        W91889  10.758  28.650   4.348
32596W        W91890  43.451   5.258  12.348
32597W        W91891  37.518  38.542  13.813
32598W        W91892  16.229   9.236  12.010
32599W        W91893  19.690  42.389  13.495
32600W        W91894   1.866  37.977   3.253
32601W        W91895  16.619   4.439  10.888
32602W        W91896  14.290  31.999  11.499
32603W        W91897  20.117   1.897  11.430
32604W        W91898  11.373  28.620   9.999
32605W        W91899  25.549  36.411   4.619
32606W        W91900  32.609   8.246  13.873
32607W        W91901   8.832  15.782  11.043
32608W        W91902  33.398  22.708   1.822
32609W        W91903   2.875  22.643  12.355
32610W        W91904   7.380  30.624   9.454
32611W        W91905  22.028  39.337   3.752
32612W        W91906  36.381   4.727   0.790
32613W        W91907  38.832  40.003  12.016
32614W        W91908  23.680  23.699   2.321
32615W        W91909  14.762  19.586   2.807
32616W        W91910  12.332  34.108  11.860
32617W        W91911  15.292  16.782   1.292
32618W        W91912  33.513  44.004  10.424
32619W        W91913  33.620   9.190   0.336
32620W        W91914  41.352  35.095  11.607
32621W        W91915  29.157  32.954  11.091
32622W        W91916  42.912  12.225  11.392
32623W        W91917   9.172  12.237  11.413
32624W        W91918  17.134   3.226  12.037
32625W        W91919  31.090  22.535   0.378
32626W        W91920  20.145   8.269  11.490
32627W        W91921  26.208  35.573   0.872
32628W        W91922  39.968  40.464   3.645
32629W        W91923  39.885  22.670  14.421
32630W        W91924  19.190  32.518  10.985
32631W        W91925  24.194  40.507   0.390
32632W        W91926   7.403  28.509  10.429
32633W        W91927  21.556   0.963  12.858
32634W        W91928  33.089  44.907  10.982
32635W        W91929  24.505   6.355  11.001
32636W        W91930  28.618   5.903   4.794
32637W        W91931  10.287  37.078   1.308
32638W        W91932  12.750  27.606   1.439
32639W        W91933  36.890  41.816  12.002
32640W        W91934  30.467  25.115   4.677
32641W        W91935  27.156  35.053  14.328
32642W        W91936  17.594  30.935  13.894
32643W        W91937   2.722  31.565  11.475
32644W        W91938  14.324  30.421  13.855
32645W        W91939  15.147  15.327  13.055
32646W        W91940   8.854  36.434   3.285
32647W        W91941  21.167   0.881   5.312
32648W        W91942  41.297  27.177   0.377
32649W        W91943   7.850  22.151  13.959
32650W        W91944  22.059  42.804   4.158
32651W        W91945  11.668  25.962  13.497
32652W        W91946  40.023  35.391   0.362
32653W        W91947  19.254  34.439  12.012
32654W        W91948  42.292  22.026  13.982
32655W        W91949   6.259   2.274  12.387
32656W        W91950  22.627  32.628   4.134
32657W        W91951  37.939  13.299   4.138
32658W        W91952  16.259  28.646   2.386
32659W        W91953  29.092   8.880  10.444
32660W        W91954   4.450   8.733  11.387
32661W        W91955  34.982  32.549   1.778
32662W        W91956  23.176   2.846  14.942
32663W        W91957  37.560  30.066  12.011
32664W        W91958   6.277  18.666   0.292
32665W        W91959  22.065  24.678  14.427
32666W        W91960  33.965  21.628  13.446
32667W        W91961  29.999  36.461   2.364
32668W        W91962   2.816  36.468  13.973
32669W        W91963  38.555  35.944   1.445
32670W        W91964   1.478  28.942   0.315
32671W        W91965   9.331   5.715  10.569
32672W        W91966  31.104  23.186   1.411
32673W        W91967   3.796   5.799   3.288
32674W        W91968   0.411   8.698  10.544
32675W        W91969  13.614  26.647  10.117
32676W        W91970  20.673  25.624   1.707
32677W        W91971  19.757  43.996   4.168
32678W        W91972   0.749   6.189  10.451
32679W        W91973  15.192  35.424  14.440
32680W        W91974  36.028  33.900   1.787
32681W        W91975  31.076  28.985  11.873
32682W        W91976  12.201  35.373   3.767
32683W        W91977  42.386  25.552   0.907
32684W        W91978  26.697  24.564   1.728
32685W        W91979  22.619  25.199   4.132
32686W        W91980  18.666  28.042   3.792
32687W        W91981  41.364  40.853  10.479
32688W        W91982  23.069  40.385   3.846
32689W        W91983  29.938  42.460   2.416
32690W        W91984  16.126   6.838  11.558
32691W        W91985  37.475  29.154  14.494
32692W        W91986  11.780  24.981   5.163
32693W        W91987  15.633  40.472   1.797
32694W        W91988  36.978  16.789  14.990
32695W        W91989   7.900  10.313   1.278
32696W        W91990  27.163   4.919   1.272
32697W        W91991  14.170   5.388   4.658
32698W        W91992  20.677  19.193  11.890
32699W        W91993  12.794  35.859  11.570
32700W        W91994  35.945  27.941   0.360
32701W        W91995  34.869  34.893   0.807
32702W        W91996  30.480  41.843  14.917
32703W        W91997  40.889  16.261   2.790
32704W        W91998  14.796  19.079  13.826
32705W        W91999   6.714  43.271  11.926
32706W        W92000  31.502  33.081  13.505
32707W        W92001  43.342  16.813  14.953
32708W        W92002  28.024  35.577  14.504
32709W        W92003  12.237   6.210   2.854
32710W        W92004   2.281   5.730  11.861
32711W        W92005   9.211  41.458   0.378
32712W        W92006  15.166  17.173   3.278
32713W        W92007  24.183  28.067   1.269
32714W        W92008  24.601  14.229  13.435
32715W        W92009  44.483  14.620   2.675
32716W        W92010  41.968  41.019   1.930
32717W        W92011  20.072  22.582   2.775
32718W        W92012  13.350  44.279  11.468
32719W        W92013  26.602   9.648   4.194
32720W        W92014  32.942  39.453   2.672
32721W        W92015  22.088  10.826   4.672
32722W        W92016  10.322  12.225  13.942
32723W        W92017   2.430   9.849   4.769
32724W        W92018  11.636   9.206   3.257
32725W        W92019  10.843  14.222   3.769
32726W        W92020   3.223  26.094  12.440
32727W        W92021   4.914  42.312   2.334
32728W        W92022  15.215  41.364   4.784
32729W        W92023  44.870  21.034   0.884
32730W        W92024  31.603  36.471  11.488
32731W        W92025   3.789  27.049   2.334
32732W        W92026  26.525   4.716   2.390
32733W        W92027  14.295   9.202  12.838
32734W        W92028  32.122  22.205  11.892
32735W        W92029   0.295  29.498   3.307
32736W        W92030  12.829  25.157  12.869
32737W        W92031  16.720  35.949   0.888
32738W        W92032  24.602  41.005  12.453
32739W        W92033  29.963  31.426  10.628
32740W        W92034  23.079   5.354  10.928
32741W        W92035  32.400  25.483   4.123
32742W        W92036  38.954  18.101   2.695
32743W        W92037  35.366   3.253  14.917
32744W        W92038  40.472  24.484  12.385
32745W        W92039  28.663   2.869   4.748
32746W        W92040  40.914  27.543   4.642
32747W        W92041   5.719  25.171  11.393
32748W        W92042  44.953   1.427  11.460
32749W        W92043  19.623   8.856   1.742
32750W        W92044  24.046  40.433   3.704
32751W        W92045  22.168  22.714  12.052
32752W        W92046  44.263  26.610  14.840
32753W        W92047  13.319  26.578  10.420
32754W        W92048  23.555  22.035   4.244
32755W        W92049  33.997   3.301   1.782
32756W        W92050   5.391  31.648  11.511
32757W        W92051  20.616   7.758   2.737
32758W        W92052  26.505  42.912   0.939
32759W        W92053   6.203  15.166   4.134
32760W        W92054  26.563  11.673  11.610
32761W        W92055   8.850   1.966  13.904
32762W        W92056   5.352  25.597   3.334
32763W        W92057  43.510  23.698   4.245
32764W        W92058  31.031   3.810   2.778
32765W        W92059  40.850   4.302   3.826
32766W        W92060  18.078  26.105   2.777
32767W        W92061  22.576  36.980  12.898
32768W        W92062  15.715  29.453  10.936
32769W        W92063  32.984  22.084  12.404
32770W        W92064   1.792  38.498   3.303
32771W        W92065  32.520  34.983   3.671
32772W        W92066  27.148   8.686  14.813
32773W        W92067   1.839  35.940   1.310
32774W        W92068  13.688   0.277   2.184
32775W        W92069   4.283  35.531  10.437
32776W        W92070  35.391  29.127  13.409
32777W        W92071   1.255   8.673   4.125
32778W        W92072  36.413  13.764  10.454
32779W        W92073  26.559  23.705   0.963
32780W        W92074  12.617  19.582   5.318
32781W        W92075  16.755   5.883   2.298
32782W        W92076  10.682  40.534   0.474
32783W        W92077  22.132  36.007  12.887
32784W        W92078  11.752  19.723  11.516
32785W        W92079  29.556   6.379  11.403
32786W        W92080  33.604  25.656  11.589
32787W        W92081  38.461  41.835  14.821
32788W        W92082  41.967   4.940  11.459
32789W        W92083  38.933  36.467   2.314
32790W        W92084  22.183  39.993  13.497
32791W        W92085  33.391  14.757  13.341
32792W        W92086  19.709  31.555  12.548
32793W        W92087  24.109  16.730   0.473
32794W        W92088  14.265   0.802  11.111
32795W        W92089  19.224  34.932  14.326
32796W        W92090  31.597  11.358  12.446
32797W        W92091  30.031  20.744  12.866
32798W        W92092  43.767  13.761   2.801
32799W        W92093  30.539  31.966  10.409
32800W        W92094  37.351  42.491   1.740
32801W        W92095  23.607  10.258  12.562
32802W        W92096  13.624  34.094  14.986
32803W        W92097  18.698  16.184  11.402
32804W        W92098  16.654  15.210  12.374
32805W        W92099  36.066  17.598  13.398
32806W        W92100  29.933  30.132  13.440
32807W        W92101  10.875   1.455  13.870
32808W        W92102   2.320   5.755  10.021
32809W        W92103  13.611   7.734  11.129
32810W        W92104   4.880  14.111   3.830
32811W        W92105   3.282  15.324   3.278
32812W        W92106  25.490  41.326  12.481
32813W        W92107   3.377   9.241  14.009
32814W        W92108  11.302  32.069  14.454
32815W        W92109  25.501  29.983  14.395
32816W        W92110  15.673  22.743   2.300
32817W        W92111  35.556   4.207  11.980
32818W        W92112   8.816  10.252  13.029
32819W        W92113   8.388   3.732  10.941
32820W        W92114  18.609  17.597  14.468
32821W        W92115  20.547   8.863  11.442
32822W        W92116  22.072   6.375  14.909
32823W        W92117   0.879  37.046  12.961
32824W        W92118  36.498  12.633   1.412
32825W        W92119  11.347  31.086  14.498
32826W        W92120  26.613   0.416   2.749
32827W        W92121  17.211  16.300   4.661
32828W        W92122   8.757  24.649  10.524
32829W        W92123   3.945  24.534  11.449
32830W        W92124   3.783   4.825  13.920
32831W        W92125  43.955  41.301   2.806
32832W        W92126  27.187   9.288  11.959
32833W        W92127   8.855   4.371  10.034
32834W        W92128   7.246  24.641   2.716
32835W        W92129  40.473   6.733   0.939
32836W        W92130  27.484  39.028   1.895
32837W        W92131  40.374  29.107  12.995
32838W        W92132  25.130   5.891  12.477
32839W        W92133  19.048  14.249  14.783
32840W        W92134  39.451   6.428  12.083
32841W        W92135  14.686   8.270   3.788
32842W        W92136  30.602  36.042  11.053
32843W        W92137  33.474   4.210  11.495
32844W        W92138  40.948  37.524   1.223
32845W        W92139  38.488  39.882   1.287
32846W        W92140  44.328  38.490   2.293
32847W        W92141  23.532   1.806   4.141
32848W        W92142  31.023  30.978  10.961
32849W        W92143  25.061  26.039   4.799
32850W        W92144   1.856   7.411   3.234
32851W        W92145   5.724   4.237  11.034
32852W        W92146  15.666  11.184  11.394
32853W        W92147  27.596   2.828  11.124
32854W        W92148  28.661  44.330   4.299
32855W        W92149  21.673  24.060   1.882
32856W        W92150  38.549   9.272   0.367
32857W        W92151  28.468   3.420   4.306
32858W        W92152  33.983  21.142  11.446
32859W        W92153  14.625   8.251  10.933
32860W        W92154  10.632  19.163   1.219
32861W        W92155  42.809   6.739  13.423
32862W        W92156   7.872  39.065   0.781
32863W        W92157  12.774  30.486   4.163
32864W        W92158   9.178   6.717  13.485
32865W        W92159   9.665   9.661  12.564
32866W        W92160  16.777  41.346  14.429
32867W        W92161   2.238  36.098   1.223
32868W        W92162  10.255  10.688  13.942
32869W        W92163   3.712  35.454  13.958
32870W        W92164  35.040  25.508  12.849
32871W        W92165   3.416  31.147   4.116
32872W        W92166  24.481  10.157  14.869
32873W        W92167  24.643  36.011   2.181
32874W        W92168   0.871  18.138   2.785
32875W        W92169  25.563  15.668  11.410
32876W        W92170  37.841  35.947   3.650
32877W        W92171   5.345  11.281  10.555
32878W        W92172  27.197  22.729  11.000
32879W        W92173  16.097  24.145   4.617
32880W        W92174  31.917  28.126  13.998
32881W        W92175  24.502  28.995   2.309
32882W        W92176  22.200   1.343   2.229
32883W        W92177   8.227  31.489   2.237
32884W        W92178  34.511  33.874   4.142
32885W        W92179  34.437   4.411   0.941
32886W        W92180   7.864  40.979   0.453
32887W        W92181  13.121  14.598   0.378
32888W        W92182  11.367   1.749   2.288
32889W        W92183   7.342  38.966  14.508
32890W        W92184  43.276  32.957  11.922
32891W        W92185  23.580  11.847   9.469
32892W        W92186  44.465  37.342   0.467
32893W        W92187  31.052  17.604  14.997
32894W        W92188   4.401   2.309  11.471
32895W        W92189  42.403  14.288   1.281
32896W        W92190  20.664  19.245  14.862
32897W        W92191  43.342  23.985   3.172
32898W        W92192  17.115  30.080   2.681
32899W        W92193  29.004  13.664   1.793
32900W        W92194  41.512  19.657  14.377
32901W        W92195  37.427  28.178  13.502
32902W        W92196  38.537  42.365   2.789
32903W        W92197   5.826  14.807   2.258
32904W        W92198  22.161  21.223  14.366
32905W        W92199   4.896  12.233  14.408
32906W        W92200  35.372  35.913  11.070
32907W        W92201  22.529  37.387   1.335
32908W        W92202  31.436  20.040  11.861
32909W        W92203  38.342  40.344  13.416
32910W        W92204  34.527  24.576   1.844
32911W        W92205  15.784  31.431   0.268
32912W        W92206  17.751  33.953   4.694
32913W        W92207  11.764  36.015  10.592
32914W        W92208  20.640  23.708  12.481
32915W        W92209  24.128  34.547  12.007
32916W        W92210   1.305  41.355   4.770
32917W        W92211  26.486  18.763   2.329
32918W        W92212  26.503  31.101   0.776
32919W        W92213  16.756  36.399  11.933
32920W        W92214  37.977   3.292   0.379
32921W        W92215  24.687   7.712   0.353
32922W        W92216  22.112   7.814   9.619
32923W        W92217  24.680  37.578  13.451
32924W        W92218  19.658  30.053   4.331
32925W        W92219  36.921  32.073   2.322
32926W        W92220  18.259  18.233  12.066
32927W        W92221  13.287  16.297  12.390
32928W        W92222   6.407  27.192  10.139
32929W        W92223  29.462  29.008   0.307
32930W        W92224  20.540  12.291   4.696
32931W        W92225  27.037  14.187   3.745
32932W        W92226  33.070  16.652  13.903
32933W        W92227  43.846   1.363   2.888
32934W        W92228  37.881  33.467  14.341
32935W        W92229  17.130  28.986   0.285
32936W        W92230  22.245  15.682  11.403
32937W        W92231   8.683  19.133  11.934
32938W        W92232  17.232   3.257  11.600
32939W        W92233  12.847  21.715   3.209
32940W        W92234  19.076   6.262  14.466
32941W        W92235  21.133   8.286   3.643
32942W        W92236   9.248  32.910  14.326
32943W        W92237  11.856  17.197   9.946
32944W        W92238  17.775  29.016  12.004
32945W        W92239  38.833  16.308   3.253
32946W        W92240  26.965  25.515  11.606
32947W        W92241  40.404  35.443  12.373
32948W        W92242  24.102  13.151   4.181
32949W        W92243   2.828   9.792  13.510
32950W        W92244  13.344  18.726  13.002
32951W        W92245  12.286  42.343  14.796
32952W        W92246  10.764  38.553   0.477
32953W        W92247  34.054   5.828   1.885
32954W        W92248  20.700  12.795   1.806
32955W        W92249  19.170  31.616  12.864
32956W        W92250   3.831   9.177  10.935
32957W        W92251  32.959  43.363  11.458
32958W        W92252   7.849  12.220  14.886
32959W        W92253  30.417  28.563   0.942
32960W        W92254  31.061  19.181  11.963
32961W        W92255  26.187   4.375  11.429
32962W        W92256  31.903   6.758   1.780
32963W        W92257  24.171  21.621  12.393
32964W        W92258  35.879  25.600  10.493
32965W        W92259  28.059  26.992  12.546
32966W        W92260   9.848   5.825  14.472
32967W        W92261  42.516  39.029   0.340
32968W        W92262  10.755   8.762  14.985
32969W        W92263  11.754  27.552  13.400
32970W        W92264  15.733  38.054  11.412
32971W        W92265  35.393  32.061  10.514
32972W        W92266   3.281  27.580  12.578
32973W        W92267  33.879   6.311  14.472
32974W        W92268   9.770  15.122  13.493
32975W        W92269  16.212  43.951   3.321
32976W        W92270   6.326  25.015   4.599
32977W        W92271  27.978  36.378   3.734
32978W        W92272  30.469   2.891   0.372
32979W        W92273  36.366  39.376   4.604
32980W        W92274  17.148  36.403  14.412
32981W        W92275  41.368  35.369   4.756
32982W        W92276  27.164  26.163  14.872
32983W        W92277  25.517   2.919   2.238
32984W        W92278  38.033   8.363   3.351
32985W        W92279  23.207  35.589   0.244
32986W        W92280  26.080  27.519   2.348
32987W        W92281  36.399  19.155  13.836
32988W        W92282  39.863  28.045   2.350
32989W        W92283   5.714  28.546  12.944
32990W        W92284  30.593  38.875   0.365
32991W        W92285  35.450  32.435   3.232
32992W        W92286  33.487  33.562   3.697
32993W        W92287  38.463  29.119   1.281
32994W        W92288   7.278  13.610   4.179
32995W        W92289  14.266  20.535   2.773
32996W        W92290  11.647  42.024  10.903
32997W        W92291  17.564  26.486   5.185
32998W        W92292  41.880  17.211   9.978
32999W        W92293  24.184   1.844  12.384
33000W        W92294  28.080  14.715  13.942
33001W        W92295  14.158  21.172  10.961
33002W        W92296  43.299  26.654   2.412
33003W        W92297  37.388  29.162   4.350
33004W        W92298  10.657  20.202   3.847
33005W        W92299  28.108   1.408   0.429
33006W        W92300  37.517   6.320  13.416
33007W        W92301   4.780   6.348   3.741
33008W        W92302  35.373   3.902  11.962
33009W        W92303  15.222   8.265   0.872
33010W        W92304  13.132  30.489   5.659
33011W        W92305  13.232  20.158  13.045
33012W        W92306   5.817   0.481   1.842
33013W        W92307  38.004  12.343  13.919
33014W        W92308  26.576   1.393   1.437
33015W        W92309  35.010  42.328   1.866
33016W        W92310  22.606  38.877  14.870
33017W        W92311  37.885  14.258  11.901
33018W        W92312   9.752   4.917  14.945
33019W        W92313  18.156  16.102  13.037
33020W        W92314  19.644  43.336   0.428
33021W        W92315   9.154  26.203   2.400
33022W        W92316  27.666   6.836  12.892
33023W        W92317  39.315  16.699   3.150
33024W        W92318  38.895  37.486  14.927
33025W        W92319  23.057  41.474   4.240
33026W        W92320  40.828  24.081   3.225
33027W        W92321  36.555   3.301   1.696
33028W        W92322  13.794  40.960   4.697
33029W        W92323  12.281  36.531  12.922
33030W        W92324  34.026  18.778   2.674
33031W        W92325  27.010  34.453   3.685
33032W        W92326  17.796  14.701   4.271
33033W        W92327  19.268  30.648   2.878
33034W        W92328  38.390   7.346  11.400
33035W        W92329  10.363  24.668  10.941
33036W        W92330  20.604  25.643   4.598
33037W        W92331   1.888   0.268   5.651
33038W        W92332   9.183  28.482   0.327
33039W        W92333  30.550  24.631  11.116
33040W        W92334  43.877  28.019   0.311
33041W        W92335  18.278  38.015  13.883
33042W        W92336  20.555  30.155   1.242
33043W        W92337  32.999  34.496   3.195
33044W        W92338  21.135  21.023  14.864
33045W        W92339  24.485  25.025  14.856
33046W        W92340   7.893  17.129  13.980
33047W        W92341   9.307  19.176  13.915
33048W        W92342  19.775  30.438  11.059
33049W        W92343  37.905   9.693  12.090
33050W        W92344  44.352  12.658   0.421
33051W        W92345  19.629  22.536  12.565
33052W        W92346  25.161  23.239   0.386
33053W        W92347  24.635  40.841   2.773
33054W        W92348   8.263  10.647  13.376
33055W        W92349   4.356   0.849   4.161
33056W        W92350  28.548  42.509   5.127
33057W        W92351   2.905  23.143  14.476
33058W        W92352  21.753   3.274  12.491
33059W        W92353  29.079  20.210  13.854
33060W        W92354  32.403  38.498   2.665
33061W        W92355   7.746  17.084  11.100
33062W        W92356  25.674  36.841   4.680
33063W        W92357  24.543   9.351   3.366
33064W        W92358  27.998   3.329  10.035
33065W        W92359  23.231   8.885  14.031
33066W        W92360  23.062   0.802   3.298
33067W        W92361  25.640  40.384   4.300
33068W        W92362  14.236  33.079  14.277
33069W        W92363  17.295  28.533  11.490
33070W        W92364  15.110   2.869   3.302
33071W        W92365  11.849  21.656  13.526
33072W        W92366  25.017  39.363   3.870
33073W        W92367  11.370   0.422  11.439
33074W        W92368  38.355  33.882  12.500
33075W        W92369  28.989  28.115   4.733
33076W        W92370  44.431  15.323   1.708
33077W        W92371  42.299  37.540  12.918
33078W        W92372  40.931  16.622  12.829
33079W        W92373   8.837   7.399   0.845
33080W        W92374  41.305  32.036   0.743
33081W        W92375  15.236  28.091  14.878
33082W        W92376  21.615  18.636  12.089
33083W        W92377  29.059   7.711   0.844
33084W        W92378  36.917  22.222  12.566
33085W        W92379   9.355   4.338  13.979
33086W        W92380  18.626  16.176  11.005
33087W        W92381   6.361  35.897   2.405
33088W        W92382   4.424  13.814  10.418
33089W        W92383  31.002   2.368   0.808
33090W        W92384  28.143   3.850  12.484
33091W        W92385  42.927  15.323  13.448
33092W        W92386  44.401  44.890   2.747
33093W        W92387  36.969   9.268  10.498
33094W        W92388  23.149  16.104  12.999
33095W        W92389  44.872  26.575   3.325
33096W        W92390  26.961  20.219   2.229
33097W        W92391  24.205  17.593  11.441
33098W        W92392   7.692   3.909  11.026
33099W        W92393  28.041  30.612  13.819
33100W        W92394  21.216  38.411   0.803
33101W        W92395  26.977  15.156  14.437
33102W        W92396  23.665  15.619  13.340
33103W        W92397   3.715  27.602   2.886
33104W        W92398   5.422  14.833   0.346
33105W        W92399  24.982  32.930   3.315
33106W        W92400  42.920  41.813  10.994
33107W        W92401   4.277   0.974  13.997
33108W        W92402  24.558  10.656  10.898
33109W        W92403  17.114  25.131  13.318
33110W        W92404  44.780  18.675  13.978
33111W        W92405  10.748  20.221  10.967
33112W        W92406  36.019  33.009   3.654
33113W        W92407  23.181  16.681  13.815
33114W        W92408  18.057  30.046   3.251
33115W        W92409  37.989  32.613  11.570
33116W        W92410  35.981  10.736  13.892
33117W        W92411  39.414  17.709  14.359
33118W        W92412  33.393  23.043  13.047
33119W        W92413  22.719  38.328   1.393
33120W        W92414  26.114  27.053  11.969
33121W        W92415  27.540   5.846   0.362
33122W        W92416   9.297  30.967   4.704
33123W        W92417  16.183  37.892   0.795
33124W        W92418  35.368  14.161   5.196
33125W        W92419  34.017  41.501   4.698
33126W        W92420  32.530  26.663   4.164
33127W        W92421  16.289  33.567  10.415
33128W        W92422  34.968   7.396   0.333
33129W        W92423  17.138   4.381  10.958
33130W        W92424  37.440  26.563   4.722
33131W        W92425  19.137   5.321  11.504
33132W        W92426  27.086  22.141   0.958
33133W        W92427  35.025   4.844   4.144
33134W        W92428  25.481   8.365   0.358
33135W        W92429  38.063  43.835   1.775
33136W        W92430   9.372   0.373  14.792
33137W        W92431   4.287  29.985  10.898
33138W        W92432   3.916  29.432  12.056
33139W        W92433  20.626  24.102  14.871
33140W        W92434  16.129  18.219  14.970
33141W        W92435   6.882  28.985  11.447
33142W        W92436  13.319   9.278   2.769
33143W        W92437  12.135  42.825   3.352
33144W        W92438  38.434   9.857   3.288
33145W        W92439  19.777  38.837  11.871
33146W        W92440  25.656  42.964  12.570
33147W        W92441  20.030  33.880  12.835
33148W        W92442  34.009  30.525   0.755
33149W        W92443  44.911   7.769  14.920
33150W        W92444  11.240  33.621  11.012
33151W        W92445  23.658  44.917   0.949
33152W        W92446  27.997  22.656   2.355
33153W        W92447  31.492  30.568  10.531
33154W        W92448   8.226  32.897   4.134
33155W        W92449  10.644  19.557  13.856
33156W        W92450   7.401   8.863  13.360
33157W        W92451  16.102   7.755   0.322
33158W        W92452  33.017  43.900  13.380
33159W        W92453  20.718  28.120   4.330
33160W        W92454  27.014  34.909   0.302
33161W        W92455  37.896  33.070   0.386
33162W        W92456  14.736   5.332   4.647
33163W        W92457  36.533   9.290  11.855
33164W        W92458  43.363  26.661   0.366
33165W        W92459  44.350  26.101   1.434
33166W        W92460  23.708  24.636  12.870
33167W        W92461   9.888  13.717   0.440
33168W        W92462   7.695  15.811  10.538
33169W        W92463  15.232   9.749   0.932
33170W        W92464  14.687   4.306  10.605
33171W        W92465  36.090  13.194   5.153
33172W        W92466  34.020  33.037  11.025
33173W        W92467  14.591  18.131  12.033
33174W        W92468  26.091  29.027   4.138
33175W        W92469  42.318   5.255  14.939
33176W        W92470  36.423   1.383  13.511
33177W        W92471  20.149  10.173   4.218
33178W        W92472  17.100  15.206   3.651
33179W        W92473   6.913  40.949   3.837
33180W        W92474  40.032  36.071   1.433
33181W        W92475   2.801  41.029  14.765
33182W        W92476   4.214  30.006   4.765
33183W        W92477  17.661  35.932   4.692
33184W        W92478  41.854   2.393  10.587
33185W        W92479  13.831  41.958  10.511
33186W        W92480  43.818  28.503   2.761
33187W        W92481   3.827  44.471  11.050
33188W        W92482  23.115  31.054  12.368
33189W        W92483  37.985  13.669   4.184
33190W        W92484  14.594  25.574   3.715
33191W        W92485  25.526  44.505   2.401
33192W        W92486   1.832  36.527   5.180
33193W        W92487  35.912  22.718  11.870
33194W        W92488  18.296  30.637  13.513
33195W        W92489   3.925   6.907   3.809
33196W        W92490   4.922  16.694   0.477
33197W        W92491  29.543  42.483   4.259
33198W        W92492  37.009  44.409  11.962
33199W        W92493  15.665   0.282   2.315
33200W        W92494  35.603  21.143   2.683
33201W        W92495   5.436  14.283  12.393
33202W        W92496  26.513  17.156  12.349
33203W        W92497  28.665  42.395   1.806
33204W        W92498  28.097  26.965   0.396
33205W        W92499  14.590  29.974   2.222
33206W        W92500  30.419  32.606  13.881
33207W        W92501  19.262   9.296   4.192
33208W        W92502  42.937  13.792  12.371
33209W        W92503  13.113  14.153   1.753
33210W        W92504  13.258  38.909  14.955
33211W        W92505  32.463  23.158  12.391
33212W        W92506  14.710  44.385  14.468
33213W        W92507  22.060  17.203  13.936
33214W        W92508  19.553  40.798   0.909
33215W        W92509  25.601  39.430  10.503
33216W        W92510  39.855   1.910   1.419
33217W        W92511  17.286   8.385   0.825
33218W        W92512   0.493   7.730  11.067
33219W        W92513  16.279  11.361  14.395
33220W        W92514  34.506  22.562  12.346
33221W        W92515  41.808  41.405  12.035
33222W        W92516  19.159   4.700  10.515
33223W        W92517  24.625  16.217  12.045
33224W        W92518  31.135  27.085  12.454
33225W        W92519  22.711  30.058  11.975
33226W        W92520  38.869  11.746  12.925
33227W        W92521  42.785  14.206  14.918
33228W        W92522   0.769   0.376   4.730
33229W        W92523   0.388  32.116  13.889
33230W        W92524  39.472  30.628   1.793
33231W        W92525   9.878   9.157   2.282
33232W        W92526  16.676   0.887   0.913
33233W        W92527  16.129  37.865   4.276
33234W        W92528   5.874   9.837   1.355
33235W        W92529  36.887   1.476  13.831
33236W        W92530  43.942  17.602  11.507
33237W        W92531  13.183  38.897  12.848
33238W        W92532  35.584  19.594   1.322
33239W        W92533  14.817  13.825   0.742
33240W        W92534  28.048  19.746   2.228
33241W        W92535  11.310   1.911  13.848
33242W        W92536   2.268  32.118  13.406
33243W        W92537  18.238  38.406  11.596
33244W        W92538   2.371  41.528  10.525
33245W        W92539  33.587  12.278  14.888
33246W        W92540  26.519  32.950  11.053
33247W        W92541  36.354  30.543  12.555
33248W        W92542  11.342  22.118  14.470
33249W        W92543  42.876  31.634   0.862
33250W        W92544  34.883  29.513   1.731
33251W        W92545  15.158  19.124  13.940
33252W        W92546  20.573  10.241  13.948
33253W        W92547  34.949  36.593  10.644
33254W        W92548  30.108  23.160  13.793
33255W        W92549  41.481   9.333   3.748
33256W        W92550  42.025  29.167  12.998
33257W        W92551  28.934   8.686  13.913
33258W        W92552  24.154  34.963  14.951
33259W        W92553  32.507  29.572  11.956
33260W        W92554  33.424   9.367   3.801
33261W        W92555  34.925  35.518  13.032
33262W        W92556  16.257  39.502  13.893
33263W        W92557  38.887  30.023  10.408
33264W        W92558   9.759  31.982  10.928
33265W        W92559  27.962  32.942   4.694
33266W        W92560  10.242  32.411   1.915
33267W        W92561  13.707  13.196   3.279
33268W        W92562  39.907  33.430  14.939
33269W        W92563  14.801  17.229  13.486
33270W        W92564  32.573  38.072  12.477
33271W        W92565  20.263  20.264   5.722
33272W        W92566  30.156   8.745  13.383
33273W        W92567   1.953   4.829   3.777
33274W        W92568  25.570  12.791   1.333
33275W        W92569  10.253  20.043  12.054
33276W        W92570  34.012  23.065  13.374
33277W        W92571  22.536  29.053  14.495
33278W        W92572  24.178   0.345   1.307
33279W        W92573  41.817   7.301  12.962
33280W        W92574  26.030  27.639  14.320
33281W        W92575   2.891   2.896  11.939
33282W        W92576  17.764  29.987   0.739
33283W        W92577  34.947   4.725   0.861
33284W        W92578  16.090   8.766   4.711
33285W        W92579   4.334  33.619   3.738
33286W        W92580  27.149  27.982  14.396
33287W        W92581  24.539  25.121   4.255
33288W        W92582  44.464  10.779   4.658
33289W        W92583   4.864  26.200   2.867
33290W        W92584   6.836  41.967  10.501
33291W        W92585  42.775  10.779   3.149
33292W        W92586  23.706   7.899   4.126
33293W        W92587  42.869  43.874   5.780
33294W        W92588   6.403  24.060  14.794
33295W        W92589  16.243   7.390   2.873
33296W        W92590   7.779  38.869   3.678
33297W        W92591   0.935  40.314   5.281
33298W        W92592   4.708  19.621   0.306
33299W        W92593  35.035  38.337   3.870
33300W        W92594  12.792   3.409   2.331
33301W        W92595   5.356  44.827   4.805
33302W        W92596  32.966  23.212   0.742
33303W        W92597   2.816  15.099   4.350
33304W        W92598  28.142   2.445   1.834
33305W        W92599   3.437  32.093   4.777
33306W        W92600  25.080  10.687   0.344
33307W        W92601  39.494   1.398  14.382
33308W        W92602  24.229  25.602  10.561
33309W        W92603  17.282  37.350   4.819
33310W        W92604  25.047  21.694   0.314
33311W        W92605  27.567   2.447   3.833
33312W        W92606   2.912  24.637  13.824
33313W        W92607   6.877  32.477   0.749
33314W        W92608   6.338   5.402   1.886
33315W        W92609   5.324  29.435  12.470
33316W        W92610  25.029  34.384   1.316
33317W        W92611  33.119  38.940   2.699
33318W        W92612  20.545  23.211  10.537
33319W        W92613  44.939  14.261  14.972
33320W        W92614  20.201  37.085  12.056
33321W        W92615   8.184   5.809   2.207
33322W        W92616  29.652  28.051  13.544
33323W        W92617  13.271  12.139  10.473
33324W        W92618   5.752  19.102   2.899
33325W        W92619  39.393   7.762  13.529
33326W        W92620   1.370  16.290  13.453
33327W        W92621   2.945  30.988  13.943
33328W        W92622  32.981   0.949  12.859
33329W        W92623  17.225  25.138   0.297
33330W        W92624  14.685  12.206  14.830
33331W        W92625  34.076  38.415  13.003
33332W        W92626  17.690  31.961   0.935
33333W        W92627  22.538  23.082   3.290
33334W        W92628  43.462  29.454   4.321
33335W        W92629  41.897   9.822   0.762
33336W        W92630  34.504  34.010  12.839
33337W        W92631  28.519  39.317   0.939
33338W        W92632  31.967  42.416  14.459
33339W        W92633  33.094  41.012   3.702
33340W        W92634  19.731   1.817   3.278
33341W        W92635  23.131   9.242   1.780
33342W        W92636  19.618  12.314   2.326
33343W        W92637  41.931  13.729   2.851
33344W        W92638  22.692  43.282  10.522
33345W        W92639  38.362  20.255   3.210
33346W        W92640  15.786   3.921  12.998
33347W        W92641  30.489  38.382  10.628
33348W        W92642   8.665  41.820  10.487
33349W        W92643  14.183  11.855  11.918
33350W        W92644  15.622  12.754   0.757
33351W        W92645  29.029   6.711  11.898
33352W        W92646  20.568  26.659   3.768
33353W        W92647  21.557   8.673  10.087
33354W        W92648  40.391   2.443  12.548
33355W        W92649  33.506  41.414   2.373
33356W        W92650  34.903   8.884  12.550
33357W        W92651  26.959  13.144   2.377
33358W        W92652  27.137  44.335  10.520
33359W        W92653  10.184   1.960  12.939
33360W        W92654  42.789  36.028   1.728
33361W        W92655  15.668  39.953  13.515
33362W        W92656  30.049  35.032   3.736
33363W        W92657  30.432   7.290  10.942
33364W        W92658  25.148  36.401  14.931
33365W        W92659   2.894   5.833   4.816
33366W        W92660   3.865  39.331  10.922
33367W        W92661  20.212  40.400   3.733
33368W        W92662  44.956  30.573  10.908
33369W        W92663  31.968   8.686   3.200
33370W        W92664  23.050  26.973  11.957
33371W        W92665  21.564  28.508  14.396
33372W        W92666  32.998   7.871  13.372
33373W        W92667  39.025   2.866   0.957
33374W        W92668  21.573  36.399  12.430
33375W        W92669  19.061  17.558  10.482
33376W        W92670  18.729  35.574  14.332
33377W        W92671  12.124  28.652   0.957
33378W        W92672  22.596  42.381  13.008
33379W        W92673  43.017   3.913  14.499
33380W        W92674  25.125  43.295  14.933
33381W        W92675  21.061  26.981   0.478
33382W        W92676  19.256  20.246   2.193
33383W        W92677  15.155  33.454   4.745
33384W        W92678  41.448  40.013   4.173
33385W        W92679   1.816  38.521  13.004
33386W        W92680  20.706   7.699   0.427
33387W        W92681   7.192  25.693  13.059
33388W        W92682  22.672  21.734  12.505
33389W        W92683  27.553   6.682   0.251
33390W        W92684  22.562  13.223  13.413
33391W        W92685  14.735   6.701   1.863
33392W        W92686  22.215   3.333  10.950
33393W        W92687  28.443  14.164  13.370
33394W        W92688  34.455  37.529   0.296
33395W        W92689  10.312  23.143   4.149
33396W        W92690  27.104  25.157   4.749
33397W        W92691  27.196  11.867  13.841
33398W        W92692   1.773  42.304   0.264
33399W        W92693  35.081  22.580   2.228
33400W        W92694  39.025  17.109   2.797
33401W        W92695  41.473  43.821  11.494
33402W        W92696  28.105  27.107   0.957
33403W        W92697  24.113  19.226  13.870
33404W        W92698  25.651  16.745  10.407
33405W        W92699  30.650  41.007   0.908
33406W        W92700  21.041   1.397  10.994
33407W        W92701  13.651  13.295   1.855
33408W        W92702  23.551  40.865  14.011
33409W        W92703  40.497  18.625   4.629
33410W        W92704  35.910  13.712  10.406
33411W        W92705  20.623  16.759   1.349
33412W        W92706   7.890  38.900   3.207
33413W        W92707  11.694  33.875  12.042
33414W        W92708  44.273  22.206   2.290
33415W        W92709  10.193   0.874  14.896
33416W        W92710  18.074  12.754  12.432
33417W        W92711  39.351  26.536   1.353
33418W        W92712  36.878  26.542  11.578
33419W        W92713  11.720  22.635  14.405
33420W        W92714   1.457  12.243   2.234
33421W        W92715   0.409  24.156  13.859
33422W        W92716  39.325  41.792   1.800
33423W        W92717  18.667  14.745   1.867
33424W        W92718  32.596  27.013  13.431
33425W        W92719  27.453  36.410  10.496
33426W        W92720  40.979  26.136   3.749
33427W        W92721   7.245  31.428   0.959
33428W        W92722   8.387  41.381  14.351
33429W        W92723  24.524  40.938  13.406
33430W        W92724   6.870  21.135   2.771
33431W        W92725  27.649  31.955   2.779
33432W        W92726  43.877  19.273   0.371
33433W        W92727  15.688  21.596  12.845
33434W        W92728  41.443  24.034   5.226
33435W        W92729  40.532  27.511  14.787
33436W        W92730  33.107  35.865   0.857
33437W        W92731  19.674   9.245   4.293
33438W        W92732  33.105  30.960   2.178
33439W        W92733  37.415   3.714  10.607
33440W        W92734  17.673  33.079   2.773
33441W        W92735  40.897  31.944  12.980
33442W        W92736  17.270  13.349  13.961
33443W        W92737  14.822  43.427   2.668
33444W        W92738  44.280  14.714   0.457
33445W        W92739  36.487  17.559  13.853
33446W        W92740  31.059   5.233  10.511
33447W        W92741  29.530  11.704   4.823
33448W        W92742  10.670   5.297  13.892
33449W        W92743   3.278  39.907   1.892
33450W        W92744  14.286  27.943  12.029
33451W        W92745  11.232   2.898   4.603
33452W        W92746  29.612  28.151   1.835
33453W        W92747  26.697  39.881   1.753
33454W        W92748   6.328  23.644   4.258
33455W        W92749  33.599   6.772  14.319
33456W        W92750  39.991  38.843  10.429
33457W        W92751  43.275  37.947  14.511
33458W        W92752   6.821  14.322  12.403
33459W        W92753   8.401  29.918   0.750
33460W        W92754  41.435  22.097   1.915
33461W        W92755   1.340  11.285  14.514
33462W        W92756  11.273  25.058   4.737
33463W        W92757  41.296   9.321  10.933
33464W        W92758  26.119   2.900  10.963
33465W        W92759  42.306   2.270  13.985
33466W        W92760  25.122  12.840   2.357
33467W        W92761  40.498  24.131   0.820
33468W        W92762  27.184  19.705  11.946
33469W        W92763  32.983  18.246  11.989
33470W        W92764  39.317  34.513  13.802
33471W        W92765  28.542   8.387   2.792
33472W        W92766   9.818   0.488  13.880
33473W        W92767  10.173  40.403  13.003
33474W        W92768   2.404  14.711  12.936
33475W        W92769  34.095  12.152  11.405
33476W        W92770  36.546  34.030  10.155
33477W        W92771  34.938   8.774  13.020
33478W        W92772  32.127  33.388   3.699
33479W        W92773   8.672  39.853  11.011
33480W        W92774  44.947  31.966   1.694
33481W        W92775  43.423  12.759   2.208
33482W        W92776  42.800   7.789  10.513
33483W        W92777   0.369  29.030  14.881
33484W        W92778  32.890  23.073  14.970
33485W        W92779  24.130  14.200  14.031
33486W        W92780  20.171  37.848   3.222
33487W        W92781   4.340  11.140  14.329
33488W        W92782  31.063  28.041  10.505
33489W        W92783  27.616  12.234  14.859
33490W        W92784  24.649  27.995  10.966
33491W        W92785  38.497  38.414   3.853
33492W        W92786  26.104  23.590   4.832
33493W        W92787   4.905   4.793  12.944
33494W        W92788  17.301   6.708   3.302
33495W        W92789  17.637  21.559   4.754
33496W        W92790  13.762   4.370   0.841
33497W        W92791  41.994  34.965  11.017
33498W        W92792  19.197  21.739  13.008
33499W        W92793  13.181  41.016  14.456
33500W        W92794  42.797  12.311   4.617
33501W        W92795  13.832  32.545  12.381
33502W        W92796   0.832  27.455  13.937
33503W        W92797  42.906  13.686   4.664
33504W        W92798  33.566  42.506  12.353
33505W        W92799  19.588  13.136   4.231
33506W        W92800  12.225  20.058   3.650
33507W        W92801  13.644  41.883  12.574
33508W        W92802   8.301  13.144   3.819
33509W        W92803  29.642  19.278  10.967
33510W        W92804  42.001  13.723   2.293
33511W        W92805   4.940   5.427  13.016
33512W        W92806   8.701   5.805  11.992
33513W        W92807  12.845  29.061   3.801
33514W        W92808   8.362  17.185   4.821
33515W        W92809  13.717  28.436   1.409
33516W        W92810   7.199  16.671   4.148
33517W        W92811  43.322  40.461   4.239
33518W        W92812  35.021  10.872  13.926
33519W        W92813  12.814  35.863  10.627
33520W        W92814  30.983   7.889  12.470
33521W        W92815  36.388  31.021   2.339
33522W        W92816  23.133  42.424   3.842
33523W        W92817  32.917  19.696   3.315
33524W        W92818  31.484  22.207  12.482
33525W        W92819  35.548  44.304  13.395
33526W        W92820  27.016  26.196  11.383
33527W        W92821  16.189   8.865  14.819
33528W        W92822  28.539   5.793   2.240
33529W        W92823  36.040  16.294  11.596
33530W        W92824  41.523  11.828  10.950
33531W        W92825   5.877   6.255  13.333
33532W        W92826  12.789   9.742  11.102
33533W        W92827  21.024  21.513   4.180
33534W        W92828   8.830   3.379  12.079
33535W        W92829   2.373  35.107  14.416
33536W        W92830  43.997  35.000   3.214
33537W        W92831  38.016  29.487   3.772
33538W        W92832  40.835  43.894   4.277
33539W        W92833  19.090  28.650  14.370
33540W        W92834  41.944  25.484  11.459
33541W        W92835  36.921   8.852  13.921
33542W        W92836  26.618   2.315   3.774
33543W        W92837  16.089  12.634  10.027
33544W        W92838  19.087  18.143  13.813
33545W        W92839  42.986  33.026  14.389
33546W        W92840  28.449  33.458  14.348
33547W        W92841  25.533  28.939   2.883
33548W        W92842  26.508  29.097  13.847
33549W        W92843  24.973   5.738   2.249
33550W        W92844  23.676  43.921  14.367
33551W        W92845  29.077   9.770  14.343
33552W        W92846   4.219  25.530   2.668
33553W        W92847   0.844  38.832  13.856
33554W        W92848  29.556  24.593   2.373
33555W        W92849  10.352  27.063   0.904
33556W        W92850  27.062  27.488   4.731
33557W        W92851  20.695  13.267  12.541
33558W        W92852  37.965  36.093   0.350
33559W        W92853  11.339  36.356  13.939
33560W        W92854  17.786  33.452  12.388
33561W        W92855  31.977  20.056   2.306
33562W        W92856  18.638  22.673  13.040
33563W        W92857   6.775  27.169  14.476
33564W        W92858  32.988  11.291  10.589
33565W        W92859  20.622  38.964   4.151
33566W        W92860  17.736  28.126   3.696
33567W        W92861  42.331  28.532  14.826
33568W        W92862   7.316  13.226   3.255
33569W        W92863  40.014   0.952   5.118
33570W        W92864  38.932   2.428   4.600
33571W        W92865   3.321  18.076  11.882
33572W        W92866  38.931   4.772   0.427
33573W        W92867   4.437  25.512  14.451
33574W        W92868  31.102  16.700  14.032
33575W        W92869  26.689  24.039  14.316
33576W        W92870  31.576  36.097   3.233
33577W        W92871  28.533  15.688   0.323
33578W        W92872  21.076   1.965   2.824
33579W        W92873  25.624  26.115   3.168
33580W        W92874  20.149  40.872  11.956
33581W        W92875  40.990  17.078  13.535
33582W        W92876  43.934  20.765   3.841
33583W        W92877   7.410  28.016  11.584
33584W        W92878  43.364  35.871   4.730
33585W        W92879   8.786   9.272   3.246
33586W        W92880   0.850  42.896  13.047
33587W        W92881   2.722  10.761  10.914
33588W        W92882  34.961  30.103  13.856
33589W        W92883  24.196  44.802   1.273
33590W        W92884  21.097  24.585   3.162
33591W        W92885  43.980  27.180   3.293
33592W        W92886   8.188   7.840  11.046
33593W        W92887  43.872  36.893  11.582
33594W        W92888  34.033  32.051   1.331
33595W        W92889  10.674  23.238  11.129
33596W        W92890  17.118   9.167   1.268
33597W        W92891  29.487   7.257   0.310
33598W        W92892   6.740   4.893  12.989
33599W        W92893  11.307  29.481   2.267
33600W        W92894  22.084  34.982  13.991
33601W        W92895   3.352  31.625   3.195
33602W        W92896  37.988   7.221  12.340
33603W        W92897  15.611  22.085   3.669
33604W        W92898  14.593  37.953   3.309
33605W        W92899  29.114  27.157   3.817
33606W        W92900  13.693  15.136   1.932
33607W        W92901  31.515   2.406   4.245
33608W        W92902  42.789  14.729   5.144
33609W        W92903   1.237  35.556  14.891
33610W        W92904  40.992  21.603  11.905
33611W        W92905  30.509  24.085  10.578
33612W        W92906   4.821  17.593  10.457
33613W        W92907  15.620  39.815  11.109
33614W        W92908  10.250  11.825   0.737
33615W        W92909  28.458  38.340  13.332
33616W        W92910   9.334  14.590  14.923
33617W        W92911  24.631  23.551   4.300
33618W        W92912  10.783  14.307   3.261
33619W        W92913   2.786  37.537   2.319
33620W        W92914  44.446  17.640  13.861
33621W        W92915  38.040  25.217  11.422
33622W        W92916  34.981  38.375   2.812
33623W        W92917   1.785  11.134   3.864
33624W        W92918  28.972  30.924   2.842
33625W        W92919  28.457   2.451  14.024
33626W        W92920  23.233  33.031   4.300
33627W        W92921  25.998  25.688   4.699
33628W        W92922   6.882  12.825   3.777
33629W        W92923   6.271   8.849   4.129
33630W        W92924   5.855  41.817   4.159
33631W        W92925  30.136  40.007  12.915
33632W        W92926  22.676  42.321   1.380
33633W        W92927  10.844  27.017   3.287
33634W        W92928  12.817  26.460   4.330
33635W        W92929   3.810  18.617   0.285
33636W        W92930   1.351  18.132   4.253
33637W        W92931  29.655  24.520  12.956
33638W        W92932  39.457  27.463   4.351
33639W        W92933  43.795  39.366   1.337
33640W        W92934   4.867  14.149  14.371
33641W        W92935  37.035  41.868  13.534
33642W        W92936  18.616  18.727   2.827
33643W        W92937  33.472  42.834   0.374
33644W        W92938  13.289   9.298  13.852
33645W        W92939  39.483  37.892   4.631
33646W        W92940  15.657  17.767   2.277
33647W        W92941  27.448  27.602   2.787
33648W        W92942   8.742  22.176  13.421
33649W        W92943  27.491  29.544  14.883
33650W        W92944   9.769  16.264   4.230
33651W        W92945  13.755  19.738  14.459
33652W        W92946   5.425  38.542   2.375
33653W        W92947   2.411  13.226  13.819
33654W        W92948  13.793   5.238   0.308
33655W        W92949  35.467  17.634  12.342
33656W        W92950  11.839  28.156  12.061
33657W        W92951  16.292   5.704   0.936
33658W        W92952  15.265   2.798  11.463
33659W        W92953  30.000  28.500  12.473
33660W        W92954   6.186  24.711   2.790
33661W        W92955  36.464  42.999  10.110
33662W        W92956  17.178   9.811   3.858
33663W        W92957  32.065  40.000  14.829
33664W        W92958  19.164   3.268  14.406
33665W        W92959  29.958  28.165  14.978
33666W        W92960  31.094  19.769   3.155
33667W        W92961   6.781  27.035  12.541
33668W        W92962  19.641  35.078   2.294
33669W        W92963  14.153  16.314   0.964
33670W        W92964  18.136  31.638   2.316
33671W        W92965  24.132  15.605   4.759
33672W        W92966  22.714  34.438   1.760
33673W        W92967  31.971   7.401   9.527
33674W        W92968   4.717   1.944   4.780
33675W        W92969  35.360  34.912   1.408
33676W        W92970  37.552  22.013   0.951
33677W        W92971  18.165  31.635  14.868
33678W        W92972  31.906   7.907  12.556
33679W        W92973  21.681  18.748   3.786
33680W        W92974  36.527  20.595  13.060
33681W        W92975  12.164  41.339  13.020
33682W        W92976   8.378  32.056   1.768
33683W        W92977  27.560  34.548  14.414
33684W        W92978  27.453  42.019   1.744
33685W        W92979  37.979  36.848  13.039
33686W        W92980  16.182   1.242  10.898
33687W        W92981  15.259   6.710  10.503
33688W        W92982  32.576  14.671   1.243
33689W        W92983  36.071  13.625  12.434
33690W        W92984  42.397   7.271   4.675
33691W        W92985   1.319  38.377   0.729
33692W        W92986  19.678  31.600   1.272
33693W        W92987  21.582  37.534  10.535
33694W        W92988  10.656  21.635  11.581
33695W        W92989   8.765  30.004   2.369
33696W        W92990  18.673  37.496  13.508
33697W        W92991   7.235  19.059   3.191
33698W        W92992  33.056  17.302  12.908
33699W        W92993  40.508  35.436  12.952
33700W        W92994  17.297  27.172   4.322
33701W        W92995  14.729   2.763   2.189
33702W        W92996  12.642  12.276  13.823
33703W        W92997  44.889  41.877   0.463
33704W        W92998  39.386  27.173   3.838
33705W        W92999  20.261  16.145   4.676
33706W        W93000  24.226   6.921  13.043
33707W        W93001  39.000  28.572   2.890
33708W        W93002   6.219  44.431   3.386
33709W        W93003   1.341  21.087  11.373
33710W        W93004  12.654  29.445   2.826
33711W        W93005  42.964  23.143   4.320
33712W        W93006   2.754   6.747  12.925
33713W        W93007  10.379  36.457   4.325
33714W        W93008  29.929  40.350   2.760
33715W        W93009   5.808  43.365  12.040
33716W        W93010  42.915  29.520  14.840
33717W        W93011  22.156  32.427  11.974
33718W        W93012  20.256  26.651   2.198
33719W        W93013  32.056  43.295   4.644
33720W        W93014  30.988  19.621   4.746
33721W        W93015  33.901  42.961   1.802
33722W        W93016   7.799  32.596   2.255
33723W        W93017  12.792  26.080  13.870
33724W        W93018  30.455   9.172  14.459
33725W        W93019  16.170   4.336   2.390
33726W        W93020  13.158  34.445  12.069
33727W        W93021  44.362  21.716   3.151
33728W        W93022  10.175  44.382   2.893
33729W        W93023  18.756  43.330  14.030
33730W        W93024  12.825   2.904  13.498
33731W        W93025  15.798  29.141   0.727
33732W        W93026  39.909  12.149  10.509
33733W        W93027  13.728   1.953   4.836
33734W        W93028  25.053  11.133  14.939
33735W        W93029   5.347  34.040  11.921
33736W        W93030  15.623   5.379   2.262
33737W        W93031  14.834  40.975  14.363
33738W        W93032  31.474  23.231  11.493
33739W        W93033  41.538  26.134  11.094
33740W        W93034  21.125  33.038  11.995
33741W        W93035   8.296  33.407  11.462
33742W        W93036   6.377  12.762   3.718
33743W        W93037  38.982  37.942  12.011
33744W        W93038  21.604  31.066   2.219
33745W        W93039   4.802  14.667  14.317
33746W        W93040  41.519  10.306  10.924
33747W        W93041  25.041  44.397   2.857
33748W        W93042  44.281   2.862  11.372
33749W        W93043  33.503  25.550   2.184
33750W        W93044   7.710  24.167  11.454
33751W        W93045  21.673  44.466   1.747
33752W        W93046  31.615  29.002   2.232
33753W        W93047  39.543   6.762  11.481
33754W        W93048  28.043  25.517   2.240
33755W        W93049  44.962  34.111   3.714
33756W        W93050  12.774  26.635   3.843
33757W        W93051  39.463  17.094   4.279
33758W        W93052  26.518  37.875  13.398
33759W        W93053  37.370  26.523  12.084
33760W        W93054  26.125  30.955  14.446
33761W        W93055   3.403  36.365   0.943
33762W        W93056   3.799  11.152  14.277
33763W        W93057   4.730  34.017  11.117
33764W        W93058  24.119   9.860   4.325
33765W        W93059  26.017  29.669   2.709
33766W        W93060  24.227  15.820  10.561
33767W        W93061   5.791  28.581  12.532
33768W        W93062  10.827  25.477   0.408
33769W        W93063  41.517  44.827   2.234
33770W        W93064  15.114  39.434   0.794
33771W        W93065  21.535  13.347   2.202
33772W        W93066   6.858   0.794   2.732
33773W        W93067  13.726   8.385  12.021
33774W        W93068  11.300  32.075  10.464
33775W        W93069  21.616  15.254  11.494
33776W        W93070  25.472  20.047  12.407
33777W        W93071  26.042  33.986  14.452
33778W        W93072   2.374  26.164   3.632
33779W        W93073  35.892  17.682  10.633
33780W        W93074   7.256   2.392   5.228
33781W        W93075  40.495   0.789  11.945
33782W        W93076  24.182   4.418  13.472
33783W        W93077  40.797   2.235  11.991
33784W        W93078  12.776  30.528   3.154
33785W        W93079  33.948  38.472  10.460
33786W        W93080  12.773   1.754  10.463
33787W        W93081  39.812  20.591   2.409
33788W        W93082  28.012  38.344  12.559
33789W        W93083   3.743   7.765   0.878
33790W        W93084   8.783  22.586  13.892
33791W        W93085   0.939  43.782   1.846
33792W        W93086  26.513  42.887  12.864
33793W        W93087  10.150  16.708  11.122
33794W        W93088  20.244  13.634  13.981
33795W        W93089  11.700  40.532  11.104
33796W        W93090  10.728  19.762   2.281
33797W        W93091  33.418  33.412   5.084
33798W        W93092  42.895  11.801  13.328
33799W        W93093  13.806  22.049   1.428
33800W        W93094  20.108  44.471  13.016
33801W        W93095  19.728  29.984  12.062
33802W        W93096  37.366  24.045  11.413
33803W        W93097  14.286  10.370  12.415
33804W        W93098   5.273  36.376   2.702
33805W        W93099  44.994  30.487  12.994
33806W        W93100   3.947  17.215   3.258
33807W        W93101  38.940  13.693   1.244
33808W        W93102   8.860  38.538  11.934
33809W        W93103  10.761  12.789   2.717
33810W        W93104  35.006  30.005   3.180
33811W        W93105  30.086  37.908   3.768
33812W        W93106   7.378   8.201  11.467
33813W        W93107  27.541  29.526  13.534
33814W        W93108  37.073  18.196   1.425
33815W        W93109  35.969   5.896  14.758
33816W        W93110  32.909  40.470  11.998
33817W        W93111  44.338  42.812  10.449
33818W        W93112   0.492  27.972   0.937
33819W        W93113  26.519   0.795   0.455
33820W        W93114   1.370  26.538  13.861
33821W        W93115  39.489  11.144   2.228
33822W        W93116  42.859  15.183   1.828
33823W        W93117  33.064  40.883   2.894
33824W        W93118  10.725  23.735   2.893
33825W        W93119  37.019  12.223  14.814
33826W        W93120  14.829  33.532  13.469
33827W        W93121  31.077  19.677   1.809
33828W        W93122  22.141  19.661  13.802
33829W        W93123  44.755   9.159  13.483
33830W        W93124  39.954  16.781   3.658
33831W        W93125   2.806   2.818  10.908
33832W        W93126  22.189   8.697  14.950
33833W        W93127  42.460  30.416  10.422
33834W        W93128  17.711   1.840  11.475
33835W        W93129  40.936   6.710   1.341
33836W        W93130  11.808  35.545  11.386
33837W        W93131  27.192  14.266   4.760
33838W        W93132  25.530  43.466   0.351
33839W        W93133  24.082  29.112  10.078
33840W        W93134   0.248  34.955  12.496
33841W        W93135  35.459  36.925   4.209
33842W        W93136  17.775   4.437   1.908
33843W        W93137  40.545  22.079  12.008
33844W        W93138  18.701  33.578  14.820
33845W        W93139   3.851  33.512   4.806
33846W        W93140  18.072  44.373   2.251
33847W        W93141  27.557  16.224   0.903
33848W        W93142  40.860   8.194   1.331
33849W        W93143  30.592  37.855  13.895
33850W        W93144  42.964  25.547  13.793
33851W        W93145  20.033  43.874   0.348
33852W        W93146   4.421  37.367  14.906
33853W        W93147  37.543  15.113  11.962
33854W        W93148   5.199  39.414   3.205
33855W        W93149   6.247  37.921   3.361
33856W        W93150   6.289  38.944  11.988
33857W        W93151  28.981   8.723   1.741
33858W        W93152   3.894   0.853   4.760
33859W        W93153  12.308  44.453  10.625
33860W        W93154  30.623  16.166   0.789
33861W        W93155  25.540   1.838   9.933
33862W        W93156  18.176  41.377   4.628
33863W        W93157  29.556  33.415   4.633
33864W        W93158  44.491  24.687   3.704
33865W        W93159  11.836  41.956  11.426
33866W        W93160  20.221   3.374   2.805
33867W        W93161  22.223  24.598  12.480
33868W        W93162  42.400  36.407  13.353
33869W        W93163  32.906  22.051   2.299
33870W        W93164   7.278  23.503   3.868
33871W        W93165  43.505  23.557  12.985
33872W        W93166   3.386  11.712  13.988
33873W        W93167  36.944  21.064  14.909
33874W        W93168  34.066  26.093   1.212
33875W        W93169  35.089  43.892  11.911
33876W        W93170  11.291  10.379   3.365
33877W        W93171  40.044  27.671  10.442
33878W        W93172  28.664  13.775   0.356
33879W        W93173  31.030  24.210  13.442
33880W        W93174  14.802  17.099  10.057
33881W        W93175  26.040  22.104  12.061
33882W        W93176   2.823  15.609   3.781
33883W        W93177  35.580  31.624  11.407
33884W        W93178  12.263  12.821  14.007
33885W        W93179  32.125  20.062  14.922
33886W        W93180   5.322  32.534  11.423
33887W        W93181  25.580  40.343   3.190
33888W        W93182  22.996  18.136  13.490
33889W        W93183  43.764  26.064   4.281
33890W        W93184  15.109   6.745   1.721
33891W        W93185  37.384  17.140   1.448
33892W        W93186  25.144  43.911  11.380
33893W        W93187  22.581  20.028   1.226
33894W        W93188  37.365   9.871   2.406
33895W        W93189   9.216  27.980  12.831
33896W        W93190  21.175  24.492   1.448
33897W        W93191  18.141  30.425  12.576
33898W        W93192  28.009  31.909   3.673
33899W        W93193  37.447  21.644   3.367
33900W        W93194  44.389  23.109  10.593
33901W        W93195  29.054  41.905   4.632
33902W        W93196  11.171  31.042  14.945
33903W        W93197  29.597   8.859   2.332
33904W        W93198  13.759  18.155   4.257
33905W        W93199  24.537  18.722   1.225
33906W        W93200  13.235  35.087  14.022
33907W        W93201  39.931  39.963  14.788
33908W        W93202  36.511  12.844  13.310
33909W        W93203  39.944  39.325   3.830
33910W        W93204  10.315  18.199   5.230
33911W        W93205   1.254  41.400  12.356
33912W        W93206  18.784  34.464   3.261
33913W        W93207  16.752  31.456  12.879
33914W        W93208  38.538  41.375  14.937
33915W        W93209   1.321  37.533  10.614
33916W        W93210  37.518   5.206   0.477
33917W        W93211  31.411  37.974   2.882
33918W        W93212  38.956   7.763   3.738
33919W        W93213   3.845  31.081  14.017
33920W        W93214   7.854  29.551  13.891
33921W        W93215  41.358  12.661  11.974
33922W        W93216  42.825  28.941   3.167
33923W        W93217  36.395  33.473   3.207
33924W        W93218  15.642  26.953  14.773
33925W        W93219  33.460   7.191  14.487
33926W        W93220  18.605  19.106   3.838
33927W        W93221  29.491   7.311  14.856
33928W        W93222   7.894  31.926   0.946
33929W        W93223  14.654  33.967   0.781
33930W        W93224  37.409  32.016  11.122
33931W        W93225  44.491   6.715   0.389
33932W        W93226  41.996  37.358  11.602
33933W        W93227   5.200  29.537   0.776
33934W        W93228  36.088  35.366  11.904
33935W        W93229  30.643  10.824   1.806
33936W        W93230   1.451   3.403  10.531
33937W        W93231  37.922   2.320  14.309
33938W        W93232  19.582  22.072  10.982
33939W        W93233   3.394  11.822  12.035
33940W        W93234  29.633  40.484  12.433
33941W        W93235  23.111  26.680  12.975
33942W        W93236   4.774  20.687   2.359
33943W        W93237  19.701  30.441  13.865
33944W        W93238  24.000  22.170   3.163
33945W        W93239  36.411  23.190   1.833
33946W        W93240  19.209  19.282   1.359
33947W        W93241  14.815  12.352  12.095
33948W        W93242  41.512   6.369   3.295
33949W        W93243  44.901  13.243  10.479
33950W        W93244  39.908  10.660  10.931
33951W        W93245  44.010   0.385  13.419
33952W        W93246  19.550  11.247   2.345
33953W        W93247  25.656  15.205  12.578
33954W        W93248  39.054  29.611  10.441
33955W        W93249  30.564   2.875  11.507
33956W        W93250  15.814   1.886  13.045
33957W        W93251  23.181  39.969  13.400
33958W        W93252  42.839  23.529  10.943
33959W        W93253  31.911   7.198  12.849
33960W        W93254  16.270  29.119   0.254
33961W        W93255  25.976  29.480   4.145
33962W        W93256  31.036  12.770  12.453
33963W        W93257  36.530  21.221   3.820
33964W        W93258  34.966  22.070   3.662
33965W        W93259  34.869  35.487   4.646
33966W        W93260  38.019  42.775   9.958
33967W        W93261  30.626   3.786  12.414
33968W        W93262  29.938  42.466   1.292
33969W        W93263  13.627  32.032   2.877
33970W        W93264   9.887  39.457  12.832
33971W        W93265  10.173   1.936   2.769
33972W        W93266   8.344  37.947   2.759
33973W        W93267  40.908  36.446  13.805
33974W        W93268  16.093  26.142   1.848
33975W        W93269   9.671  24.563  14.408
33976W        W93270   3.388  23.174  11.924
33977W        W93271  37.355   7.259  12.451
33978W        W93272   7.204  11.700   3.839
33979W        W93273  16.160  10.319   1.280
33980W        W93274   4.701  34.090  14.281
33981W        W93275  17.665   4.343  10.609
33982W        W93276  29.532  35.479   3.193
33983W        W93277  42.324  29.119  14.328
33984W        W93278  25.019  39.843   2.294
33985W        W93279  35.361  12.253  10.898
33986W        W93280  21.098   0.444   3.859
33987W        W93281  37.843  41.297  13.938
33988W        W93282  10.689  27.481  13.818
33989W        W93283  40.914  23.565   1.265
33990W        W93284  17.267  28.104  14.285
33991W        W93285  41.423  13.297  11.108
33992W        W93286  16.132  23.526   3.812
33993W        W93287   2.778  12.149  13.518
33994W        W93288  28.519  23.536   2.330
33995W        W93289   7.208  24.516  11.547
33996W        W93290  16.173   0.318   4.182
33997W        W93291  32.950  36.417  10.431
33998W        W93292  20.589  18.582  10.519
33999W        W93293  20.248  37.864  12.925
34000W        W93294  30.070  16.714  11.998
34001W        W93295  35.368  11.297   2.411
34002W        W93296  41.357   0.775   2.763
34003W        W93297   8.872  15.161   4.158
34004W        W93298  15.218  39.984   3.351
34005W        W93299  36.453  19.234  13.439
34006W        W93300  36.349  39.900  11.602
34007W        W93301   2.323   7.876   0.319
34008W        W93302   4.232   4.842  12.908
34009W        W93303   0.466  17.786   4.692
34010W        W93304  44.888  36.856   0.808
34011W        W93305  26.607   7.245  10.507
34012W        W93306  20.204   0.413  10.555
34013W        W93307   8.159  23.055  13.837
34014W        W93308  13.770  31.116  13.507
34015W        W93309  37.076   5.777  14.513
34016W        W93310   0.492  41.380  14.978
34017W        W93311  43.301  42.473   3.219
34018W        W93312  11.716  29.427  11.043
34019W        W93313   5.205  39.931   3.679
34020W        W93314   6.238  26.671  14.423
34021W        W93315  21.737  20.097   3.200
34022W        W93316  29.624   0.394   0.799
34023W        W93317  28.442  44.007   1.772
34024W        W93318  21.586  36.077  10.448
34025W        W93319   1.908  39.854  14.973
34026W        W93320  38.067   0.916   2.414
34027W        W93321  33.914  42.423   0.759
34028W        W93322  40.050  27.969   4.639
34029W        W93323  18.726   9.872  12.980
34030W        W93324  26.080  38.908   5.242
34031W        W93325  37.396  11.252  11.955
34032W        W93326   8.757  27.621  12.497
34033W        W93327  25.141  42.399  11.543
34034W        W93328   3.364   1.258   1.710
34035W        W93329  18.776  38.918  14.992
34036W        W93330  22.547  18.615   0.371
34037W        W93331  16.643  14.681  12.986
34038W        W93332  10.151  12.120   4.252
34039W        W93333  27.586  36.008   4.156
34040W        W93334  39.507  21.052  12.906
34041W        W93335  22.700   9.707  12.084
34042W        W93336  38.819  21.028  11.911
34043W        W93337   1.369   0.794   2.366
34044W        W93338  12.230   4.943  11.394
34045W        W93339   1.344   7.314  10.517
34046W        W93340   2.899   4.772   4.313
34047W        W93341  24.995  32.530  11.939
34048W        W93342  23.624  37.905   4.718
34049W        W93343  35.484   8.805  13.851
34050W        W93344  24.695  11.272  14.933
34051W        W93345  28.630  17.702   2.819
34052W        W93346  19.664  29.483  14.467
34053W        W93347  40.917   7.409   3.238
34054W        W93348  32.509  36.561   3.232
34055W        W93349   8.841  34.080  10.598
34056W        W93350  13.115  22.635  14.275
34057W        W93351  33.512  27.948   3.163
34058W        W93352  10.176  12.298  12.462
34059W        W93353   9.309  27.173  14.505
34060W        W93354  38.945  25.149   4.778
34061W        W93355   1.754   8.711  12.839
34062W        W93356  21.245   9.385   4.691
34063W        W93357  38.495  15.088  14.316
34064W        W93358   2.928   7.394  13.926
34065W        W93359  43.329  35.884  11.089
34066W        W93360  41.941  42.404   3.180
34067W        W93361   2.814   1.941   3.260
34068W        W93362   2.305  23.680  10.051
34069W        W93363  26.458  29.492   0.865
34070W        W93364   6.845  10.367  11.495
34071W        W93365   1.794  15.720   1.823
34072W        W93366  19.254   9.796   4.178
34073W        W93367  28.974  11.174  12.031
34074W        W93368  32.538   4.743  13.839
34075W        W93369   1.825  39.435   1.434
34076W        W93370  28.630  41.924   2.687
34077W        W93371  26.197  17.726  12.058
34078W        W93372  43.489  23.985   4.116
34079W        W93373  35.098  34.959   4.254
34080W        W93374  19.234  42.896  10.920
34081W        W93375  27.967  32.521   4.174
34082W        W93376  36.927  35.592   9.532
34083W        W93377   6.299  39.361   4.836
34084W        W93378  11.277   1.815   0.276
34085W        W93379  27.564  22.106   0.811
34086W        W93380  23.009  39.410   4.696
34087W        W93381  18.774  23.649   4.353
34088W        W93382  11.219   3.736   3.762
34089W        W93383  27.577  32.978   1.795
34090W        W93384   2.773  29.635   4.306
34091W        W93385  26.014  38.391  14.375
34092W        W93386  13.180   0.820   2.207
34093W        W93387  22.151   9.218  11.902
34094W        W93388  22.711  37.489   3.752
34095W        W93389   1.822  22.110   3.227
34096W        W93390  42.824   6.250  10.605
34097W        W93391  44.434  37.555   9.943
34098W        W93392  27.084  27.655  13.547
34099W        W93393  27.168  22.745   4.352
34100W        W93394   3.871  31.604   4.209
34101W        W93395  23.595  12.309  14.474
34102W        W93396  42.356  13.142   2.899
34103W        W93397  21.135  11.736   3.351
34104W        W93398  13.784  31.625  12.993
34105W        W93399  10.651  13.838  11.053
34106W        W93400   6.193  44.267  13.883
34107W        W93401  26.981  19.548   3.805
34108W        W93402  18.715  37.027  14.985
34109W        W93403  19.097  23.118  14.032
34110W        W93404  43.271  25.219   2.810
34111W        W93405  35.474  21.105   1.851
34112W        W93406   5.398   4.708   4.784
34113W        W93407  30.466   9.761   0.469
34114W        W93408  36.431  26.490  13.469
34115W        W93409  39.372  43.964  12.551
34116W        W93410  18.190  41.820   0.924
34117W        W93411   9.199  43.368   2.356
34118W        W93412  13.340  12.758  13.882
34119W        W93413  39.369  19.696  13.382
34120W        W93414  42.361  24.610   4.678
34121W        W93415  15.290  33.437   3.356
34122W        W93416  24.578  41.349  13.521
34123W        W93417  21.225  41.533   2.414
34124W        W93418   0.278   9.647  13.495
34125W        W93419   7.236  21.701  14.855
34126W        W93420  28.633  15.246   2.703
34127W        W93421  10.688  35.540   5.759
34128W        W93422  16.313   9.753  13.373
34129W        W93423  36.583  19.145   2.411
34130W        W93424  21.653  14.602  13.000
34131W        W93425   4.847  41.399  14.854
34132W        W93426  33.914  34.010  13.533
34133W        W93427  34.003   0.884   1.824
34134W        W93428  34.497  25.644  12.504
34135W        W93429  39.901  25.001   0.279
34136W        W93430  29.061  33.470  11.585
34137W        W93431  23.070  41.356  14.279
34138W        W93432  40.534  10.195   0.330
34139W        W93433  14.319  26.208   2.359
34140W        W93434  38.830  25.985  11.884
34141W        W93435  11.145   7.351  10.432
34142W        W93436  32.908   8.381  12.347
34143W        W93437  38.438  35.037  10.625
34144W        W93438  15.296  43.324  11.541
34145W        W93439  28.548  35.541   3.772
34146W        W93440  26.046  36.561   2.326
34147W        W93441  24.675   4.389   4.732
34148W        W93442  32.471  39.960  13.427
34149W        W93443  43.979   7.275  14.851
34150W        W93444  12.790  38.044  12.881
34151W        W93445  12.276  32.967  14.845
34152W        W93446  39.458  38.929  14.339
34153W        W93447  25.560   8.661  13.847
34154W        W93448  19.577  15.318   2.383
34155W        W93449  15.714   9.682  11.884
34156W        W93450  36.084  24.043  10.424
34157W        W93451  22.062  13.239  11.932
34158W        W93452   5.787  34.465   2.717
34159W        W93453  36.441   4.366   3.744
34160W        W93454  30.425  11.373  12.419
34161W        W93455  23.521   4.877  11.543
34162W        W93456  12.300   4.940  11.914
34163W        W93457  25.197  17.585  14.011
34164W        W93458  18.197  38.396   3.312
34165W        W93459  12.818  36.068  14.958
34166W        W93460   3.404  14.245   3.365
34167W        W93461   1.372  36.018   2.818
34168W        W93462  23.130  23.721   0.392
34169W        W93463  36.040  14.670  14.864
34170W        W93464  29.020  37.884   9.941
34171W        W93465  19.642  32.062   2.836
34172W        W93466  11.342  42.434  13.431
34173W        W93467  13.731  42.776  14.504
34174W        W93468  10.328   4.711   3.216
34175W        W93469  30.563  29.431   1.350
34176W        W93470  21.664  13.294   1.246
34177W        W93471  12.261  39.886   3.333
34178W        W93472  44.951   9.290   4.254
34179W        W93473  37.528  15.251   2.827
34180W        W93474  24.160  22.590  12.549
34181W        W93475  21.142  25.050  11.123
34182W        W93476  33.064   6.255  12.031
34183W        W93477   3.457  28.522   1.450
34184W        W93478   7.337  15.092  13.482
34185W        W93479  41.980  28.548  13.431
34186W        W93480  16.577   9.852  14.011
34187W        W93481   2.744  38.842   1.709
34188W        W93482  31.138  15.170   1.869
34189W        W93483  37.055  13.629  11.571
34190W        W93484   2.838  35.950  14.463
34191W        W93485  35.439   6.249  14.389
34192W        W93486  43.408  28.677   0.942
34193W        W93487  21.735   6.223   4.191
34194W        W93488   8.316   5.249  10.479
34195W        W93489  40.331  40.328   0.295
34196W        W93490  35.538  38.384   4.241
34197W        W93491  17.153  12.781  11.059
34198W        W93492  42.839  17.733   1.277
34199W        W93493  44.928   4.302  10.472
34200W        W93494  34.929  24.678  11.957
34201W        W93495  17.196  36.998  14.789
34202W        W93496  33.015  28.032  11.611
34203W        W93497   7.898   8.329   2.706
34204W        W93498   8.244  40.498  14.350
34205W        W93499  43.276  20.635   1.340
34206W        W93500  32.533  44.294  10.066
34207W        W93501  10.863  44.760  11.891
34208W        W93502  27.144  11.793  11.598
34209W        W93503  11.344   5.336   3.259
34210W        W93504  22.163  23.584   0.328
34211W        W93505  16.767   5.391  11.578
34212W        W93506  14.680  21.178  12.371
34213W        W93507  30.465  15.803   3.737
34214W        W93508   7.183  19.068   0.810
34215W        W93509  38.413  31.597   5.766
34216W        W93510  40.507  11.249  12.926
34217W        W93511   6.889  25.195  14.885
34218W        W93512  37.550  29.499   1.384
34219W        W93513   5.285  35.591   1.392
34220W        W93514  41.848  35.924   1.276
34221W        W93515  16.648  33.018   2.285
34222W        W93516  16.575  16.266   1.810
34223W        W93517  24.019  39.065   1.870
34224W        W93518  44.359   2.832   0.408
34225W        W93519  41.795   5.872  11.373
34226W        W93520  40.036  43.966   3.205
34227W        W93521  17.665  36.451   2.309
34228W        W93522   6.794  43.357  10.021
34229W        W93523  25.655  15.091   2.383
34230W        W93524  22.661   0.949  12.351
34231W        W93525  12.133  40.856  11.466
34232W        W93526   3.716   4.868  14.844
34233W        W93527   1.431  40.014   2.311
34234W        W93528  24.553  36.943   3.796
34235W        W93529  14.216  36.013  12.499
34236W        W93530   8.230  34.864   0.842
34237W        W93531   4.278  36.911  13.479
34238W        W93532   3.875  37.433  13.046
34239W        W93533  30.596  18.215  14.029
34240W        W93534   3.310  29.588   2.791
34241W        W93535  10.339  18.117   3.791
34242W        W93536   9.255  44.291   0.333
34243W        W93537  22.623  29.064  12.053
34244W        W93538   3.759  16.682   3.251
34245W        W93539   4.237  12.709  13.505
34246W        W93540  17.249  23.542   0.364
34247W        W93541  32.996  19.729  11.548
34248W        W93542  29.995  38.019  14.826
34249W        W93543  40.515  30.589  10.155
34250W        W93544  25.669  18.667  11.411
34251W        W93545  33.492  10.750  14.442
34252W        W93546  33.885  42.285   2.699
34253W        W93547  44.784  12.315   0.935
34254W        W93548  18.114  36.069  10.913
34255W        W93549  41.027  28.987  11.879
34256W        W93550  24.562  33.556   1.419
34257W        W93551  33.524   5.286   0.434
34258W        W93552  36.078   1.924  12.365
34259W        W93553  38.028  19.579   3.171
34260W        W93554  40.330  36.074  12.882
34261W        W93555  34.608  29.998   1.892
34262W        W93556  37.344  41.471   4.321
34263W        W93557   6.292  39.822  11.927
34264W        W93558  16.316  23.610   1.864
34265W        W93559   3.320  37.557  14.456
34266W        W93560  28.171   1.786  11.419
34267W        W93561   4.350  38.025   4.625
34268W        W93562  31.626  14.273   4.815
34269W        W93563  13.815  15.635   1.838
34270W        W93564  25.078  22.187  13.829
34271W        W93565  28.661  42.991   0.780
34272W        W93566  32.440  26.533   0.926
34273W        W93567   8.168   6.832  13.844
34274W        W93568   8.848  11.708  13.004
34275W        W93569   7.792  34.464   2.872
34276W        W93570  16.248   4.780  14.789
34277W        W93571   1.901  44.332  10.523
34278W        W93572  16.176  24.493   2.813
34279W        W93573  41.969  34.093   5.282
34280W        W93574  31.594  33.984  14.463
34281W        W93575  12.131  27.488   0.822
34282W        W93576   1.243   3.288   3.159
34283W        W93577  30.456   7.231   0.833
34284W        W93578  27.980  40.486   3.306
34285W        W93579  44.816  21.590  10.628
34286W        W93580  17.598  15.301  12.843
34287W        W93581  40.884  30.112  11.037
34288W        W93582  14.221  26.065  12.946
34289W        W93583   6.309   4.728  14.004
34290W        W93584  23.665  29.986   1.219
34291W        W93585  30.031  25.027  12.493
34292W        W93586  26.600  39.956  11.574
34293W        W93587   4.377  40.011  11.068
34294W        W93588  27.446  36.901  12.062
34295W        W93589  35.961  43.393  11.573
34296W        W93590  38.969  37.442  13.493
34297W        W93591  10.255  23.500  13.922
34298W        W93592  43.997  11.367   0.777
34299W        W93593  36.530  26.481  12.930
34300W        W93594  15.188   2.420   4.628
34301W        W93595  35.954   5.321   5.598
34302W        W93596  16.134  36.027   2.418
34303W        W93597  36.967  25.669   0.348
34304W        W93598  33.011   4.323  12.883
34305W        W93599   9.238   5.699   3.669
34306W        W93600   2.726  19.220  13.837
34307W        W93601  28.119  42.992  10.470
34308W        W93602  33.486  17.192   3.281
34309W        W93603  35.964  22.707  12.575
34310W        W93604  42.938  26.028   3.818
34311W        W93605  36.882   4.852   2.706
34312W        W93606   0.398  33.891   4.236
34313W        W93607  26.164  22.511  11.035
34314W        W93608  18.547  14.648  13.940
34315W        W93609  31.577  19.615  10.954
34316W        W93610  40.489  22.189  12.901
34317W        W93611  31.027   8.279  14.495
34318W        W93612  20.567  34.960   4.726
34319W        W93613  37.966  41.993   4.834
34320W        W93614  25.160  17.090  12.546
34321W        W93615  44.968  43.931   2.850
34322W        W93616  36.354   0.453   1.369
34323W        W93617   9.289  32.119   2.699
34324W        W93618  43.432  35.870   1.849
34325W        W93619  42.331  39.342   2.254
34326W        W93620  42.975  12.342  13.011
34327W        W93621  15.658   1.882   4.223
34328W        W93622   0.852  40.838  13.825
34329W        W93623  29.555  25.673   2.197
34330W        W93624  30.497  42.971   4.799
34331W        W93625  41.876  43.371   2.815
34332W        W93626   3.394  26.063  14.903
34333W        W93627  24.228  39.542  13.995
34334W        W93628   6.388  36.456   2.728
34335W        W93629  12.856  30.059   9.518
34336W        W93630  41.857  11.812  12.852
34337W        W93631  27.483  26.640  11.074
34338W        W93632   4.917  33.994  12.448
34339W        W93633  22.682  40.440   3.651
34340W        W93634  38.068   5.880  10.639
34341W        W93635  12.314  34.074  12.887
34342W        W93636   5.349  40.029  11.434
34343W        W93637  28.024  15.102  12.353
34344W        W93638  39.476   5.250   2.312
34345W        W93639  34.027  38.988  12.038
34346W        W93640  30.542   1.914   1.320
34347W        W93641  30.009  24.159  10.583
34348W        W93642  44.958  24.169  12.047
34349W        W93643  36.394   0.930   2.397
34350W        W93644  40.304  27.514  10.536
34351W        W93645  16.804  25.583   2.278
34352W        W93646   8.662  27.489  14.825
34353W        W93647   7.845  41.406   4.758
34354W        W93648  44.926  29.662  14.285
34355W        W93649   4.832  21.048   0.296
34356W        W93650  30.986  32.976   2.196
34357W        W93651  33.090  12.296   3.231
34358W        W93652  29.096   8.807  12.980
34359W        W93653  14.667  23.062  10.960
34360W        W93654   6.848  37.997  11.400
34361W        W93655   6.722   9.836   4.340
34362W        W93656  15.261  21.522   1.777
34363W        W93657   1.809   7.304   1.694
34364W        W93658  20.688   5.818   3.854
34365W        W93659   0.444  33.989  12.995
34366W        W93660  11.331  43.291  13.319
34367W        W93661  43.456  35.998  13.896
34368W        W93662   4.867  38.933  13.321
34369W        W93663  11.760  30.517   4.230
34370W        W93664  40.980  26.984  12.541
34371W        W93665  32.072  30.999   0.957
34372W        W93666  41.015   6.421   0.420
34373W        W93667  31.505  43.510   1.340
34374W        W93668  12.820  32.573  12.978
34375W        W93669  23.998  36.951   0.384
34376W        W93670   3.715  36.586  11.982
34377W        W93671  31.595   6.380  13.529
34378W        W93672  38.454  19.607   4.193
34379W        W93673  36.348  13.333   1.223
34380W        W93674  39.873  35.862   0.920
34381W        W93675  33.113   1.238  11.099
34382W        W93676  22.222  36.424   2.386
34383W        W93677  26.091   6.724  12.042
34384W        W93678  26.201  25.674  13.849
34385W        W93679  16.799  10.772  11.080
34386W        W93680   0.462   6.287   2.853
34387W        W93681  16.143  36.424   0.758
34388W        W93682   2.305  25.021  10.643
34389W        W93683  31.108   8.775   4.177
34390W        W93684  34.540   1.364  11.579
34391W        W93685  33.593  41.348   1.234
34392W        W93686   4.929  11.360   3.316
34393W        W93687  29.519  14.772   1.242
34394W        W93688  13.154  38.050   3.748
34395W        W93689   4.723  32.597   2.251
34396W        W93690  31.150  27.105   0.826
34397W        W93691   0.446   2.893   3.776
34398W        W93692  18.288  44.984   1.876
34399W        W93693  33.967  15.318   4.719
34400W        W93694  31.596   9.369  11.869
34401W        W93695  20.605  38.436  11.902
34402W        W93696  20.044   2.885  14.931
34403W        W93697   6.734   2.312  11.466
34404W        W93698  24.516  27.999  14.513
34405W        W93699  26.977  36.845   3.187
34406W        W93700  27.673  31.533  12.869
34407W        W93701  42.902  43.862   2.861
34408W        W93702  19.761   9.201  12.442
34409W        W93703   9.740   9.842   3.158
34410W        W93704  40.501  12.643   0.423
34411W        W93705  27.452  26.500  13.938
34412W        W93706  28.503  39.874  11.523
34413W        W93707  30.542   6.409  13.364
34414W        W93708  39.519  18.582   2.240
34415W        W93709  35.091  37.946  13.427
34416W        W93710  13.333   0.894   2.902
34417W        W93711  24.186  12.773   1.395
34418W        W93712  37.003  33.973   2.733
34419W        W93713  44.438  17.783   0.954
34420W        W93714  28.011  18.125  13.364
34421W        W93715  20.037  29.520  12.048
34422W        W93716   1.407  29.992   0.382
34423W        W93717   0.982   6.238   2.837
34424W        W93718   6.319  44.269   0.781
34425W        W93719   6.228  43.791  11.914
34426W        W93720  17.222  21.141   2.734
34427W        W93721   7.227  11.317  11.429
34428W        W93722   7.766  42.481  13.913
34429W        W93723  19.093  25.616   4.614
34430W        W93724   7.316  15.759  12.838
34431W        W93725  42.949  13.107   0.746
34432W        W93726  34.039  25.137   2.265
34433W        W93727  19.545  20.244   9.561
34434W        W93728  17.178  35.564  12.450
34435W        W93729  36.445  40.857  11.482
34436W        W93730   3.375  24.603   0.854
34437W        W93731  32.113   8.345  14.516
34438W        W93732  35.584   0.842   2.345
34439W        W93733   5.318  31.085   3.268
34440W        W93734  24.562  43.287  11.935
34441W        W93735  30.974  39.550  14.362
34442W        W93736  44.790  44.851   4.230
34443W        W93737  38.829  39.377   1.765
34444W        W93738  27.471  31.901   1.381
34445W        W93739  30.023  35.004  11.031
34446W        W93740  37.020  14.285   2.820
34447W        W93741   7.324  42.934   1.440
34448W        W93742  20.759  11.677  11.895
34449W        W93743  44.340  10.741  12.878
34450W        W93744  33.113  14.199  11.042
34451W        W93745  39.526   5.294   4.635
34452W        W93746  40.452  31.598   1.742
34453W        W93747  10.743  27.146   4.599
34454W        W93748  38.406  13.313  11.534
34455W        W93749  13.203   2.822  12.485
34456W        W93750   1.326  12.362  10.605
34457W        W93751  14.625   6.206   1.434
34458W        W93752  44.466  21.075  13.485
34459W        W93753  10.704  23.091   0.286
34460W        W93754   7.771  32.625  11.891
34461W        W93755  28.969  40.361  14.015
34462W        W93756  43.779   4.281   0.818
34463W        W93757   0.855  17.802  11.446
34464W        W93758  33.472  39.987  11.388
34465W        W93759   2.258   7.719   4.338
34466W        W93760   9.868  21.702   1.809
34467W        W93761  40.461  16.092   3.832
34468W        W93762  38.397  44.366  11.074
34469W        W93763  23.579  22.056   4.800
34470W        W93764  33.397   3.930   0.741
34471W        W93765   9.806  34.085  10.520
34472W        W93766  23.650  17.748   0.319
34473W        W93767  39.834   9.745   1.753
34474W        W93768  32.588  12.835   3.696
34475W        W93769  12.657  19.731  11.071
34476W        W93770   2.268  28.547  11.431
34477W        W93771  34.370  30.602   0.853
34478W        W93772   9.719  35.546  13.834
34479W        W93773  35.910   9.169   1.420
34480W        W93774  14.278  16.270  13.371
34481W        W93775  43.493  23.714   1.356
34482W        W93776  14.159  27.086   4.273
34483W        W93777   9.810  23.587   0.748
34484W        W93778  30.971   0.822   4.828
34485W        W93779  38.841  25.092   1.336
34486W        W93780   3.734   1.469   4.751
34487W        W93781  32.889   7.728  14.337
34488W        W93782  16.779  24.671   2.282
34489W        W93783   4.436  42.999   4.345
34490W        W93784   9.761  11.766  10.893
34491W        W93785  25.497   9.356   2.231
34492W        W93786  21.528  42.007   0.805
34493W        W93787   1.761  34.477  14.447
34494W        W93788  34.098  27.689   4.181
34495W        W93789  25.607   2.277  11.606
34496W        W93790  20.207  14.153   4.270
34497W        W93791  35.528  32.448   5.181
34498W        W93792   2.379  27.081   0.732
34499W        W93793  15.327  25.514  14.400
34500W        W93794  41.043  16.301  12.846
34501W        W93795  42.811  17.662   2.779
34502W        W93796  10.791  34.076  13.865
34503W        W93797  15.207  42.299   0.484
34504W        W93798  44.333   9.771   3.794
34505W        W93799  27.023  12.625  10.952
34506W        W93800  35.001   6.913  10.482
34507W        W93801   8.349  34.877  10.441
34508W        W93802   3.460  16.605  10.632
34509W        W93803  14.201   0.864  14.031
34510W        W93804  31.416  24.979   1.797
34511W        W93805  26.645  43.482  14.366
34512W        W93806  11.842  32.057   1.879
34513W        W93807  42.465  37.362  14.331
34514W        W93808  25.129  13.768  13.891
34515W        W93809  23.653  17.284   3.204
34516W        W93810   7.804  37.930   4.230
34517W        W93811   6.828  25.044  12.952
34518W        W93812  10.690  23.568  10.497
34519W        W93813  17.637  26.698   2.380
34520W        W93814   8.200   1.829   1.235
34521W        W93815  25.535  21.596  10.558
34522W        W93816  40.383  24.983   9.978
34523W        W93817  36.586  15.779  13.950
34524W        W93818  16.279  11.346  14.864
34525W        W93819  36.387  38.052   2.220
34526W        W93820   9.382  32.997   1.787
34527W        W93821  32.966  38.379  12.436
34528W        W93822  41.889   8.849  11.014
34529W        W93823  40.384  16.584  10.635
34530W        W93824  17.256  40.854   1.337
34531W        W93825  29.040  17.278  11.440
34532W        W93826  19.162  26.027  12.840
34533W        W93827   5.816  33.445   9.540
34534W        W93828  44.995  32.036   0.928
34535W        W93829  32.026  40.542   5.779
34536W        W93830  29.468  35.580   1.405
34537W        W93831  11.177  39.380   0.833
34538W        W93832  23.154  25.492  11.390
34539W        W93833  44.755  39.452  12.890
34540W        W93834  10.740   9.227   1.237
34541W        W93835   3.222   6.748  12.507
34542W        W93836   1.793   8.313   2.836
34543W        W93837  30.526  26.616   2.372
34544W        W93838  27.990  36.966   1.877
34545W        W93839   7.881   7.673  13.949
34546W        W93840  40.404  42.890   0.242
34547W        W93841   8.901   2.722   2.377
34548W        W93842  31.019  27.061  14.303
34549W        W93843  12.701  15.100   3.317
34550W        W93844  29.163  44.496   3.233
34551W        W93845  23.111  22.536   1.776
34552W        W93846  25.208  38.929  14.894
34553W        W93847   6.364   0.308   0.855
34554W        W93848   9.863  36.525   2.259
34555W        W93849  19.061  24.149   5.304
34556W        W93850  39.319  33.080   3.781
34557W        W93851   1.869  17.673   1.716
34558W        W93852  20.635  43.486   1.385
34559W        W93853  28.176  21.613   4.740
34560W        W93854  38.480  14.223  12.520
34561W        W93855   6.828  35.009   1.814
34562W        W93856  17.622   3.837  12.881
34563W        W93857  28.503  36.867  10.556
34564W        W93858   6.784  25.061  13.348
34565W        W93859  42.788   7.360   1.247
34566W        W93860   5.218  19.136   3.183
34567W        W93861  41.432   2.897   2.725
34568W        W93862  16.227  20.230   3.280
34569W        W93863  15.141  27.640  13.856
34570W        W93864  12.633  27.069   2.792
34571W        W93865  25.148  42.897  10.919
34572W        W93866  44.973  17.302  12.373
34573W        W93867  27.601  14.340   0.374
34574W        W93868  42.318  14.211  11.098
34575W        W93869  19.687  16.721  11.012
34576W        W93870  29.061   7.282   2.416
34577W        W93871  26.193  40.846   4.140
34578W        W93872  28.637  10.839   1.758
34579W        W93873  11.827  44.489   2.188
34580W        W93874  44.803  28.526  12.068
34581W        W93875  29.999  35.102   3.165
34582W        W93876  29.090  38.970   4.235
34583W        W93877  20.763  43.839  14.327
34584W        W93878  13.660  14.713  13.996
34585W        W93879   4.787   0.897  11.416
34586W        W93880   3.348   4.927   2.251
34587W        W93881  30.429  26.549  13.981
34588W        W93882  42.981   9.645  10.907
34589W        W93883   8.745   6.787   1.827
34590W        W93884  21.514  18.612  11.395
34591W        W93885  43.345  35.045  13.973
34592W        W93886   8.303  23.644   2.890
34593W        W93887  32.094  19.750   0.900
34594W        W93888   7.687   6.904   4.216
34595W        W93889   2.722   3.725   0.895
34596W        W93890  40.547  44.343   3.313
34597W        W93891  40.904  25.586  14.030
34598W        W93892  41.318   0.423  13.971
34599W        W93893  11.648  16.171  12.530
34600W        W93894  22.599  35.470   4.626
34601W        W93895  24.108  20.731  14.397
34602W        W93896  20.565  30.934  14.913
34603W        W93897  18.055  24.205  12.495
34604W        W93898  40.308  20.246   0.312
34605W        W93899   2.274  20.763  10.441
34606W        W93900  43.315  34.929  10.983
34607W        W93901   8.773  10.829  14.405
34608W        W93902   9.717  28.951  11.385
34609W        W93903  24.116   8.871  10.608
34610W        W93904  32.560  16.674  11.952
34611W        W93905   7.727   2.308  13.970
34612W        W93906  37.028  11.740  11.017
34613W        W93907  12.646  11.355  11.863
34614W        W93908  41.855   2.728  12.499
34615W        W93909  26.489  25.531   2.823
34616W        W93910  34.966  19.582   2.355
34617W        W93911  29.644   7.740   4.166
34618W        W93912  18.663   5.736   0.362
34619W        W93913   8.376  10.826   4.133
34620W        W93914   6.210  19.097   5.760
34621W        W93915  31.061  39.407   2.400
34622W        W93916  13.120  18.681  13.349
34623W        W93917  20.247   3.260  10.151
34624W        W93918  32.938   4.391  12.354
34625W        W93919  34.094  36.371  14.828
34626W        W93920  11.310  16.676  10.419
34627W        W93921  44.998  43.006  10.596
34628W        W93922   4.753  14.151  12.906
34629W        W93923  15.315   7.732  14.021
34630W        W93924  13.311   4.249   3.332
34631W        W93925   1.938   6.723  14.420
34632W        W93926  36.531   7.752   0.795
34633W        W93927   7.404  25.014   4.796
34634W        W93928  18.203  10.381  11.433
34635W        W93929  26.176  25.708  12.945
34636W        W93930  27.678  11.746  10.583
34637W        W93931   2.891  16.695   1.756
34638W        W93932  14.187   5.927  11.484
34639W        W93933  44.273   5.340  14.446
34640W        W93934  25.470   3.912  14.877
34641W        W93935  43.274  33.897   4.815
34642W        W93936  11.678  41.441   1.432
34643W        W93937  27.144   0.940  13.842
34644W        W93938  18.172  44.309   4.244
34645W        W93939   5.377  34.479   2.242
34646W        W93940  31.018   9.694   2.672
34647W        W93941   8.807  32.409   2.253
34648W        W93942  30.115  30.967  13.440
34649W        W93943  41.404  41.496  12.991
34650W        W93944  29.630   4.216   4.144
34651W        W93945   5.328  16.642   3.758
34652W        W93946  22.132  14.661  14.853
34653W        W93947   4.261  17.172  11.938
34654W        W93948  11.309  41.907  14.933
34655W        W93949  28.569  42.405  10.107
34656W        W93950   5.802  35.524  14.978
34657W        W93951  35.392  30.008  12.007
34658W        W93952  22.182  31.102   3.271
34659W        W93953  11.721  40.882   4.616
34660W        W93954   3.737  33.061   3.827
34661W        W93955  21.598  12.804  13.998
34662W        W93956  27.689   6.831   9.657
34663W        W93957  10.876  36.926   1.229
34664W        W93958   7.351  31.428   3.220
34665W        W93959  43.503   1.907  14.858
34666W        W93960  33.125   5.783   3.196
34667W        W93961  44.497   2.298   1.782
34668W        W93962  19.653  44.830  13.492
34669W        W93963   9.825  29.504   1.893
34670W        W93964  17.614  30.619   3.640
34671W        W93965  17.226  10.844   0.364
34672W        W93966  20.693  10.860   0.946
34673W        W93967  29.988   3.329   3.340
34674W        W93968   4.763  10.827   4.777
34675W        W93969  24.199  30.432  11.539
34676W        W93970  12.763  40.365  14.827
34677W        W93971  28.126   3.837   5.227
34678W        W93972  22.724  10.226   2.693
34679W        W93973  25.514  18.700   4.300
34680W        W93974  22.604   9.855  12.493
34681W        W93975  34.926  11.241   3.790
34682W        W93976  24.198  15.635   4.239
34683W        W93977  33.509   1.804   2.676
34684W        W93978  33.995  18.078  10.918
34685W        W93979  44.990  38.464  14.865
34686W        W93980  31.431  34.064   0.396
34687W        W93981  39.540  18.225   1.273
34688W        W93982  36.881  18.256  10.627
34689W        W93983  28.973  27.656  12.981
34690W        W93984  27.040  16.297   3.263
34691W        W93985  12.775  14.204  14.479
34692W        W93986  32.472   0.259   3.151
34693W        W93987  18.165  23.529  13.935
34694W        W93988  13.728  11.802  10.404
34695W        W93989  23.044  22.158  12.507
34696W        W93990  34.060  22.500  11.877
34697W        W93991  13.632  37.537  11.543
34698W        W93992   9.870  31.548  10.503
34699W        W93993  29.160  23.064   3.648
34700W        W93994  15.758  18.602  13.834
34701W        W93995  34.994  26.621  14.780
34702W        W93996  31.647   3.251  14.485
34703W        W93997  18.570  35.596   1.856
34704W        W93998  32.094  39.886  10.464
34705W        W93999  27.016   7.230  13.049
34706W        W94000  25.676  25.565   1.772
34707W        W94001  32.078  35.104  14.843
34708W        W94002  16.078  37.582  11.540
34709W        W94003  30.583  29.054  13.326
34710W        W94004  23.122   1.472  11.593
34711W        W94005  40.493  31.431  11.479
34712W        W94006   8.196  36.883   2.221
34713W        W94007  42.879  21.132   0.852
34714W        W94008  21.117   6.348  13.488
34715W        W94009  22.091  38.401  10.965
34716W        W94010   4.338  23.157   4.261
34717W        W94011  24.719  44.993   2.865
34718W        W94012  32.939  34.035  10.481
34719W        W94013  32.049  11.716  12.986
34720W        W94014   1.403  42.975  14.332
34721W        W94015   7.367   4.285  13.935
34722W        W94016  14.654  42.393   2.809
34723W        W94017   3.800  37.940   2.666
34724W        W94018   6.783  22.181  13.390
34725W        W94019  34.590  44.447   4.691
34726W        W94020  29.976  35.049  14.868
34727W        W94021   0.490  11.135  10.622
34728W        W94022   9.309  16.743  13.506
34729W        W94023  17.712  31.416  14.941
34730W        W94024   0.914  18.252   5.209
34731W        W94025  29.101   6.839  11.414
34732W        W94026  21.665  36.386  11.574
34733W        W94027  11.633  19.687  13.881
34734W        W94028  21.574   5.356   0.261
34735W        W94029  16.617  17.588   4.124
34736W        W94030   4.714  17.780   1.934
34737W        W94031   0.756  43.379   1.820
34738W        W94032  18.063  39.462  14.455
34739W        W94033  39.443  16.079   0.443
34740W        W94034  23.633  20.080   2.200
34741W        W94035  44.338  42.022  10.087
34742W        W94036  29.463  42.870   0.905
34743W        W94037  25.550   4.795  11.062
34744W        W94038  33.035  40.000   4.796
34745W        W94039  29.053  24.191   0.915
34746W        W94040  21.148   0.919   2.777
34747W        W94041  35.033  10.316   1.701
34748W        W94042  16.738  18.291  14.318
34749W        W94043  13.600  12.763  12.343
34750W        W94044  17.189  42.503  13.982
34751W        W94045  13.707  15.157  14.975
34752W        W94046  14.646  13.773  14.429
34753W        W94047  10.744   0.411   3.782
34754W        W94048  43.866  14.294  11.494
34755W        W94049  41.366  30.968  10.899
34756W        W94050  32.081  18.254   1.892
34757W        W94051  13.830  39.495  13.420
34758W        W94052  14.183  26.539  13.532
34759W        W94053  29.578  16.785  12.849
34760W        W94054  20.199  42.782   4.827
34761W        W94055   9.273  34.040   3.795
34762W        W94056  23.095   7.845   3.228
34763W        W94057  31.993  10.292   2.225
34764W        W94058  25.148  15.717   2.807
34765W        W94059  36.483   4.817  13.004
34766W        W94060  10.244  32.985  14.880
34767W        W94061  18.096  19.594   0.298
34768W        W94062  21.187  24.204   2.772
34769W        W94063  43.003   8.716  14.499
34770W        W94064  44.800   4.799  10.932
34771W        W94065   2.747  35.903  10.640
34772W        W94066   5.218  20.220   3.348
34773W        W94067  16.795  43.928  12.062
34774W        W94068  41.945  15.189   2.380
34775W        W94069  38.434  15.621  10.939
34776W        W94070   2.385   7.247  12.967
34777W        W94071  32.413   5.255   3.256
34778W        W94072  42.412  22.554  11.947
34779W        W94073  18.051  29.593   2.754
34780W        W94074  12.360  38.571  13.364
34781W        W94075  39.965  24.486   4.321
34782W        W94076  44.409  11.806   0.469
34783W        W94077  37.480  20.605   4.791
34784W        W94078  18.152  29.631  13.321
34785W        W94079   1.759   9.321  13.451
34786W        W94080   0.460  43.994   2.333
34787W        W94081  25.596  22.634   2.178
34788W        W94082  35.014  41.455  10.557
34789W        W94083   2.349  15.711  13.942
34790W        W94084  18.138  28.108  11.881
34791W        W94085  26.178  24.701   0.470
34792W        W94086  44.833  40.475  11.015
34793W        W94087  21.542  11.803   4.759
34794W        W94088  21.613  16.192  11.495
34795W        W94089  44.460  14.631   4.265
34796W        W94090  28.948  29.055   3.170
34797W        W94091  14.165  41.945  13.495
34798W        W94092  10.216  41.494   0.311
34799W        W94093  43.361  15.701  14.831
34800W        W94094  30.088  22.183   2.337
34801W        W94095  15.790  21.525  14.843
34802W        W94096   6.685   5.346  12.377
34803W        W94097  37.902  28.998   2.793
34804W        W94098  33.581  17.183   3.764
34805W        W94099  32.134   5.895   0.743
34806W        W94100  11.686  30.099  12.420
34807W        W94101   6.411  18.729   4.323
34808W        W94102   9.774   0.416  12.849
34809W        W94103  35.555   7.891   1.237
34810W        W94104  10.652   4.347  12.543
34811W        W94105   8.793   0.870  14.303
34812W        W94106  39.830  13.664  12.928
34813W        W94107  12.184  10.821   0.881
34814W        W94108  12.285  35.971   4.188
34815W        W94109  12.773   5.834   1.775
34816W        W94110  44.924  25.482  13.429
34817W        W94111  19.580  13.193   3.173
34818W        W94112   7.317  31.961   1.269
34819W        W94113   8.698  22.149   0.368
34820W        W94114  42.324   4.830   0.429
34821W        W94115   7.347  32.918  13.427
34822W        W94116  20.234  22.085  11.859
34823W        W94117  20.217  13.716  11.537
34824W        W94118   0.479  29.119  12.026
34825W        W94119  42.314  28.653   0.279
34826W        W94120  27.184  10.682   0.362
34827W        W94121   5.289  40.418   3.637
34828W        W94122  41.987  31.595  12.075
34829W        W94123  25.501   2.310   4.355
34830W        W94124  16.203  40.306  12.482
34831W        W94125  20.221  11.681  13.399
34832W        W94126  41.990  19.709  14.029
34833W        W94127  30.531  31.097  14.394
34834W        W94128  12.737  42.018   4.827
34835W        W94129  20.105   4.234   2.418
34836W        W94130   6.719  42.804   4.330
34837W        W94131  18.670  41.807   3.149
34838W        W94132  43.381  10.371  10.121
34839W        W94133   6.421   9.221   0.444
34840W        W94134  23.009  17.081  13.505
34841W        W94135  10.801  37.017   1.745
34842W        W94136  30.441  15.167  13.011
34843W        W94137  34.399   7.264  11.925
34844W        W94138  39.817  41.316   0.835
34845W        W94139  14.761  13.600   4.647
34846W        W94140  22.545  30.552  11.424
34847W        W94141  35.092  13.295   2.897
34848W        W94142  28.481   6.689  10.487
34849W        W94143  25.565   7.786   3.749
34850W        W94144  19.571  39.913  14.460
34851W        W94145   8.679  35.487   3.313
34852W        W94146   2.866   3.808  11.375
34853W        W94147  27.992  22.252   3.201
34854W        W94148   0.768  35.433   4.237
34855W        W94149  35.600   2.865  14.428
34856W        W94150  30.492   1.940   1.770
34857W        W94151   8.785   3.825   1.226
34858W        W94152   5.891  43.872  13.501
34859W        W94153  38.063  18.060   0.262
34860W        W94154   0.840   4.913   4.295
34861W        W94155  33.938  35.970  11.035
34862W        W94156  44.858  33.618  13.999
34863W        W94157   0.963  33.604   9.935
34864W        W94158  23.610  18.275   3.311
34865W        W94159  41.514  20.735  14.407
34866W        W94160   3.339  24.579   4.666
34867W        W94161  33.490  44.498   2.403
34868W        W94162  23.622   0.443  14.446
34869W        W94163   6.741  19.734  13.797
34870W        W94164  40.403  10.167  14.507
34871W        W94165  25.148   6.898  13.361
34872W        W94166  16.806  20.230   1.872
34873W        W94167  29.653  33.965  14.516
34874W        W94168   3.238  19.234   1.263
34875W        W94169  25.711   0.952  12.525
34876W        W94170  26.145  13.755  14.370
34877W        W94171  29.477   6.724   3.711
34878W        W94172   0.384   5.201   4.818
34879W        W94173  19.566  18.633  12.571
34880W        W94174  10.329  44.808  13.445
34881W        W94175   4.806  28.137   2.235
34882W        W94176  40.993  40.055   2.744
34883W        W94177  16.754  19.565  12.978
34884W        W94178  31.104  33.990   1.830
34885W        W94179  21.666  17.595  10.451
34886W        W94180  39.461  37.030  13.837
34887W        W94181  32.048  22.616  11.063
34888W        W94182   2.464  42.924   2.879
34889W        W94183  29.160   4.769  14.029
34890W        W94184   1.760  40.496   1.271
34891W        W94185  12.198  25.129  14.968
34892W        W94186  28.068  16.277   0.304
34893W        W94187   9.394  17.711   4.198
34894W        W94188  22.228  31.477  13.805
34895W        W94189  40.507  41.419   3.721
34896W        W94190  16.649  39.890   1.789
34897W        W94191  38.328  14.599  10.912
34898W        W94192  12.676  42.799   3.838
34899W        W94193   8.750  37.025  14.428
34900W        W94194  25.135  34.425   2.199
34901W        W94195  31.459  32.905  12.577
34902W        W94196  42.384  25.192  10.626
34903W        W94197  15.306  37.900  13.802
34904W        W94198  25.566   7.730   4.627
34905W        W94199  38.006  22.122   3.821
34906W        W94200  29.120  21.204  11.051
34907W        W94201  22.628  35.513   2.808
34908W        W94202   5.406   8.663  10.937
34909W        W94203  23.712  39.409   3.308
34910W        W94204  24.076  17.667  11.044
34911W        W94205  38.964  36.097  14.978
34912W        W94206  35.496  15.134  11.000
34913W        W94207  24.081  18.107  10.589
34914W        W94208  35.036  35.023  14.849
34915W        W94209  31.083  42.842  14.948
34916W        W94210  21.023  15.656   3.263
34917W        W94211  16.593  37.983  11.123
34918W        W94212  11.806  34.501   2.206
34919W        W94213  31.459   8.391  13.467
34920W        W94214   4.704   5.737   1.734
34921W        W94215  42.875   3.742  12.458
34922W        W94216  37.970  14.133  11.562
34923W        W94217   2.932  22.066  13.060
34924W        W94218  40.336  12.299  10.432
34925W        W94219  17.295  28.622  12.831
34926W        W94220   7.714  36.504  10.522
34927W        W94221  43.893  36.906  12.561
34928W        W94222   7.300  32.445  10.604
34929W        W94223   4.763  13.638  12.068
34930W        W94224  39.518  11.128  14.796
34931W        W94225  27.672   0.875   4.189
34932W        W94226   0.339  42.402   1.754
34933W        W94227   9.223  37.450  12.555
34934W        W94228  38.375  26.194  10.589
34935W        W94229  40.908  11.664  12.506
34936W        W94230  21.623   2.799  10.974
34937W        W94231  37.403  21.035  14.369
34938W        W94232  10.381  38.333   2.369
34939W        W94233  23.071  40.351   0.309
34940W        W94234  21.602  21.208   4.147
34941W        W94235  32.006  30.516  11.542
34942W        W94236  11.723  14.317  12.554
34943W        W94237  12.782  37.030  10.891
34944W        W94238   4.259   5.357  12.521
34945W        W94239  43.975   7.886  10.971
34946W        W94240  26.690  31.933  11.564
34947W        W94241   2.401  21.717  13.791
34948W        W94242  32.083  40.513   1.279
34949W        W94243  37.894  32.025   3.162
34950W        W94244  35.924  16.155   1.756
34951W        W94245  29.469   2.435  12.996
34952W        W94246  36.084   2.883  13.797
34953W        W94247  23.609   8.872   2.849
34954W        W94248  16.236  21.567   0.259
34955W        W94249   5.862  23.162  11.082
34956W        W94250  16.799   9.182   1.255
34957W        W94251  25.048  35.914  12.572
34958W        W94252  16.181  22.010   2.179
34959W        W94253  14.328  43.842   1.818
34960W        W94254  38.986  24.641   4.670
34961W        W94255  31.012  35.002   1.740
34962W        W94256  27.106  19.271   3.640
34963W        W94257  25.537   5.310  10.595
34964W        W94258   0.915   2.845   1.923
34965W        W94259  23.731  17.251   1.424
34966W        W94260  27.532   8.169   5.740
34967W        W94261  12.130  26.015   1.838
34968W        W94262  11.348  38.369   0.421
34969W        W94263   5.407  25.179  11.001
34970W        W94264  12.706   7.904  14.424
34971W        W94265  39.978  42.396   1.259
34972W        W94266  13.812  15.309  14.289
34973W        W94267  12.255  37.943   4.333
34974W        W94268   5.821  25.641  14.914
34975W        W94269  36.531  21.190   0.752
34976W        W94270  17.626  29.441  12.854
34977W        W94271  12.195  41.526   3.279
34978W        W94272  20.586  24.567  11.557
34979W        W94273  41.006  13.665  12.930
34980W        W94274  18.718  10.301  13.351
34981W        W94275   1.357  25.981  13.929
34982W        W94276  33.564  25.149  14.951
34983W        W94277  13.244  39.346   1.842
34984W        W94278   8.779  10.142   2.386
34985W        W94279   7.286  33.452   9.509
34986W        W94280  41.817  10.654  13.367
34987W        W94281  23.214  15.723  11.472
34988W        W94282  41.360  36.486  14.029
34989W        W94283  10.231  40.377   2.238
34990W        W94284   7.260   5.240   1.425
34991W        W94285  30.946  21.612   0.911
34992W        W94286  38.380  43.865   1.225
34993W        W94287   9.698  21.577   2.754
34994W        W94288  31.935   1.309  13.891
34995W        W94289  30.486  10.169  12.435
34996W        W94290  15.204  10.847  11.583
34997W        W94291  30.016  10.287   0.874
34998W        W94292  36.569  44.371  12.043
34999W        W94293  12.279   8.336  11.896
35000W        W94294  44.982  33.096  14.294
35001W        W94295  31.535  14.252   1.399
35002W        W94296   0.403  29.613   1.877
35003W        W94297  25.576   1.290  14.847
35004W        W94298  20.724  41.847  12.522
35005W        W94299  25.182  28.941  14.767
35006W        W94300   0.751  38.397  12.461
35007W        W94301  19.758  24.165  14.919
35008W        W94302   7.209  14.637   2.754
35009W        W94303  44.835  20.634  11.448
35010W        W94304  13.821  30.074   1.292
35011W        W94305  21.235   7.841   1.441
35012W        W94306  15.094  15.099   0.791
35013W        W94307  35.539  21.540   4.308
35014W        W94308  32.464  10.257  13.826
35015W        W94309  43.897  29.478   4.350
35016W        W94310   5.906  22.629   1.716
35017W        W94311  33.123  22.622   1.848
35018W        W94312  42.301  25.525   3.313
35019W        W94313  36.403  21.642  12.826
35020W        W94314   0.467  21.698  12.843
35021W        W94315  44.458  36.898   4.271
35022W        W94316  35.435  30.609   2.662
35023W        W94317  25.127  27.663  11.906
35024W        W94318  16.306  42.860  14.493
35025W        W94319   7.763  26.016  14.770
35026W        W94320  33.598  23.134   0.305
35027W        W94321   7.744  14.095  12.844
35028W        W94322  19.741  32.937  12.511
35029W        W94323   0.469   3.361   1.739
35030W        W94324  40.924   6.709   0.780
35031W        W94325   7.798  30.147  14.898
35032W        W94326  20.613  31.928   0.374
35033W        W94327  14.834  17.173   4.790
35034W        W94328  23.032  23.712  11.522
35035W        W94329  23.083  36.374  12.855
35036W        W94330  39.936  19.765  11.513
35037W        W94331  33.519  23.646  10.132
35038W        W94332  38.386  37.451   1.852
35039W        W94333   1.320  38.478   4.723
35040W        W94334  31.066   8.374  11.572
35041W        W94335  21.512  24.687  10.578
35042W        W94336  10.159   7.830   2.411
35043W        W94337  22.648   7.354   4.246
35044W        W94338  14.302  31.916  14.799
35045W        W94339  14.285   0.344  11.967
35046W        W94340  20.698  44.344  10.536
35047W        W94341   7.362  38.880   3.695
35048W        W94342  17.681  11.669   2.740
35049W        W94343  38.915   8.373   3.299
35050W        W94344  44.482  11.711   4.304
35051W        W94345  43.441  24.130  12.341
35052W        W94346  17.279  18.218  14.943
35053W        W94347  40.499  31.497   0.412
35054W        W94348  35.544  43.815   1.786
35055W        W94349   9.224  33.433   3.672
35056W        W94350  32.000  14.729  14.836
35057W        W94351  25.122  43.891   1.830
35058W        W94352  40.386  43.355  12.520
35059W        W94353   9.297   2.784   0.870
35060W        W94354  29.021  33.991   2.799
35061W        W94355  21.560   7.353   3.369
35062W        W94356  18.713  24.219  14.475
35063W        W94357  25.024  15.756  12.387
35064W        W94358  36.953   8.282   0.336
35065W        W94359   8.870  42.317  13.308
35066W        W94360  27.955  20.637   3.656
35067W        W94361  12.812  35.431  12.876
35068W        W94362  25.475  35.983   0.953
35069W        W94363  25.091  26.991  12.857
35070W        W94364  38.443  24.681   4.244
35071W        W94365  23.497   8.837  14.394
35072W        W94366   2.932  35.995  13.863
35073W        W94367  14.245  39.995   1.415
35074W        W94368  37.442  40.029   2.741
35075W        W94369  40.956  23.708  14.321
35076W        W94370  25.971  37.563  14.441
35077W        W94371   3.314  24.681  14.442
35078W        W94372  17.273   6.690   1.217
35079W        W94373  21.553  41.354   1.232
35080W        W94374  33.621  15.772   3.671
35081W        W94375  33.907   1.338   4.623
35082W        W94376  39.014  29.668  14.294
35083W        W94377  27.954  34.006  10.020
35084W        W94378   4.701  31.439  13.841
35085W        W94379  41.957  34.528   1.880
35086W        W94380  11.306  36.058   1.865
35087W        W94381  43.322   2.318   3.833
35088W        W94382   8.281   0.358   1.807
35089W        W94383  42.834  14.775   4.199
35090W        W94384  31.065   1.450   0.835
35091W        W94385  38.442   1.433   0.784
35092W        W94386  29.584  23.132  14.014
35093W        W94387  11.283  36.411  13.045
35094W        W94388  21.654  43.824  11.936
35095W        W94389  27.957   8.672   0.357
35096W        W94390   4.726  40.909   2.678
35097W        W94391  32.590  35.010  13.795
35098W        W94392  30.542   2.401   1.327
35099W        W94393  33.003  25.495  14.854
35100W        W94394  21.748  22.183   0.854
35101W        W94395  39.057  25.123   1.722
35102W        W94396   9.199  31.948  11.912
35103W        W94397  31.144   9.167  12.833
35104W        W94398  35.401  41.017   4.669
35105W        W94399  42.469  33.000   2.750
35106W        W94400  19.544   3.821   0.329
35107W        W94401   9.272   5.350  11.922
35108W        W94402  12.666  31.032   0.412
35109W        W94403   1.941  33.426  14.371
35110W        W94404  10.732  20.552   1.296
35111W        W94405  24.666   5.381  14.020
35112W        W94406  21.098  44.911  12.933
35113W        W94407   3.251  33.613  11.378
35114W        W94408  19.206  39.878   4.723
35115W        W94409   1.317  10.826   1.410
35116W        W94410   2.919  42.376   1.928
35117W        W94411  37.088  32.498   2.735
35118W        W94412  29.500   6.701   2.196
35119W        W94413  26.593  38.396  10.082
35120W        W94414  34.370  38.401  11.065
35121W        W94415  32.599   4.885  10.907
35122W        W94416  39.434  33.587  13.473
35123W        W94417  24.013   6.828  10.407
35124W        W94418  34.433   2.798  11.411
35125W        W94419  25.476  19.156  14.969
35126W        W94420  18.642  16.105  10.420
35127W        W94421  35.910  20.741  13.408
35128W        W94422  20.662  33.479  14.818
35129W        W94423  36.511  27.142  12.857
35130W        W94424  40.412  14.242  12.874
35131W        W94425  12.801   1.412   4.142
35132W        W94426   2.831  39.491  14.364
35133W        W94427  28.994  18.158  13.851
35134W        W94428  32.006  37.022  10.530
35135W        W94429  26.697   9.359  11.440
35136W        W94430   7.393  43.951  14.343
35137W        W94431  23.085  37.361  11.033
35138W        W94432  13.623  23.103  11.956
35139W        W94433   7.287  16.097   3.766
35140W        W94434  43.350   4.378  14.837
35141W        W94435   0.869  16.578   2.321
35142W        W94436  18.621  33.560   0.254
35143W        W94437  28.641  44.477  14.928
35144W        W94438  18.071  43.463   2.672
35145W        W94439  16.764  33.513  14.758
35146W        W94440  27.621   6.869   3.311
35147W        W94441   4.707  22.221  12.468
35148W        W94442  31.923   3.737  14.446
35149W        W94443  13.812  22.222   0.306
35150W        W94444  19.636  36.054  12.441
35151W        W94445  34.447  44.272   4.178
35152W        W94446  30.952  37.878   3.329
35153W        W94447  10.323  21.636   0.732
35154W        W94448  32.583  12.769  10.430
35155W        W94449  24.674  14.754  14.439
35156W        W94450  25.477   5.784  12.403
35157W        W94451  34.491  21.555  14.024
35158W        W94452  28.034  32.940   0.427
35159W        W94453  33.104  35.020  12.900
35160W        W94454  33.961   2.230  13.053
35161W        W94455  39.896  44.415  14.369
35162W        W94456   5.421  16.681  10.943
35163W        W94457  18.250  23.661   0.807
35164W        W94458   1.422  38.863   1.286
35165W        W94459  28.185  39.017   0.791
35166W        W94460  31.950  23.212  11.921
35167W        W94461   9.838  27.154   4.297
35168W        W94462  13.613  29.554   4.832
35169W        W94463  10.140  17.602  13.527
35170W        W94464  43.450  15.679   3.362
35171W        W94465  14.775   8.884   1.809
35172W        W94466   8.897  28.495  12.908
35173W        W94467  25.187  43.908  12.938
35174W        W94468   5.372   9.873  11.471
35175W        W94469   3.446  34.411   4.639
35176W        W94470  42.912  34.560  14.453
35177W        W94471  17.153  14.157  11.128
35178W        W94472   4.767  26.578   3.756
35179W        W94473  30.096  40.474  12.548
35180W        W94474  34.921  28.028   2.242
35181W        W94475  21.521  27.678   2.383
35182W        W94476  21.721  12.838  10.964
35183W        W94477  23.034  13.220  14.396
35184W        W94478  31.039   9.734  10.591
35185W        W94479   0.314  40.816   2.760
35186W        W94480  44.336  33.534   3.674
35187W        W94481   6.245  38.516   0.361
35188W        W94482  23.547  26.040   4.698
35189W        W94483  38.358  14.761  10.560
35190W        W94484  26.614  22.619   5.148
35191W        W94485   8.338   1.886   5.251
35192W        W94486  44.815  15.754  14.765
35193W        W94487  27.160  17.644  10.570
35194W        W94488   3.874  31.102   1.716
35195W        W94489  27.117  22.506  12.029
35196W        W94490  13.162  30.524   3.702
35197W        W94491  38.472  38.011   2.891
35198W        W94492  20.654  10.645   5.682
35199W        W94493  35.987  33.535   3.343
35200W        W94494  20.675  39.967   3.777
35201W        W94495  42.942  16.813  13.458
35202W        W94496   0.294  30.024   0.763
35203W        W94497  31.553   0.301  11.956
35204W        W94498   5.811   1.869  14.969
35205W        W94499  37.905  33.555   5.675
35206W        W94500  37.462  40.809  14.767
35207W        W94501  15.591  31.516  12.556
35208W        W94502  43.323  14.194   2.323
35209W        W94503   0.900  21.511   3.185
35210W        W94504  12.304  28.937   2.675
35211W        W94505  23.579   9.355   2.788
35212W        W94506  18.555  15.324   1.267
35213W        W94507   0.748  19.090   3.324
35214W        W94508  33.918  37.362  14.411
35215W        W94509  41.390  39.902   3.860
35216W        W94510  18.622  17.577   1.861
35217W        W94511  33.409   2.445  13.542
35218W        W94512  38.904  43.988  12.980
35219W        W94513  28.592  21.684   2.404
35220W        W94514  10.335   5.869   3.776
35221W        W94515  39.462  12.324  12.494
35222W        W94516  32.620  29.655  12.428
35223W        W94517  12.759  23.044   0.453
35224W        W94518  34.894  12.156   3.782
35225W        W94519  29.118  36.854   2.880
35226W        W94520   2.426  36.984   1.388
35227W        W94521  31.578   7.261  13.537
35228W        W94522  29.542  27.172  14.966
35229W        W94523  10.283  27.108   1.320
35230W        W94524  40.049   3.903  10.475
35231W        W94525  29.592  25.112  12.868
35232W        W94526  11.757  28.078   2.382
35233W        W94527  31.122  32.616   0.907
35234W        W94528  35.086  23.733   3.262
35235W        W94529  20.187  31.143  11.580
35236W        W94530  29.951  30.584   1.226
35237W        W94531   2.435  37.064  14.904
35238W        W94532  32.921   2.328  13.449
35239W        W94533  17.299  30.081  12.082
35240W        W94534  28.008  33.410   2.780
35241W        W94535  42.376  40.369   2.364
35242W        W94536  22.221  28.664   3.740
35243W        W94537   4.287  40.948  13.511
35244W        W94538  32.981   9.192   0.304
35245W        W94539   3.772   9.747   0.791
35246W        W94540  12.843  17.628  14.949
35247W        W94541   8.834  35.492  11.920
35248W        W94542   6.728   3.432  14.983
35249W        W94543  29.041   8.180   0.396
35250W        W94544  25.192  29.452  14.379
35251W        W94545  13.776  23.127  13.854
35252W        W94546   7.255   1.480   1.825
35253W        W94547  41.367   6.210  12.066
35254W        W94548  35.088  35.990  11.417
35255W        W94549  16.698  34.026   3.322
35256W        W94550   5.723  14.121   2.232
35257W        W94551   8.253   2.944  10.124
35258W        W94552  21.140  19.105   0.783
35259W        W94553  11.716  34.457  10.926
35260W        W94554  22.129   7.820   0.767
35261W        W94555   0.485  26.640   2.286
35262W        W94556  43.428  43.275   0.413
35263W        W94557  21.617  35.073  14.783
35264W        W94558  24.667  40.422   0.316
35265W        W94559  26.605   8.763  10.002
35266W        W94560  36.939  30.569   0.900
35267W        W94561  36.415  31.965   4.172
35268W        W94562  37.083   5.218  10.528
35269W        W94563  43.986  26.954   4.204
35270W        W94564   2.311  29.145   5.165
35271W        W94565  24.156  33.414  13.055
35272W        W94566  39.857  34.013   4.165
35273W        W94567  14.327  36.401  14.404
35274W        W94568  41.906   3.383   0.790
35275W        W94569   8.247   1.415   2.886
35276W        W94570  16.806   0.759   4.125
35277W        W94571  42.301  30.054  10.409
35278W        W94572   3.282  19.734  11.435
35279W        W94573   0.935  39.386   1.279
35280W        W94574  43.467   5.228  10.405
35281W        W94575   3.900  42.923   4.295
35282W        W94576  38.559   7.691   3.769
35283W        W94577  32.481  33.399   3.678
35284W        W94578   5.798   9.645  11.568
35285W        W94579   8.293  27.961  12.452
35286W        W94580  36.563   5.266   1.896
35287W        W94581  43.498   5.325  13.874
35288W        W94582  18.580  40.333  11.466
35289W        W94583  12.246   2.822   1.268
35290W        W94584  31.020  29.134   0.727
35291W        W94585  33.498  24.666   5.147
35292W        W94586  35.428  38.463   1.906
35293W        W94587  35.096  18.655  10.459
35294W        W94588  43.312  27.023  13.495
35295W        W94589  35.555  18.596   4.133
35296W        W94590  28.639  18.589  11.505
35297W        W94591  38.350  42.303  14.390
35298W        W94592  34.023  12.307  14.912
35299W        W94593  31.116   5.789   0.784
35300W        W94594  24.484  18.744  12.398
35301W        W94595   6.880   9.740   2.290
35302W        W94596  11.212  28.945   0.376
35303W        W94597  25.581  40.424   2.231
35304W        W94598  39.825  17.163  10.482
35305W        W94599  29.448   7.846  12.523
35306W        W94600  38.492  43.946   3.840
35307W        W94601   9.850  43.868   0.364
35308W        W94602   4.385   1.307   2.694
35309W        W94603   9.346  42.802   2.851
35310W        W94604   4.322  33.548  14.483
35311W        W94605  31.076  34.024  12.957
35312W        W94606  31.053  24.634  14.031
35313W        W94607   9.228  38.494  13.823
35314W        W94608  13.306  22.628   0.954
35315W        W94609  21.126  37.454  14.414
35316W        W94610  13.123  29.010   3.729
35317W        W94611  27.060  27.511   4.277
35318W        W94612   6.270  35.497   9.946
35319W        W94613  34.867  36.347   3.720
35320W        W94614  18.281  11.850   3.320
35321W        W94615  16.584   1.932   3.646
35322W        W94616  42.493  35.050  11.576
35323W        W94617  10.665   3.920  13.838
35324W        W94618  40.519  23.176  14.511
35325W        W94619   6.732  36.985  14.943
35326W        W94620  11.754  42.523  10.987
35327W        W94621  38.390  26.476   2.804
35328W        W94622  16.134  12.209   2.865
35329W        W94623  32.896  28.050   2.825
35330W        W94624   6.425  22.591   1.792
35331W        W94625   5.411  38.925  11.041
35332W        W94626  17.292   3.422  14.891
35333W        W94627   5.858  23.535  14.009
35334W        W94628  43.002  39.335  11.540
35335W        W94629  33.550  23.163   4.203
35336W        W94630  14.292   9.262  12.526
35337W        W94631   6.262  29.491   3.322
35338W        W94632   3.885  10.793  10.894
35339W        W94633   5.778  16.246  11.498
35340W        W94634  39.033  20.539  10.538
35341W        W94635  19.279  22.572   0.447
35342W        W94636  36.068   4.380  14.367
35343W        W94637  14.333  17.295  11.496
35344W        W94638   8.892   3.287  13.047
35345W        W94639   1.270  24.024  11.032
35346W        W94640   0.483  32.511  11.870
35347W        W94641   8.319  18.071  10.142
35348W        W94642  24.039   0.886   1.370
35349W        W94643  12.216  30.508  11.964
35350W        W94644  40.021  40.501   0.429
35351W        W94645  41.985  17.610  12.873
35352W        W94646  21.242   3.449  14.858
35353W        W94647  31.096  42.948  12.539
35354W        W94648  37.463   7.868  10.116
35355W        W94649  20.161  17.608   3.261
35356W        W94650  11.839  43.332  10.429
35357W        W94651  32.567  35.078   4.351
35358W        W94652  28.177  12.700   0.861
35359W        W94653  14.660  37.077   1.359
35360W        W94654  32.627  23.500   1.717
35361W        W94655  22.638  13.137   1.714
35362W        W94656  26.977  27.155  11.047
35363W        W94657  14.704   7.819  10.981
35364W        W94658  30.494  38.497  13.997
35365W        W94659  28.589  11.787  14.905
35366W        W94660  27.163   8.231  10.137
35367W        W94661  14.596   4.426  12.351
35368W        W94662   4.809  20.157   2.320
35369W        W94663  30.935  44.308   1.861
35370W        W94664  40.363  20.556   1.820
35371W        W94665  44.367  17.237   2.762
35372W        W94666   2.811  34.865  13.406
35373W        W94667  44.976   6.319  14.851
35374W        W94668   2.887   0.273   4.743
35375W        W94669   7.198  43.396   3.198
35376W        W94670  21.212  10.792  11.958
35377W        W94671  26.141   9.172   9.645
35378W        W94672  28.680  18.654   0.879
35379W        W94673  35.550  34.537   0.932
35380W        W94674  18.785   8.831   1.825
35381W        W94675  26.659  40.904  12.031
35382W        W94676  32.124  35.870   0.931
35383W        W94677  38.027  41.314   2.821
35384W        W94678  39.049  27.005   4.720
35385W        W94679   7.413  31.901   4.163
35386W        W94680  10.169   4.364   0.333
35387W        W94681  32.528   5.416   4.172
35388W        W94682  19.570  43.502  13.373
35389W        W94683  41.789  19.192  13.911
35390W        W94684  17.643  18.283  12.865
35391W        W94685  17.085  29.954   3.180
35392W        W94686  24.076   0.943  11.446
35393W        W94687  36.025  16.792   1.904
35394W        W94688  37.895  29.144  13.870
35395W        W94689  26.696  27.548   2.888
35396W        W94690  30.498  41.974  14.355
35397W        W94691  28.662   7.170  13.012
35398W        W94692   5.216  12.676  14.371
35399W        W94693  34.445   1.828   3.236
35400W        W94694  20.045  35.385   2.184
35401W        W94695  10.309  26.577   4.671
35402W        W94696  23.718  23.711   1.889
35403W        W94697  28.469  38.412   9.557
35404W        W94698  33.400  31.600  13.398
35405W        W94699  18.128  29.173  13.486
35406W        W94700  12.276  17.738  12.827
35407W        W94701  11.860  13.672   3.710
35408W        W94702   7.317   7.702  11.947
35409W        W94703   9.750  40.870   3.207
35410W        W94704  22.026  16.170   0.366
35411W        W94705  23.629  38.384  12.878
35412W        W94706  35.560  42.865   1.898
35413W        W94707  34.013  35.563   3.686
35414W        W94708   2.843  28.952   1.767
35415W        W94709   3.362  20.543  11.447
35416W        W94710  32.017   1.444   0.954
35417W        W94711  42.868  29.495   4.626
35418W        W94712   4.361  15.187  12.998
35419W        W94713  15.792  32.126   2.748
35420W        W94714  41.526  15.247   3.762
35421W        W94715  30.418  23.057   0.477
35422W        W94716  33.997   9.673  11.871
35423W        W94717  21.171  40.362  14.972
35424W        W94718   3.356  36.456   3.240
35425W        W94719  10.223  11.147   2.324
35426W        W94720  41.316  40.988   3.828
35427W        W94721  12.642   6.190   3.796
35428W        W94722  16.642  39.560   3.304
35429W        W94723   1.430  34.571   4.773
35430W        W94724  14.110  18.283  13.853
35431W        W94725  39.451  34.880   0.804
35432W        W94726  34.454  27.183  13.461
35433W        W94727   4.242  21.198  12.909
35434W        W94728  23.540   0.918  10.450
35435W        W94729  34.993  31.992  13.437
35436W        W94730   5.328  27.672   1.875
35437W        W94731  19.570   3.833  12.344
35438W        W94732  39.901   8.312   1.844
35439W        W94733  29.999  12.197   3.172
35440W        W94734  28.021  36.983  11.493
35441W        W94735  44.990  15.646   3.315
35442W        W94736  25.522  38.968  11.576
35443W        W94737   5.287  18.565   2.818
35444W        W94738  13.338  31.977   2.407
35445W        W94739  36.970   3.834  13.316
35446W        W94740   9.188  18.750   0.747
35447W        W94741  24.695  27.490   4.262
35448W        W94742  34.050   9.675   3.662
35449W        W94743  31.060  21.166  11.106
35450W        W94744  27.061  36.350  11.427
35451W        W94745   1.391  16.779   4.216
35452W        W94746  32.604  19.653  11.424
35453W        W94747  15.697   8.865   2.732
35454W        W94748  14.118   6.192   4.151
35455W        W94749  15.769  36.920   0.283
35456W        W94750  12.812   1.359  13.885
35457W        W94751  17.793  15.191  14.883
35458W        W94752  16.309   0.376   3.175
35459W        W94753   7.390   4.218  11.004
35460W        W94754  39.963  29.130  12.365
35461W        W94755   1.926  17.646   1.436
35462W        W94756   7.373  44.854   2.262
35463W        W94757  25.638  18.618  14.029
35464W        W94758  18.747   9.843   1.418
35465W        W94759  19.565  11.776   1.383
35466W        W94760  12.666  44.876  12.929
35467W        W94761   7.778  35.374   4.340
35468W        W94762  15.129  37.537   0.776
35469W        W94763   8.284  15.686   3.678
35470W        W94764  28.050  19.748  11.604
35471W        W94765  25.169  30.059   0.767
35472W        W94766  41.835  15.647  13.930
35473W        W94767  35.954   6.683   0.919
35474W        W94768  19.083  31.462  10.962
35475W        W94769  19.063   0.768   2.311
35476W        W94770  32.119  11.740  14.314
35477W        W94771  24.205  27.148  14.315
35478W        W94772  16.802  28.945   0.470
35479W        W94773   7.783  38.913   4.683
35480W        W94774  25.145  42.903   4.759
35481W        W94775  19.676   4.751   2.809
35482W        W94776  33.942  41.413  13.434
35483W        W94777   0.284  32.925  14.924
35484W        W94778  38.541  18.758  14.414
35485W        W94779  27.481  42.835   0.285
35486W        W94780  26.191  35.545  11.083
35487W        W94781  41.500  25.022   1.916
35488W        W94782  18.097   7.723   2.376
35489W        W94783  33.993  12.141   4.621
35490W        W94784  19.122  32.504   1.935
35491W        W94785   3.952  36.430  13.307
35492W        W94786  25.604  11.144   4.115
35493W        W94787   9.270   1.844  11.966
35494W        W94788  27.992   4.856   1.424
35495W        W94789   3.230  25.620   0.835
35496W        W94790  27.173  18.772  11.507
35497W        W94791  36.469  25.193  11.997
35498W        W94792  13.643  29.639   2.737
35499W        W94793  36.073  43.446   2.692
35500W        W94794   8.253  43.326  11.093
35501W        W94795  12.304  42.027   3.789
35502W        W94796  36.860  11.774  13.020
35503W        W94797  33.900  24.991   0.307
35504W        W94798  27.987   5.371   0.281
35505W        W94799  38.375  41.978  11.084
35506W        W94800  27.610  29.665  10.520
35507W        W94801  43.319  26.111  12.055
35508W        W94802  21.541  12.283  14.438
35509W        W94803  12.312   5.248   3.326
35510W        W94804   1.735  30.615   1.291
35511W        W94805  26.200  35.497  12.014
35512W        W94806  25.642  17.237  10.475
35513W        W94807  10.316  33.599  12.869
35514W        W94808  13.224  19.209  13.876
35515W        W94809  16.170  17.090  14.339
35516W        W94810  32.623  11.171  12.501
35517W        W94811  43.336   4.700  13.026
35518W        W94812  22.609  37.904   2.862
35519W        W94813  13.159   5.319  11.994
35520W        W94814  38.836  12.841   0.901
35521W        W94815   7.886  35.504  14.850
35522W        W94816  31.063   4.833   3.349
35523W        W94817  36.864  39.331  14.360
35524W        W94818  18.591  22.067  14.317
35525W        W94819  11.772   5.900  14.275
35526W        W94820  37.478  40.902  11.471
35527W        W94821  26.559  26.664  12.551
35528W        W94822  18.698   6.320   1.872
35529W        W94823  12.120  29.640  14.390
35530W        W94824  34.952   0.473   2.270
35531W        W94825  20.722  39.518   3.250
35532W        W94826  43.962  26.458  11.435
35533W        W94827  37.418  24.501   0.351
35534W        W94828  10.286  10.282   1.702
35535W        W94829  17.693   5.260   3.637
35536W        W94830  27.579  23.643   3.824
35537W        W94831  38.043  13.619   2.241
35538W        W94832  43.291  38.515   3.744
35539W        W94833  19.663  30.946  13.531
35540W        W94834   5.353  31.113  13.960
35541W        W94835  35.933   9.214  14.950
35542W        W94836  40.477   0.899  14.388
35543W        W94837   0.919  21.028  11.419
35544W        W94838  40.862  42.335  14.763
35545W        W94839  28.658  25.139   2.746
35546W        W94840  10.654  31.042  12.033
35547W        W94841  42.991   1.274   3.723
35548W        W94842  29.987  44.814   0.449
35549W        W94843  17.122   7.291  13.817
35550W        W94844  34.032  12.297   3.726
35551W        W94845   6.293  22.710  13.440
35552W        W94846   4.235   6.755  11.499
35553W        W94847  35.940  11.167  13.543
35554W        W94848   2.441  29.992  12.085
35555W        W94849  39.829   9.190  11.446
35556W        W94850  19.651   2.854   2.187
35557W        W94851  18.154   7.896   3.754
35558W        W94852  13.644  17.146  10.913
35559W        W94853  35.106  36.895   4.749
35560W        W94854  20.726  36.076  13.341
35561W        W94855  10.243  43.280   4.633
35562W        W94856  36.389  11.707   3.261
35563W        W94857  20.096  43.862  10.977
35564W        W94858  41.297   1.876  13.925
35565W        W94859  18.064  18.075   3.262
35566W        W94860  19.724  14.103  11.951
35567W        W94861  31.074  23.144  14.421
35568W        W94862  24.011  18.190  12.488
35569W        W94863  27.006   4.926  10.504
35570W        W94864  22.225  24.659  13.894
35571W        W94865  39.036   7.268   9.461
35572W        W94866   9.353  41.959  14.877
35573W        W94867   6.841   2.295   2.778
35574W        W94868   4.756  31.476   4.223
35575W        W94869  34.547  42.433   2.279
35576W        W94870  29.528   2.722   3.793
35577W        W94871  22.049  41.466  13.418
35578W        W94872  15.229   5.763   0.921
35579W        W94873  14.196  33.107   3.324
35580W        W94874  13.196   3.798  14.909
35581W        W94875   0.321   0.264  10.411
35582W        W94876  38.853  43.828   2.799
35583W        W94877  44.414   8.708   3.339
35584W        W94878  12.143  14.805  12.893
35585W        W94879  36.936  35.971  13.464
35586W        W94880   8.180  18.636  12.505
35587W        W94881  34.905  32.939  13.326
35588W        W94882  16.313   0.314  14.833
35589W        W94883   8.807  24.556  13.341
35590W        W94884  37.873  26.187   3.286
35591W        W94885  27.054  25.551  11.053
35592W        W94886  25.477   6.795   0.889
35593W        W94887  13.289  39.346  14.916
35594W        W94888  21.644  13.153   3.294
35595W        W94889  11.176  33.404   0.914
35596W        W94890  17.151  28.990   1.216
35597W        W94891  30.453  10.284  10.535
35598W        W94892  43.359  15.330   1.307
35599W        W94893   2.261  21.582   2.328
35600W        W94894  32.414  37.387   1.326
35601W        W94895  22.173   3.460  10.096
35602W        W94896   5.430  36.584  13.872
35603W        W94897  18.716  18.204  11.955
35604W        W94898   8.744  23.214  10.963
35605W        W94899   5.275   0.341   5.656
35606W        W94900  11.343   3.244   4.828
35607W        W94901  34.612  41.985   2.761
35608W        W94902   4.324  14.648  12.917
35609W        W94903   8.848  14.736  12.050
35610W        W94904  36.404  32.940   2.901
35611W        W94905  24.713  29.452   1.703
35612W        W94906   3.237   1.401  11.984
35613W        W94907  11.675  41.979  12.489
35614W        W94908  44.766   6.838  11.491
35615W        W94909  27.005   2.724  10.995
35616W        W94910  31.090  38.382  13.547
35617W        W94911  43.508  36.592  11.001
35618W        W94912  43.333  17.630  14.481
35619W        W94913  38.343  37.506   5.273
35620W        W94914  42.989  20.071  14.993
35621W        W94915  39.880  19.780  14.848
35622W        W94916  24.188   4.912   3.813
35623W        W94917  10.827   6.312   0.361
35624W        W94918  40.364  36.894   0.455
35625W        W94919  30.490   6.833   0.372
35626W        W94920   4.747  30.483   0.883
35627W        W94921  18.619  42.939   3.728
35628W        W94922  27.674  24.724  11.050
35629W        W94923  27.996  34.046   4.727
35630W        W94924  41.878  28.032  13.900
35631W        W94925  10.292  12.855   0.456
35632W        W94926  25.044  27.994   0.360
35633W        W94927  29.492  40.022   9.533
35634W        W94928  43.441  30.982  13.856
35635W        W94929   6.684  39.480  12.983
35636W        W94930  22.593  19.758   4.156
35637W        W94931  30.993  10.719  13.433
35638W        W94932   3.262  41.991  13.974
35639W        W94933   0.375  12.618  12.945
35640W        W94934   0.744  26.677  13.366
35641W        W94935   8.850   7.198  10.488
35642W        W94936   5.417  40.475   1.730
35643W        W94937   4.226  15.093   1.847
35644W        W94938   3.947  15.257   0.288
35645W        W94939  44.761  17.742   0.322
35646W        W94940  11.768   5.296   4.290
35647W        W94941  13.732  37.946  11.909
35648W        W94942  43.484  44.757  12.468
35649W        W94943   6.181  38.939   4.742
35650W        W94944  16.172  25.477  13.470
35651W        W94945  33.087  40.816  11.084
35652W        W94946  13.188   5.194  13.338
35653W        W94947   5.864  23.190   1.318
35654W        W94948   9.185  26.163   4.838
35655W        W94949  31.509  12.676   3.638
35656W        W94950   1.753  34.903  11.398
35657W        W94951  31.037  12.631  14.394
35658W        W94952  16.678   9.761   2.777
35659W        W94953  24.606  30.074   2.204
35660W        W94954  39.828  11.813  12.387
35661W        W94955   7.315  30.521   3.229
35662W        W94956  20.630  15.801   4.761
35663W        W94957   1.758  34.400  12.067
35664W        W94958  19.073  18.612   0.942
35665W        W94959  13.770  22.215   2.724
35666W        W94960  41.825  13.309   0.285
35667W        W94961   9.704  16.166  11.005
35668W        W94962   5.309  18.733  14.419
35669W        W94963   1.752  13.687  11.504
35670W        W94964  28.551  29.125  11.575
35671W        W94965   3.764   7.697   2.224
35672W        W94966  40.338  29.928  14.309
35673W        W94967  33.985  40.863   4.617
35674W        W94968  38.890  42.498  13.828
35675W        W94969  30.103  23.989  12.542
35676W        W94970  24.086  18.642   4.653
35677W        W94971  30.151   8.900  12.546
35678W        W94972  31.923  37.579  10.049
35679W        W94973   6.277  33.542  12.990
35680W        W94974   1.794   5.220  14.390
35681W        W94975  11.357  25.014  11.443
35682W        W94976  43.809  35.359   3.846
35683W        W94977  32.016  26.666  13.806
35684W        W94978  11.259  14.628  13.054
35685W        W94979  38.540  32.479  11.478
35686W        W94980  15.699  28.077   0.798
35687W        W94981  34.068  27.575  14.353
35688W        W94982   4.442   2.384   0.456
35689W        W94983  17.213  17.211  14.953
35690W        W94984  44.760   3.854  14.471
35691W        W94985  31.427  17.667   1.368
35692W        W94986  18.050  39.350  13.467
35693W        W94987  11.247  31.062   2.280
35694W        W94988  38.843   0.366  10.889
35695W        W94989  24.162   5.205   4.681
35696W        W94990  29.437  27.675  10.419
35697W        W94991  18.676   6.399   3.694
35698W        W94992  19.608  18.636  14.456
35699W        W94993  31.921  12.611   2.289
35700W        W94994  16.201   0.318  12.580
35701W        W94995  13.272   7.391   1.232
35702W        W94996  22.517  10.711   3.368
35703W        W94997  36.866   0.485  11.479
35704W        W94998  10.849  25.574   4.720
35705W        W94999   9.362  35.560   9.493
35706W        W95000  12.345  22.737  10.991
35707W        W95001  32.948  24.651   0.356
35708W        W95002  38.946  13.756   0.782
35709W        W95003  31.576  32.574  12.938
35710W        W95004  40.903  34.542   0.246
35711W        W95005  33.488  16.585   0.896
35712W        W95006  11.233   8.806  12.422
35713W        W95007  19.150  16.657  13.488
35714W        W95008   6.397  29.004  11.430
35715W        W95009  33.875  15.228  12.853
35716W        W95010  39.054   4.820   2.410
35717W        W95011   1.422  44.347   3.792
35718W        W95012  32.578  42.431   3.253
35719W        W95013  14.605  35.876   5.286
35720W        W95014  21.730  26.970  13.515
35721W        W95015   6.375  21.589   1.710
35722W        W95016   0.904   9.871   4.742
35723W        W95017  14.278  39.454  10.968
35724W        W95018  40.948  15.118  14.430
35725W        W95019  34.410  13.749  14.513
35726W        W95020  16.255  15.788   2.800
35727W        W95021  40.495   8.751  13.310
35728W        W95022   4.802  16.799   2.363
35729W        W95023  44.354  16.753  10.528
35730W        W95024  43.376  22.084   2.846
35731W        W95025  35.525  18.676  14.472
35732W        W95026  23.192   0.290   0.883
35733W        W95027  16.314  25.527  11.096
35734W        W95028  42.810  22.100  13.967
35735W        W95029  38.455   4.235   4.140
35736W        W95030  22.248   2.365  11.442
35737W        W95031  33.606  23.679  11.582
35738W        W95032   4.805  33.548  10.487
35739W        W95033  39.975   4.769   0.356
35740W        W95034  21.540   4.204   0.419
35741W        W95035  23.999  41.036   2.368
35742W        W95036   8.285   1.473  13.314
35743W        W95037  12.228   6.824  13.398
35744W        W95038  14.251   8.778  14.866
35745W        W95039  19.686  24.647   4.617
35746W        W95040   6.357  19.712  10.051
35747W        W95041  15.325  35.553  13.017
35748W        W95042  12.810  11.708  14.972
35749W        W95043   0.895  23.184   2.899
35750W        W95044  33.125  25.118   3.765
35751W        W95045   6.781   8.273   2.683
35752W        W95046  26.149  10.244   4.114
35753W        W95047   5.419  27.525  11.006
35754W        W95048  27.021  14.213  12.426
35755W        W95049   9.309  44.944  12.467
35756W        W95050  15.106  33.519  13.844
35757W        W95051   3.252   4.798  13.018
35758W        W95052   6.911  28.046   0.907
35759W        W95053   0.847  40.929   2.235
35760W        W95054   4.415  37.059   3.203
35761W        W95055  43.873  25.078  13.902
35762W        W95056  44.452  43.298  11.079
35763W        W95057  35.907  40.395   0.746
35764W        W95058  28.568  24.164   0.333
35765W        W95059  22.220   3.796  14.371
35766W        W95060  20.754  29.491  10.590
35767W        W95061  43.862  16.658  12.377
35768W        W95062  18.567   7.808  10.607
35769W        W95063   3.864   6.772   4.303
35770W        W95064  28.979  15.170   4.700
35771W        W95065   7.195  33.114  12.496
35772W        W95066  31.498  22.218  13.828
35773W        W95067  12.845  44.761  12.058
35774W        W95068   5.274  14.214   1.730
35775W        W95069  13.284  20.528  13.447
35776W        W95070  32.141  29.957  11.537
35777W        W95071  35.366  41.393   2.669
35778W        W95072  15.699   3.879  14.912
35779W        W95073  41.308  30.159  14.301
35780W        W95074  15.228  15.115   4.774
35781W        W95075  27.654  23.133  12.554
35782W        W95076   5.299  31.002  14.787
35783W        W95077   5.922  25.129  10.588
35784W        W95078  22.688  30.431  13.509
35785W        W95079   0.370  16.074   4.796
35786W        W95080  21.544  10.251   3.289
35787W        W95081  32.421  19.146  12.086
35788W        W95082  38.984  43.006  14.454
35789W        W95083  38.444  40.511   0.447
35790W        W95084  35.519  35.043   0.315
35791W        W95085  27.576  26.656   2.763
35792W        W95086  11.835  27.104  12.395
35793W        W95087  13.294  33.965   2.200
35794W        W95088  25.156  11.835  11.386
35795W        W95089  21.246  32.083   1.808
35796W        W95090  31.478  30.989  11.112
35797W        W95091  18.209  40.870  10.974
35798W        W95092  11.711  27.999  13.532
35799W        W95093   9.219  33.592   4.184
35800W        W95094  25.074   2.754   1.307
35801W        W95095   8.365  35.869  12.439
35802W        W95096  29.460   4.305  13.900
35803W        W95097  26.085  38.486   4.207
35804W        W95098   2.339   1.385  14.828
35805W        W95099  37.020  22.101   4.208
35806W        W95100  13.805  10.878   2.687
35807W        W95101  42.334  35.384   3.145
35808W        W95102  15.201  12.127  14.430
35809W        W95103  33.121  14.635  14.760
35810W        W95104   9.210   6.216  11.925
35811W        W95105   4.868   6.194   0.307
35812W        W95106  18.283  42.484   1.823
35813W        W95107  38.959   5.345  13.414
35814W        W95108  18.575  34.380  12.937
35815W        W95109  17.722  17.720  12.037
35816W        W95110  30.534   9.282  13.491
35817W        W95111  10.308   6.344  10.645
35818W        W95112  31.429   1.356   3.709
35819W        W95113   5.393  15.743   1.298
35820W        W95114  31.539   4.804  11.526
35821W        W95115  28.052  37.947  10.922
35822W        W95116  33.426   7.351   4.686
35823W        W95117   3.931  42.460  10.566
35824W        W95118  42.431  13.258   2.241
35825W        W95119  39.998   5.199   0.463
35826W        W95120  44.324  31.439  11.438
35827W        W95121  16.750  21.581   5.141
35828W        W95122  37.429   7.855   3.316
35829W        W95123  32.985   3.947  14.292
35830W        W95124  35.560  12.280   2.663
35831W        W95125  27.503  16.782   2.330
35832W        W95126  44.338  24.038   0.840
35833W        W95127  20.167  28.539   3.658
35834W        W95128  31.458  35.014   0.857
35835W        W95129  10.198  39.915  10.095
35836W        W95130  28.149  10.301   2.396
35837W        W95131  21.224   9.823   1.374
35838W        W95132  30.930  42.310   3.251
35839W        W95133   5.327  33.539   2.821
35840W        W95134   1.742  18.247   3.827
35841W        W95135   2.741  19.144   3.639
35842W        W95136  38.392  21.145  10.505
35843W        W95137   9.664  28.167  13.326
35844W        W95138  22.702  40.545  14.303
35845W        W95139  43.296   0.445  11.096
35846W        W95140   5.706   9.802  14.282
35847W        W95141  40.489   7.257   4.809
35848W        W95142  29.066  12.783  12.467
35849W        W95143  24.503  34.951  12.374
35850W        W95144  21.611   7.675   0.399
35851W        W95145  16.090  22.089  14.466
35852W        W95146  38.949  16.648   2.674
35853W        W95147   3.309  30.609   4.268
35854W        W95148   2.409  43.448  12.386
35855W        W95149  31.946  33.109  10.501
35856W        W95150  18.546  44.465   9.950
35857W        W95151  38.410  29.445  10.971
35858W        W95152  16.093   4.763  11.038
35859W        W95153  23.035  22.173  13.052
35860W        W95154  21.560  36.447  12.064
35861W        W95155  25.648  33.399   2.375
35862W        W95156  10.141  15.703   0.378
35863W        W95157  29.539   6.349  12.515
35864W        W95158   6.191   6.732  12.851
35865W        W95159   6.759  23.019  11.101
35866W        W95160  37.963  17.721   4.750
35867W        W95161  40.505  29.528  13.031
35868W        W95162   9.705   1.866  11.504
35869W        W95163  11.784  18.089  11.916
35870W        W95164  14.117   8.781   1.211
35871W        W95165   4.724  21.628   0.856
35872W        W95166  22.121  32.975  14.790
35873W        W95167  35.398  42.307  10.997
35874W        W95168   8.348   3.399  10.413
35875W        W95169  26.957  33.567  12.560
35876W        W95170  15.132  10.783  10.133
35877W        W95171   2.938  10.692  10.433
35878W        W95172  11.199  34.393   2.245
35879W        W95173  25.548  29.016  10.102
35880W        W95174   1.787  14.194  14.481
35881W        W95175  13.829  24.147   3.242
35882W        W95176  43.018   4.899  10.462
35883W        W95177  14.609  15.196  12.984
35884W        W95178   1.949  40.835   4.125
35885W        W95179  19.662  32.544   4.186
35886W        W95180  43.879   9.234   3.383
35887W        W95181  24.495   1.881   1.229
35888W        W95182   9.698  29.522   2.236
35889W        W95183  26.535  33.960  12.409
35890W        W95184  40.492  30.544   2.836
35891W        W95185  16.773  27.457  13.805
35892W        W95186  22.607  27.464  13.041
35893W        W95187   1.315  32.048  10.542
35894W        W95188  42.428   5.297   2.370
35895W        W95189  13.132  29.032  13.997
35896W        W95190  32.920  24.481   1.889
35897W        W95191  37.347  29.067   1.850
35898W        W95192   0.359  12.281  14.818
35899W        W95193  38.495  12.644  14.971
35900W        W95194  39.884  39.811  14.495
35901W        W95195  33.896  28.592  13.860
35902W        W95196  38.444  26.158  13.019
35903W        W95197   4.775  30.041   1.392
35904W        W95198   3.904   9.349   3.850
35905W        W95199  16.299  35.918  13.043
35906W        W95200  12.256  13.833   0.844
35907W        W95201  34.080  35.419   1.701
35908W        W95202  23.028  44.420   0.820
35909W        W95203  25.174  29.928   2.865
35910W        W95204   0.334  23.042   1.718
35911W        W95205  20.269  12.249  14.798
35912W        W95206  14.780  42.443  14.369
35913W        W95207  12.158   0.421  13.403
35914W        W95208   4.767  12.159  12.941
35915W        W95209   8.750  42.974  13.916
35916W        W95210  14.689  16.776   0.828
35917W        W95211  27.616   8.874   0.963
35918W        W95212  21.738  22.523  14.789
35919W        W95213   0.854  43.514   4.627
35920W        W95214   0.470  21.666   0.396
35921W        W95215   6.282  33.490   9.927
35922W        W95216  35.361  42.796   2.322
35923W        W95217  35.067  15.785   5.104
35924W        W95218  11.169  13.334  14.793
35925W        W95219   0.982  14.095  14.900
35926W        W95220  10.262  42.002  12.993
35927W        W95221  35.398  26.669   4.195
35928W        W95222  11.864  13.230   4.193
35929W        W95223  25.110  23.527   4.761
35930W        W95224  21.203   8.749   0.937
35931W        W95225   9.768   0.881   2.254
35932W        W95226  13.615  29.645  14.312
35933W        W95227   8.890  25.047  14.762
35934W        W95228  21.572  28.097  13.847
35935W        W95229   2.344  40.930  11.863
35936W        W95230  14.786  33.026   3.728
35937W        W95231   3.395  40.455  13.315
35938W        W95232  18.058  43.798   4.164
35939W        W95233  42.346   7.371   4.289
35940W        W95234   9.829   9.805  12.023
35941W        W95235  13.147  38.052   0.853
35942W        W95236  23.106  14.240   0.785
35943W        W95237  24.097   4.266  13.971
35944W        W95238  24.012   9.317   1.225
35945W        W95239  15.586   6.268  14.979
35946W        W95240  15.099  17.146  13.326
35947W        W95241  41.010  30.969   4.815
35948W        W95242   9.222  39.035   0.441
35949W        W95243  41.383  14.191  11.929
35950W        W95244  33.078  37.864  12.476
35951W        W95245   5.718  11.162   2.734
35952W        W95246  41.017  42.956  10.965
35953W        W95247  25.526   9.886   9.924
35954W        W95248  28.579  12.688   0.319
35955W        W95249  19.272  27.449   2.269
35956W        W95250   2.786  29.151  12.457
35957W        W95251   1.383  28.501  11.952
35958W        W95252  30.424   4.299   3.335
35959W        W95253   3.340  12.349  13.385
35960W        W95254  30.464   1.278  13.310
35961W        W95255  11.707   2.796   2.333
35962W        W95256  14.241   9.209  11.556
35963W        W95257  17.304  37.481   0.474
35964W        W95258   1.907   0.480   1.913
35965W        W95259  18.226  33.605  13.546
35966W        W95260   7.347  43.895   1.299
35967W        W95261   2.891   7.339   4.688
35968W        W95262  33.895  33.523   3.319
35969W        W95263  39.062  18.061  10.621
35970W        W95264  28.165  25.003   3.374
35971W        W95265  37.971   4.834  12.491
35972W        W95266  21.207  32.086  11.410
35973W        W95267  20.686  44.825  10.936
35974W        W95268  16.765  21.147  13.368
35975W        W95269   7.328  13.825   1.797
35976W        W95270  25.137  35.947   2.795
35977W        W95271  31.122  27.512  12.825
35978W        W95272  22.539  44.397  13.917
35979W        W95273  18.134  22.106  12.076
35980W        W95274   5.410   2.251  10.904
35981W        W95275  16.292  15.316  13.499
35982W        W95276  31.969  15.754   4.679
35983W        W95277  17.627  42.895   3.265
35984W        W95278  31.048  44.358   4.760
35985W        W95279   9.680  19.241   4.728
35986W        W95280   1.811  34.523  13.020
35987W        W95281  22.681  17.064  13.826
35988W        W95282   5.843  19.105   3.847
35989W        W95283  37.378  44.267   0.366
35990W        W95284  32.606  40.018   1.780
35991W        W95285  18.596   0.314  12.520
35992W        W95286  32.531  23.117   4.698
35993W        W95287  13.744  32.132  12.044
35994W        W95288  37.476  34.043   2.887
35995W        W95289  13.351  11.146   4.627
35996W        W95290   4.775   9.771   1.371
35997W        W95291  44.355   9.839   4.179
35998W        W95292  35.051   7.685   2.294
35999W        W95293  42.283  35.415  14.306
36000W        W95294  39.550  28.004   0.324
36001W        W95295  18.662   4.830   5.312
36002W        W95296  11.742   6.298   5.221
36003W        W95297  34.007  10.294   2.835
36004W        W95298  30.529  41.806   2.884
36005W        W95299  34.449  39.012  12.348
36006W        W95300  39.891  28.168  13.948
36007W        W95301  34.555   9.788  13.401
36008W        W95302  27.608   4.903   0.877
36009W        W95303   8.826   8.232   3.778
36010W        W95304  10.719   1.769  11.929
36011W        W95305  22.613   1.924   4.671
36012W        W95306   6.886   3.269   5.187
36013W        W95307  22.220  29.969   0.434
36014W        W95308   7.755  19.584  10.491
36015W        W95309  27.981   0.474   4.191
36016W        W95310  24.666  32.422  14.437
36017W        W95311   1.755   8.729   3.790
36018W        W95312  24.632  17.557  10.419
36019W        W95313  32.603  24.560   2.215
36020W        W95314  40.522  18.212  14.393
36021W        W95315   7.903  41.974  12.550
36022W        W95316  30.001   5.826   1.913
36023W        W95317  21.668  26.538   2.285
36024W        W95318   6.353  26.672   3.694
36025W        W95319  12.355  31.051  14.350
36026W        W95320  16.150  22.117  10.974
36027W        W95321  40.324  18.615   1.387
36028W        W95322  14.616  39.330  13.819
36029W        W95323   6.834   6.261  14.476
36030W        W95324  24.497   3.906  10.483
36031W        W95325  27.157  23.181   4.775
36032W        W95326  38.367  43.811  14.381
36033W        W95327  24.110  24.544  12.893
36034W        W95328  13.712  25.037  12.083
36035W        W95329  33.939  28.184  11.439
36036W        W95330  11.369  11.705  12.361
36037W        W95331  37.080  29.612   0.808
36038W        W95332   4.319  40.991  12.393
36039W        W95333  21.244  32.928  12.556
36040W        W95334  22.550  11.265   2.302
36041W        W95335  24.648   9.157   9.586
36042W        W95336  44.840  11.226   1.759
36043W        W95337  16.721   6.275   3.350
36044W        W95338  37.985   0.798   1.779
36045W        W95339  13.663  43.302  11.495
36046W        W95340  16.628  18.189  11.933
36047W        W95341  31.576  43.883   3.265
36048W        W95342  14.275  37.514  12.579
36049W        W95343  38.011  38.824  12.435
36050W        W95344  16.660  32.955   4.743
36051W        W95345  33.383  35.434   4.114
36052W        W95346   8.311  26.115  10.921
36053W        W95347   3.329  42.939  14.940
36054W        W95348  29.628  14.150   3.267
36055W        W95349  23.033  29.920   4.825
36056W        W95350  29.093  35.597  11.539
36057W        W95351  35.407  44.911   0.804
36058W        W95352  21.240  40.910  13.908
36059W        W95353  37.517  29.946   2.677
36060W        W95354  16.770   7.243  13.398
36061W        W95355  18.726  28.445  12.898
36062W        W95356  35.480   6.270   3.807
36063W        W95357  27.136  44.465  12.960
36064W        W95358   5.898   4.349   1.350
36065W        W95359   1.854   4.231  13.995
36066W        W95360  36.378  29.116  14.509
36067W        W95361  44.265   5.319  12.510
36068W        W95362  12.331  34.443   0.313
36069W        W95363  34.117   2.430   3.185
36070W        W95364  13.823  13.833  10.433
36071W        W95365  24.620   9.288   2.343
36072W        W95366  31.460  41.792  10.627
36073W        W95367  21.101  42.455   0.810
36074W        W95368  32.437   8.377   1.863
36075W        W95369  43.384  43.419   1.288
36076W        W95370  24.709  26.660  10.024
36077W        W95371  43.404  23.575   3.302
36078W        W95372  18.214  39.042   3.170
36079W        W95373   6.799  10.312  12.418
36080W        W95374  40.046  29.951  10.894
36081W        W95375  13.629  17.743  14.339
36082W        W95376  43.982  13.297  13.894
36083W        W95377  27.666  22.742  13.493
36084W        W95378  23.084  29.125  10.624
36085W        W95379  24.546  33.500  13.012
36086W        W95380  37.914  10.652  13.911
36087W        W95381  31.097  43.971  11.522
36088W        W95382  31.058   6.778  12.896
36089W        W95383   3.710  18.685   5.091
36090W        W95384  15.228   6.910   4.821
36091W        W95385  12.750  30.641   4.669
36092W        W95386  36.973  35.981   2.783
36093W        W95387  33.437  11.848   3.330
36094W        W95388  21.728  29.061  14.963
36095W        W95389  38.837  12.229  11.413
36096W        W95390  27.147  38.981  11.589
36097W        W95391  14.106  29.940  11.895
36098W        W95392   4.917   1.384  11.962
36099W        W95393  18.236  23.140  12.405
36100W        W95394  28.130  44.408   4.306
36101W        W95395  26.569  38.946  11.976
36102W        W95396  11.761  44.486   1.886
36103W        W95397   5.697  17.203  12.572
36104W        W95398   9.275  17.722   4.616
36105W        W95399  38.438  40.797   4.200
36106W        W95400  34.487  21.169  12.348
36107W        W95401  14.219   6.706   3.386
36108W        W95402  29.011  42.911  13.918
36109W        W95403  28.652   5.693  14.492
36110W        W95404  38.030  15.706  13.021
36111W        W95405  24.141  41.380  12.351
36112W        W95406  25.218   3.403  14.508
36113W        W95407  24.227   5.262  10.623
36114W        W95408  23.490   3.713   3.652
36115W        W95409  12.666   1.416   1.890
36116W        W95410  39.964  11.680  11.027
36117W        W95411  37.517  38.401   1.288
36118W        W95412  44.951  38.567   4.197
36119W        W95413  22.173  35.938  12.078
36120W        W95414  44.778  42.297   0.279
36121W        W95415  39.913  25.191  13.044
36122W        W95416  11.727  30.115   1.323
36123W        W95417   2.382  31.402  11.079
36124W        W95418  33.114   2.937  13.923
36125W        W95419  22.063  40.051   0.409
36126W        W95420   4.908   6.269  13.455
36127W        W95421  27.109  11.702  11.091
36128W        W95422  35.002  27.458  12.081
36129W        W95423  16.239   1.473  13.474
36130W        W95424  14.307  15.761  10.609
36131W        W95425  19.228  43.501  12.461
36132W        W95426   0.979  22.055   4.804
36133W        W95427   8.750  20.702   1.375
36134W        W95428  18.202  22.136  13.412
36135W        W95429  35.049   5.697  12.016
36136W        W95430  40.924  18.753   2.754
36137W        W95431  23.696  22.038  10.462
36138W        W95432  41.311  32.954  11.945
36139W        W95433  11.678  43.410   4.302
36140W        W95434   4.339  34.064   4.704
36141W        W95435   9.763  15.202   2.824
36142W        W95436   5.834  32.557  10.612
36143W        W95437  44.498  20.098   4.333
36144W        W95438  22.228  33.962   4.788
36145W        W95439  18.163  36.446  13.824
36146W        W95440   1.922  30.978   0.285
36147W        W95441  43.430  14.704   1.252
36148W        W95442  14.281  10.819  12.023
36149W        W95443   8.402  15.102   0.371
36150W        W95444  19.255  30.617   3.203
36151W        W95445  44.930  16.078   3.290
36152W        W95446  42.329  28.037   3.350
36153W        W95447  40.545   2.916   9.492
36154W        W95448  36.491   1.857  11.970
36155W        W95449  29.011  29.987  10.573
36156W        W95450  31.514  12.842   2.337
36157W        W95451   4.772  11.681   3.262
36158W        W95452  31.442  44.446   0.935
36159W        W95453  39.842   2.412  12.503
36160W        W95454  35.923  38.542  14.844
36161W        W95455   6.782  18.681   9.677
36162W        W95456   0.762  23.713  10.002
36163W        W95457  25.577  15.821   1.287
36164W        W95458  42.468  12.795  13.810
36165W        W95459  44.968  10.349   4.292
36166W        W95460  11.629  16.286   1.747
36167W        W95461  19.697  38.852   0.454
36168W        W95462  11.777   7.728   0.925
36169W        W95463   3.267  38.054   3.857
36170W        W95464  19.115  34.022   2.671
36171W        W95465  25.558  30.602  13.537
36172W        W95466  29.041  20.757  11.541
36173W        W95467  20.610  32.514   4.666
36174W        W95468  35.461  15.116   4.317
36175W        W95469  32.092  33.059  11.989
36176W        W95470  24.619  25.167   0.359
36177W        W95471  36.497  30.019   4.829
36178W        W95472  17.743  24.051  10.972
36179W        W95473  36.923  13.209   3.762
36180W        W95474  42.379  29.972   4.648
36181W        W95475  12.732  26.565  12.845
36182W        W95476  17.238  24.985   5.276
36183W        W95477   1.370  15.180   1.249
36184W        W95478  40.409  31.931   4.254
36185W        W95479  37.582   5.696   0.456
36186W        W95480   9.687   2.227  14.904
36187W        W95481  35.974  23.066   0.408
36188W        W95482  31.036   4.378   4.677
36189W        W95483  12.170  31.036  12.094
36190W        W95484   0.412  35.962   4.212
36191W        W95485  15.083  30.026  12.364
36192W        W95486  17.642  19.676   0.896
36193W        W95487  28.929  18.163   2.216
36194W        W95488  34.890  44.908  14.333
36195W        W95489  26.663   1.316   4.284
36196W        W95490  36.987  30.543  14.773
36197W        W95491  11.664  35.923  11.988
36198W        W95492  24.068  41.455  10.994
36199W        W95493  11.814   7.249  13.391
36200W        W95494  26.966   7.884  12.998
36201W        W95495  14.742   4.428  14.490
36202W        W95496  26.647  36.992   0.774
36203W        W95497  10.706  22.536  12.380
36204W        W95498  20.732  11.148   2.695
36205W        W95499  33.065   2.419  14.918
36206W        W95500  35.028  22.596   0.942
36207W        W95501  25.086  25.194  13.793
36208W        W95502   7.683  12.138  10.619
36209W        W95503   1.749   8.686  13.902
36210W        W95504  37.338   6.422  12.527
36211W        W95505   8.725   0.429  11.869
36212W        W95506   3.356  29.946  12.482
36213W        W95507   3.729  42.436   3.269
36214W        W95508  16.209  11.307  11.127
36215W        W95509  27.081  12.716   5.281
36216W        W95510  39.548  19.599  11.578
36217W        W95511  10.841  40.860   1.343
36218W        W95512  25.101  21.598  13.320
36219W        W95513  14.216  34.066   3.259
36220W        W95514  36.037  44.463   0.771
36221W        W95515  43.516   2.886   4.236
36222W        W95516  39.996   9.275   4.198
36223W        W95517  33.615   1.857  13.928
36224W        W95518  39.836  17.790  14.302
36225W        W95519  44.002   0.470  14.834
36226W        W95520  39.827   0.397   3.384
36227W        W95521  22.731  22.134   0.452
36228W        W95522   5.232  13.824   1.436
36229W        W95523   2.857  39.951   0.360
36230W        W95524  23.709  35.865   4.251
36231W        W95525  32.930  35.381   4.298
36232W        W95526  21.648  37.940  14.810
36233W        W95527  17.076   7.781  11.118
36234W        W95528  35.466  32.931   4.670
36235W        W95529   8.874  33.455   2.191
36236W        W95530  11.654  22.203   0.958
36237W        W95531  34.977  41.811   4.620
36238W        W95532  19.772  24.171   0.788
36239W        W95533  31.896  27.029   2.674
36240W        W95534  42.908  12.117  11.073
36241W        W95535  11.865  12.644  11.459
36242W        W95536  32.420   6.694   1.771
36243W        W95537  17.739  31.059  11.099
36244W        W95538   5.875  18.271   4.607
36245W        W95539  28.614  23.224  11.427
36246W        W95540   5.218   2.934  12.061
36247W        W95541  21.183  33.531   5.185
36248W        W95542  22.065   3.713  10.575
36249W        W95543  15.721  40.890  10.941
36250W        W95544   5.927  21.161  13.879
36251W        W95545   0.899  20.268   3.718
36252W        W95546  26.656  44.438   1.817
36253W        W95547  20.589  34.971  14.328
36254W        W95548   2.800  27.124  11.424
36255W        W95549  12.276   0.927   3.224
36256W        W95550  26.006  22.211   4.796
36257W        W95551  28.620  37.496   2.765
36258W        W95552  44.505  11.765   5.258
36259W        W95553  18.137  38.024   1.749
36260W        W95554  33.519  32.502  14.979
36261W        W95555  44.433  35.558   1.746
36262W        W95556  20.214  25.156  14.403
36263W        W95557  32.557  10.828  12.383
36264W        W95558  19.537  26.602  10.580
36265W        W95559  19.601  10.742   4.763
36266W        W95560  10.874  24.547   0.335
36267W        W95561  34.417  20.218   0.353
36268W        W95562  44.766  25.651   4.166
36269W        W95563   0.451  35.054   2.729
36270W        W95564   7.217  39.527   1.358
36271W        W95565  13.677  20.089   0.417
36272W        W95566   5.792  40.458  11.408
36273W        W95567   9.240  13.744   3.862
36274W        W95568  10.806  43.375   3.739
36275W        W95569  42.981  13.751  10.514
36276W        W95570  17.080  12.350  13.002
36277W        W95571   1.264  36.936  13.888
36278W        W95572  42.896  37.581  14.812
36279W        W95573   2.822  10.291   3.682
36280W        W95574  30.121  32.592   0.284
36281W        W95575  23.015  25.035  11.023
36282W        W95576  36.958   1.895  13.014
36283W        W95577  13.820  40.806   3.172
36284W        W95578  38.505  26.652  13.811
36285W        W95579  19.244  29.957  11.453
36286W        W95580  21.218  39.402   3.208
36287W        W95581   7.377  10.246   4.778
36288W        W95582  12.258  24.973  10.487
36289W        W95583   3.446  26.476   0.443
36290W        W95584  26.591   8.244  10.529
36291W        W95585  33.877  18.646  13.458
36292W        W95586  18.695  10.244  10.442
36293W        W95587  31.987  27.497  13.381
36294W        W95588   9.656  30.947  12.575
36295W        W95589  40.035  21.684  12.415
36296W        W95590  31.151  18.198  14.474
36297W        W95591  40.509  20.098   2.727
36298W        W95592  41.038   8.204  11.077
36299W        W95593   0.391  19.684   1.279
36300W        W95594  25.550   8.846  14.945
36301W        W95595  32.426  31.906   4.739
36302W        W95596  43.994  14.593   4.768
36303W        W95597  25.611  13.263   2.315
36304W        W95598   9.769   5.437   0.304
36305W        W95599   5.246  23.234   2.844
36306W        W95600  29.144   1.359  10.586
36307W        W95601  37.906  36.062  14.855
36308W        W95602  16.636  24.225   3.683
36309W        W95603  11.833  23.033  13.365
36310W        W95604   8.890  31.489  13.437
36311W        W95605  36.885  18.683  12.829
36312W        W95606   4.766  30.037   0.825
36313W        W95607  37.991   9.166   1.850
36314W        W95608  39.360  31.951  13.407
36315W        W95609  40.510   5.827   1.450
36316W        W95610  26.672  10.876   3.819
36317W        W95611   3.325  35.868   2.762
36318W        W95612  43.910   8.813  11.518
36319W        W95613  33.569  14.340  14.779
36320W        W95614  37.936  33.570   9.473
36321W        W95615  12.194  19.181  14.801
36322W        W95616   6.758  39.994  13.981
36323W        W95617  33.048  26.622  12.051
36324W        W95618  37.014  26.523  12.973
36325W        W95619  15.708  34.884   2.805
36326W        W95620  34.948  12.256   1.872
36327W        W95621  40.329  11.832   5.239
36328W        W95622   4.911  21.070  11.947
36329W        W95623  39.549   9.222  13.466
36330W        W95624  19.634  11.374  14.913
36331W        W95625  36.045  21.596   4.180
36332W        W95626  38.964  40.422   1.858
36333W        W95627   2.791   5.384  12.441
36334W        W95628  38.979   2.238  10.568
36335W        W95629  15.324  13.701   2.403
36336W        W95630  10.343   2.811   2.207
36337W        W95631  34.538  31.452   2.849
36338W        W95632  15.731   8.880   0.469
36339W        W95633  26.594  15.733  11.454
36340W        W95634  44.309   2.853   3.683
36341W        W95635   7.305  37.354  11.393
36342W        W95636  29.508  22.050  10.415
36343W        W95637  14.175  16.110  11.421
36344W        W95638  29.042  30.512  10.456
36345W        W95639  24.606  10.743  14.977
36346W        W95640   7.748  23.097  11.572
36347W        W95641  42.990  19.192  14.516
36348W        W95642   9.324  21.161  11.963
36349W        W95643  29.646   6.389   1.447
36350W        W95644  32.401  20.104  12.834
36351W        W95645  11.181   5.213   0.741
36352W        W95646  38.517  10.302  12.881
36353W        W95647  44.450  38.488  12.357
36354W        W95648  22.244  29.501  10.592
36355W        W95649   1.413  42.996   1.910
36356W        W95650  21.732  11.304  13.909
36357W        W95651  18.548  18.704  14.012
36358W        W95652  24.663   7.900  13.535
36359W        W95653  29.445  13.302  13.868
36360W        W95654  24.595  27.958   4.787
36361W        W95655  41.525  18.207  10.416
36362W        W95656  31.554  14.658  14.967
36363W        W95657  10.275   5.790  10.450
36364W        W95658  43.458  26.468  13.548
36365W        W95659   4.916  16.663   4.335
36366W        W95660  21.202  42.486  11.990
36367W        W95661  22.731  14.323   2.822
36368W        W95662  36.087   2.957  12.865
36369W        W95663  25.034  25.090   4.813
36370W        W95664  35.561   8.842  14.790
36371W        W95665  36.064   7.281  11.052
36372W        W95666  39.954   5.888   1.269
36373W        W95667  12.253  32.030  14.480
36374W        W95668  11.222   4.889   1.304
36375W        W95669   7.710   7.746   2.314
36376W        W95670   7.201  31.916   9.967
36377W        W95671  39.535   9.293   5.173
36378W        W95672  40.012  33.962  10.063
36379W        W95673  11.824  41.003  11.606
36380W        W95674  32.426  32.109   2.321
36381W        W95675  26.142   4.716  14.006
36382W        W95676  10.143  34.375   4.285
36383W        W95677  29.570  21.056  10.611
36384W        W95678  37.969  28.007   0.447
36385W        W95679  15.646  40.939  12.042
36386W        W95680   4.358  37.465  13.919
36387W        W95681  27.967  34.021  11.600
36388W        W95682  36.912  30.960  13.482
36389W        W95683  40.497  31.999  13.512
36390W        W95684  41.387   9.658  12.579
36391W        W95685  33.074  11.282   2.264
36392W        W95686  19.063  42.288   1.795
36393W        W95687  30.966   0.417  14.957
36394W        W95688  29.424  21.530   2.184
36395W        W95689  18.162  30.128   1.793
36396W        W95690  43.298  42.832   0.960
36397W        W95691   8.283  18.130   5.100
36398W        W95692   7.377   5.432  10.532
36399W        W95693  26.082  15.700  12.391
36400W        W95694  10.684   5.806  14.293
36401W        W95695   2.821  31.469  13.051
36402W        W95696  27.525  11.172  14.351
36403W        W95697  19.202  11.823   3.721
36404W        W95698  19.247   3.775  14.505
36405W        W95699  10.733  37.844   2.180
36406W        W95700  18.083  34.109   2.323
36407W        W95701   6.332  17.754  13.063
36408W        W95702  26.065   7.868   0.849
36409W        W95703   5.431  24.073  12.910
36410W        W95704  23.666  36.042   2.727
36411W        W95705   0.475  31.033  10.891
36412W        W95706   3.459  21.235  11.457
36413W        W95707  24.501  27.032   2.263
36414W        W95708  11.218  11.781  13.832
36415W        W95709   9.383   2.305  14.305
36416W        W95710  27.003   6.850   3.817
36417W        W95711  40.343  25.167  10.894
36418W        W95712  14.104  37.048   4.304
36419W        W95713   9.286  39.364   3.208
36420W        W95714  13.817  20.273  13.468
36421W        W95715  24.523  28.598  11.565
36422W        W95716  44.340  26.034  14.402
36423W        W95717   7.415  33.101  13.913
36424W        W95718  39.820  25.707  14.781
36425W        W95719   6.419  27.947   3.217
36426W        W95720  24.486  18.076   2.273
36427W        W95721  30.072  40.813  13.792
36428W        W95722  32.932   5.838   0.798
36429W        W95723  36.929  14.746   0.893
36430W        W95724  30.965  20.254  13.914
36431W        W95725  43.969  24.045   2.880
36432W        W95726  26.474  40.358   2.740
36433W        W95727  19.669  35.575  10.584
36434W        W95728   4.297   2.245  14.815
36435W        W95729   2.247   9.670  11.084
36436W        W95730  14.179  29.962   2.178
36437W        W95731  10.732  19.655  13.015
36438W        W95732  37.456  22.057  12.389
36439W        W95733  21.182  24.561   2.402
36440W        W95734  18.598   0.920  11.377
36441W        W95735   3.866  12.844   2.377
36442W        W95736  23.698  37.533   0.311
36443W        W95737  20.127  13.658  10.013
36444W        W95738  31.014  40.980  13.400
36445W        W95739   0.983  22.195  11.551
36446W        W95740   2.806  17.222   4.663
36447W        W95741   5.217  12.328   0.314
36448W        W95742   3.795  23.504  13.978
36449W        W95743  32.908  14.208   0.791
36450W        W95744  41.357  26.128  12.570
36451W        W95745  20.527   0.743  13.877
36452W        W95746  37.460  13.117   3.342
36453W        W95747  43.476   4.759  11.505
36454W        W95748  30.128   5.319   2.767
36455W        W95749  23.215  31.949  10.947
36456W        W95750  20.210  41.427  11.954
36457W        W95751  24.089  26.120   1.931
36458W        W95752  26.085  41.993   3.768
36459W        W95753  40.052  41.797   0.786
36460W        W95754  14.794  35.970   2.883
36461W        W95755  40.040  20.566   2.677
36462W        W95756  31.956   9.238   1.742
36463W        W95757  43.868  16.160  11.452
36464W        W95758  30.907  13.312   2.762
36465W        W95759  28.167  26.471  13.467
36466W        W95760  11.159  18.288  10.970
36467W        W95761  42.981  18.080  10.537
36468W        W95762   0.956  15.280   1.928
36469W        W95763  10.640  23.152   2.876
36470W        W95764   2.392  19.144   3.735
36471W        W95765  20.084  10.189   3.306
36472W        W95766  14.243   0.351  13.544
36473W        W95767  23.521  25.099  12.415
36474W        W95768  40.849  24.514  12.971
36475W        W95769  11.776  38.427   0.768
36476W        W95770  42.904   6.391   5.126
36477W        W95771   8.297  32.412   0.479
36478W        W95772  12.239  18.235  13.852
36479W        W95773   8.857   8.791  10.599
36480W        W95774  27.486  44.330   3.801
36481W        W95775  41.323  41.946   0.779
36482W        W95776  25.710  26.988   0.404
36483W        W95777  41.042   0.909  10.584
36484W        W95778  18.264  10.154  13.022
36485W        W95779  29.632  18.107   4.319
36486W        W95780   1.882  41.889  12.565
36487W        W95781  18.137  30.996  14.322
36488W        W95782  32.402  18.116   0.914
36489W        W95783  17.291   3.850   2.843
36490W        W95784  33.944  36.361   0.750
36491W        W95785  44.482  35.017   1.388
36492W        W95786  13.136  24.048   0.324
36493W        W95787  32.122  43.989   1.850
36494W        W95788   7.781  30.910  13.982
36495W        W95789  15.245  10.741   5.631
36496W        W95790  24.180  11.758  10.559
36497W        W95791  42.012  31.074   1.325
36498W        W95792  13.307  33.504   1.751
36499W        W95793   2.733  20.662   5.592
36500W        W95794  40.950  39.502  12.890
36501W        W95795  30.652  14.682   1.802
36502W        W95796   3.356  22.667  10.976
36503W        W95797  17.090  27.483   3.307
36504W        W95798  26.608  13.205  12.081
36505W        W95799  34.414   9.667   0.392
36506W        W95800  16.639   3.826  10.634
36507W        W95801  27.671  25.685  10.963
36508W        W95802   1.358  37.910   3.804
36509W        W95803  13.638  36.384  13.009
36510W        W95804  23.142  22.728  14.918
36511W        W95805  16.286   2.808   2.855
36512W        W95806  24.550  31.897   1.225
36513W        W95807  40.414   7.706  11.507
36514W        W95808  28.533  24.064   1.447
36515W        W95809  11.716  15.169  14.312
36516W        W95810  29.135  14.134  13.845
36517W        W95811  18.636  28.474  11.029
36518W        W95812  25.664   8.251   0.802
36519W        W95813  39.484   8.244  14.439
36520W        W95814  28.626  14.101   2.288
36521W        W95815  36.077  24.522  10.909
36522W        W95816  24.148  20.246   2.255
36523W        W95817  34.113   2.790  12.558
36524W        W95818  35.449  18.050   1.700
36525W        W95819  22.224  24.004   4.137
36526W        W95820  36.098  17.113   1.786
36527W        W95821  35.083  27.626   3.269
36528W        W95822  36.568  42.365   2.391
36529W        W95823   4.848  12.354  11.388
36530W        W95824  23.073  10.271   0.430
36531W        W95825  29.491  19.082  14.281
36532W        W95826   1.268   3.454   0.797
36533W        W95827  36.580  25.591  10.501
36534W        W95828   0.745  18.292   1.334
36535W        W95829  32.092  43.794   2.398
36536W        W95830  22.064  43.426   4.836
36537W        W95831   4.929   2.747  14.402
36538W        W95832   1.813  10.372  11.546
36539W        W95833  15.665  16.674   3.150
36540W        W95834   1.741  26.184   2.400
36541W        W95835  35.021  41.907   0.309
36542W        W95836  27.071  43.901  11.488
36543W        W95837  21.106  40.403   2.711
36544W        W95838  15.232  29.569  10.888
36545W        W95839  38.554  39.557   1.853
36546W        W95840  16.072  28.137   0.456
36547W        W95841  26.656  13.680   0.856
36548W        W95842   1.478   5.234   1.758
36549W        W95843  27.115  37.384  11.450
36550W        W95844  18.716  40.383  10.640
36551W        W95845  43.808  43.886  11.859
36552W        W95846  39.454  11.721  11.574
36553W        W95847  22.192   7.849  13.507
36554W        W95848  31.898   3.922   4.709
36555W        W95849  14.235  33.483   2.311
36556W        W95850   6.702   9.682   3.361
36557W        W95851   5.216  31.436  12.058
36558W        W95852  11.859  15.129   3.219
36559W        W95853  12.238  17.097  12.858
36560W        W95854   8.238  16.231   2.712
36561W        W95855  26.527   5.201  13.329
36562W        W95856   7.822  17.784   3.380
36563W        W95857  42.825  21.112   5.319
36564W        W95858  40.418  16.761  13.806
36565W        W95859  37.078  12.689   0.786
36566W        W95860   9.366  35.092  14.920
36567W        W95861  35.410  33.537  10.460
36568W        W95862  13.303   2.745  13.999
36569W        W95863  36.007  40.361   5.189
36570W        W95864  15.688   5.904   1.804
36571W        W95865  20.596   0.391  11.419
36572W        W95866  44.830  39.343   1.889
36573W        W95867   0.456   1.442  12.517
36574W        W95868  27.023  35.913   2.229
36575W        W95869  23.128   7.889  12.929
36576W        W95870  21.191  26.021  13.871
36577W        W95871  32.940  37.569   4.258
36578W        W95872  39.317  20.539   3.747
36579W        W95873  13.168  19.063  12.868
36580W        W95874  40.436  11.373   1.837
36581W        W95875  41.363  39.531   3.841
36582W        W95876   0.865  43.321   2.705
36583W        W95877  40.511   3.259  12.916
36584W        W95878  25.965  31.088   0.376
36585W        W95879  22.652   3.396   0.307
36586W        W95880  33.989  31.641  14.349
36587W        W95881  39.456  31.006   2.343
36588W        W95882  42.333  11.339   0.420
36589W        W95883  44.858  41.806   3.234
36590W        W95884   4.311  17.268  14.443
36591W        W95885  28.584  20.613   1.372
36592W        W95886  39.968  20.211   3.857
36593W        W95887  32.514  35.361  10.612
36594W        W95888  36.428  18.652   2.705
36595W        W95889  13.641   3.269   1.429
36596W        W95890   1.296   2.906  13.963
36597W        W95891  44.268   2.821  14.994
36598W        W95892  43.356   5.350   2.701
36599W        W95893  34.064  30.981  14.422
36600W        W95894  37.924  21.092   0.448
36601W        W95895  13.188  29.569   9.640
36602W        W95896  20.564  41.963   4.243
36603W        W95897  30.569  40.480  13.944
36604W        W95898  24.641  13.336  12.034
36605W        W95899  14.635  37.546   0.253
36606W        W95900  37.429  33.513   5.580
36607W        W95901  16.136   9.225   3.347
36608W        W95902  43.285  43.878  13.383
36609W        W95903  33.019  22.153  14.317
36610W        W95904  11.216   1.799   9.972
36611W        W95905  21.557  35.027  13.892
36612W        W95906  34.400  43.878  13.923
36613W        W95907  38.883  17.184  12.446
36614W        W95908  18.146   3.447   4.208
36615W        W95909   8.702  29.649  14.935
36616W        W95910   0.960  38.562  11.912
36617W        W95911  37.340  30.141   0.867
36618W        W95912  19.071  37.492  13.400
36619W        W95913  18.278  19.216   3.657
36620W        W95914  44.454  18.110  13.871
36621W        W95915   7.791  36.387   1.867
36622W        W95916  13.168  29.099   4.188
36623W        W95917   6.754  24.714  13.367
36624W        W95918  22.724  28.962   2.378
36625W        W95919  41.991  27.081   3.318
36626W        W95920   3.752  39.443   1.269
36627W        W95921  30.159  15.744  14.405
36628W        W95922  16.683  35.953  11.524
36629W        W95923  21.603   5.238   3.283
36630W        W95924  40.505  40.965   1.359
36631W        W95925  30.153  12.829   0.765
36632W        W95926   6.723  15.649   3.648
36633W        W95927  28.516   5.437  10.626
36634W        W95928  42.458  29.085   4.772
36635W        W95929  24.132  39.059   0.786
36636W        W95930  11.347  14.196   1.316
36637W        W95931  41.466   8.338  13.828
36638W        W95932  27.570  44.762  11.984
36639W        W95933  35.546  20.059   4.713
36640W        W95934  22.098  31.529  14.367
36641W        W95935  37.832  38.046  10.000
36642W        W95936  29.423  20.115  11.511
36643W        W95937  25.073   4.707  11.460
36644W        W95938  30.656  36.064   0.946
36645W        W95939  20.523  25.964  11.475
36646W        W95940  30.118  12.667  14.976
36647W        W95941   9.314   9.864   1.787
36648W        W95942  21.624  18.228   4.654
36649W        W95943  20.650  23.621  14.805
36650W        W95944  30.507  20.685  12.837
36651W        W95945   9.225  36.097   4.167
36652W        W95946  18.072  35.103   3.335
36653W        W95947  20.144  36.990   0.361
36654W        W95948  12.214   3.750   4.669
36655W        W95949  43.908   4.221   0.452
36656W        W95950  27.457  36.906  13.870
36657W        W95951  36.578  15.736  12.883
36658W        W95952   2.406  19.721  13.502
36659W        W95953  41.528  30.516  10.914
36660W        W95954  10.746  41.959   3.775
36661W        W95955  18.209   3.806   3.864
36662W        W95956  39.887   6.349   0.958
36663W        W95957  11.286  15.146  12.531
36664W        W95958  34.467  27.499  11.096
36665W        W95959   2.872  28.962  10.440
36666W        W95960  29.011  15.650  12.458
36667W        W95961  34.610  42.823   3.240
36668W        W95962   3.881  14.149   5.131
36669W        W95963  14.613  36.093  13.833
36670W        W95964  40.046  32.000  12.491
36671W        W95965  14.777  34.573  10.027
36672W        W95966  29.531  18.279   3.149
36673W        W95967   1.828  15.234   0.798
36674W        W95968   8.892  22.106   3.813
36675W        W95969  15.725  23.507  11.072
36676W        W95970  26.613  32.465   2.894
36677W        W95971  43.945  18.632  13.475
36678W        W95972  24.059  16.806   1.914
36679W        W95973  42.979  44.912  14.384
36680W        W95974  44.358  24.638  12.897
36681W        W95975  12.801  22.214   2.256
36682W        W95976   9.285  39.828   4.276
36683W        W95977  40.513  26.645   0.402
36684W        W95978  29.473  25.554  11.468
36685W        W95979  36.096   9.673   5.173
36686W        W95980   7.818   3.868   3.769
36687W        W95981  16.617  35.397   3.251
36688W        W95982  29.607  21.118   2.820
36689W        W95983   9.654  24.491  10.454
36690W        W95984  42.866  18.185  13.988
36691W        W95985  34.435  35.861   4.338
36692W        W95986  33.109  19.193  14.461
36693W        W95987  38.465  13.808  11.524
36694W        W95988  15.302  38.350   1.282
36695W        W95989   5.752  39.935  11.093
36696W        W95990  36.856  10.794  12.845
36697W        W95991  44.980  34.890  11.570
36698W        W95992  31.013  32.093  11.471
36699W        W95993  26.189  12.646   1.806
36700W        W95994   8.738  28.656   4.737
36701W        W95995   7.295   9.882   2.714
36702W        W95996  41.992  41.848  10.432
36703W        W95997   5.260  14.635  12.462
36704W        W95998  31.482  39.345  13.986
36705W        W95999  27.452   2.936   2.828
36706W        W96000  13.189  22.502  11.421
36707W        W96001  23.596  17.753   3.768
36708W        W96002  29.956  25.140   3.708
36709W        W96003  26.468  17.184   3.271
36710W        W96004  23.049  43.989   2.359
36711W        W96005  43.386   4.819  14.796
36712W        W96006  41.834   5.291   0.773
36713W        W96007   2.832  19.040  10.957
36714W        W96008  39.373   2.828  14.888
36715W        W96009  22.032  19.763   0.399
36716W        W96010  29.168  33.555   1.867
36717W        W96011   2.785  43.275  14.989
36718W        W96012   6.259  10.176  10.581
36719W        W96013  30.521  13.756  12.904
36720W        W96014   8.166  32.634  14.996
36721W        W96015  40.042  44.269  11.589
36722W        W96016  37.495  14.323   2.865
36723W        W96017  25.558  38.958   2.353
36724W        W96018  34.921   6.190  12.459
36725W        W96019  17.253  40.497  12.899
36726W        W96020   0.832  21.559  13.039
36727W        W96021  43.856  44.442   9.655
36728W        W96022  15.787  14.209   3.268
36729W        W96023  16.748  19.064   2.284
36730W        W96024  26.963   3.388   1.316
36731W        W96025  33.421  18.174   4.318
36732W        W96026   8.356  14.172  13.976
36733W        W96027   7.327  13.606  11.950
36734W        W96028  32.419  27.987   0.795
36735W        W96029  31.419  39.927   2.688
36736W        W96030  38.955  24.064   0.427
36737W        W96031   4.418  41.507  10.458
36738W        W96032  25.098   6.214  14.961
36739W        W96033  43.907  21.634  12.380
36740W        W96034  17.254   0.955  13.023
36741W        W96035  12.745  30.055  10.084
36742W        W96036  34.390  21.692   0.733
36743W        W96037  13.761  20.247   1.250
36744W        W96038  35.399  39.024   4.755
36745W        W96039  24.650   0.250   0.903
36746W        W96040  25.656   5.380  12.054
36747W        W96041  11.258   2.373  14.378
36748W        W96042  23.162  22.044  13.534
36749W        W96043  39.469  37.357   4.214
36750W        W96044  42.360  18.657  11.067
36751W        W96045  15.623  27.570   2.349
36752W        W96046  11.822  25.186  11.972
36753W        W96047   7.362   6.411   3.206
36754W        W96048  26.195   6.243   1.879
36755W        W96049  20.672  44.296   0.316
36756W        W96050  35.429   8.811   3.375
36757W        W96051  20.551  15.245   3.187
36758W        W96052  15.696  28.144   2.858
36759W        W96053  22.508   5.760  12.027
36760W        W96054  34.473  16.274   1.424
36761W        W96055  36.582  12.821   1.929
36762W        W96056  13.187  10.336   1.854
36763W        W96057   2.913  22.618  13.896
36764W        W96058  33.447  23.241  11.971
36765W        W96059  38.489   3.750   0.455
36766W        W96060  31.489  20.044   4.803
36767W        W96061  19.636   1.241  12.489
36768W        W96062  43.386  10.794  13.876
36769W        W96063  30.504  11.653   3.831
36770W        W96064  20.619  24.139  12.552
36771W        W96065  41.980  33.090  14.822
36772W        W96066  27.196  36.451   3.725
36773W        W96067  37.383  40.318  13.050
36774W        W96068  10.694  27.970  13.545
36775W        W96069   1.861  28.677   1.771
36776W        W96070  32.053   6.841  10.579
36777W        W96071  12.125  30.450  14.864
36778W        W96072  28.049  40.816   4.261
36779W        W96073  28.538  38.060   5.597
36780W        W96074   5.255  29.607   1.751
36781W        W96075   3.321   2.347   4.675
36782W        W96076   9.332  37.412   4.742
36783W        W96077   4.873  24.113  11.610
36784W        W96078  18.665  40.397  14.456
36785W        W96079  35.991  22.068  14.462
36786W        W96080  15.748   0.940  13.957
36787W        W96081  26.666  23.188   2.194
36788W        W96082  29.663   4.837  13.361
36789W        W96083  11.723  28.995   3.380
36790W        W96084  44.863  35.415   3.350
36791W        W96085  43.885  17.131  10.963
36792W        W96086  22.035  34.887   2.663
36793W        W96087  10.828  19.706   5.288
36794W        W96088  12.160  37.836  14.775
36795W        W96089  35.358  36.558   2.861
36796W        W96090  22.644   7.316   2.214
36797W        W96091  25.668   4.739  12.878
36798W        W96092  39.344  30.503   3.735
36799W        W96093  27.052  28.105  14.818
36800W        W96094  40.385  43.880  13.459
36801W        W96095  41.418  26.022   3.178
36802W        W96096  27.525  39.557  14.388
36803W        W96097   9.334  24.054  14.996
36804W        W96098   7.832  26.679  10.430
36805W        W96099   8.378   4.221   1.899
36806W        W96100  29.593  12.203  10.961
36807W        W96101  15.285  29.615   4.652
36808W        W96102  24.163  31.132   4.265
36809W        W96103  17.187  16.794   1.779
36810W        W96104  44.488  41.447  13.012
36811W        W96105  36.060  24.664   4.787
36812W        W96106  26.033  30.460  13.039
36813W        W96107  13.677   9.755   5.289
36814W        W96108  34.612   3.301  12.565
36815W        W96109  29.101  10.305   2.824
36816W        W96110  21.601   8.717   9.512
36817W        W96111  18.744  14.631   3.380
36818W        W96112   3.799  41.483   2.260
36819W        W96113  38.070   8.249  13.357
36820W        W96114  11.760  32.014  10.583
36821W        W96115  29.434   7.295   5.082
36822W        W96116  33.910  38.334   3.773
36823W        W96117  38.984  32.001  14.963
36824W        W96118   1.942  27.604  10.511
36825W        W96119  11.211  38.464   2.202
36826W        W96120  43.510  21.661   3.770
36827W        W96121  44.292  42.367   5.214
36828W        W96122  44.819  21.735   3.330
36829W        W96123   9.166   8.668   1.339
36830W        W96124  39.319  25.160   0.934
36831W        W96125  44.928  16.706   1.231
36832W        W96126   9.169   8.280   0.804
36833W        W96127  10.669   7.869   4.203
36834W        W96128  35.035  24.665   1.829
36835W        W96129  30.051  30.621   4.809
36836W        W96130  30.988  26.519   3.318
36837W        W96131  21.140  37.445  12.081
36838W        W96132  24.189  10.764  12.020
36839W        W96133   8.368  10.300  10.584
36840W        W96134  43.439  15.091  12.921
36841W        W96135  37.954  40.385   3.170
36842W        W96136  19.714   8.213   1.720
36843W        W96137  17.608   7.883   3.309
36844W        W96138  43.953   6.765   4.328
36845W        W96139  42.946   8.802   1.447
36846W        W96140  16.278  15.122   3.820
36847W        W96141  28.600  11.672   2.394
36848W        W96142  29.455  17.655  13.472
36849W        W96143  35.984   7.278   0.328
36850W        W96144  15.810  27.683   5.250
36851W        W96145  15.165   8.883  12.554
36852W        W96146  31.551  43.361   2.299
36853W        W96147  17.128  33.989  11.379
36854W        W96148  36.542  28.073   4.770
36855W        W96149  29.138   0.808   0.799
36856W        W96150   5.789  27.449   0.910
36857W        W96151  24.581  30.925   1.739
36858W        W96152   6.382  14.631  10.631
36859W        W96153  23.720  12.342   0.863
36860W        W96154  15.291  29.924   0.292
36861W        W96155  24.058   3.376   3.650
36862W        W96156  28.476  10.776  12.453
36863W        W96157  10.184  28.153  10.053
36864W        W96158   6.807  42.418  11.998
36865W        W96159   0.332  36.350  12.910
36866W        W96160  23.164  28.053  14.888
36867W        W96161  37.975  29.046  12.384
36868W        W96162   4.855  24.980   2.361
36869W        W96163  29.014  44.478   1.853
36870W        W96164   4.430  33.986   2.280
36871W        W96165   1.806  34.379  10.902
36872W        W96166  28.547  27.589   1.386
36873W        W96167  20.733  18.629   1.921
36874W        W96168  26.503  15.166   4.236
36875W        W96169   2.306  26.184  12.081
36876W        W96170  14.691  30.992   3.834
36877W        W96171   0.948   1.943  10.438
36878W        W96172  21.201  38.464  11.887
36879W        W96173   2.768  36.522  11.114
36880W        W96174  18.668  36.881   4.826
36881W        W96175  11.204  11.289  13.313
36882W        W96176  44.849  22.608   3.755
36883W        W96177   2.291   9.764   4.190
36884W        W96178  44.868  16.665  13.019
36885W        W96179  35.556   3.792  10.911
36886W        W96180  44.471  44.393   1.745
36887W        W96181  14.615   8.393  11.936
36888W        W96182  32.583  19.187  14.939
36889W        W96183  41.492  28.614  13.797
36890W        W96184  19.239  28.041   2.814
36891W        W96185  24.517  44.917   3.304
36892W        W96186   8.234  31.118  12.866
36893W        W96187  18.145  19.674  12.365
36894W        W96188  30.031   3.763   2.761
36895W        W96189  29.157  27.981   1.239
36896W        W96190   7.327  34.416  13.842
36897W        W96191  30.552  23.654  10.418
36898W        W96192  10.683  38.481   3.657
36899W        W96193  40.968  29.570   1.712
36900W        W96194  22.024  38.920   3.758
36901W        W96195  17.777  15.633  14.947
36902W        W96196  43.485  37.869   0.735
36903W        W96197  17.657  29.655  10.908
36904W        W96198  17.694  44.305   2.192
36905W        W96199  23.025  17.691   1.279
36906W        W96200  28.453  25.133   3.283
36907W        W96201   5.384  27.067  12.384
36908W        W96202  36.447  30.517   3.783
36909W        W96203  26.460   7.675  11.538
36910W        W96204  40.881  39.808  13.935
36911W        W96205   8.846  30.470  13.968
36912W        W96206  22.500  29.941   0.338
36913W        W96207  29.163  39.937   9.543
36914W        W96208  11.674  43.765  11.540
36915W        W96209  40.403  16.117   3.370
36916W        W96210  22.505  22.229  11.013
36917W        W96211  23.165  24.198   1.309
36918W        W96212  19.680  11.235  12.823
36919W        W96213  42.286  40.487  13.864
36920W        W96214  13.654  32.082  13.546
36921W        W96215  33.877  13.114  14.956
36922W        W96216  19.624   5.268   4.829
36923W        W96217  30.616  43.279   4.602
36924W        W96218  22.736  24.503  10.584
36925W        W96219  18.146  18.247  11.084
36926W        W96220  28.605  12.687   4.119
36927W        W96221  21.175  40.019   1.727
36928W        W96222  41.827  42.998   4.118
36929W        W96223  32.505  13.775  14.807
36930W        W96224  23.660  18.622  13.469
36931W        W96225  42.400  21.549  12.055
36932W        W96226   4.771   8.692   2.884
36933W        W96227  41.463  27.512  13.369
36934W        W96228  20.537  41.818   0.823
36935W        W96229  29.133  32.041   0.454
36936W        W96230  17.280  43.912  12.421
36937W        W96231   9.817  41.481  12.484
36938W        W96232  28.532   6.890  12.871
36939W        W96233  13.788  10.854   3.209
36940W        W96234   7.186  36.060   0.463
36941W        W96235  16.674  22.512  12.500
36942W        W96236   3.455   8.185   4.118
36943W        W96237  22.740  34.867   0.410
36944W        W96238   4.926  17.111  13.978
36945W        W96239  44.482  32.404  14.771
36946W        W96240  16.752  28.468   2.180
36947W        W96241  39.912  23.604   0.770
36948W        W96242   2.753  28.609   4.793
36949W        W96243  26.130  35.571  10.439
36950W        W96244  25.670   1.338   0.275
36951W        W96245  25.588   5.299  12.427
36952W        W96246  13.616  33.970   4.783
36953W        W96247   8.213  16.246   4.262
36954W        W96248   8.692   3.228   1.342
36955W        W96249  11.716  10.640   0.739
36956W        W96250  31.088   0.397  12.428
36957W        W96251  11.832   1.919  13.425
36958W        W96252  19.232  20.237   3.266
36959W        W96253   4.886  13.165  11.915
36960W        W96254  21.602  19.258  11.609
36961W        W96255  26.007   5.315  13.462
36962W        W96256  43.298  15.739  13.021
36963W        W96257  32.983  18.184  10.498
36964W        W96258  25.996  15.795   3.635
36965W        W96259   3.332  37.862   0.925
36966W        W96260   9.783  16.804   4.350
36967W        W96261  38.977  11.631  11.497
36968W        W96262  44.000  13.604  10.571
36969W        W96263  17.224  14.115  11.996
36970W        W96264  14.691  21.620  10.938
36971W        W96265  31.150   8.191   2.230
36972W        W96266   8.839  28.659   0.818
36973W        W96267  21.037  44.825   3.829
36974W        W96268  36.036  27.151   1.226
36975W        W96269   4.849  30.505  14.906
36976W        W96270  35.917  13.698   1.326
36977W        W96271  31.432  17.135  13.906
36978W        W96272   2.877  33.458  13.528
36979W        W96273  30.480  35.381  10.984
36980W        W96274   8.391  25.976   1.265
36981W        W96275   9.791  19.547   4.196
36982W        W96276  23.242  40.328   1.818
36983W        W96277  27.068  25.120  11.892
36984W        W96278  28.487   5.789  11.434
36985W        W96279  27.691   9.229   4.206
36986W        W96280  19.697  18.163   4.197
36987W        W96281  25.686   7.701   0.733
36988W        W96282   9.721  34.600  13.854
36989W        W96283   1.342   0.833   0.312
36990W        W96284  34.544  37.841  12.048
36991W        W96285  17.578  35.493  10.502
36992W        W96286   9.806  29.635  10.554
36993W        W96287  42.977  38.377  12.027
36994W        W96288  28.604  21.694  12.846
36995W        W96289  31.898  24.979  14.996
36996W        W96290   4.715  23.670   4.191
36997W        W96291  16.796  14.176   4.353
36998W        W96292  12.667  17.203   1.734
36999W        W96293   7.812   8.810   0.343
37000W        W96294  24.090  30.988   1.805
37001W        W96295  26.521   4.707  12.829
37002W        W96296  29.488  22.746   0.315
37003W        W96297   7.234  44.387   2.233
37004W        W96298  29.554  21.116  13.878
37005W        W96299  17.601   4.751   3.364
37006W        W96300  34.996   8.255   1.866
37007W        W96301  17.143   1.817   4.350
37008W        W96302   7.881  42.956  14.336
37009W        W96303  24.209   6.271  13.058
37010W        W96304  30.075  12.251  13.899
37011W        W96305  24.081   9.380   0.803
37012W        W96306   5.194  34.398   2.875
37013W        W96307  17.635  28.564  12.501
37014W        W96308   6.713  32.996  14.980
37015W        W96309   4.758  19.775  13.347
37016W        W96310  30.916  26.685   0.349
37017W        W96311  30.101  33.060   0.830
37018W        W96312  13.696  13.235   4.249
37019W        W96313   7.679  31.615  14.341
37020W        W96314  39.379  37.410   0.744
37021W        W96315  22.739  34.583   1.274
37022W        W96316  24.213  16.677   4.186
37023W        W96317  12.849  34.598   4.210
37024W        W96318  10.645  39.439  13.431
37025W        W96319  31.566   5.258  10.998
37026W        W96320  13.599  31.537   2.691
37027W        W96321  14.757   7.739   1.317
37028W        W96322  31.902  24.499  11.078
37029W        W96323  13.700  41.419   2.892
37030W        W96324  20.117  34.594  14.020
37031W        W96325   2.852  30.483   2.675
37032W        W96326  23.124  25.658   2.384
37033W        W96327  29.432  37.380  14.375
37034W        W96328  10.660  24.991   1.259
37035W        W96329  38.347  38.903  12.539
37036W        W96330  35.887  20.058  13.901
37037W        W96331  22.186  22.568  13.004
37038W        W96332  17.715   7.215  11.106
37039W        W96333  17.192  24.983  14.790
37040W        W96334   6.328  20.225  11.415
37041W        W96335  43.809  36.492   1.441
37042W        W96336  24.483  12.349   2.774
37043W        W96337   7.721   7.255  12.855
37044W        W96338   3.385  27.999   1.326
37045W        W96339   4.450  28.144  11.962
37046W        W96340  41.448   4.392   3.678
37047W        W96341   4.308   5.900   4.705
37048W        W96342  12.220  42.937   5.128
37049W        W96343  32.517   7.312  10.590
37050W        W96344  39.372   5.407  14.856
37051W        W96345  42.957  19.082  13.036
37052W        W96346  44.992  36.976  12.989
37053W        W96347  40.372  40.363   3.868
37054W        W96348   6.190  20.590  12.913
37055W        W96349  17.094  30.646   0.942
37056W        W96350  10.804  40.490   4.121
37057W        W96351  37.457   9.671   2.779
37058W        W96352  28.119  23.516  14.008
37059W        W96353  24.527  25.118   1.773
37060W        W96354   2.956  24.207  13.323
37061W        W96355  17.303  15.606  11.960
37062W        W96356  26.626  42.405  13.022
37063W        W96357  24.550   0.382  11.004
37064W        W96358  39.482   5.733   3.284
37065W        W96359  12.725  28.440   2.774
37066W        W96360  34.883  19.725   0.868
37067W        W96361  26.131  31.021   4.822
37068W        W96362  16.596  41.834   1.220
37069W        W96363   2.448  27.038  10.586
37070W        W96364  39.315   9.728   3.826
37071W        W96365  19.202   7.675  13.400
37072W        W96366  33.032  11.774   0.466
37073W        W96367   0.854   7.839  12.993
37074W        W96368  36.420  18.663  13.321
37075W        W96369  30.125  42.907   5.177
37076W        W96370  40.477   5.880  12.915
37077W        W96371  27.026  41.902   0.799
37078W        W96372   6.230  16.137  13.412
37079W        W96373  41.910  25.556   2.291
37080W        W96374  25.609  39.553   1.246
37081W        W96375   5.878  17.748  12.354
37082W        W96376  19.053  44.319   4.262
37083W        W96377  18.774   9.680   0.833
37084W        W96378   8.741  41.315   3.735
37085W        W96379  13.139  11.770   3.366
37086W        W96380  35.078   3.371   1.778
37087W        W96381  31.985  18.616   0.908
37088W        W96382  27.509  37.568  11.082
37089W        W96383  30.162  26.962   3.836
37090W        W96384  29.491   6.344   0.418
37091W        W96385   1.916  31.135   0.898
37092W        W96386  43.405  26.623   3.308
37093W        W96387  16.168  40.900  14.982
37094W        W96388   5.226  18.130  11.443
37095W        W96389   9.201  22.243  14.455
37096W        W96390   0.348  32.460   1.293
37097W        W96391  36.403   6.779   4.337
37098W        W96392  35.522  12.624   2.691
37099W        W96393  31.622  22.996   4.247
37100W        W96394  13.708   1.242  11.075
37101W        W96395  10.650   4.874   3.639
37102W        W96396  36.587  35.880  10.597
37103W        W96397  19.255  44.378  14.861
37104W        W96398  26.113  21.146   0.781
37105W        W96399   7.299  42.860   3.718
37106W        W96400  22.998  33.106   3.292
37107W        W96401  25.055  41.867  10.524
37108W        W96402  31.567   5.699   2.884
37109W        W96403  33.526  12.237  13.848
37110W        W96404  42.797  42.018   1.296
37111W        W96405  31.129  33.565   2.311
37112W        W96406  13.804  41.394   3.379
37113W        W96407  39.865  32.634   2.891
37114W        W96408   4.282  31.111  12.968
37115W        W96409  16.797  30.657   0.937
37116W        W96410  12.165  19.608   5.243
37117W        W96411  33.466  23.697  14.789
37118W        W96412  39.330   0.938  12.386
37119W        W96413   5.747  13.328  14.381
37120W        W96414  33.533   3.793  13.532
37121W        W96415   1.824  15.206   0.423
37122W        W96416  28.961  28.065  13.473
37123W        W96417  21.548   3.835  12.565
37124W        W96418  31.946  44.325   0.328
37125W        W96419  18.587  30.592  10.892
37126W        W96420  37.045   7.910   3.340
37127W        W96421  43.484  32.579   2.741
37128W        W96422  10.361  23.167  13.017
37129W        W96423  20.128  21.680   1.369
37130W        W96424  38.999  21.585  11.051
37131W        W96425  25.571  20.259   2.370
37132W        W96426   7.214  24.204   4.727
37133W        W96427   7.860   4.747  10.447
37134W        W96428  42.985  36.592  12.833
37135W        W96429  44.438  29.065  13.544
37136W        W96430  44.004  21.579  11.084
37137W        W96431  29.022  33.510   0.748
37138W        W96432  32.958  25.071  11.435
37139W        W96433  21.743  44.417   0.826
37140W        W96434   3.421  26.069   1.218
37141W        W96435   3.216   5.338   1.234
37142W        W96436  33.124  33.049  14.416
37143W        W96437  31.127  28.066   2.338
37144W        W96438   8.836  40.383  13.992
37145W        W96439   1.445   8.268  10.444
37146W        W96440  27.454  23.658  14.336
37147W        W96441  42.471  15.777   2.692
37148W        W96442  28.601  40.803   3.208
37149W        W96443   7.265   2.811   2.306
37150W        W96444  31.627  12.281   0.290
37151W        W96445  33.108  19.176   0.357
37152W        W96446  44.816  19.672   4.795
37153W        W96447  24.227  13.205   0.421
37154W        W96448  33.928  13.133  10.948
37155W        W96449  32.030  26.974  13.319
37156W        W96450  42.850  32.939  12.061
37157W        W96451  29.924  25.195   0.325
37158W        W96452  19.264   2.779  13.822
37159W        W96453   2.309  34.542  12.888
37160W        W96454   6.339  40.016   0.881
37161W        W96455  36.556  17.561  13.329
37162W        W96456  39.314  37.416   1.294
37163W        W96457  43.911  28.583  13.031
37164W        W96458  34.370   0.947   0.378
37165W        W96459  41.384  10.762   2.765
37166W        W96460  32.902  28.088  12.945
37167W        W96461  40.502  15.319  11.028
37168W        W96462   7.791   3.943  12.416
37169W        W96463  15.641  15.271   2.898
37170W        W96464  27.978   3.456   1.266
37171W        W96465  35.104  41.376  10.961
37172W        W96466  34.613  28.936   4.238
37173W        W96467  13.341  15.809   4.191
37174W        W96468   7.341   3.927  10.476
37175W        W96469  25.191  35.369  13.001
37176W        W96470  15.719  43.884   4.788
37177W        W96471  37.545  43.930   2.401
37178W        W96472  27.099   6.866  11.904
37179W        W96473  43.304   0.345  12.987
37180W        W96474  23.015  31.932  11.906
37181W        W96475   8.345  22.028  12.943
37182W        W96476   5.416  42.789   2.246
37183W        W96477  16.158  43.337   1.410
37184W        W96478   5.293  33.583  13.940
37185W        W96479  44.350   4.864   1.725
37186W        W96480  21.631  34.405  10.457
37187W        W96481  25.967  30.098  11.059
37188W        W96482  27.032   7.765   1.301
37189W        W96483   5.282   6.407  13.976
37190W        W96484  33.993  15.739  12.939
37191W        W96485  36.546  14.108  13.791
37192W        W96486  11.138  42.301  13.037
37193W        W96487  14.637  11.138  12.489
37194W        W96488  34.971  26.664  11.096
37195W        W96489   1.754   9.309  12.857
37196W        W96490  39.538   2.914   2.273
37197W        W96491   2.325  22.662   3.701
37198W        W96492  13.670  36.570   1.211
37199W        W96493   7.244  30.643  10.002
37200W        W96494  12.243  30.647   5.083
37201W        W96495  20.225   5.244   4.797
37202W        W96496  21.021   2.242   3.302
37203W        W96497  30.558  12.327   2.227
37204W        W96498  12.134  33.961   1.870
37205W        W96499  23.490  14.643   2.219
37206W        W96500  14.094   2.259  12.437
37207W        W96501   8.352  29.605  12.569
37208W        W96502  11.315  31.941   0.434
37209W        W96503  18.765  30.648  14.499
37210W        W96504  21.080   7.365  13.907
37211W        W96505  14.664  35.417  14.423
37212W        W96506  26.027  19.680   2.386
37213W        W96507   1.759  11.133  12.525
37214W        W96508  25.565  43.300  12.002
37215W        W96509  44.894  14.132  11.557
37216W        W96510  28.611  18.281   0.790
37217W        W96511  30.987  31.973   4.685
37218W        W96512   7.828  17.702   1.882
37219W        W96513  42.461  19.075   4.787
37220W        W96514  21.747  17.178   2.243
37221W        W96515   9.282  28.975  14.871
37222W        W96516   2.276  12.687  12.459
37223W        W96517  25.054  14.770  12.838
37224W        W96518  18.760  11.661  14.878
37225W        W96519  34.112  10.213   1.385
37226W        W96520  35.093  35.384   0.465
37227W        W96521   1.866  34.476  10.407
37228W        W96522  23.086  18.165  11.877
37229W        W96523  29.112  37.975  14.390
37230W        W96524  35.104  15.796  13.468
37231W        W96525  25.683  24.023  13.950
37232W        W96526   8.702   5.732   1.751
37233W        W96527   6.356  29.444  13.368
37234W        W96528   6.818  19.545   3.351
37235W        W96529  17.656  44.921   0.276
37236W        W96530  31.970  38.035   4.755
37237W        W96531  31.020  10.679   2.233
37238W        W96532   2.431  12.270  10.532
37239W        W96533  44.876  21.051  14.794
37240W        W96534  30.610  25.520   3.153
37241W        W96535  43.832  12.144  14.470
37242W        W96536  26.579  26.959  13.948
37243W        W96537   6.688  34.442   4.701
37244W        W96538   1.253  13.296  10.897
37245W        W96539  25.666   8.715   1.426
37246W        W96540  31.640   8.179  14.896
37247W        W96541  20.269   1.396   2.821
37248W        W96542  22.534  44.847  11.589
37249W        W96543   9.770   9.366  12.043
37250W        W96544   1.846  44.894  13.383
37251W        W96545  34.038  39.991   3.868
37252W        W96546   8.348  25.679  13.798
37253W        W96547  10.657  23.147  12.405
37254W        W96548   6.209   4.287  14.956
37255W        W96549   3.368  34.888  13.970
37256W        W96550  32.961   2.290   4.147
37257W        W96551  23.984   3.316  11.948
37258W        W96552   7.283  40.822  11.098
37259W        W96553  31.990  31.647   1.237
37260W        W96554  22.158  32.126   0.900
37261W        W96555   6.275  43.501  13.390
37262W        W96556   4.943  40.315  12.366
37263W        W96557  25.590  37.028  11.115
37264W        W96558  27.495  18.061  11.451
37265W        W96559  32.091  29.509   3.235
37266W        W96560  37.503  21.689  10.458
37267W        W96561   4.843   8.699   0.878
37268W        W96562  32.060  27.149  12.051
37269W        W96563  20.581  40.477   2.707
37270W        W96564  21.645  21.704   4.827
37271W        W96565   8.745   8.849   0.827
37272W        W96566  11.172  11.746  14.330
37273W        W96567  16.186  32.135  12.044
37274W        W96568  25.182  31.469   3.324
37275W        W96569   8.166   9.176  10.410
37276W        W96570   3.335  14.739  14.007
37277W        W96571  29.168  17.567  13.314
37278W        W96572  33.420  39.854   0.888
37279W        W96573  39.937  15.299   0.342
37280W        W96574  39.017   9.182   9.563
37281W        W96575   7.738  36.375  14.366
37282W        W96576  31.477  25.030  10.998
37283W        W96577  42.430  11.175  10.537
37284W        W96578  35.908  31.594  12.077
37285W        W96579  10.373  15.232  14.974
37286W        W96580  18.192  15.815  10.953
37287W        W96581  15.110  29.166  14.443
37288W        W96582  34.911  38.492   0.410
37289W        W96583  33.101  24.101   0.406
37290W        W96584  26.086  14.191  10.536
37291W        W96585  41.971  39.557  11.384
37292W        W96586  16.724  18.672   4.703
37293W        W96587  26.147  32.399   4.618
37294W        W96588  32.492  38.866   2.796
37295W        W96589  25.475  16.129   1.776
37296W        W96590  40.026   6.366  12.062
37297W        W96591  18.585  37.071  11.086
37298W        W96592  18.145  43.991   1.708
37299W        W96593  18.093  14.105   1.747
37300W        W96594  14.283  44.774  11.507
37301W        W96595  23.732  10.809  11.956
37302W        W96596  27.677   0.857   1.741
37303W        W96597  35.436   6.375   5.215
37304W        W96598  29.963  26.600   0.356
37305W        W96599  41.363  30.427  10.432
37306W        W96600  38.826  42.470   3.149
37307W        W96601   8.847  38.416   1.340
37308W        W96602  41.992   0.348   1.362
37309W        W96603   0.905  15.282   1.362
37310W        W96604  29.019  23.562   4.608
37311W        W96605  41.979   3.925   0.865
37312W        W96606  43.306  22.645   4.125
37313W        W96607  29.105  26.163  14.013
37314W        W96608  39.371  25.628   2.293
37315W        W96609   2.318  41.372   0.733
37316W        W96610  31.154  25.616   2.847
37317W        W96611   9.217   3.422   3.856
37318W        W96612  16.099   8.389  14.382
37319W        W96613  34.916  13.315  11.014
37320W        W96614  29.455  43.428   1.234
37321W        W96615  24.595  35.472   4.777
37322W        W96616  27.650  25.628   2.865
37323W        W96617   4.443  20.122   2.399
37324W        W96618   5.807  14.710   1.213
37325W        W96619  34.450  20.078   0.831
37326W        W96620  19.558   0.387   0.738
37327W        W96621  12.775  14.632  12.438
37328W        W96622  42.339   3.365   4.226
37329W        W96623   2.369  29.034   4.799
37330W        W96624   9.737  31.000  12.851
37331W        W96625  23.989  29.449  13.348
37332W        W96626  42.002  28.124   2.396
37333W        W96627  17.724  21.174  11.876
37334W        W96628  10.322  43.275   0.307
37335W        W96629  10.356   1.449  10.915
37336W        W96630  16.741  20.107  12.395
37337W        W96631  14.631  15.099   3.169
37338W        W96632  19.625  26.973  13.006
37339W        W96633   2.346  29.429  12.556
37340W        W96634  43.001  31.154   4.676
37341W        W96635  39.410  40.926  11.018
37342W        W96636  40.894  37.503   3.377
37343W        W96637  23.107  17.644   3.306
37344W        W96638   6.206  21.557  13.425
37345W        W96639  24.561  20.111   2.290
37346W        W96640  22.734   6.869  13.511
37347W        W96641  38.441  38.865  10.528
37348W        W96642  19.622  23.640  11.077
37349W        W96643  16.576  35.928  11.994
37350W        W96644  21.527  43.903   0.963
37351W        W96645  24.054   1.455  14.960
37352W        W96646  15.184  33.064  11.527
37353W        W96647  42.301  11.813   2.762
37354W        W96648   0.754   4.755  13.530
37355W        W96649  41.830  33.511   3.250
37356W        W96650  13.199  15.708  10.539
37357W        W96651  16.679   1.348   3.671
37358W        W96652  33.478  25.017  11.918
37359W        W96653  10.171  30.100  14.288
37360W        W96654  22.115  24.647  10.597
37361W        W96655   4.875  36.540  12.851
37362W        W96656  23.599  30.007  10.591
37363W        W96657  43.489  35.931   0.769
37364W        W96658  44.366  15.614  14.810
37365W        W96659  25.582  12.210  14.405
37366W        W96660   8.167  36.468  14.772
37367W        W96661  41.002  13.321   3.809
37368W        W96662  21.724   5.766   3.202
37369W        W96663  32.075  41.388  13.489
37370W        W96664  26.586   0.261   1.709
37371W        W96665   1.306  12.204  12.551
37372W        W96666  24.600   9.766   4.761
37373W        W96667  11.306  39.540   1.429
37374W        W96668   3.380   3.413   0.379
37375W        W96669  14.608  33.097   1.303
37376W        W96670  38.914  31.493  14.498
37377W        W96671  35.479  13.290   3.772
37378W        W96672   2.379  13.255  11.945
37379W        W96673  34.969  12.329  12.577
37380W        W96674  26.953  12.638   4.807
37381W        W96675   2.342  15.662   3.182
37382W        W96676  32.396   1.959   0.362
37383W        W96677  19.251  22.123   3.258
37384W        W96678  27.052   1.243  13.987
37385W        W96679  17.162  30.479   3.809
37386W        W96680  33.531  38.040  13.916
37387W        W96681  37.016  26.576  11.113
37388W        W96682  31.104  10.240  13.488
37389W        W96683  43.955   3.828  11.108
37390W        W96684  20.627  18.266   4.623
37391W        W96685  26.523  18.774  12.400
37392W        W96686  44.485  36.454  14.766
37393W        W96687  18.147   0.316  12.884
37394W        W96688  30.977  44.784   2.196
37395W        W96689  17.577  33.011   4.758
37396W        W96690  29.981  16.222  11.420
37397W        W96691  31.591  43.298   3.348
37398W        W96692  31.897  12.614   0.397
37399W        W96693   7.729   0.814  14.900
37400W        W96694  26.083  27.512  14.825
37401W        W96695  16.655  20.191  11.904
37402W        W96696  30.128  26.127  13.400
37403W        W96697  20.546  10.758   4.631
37404W        W96698  42.989  24.050  13.316
37405W        W96699  23.649  17.793   3.207
37406W        W96700   6.920  40.801  12.454
37407W        W96701  33.521   7.677  14.857
37408W        W96702   3.913  44.489  14.489
37409W        W96703  31.916  11.267   1.762
37410W        W96704  42.027  18.576  10.631
37411W        W96705  40.979  30.534   3.372
37412W        W96706  23.102  20.620  14.947
37413W        W96707   8.306  26.104  14.492
37414W        W96708  11.812   0.429  11.571
37415W        W96709  23.698  29.010  13.976
37416W        W96710  11.807  44.946  11.420
37417W        W96711  40.961  16.093   4.178
37418W        W96712  10.739   5.906  12.980
37419W        W96713  40.988  28.183  14.503
37420W        W96714  25.498  36.547  11.420
37421W        W96715  21.166  28.445   3.381
37422W        W96716   2.343  44.266  12.950
37423W        W96717  19.108   9.848  11.559
37424W        W96718  23.160   6.856   1.742
37425W        W96719  31.915   6.851  12.859
37426W        W96720  15.102  30.558   3.341
37427W        W96721  19.645  34.077   0.958
37428W        W96722  12.744  25.208   0.839
37429W        W96723  31.009  40.545  13.347
37430W        W96724  23.598  28.616  12.064
37431W        W96725  10.177   3.405  11.966
37432W        W96726  21.698  31.008  10.577
37433W        W96727   4.329  21.036   1.325
37434W        W96728  30.947   7.217   5.186
37435W        W96729  38.343  33.988   0.921
37436W        W96730  27.102  29.095  13.995
37437W        W96731   0.259  10.228   1.848
37438W        W96732  30.939  11.732   2.240
37439W        W96733   6.375  16.277   2.221
37440W        W96734   7.670  38.837   1.756
37441W        W96735  30.991  19.046   3.215
37442W        W96736  34.612  10.754  12.488
37443W        W96737  39.349  13.284   3.321
37444W        W96738  37.451  31.021   2.326
37445W        W96739   8.783  15.309  12.053
37446W        W96740  35.454  21.079  12.533
37447W        W96741  17.714  18.630  14.479
37448W        W96742  20.656  21.607   9.636
37449W        W96743  37.347  29.662  10.986
37450W        W96744  16.720  35.548   4.668
37451W        W96745  10.764  13.114   4.243
37452W        W96746  39.051  26.984  12.014
37453W        W96747  20.744  41.537  11.397
37454W        W96748  17.624  13.143  13.847
37455W        W96749  42.485   8.171  10.906
37456W        W96750  22.717  41.507   3.858
37457W        W96751  32.949   1.360   0.382
37458W        W96752  32.603  44.316   4.771
37459W        W96753  27.030  13.704   2.825
37460W        W96754  43.497   0.958  14.833
37461W        W96755  22.693  24.986   1.280
37462W        W96756  43.319  11.355  11.867
37463W        W96757   4.851  18.768   2.691
37464W        W96758   5.233  19.660   2.397
37465W        W96759  20.638  40.873  11.534
37466W        W96760  44.416  38.493   1.723
37467W        W96761   4.762  11.244  12.378
37468W        W96762  38.836   6.740  11.088
37469W        W96763  40.052  21.757   4.748
37470W        W96764  33.883  43.385   3.353
37471W        W96765  32.415  21.741   3.362
37472W        W96766   7.886   3.833  12.080
37473W        W96767  24.618  36.495  11.913
37474W        W96768  23.129  23.183   4.801
37475W        W96769   1.252  44.983   4.321
37476W        W96770  31.953  13.341   5.212
37477W        W96771  18.273  12.635  13.888
37478W        W96772   7.832   6.422  12.385
37479W        W96773  24.987  24.219  12.502
37480W        W96774  27.040  25.672  13.014
37481W        W96775  37.932  29.648   2.384
37482W        W96776  32.515  35.438   3.351
37483W        W96777  32.517  10.286  12.879
37484W        W96778  35.103   2.381   4.237
37485W        W96779  29.653   2.812   2.872
37486W        W96780  41.445  20.250  14.953
37487W        W96781  17.651   9.818   3.214
37488W        W96782  41.444   5.247   1.855
37489W        W96783  22.141  18.218   1.281
37490W        W96784  36.048   7.344   4.156
37491W        W96785  10.219  41.406  14.464
37492W        W96786  26.594   7.402  11.431
37493W        W96787  28.582   2.467   4.612
37494W        W96788   4.747  29.949  14.942
37495W        W96789  18.229  33.059   0.301
37496W        W96790  43.822  31.095   4.114
37497W        W96791  44.343  30.580   1.398
37498W        W96792  21.195  19.102   4.146
37499W        W96793   2.346   7.728   2.183
37500W        W96794  31.151  17.185   2.211
37501W        W96795   3.865  37.564   4.793
37502W        W96796  31.135  37.914   1.249
37503W        W96797  24.570  30.062   0.846
37504W        W96798  40.495  10.729   3.643
37505W        W96799  14.741   4.834   1.400
37506W        W96800  27.146  19.544  13.883
37507W        W96801   6.246  14.336   9.982
37508W        W96802   7.171  39.814   3.278
37509W        W96803   9.888   3.385  14.504
37510W        W96804   8.756  37.468  12.862
37511W        W96805   9.283   1.304   9.555
37512W        W96806  18.587  35.018  14.761
37513W        W96807  10.141   0.361  14.935
37514W        W96808  34.544  25.523  10.620
37515W        W96809  14.100  23.582  11.922
37516W        W96810  15.775  27.541   1.216
37517W        W96811  37.880   8.395  12.831
37518W        W96812  36.439  26.180   2.691
37519W        W96813  40.312  15.272  14.310
37520W        W96814  39.975  30.928  14.338
37521W        W96815  24.071   7.333   5.710
37522W        W96816  25.707  16.690  12.483
37523W        W96817  23.115   4.833  12.357
37524W        W96818  27.119   0.414  14.338
37525W        W96819  31.056  38.873   2.357
37526W        W96820  21.079   2.884   2.835
37527W        W96821  39.848   9.270   3.341
37528W        W96822  31.923   4.306   4.305
37529W        W96823  26.029  42.306   3.272
37530W        W96824  26.992  20.683   1.435
37531W        W96825  20.730  15.249   4.310
37532W        W96826  32.021  10.180  14.815
37533W        W96827  37.947  14.232  14.376
37534W        W96828  15.226  40.862   2.733
37535W        W96829   6.311  22.562  10.903
37536W        W96830  11.132  37.864   4.790
37537W        W96831  22.508  17.766  10.480
37538W        W96832  24.551  39.982   2.884
37539W        W96833   6.219   8.285  12.875
37540W        W96834  24.563   6.198  12.443
37541W        W96835  36.084  39.941  14.402
37542W        W96836  41.891  21.245   1.735
37543W        W96837  19.761  10.264   4.176
37544W        W96838  31.920  14.750  10.493
37545W        W96839  36.926  27.135   3.855
37546W        W96840   6.826  19.591  13.307
37547W        W96841  29.134  13.633   4.207
37548W        W96842  17.690  23.587  14.474
37549W        W96843  23.661  36.513  14.962
37550W        W96844  20.143  30.458  10.107
37551W        W96845   0.763  19.778  14.470
37552W        W96846  24.588  39.949  13.503
37553W        W96847  42.023  27.030  12.460
37554W        W96848  36.901  16.685   2.730
37555W        W96849  24.606   0.453   3.820
37556W        W96850  35.432  31.963  13.980
37557W        W96851   9.875  21.734  10.888
37558W        W96852  29.096  16.811  14.926
37559W        W96853  13.639  23.040  14.378
37560W        W96854   3.279  22.158   5.762
37561W        W96855  13.130  10.274  11.933
37562W        W96856  23.553   7.368  13.396
37563W        W96857  15.638   1.791   4.766
37564W        W96858   9.766  29.944  11.612
37565W        W96859  36.385  33.123  12.830
37566W        W96860  17.585   5.389  12.545
37567W        W96861  43.284   6.251  12.949
37568W        W96862   2.460   9.376   4.119
37569W        W96863  12.182  26.587  12.985
37570W        W96864  18.242   3.262  13.460
37571W        W96865  18.233  29.645  14.464
37572W        W96866  25.498  17.778  12.885
37573W        W96867  12.686  13.798  12.064
37574W        W96868   2.353  39.467  13.830
37575W        W96869  44.932  31.077   2.397
37576W        W96870  24.560  35.972  12.950
37577W        W96871  16.088  14.101  11.402
37578W        W96872  24.055  38.334  13.537
37579W        W96873  12.199  34.547  12.045
37580W        W96874  42.806  18.152   3.864
37581W        W96875  36.012  11.175   2.241
37582W        W96876  39.421   7.393   5.289
37583W        W96877  29.606  35.440   4.266
37584W        W96878  12.716   0.326  11.936
37585W        W96879  42.877  31.039   3.638
37586W        W96880  41.963  19.701   0.896
37587W        W96881   2.348   1.350   2.847
37588W        W96882   9.868  27.111  12.365
37589W        W96883  24.478  17.625  14.968
37590W        W96884  44.401  33.581   4.775
37591W        W96885   3.955  30.059   2.779
37592W        W96886  43.837  36.077   1.265
37593W        W96887   0.267   8.773  13.494
37594W        W96888   2.322  20.162   2.695
37595W        W96889  38.456  19.665  12.885
37596W        W96890  33.077  39.396   3.247
37597W        W96891  31.486  35.898   1.255
37598W        W96892  27.615  34.871   1.336
37599W        W96893  10.838  40.016  11.450
37600W        W96894  14.120   9.193  13.520
37601W        W96895   7.876  33.567  14.471
37602W        W96896  32.094  16.729  14.849
37603W        W96897   2.298   6.776  10.920
37604W        W96898   4.925  33.459  11.414
37605W        W96899  30.131   4.703  12.501
37606W        W96900  35.109  10.833   3.264
37607W        W96901   7.398  30.026  11.520
37608W        W96902   0.311  32.111   4.825
37609W        W96903  23.573  23.213   3.174
37610W        W96904  20.125  39.940   2.855
37611W        W96905  28.444  35.500  12.433
37612W        W96906  33.562  10.725   0.935
37613W        W96907  32.936  20.064   4.138
37614W        W96908   1.844  22.196  14.450
37615W        W96909  25.062  16.792   2.382
37616W        W96910  17.756  39.967   1.341
37617W        W96911  42.383  17.616   2.684
37618W        W96912  14.194   3.397   0.291
37619W        W96913   5.360  39.322   0.733
37620W        W96914  35.560  13.737   2.760
37621W        W96915  24.523  16.189   3.372
37622W        W96916  39.940   2.228  12.025
37623W        W96917  21.754  33.113  14.909
37624W        W96918  40.939  11.350   0.738
37625W        W96919  37.372  31.404  10.624
37626W        W96920  36.099  44.815  14.920
37627W        W96921  11.768  10.833  12.569
37628W        W96922   7.389  17.788  11.030
37629W        W96923  16.597   1.383  13.538
37630W        W96924  15.799  43.885   0.814
37631W        W96925  36.500   9.812  11.933
37632W        W96926  11.655  29.086   0.829
37633W        W96927  27.512  33.509  14.881
37634W        W96928  26.974  31.572  12.924
37635W        W96929  40.896  20.039   4.215
37636W        W96930  10.703  26.056  12.476
37637W        W96931  33.546   2.777   2.897
37638W        W96932   9.232  39.058  13.401
37639W        W96933  39.404   0.905  10.977
37640W        W96934  12.776   6.241   2.285
37641W        W96935  40.445  30.436  14.956
37642W        W96936  23.699  40.469   4.822
37643W        W96937   2.335  20.766  11.017
37644W        W96938  44.351  43.326   3.680
37645W        W96939  23.006   6.425  12.851
37646W        W96940  34.562  10.837  13.470
37647W        W96941  16.115  16.802  14.871
37648W        W96942  41.438  26.144  13.878
37649W        W96943  17.591  31.980  12.870
37650W        W96944   6.677   5.307   1.302
37651W        W96945   8.782  13.628  13.032
37652W        W96946  24.105  41.327  14.794
37653W        W96947  17.595  26.570   4.320
37654W        W96948  25.670  22.147   4.242
37655W        W96949  20.137  38.564  14.388
37656W        W96950   7.413  38.507   4.247
37657W        W96951   6.824  43.824   5.799
37658W        W96952  13.709  32.965   3.240
37659W        W96953   7.176  15.579   0.842
37660W        W96954   6.211   7.801  10.605
37661W        W96955  28.644  40.896  12.361
37662W        W96956  33.518  29.641  10.984
37663W        W96957  13.679  23.731   0.439
37664W        W96958  17.282  28.675  11.921
37665W        W96959  40.378  37.965  14.362
37666W        W96960   8.822  28.439   1.215
37667W        W96961  13.122  14.311  11.600
37668W        W96962  11.192  10.796  14.285
37669W        W96963  44.937  32.497   2.294
37670W        W96964  24.497  29.629   1.296
37671W        W96965  11.214  38.046   1.437
37672W        W96966  43.009  10.174   3.337
37673W        W96967  17.225  41.405  10.540
37674W        W96968  32.001  19.605  13.872
37675W        W96969  26.578  13.228   2.886
37676W        W96970  43.456  13.665   3.701
37677W        W96971  28.490  21.245   3.343
37678W        W96972  15.688   4.229  11.053
37679W        W96973   5.259  26.494   2.801
37680W        W96974  11.309  39.845  13.424
37681W        W96975   3.791  40.053  10.446
37682W        W96976  37.530  29.154   0.261
37683W        W96977  38.919   9.272   2.362
37684W        W96978  20.687  15.301  10.556
37685W        W96979  32.394  40.398   0.408
37686W        W96980  39.529  24.708   2.204
37687W        W96981   9.846  23.587   4.614
37688W        W96982  29.492   7.203  12.575
37689W        W96983  36.904  33.385   2.370
37690W        W96984  26.635  12.312   4.284
37691W        W96985   2.945   2.354   4.822
37692W        W96986  18.644  32.044   3.372
37693W        W96987  23.670  19.632  12.351
37694W        W96988  35.391  23.540  11.478
37695W        W96989  35.935   0.378   3.333
37696W        W96990   9.392   1.849   9.991
37697W        W96991  42.344  26.634   4.252
37698W        W96992  40.827  12.730   4.612
37699W        W96993  44.823  34.532  13.017
37700W        W96994  34.054  26.967  12.064
37701W        W96995  12.834  24.112  12.571
37702W        W96996   0.931  35.578  11.406
37703W        W96997   7.740  25.709  13.862
37704W        W96998  38.477   1.780  14.961
37705W        W96999   6.422  23.984   4.744
37706W        W97000  11.764   5.433  12.421
37707W        W97001  19.266  33.120   2.693
37708W        W97002  40.044  44.913   3.702
37709W        W97003  41.383   2.854   2.337
37710W        W97004   0.986  32.557  14.837
37711W        W97005  38.983  26.601  11.404
37712W        W97006  38.888   8.255  11.390
37713W        W97007   3.718  20.140  10.433
37714W        W97008  43.365  23.096  10.565
37715W        W97009  12.683  21.538  11.406
37716W        W97010  34.424  37.358  12.990
37717W        W97011  23.986  10.764   4.728
37718W        W97012   7.911  24.179  11.120
37719W        W97013   8.344  37.941   0.806
37720W        W97014  14.140  16.578   1.233
37721W        W97015  25.472  19.237   3.694
37722W        W97016  14.165  30.535   2.390
37723W        W97017   5.868  24.041  13.332
37724W        W97018  28.560  25.603  14.344
37725W        W97019  43.920  20.102  13.430
37726W        W97020   3.274  13.674  10.495
37727W        W97021  27.483  33.073   4.759
37728W        W97022   8.310   1.377  10.081
37729W        W97023  28.049  20.681  11.913
37730W        W97024  40.988  26.486  14.442
37731W        W97025   5.891  38.554   4.830
37732W        W97026  13.133  11.709   1.922
37733W        W97027  27.476  38.396  13.944
37734W        W97028  22.213  30.569   4.732
37735W        W97029  35.384  40.867   4.236
37736W        W97030  22.076   7.207   2.267
37737W        W97031  31.467  22.656  11.432
37738W        W97032   5.276  42.811   1.411
37739W        W97033  30.002  25.521   4.705
37740W        W97034  37.356  40.055   2.313
37741W        W97035  23.186  20.739  10.451
37742W        W97036  36.366  33.381  10.936
37743W        W97037   4.811   5.827  10.502
37744W        W97038  29.447  21.171   5.127
37745W        W97039  22.725  14.324   3.168
37746W        W97040  26.004  22.601   4.349
37747W        W97041  44.467   9.279   4.717
37748W        W97042  21.745   7.718   0.747
37749W        W97043  24.547  14.098   0.777
37750W        W97044  27.691  14.663   0.939
37751W        W97045  31.939  25.595  10.458
37752W        W97046  28.530  40.995   1.261
37753W        W97047  18.737  19.132   1.741
37754W        W97048  19.645  25.704   3.173
37755W        W97049   6.694   1.288  12.883
37756W        W97050  44.866  24.052   2.180
37757W        W97051  34.866  16.746  10.609
37758W        W97052   3.789  31.048   2.318
37759W        W97053  21.120   2.330  13.919
37760W        W97054  28.638  32.554  11.509
37761W        W97055  26.984  32.574  11.902
37762W        W97056  21.041   3.294   0.343
37763W        W97057  41.416  18.631   3.148
37764W        W97058  39.968  31.093   0.283
37765W        W97059  44.890  15.109   3.695
37766W        W97060  23.193   7.732  13.977
37767W        W97061  19.274  34.985  13.807
37768W        W97062  33.938   0.273   4.288
37769W        W97063  22.032  11.656   2.874
37770W        W97064  23.620   4.285  10.492
37771W        W97065  26.140   2.268  13.326
37772W        W97066  24.989  12.743   1.285
37773W        W97067  24.600  36.077   2.710
37774W        W97068  21.670  17.115   4.215
37775W        W97069   2.810  33.414  11.074
37776W        W97070  12.291  31.530  11.559
37777W        W97071   2.358  20.669   1.780
37778W        W97072  33.984  31.558   2.188
37779W        W97073  41.468  23.718   3.807
37780W        W97074  12.651  19.670  14.446
37781W        W97075  28.587  34.923   1.700
37782W        W97076  18.110   4.235  12.494
37783W        W97077  43.888  39.856  14.792
37784W        W97078  11.263  21.754  14.389
37785W        W97079  42.882   8.169   0.321
37786W        W97080   1.354  41.788   3.665
37787W        W97081  25.091  17.161  11.073
37788W        W97082  14.781  42.805  10.934
37789W        W97083  27.567  34.904   3.274
37790W        W97084   6.401   3.939   2.323
37791W        W97085  18.291  26.593  11.989
37792W        W97086   5.735  14.608  12.574
37793W        W97087  27.510  43.441   1.797
37794W        W97088  21.680  41.814  11.405
37795W        W97089  29.163  22.655  12.881
37796W        W97090   7.279  23.150   4.215
37797W        W97091   4.737   4.771  14.837
37798W        W97092  15.757  17.770   2.765
37799W        W97093  42.346  27.986  14.493
37800W        W97094  24.711  38.330   1.785
37801W        W97095  18.749  41.394   0.891
37802W        W97096  41.855   0.291   3.277
37803W        W97097  19.554  27.960  11.990
37804W        W97098  26.613  25.004   0.821
37805W        W97099  16.688  37.991  12.920
37806W        W97100  26.975  35.572   3.732
37807W        W97101  28.661  40.011   3.839
37808W        W97102  13.349   7.767  11.989
37809W        W97103  33.946   7.822   4.673
37810W        W97104  40.856  44.848  11.395
37811W        W97105  40.965  18.700  14.324
37812W        W97106   5.279   4.297   3.206
37813W        W97107  32.964  10.658   9.569
37814W        W97108   4.440   2.939  12.083
37815W        W97109  25.088  37.996  11.478
37816W        W97110  39.426  15.818  10.484
37817W        W97111  36.428   2.953   3.673
37818W        W97112  38.436  31.934  13.944
37819W        W97113   9.302   6.316  12.377
37820W        W97114  25.573  17.791  14.868
37821W        W97115  11.798  41.797   4.643
37822W        W97116  30.587  32.049   4.118
37823W        W97117  42.350  14.773  14.002
37824W        W97118   5.815  41.934  14.987
37825W        W97119   5.828  29.666   4.233
37826W        W97120  29.070  29.175  12.434
37827W        W97121   3.263  36.407   0.477
37828W        W97122   4.368  24.176  12.979
37829W        W97123  36.540  31.998   2.902
37830W        W97124  26.158  14.195   1.299
37831W        W97125   6.370  14.138   0.258
37832W        W97126  35.911   4.849   4.208
37833W        W97127  38.878  42.799   2.730
37834W        W97128  41.809  28.460  11.901
37835W        W97129  40.438  29.985   2.395
37836W        W97130   5.825  15.785   2.864
37837W        W97131  18.114  31.033  13.310
37838W        W97132   2.815  42.025  11.585
37839W        W97133   3.241   1.476   3.631
37840W        W97134  31.608  13.703  11.055
37841W        W97135  14.269   1.857   3.262
37842W        W97136   5.871  16.308  11.103
37843W        W97137   4.785  24.089   4.726
37844W        W97138   3.298   0.875   3.789
37845W        W97139  23.240  39.357   3.299
37846W        W97140  10.678   0.347   2.340
37847W        W97141  19.129  42.960  10.494
37848W        W97142  42.962  43.918   0.938
37849W        W97143  37.930  11.286  10.438
37850W        W97144  27.520  41.035   4.749
37851W        W97145   6.734  18.683  10.614
37852W        W97146  14.179   0.271  12.538
37853W        W97147  16.151  44.975   1.751
37854W        W97148  25.590  32.051   3.359
37855W        W97149  14.813  14.311   3.665
37856W        W97150  25.517  41.520  14.918
37857W        W97151  43.768   0.404  12.073
37858W        W97152  17.125  13.609  13.825
37859W        W97153  15.599  37.888   0.884
37860W        W97154  32.944  41.438  10.543
37861W        W97155  37.973  21.549  12.500
37862W        W97156   4.309  15.773   0.805
37863W        W97157  44.800  14.695   0.893
37864W        W97158  29.462   0.410  13.916
37865W        W97159  21.586  15.633  10.903
37866W        W97160  31.419  14.191  14.019
37867W        W97161  10.690  17.178  12.909
37868W        W97162  16.186  27.146   1.837
37869W        W97163  31.502  18.206  14.513
37870W        W97164  40.852  19.536   2.276
37871W        W97165   7.903  39.847  14.831
37872W        W97166  28.596  37.502   1.764
37873W        W97167  29.999  13.131  13.937
37874W        W97168  33.517  37.040  12.455
37875W        W97169   9.249  39.499  10.903
37876W        W97170  24.112   0.307  13.869
37877W        W97171  41.897  36.491   3.732
37878W        W97172  10.296  37.438   0.395
37879W        W97173  18.290  37.581   4.682
37880W        W97174   5.766  41.336  10.934
37881W        W97175  37.539  30.912  11.948
37882W        W97176  10.636   2.892   2.813
37883W        W97177  42.959  21.076   3.385
37884W        W97178  14.335   9.315  14.999
37885W        W97179  28.463   1.944   3.859
37886W        W97180  22.072  41.035   3.321
37887W        W97181  25.469  16.686   4.665
37888W        W97182  36.907   0.415  14.363
37889W        W97183   7.908  42.502   4.262
37890W        W97184  11.697  11.223  10.933
37891W        W97185   8.843   6.863  13.444
37892W        W97186  17.736  42.882  13.906
37893W        W97187  38.470  33.514  14.766
37894W        W97188   3.459  18.201  12.431
37895W        W97189  40.839  33.523  14.972
37896W        W97190  15.810  11.756  11.454
37897W        W97191  32.528   7.666   9.634
37898W        W97192   3.290  42.775   0.843
37899W        W97193  43.903  19.171  10.943
37900W        W97194  34.473  28.937  10.945
37901W        W97195  44.939  41.314  11.476
37902W        W97196  35.055  14.696   3.819
37903W        W97197  36.517  34.048  13.536
37904W        W97198  13.725  11.176   3.779
37905W        W97199   6.679  13.308  14.808
37906W        W97200  18.122  42.297  13.989
37907W        W97201  22.112  27.147   2.755
37908W        W97202  29.005  37.442   4.707
37909W        W97203   3.354  37.893   2.404
37910W        W97204  27.088  22.155   3.707
37911W        W97205  26.083   2.834   1.739
37912W        W97206   5.781  17.194   2.754
37913W        W97207   8.894  21.711   4.695
37914W        W97208  20.612  40.367  12.382
37915W        W97209  35.037   5.930  14.981
37916W        W97210  12.706  36.044   1.428
37917W        W97211  29.924  41.943  13.025
37918W        W97212   9.337  36.948   3.368
37919W        W97213   3.251  38.882  13.338
37920W        W97214  27.509   7.310  14.853
37921W        W97215  31.599  26.076   1.871
37922W        W97216   2.320   0.944   3.319
37923W        W97217  26.698  14.215  12.383
37924W        W97218  38.471  31.633   2.256
37925W        W97219   9.290  34.552   4.220
37926W        W97220  14.672   7.865  10.508
37927W        W97221  42.376  44.860  14.939
37928W        W97222   1.897   0.265   1.349
37929W        W97223  27.127  32.406  13.486
37930W        W97224  35.866   4.262  11.031
37931W        W97225  42.377  17.069  11.547
37932W        W97226  17.692  40.489  10.426
37933W        W97227  29.665  44.346  13.497
37934W        W97228  38.840  20.526  12.542
37935W        W97229  26.584  11.206  11.890
37936W        W97230  42.981  24.574  11.467
37937W        W97231   5.777   1.393   3.670
37938W        W97232   6.306  39.850   2.673
37939W        W97233  18.144   0.299   3.668
37940W        W97234  22.131  35.383  10.417
37941W        W97235  19.692  28.183   0.826
37942W        W97236  12.259  12.354  14.888
37943W        W97237   0.785  36.467   0.925
37944W        W97238   5.770   6.871   3.273
37945W        W97239  18.249  37.521  10.620
37946W        W97240  33.961  16.154  12.924
37947W        W97241  18.693  24.126   2.682
37948W        W97242  15.587  35.908   1.699
37949W        W97243  34.039  38.463   0.951
37950W        W97244  32.930   5.329   3.298
37951W        W97245  37.534  40.938   1.273
37952W        W97246  34.442  37.972   4.760
37953W        W97247  19.111   7.240   3.805
37954W        W97248  25.562  15.103  14.970
37955W        W97249  18.741  36.511  14.392
37956W        W97250  11.684  17.664  10.913
37957W        W97251   2.858  23.093  11.501
37958W        W97252  13.292   0.438  10.419
37959W        W97253  29.448  26.974  13.826
37960W        W97254  25.658  17.666  11.607
37961W        W97255  32.118  25.700  13.915
37962W        W97256  37.003  41.383   2.351
37963W        W97257  23.201  11.775  10.063
37964W        W97258  28.020   5.205   0.856
37965W        W97259  17.589  41.982   3.667
37966W        W97260  31.031   1.242  10.507
37967W        W97261  17.790  13.333   5.106
37968W        W97262  29.952  37.355  11.428
37969W        W97263  32.900  29.488   2.179
37970W        W97264  13.746  37.077  13.990
37971W        W97265  28.681  24.218   2.415
37972W        W97266  41.808  27.621  12.407
37973W        W97267  16.762   3.325  13.346
37974W        W97268  29.508  10.843  13.869
37975W        W97269  26.682  17.662  11.928
37976W        W97270  40.039   9.258  10.503
37977W        W97271  39.908  23.544  14.805
37978W        W97272  41.400  44.317  12.481
37979W        W97273  38.467  36.581   3.636
37980W        W97274  36.953   2.808  13.421
37981W        W97275  28.596  23.723  13.961
37982W        W97276   7.393  21.680  14.370
37983W        W97277  30.095  10.186   2.900
37984W        W97278  19.176  28.493   2.415
37985W        W97279  44.472  39.419  10.158
37986W        W97280  22.686  27.594  10.524
37987W        W97281  33.570  27.064   9.966
37988W        W97282   4.877  10.665  10.043
37989W        W97283   6.198   8.392   1.698
37990W        W97284   8.403  43.366   0.463
37991W        W97285  44.330  33.493   1.762
37992W        W97286   0.854  25.181   5.243
37993W        W97287  25.591  11.707  13.006
37994W        W97288  22.218  15.083   0.404
37995W        W97289  30.109  23.601  14.348
37996W        W97290  17.667  33.529   0.331
37997W        W97291  42.964  21.039   2.369
37998W        W97292  35.583  30.913  14.441
37999W        W97293  24.527  21.227  10.961
38000W        W97294  23.582  40.480  12.896
38001W        W97295  42.841  10.274   0.888
38002W        W97296  39.033  36.551  13.999
38003W        W97297  31.102  31.968  13.848
38004W        W97298   7.714  28.515  13.535
38005W        W97299  24.685  30.500  12.944
38006W        W97300  10.858  33.523  13.819
38007W        W97301  15.714  21.156   5.244
38008W        W97302  38.043  43.417   0.282
38009W        W97303  16.279  13.166   3.734
38010W        W97304   3.927  34.027   2.363
38011W        W97305  21.114  34.419  13.374
38012W        W97306  13.729  18.770  14.775
38013W        W97307  22.159   8.316   4.146
38014W        W97308   9.350  39.063  10.605
38015W        W97309  37.026  42.958  11.495
38016W        W97310  33.986  12.635  10.486
38017W        W97311  26.175  35.413   4.766
38018W        W97312  42.821   5.408   1.879
38019W        W97313  13.187  31.075   2.867
38020W        W97314  21.219  25.486  14.480
38021W        W97315  32.076  36.469   3.688
38022W        W97316  12.617  32.979   9.493
38023W        W97317   5.852  37.834   4.248
38024W        W97318   3.250  40.905   4.157
38025W        W97319  33.998  32.557   3.688
38026W        W97320  13.822  17.120   1.370
38027W        W97321  35.388  16.597  14.464
38028W        W97322  26.486  13.177  12.522
38029W        W97323  21.223   9.657  14.433
38030W        W97324  38.327  36.868  14.974
38031W        W97325  10.870  32.074  13.511
38032W        W97326   1.301  35.982  12.351
38033W        W97327  16.632  20.269   2.232
38034W        W97328  12.758  13.833   4.704
38035W        W97329  17.756   5.412   2.261
38036W        W97330  19.633  19.228   2.208
38037W        W97331   5.807  27.603   3.191
38038W        W97332  23.050  27.462   2.225
38039W        W97333  28.545   2.945   3.180
38040W        W97334  11.645  29.994  12.033
38041W        W97335  13.755   4.435  13.899
38042W        W97336   1.294  22.244  11.946
38043W        W97337   9.653  21.638   0.278
38044W        W97338  15.261  42.848   2.868
38045W        W97339   5.265  15.717  13.819
38046W        W97340  24.720  21.674  14.815
38047W        W97341  22.017   7.845  12.538
38048W        W97342  35.446  14.714  11.457
38049W        W97343  16.216   6.344   4.679
38050W        W97344  28.034  24.556   4.149
38051W        W97345  23.701  33.605   1.345
38052W        W97346  23.684  27.086   3.674
38053W        W97347   5.770  26.697   3.308
38054W        W97348  15.169   3.938  14.500
38055W        W97349  42.009  25.479   2.664
38056W        W97350  26.041   5.231  11.947
38057W        W97351  16.744  44.819  11.986
38058W        W97352  24.025  21.611   3.333
38059W        W97353  13.298   6.846  10.484
38060W        W97354  38.354   4.442  10.557
38061W        W97355   3.452  17.096   1.737
38062W        W97356  35.522  35.911   1.358
38063W        W97357   8.824  39.409   1.700
38064W        W97358   8.239  12.636   0.312
38065W        W97359  42.379  20.548   2.808
38066W        W97360  23.003  31.133   4.277
38067W        W97361  17.163   7.867   2.837
38068W        W97362  28.515   8.775  12.524
38069W        W97363  14.740  44.398   4.754
38070W        W97364  20.079  34.591  14.356
38071W        W97365  33.931  12.669   4.131
38072W        W97366  23.050  27.990  11.886
38073W        W97367  26.681  12.803   0.322
38074W        W97368   0.943  42.916   3.733
38075W        W97369   4.229  39.893  13.046
38076W        W97370  10.725  34.112   1.337
38077W        W97371  43.847  23.219   3.316
38078W        W97372   5.754  33.433   0.785
38079W        W97373  30.922  36.888  13.946
38080W        W97374   0.978  30.050  13.845
38081W        W97375  42.474  16.671   1.356
38082W        W97376  24.082  14.238   1.810
38083W        W97377  13.797  28.481  12.991
38084W        W97378   5.350  41.331  12.999
38085W        W97379  16.800   8.798  14.424
38086W        W97380  43.772  33.402  11.860
38087W        W97381  14.672   8.750   0.443
38088W        W97382   7.818  27.179   3.768
38089W        W97383  18.061  28.006  10.420
38090W        W97384  41.485   9.645  14.935
38091W        W97385  13.679  21.657  11.535
38092W        W97386  11.206  20.215  10.627
38093W        W97387  22.726  27.071   0.268
38094W        W97388  30.492   1.848  12.565
38095W        W97389  18.740   1.443  11.473
38096W        W97390  21.610  18.720   0.471
38097W        W97391  16.098   9.681   4.802
38098W        W97392  34.896  41.482  12.555
38099W        W97393   8.218   8.698  12.360
38100W        W97394  22.622  35.558   2.181
38101W        W97395  27.624  21.582   2.291
38102W        W97396  39.528  37.969  11.974
38103W        W97397   4.794  35.573   0.477
38104W        W97398  15.310  23.006   1.914
38105W        W97399  22.637   3.443   0.860
38106W        W97400  14.209  22.233  11.915
38107W        W97401  36.896  43.862  11.407
38108W        W97402  24.130  14.638   3.720
38109W        W97403  40.815  15.769   3.159
38110W        W97404  27.088  28.185  11.033
38111W        W97405   4.437  32.448   1.447
38112W        W97406  24.683   6.845  13.831
38113W        W97407  29.428   1.278   4.250
38114W        W97408  32.100  40.822  13.500
38115W        W97409   1.812  43.299   4.285
38116W        W97410  40.429  19.177  12.908
38117W        W97411  28.131  25.578   3.656
38118W        W97412  25.712  37.369   0.343
38119W        W97413  44.922  32.956  14.977
38120W        W97414   5.394   5.216  12.350
38121W        W97415  11.650   9.149  14.489
38122W        W97416  27.047  16.318   1.824
38123W        W97417  27.952  42.389   4.815
38124W        W97418  37.424  23.187  10.985
38125W        W97419   1.392  16.658  10.588
38126W        W97420  25.968   2.425   1.733
38127W        W97421  23.018   4.360  12.985
38128W        W97422  41.295  30.959  13.859
38129W        W97423   7.883   8.774  13.490
38130W        W97424  23.584  39.456   4.617
38131W        W97425  22.147  37.573  12.946
38132W        W97426  19.535  40.819  13.874
38133W        W97427  29.174  39.380  11.410
38134W        W97428  40.407  17.770  12.054
38135W        W97429  18.553  29.070   5.307
38136W        W97430  42.966  18.692   4.737
38137W        W97431  26.029  26.147   2.712
38138W        W97432  18.676  36.011  12.083
38139W        W97433  11.287  16.783  12.395
38140W        W97434   1.921  14.676  12.527
38141W        W97435  36.577   7.327   3.845
38142W        W97436  11.254  43.909   0.873
38143W        W97437   5.901  28.062  11.485
38144W        W97438  26.185  43.840  14.294
38145W        W97439  15.266  36.501  14.459
38146W        W97440  10.172  15.712  10.449
38147W        W97441  34.097  14.808  11.461
38148W        W97442  10.796  40.359  13.863
38149W        W97443  19.705  20.117  11.977
38150W        W97444  39.949  36.902   3.787
38151W        W97445  24.108  42.012  12.439
38152W        W97446  42.502  25.622   2.797
38153W        W97447  24.082  24.585  10.920
38154W        W97448   7.859  42.881   4.646
38155W        W97449  22.572  44.289  10.511
38156W        W97450  28.052  33.992   1.815
38157W        W97451  25.189   2.405   4.262
38158W        W97452  12.150  19.752  13.412
38159W        W97453  40.415   5.895   3.147
38160W        W97454  36.455   3.408  10.408
38161W        W97455   6.281  37.967   4.817
38162W        W97456  35.428  16.294   3.835
38163W        W97457   8.367   5.424   4.726
38164W        W97458  17.102   5.411  14.350
38165W        W97459   5.244  26.671   1.752
38166W        W97460  44.846  11.255  13.509
38167W        W97461  34.042   0.832  11.557
38168W        W97462  37.539  12.640  10.025
38169W        W97463  44.943   7.714  12.843
38170W        W97464  34.082   3.878   4.706
38171W        W97465  14.163  24.040  12.923
38172W        W97466  33.617  12.650  10.442
38173W        W97467  26.113  36.043  12.572
38174W        W97468  22.223  15.786   2.326
38175W        W97469  23.598  35.864   4.740
38176W        W97470   7.768  37.910  12.464
38177W        W97471  10.187  40.845  12.456
38178W        W97472  36.529  36.497   2.342
38179W        W97473  24.181  39.320  11.011
38180W        W97474  30.045  42.443   0.953
38181W        W97475  16.597   2.738   0.294
38182W        W97476  26.531  44.816   2.179
38183W        W97477  16.810  35.911   0.464
38184W        W97478  39.370  17.219  12.567
38185W        W97479  17.247  30.503   4.342
38186W        W97480  37.396  34.997   1.385
38187W        W97481  41.507  19.202   1.773
38188W        W97482  13.198   9.202  14.447
38189W        W97483  12.275  36.855   4.119
38190W        W97484  24.136  12.337  13.911
38191W        W97485  11.149  15.231   1.260
38192W        W97486   2.361  13.258   4.161
38193W        W97487  38.378  36.077   2.809
38194W        W97488  28.015  40.877   3.244
38195W        W97489   2.846  14.681  10.436
38196W        W97490  44.322   7.247   1.223
38197W        W97491  26.034  12.338  11.083
38198W        W97492  16.655   9.154   0.785
38199W        W97493   2.284   7.405  14.338
38200W        W97494  16.650   3.347   1.787
38201W        W97495  29.467  13.222   5.187
38202W        W97496   3.446  35.866   4.265
38203W        W97497  35.019  20.168  14.343
38204W        W97498  39.934  16.244  13.956
38205W        W97499  30.102  10.654   0.316
38206W        W97500  12.343  30.133   4.292
38207W        W97501  44.923  42.405   2.394
38208W        W97502  25.525   3.258  14.303
38209W        W97503  21.035  12.709  10.124
38210W        W97504   1.943  14.221   2.415
38211W        W97505  38.443  40.880  14.883
38212W        W97506  33.015  27.011   1.223
38213W        W97507  26.128  29.958   1.899
38214W        W97508   9.856  14.192   4.631
38215W        W97509  34.997  19.635  12.485
38216W        W97510  25.980  38.537  12.073
38217W        W97511  23.620  34.535  12.436
38218W        W97512   4.742  29.154  12.096
38219W        W97513  39.439  13.825   0.902
38220W        W97514  19.225  31.081   1.902
38221W        W97515  41.334   3.936   1.214
38222W        W97516  13.163  14.787  12.561
38223W        W97517  30.162  13.282   4.196
38224W        W97518  29.098   7.268  14.393
38225W        W97519  42.808  12.612   4.329
38226W        W97520  44.477  23.036   2.269
38227W        W97521  16.273   3.252   3.821
38228W        W97522  18.715  34.497  10.960
38229W        W97523  23.072   5.376   2.897
38230W        W97524  43.402  31.994   2.419
38231W        W97525  25.468   6.408   0.262
38232W        W97526  15.092  43.901   1.218
38233W        W97527  18.286  15.741   1.891
38234W        W97528  38.074  33.943   2.690
38235W        W97529  30.950  24.087  10.483
38236W        W97530  16.310  31.551   3.738
38237W        W97531  43.298  25.704   1.303
38238W        W97532  35.595   3.890   2.802
38239W        W97533  14.150  32.002  13.417
38240W        W97534  10.170  14.180   1.448
38241W        W97535  41.450   6.817  11.451
38242W        W97536  44.838  18.686  11.944
38243W        W97537  24.610  41.453   4.175
38244W        W97538   6.790  20.030   1.311
38245W        W97539  30.637  21.181   4.245
38246W        W97540  15.599  43.845  14.329
38247W        W97541   2.348   1.962   0.884
38248W        W97542  29.634  11.796  13.889
38249W        W97543  29.485  44.781   0.331
38250W        W97544   5.300  15.734   2.190
38251W        W97545  36.569  30.425   1.919
38252W        W97546  16.640  26.012   0.832
38253W        W97547  38.867  27.607  11.973
38254W        W97548  17.220   6.334   4.160
38255W        W97549  12.182  16.237   4.234
38256W        W97550   6.292  37.858  12.955
38257W        W97551   6.221   9.773   2.183
38258W        W97552  14.636   6.798   3.382
38259W        W97553  33.980  43.857  12.527
38260W        W97554  36.951   6.338  12.836
38261W        W97555  11.240   8.717   3.269
38262W        W97556  11.782  22.038   1.348
38263W        W97557  33.605  26.487   1.747
38264W        W97558  29.939  29.443   1.395
38265W        W97559  26.665  20.609   3.795
38266W        W97560  12.271  22.730  13.384
38267W        W97561  36.366   4.224  13.031
38268W        W97562  26.485  42.404  12.374
38269W        W97563  25.029  26.004  13.983
38270W        W97564  44.770  23.224  11.440
38271W        W97565  14.727   6.351   3.228
38272W        W97566  12.267  35.031  14.487
38273W        W97567   5.294  18.094   1.305
38274W        W97568  16.793  44.313   1.366
38275W        W97569  26.599  36.523   0.272
38276W        W97570   3.948  30.417  10.583
38277W        W97571  17.643  22.016   1.238
38278W        W97572  32.893  36.435  14.877
38279W        W97573   0.971   6.890   3.265
38280W        W97574  10.646  28.508   0.957
38281W        W97575  20.732  19.572  11.511
38282W        W97576  42.827  27.586  13.816
38283W        W97577  39.510  18.261   1.898
38284W        W97578  19.262  32.098   0.251
38285W        W97579   2.258  18.141   4.168
38286W        W97580  28.079  11.818   5.226
38287W        W97581  29.142  39.396  12.958
38288W        W97582  34.096  21.515  14.390
38289W        W97583  43.006  42.425   2.889
38290W        W97584  16.136  28.515  11.505
38291W        W97585  20.032  26.489  14.815
38292W        W97586  20.147   8.195  12.565
38293W        W97587  25.694  31.972  11.881
38294W        W97588  41.016  27.145  13.509
38295W        W97589  42.895  32.909   3.704
38296W        W97590   1.319   1.317   1.728
38297W        W97591   3.293  22.083   9.607
38298W        W97592  25.207  21.060   0.738
38299W        W97593  30.584  12.814   0.360
38300W        W97594  40.522   1.346  14.792
38301W        W97595  31.955  19.539   2.238
38302W        W97596  11.265  16.133  12.414
38303W        W97597  37.848  37.549   1.211
38304W        W97598  18.098  30.542   4.603
38305W        W97599   3.819   2.801  12.883
38306W        W97600  21.534  37.841   1.750
38307W        W97601  15.148  41.389  14.963
38308W        W97602  41.435  16.304  14.862
38309W        W97603   6.724  15.100  11.400
38310W        W97604  34.434  43.010  11.430
38311W        W97605  18.293   7.784   4.251
38312W        W97606  12.231   7.783  10.635
38313W        W97607  43.322  17.124   4.727
38314W        W97608  15.652  14.652   0.778
38315W        W97609  19.177  37.559   2.209
38316W        W97610  28.133  14.108  12.343
38317W        W97611  40.982  37.347   0.904
38318W        W97612  20.072  17.112  12.401
38319W        W97613  25.703  15.669  11.859
38320W        W97614  14.303  16.734  11.952
38321W        W97615  24.677  20.582  13.809
38322W        W97616  10.715  25.712  13.948
38323W        W97617  25.039   3.371  11.889
38324W        W97618  35.994  26.081  13.463
38325W        W97619  30.520  30.515   4.171
38326W        W97620  39.353  35.580   2.862
38327W        W97621  10.786  39.973   1.783
38328W        W97622  23.219   9.655   2.218
38329W        W97623   6.879  12.190  10.605
38330W        W97624  11.686  13.169  12.070
38331W        W97625  11.286   1.795   3.657
38332W        W97626   8.228  43.334   4.166
38333W        W97627   4.256  38.854  14.487
38334W        W97628   3.411   7.818   1.227
38335W        W97629  43.476  20.233   2.801
38336W        W97630  38.982  12.223  10.928
38337W        W97631  29.919  37.913  12.850
38338W        W97632  30.019  40.302  11.924
38339W        W97633  33.929  16.189  11.043
38340W        W97634  39.378  27.653  14.779
38341W        W97635  14.722  43.488  10.541
38342W        W97636  42.912  17.225  12.411
38343W        W97637  38.916  16.583  10.002
38344W        W97638  21.519  25.980   2.331
38345W        W97639  26.643  39.382   3.757
38346W        W97640   0.329   5.252  13.412
38347W        W97641  23.553  34.957   1.825
38348W        W97642   2.952  20.537   4.677
38349W        W97643  25.215  12.778  10.546
38350W        W97644  44.877  40.831  14.408
38351W        W97645  12.837   5.218   4.638
38352W        W97646   0.986  31.106   3.229
38353W        W97647  14.178  36.967  14.381
38354W        W97648   8.167  30.587   1.889
38355W        W97649  37.011  33.397   0.439
38356W        W97650  33.436  38.503  11.382
38357W        W97651  28.130   4.820  12.545
38358W        W97652  20.651  10.719   2.274
38359W        W97653   0.906   9.353   2.229
38360W        W97654   9.873  36.588   1.243
38361W        W97655  22.522  18.573  11.471
38362W        W97656   7.739  23.565   0.853
38363W        W97657   7.730  12.121   1.766
38364W        W97658  18.064  18.256   4.255
38365W        W97659  26.472  26.088   0.283
38366W        W97660  32.085  18.574   5.288
38367W        W97661  20.731  20.730  13.335
38368W        W97662  29.460   3.790   0.807
38369W        W97663   7.209  25.011   5.122
38370W        W97664  13.342  29.669  11.920
38371W        W97665  43.495  35.991  14.497
38372W        W97666   2.824  44.919   1.920
38373W        W97667   4.734  31.048   2.336
38374W        W97668  23.006  22.177  11.394
38375W        W97669  26.202   2.909   0.286
38376W        W97670  19.598   2.401   0.759
38377W        W97671   9.821  26.609  11.513
38378W        W97672  43.465  18.607   3.199
38379W        W97673  14.109  19.065  13.888
38380W        W97674   3.848  25.039  12.830
38381W        W97675  10.820  13.187  14.451
38382W        W97676  36.881  14.179   2.403
38383W        W97677  44.973  26.550   2.726
38384W        W97678   9.185  13.141   1.441
38385W        W97679  17.123  23.238   0.256
38386W        W97680   5.324   1.330  11.584
38387W        W97681   2.344  17.116   3.823
38388W        W97682  24.101  10.141  10.937
38389W        W97683  28.167  26.541  11.932
38390W        W97684   7.877  32.521  14.842
38391W        W97685  27.684   3.775  13.937
38392W        W97686  37.065   0.459  14.846
38393W        W97687  44.865  40.395   3.370
38394W        W97688  32.635  24.116  14.866
38395W        W97689  37.384   3.751  12.945
38396W        W97690  23.655  28.974  11.985
38397W        W97691   4.863   0.899  10.535
38398W        W97692  29.546  20.189   0.357
38399W        W97693   3.263   3.350   3.262
38400W        W97694  34.512  38.337  12.549
38401W        W97695   9.793   4.335  12.559
38402W        W97696  40.504  16.631  13.487
38403W        W97697  27.013  36.461  12.887
38404W        W97698  10.158  30.933   3.256
38405W        W97699  32.110  20.072  12.352
38406W        W97700  27.032  40.808  11.466
38407W        W97701  43.934   4.842   2.886
38408W        W97702   5.260   8.842   2.280
38409W        W97703  20.149  44.357  10.921
38410W        W97704   3.820   2.243  12.043
38411W        W97705  16.623  36.399  13.954
38412W        W97706  13.266  37.495  11.398
38413W        W97707   6.685  28.152  12.072
38414W        W97708  34.444  25.148  10.943
38415W        W97709  23.697   3.281   1.434
38416W        W97710  34.460   1.412   3.228
38417W        W97711   3.864  27.674  10.953
38418W        W97712   8.187   1.466   2.219
38419W        W97713  31.989  41.401  11.012
38420W        W97714   4.874  38.865   2.887
38421W        W97715  25.138  14.781   4.814
38422W        W97716  41.501  13.608   0.303
38423W        W97717  15.141   0.377   3.722
38424W        W97718  20.187  22.588  10.435
38425W        W97719  27.107  27.193   3.148
38426W        W97720  20.660   3.775   2.849
38427W        W97721  35.405  33.073   3.738
38428W        W97722  43.894  23.637  10.487
38429W        W97723  14.112   7.325   1.897
38430W        W97724  30.565  30.028  13.794
38431W        W97725  30.596   1.916   0.812
38432W        W97726   9.328   8.667   2.316
38433W        W97727  28.584  24.048   2.785
38434W        W97728  41.012  11.128  11.374
38435W        W97729  44.275   5.413  14.918
38436W        W97730  33.547  44.910   3.649
38437W        W97731  10.282  41.826   1.409
38438W        W97732  13.249  11.246  10.897
38439W        W97733   9.241  25.990   1.708
38440W        W97734   5.377  24.520   4.660
38441W        W97735   8.217   2.761   1.250
38442W        W97736   7.878  24.173  10.146
38443W        W97737   9.815  32.924   5.295
38444W        W97738  28.492  18.234  11.095
38445W        W97739  12.707  24.156   3.307
38446W        W97740  39.979  19.281   1.278
38447W        W97741  43.388  15.688  11.979
38448W        W97742  21.549   2.301  14.893
38449W        W97743   7.234  28.104  12.986
38450W        W97744  38.937  13.773  12.537
38451W        W97745  20.186  40.549  11.948
38452W        W97746  32.001  37.566   2.676
38453W        W97747   9.220  34.532  10.461
38454W        W97748  32.134  16.085  11.491
38455W        W97749  27.190  43.862  10.627
38456W        W97750   7.795  38.947  13.957
38457W        W97751  27.674  35.553   4.226
38458W        W97752  39.895  11.159  14.482
38459W        W97753  39.919  21.139   3.386
38460W        W97754  15.780  18.281  11.427
38461W        W97755  40.969  41.329  13.380
38462W        W97756  21.664  30.949  13.497
38463W        W97757   4.393  42.392   2.225
38464W        W97758  10.326  29.994   0.957
38465W        W97759  16.695  31.448  10.953
38466W        W97760  22.538   5.909  14.452
38467W        W97761  24.009  17.110   5.285
38468W        W97762  13.698  35.576   1.231
38469W        W97763  39.915  22.646   2.252
38470W        W97764  14.164  18.705  10.906
38471W        W97765  12.669   8.225  10.978
38472W        W97766   8.366  35.073  13.898
38473W        W97767  25.033  30.641  13.431
38474W        W97768   6.853   3.860   0.801
38475W        W97769   4.785  20.528   0.321
38476W        W97770  38.852   8.877  14.414
38477W        W97771   9.203  30.972   0.413
38478W        W97772  14.325  34.057  12.071
38479W        W97773   4.727  29.614   3.297
38480W        W97774   3.431  29.428   1.830
38481W        W97775   3.899  37.413  12.539
38482W        W97776   0.441  39.982  14.922
38483W        W97777  29.510  36.433  10.590
38484W        W97778   8.719  25.669   1.920
38485W        W97779  34.446   5.747   1.905
38486W        W97780  18.645   9.187  14.780
38487W        W97781  31.106   2.360  10.574
38488W        W97782   5.705  18.203  11.487
38489W        W97783  36.093  10.205  11.440
38490W        W97784  12.148  14.283  14.414
38491W        W97785  20.237  28.038  13.413
38492W        W97786  44.862   9.761   0.950
38493W        W97787   4.791  30.938  14.401
38494W        W97788   5.900  15.109  14.376
38495W        W97789   2.933  20.640  11.589
38496W        W97790  27.619  36.918  13.507
38497W        W97791  36.399  41.955   1.447
38498W        W97792  12.296   9.761   2.186
38499W        W97793  36.934  14.609  14.357
38500W        W97794   4.817  27.977  11.112
38501W        W97795   9.779  31.927   1.866
38502W        W97796  15.328  38.030  12.409
38503W        W97797  37.842  21.111   4.236
38504W        W97798  29.161  18.555   0.479
38505W        W97799  18.700  40.504  12.048
38506W        W97800  20.625  44.923   3.305
38507W        W97801  19.107  43.317   3.690
38508W        W97802  22.170  43.826   4.319
38509W        W97803  37.567   3.911   0.875
38510W        W97804   3.394  15.120   3.764
38511W        W97805   0.846  38.460   4.298
38512W        W97806  26.987  33.095   4.311
38513W        W97807  24.527  36.859   4.190
38514W        W97808  44.436  41.864   0.382
38515W        W97809  21.243   5.211  14.476
38516W        W97810  31.558  21.225  13.846
38517W        W97811  31.920  29.516   4.613
38518W        W97812  39.934  37.008   4.244
38519W        W97813  26.090  32.005  14.940
38520W        W97814  27.998  13.700   4.183
38521W        W97815   4.706  43.897   3.814
38522W        W97816  18.144   8.834   3.326
38523W        W97817  41.807  26.620  10.562
38524W        W97818  17.098  29.534  12.566
38525W        W97819  27.145  37.421   1.280
38526W        W97820  20.674  12.199   0.330
38527W        W97821   6.366   9.270   0.769
38528W        W97822  12.773  12.723   1.304
38529W        W97823  26.180  32.983  10.593
38530W        W97824  36.044  24.989  12.972
38531W        W97825  43.858  23.174  11.054
38532W        W97826  44.781  42.339   3.708
38533W        W97827  21.645  20.254  11.492
38534W        W97828  38.821  12.776   4.796
38535W        W97829  23.662  19.727   4.754
38536W        W97830  15.788  39.469  14.994
38537W        W97831  13.635  26.197   2.777
38538W        W97832   8.806  10.644   3.326
38539W        W97833  29.937  33.586  13.888
38540W        W97834  13.283   9.859  13.477
38541W        W97835  19.198  34.460   4.665
38542W        W97836  13.128   7.810  10.451
38543W        W97837  31.485   3.443   2.839
38544W        W97838  18.184  43.780  10.463
38545W        W97839  42.321  36.985  12.970
38546W        W97840  16.706  19.114   2.804
38547W        W97841  29.539  29.568  11.979
38548W        W97842  24.547   8.705   0.455
38549W        W97843  13.615  25.083   1.257
38550W        W97844  10.259  28.156  12.847
38551W        W97845  42.496  32.634   4.140
38552W        W97846  11.780  44.301  14.951
38553W        W97847  12.294   5.256  13.993
38554W        W97848  28.038   7.213   3.271
38555W        W97849  12.662  29.464   1.326
38556W        W97850  32.499  43.511  13.366
38557W        W97851   0.937  27.631   4.682
38558W        W97852  34.384   7.335   3.183
38559W        W97853  23.625  12.151  12.427
38560W        W97854  24.698  40.883   1.889
38561W        W97855  17.766   7.701  12.577
38562W        W97856  20.211   4.408  11.492
38563W        W97857  31.410  29.018   4.183
38564W        W97858  26.002  42.795  13.351
38565W        W97859  25.591  38.016  11.526
38566W        W97860  27.183   5.888   3.325
38567W        W97861  44.758  40.360  10.475
38568W        W97862  10.736  29.107   1.253
38569W        W97863  24.035  30.962  13.372
38570W        W97864  28.617  16.298  12.553
38571W        W97865  27.563  44.324   2.316
38572W        W97866  42.453  21.646   4.187
38573W        W97867  41.892  40.389   0.332
38574W        W97868  10.877  38.895  12.444
38575W        W97869  38.570   8.707  10.919
38576W        W97870  28.002  25.473  12.089
38577W        W97871  13.843  21.108   3.711
38578W        W97872  39.818  38.832   0.276
38579W        W97873   2.278  17.138   0.388
38580W        W97874   0.839  33.930   0.324
38581W        W97875   0.959  36.571  13.947
38582W        W97876  37.944  34.002   3.831
38583W        W97877   9.712  25.067   2.204
38584W        W97878  21.554  19.163   2.193
38585W        W97879   8.792  14.670  13.457
38586W        W97880  29.587  26.622   3.835
38587W        W97881  31.501  19.209  12.553
38588W        W97882  19.230  43.373   0.945
38589W        W97883   7.301  32.532  11.426
38590W        W97884  15.314  26.586  11.372
38591W        W97885   0.899  29.947   0.440
38592W        W97886  14.332  29.456  10.475
38593W        W97887   7.783   1.300   9.617
38594W        W97888  17.156  19.152  12.555
38595W        W97889  12.260  19.152   4.818
38596W        W97890  43.315  37.020  14.409
38597W        W97891   7.800   8.743  12.859
38598W        W97892  10.270  30.012   1.722
38599W        W97893  43.301  33.529  11.007
38600W        W97894  36.922  35.397  12.447
38601W        W97895  31.037  33.087  11.033
38602W        W97896  10.297  38.995  13.923
38603W        W97897  21.753   4.810  14.992
38604W        W97898   4.387  31.104  10.634
38605W        W97899  17.150  40.874   4.191
38606W        W97900  44.371  35.462   4.683
38607W        W97901  25.544  21.170  11.397
38608W        W97902   8.247  15.795   0.433
38609W        W97903  18.583  37.339  12.928
38610W        W97904   8.334  29.020   3.837
38611W        W97905  23.638  19.260   4.639
38612W        W97906  14.247   3.823   3.670
38613W        W97907  34.548  37.932   2.306
38614W        W97908  24.105  24.001  12.495
38615W        W97909   4.886  28.143   4.695
38616W        W97910   6.801   5.817  13.487
38617W        W97911  10.293  30.545  12.408
38618W        W97912   1.922  43.765   9.654
38619W        W97913  20.231  30.448   0.826
38620W        W97914  18.115  14.833  12.495
38621W        W97915  29.133  37.028   4.763
38622W        W97916  25.657   1.343   0.862
38623W        W97917  12.681  29.937   0.778
38624W        W97918  30.493  23.699   4.348
38625W        W97919  10.250  23.241   1.760
38626W        W97920  19.609  33.381  10.968
38627W        W97921   8.375  32.552  11.068
38628W        W97922  33.484  33.082   0.416
38629W        W97923  23.495  29.535   0.755
38630W        W97924  27.513  35.506   1.765
38631W        W97925  26.102  25.064   0.292
38632W        W97926  34.490   5.890   0.809
38633W        W97927  19.081  21.524   4.824
38634W        W97928  39.469  15.139  11.969
38635W        W97929  13.166  15.767   3.700
38636W        W97930   8.830  23.149  11.405
38637W        W97931  25.694  39.416   2.819
38638W        W97932  32.980  16.795  10.948
38639W        W97933   1.870  36.494  10.485
38640W        W97934  33.038  35.975   3.247
38641W        W97935  10.266  28.029   2.672
38642W        W97936  14.132  18.620  13.852
38643W        W97937  25.684  32.408   4.138
38644W        W97938  34.014  36.469   0.307
38645W        W97939   6.248  14.764   4.127
38646W        W97940   9.726  20.695  10.628
38647W        W97941  10.873  34.583  13.346
38648W        W97942   5.198  39.414  11.878
38649W        W97943   6.205  19.214   1.814
38650W        W97944  16.137  34.926   2.743
38651W        W97945  21.028  44.868  12.512
38652W        W97946  27.539  24.037   2.387
38653W        W97947  32.072  18.598   1.330
38654W        W97948  32.988  28.995  11.976
38655W        W97949  29.618  44.971  13.355
38656W        W97950  27.956  33.568  13.421
38657W        W97951  42.907   3.239  14.515
38658W        W97952  25.193   9.231  10.026
38659W        W97953  22.568   8.694  14.333
38660W        W97954   9.352   7.733   3.266
38661W        W97955   9.243  11.797   0.256
38662W        W97956  25.026   2.804  11.054
38663W        W97957   5.802  30.496  11.444
38664W        W97958  20.534  19.773  12.360
38665W        W97959   9.665  32.101  13.507
38666W        W97960  44.314   4.809  14.835
38667W        W97961  32.990   3.718   0.869
38668W        W97962  29.522  25.559   1.754
38669W        W97963  24.172   5.861   0.359
38670W        W97964  43.829   3.343  10.581
38671W        W97965  43.003  43.516  13.020
38672W        W97966  10.677  22.732   4.134
38673W        W97967   8.357  19.129   1.409
38674W        W97968  27.445  28.656  12.575
38675W        W97969   6.391  40.420   4.672
38676W        W97970  26.697  34.066   0.294
38677W        W97971  19.740  25.497  11.117
38678W        W97972  12.284  38.517  11.503
38679W        W97973  31.015   2.927  10.481
38680W        W97974   5.749   1.342   9.970
38681W        W97975  34.445  26.571  13.410
38682W        W97976   6.244  32.501  11.609
38683W        W97977   3.836  17.149  14.898
38684W        W97978  15.112  43.857   2.349
38685W        W97979  24.977  42.901   2.774
38686W        W97980  39.942  10.371   0.264
38687W        W97981   4.860   0.785  13.844
38688W        W97982   7.285   5.210  12.345
38689W        W97983  17.134  26.701  10.490
38690W        W97984   1.851  13.264   3.237
38691W        W97985  16.751  13.721   3.326
38692W        W97986   8.229  28.550  11.051
38693W        W97987  28.178  24.644  13.463
38694W        W97988  32.119  26.027   4.165
38695W        W97989  41.295  17.692   1.399
38696W        W97990  16.707  11.148   3.765
38697W        W97991  29.577  35.454  14.904
38698W        W97992   1.318  10.203   4.217
38699W        W97993   0.408  44.778  11.533
38700W        W97994  14.715  11.365  13.330
38701W        W97995  25.971  36.554  10.497
38702W        W97996  33.963  28.935  13.013
38703W        W97997  39.907  33.613   1.761
38704W        W97998  37.574  39.839   0.798
38705W        W97999  44.364  35.075   4.135
38706W        W98000  30.985  14.206  11.531
38707W        W98001   3.766  38.969   0.857
38708W        W98002   9.265  36.946  12.933
38709W        W98003  35.587  42.911   3.154
38710W        W98004  10.688  40.988  14.504
38711W        W98005   0.838  15.788   3.368
38712W        W98006  43.359  39.817  14.490
38713W        W98007  20.589  31.429   2.387
38714W        W98008   0.849  40.961   0.739
38715W        W98009  38.403  32.006  13.010
38716W        W98010  12.300  22.649  14.940
38717W        W98011  15.105  34.025  11.471
38718W        W98012  34.993  39.063  10.108
38719W        W98013  44.889  40.544  12.350
38720W        W98014  17.707  44.779   1.699
38721W        W98015  18.712  10.284  14.781
38722W        W98016  24.542  22.194   3.303
38723W        W98017  29.445  23.719  11.081
38724W        W98018  34.882  13.114   2.266
38725W        W98019  28.559  12.213   3.221
38726W        W98020  28.105  36.580  13.440
38727W        W98021  15.183  12.322  14.768
38728W        W98022  38.068  43.412   1.229
38729W        W98023  41.881  27.464  13.989
38730W        W98024   7.343  16.640  10.477
38731W        W98025  14.321   8.810  13.308
38732W        W98026  44.486   1.369  10.417
38733W        W98027  36.093  28.019  14.830
38734W        W98028  18.212  32.897   2.718
38735W        W98029  32.057  26.114   3.355
38736W        W98030  17.287  35.958  12.049
38737W        W98031  35.437  18.194   0.942
38738W        W98032  35.009  22.621  13.042
38739W        W98033  18.744  14.597   0.426
38740W        W98034  10.369  44.306  13.541
38741W        W98035   9.346   2.756   1.742
38742W        W98036  41.473  16.074   1.384
38743W        W98037  37.990   6.797   2.262
38744W        W98038  22.086  20.132   2.384
38745W        W98039  35.596  13.292   2.754
38746W        W98040  15.277  24.139   2.269
38747W        W98041  28.599   6.367   0.908
38748W        W98042   9.363  15.598   4.784
38749W        W98043  11.784  39.019   4.750
38750W        W98044  24.049  23.719  12.427
38751W        W98045  17.636  20.583   0.893
38752W        W98046   1.442  10.697  12.492
38753W        W98047  27.957  41.319   4.326
38754W        W98048  22.190  19.632   1.335
38755W        W98049  38.067  14.686   3.299
38756W        W98050  36.541  14.764   0.279
38757W        W98051  43.818  19.219  13.395
38758W        W98052  13.803  38.516   0.437
38759W        W98053  42.876   5.851   3.826
38760W        W98054   8.669  14.123   3.818
38761W        W98055  44.757  38.968  10.461
38762W        W98056  14.704  40.421  12.365
38763W        W98057   1.292  19.180  13.821
38764W        W98058  35.936  24.009   3.252
38765W        W98059  33.473  23.116  10.552
38766W        W98060  30.414   3.247  11.984
38767W        W98061  16.312  22.031   0.377
38768W        W98062  12.156  31.556  13.486
38769W        W98063   5.848  35.070  14.964
38770W        W98064  11.641  16.729   1.446
38771W        W98065  32.557  31.050  12.075
38772W        W98066  22.145  28.967   1.769
38773W        W98067  30.973  37.525   1.427
38774W        W98068   0.354  31.903  14.869
38775W        W98069   5.411   9.250   2.312
38776W        W98070  38.395  37.468  10.982
38777W        W98071  35.382  15.577   2.853
38778W        W98072  39.870   6.330   2.676
38779W        W98073  44.909   0.810  14.834
38780W        W98074   8.327  14.815   0.315
38781W        W98075  16.608  24.071  10.421
38782W        W98076  23.719   2.441   4.134
38783W        W98077  30.918  43.927  11.097
38784W        W98078  27.159  41.031  12.536
38785W        W98079  12.712  25.968   1.807
38786W        W98080  14.656  19.154   1.305
38787W        W98081  19.262  37.463   1.432
38788W        W98082   7.368  33.443   4.801
38789W        W98083  23.691  42.420  13.827
38790W        W98084  43.318  20.132  13.864
38791W        W98085   6.309  23.174  11.011
38792W        W98086  43.973  17.660   1.314
38793W        W98087  24.526  22.128  12.437
38794W        W98088  36.355  29.542  13.312
38795W        W98089  22.045  43.439  11.584
38796W        W98090  37.986  30.089  12.900
38797W        W98091  35.575  30.964   1.299
38798W        W98092   9.352  26.041  13.794
38799W        W98093   7.195  31.635   2.188
38800W        W98094  39.877  34.466  12.388
38801W        W98095   3.731  16.802   0.960
38802W        W98096  21.634  10.343  14.382
38803W        W98097  35.475  21.028  11.458
38804W        W98098   6.349  30.565  11.877
38805W        W98099   7.863  11.734  13.917
38806W        W98100   3.853  23.498   0.329
38807W        W98101  38.443  13.737   2.666
38808W        W98102  18.739  26.990   2.702
38809W        W98103  39.421  33.900  14.475
38810W        W98104   4.867  12.178  14.907
38811W        W98105  14.726   0.761  14.291
38812W        W98106  19.126  28.633  11.022
38813W        W98107  39.894  29.654  13.440
38814W        W98108  10.668  14.226   4.312
38815W        W98109  17.646   3.371  10.573
38816W        W98110   7.198  21.231  12.928
38817W        W98111  26.962  25.522  12.570
38818W        W98112   5.326  39.879   0.390
38819W        W98113  27.523  34.577  13.862
38820W        W98114  28.630  27.009   4.793
38821W        W98115  24.182  10.754  10.533
38822W        W98116   2.900  39.043   3.702
38823W        W98117  23.494  21.565   2.869
38824W        W98118   0.364   4.782  13.439
38825W        W98119   2.352  23.175  12.382
38826W        W98120   7.847   8.237  10.937
38827W        W98121  39.915  43.873  13.309
38828W        W98122   5.782  15.322   2.845
38829W        W98123  35.401  16.749   0.892
38830W        W98124  40.828  38.332  12.575
38831W        W98125   1.778  41.822   1.747
38832W        W98126   0.424  31.576  13.998
38833W        W98127  44.811  21.692   4.618
38834W        W98128   1.802  32.135  11.082
38835W        W98129   9.330  25.681   1.772
38836W        W98130  10.349  13.751  10.407
38837W        W98131   5.252  11.265  12.843
38838W        W98132  44.269  26.602  12.537
38839W        W98133  22.623  14.191  14.329
38840W        W98134  32.135  40.918  13.885
38841W        W98135   6.861  19.616  11.023
38842W        W98136  36.971  41.329  12.934
38843W        W98137   2.945  39.909   4.635
38844W        W98138   6.830   8.891  11.511
38845W        W98139  28.439  39.397  12.342
38846W        W98140  44.289   7.208  12.427
38847W        W98141   8.680  34.426  10.119
38848W        W98142  19.693  37.453   5.093
38849W        W98143   4.363   8.658  13.913
38850W        W98144  35.476  11.367  14.329
38851W        W98145  40.807  22.735   2.238
38852W        W98146   3.829  26.608   3.175
38853W        W98147  27.020  15.293  13.045
38854W        W98148  28.674  13.750   2.805
38855W        W98149  15.310  20.697  13.812
38856W        W98150  15.131  20.160  13.916
38857W        W98151  19.572  36.382  12.038
38858W        W98152  27.140  39.932  11.982
38859W        W98153  16.215  41.926  11.459
38860W        W98154  15.620   4.322   0.815
38861W        W98155   0.298  21.095   4.721
38862W        W98156   3.239   5.727   0.797
38863W        W98157  11.825   2.333   3.275
38864W        W98158  27.079  23.598   2.835
38865W        W98159  35.933  36.874   2.316
38866W        W98160  44.297  22.741   1.710
38867W        W98161  42.321  11.218   4.328
38868W        W98162   7.326  15.105  11.024
38869W        W98163  26.564   6.238   0.270
38870W        W98164  36.061  28.574  12.922
38871W        W98165  10.276  44.949  14.895
38872W        W98166   7.821  43.005   2.182
38873W        W98167  12.289   5.843   3.711
38874W        W98168   9.704  22.510  13.391
38875W        W98169  11.852  37.500   3.275
38876W        W98170  29.536  44.431   4.643
38877W        W98171   9.256  25.594   3.786
38878W        W98172  36.853  17.090   3.778
38879W        W98173  30.464   2.864  12.868
38880W        W98174   3.915  34.602   4.222
38881W        W98175  27.690  43.924  10.555
38882W        W98176  23.028  16.635   2.337
38883W        W98177  34.915   5.889   4.262
38884W        W98178  30.605  19.107   0.378
38885W        W98179   1.328  37.895   4.803
38886W        W98180  42.836  30.095   0.336
38887W        W98181  41.366  44.888  12.932
38888W        W98182  27.057  21.624  14.484
38889W        W98183  43.829  16.713  14.768
38890W        W98184  35.910   4.242   0.320
38891W        W98185  32.467  16.615  10.456
38892W        W98186  10.843  41.439   3.225
38893W        W98187  38.478   8.312   1.304
38894W        W98188  19.544  33.117   1.420
38895W        W98189   9.208  28.454   3.667
38896W        W98190   0.822   7.780   3.199
38897W        W98191  20.173  17.247  12.038
38898W        W98192  26.993   2.384  13.808
38899W        W98193  16.782   8.803   2.275
38900W        W98194  39.941  20.574  11.387
38901W        W98195   2.950  21.644   0.834
38902W        W98196  23.538  40.922   4.605
38903W        W98197  10.254  44.820  14.009
38904W        W98198  31.973   8.172  12.539
38905W        W98199   2.339  29.007  10.914
38906W        W98200  22.628  20.665  11.869
38907W        W98201  19.708   8.700  11.856
38908W        W98202  42.297   7.741  11.461
38909W        W98203   8.393  20.686   3.830
38910W        W98204   0.910  23.179  13.900
38911W        W98205   1.931   3.716  13.939
38912W        W98206  38.986  16.073  11.105
38913W        W98207  10.359  11.626  11.927
38914W        W98208   7.724   5.367   3.748
38915W        W98209  16.136  40.477   2.826
38916W        W98210  25.962   5.360   2.326
38917W        W98211  18.078  25.571   4.601
38918W        W98212   2.839  17.745   3.322
38919W        W98213  42.855  41.474  14.499
38920W        W98214   5.306  24.710   3.208
38921W        W98215  35.884  40.341  10.473
38922W        W98216  14.607  14.299   0.863
38923W        W98217  36.379  13.217  12.376
38924W        W98218  35.489  38.979   0.300
38925W        W98219  25.558  17.685   1.260
38926W        W98220  12.843   5.367   3.731
38927W        W98221  40.826  30.581  10.538
38928W        W98222  28.609   7.399   1.293
38929W        W98223  21.595   3.861   3.771
38930W        W98224   0.943  13.324  13.895
38931W        W98225  44.881  44.389   2.804
38932W        W98226  35.407  13.688   1.281
38933W        W98227  25.119  31.455   2.243
38934W        W98228  34.591  19.124  12.056
38935W        W98229  19.674  29.434   1.246
38936W        W98230  26.970   2.833   0.798
38937W        W98231  26.002   7.891   3.689
38938W        W98232  29.162  13.651   0.392
38939W        W98233  25.096  25.663  11.468
38940W        W98234   3.865  43.420  14.930
38941W        W98235  18.685   9.730   5.231
38942W        W98236   0.815  19.170  10.534
38943W        W98237  44.776  32.082  11.860
38944W        W98238  21.511  22.106  10.493
38945W        W98239  30.463  29.003  14.031
38946W        W98240  10.323  42.494   2.401
38947W        W98241  24.648   1.851   4.627
38948W        W98242  21.198  32.594  11.529
38949W        W98243  38.507   5.691  13.011
38950W        W98244  31.502  31.519  14.921
38951W        W98245   4.751   1.966   1.847
38952W        W98246  18.183  41.926   3.749
38953W        W98247  36.990  12.629  12.858
38954W        W98248  16.726   2.879   3.231
38955W        W98249  15.083  26.189  12.435
38956W        W98250   0.915  30.464  13.973
38957W        W98251  28.125  37.976   4.178
38958W        W98252   1.751  30.652   1.769
38959W        W98253  18.644  15.607  12.058
38960W        W98254   2.728  22.598  11.424
38961W        W98255  38.829  32.558   1.812
38962W        W98256  18.653   6.842  14.453
38963W        W98257  28.092   8.783  13.818
38964W        W98258  28.569  27.600  13.465
38965W        W98259   2.442  37.867   2.365
38966W        W98260   4.294  38.566  14.472
38967W        W98261  12.781  44.260  13.954
38968W        W98262  32.522  29.431  11.568
38969W        W98263  10.187  22.675   4.175
38970W        W98264  43.500   5.716  10.528
38971W        W98265   2.260  42.374  13.039
38972W        W98266  28.494   6.765   0.479
38973W        W98267  28.180  20.641  14.289
38974W        W98268  13.713  40.986  12.936
38975W        W98269  44.776  26.008   3.634
38976W        W98270  10.804  37.494   3.834
38977W        W98271  22.125  40.942  12.925
38978W        W98272   3.790  18.099  13.930
38979W        W98273  41.441  34.481   2.409
38980W        W98274  15.229   1.291  10.404
38981W        W98275  43.935   8.243  11.106
38982W        W98276  25.094   5.842   3.746
38983W        W98277  22.594  18.721   4.209
38984W        W98278   6.212  13.677  11.011
38985W        W98279   1.899  22.552   3.682
38986W        W98280   2.818   3.226   4.131
38987W        W98281  43.393   7.722   3.725
38988W        W98282  17.704  29.471   0.862
38989W        W98283   8.670  29.553  11.960
38990W        W98284   4.777  42.411   2.756
38991W        W98285  42.858  38.450  12.942
38992W        W98286  41.011  13.264   1.355
38993W        W98287  43.365  19.106   3.207
38994W        W98288  41.374  36.030   5.194
38995W        W98289  16.632  20.545  14.835
38996W        W98290  42.943  37.532  10.565
38997W        W98291  16.287  18.654   1.755
38998W        W98292   8.729  15.088  14.284
38999W        W98293  23.569  42.452   2.246
39000W        W98294  31.479  41.857   4.224
39001W        W98295  22.242  32.557  11.470
39002W        W98296  43.890  37.945   2.379
39003W        W98297  33.920  29.488   0.333
39004W        W98298   1.326  31.980  11.015
39005W        W98299  32.480  16.592   2.770
39006W        W98300  20.105  42.859  11.608
39007W        W98301  41.462  28.988  12.539
39008W        W98302  15.252  22.039   4.202
39009W        W98303  27.661  16.696  10.980
39010W        W98304   7.225  38.427  12.464
39011W        W98305  27.997   7.849  10.940
39012W        W98306  40.865  37.463  12.992
39013W        W98307  36.870  36.417  13.961
39014W        W98308  17.770  43.014  14.987
39015W        W98309  23.731   2.465  11.010
39016W        W98310  28.565  26.683   1.246
39017W        W98311  31.038   9.193  12.538
39018W        W98312  40.391  17.064   1.842
39019W        W98313  19.156  29.547  14.479
39020W        W98314   2.903  14.638  14.794
39021W        W98315  25.069  36.904   4.305
39022W        W98316   9.320  17.122  11.060
39023W        W98317  37.070  20.068   0.267
39024W        W98318  18.280  32.520   0.445
39025W        W98319  27.185  21.119  11.978
39026W        W98320  42.393   5.315   1.706
39027W        W98321  43.810  22.029  12.055
39028W        W98322   6.789  24.602   2.300
39029W        W98323  23.076  12.643   1.231
39030W        W98324   6.236  18.638   4.740
39031W        W98325  37.904  16.585   2.693
39032W        W98326   5.767  38.904  14.833
39033W        W98327  21.617   4.280  12.994
39034W        W98328   7.221  33.964  10.894
39035W        W98329  16.251  23.994  11.426
39036W        W98330  25.028  35.438  12.077
39037W        W98331  19.100  23.191  14.387
39038W        W98332  11.185  44.283   1.923
39039W        W98333  40.891  39.449  11.929
39040W        W98334   8.870   7.665  13.048
39041W        W98335  16.661  39.361  13.923
39042W        W98336   2.805  31.428   3.833
39043W        W98337  21.701  30.621  12.579
39044W        W98338  28.083   9.243  11.044
39045W        W98339  22.509   2.390   1.823
39046W        W98340  33.508   7.407   9.920
39047W        W98341  36.014  31.048  11.887
39048W        W98342  29.100  40.507   5.723
39049W        W98343  39.913  21.702  14.349
39050W        W98344  11.289  24.069  11.049
39051W        W98345  19.072  35.942   1.744
39052W        W98346  18.761   0.360   2.664
39053W        W98347  19.176  24.140  12.096
39054W        W98348  42.507  27.172   4.349
39055W        W98349   8.891  43.840   2.327
39056W        W98350  14.822   7.825  11.438
39057W        W98351  22.163   0.298  14.776
39058W        W98352  33.935  41.522  13.949
39059W        W98353  25.645   5.923  12.021
39060W        W98354   7.732  10.815  10.459
39061W        W98355  22.156  35.505   2.768
39062W        W98356  44.356  29.171   4.794
39063W        W98357  41.375  22.638  14.306
39064W        W98358  13.318   5.919  14.971
39065W        W98359  43.429   9.803  13.896
39066W        W98360  21.705  16.644  11.944
39067W        W98361   2.938  22.230   9.540
39068W        W98362  31.584  23.106  13.327
39069W        W98363  13.301  17.185   3.736
39070W        W98364  41.859  12.753  11.029
39071W        W98365  33.028   3.222   5.195
39072W        W98366  41.490  29.588   0.902
39073W        W98367   0.847  42.024  14.840
39074W        W98368  13.114  41.808  13.856
39075W        W98369  37.571   6.370   3.267
39076W        W98370  14.338  41.349  14.394
39077W        W98371  18.117  13.618  12.055
39078W        W98372  17.676   6.881   3.232
39079W        W98373  22.527   3.429   2.839
39080W        W98374  14.161  10.299  13.838
39081W        W98375  42.406  11.244   1.707
39082W        W98376  44.860  22.692   3.332
39083W        W98377  32.957  41.393   1.389
39084W        W98378  28.020  33.519   3.658
39085W        W98379  10.162  22.119  14.782
39086W        W98380  34.941  24.649   2.745
39087W        W98381  31.058   5.878   4.273
39088W        W98382  25.594  29.922  12.058
39089W        W98383  10.299  21.132   3.156
39090W        W98384  30.581  20.651   4.336
39091W        W98385   8.313  13.728   2.409
39092W        W98386  44.808  14.210  12.422
39093W        W98387  37.898   9.814  11.385
39094W        W98388  25.665   7.208  11.413
39095W        W98389   6.918  21.558  12.965
39096W        W98390  35.584  38.829   1.714
39097W        W98391  31.506  14.244  13.007
39098W        W98392   4.794  36.909   2.675
39099W        W98393  20.707  41.340   1.728
39100W        W98394   9.797  42.324  14.469
39101W        W98395   6.846  26.155   3.315
39102W        W98396  35.933   5.297   9.670
39103W        W98397  33.993   6.730   2.211
39104W        W98398  35.915  40.866   4.741
39105W        W98399  41.482  27.602   0.363
39106W        W98400  36.941  31.571   2.812
39107W        W98401   0.783  34.031   3.251
39108W        W98402  39.908  39.418  13.508
39109W        W98403  33.918  28.594  10.999
39110W        W98404   7.705   1.837   2.304
39111W        W98405  33.121  21.024  14.974
39112W        W98406  34.493  28.563   1.800
39113W        W98407  33.580  14.103  11.450
39114W        W98408  17.076  41.390  13.031
39115W        W98409  12.344  23.556   0.258
39116W        W98410  43.270   4.869   3.315
39117W        W98411  30.651  36.517   5.159
39118W        W98412  36.946  23.736  12.472
39119W        W98413  43.351  25.173  14.993
39120W        W98414   4.880  36.038   0.868
39121W        W98415  21.025  13.213   2.413
39122W        W98416   3.792   7.881  11.613
39123W        W98417   0.387  18.130   0.340
39124W        W98418  30.442   9.284  11.542
39125W        W98419  24.220   1.901   3.341
39126W        W98420  22.552   4.399   4.712
39127W        W98421  24.533   1.744  12.445
39128W        W98422  29.159   3.410  13.453
39129W        W98423   8.303  24.139   1.931
39130W        W98424  40.500  19.278  12.075
39131W        W98425  23.562  15.585   2.350
39132W        W98426  42.505  13.347  14.280
39133W        W98427  15.726  42.030   1.286
39134W        W98428  34.375  23.149  13.822
39135W        W98429   9.273  35.586  10.468
39136W        W98430   5.240  15.812   2.771
39137W        W98431  26.996  22.531   1.402
39138W        W98432  21.545  35.927   4.121
39139W        W98433   1.745  44.348   1.732
39140W        W98434   7.318  16.081   1.333
39141W        W98435  25.530  20.619  14.023
39142W        W98436   7.412  42.802  13.974
39143W        W98437  26.622  36.893   3.737
39144W        W98438  38.922  12.312  14.763
39145W        W98439  11.248   6.757   0.404
39146W        W98440  12.838   5.340  11.401
39147W        W98441   5.210  37.524   0.382
39148W        W98442  26.134   4.418   4.671
39149W        W98443  23.563   5.211  12.947
39150W        W98444  28.638  13.131   4.300
39151W        W98445  23.602  27.133  13.987
39152W        W98446   4.441  11.291  13.847
39153W        W98447   1.764  24.019   3.283
39154W        W98448   5.899   2.952  12.364
39155W        W98449  44.329   4.339  10.480
39156W        W98450  24.497  26.195  13.313
39157W        W98451  36.498   5.292  11.500
39158W        W98452   7.784  43.482  10.968
39159W        W98453  28.055  16.622   3.182
39160W        W98454  26.207  32.976   2.254
39161W        W98455  29.977   5.195  11.392
39162W        W98456   3.795  36.371   4.758
39163W        W98457   6.411  21.208  11.411
39164W        W98458  33.926   0.963   2.693
39165W        W98459  35.363  41.449   4.244
39166W        W98460  27.495  28.594   3.826
39167W        W98461  10.867  24.632   0.837
39168W        W98462  11.698  16.141  10.939
39169W        W98463  30.577  44.815   0.411
39170W        W98464  44.365  27.153   1.775
39171W        W98465  25.690   4.338  14.342
39172W        W98466  36.947  10.167  11.422
39173W        W98467   5.430   7.666   1.922
39174W        W98468  18.246   9.270  13.027
39175W        W98469  25.205  34.481   3.343
39176W        W98470  43.462  39.412   3.272
39177W        W98471  30.986  26.608   4.821
39178W        W98472  34.933  28.180  11.976
39179W        W98473  28.059  34.119  10.475
39180W        W98474  36.415  32.006   2.337
39181W        W98475  30.448  15.773   0.746
39182W        W98476  18.114  10.875  14.816
39183W        W98477   7.762  28.164  12.362
39184W        W98478  19.263   2.944  10.425
39185W        W98479  24.486   5.785   3.371
39186W        W98480  29.067  39.871  12.528
39187W        W98481  29.614  41.005   4.154
39188W        W98482  24.680   2.364   0.795
39189W        W98483  11.285  15.693  14.784
39190W        W98484   9.661  21.095   0.391
39191W        W98485  18.151  14.670   1.240
39192W        W98486   1.386   3.950   3.251
39193W        W98487  22.241  16.210   1.847
39194W        W98488  16.724  34.901   2.384
39195W        W98489  11.317  16.675   1.840
39196W        W98490   9.736  10.371   4.727
39197W        W98491   1.397   0.370   3.331
39198W        W98492  27.655  33.939  11.601
39199W        W98493  11.239  19.078   2.669
39200W        W98494  43.976  38.345   4.608
39201W        W98495  39.422  28.605   0.464
39202W        W98496  19.770  39.344   0.277
39203W        W98497  30.975   7.224   1.317
39204W        W98498   4.249  41.971   0.480
39205W        W98499  18.104   2.909   0.962
39206W        W98500   6.682   9.275  12.942
39207W        W98501   4.407  12.852   0.727
39208W        W98502  13.164  16.766   1.809
39209W        W98503  43.836  25.509   1.226
39210W        W98504  38.428   9.381  13.525
39211W        W98505  30.624  43.948  13.982
39212W        W98506  25.638  32.483   1.730
39213W        W98507  42.849  16.317  12.972
39214W        W98508  24.089  38.867   2.374
39215W        W98509   0.829  10.709   1.928
39216W        W98510  17.062  43.986   4.317
39217W        W98511  17.305  12.200  13.941
39218W        W98512  11.856  21.572   4.783
39219W        W98513   9.388  23.225   2.786
39220W        W98514  44.381  36.452   0.259
39221W        W98515  22.548  24.493  13.000
39222W        W98516   7.674   4.803   1.337
39223W        W98517  38.551   3.731  13.384
39224W        W98518  40.345  12.659   0.808
39225W        W98519  29.990   5.745  12.457
39226W        W98520  37.874   4.819  10.958
39227W        W98521  30.464  27.159  14.379
39228W        W98522  29.467  19.763  13.888
39229W        W98523  20.108  26.189   3.657
39230W        W98524  38.996  41.014  11.575
39231W        W98525  27.515  29.020  14.911
39232W        W98526  12.337  21.243  11.483
39233W        W98527  35.423  22.562   0.454
39234W        W98528  33.533  22.735  13.874
39235W        W98529  13.278  30.020  13.799
39236W        W98530  12.146  20.613   3.720
39237W        W98531   3.794  37.480   3.234
39238W        W98532  22.054   6.706   3.384
39239W        W98533   0.825   5.324   1.722
39240W        W98534  24.058   7.708  14.002
39241W        W98535  30.527  27.163  10.590
39242W        W98536  44.386   6.910   1.926
39243W        W98537  16.646  21.039  11.870
39244W        W98538  42.929  21.045  13.015
39245W        W98539  33.586   3.901   1.314
39246W        W98540  17.195  35.486   3.199
39247W        W98541   2.404   9.667   3.671
39248W        W98542  33.897   8.681   1.731
39249W        W98543   4.416  33.003  11.597
39250W        W98544  44.788  34.440  10.610
39251W        W98545   4.357  34.947  10.564
39252W        W98546  34.900   2.849   3.218
39253W        W98547   1.306  40.899   1.418
39254W        W98548  34.034  26.077   0.356
39255W        W98549  21.139  28.970   3.281
39256W        W98550  30.471   0.780   1.332
39257W        W98551   7.709   7.905   1.775
39258W        W98552  22.010  19.091  10.430
39259W        W98553  25.003  27.027   4.278
39260W        W98554   4.431  25.551   4.757
39261W        W98555  43.300  21.511  12.455
39262W        W98556  32.595  30.511  12.419
39263W        W98557   2.916   6.246   1.371
39264W        W98558   0.409  41.371   0.892
39265W        W98559  14.290  13.140   5.287
39266W        W98560  30.159   6.197  10.992
39267W        W98561  20.670  36.534  11.585
39268W        W98562  17.211  35.879  10.449
39269W        W98563  31.524  33.094   1.931
39270W        W98564  34.896  16.680   1.358
39271W        W98565  27.611  15.200   4.678
39272W        W98566  34.571  23.518  13.798
39273W        W98567  14.192  10.201   3.224
39274W        W98568   5.338  25.571  10.542
39275W        W98569  29.548  42.796  11.961
39276W        W98570  42.458  25.154   1.758
39277W        W98571  39.332  18.786  10.621
39278W        W98572  40.451  11.159  11.920
39279W        W98573  38.429  18.741   3.333
39280W        W98574  12.285  35.014  10.944
39281W        W98575  37.901  18.178   1.829
39282W        W98576   2.408  31.991  12.457
39283W        W98577  16.802   7.791   0.952
39284W        W98578  38.828  22.732  12.091
39285W        W98579  15.195  12.646   1.921
39286W        W98580  31.545  25.497  14.787
39287W        W98581  34.871  18.051  10.996
39288W        W98582  19.539  25.001   4.252
39289W        W98583  38.553  19.561  14.402
39290W        W98584  33.612  41.524   3.265
39291W        W98585  27.598  23.690   2.709
39292W        W98586  13.774  10.342  12.910
39293W        W98587  38.833  18.545   1.347
39294W        W98588  17.725  10.332   2.787
39295W        W98589  39.367  11.784  13.329
39296W        W98590  39.371  44.379  11.440
39297W        W98591  16.149   5.301  14.343
39298W        W98592  32.124   2.382  11.470
39299W        W98593  11.326  34.573   0.946
39300W        W98594  16.286   6.860   3.774
39301W        W98595   8.682   0.427   0.394
39302W        W98596  36.524  19.573  14.450
39303W        W98597  24.681  35.055   2.750
39304W        W98598  42.413   0.819   2.673
39305W        W98599  22.146  37.519  12.557
39306W        W98600  44.440  43.796  11.406
39307W        W98601  12.167   6.310  10.557
39308W        W98602  25.614   0.303  12.529
39309W        W98603  12.221   0.376   4.784
39310W        W98604  38.415  22.209   3.308
39311W        W98605  20.754  17.268   0.264
39312W        W98606   8.777  11.676  11.027
39313W        W98607   6.772  26.492  11.876
39314W        W98608   7.708  37.493  12.942
39315W        W98609  21.186  17.209   2.284
39316W        W98610  37.538  14.735  13.453
39317W        W98611   0.410   2.733   1.313
39318W        W98612  22.075   0.780   1.445
39319W        W98613  11.722   5.732   1.407
39320W        W98614  22.541   5.413  12.907
39321W        W98615  24.064  25.543  14.939
39322W        W98616  19.612  42.964  14.982
39323W        W98617   1.820  19.677  10.976
39324W        W98618   0.747  41.512   1.320
39325W        W98619   2.371  37.438   9.972
39326W        W98620  39.331   1.959   4.132
39327W        W98621  20.192  44.932  13.539
39328W        W98622  37.833  11.829  10.035
39329W        W98623   0.331  13.198  10.495
39330W        W98624  33.558  28.472   4.228
39331W        W98625   5.295   4.321  10.470
39332W        W98626  11.229   7.233   4.630
39333W        W98627  15.767   7.776   2.245
39334W        W98628  44.950  15.162  11.429
39335W        W98629   7.174  23.156  11.926
39336W        W98630  40.366  22.502  14.352
39337W        W98631  15.685  42.373  13.508
39338W        W98632  19.706  43.886  12.887
39339W        W98633   9.662  23.550   3.336
39340W        W98634  12.765  24.709  14.415
39341W        W98635   8.164   3.823   0.729
39342W        W98636  36.377  17.678   2.884
39343W        W98637  31.949   6.420   0.381
39344W        W98638   2.230  37.846  11.373
39345W        W98639  22.527   3.881  14.779
39346W        W98640  33.589  14.135   3.699
39347W        W98641  28.932   7.746   4.326
39348W        W98642   1.385  37.391   2.784
39349W        W98643  26.692  34.878   4.174
39350W        W98644   5.902  22.597  14.421
39351W        W98645  42.387  43.430  14.404
39352W        W98646  31.063  21.659  14.493
39353W        W98647   3.365   1.372  11.409
39354W        W98648   0.860   2.795   2.195
39355W        W98649  17.671  26.118   2.787
39356W        W98650  41.362   4.418  11.012
39357W        W98651  25.074  26.965  13.513
39358W        W98652  36.576  27.611  10.498
39359W        W98653  24.162  23.647   1.707
39360W        W98654  11.287  41.372   2.742
39361W        W98655  42.807  25.057   3.867
39362W        W98656  29.995  44.794  11.427
39363W        W98657  36.504   2.740  12.012
39364W        W98658  14.778  14.806   0.357
39365W        W98659  27.578  15.328  12.348
39366W        W98660  41.928  42.365   0.299
39367W        W98661  20.645  36.495  14.379
39368W        W98662  21.137  33.621  14.922
39369W        W98663  32.561  36.379  11.399
39370W        W98664  19.607  32.017   5.171
39371W        W98665  28.068  28.509  14.289
39372W        W98666  19.176  33.044   4.300
39373W        W98667  42.455  17.126   3.215
39374W        W98668   4.394  16.094  11.415
39375W        W98669  10.275   3.445   3.271
39376W        W98670  39.470   6.825   4.169
39377W        W98671  31.549  44.929   2.286
39378W        W98672  22.635  19.196  10.926
39379W        W98673  30.992  43.363   4.127
39380W        W98674  17.304  29.978  14.985
39381W        W98675  30.650  44.969   2.374
39382W        W98676   6.219   6.774   1.877
39383W        W98677  18.630  23.645  11.029
39384W        W98678  31.974  28.601   1.303
39385W        W98679  24.094  40.908   4.223
39386W        W98680   0.920  17.694   0.801
39387W        W98681   9.322  11.199   3.760
39388W        W98682  44.771   5.392   5.252
39389W        W98683  14.328  36.450  14.020
39390W        W98684   9.775  38.423  13.322
39391W        W98685  36.387  24.541  14.508
39392W        W98686  22.061  18.254   0.942
39393W        W98687  15.086  43.355  12.985
39394W        W98688  44.380  12.700   0.856
39395W        W98689  23.096  24.647  12.019
39396W        W98690  35.368  28.934   2.844
39397W        W98691  31.065   1.376   2.735
39398W        W98692   4.713   0.356   5.779
39399W        W98693  34.509  39.842   3.354
39400W        W98694  40.459  26.568   1.914
39401W        W98695  32.424  11.676   4.811
39402W        W98696  38.965  35.013  13.833
39403W        W98697  15.653  44.501  14.385
39404W        W98698  37.576  29.507   0.736
39405W        W98699  22.694  43.766  13.519
39406W        W98700  27.151  34.568   2.221
39407W        W98701  33.542  21.180   3.833
39408W        W98702  18.076  39.513   1.917
39409W        W98703  41.840  40.376  14.509
39410W        W98704  16.090  23.725  11.971
39411W        W98705  29.962   8.332   1.800
39412W        W98706  30.944  25.510   0.796
39413W        W98707  34.000  25.213  13.032
39414W        W98708  24.074  15.305  13.453
39415W        W98709  13.302  33.417   2.210
39416W        W98710  32.505  40.918   5.288
39417W        W98711  35.888  12.270  12.997
39418W        W98712  26.520  10.698  12.962
39419W        W98713  11.280  26.620  13.545
39420W        W98714  21.166  29.531   1.812
39421W        W98715  19.107  23.568  14.507
39422W        W98716  37.535   5.402  12.926
39423W        W98717  13.131   2.880  11.522
39424W        W98718  18.210  24.496  13.868
39425W        W98719  31.588  36.478  14.496
39426W        W98720  19.101  34.573   0.410
39427W        W98721  43.799  37.881  14.797
39428W        W98722  13.725  44.380   2.346
39429W        W98723  13.292  18.760  11.473
39430W        W98724  32.112  12.764  12.070
39431W        W98725  31.589  37.040   2.300
39432W        W98726   9.884  32.072   4.774
39433W        W98727  37.912   8.387  11.396
39434W        W98728  14.657  35.362   3.732
39435W        W98729  41.478  37.962  10.457
39436W        W98730   8.782  20.068   3.772
39437W        W98731  36.847   0.334  10.426
39438W        W98732   3.336   2.841  13.400
39439W        W98733  33.530   6.686   4.127
39440W        W98734  21.719   7.264  10.473
39441W        W98735  37.374  20.605  13.337
39442W        W98736  18.585   5.756   3.192
39443W        W98737  31.111  36.852  12.889
39444W        W98738  44.500  14.664  13.485
39445W        W98739  11.858   8.248  14.361
39446W        W98740  41.967   3.253  14.458
39447W        W98741  33.033  36.881  13.968
39448W        W98742   3.831  12.123   1.412
39449W        W98743  34.037  22.723  10.999
39450W        W98744  11.640  16.687   1.727
39451W        W98745  10.640   3.414   1.356
39452W        W98746   8.774  22.996  13.340
39453W        W98747  32.566  43.967  13.529
39454W        W98748  29.136  32.426  13.436
39455W        W98749  17.605  31.144   0.966
39456W        W98750   5.308  25.172  12.066
39457W        W98751  11.655  23.010   2.242
39458W        W98752  26.207  19.540   0.374
39459W        W98753  19.183  42.968   4.225
39460W        W98754  24.973  43.431  13.500
39461W        W98755  25.662  41.536  13.054
39462W        W98756  44.300  20.271  12.080
39463W        W98757   7.825  32.115   1.346
39464W        W98758  40.355  40.814   4.281
39465W        W98759  27.579  14.257   0.958
39466W        W98760  17.116  43.511  12.832
39467W        W98761  33.021  10.235   3.764
39468W        W98762  40.433  10.282   9.968
39469W        W98763   2.767  26.146   3.735
39470W        W98764  37.949  31.603  12.868
39471W        W98765   9.330   7.840  13.056
39472W        W98766  12.225  21.522   0.408
39473W        W98767  19.207  33.089   1.334
39474W        W98768  30.513  22.666  14.308
39475W        W98769   4.324  19.673  12.045
39476W        W98770  15.686  24.595  10.429
39477W        W98771  21.163   6.704  11.543
39478W        W98772  26.696   2.413   0.301
39479W        W98773  17.127   7.370   3.266
39480W        W98774  34.469  44.973  12.855
39481W        W98775  13.829  34.889  11.487
39482W        W98776  12.841  31.996   1.724
39483W        W98777  29.601  41.987  11.553
39484W        W98778  26.477  31.528   4.168
39485W        W98779  35.908  18.751   2.321
39486W        W98780  39.394  10.757  12.041
39487W        W98781   8.878  44.298   0.940
39488W        W98782  37.385  44.852  12.092
39489W        W98783  10.683  28.055   1.899
39490W        W98784  19.070   0.491   0.937
39491W        W98785  16.182  27.546   4.794
39492W        W98786  40.496  28.049   4.212
39493W        W98787  31.945   8.688  14.893
39494W        W98788  10.259  32.624   1.300
39495W        W98789  31.937  19.619  12.858
39496W        W98790  10.786  21.612   1.863
39497W        W98791  29.942  16.260  10.516
39498W        W98792  24.184   5.694   4.714
39499W        W98793  17.659  10.652  13.474
39500W        W98794  11.736  12.613   2.347
39501W        W98795  27.052  29.007  11.887
39502W        W98796   1.807  22.070   2.665
39503W        W98797   0.908  28.077   1.339
39504W        W98798  34.476  43.382   1.414
39505W        W98799  44.757  38.504   3.378
39506W        W98800  37.488  14.138  11.574
39507W        W98801  15.214  15.777   4.739
39508W        W98802  19.776  24.565   3.279
39509W        W98803  13.335  35.860   2.875
39510W        W98804  16.232   8.367  13.821
39511W        W98805   9.348  21.601   0.860
39512W        W98806  19.573  37.426   3.378
39513W        W98807  43.512   9.817  10.494
39514W        W98808   3.848   3.328  14.357
39515W        W98809  14.136   9.716  14.765
39516W        W98810  38.067  34.549  12.358
39517W        W98811  39.314  18.769  12.553
39518W        W98812  23.489  14.303  13.937
39519W        W98813   6.905  40.014  12.897
39520W        W98814  38.472   5.900   0.808
39521W        W98815  15.257   3.823   0.420
39522W        W98816   5.400  24.991   2.713
39523W        W98817  16.609  11.203  12.416
39524W        W98818  10.202  34.594   2.321
39525W        W98819   6.894  39.849   2.900
39526W        W98820   0.257  11.811  12.500
39527W        W98821   9.260   8.804   4.623
39528W        W98822  11.834   6.796   1.825
39529W        W98823  36.897  18.228  13.420
39530W        W98824  21.247  26.090  12.441
39531W        W98825  21.145  27.553   0.289
39532W        W98826  40.859  16.618  13.431
39533W        W98827  12.280  43.790  12.509
39534W        W98828  25.036   2.378  13.822
39535W        W98829  33.929  29.657   1.266
39536W        W98830  36.541  13.789  13.807
39537W        W98831  11.312   3.437  12.075
39538W        W98832   3.713  37.884  13.311
39539W        W98833  15.637   2.956  13.944
39540W        W98834  37.385  36.470  11.026
39541W        W98835   7.345  44.899  11.970
39542W        W98836   2.933  26.082  12.076
39543W        W98837   5.887  10.252  13.968
39544W        W98838  23.188  29.660  14.926
39545W        W98839  18.056   1.806  12.455
39546W        W98840  10.674  40.331   4.805
39547W        W98841   5.331  11.715  10.909
39548W        W98842  22.041   6.861   1.858
39549W        W98843   4.385  25.219  14.391
39550W        W98844  39.833  29.121  11.501
39551W        W98845   1.897  32.092   4.122
39552W        W98846   5.781   8.867  11.382
39553W        W98847  36.577  23.614  14.313
39554W        W98848  39.021  37.436   4.762
39555W        W98849  20.531  25.690   3.310
39556W        W98850  10.319  19.077  14.032
39557W        W98851  21.073  25.558  13.491
39558W        W98852   6.244  25.507  10.532
39559W        W98853  16.582  30.065  13.943
39560W        W98854   8.776  20.158   9.989
39561W        W98855   3.739   0.431  13.026
39562W        W98856  34.097   1.461   1.850
39563W        W98857  43.861  41.866  13.028
39564W        W98858  18.209  14.213  11.536
39565W        W98859  25.031   6.821   2.409
39566W        W98860  37.509  32.572  10.429
39567W        W98861  20.634  24.149  13.971
39568W        W98862   6.376  25.625   1.903
39569W        W98863  38.411   8.196   0.457
39570W        W98864  14.224  25.654   0.373
39571W        W98865   9.732   5.206  14.911
39572W        W98866  38.964  28.968  12.056
39573W        W98867  34.917  22.612   9.977
39574W        W98868  28.148  44.379   3.776
39575W        W98869  28.977  15.604   4.671
39576W        W98870  40.008   4.385  11.552
39577W        W98871  10.648  44.374  13.518
39578W        W98872  20.086  30.445   3.162
39579W        W98873  30.064   3.328  11.035
39580W        W98874   4.249  33.039   1.768
39581W        W98875   5.823  41.473  11.599
39582W        W98876  37.019  18.655   4.265
39583W        W98877   8.655   6.272   1.761
39584W        W98878   3.391  14.173  14.825
39585W        W98879  19.278  27.582   2.833
39586W        W98880  27.106   7.403  14.300
39587W        W98881   1.337  40.833   3.858
39588W        W98882   7.720   1.380  10.418
39589W        W98883  19.656  17.765   0.334
39590W        W98884  43.996  42.971   1.266
39591W        W98885  22.612  22.504  11.394
39592W        W98886   4.230   6.284   4.242
39593W        W98887  38.488  20.187  13.468
39594W        W98888  36.968   2.956   1.264
39595W        W98889  20.269   0.870  11.477
39596W        W98890  19.587  30.534   3.277
39597W        W98891   1.856  14.817  12.968
39598W        W98892  10.146   1.470  14.944
39599W        W98893   0.357  30.614   1.448
39600W        W98894  12.311  24.531   3.743
39601W        W98895  43.277   0.904   3.723
39602W        W98896  33.967  22.153   3.228
39603W        W98897   0.979  41.511  13.941
39604W        W98898   4.921  20.231   9.972
39605W        W98899  19.177  11.226   0.424
39606W        W98900  14.738  38.488   3.647
39607W        W98901  26.627  20.569   0.850
39608W        W98902   5.335   9.872  12.351
39609W        W98903  33.980  29.161  13.885
39610W        W98904   5.746  41.452   3.754
39611W        W98905   4.884   7.228  14.887
39612W        W98906  21.137   6.738   4.242
39613W        W98907  35.927  31.962  13.839
39614W        W98908  18.066   4.260  10.614
39615W        W98909  11.756  15.326  13.526
39616W        W98910  12.656  31.127  11.455
39617W        W98911  21.549   6.236  12.885
39618W        W98912  11.851  33.529  14.859
39619W        W98913  42.410  23.658   0.733
39620W        W98914  23.555  12.779   9.671
39621W        W98915   9.152  41.310   3.367
39622W        W98916   1.886  36.440   3.157
39623W        W98917   8.161  43.328   5.236
39624W        W98918  13.109  22.040   0.930
39625W        W98919  21.248  38.846   1.895
39626W        W98920  33.957  24.150   3.803
39627W        W98921   4.355  41.927  10.517
39628W        W98922  12.758  23.035   1.350
39629W        W98923   3.901  39.505  12.395
39630W        W98924  33.408  33.898   0.748
39631W        W98925   4.449  31.618  14.835
39632W        W98926   9.842  43.436   4.651
39633W        W98927  44.472   4.251   1.747
39634W        W98928  32.971  24.019   4.786
39635W        W98929  29.920  15.606   2.308
39636W        W98930   3.398  14.168  13.385
39637W        W98931  12.297  35.913   2.221
39638W        W98932  32.566   0.955   2.848
39639W        W98933   7.303  37.407  12.023
39640W        W98934  36.480   2.252  13.808
39641W        W98935  25.484  32.448  11.873
39642W        W98936  25.569  30.566   3.845
39643W        W98937  37.067  25.084   2.801
39644W        W98938  34.380  39.529  11.067
39645W        W98939  10.345   6.743   4.631
39646W        W98940  23.649  20.538  12.385
39647W        W98941   1.914   3.726  13.488
39648W        W98942  25.080  36.450  11.488
39649W        W98943  18.616  19.760   1.714
39650W        W98944   3.880  13.240  10.431
39651W        W98945  34.975   2.389  11.913
39652W        W98946  42.786  30.636  13.834
39653W        W98947   4.429  24.584  12.436
39654W        W98948   3.838  18.151   0.285
39655W        W98949  22.500  10.651   4.194
39656W        W98950  26.024   2.869  13.380
39657W        W98951  17.272  35.069  14.013
39658W        W98952  44.953  11.837   1.878
39659W        W98953  14.599   9.159  10.555
39660W        W98954  22.698  10.210  10.631
39661W        W98955  30.504  11.341   2.329
39662W        W98956   8.268  39.922   4.829
39663W        W98957  16.752  29.600   0.328
39664W        W98958   6.705  19.128  12.477
39665W        W98959  42.000   6.858  10.500
39666W        W98960  37.913  29.542  10.924
39667W        W98961   9.213   4.919   3.197
39668W        W98962  32.618  16.212  14.833
39669W        W98963  29.443   1.416   2.259
39670W        W98964  35.504  31.551   4.778
39671W        W98965  30.642  23.556   2.332
39672W        W98966  25.533  29.159  13.547
39673W        W98967  42.374   9.797  13.355
39674W        W98968  43.872  38.349   0.472
39675W        W98969  34.918  12.713   5.120
39676W        W98970  27.140   0.459   1.724
39677W        W98971  13.642  37.957   1.787
39678W        W98972  38.038  16.219  14.843
39679W        W98973   0.338  34.908  13.373
39680W        W98974  26.535  35.412   1.719
39681W        W98975  30.946  20.057   3.178
39682W        W98976  15.646   0.465   0.916
39683W        W98977  20.733   4.287  13.504
39684W        W98978  42.005   5.777   4.605
39685W        W98979  17.183  38.490   0.743
39686W        W98980  42.929  26.587  10.919
39687W        W98981   7.731  36.038  10.566
39688W        W98982  33.993  15.637   0.826
39689W        W98983  38.563  39.445   5.134
39690W        W98984  18.745  30.561  13.495
39691W        W98985  38.004  33.542  10.079
39692W        W98986  29.431   5.206   0.934
39693W        W98987   1.274  27.568   4.227
39694W        W98988   4.214  32.142   2.221
39695W        W98989  10.197  38.395  13.944
39696W        W98990  41.360  25.564   0.404
39697W        W98991  22.564  20.764  14.800
39698W        W98992  39.480  20.622  13.416
39699W        W98993  33.514   8.863   1.441
39700W        W98994   5.327  23.154   1.450
39701W        W98995  24.154  37.350   0.830
39702W        W98996  44.912   6.702  13.891
39703W        W98997  19.678   8.877   3.321
39704W        W98998   1.337  24.122  13.858
39705W        W98999  38.462  11.678   0.273
39706W        W99000  26.072  13.657   0.353
39707W        W99001   3.443   1.483  13.867
39708W        W99002  14.137  24.716  12.562
39709W        W99003  43.813   7.735  14.371
39710W        W99004  44.838  22.509   1.420
39711W        W99005   9.383  33.403   1.269
39712W        W99006  20.658  27.511  10.538
39713W        W99007  11.325  14.289  13.006
39714W        W99008   4.859  10.660   0.303
39715W        W99009  21.729  37.935   4.681
39716W        W99010  22.090  39.515   2.228
39717W        W99011   4.419   5.714  13.377
39718W        W99012  37.971  34.480   4.719
39719W        W99013  38.902  29.498   1.898
39720W        W99014   4.802  23.597  11.592
39721W        W99015  16.713  19.758   2.363
39722W        W99016  19.576   3.847   4.770
39723W        W99017  28.644  34.958   3.220
39724W        W99018  18.143  29.504   3.770
39725W        W99019  36.965  26.026   2.291
39726W        W99020  20.611   3.871   1.803
39727W        W99021  22.039  36.548  12.012
39728W        W99022  41.352   5.770  12.894
39729W        W99023  40.401  16.157  13.516
39730W        W99024  22.252  27.049   1.265
39731W        W99025  28.961  31.634   4.320
39732W        W99026  36.970  18.211   3.329
39733W        W99027  36.087  24.145   1.343
39734W        W99028  35.036  19.606  12.835
39735W        W99029  31.132   6.405   4.676
39736W        W99030  22.615  38.836  13.048
39737W        W99031   7.796  29.032  13.534
39738W        W99032   2.743  21.534  11.384
39739W        W99033  43.371  23.518   1.831
39740W        W99034  36.981   9.720   2.339
39741W        W99035  21.606  32.030   3.290
39742W        W99036  15.598  29.058   4.782
39743W        W99037  24.151   6.329   4.147
39744W        W99038   2.788   5.840  14.939
39745W        W99039  31.057   9.162  13.945
39746W        W99040  28.662  10.191   0.829
39747W        W99041  32.573   2.446  14.499
39748W        W99042  33.979  11.267   1.367
39749W        W99043  30.555  38.368  12.501
39750W        W99044  14.275  26.204  11.108
39751W        W99045   3.837  20.532  11.989
39752W        W99046  33.398   0.830   4.772
39753W        W99047  26.664   6.743   0.799
39754W        W99048  32.637   7.412   4.158
39755W        W99049  33.433  38.365   2.818
39756W        W99050  28.638  43.274   0.481
39757W        W99051   9.746  13.824   1.737
39758W        W99052  40.425  26.201  14.992
39759W        W99053  24.602  15.174  14.931
39760W        W99054   6.693  26.632   4.274
39761W        W99055  27.515  14.155   2.419
39762W        W99056   9.798  22.154   4.686
39763W        W99057  31.111  35.098  14.005
39764W        W99058   8.278  22.227  13.439
39765W        W99059  43.389  42.458  10.456
39766W        W99060   9.207  26.972   4.789
39767W        W99061  14.251  37.340  12.890
39768W        W99062  17.190  35.456  10.586
39769W        W99063  15.818  26.529   4.625
39770W        W99064   8.774  30.139   5.216
39771W        W99065   7.883  10.804  14.441
39772W        W99066  24.229  25.150   4.155
39773W        W99067  13.292   5.286  14.897
39774W        W99068  10.364  14.786   1.699
39775W        W99069   7.404   7.875   2.873
39776W        W99070  43.871  32.486  11.988
39777W        W99071  30.421  24.615   2.265
39778W        W99072   8.238  21.045   2.391
39779W        W99073  39.415  38.478   4.212
39780W        W99074  23.100  18.103   4.225
39781W        W99075   5.710  25.070   9.553
39782W        W99076  21.524  31.447  10.594
39783W        W99077  19.537  40.952  11.113
39784W        W99078  36.884  34.062  11.882
39785W        W99079  24.051   5.718  10.605
39786W        W99080   4.434  11.745  11.861
39787W        W99081  16.694  11.362  14.865
39788W        W99082  28.103  39.831  13.955
39789W        W99083  28.065  13.740   4.629
39790W        W99084  17.725  12.282  13.877
39791W        W99085  38.519  29.966  12.392
39792W        W99086  31.137  12.697   2.817
39793W        W99087  44.467   1.364   3.675
39794W        W99088  23.023  15.636  10.962
39795W        W99089  15.726   6.734  10.550
39796W        W99090  40.857  24.204  12.980
39797W        W99091  44.912  22.566   4.651
39798W        W99092   6.294   5.271   0.855
39799W        W99093  15.174  14.308  10.485
39800W        W99094  44.975  28.014   4.617
39801W        W99095  42.012  29.445  12.883
39802W        W99096  11.324  32.960  11.016
39803W        W99097  11.787  23.529   0.911
39804W        W99098   4.283   4.409  14.796
39805W        W99099  25.702   3.712   3.696
39806W        W99100  10.321  43.341   0.827
39807W        W99101   5.239  15.224   1.388
39808W        W99102   4.314  33.047  12.977
39809W        W99103  31.921  37.052   3.689
39810W        W99104  29.974  35.357   3.274
39811W        W99105  26.650  17.116   1.322
39812W        W99106   1.434   2.447  10.971
39813W        W99107  30.415   5.752  10.603
39814W        W99108   8.895  39.500  12.435
39815W        W99109  39.371  20.067  13.942
39816W        W99110  25.161   1.773  11.456
39817W        W99111  15.769  21.039   9.978
39818W        W99112   2.760  25.478   3.350
39819W        W99113  36.360   5.850   4.278
39820W        W99114  44.806  31.128   0.951
39821W        W99115  25.074  22.664  14.028
39822W        W99116  43.829  37.064  13.890
39823W        W99117  15.327  25.004   2.870
39824W        W99118   6.791  34.491   3.708
39825W        W99119  37.553  25.159   4.323
39826W        W99120   9.660  21.170   1.801
39827W        W99121  21.235  28.509   3.823
39828W        W99122  43.371  23.556   0.247
39829W        W99123   6.754  29.618   2.765
39830W        W99124  41.928   2.359  12.372
39831W        W99125  17.247  18.615  12.571
39832W        W99126  42.519  24.022   4.794
39833W        W99127  27.994  19.112   1.853
39834W        W99128   5.694   2.371  13.416
39835W        W99129  12.359  22.547  10.565
39836W        W99130  23.129  44.819   2.707
39837W        W99131  33.399   3.424   3.298
39838W        W99132   3.888  41.815   1.401
39839W        W99133  13.108   2.245   1.802
39840W        W99134  34.010  32.580   1.728
39841W        W99135  40.937  23.169  14.763
39842W        W99136   9.297   9.729   2.675
39843W        W99137   2.227  37.568   3.199
39844W        W99138  38.458  44.323  13.023
39845W        W99139  39.929  35.861  13.822
39846W        W99140  44.480  22.206  14.928
39847W        W99141  27.005   6.879   4.734
39848W        W99142  16.281  21.082   0.325
39849W        W99143  12.119   8.335  10.984
39850W        W99144  17.744  36.535  11.401
39851W        W99145  40.807  24.666   1.286
39852W        W99146  43.876  32.059  11.503
39853W        W99147   0.745  14.727  14.456
39854W        W99148  43.499  17.729  13.449
39855W        W99149  40.847  16.577  11.094
39856W        W99150   5.230  37.441   0.790
39857W        W99151  18.551  43.491  13.390
39858W        W99152  43.956   2.337  11.419
39859W        W99153  34.980  24.653   1.410
39860W        W99154  26.635  27.648  11.988
39861W        W99155  28.441  21.742  10.893
39862W        W99156   1.744  21.125  14.892
39863W        W99157   5.227  25.206  10.450
39864W        W99158  37.427  37.969  13.512
39865W        W99159   6.398  21.606  13.991
39866W        W99160   0.796  34.510  10.416
39867W        W99161  26.042  37.943   3.260
39868W        W99162  10.208  39.481   3.273
39869W        W99163  21.093  29.169  11.876
39870W        W99164   7.306  11.724   0.453
39871W        W99165   0.258  40.412  11.988
39872W        W99166  36.981  26.118   0.367
39873W        W99167  19.544   4.251   4.195
39874W        W99168   6.767   4.301   4.130
39875W        W99169   9.699   5.384  12.081
39876W        W99170  21.153  43.508  11.012
39877W        W99171  44.466  38.383   2.745
39878W        W99172  12.242  27.093   1.894
39879W        W99173  18.765  13.767   2.837
39880W        W99174  24.609   8.901   3.355
39881W        W99175  38.948   3.233  11.101
39882W        W99176  31.958  26.622  11.450
39883W        W99177   2.326  20.637   2.713
39884W        W99178  31.425  16.719  12.459
39885W        W99179  10.725  30.567   1.890
39886W        W99180  23.570  33.510   2.292
39887W        W99181   1.243  34.388   2.817
39888W        W99182   0.803   8.821  13.496
39889W        W99183  12.355  14.313   3.785
39890W        W99184  22.209   8.731   3.278
39891W        W99185  31.572  27.625   3.817
39892W        W99186  23.636  11.713  12.448
39893W        W99187  44.409  18.090   3.652
39894W        W99188  10.213  37.426   4.254
39895W        W99189  43.954   4.812   0.793
39896W        W99190  34.458   6.861   5.235
39897W        W99191  33.609  37.000  10.554
39898W        W99192  24.554  20.125   1.222
39899W        W99193  32.075   1.733  14.795
39900W        W99194  12.268  14.165   1.917
39901W        W99195  30.038  11.793  14.947
39902W        W99196  24.724  37.995   3.303
39903W        W99197   2.255  27.047  11.562
39904W        W99198   4.336   4.900  14.928
39905W        W99199  23.589  34.596   0.930
39906W        W99200  27.025  43.498  13.874
39907W        W99201  11.858  23.533  10.150
39908W        W99202  34.910   4.359   3.235
39909W        W99203  21.655  44.340  14.991
39910W        W99204   4.768  27.654   0.874
39911W        W99205  30.998  19.273   4.614
39912W        W99206  17.302  16.690  10.917
39913W        W99207   3.913  26.006   1.902
39914W        W99208  11.302   7.305  12.359
39915W        W99209  43.998  34.591  11.557
39916W        W99210  23.998  20.735  12.372
39917W        W99211  17.614  16.201  12.516
39918W        W99212   7.375  39.025  11.078
39919W        W99213  14.752  38.449  13.933
39920W        W99214  18.069  40.448  14.778
39921W        W99215   2.810  41.823   4.249
39922W        W99216   9.276  12.825   9.997
39923W        W99217   2.946  30.961   2.718
39924W        W99218  22.028  33.437   4.803
39925W        W99219   1.847   3.949  12.983
39926W        W99220  41.804  11.707   3.799
39927W        W99221  27.560  40.309   5.175
39928W        W99222   8.250  14.283   1.838
39929W        W99223  24.113  15.616   5.259
39930W        W99224   8.168   8.860   0.476
39931W        W99225  21.554  10.651  11.892
39932W        W99226  13.215   1.805  14.974
39933W        W99227  28.057  20.699  12.485
39934W        W99228  15.777   6.763   0.313
39935W        W99229  30.036   9.788   4.796
39936W        W99230  22.187  11.274   3.353
39937W        W99231   7.284   8.682   0.314
39938W        W99232   1.394  18.224  11.503
39939W        W99233  29.657  36.028  10.016
39940W        W99234  44.933  19.244   2.815
39941W        W99235  44.803   4.390  13.862
39942W        W99236  21.579  17.765   1.904
39943W        W99237  27.541  12.763  12.864
39944W        W99238  15.223  11.684  13.977
39945W        W99239  33.441  39.870  14.346
39946W        W99240  36.944  28.509  12.568
39947W        W99241   3.249   6.258   4.152
39948W        W99242  34.591   2.243  12.567
39949W        W99243  13.199   4.316  11.025
39950W        W99244   6.789  32.048   5.099
39951W        W99245  30.630   7.844   3.655
39952W        W99246  22.660   6.825  14.928
39953W        W99247  19.709   1.841   0.749
39954W        W99248  30.074  42.377   4.225
39955W        W99249   8.759  15.190  12.926
39956W        W99250  43.288   0.910   4.274
39957W        W99251  27.972  22.522   1.319
39958W        W99252  42.515  21.618   2.311
39959W        W99253  37.998   0.855  10.088
39960W        W99254   0.934  44.290  11.405
39961W        W99255  11.287  19.059   1.239
39962W        W99256  13.147  38.066   3.166
39963W        W99257  37.380  33.580  12.556
39964W        W99258  43.325  14.764   2.789
39965W        W99259  21.090   7.345   2.734
39966W        W99260   4.250   1.387  12.356
39967W        W99261  32.622  36.913   1.814
39968W        W99262  31.924  36.860   1.709
39969W        W99263  32.424  40.431   1.340
39970W        W99264  19.670  14.595  11.900
39971W        W99265  16.654  36.897   4.716
39972W        W99266  32.036  39.535  12.539
39973W        W99267  20.525  12.675  13.801
39974W        W99268  27.993  22.744  14.370
39975W        W99269   0.845  13.674   2.897
39976W        W99270  36.515  41.016   3.848
39977W        W99271   9.259  11.349  11.072
39978W        W99272  29.579   8.894   1.769
39979W        W99273  39.457  27.455  12.547
39980W        W99274  41.391  43.804  11.029
39981W        W99275  41.018   0.288   1.825
39982W        W99276  20.728  23.673   2.185
39983W        W99277  19.213  29.950  13.429
39984W        W99278  28.658  16.242   2.376
39985W        W99279  34.372  26.601  11.879
39986W        W99280  13.251  42.373  12.976
39987W        W99281  35.384  19.540  14.948
39988W        W99282  22.696  38.458   2.748
39989W        W99283  18.580   6.259  12.389
39990W        W99284  29.651  16.314  14.995
39991W        W99285  15.156  29.118   1.854
39992W        W99286   5.851  37.995   2.322
39993W        W99287  10.262  13.832  13.338
39994W        W99288  15.138  13.200   0.736
39995W        W99289  36.909   4.894   2.236
39996W        W99290   7.230  41.974  12.895
39997W        W99291  34.069   7.280  12.016
39998W        W99292  21.108  41.365  11.373
39999W        W99293  29.036  44.815  14.425
40000W        W99294  10.852  42.335  12.347
40001W        W99295  32.090  11.744   2.200
40002W        W99296  44.317  13.298  14.967
40003W        W99297  42.324  44.776  14.342
40004W        W99298  40.985  17.268   2.825
40005W        W99299   1.809  26.953  14.455
40006W        W99300   5.832  14.702  11.101
40007W        W99301  38.515  28.990  12.393
40008W        W99302  18.650  35.947  13.979
40009W        W99303  38.417  12.348  11.886
40010W        W99304  14.827  25.001  10.644
40011W        W99305   2.269  35.555   3.349
40012W        W99306   2.725   4.887  12.517
40013W        W99307  26.477  37.058  12.382
40014W        W99308  15.744  38.021  13.452
40015W        W99309  24.223  11.839  13.512
40016W        W99310  37.574  12.619   3.850
40017W        W99311  15.112  25.192   0.895
40018W        W99312   8.817   6.190   0.424
40019W        W99313  30.463  16.782  13.438
40020W        W99314  16.723  23.532  11.597
40021W        W99315  38.510   0.782  12.486
40022W        W99316  43.841   0.388  12.913
40023W        W99317  33.009  23.233  13.804
40024W        W99318   1.824  34.913  10.535
40025W        W99319  33.924  23.736  11.886
40026W        W99320  36.890  19.059  14.830
40027W        W99321  11.353   2.768  13.948
40028W        W99322  43.839  26.698  11.060
40029W        W99323  38.963  25.680   0.944
40030W        W99324  44.261  25.067   4.824
40031W        W99325   4.704   2.323  11.527
40032W        W99326  10.741  34.441  12.866
40033W        W99327  22.717  24.665   3.180
40034W        W99328  16.147  43.399  13.439
40035W        W99329  13.835  27.661   4.188
40036W        W99330   6.747  17.682   2.857
40037W        W99331  22.016  10.862   2.342
40038W        W99332   9.766  28.158   3.647
40039W        W99333  38.054  21.748  14.379
40040W        W99334  43.906  44.983   3.191
40041W        W99335  44.991  21.028   0.408
40042W        W99336   1.352  43.280   3.367
40043W        W99337  43.325  38.895  13.893
40044W        W99338  40.904   9.230   0.373
40045W        W99339  13.229  33.581   0.796
40046W        W99340  15.716   2.420  12.946
40047W        W99341  11.244  12.224   3.258
40048W        W99342   8.242  17.077   0.340
40049W        W99343  43.788  36.842   1.315
40050W        W99344  12.633  23.689  10.893
40051W        W99345  12.209  38.472   4.308
40052W        W99346  43.018  35.501  11.998
40053W        W99347  34.582   1.888   0.257
40054W        W99348  11.181  26.634   3.307
40055W        W99349  41.866  40.350  10.998
40056W        W99350  44.358  27.012   3.308
40057W        W99351  30.601  15.231   0.475
40058W        W99352  26.541  38.342   0.395
40059W        W99353   9.297  28.163  13.866
40060W        W99354  27.479  36.350   1.772
40061W        W99355  10.193  16.657   3.646
40062W        W99356   2.460  24.114  12.944
40063W        W99357  16.599  13.135  14.287
40064W        W99358  34.045  43.381  14.772
40065W        W99359  28.056  11.701  13.963
40066W        W99360  29.425  32.433   0.769
40067W        W99361  10.636   0.405  13.926
40068W        W99362  39.496  37.925  10.916
40069W        W99363  35.363  20.109  11.404
40070W        W99364  38.843   4.229  10.633
40071W        W99365  22.675  10.287   4.801
40072W        W99366  36.895  40.533   1.861
40073W        W99367   2.343  42.297   2.380
40074W        W99368  24.645  10.363  13.927
40075W        W99369  36.992  20.664   0.421
40076W        W99370  24.652  24.497  13.904
40077W        W99371   9.222   1.454  13.967
40078W        W99372  13.759  12.749   2.247
40079W        W99373   4.274  42.393  14.020
40080W        W99374  24.086  18.288  10.139
40081W        W99375   5.740  22.504  13.450
40082W        W99376  36.974  19.219   1.841
40083W        W99377  39.939   6.751   1.214
40084W        W99378  43.339  24.140   1.244
40085W        W99379  26.177  18.712  13.345
40086W        W99380  30.104  16.668  12.394
40087W        W99381  39.343  19.759   4.640
40088W        W99382  16.247  23.074  11.127
40089W        W99383  27.594   4.437   0.329
40090W        W99384   0.767   4.940   0.350
40091W        W99385  19.770  13.278   0.399
40092W        W99386  29.620  16.728   1.694
40093W        W99387  25.517  19.257  10.951
40094W        W99388  12.265  22.548  14.312
40095W        W99389   7.855  35.382   1.377
40096W        W99390  34.379   6.835  14.882
40097W        W99391  39.465  15.749  11.435
40098W        W99392  18.718  11.784   1.271
40099W        W99393  27.596  37.356   3.717
40100W        W99394   5.219  30.081   2.727
40101W        W99395  18.254  26.538   9.986
40102W        W99396  18.256  30.570  11.931
40103W        W99397   2.287  14.326  10.456
40104W        W99398  26.019  28.024  10.537
40105W        W99399  22.529  43.775   3.839
40106W        W99400   5.304  26.539   4.269
40107W        W99401  44.463  17.608  14.376
40108W        W99402  22.249   8.371  14.401
40109W        W99403   7.328  28.018   1.914
40110W        W99404  27.517  29.498   4.322
40111W        W99405  16.099  38.071   1.881
40112W        W99406   2.355   0.801  12.833
40113W        W99407  26.065   5.810  12.481
40114W        W99408   0.493  20.643  13.996
40115W        W99409  29.160  27.592  14.868
40116W        W99410  43.463  19.536  11.518
40117W        W99411  22.576  39.549   1.915
40118W        W99412  22.546  22.549   3.639
40119W        W99413   1.900  15.738   4.216
40120W        W99414  27.167   8.179   3.377
40121W        W99415  32.582  23.714  11.044
40122W        W99416  22.683  29.132   4.283
40123W        W99417  40.372  29.427   5.226
40124W        W99418   9.188   7.694   2.385
40125W        W99419  27.448  18.144   1.340
40126W        W99420  41.377  32.437   3.351
40127W        W99421   9.862  29.982  12.028
40128W        W99422  44.266  23.601   2.368
40129W        W99423  11.749  14.268   5.106
40130W        W99424  18.156   6.691   1.714
40131W        W99425  42.281   9.799   3.665
40132W        W99426  30.022  41.973   0.481
40133W        W99427  36.938  37.072  11.924
40134W        W99428  16.807  20.764   2.789
40135W        W99429  43.352  43.416  13.345
40136W        W99430   1.394  30.100   4.277
40137W        W99431  34.081   6.352  14.894
40138W        W99432  38.965  13.747   4.204
40139W        W99433   6.916  32.481  11.024
40140W        W99434  31.534  33.118   3.229
40141W        W99435  11.687  10.357  11.397
40142W        W99436  37.063   1.328  13.540
40143W        W99437  26.129  24.188  12.068
40144W        W99438   9.151   3.262   1.850
40145W        W99439  32.043   2.408   4.620
40146W        W99440  17.767  31.508  10.982
40147W        W99441  16.729  29.146  13.461
40148W        W99442  13.197  33.004   4.313
40149W        W99443   9.693   0.273   3.777
40150W        W99444  23.167   3.902   2.368
40151W        W99445  20.263   3.448  12.823
40152W        W99446  17.142  44.471   3.274
40153W        W99447   7.374   2.883   0.739
40154W        W99448  12.262  44.816  10.944
40155W        W99449   7.728  33.963  11.605
40156W        W99450  39.908  37.493   2.264
40157W        W99451  20.123  31.973  11.584
40158W        W99452  42.456  39.399   3.313
40159W        W99453   5.322  28.571   3.653
40160W        W99454  20.258  32.417  14.445
40161W        W99455  27.679  41.950  11.970
40162W        W99456  38.947   5.852  11.900
40163W        W99457  29.452  44.003   1.230
40164W        W99458  23.582   1.849   1.851
40165W        W99459   3.745  16.190  10.606
40166W        W99460  19.760  37.366   4.179
40167W        W99461  22.624  35.520  10.525
40168W        W99462  40.899  35.445  10.550
40169W        W99463  20.546  14.309   1.807
40170W        W99464  38.971  16.591   3.737
40171W        W99465  30.104  38.867   3.184
40172W        W99466  21.530  30.165   0.428
40173W        W99467  33.445  29.611   1.781
40174W        W99468   8.301  25.145  12.882
40175W        W99469   2.887  44.301  12.883
40176W        W99470  34.102  16.660   4.247
40177W        W99471  11.753  23.568   2.382
40178W        W99472  41.447  37.905  14.498
40179W        W99473  36.079  18.066  10.906
40180W        W99474  43.427  16.294   1.828
40181W        W99475   3.857   6.889   1.328
40182W        W99476  14.596  28.182   4.601
40183W        W99477   1.877  10.244   2.344
40184W        W99478  23.621  40.906  13.351
40185W        W99479   3.916  41.477  14.277
40186W        W99480   0.967  10.764  12.443
40187W        W99481  29.518   1.774   0.860
40188W        W99482  13.777  23.028   2.726
40189W        W99483   7.174  22.028   0.297
40190W        W99484  23.015  25.980  14.021
40191W        W99485   0.400  20.706   1.837
40192W        W99486   7.288  35.970  14.959
40193W        W99487   2.444   6.919   0.833
40194W        W99488   8.262  25.702   2.254
40195W        W99489  31.459  30.019  11.934
40196W        W99490  42.926   0.895   2.229
40197W        W99491  17.763  13.319  14.481
40198W        W99492  40.845   1.423   2.761
40199W        W99493  14.786  10.803   4.182
40200W        W99494  33.505   5.438   1.905
40201W        W99495  21.031  42.980  13.348
40202W        W99496  11.365  11.690   1.290
40203W        W99497  29.977   4.823   1.795
40204W        W99498   5.293  38.406   0.876
40205W        W99499  37.390  25.033   2.833
40206W        W99500   2.448   4.710  10.939
40207W        W99501   3.297  42.796  12.527
40208W        W99502  34.471  35.065   3.206
40209W        W99503  30.047  16.314  12.063
40210W        W99504  37.011  26.477  10.475
40211W        W99505   4.385   3.322   2.398
40212W        W99506  38.440  10.787   0.772
40213W        W99507  29.429  15.100   4.261
40214W        W99508  10.766  42.387   0.952
40215W        W99509  26.096   8.794  13.960
40216W        W99510  35.596   2.431   4.680
40217W        W99511  40.918  16.243   1.761
40218W        W99512   6.428  33.484  11.983
40219W        W99513  37.444  18.764   3.651
40220W        W99514  21.200  14.733  14.436
40221W        W99515  20.207  38.060   4.324
40222W        W99516   2.855  22.181  14.368
40223W        W99517   2.431  33.043  11.385
40224W        W99518  42.453  43.455   3.236
40225W        W99519   3.293  44.504  11.029
40226W        W99520  23.040  21.592  13.932
40227W        W99521  26.668   8.337  11.512
40228W        W99522  34.050  13.327  13.533
40229W        W99523  12.182  31.144   0.289
40230W        W99524  21.520  21.040   0.777
40231W        W99525  27.489  10.335  11.017
40232W        W99526   0.346   0.355  12.064
40233W        W99527  23.533   0.310  14.773
40234W        W99528  34.989  16.257  14.003
40235W        W99529  36.079  12.267   4.663
40236W        W99530  41.437  33.466  14.858
40237W        W99531  12.337   9.384   1.353
40238W        W99532  15.778  15.713   2.299
40239W        W99533  23.680  41.299   2.806
40240W        W99534  38.009  33.921  13.392
40241W        W99535  17.265  39.467  10.036
40242W        W99536  43.968  11.195   2.307
40243W        W99537  10.257   3.780   3.344
40244W        W99538  29.175  29.435  12.925
40245W        W99539  28.476  32.569  12.409
40246W        W99540  38.932   1.860   2.344
40247W        W99541  26.126  41.789   1.317
40248W        W99542  22.661  13.714  12.502
40249W        W99543  39.976  31.042  11.515
40250W        W99544  10.786  32.627   5.246
40251W        W99545   6.680  10.878   0.803
40252W        W99546  24.548  16.767  11.535
40253W        W99547  27.153  19.188  12.954
40254W        W99548  18.685  10.248   4.311
40255W        W99549   7.378   4.316   3.347
40256W        W99550  39.892  16.247  14.345
40257W        W99551   7.181   8.240  13.803
40258W        W99552   9.798  42.787   4.822
40259W        W99553  31.641   7.180   1.444
40260W        W99554  37.992  33.465   0.833
40261W        W99555  44.924  17.566   3.797
40262W        W99556  10.804  25.683  14.894
40263W        W99557   7.223  42.432  10.545
40264W        W99558   9.643   1.481  14.970
40265W        W99559   8.872  23.618   3.813
40266W        W99560  22.701  30.642   3.730
40267W        W99561  36.368  14.252   3.674
40268W        W99562  44.457  30.989   4.601
40269W        W99563   0.853  20.213   4.329
40270W        W99564  24.180  20.219  11.023
40271W        W99565  32.557  17.189   1.847
40272W        W99566  26.107  31.436  14.491
40273W        W99567   0.872  10.272   1.699
40274W        W99568  13.160  11.209  11.943
40275W        W99569   2.361   5.392  10.493
40276W        W99570  32.432  32.888  14.838
40277W        W99571  12.841  30.517  11.448
40278W        W99572  30.507  34.587   2.190
40279W        W99573  25.135   5.258  12.425
40280W        W99574  42.862  41.966   3.660
40281W        W99575   9.339  10.210  12.455
40282W        W99576  18.628  19.146   0.471
40283W        W99577  28.448  42.459  11.103
40284W        W99578  44.504   7.668   4.643
40285W        W99579  28.464  18.093  12.428
40286W        W99580  23.716  17.580  12.398
40287W        W99581   3.765  11.757   0.933
40288W        W99582  26.075  16.290   2.737
40289W        W99583  23.533  22.641   1.856
40290W        W99584  36.372   4.355  14.924
40291W        W99585   1.762  25.580  11.433
40292W        W99586  17.681  41.833   1.309
40293W        W99587  17.231  23.685   2.838
40294W        W99588  12.150  32.965   1.242
40295W        W99589  19.126  22.516   1.398
40296W        W99590  20.070   4.902   4.800
40297W        W99591  33.390  37.522  13.009
40298W        W99592  38.057  11.771   1.892
40299W        W99593  39.428  29.104   3.630
40300W        W99594  25.602  32.563  12.492
40301W        W99595  33.078  40.304  10.445
40302W        W99596   9.379   4.286   1.285
40303W        W99597  19.572  31.502   0.885
40304W        W99598  20.254  36.993   0.799
40305W        W99599   9.698  36.360   0.419
40306W        W99600  38.503  14.254  11.495
40307W        W99601  34.389  32.046  13.423
40308W        W99602  24.713  42.906   4.226
40309W        W99603   3.344  25.640   4.244
40310W        W99604  34.478  16.703   3.733
40311W        W99605  21.176  20.524   3.725
40312W        W99606  14.669  19.176   0.952
40313W        W99607  10.356  44.503   4.183
40314W        W99608   4.275  29.476  11.546
40315W        W99609  41.922  24.723   1.363
40316W        W99610  18.070   5.359   0.484
40317W        W99611  27.116  15.823  11.999
40318W        W99612   2.789  33.911  14.358
40319W        W99613  35.475  21.060  12.054
40320W        W99614  27.447   4.207   1.820
40321W        W99615  37.504   0.923   5.147
40322W        W99616  23.164  11.299   1.795
40323W        W99617  11.658  39.025  12.034
40324W        W99618  24.546   5.316   1.708
40325W        W99619  27.507  18.640  12.979
40326W        W99620  36.486  23.015   0.759
40327W        W99621   9.658  26.610  14.344
40328W        W99622  31.647  10.736   4.647
40329W        W99623  32.551  31.473   2.268
40330W        W99624   3.717   2.335   3.160
40331W        W99625  31.585  16.713   0.396
40332W        W99626  36.515  25.202   3.357
40333W        W99627  28.508   3.221  13.388
40334W        W99628  10.371  32.932   4.318
40335W        W99629  13.827   8.895   3.710
40336W        W99630  16.703  10.322   1.782
40337W        W99631  34.115  15.731  10.466
40338W        W99632   9.817  15.327  11.118
40339W        W99633  28.991  44.867  13.514
40340W        W99634  15.759  24.643   3.213
40341W        W99635   0.813  28.952  11.472
40342W        W99636  12.637   7.259   0.440
40343W        W99637   8.845  28.026  13.919
40344W        W99638  22.209  29.071   2.837
40345W        W99639  26.177   0.383   2.780
40346W        W99640  24.157   1.825   0.873
40347W        W99641  13.181   3.868   2.317
40348W        W99642   0.331  13.155  11.479
40349W        W99643  16.589  15.313   0.736
40350W        W99644   9.288  20.769  14.904
40351W        W99645  33.613  15.248  12.511
40352W        W99646   8.680  30.416  13.403
40353W        W99647  43.936  21.230   1.875
40354W        W99648  19.642  30.639   1.337
40355W        W99649  18.687  26.577  14.815
40356W        W99650   0.370  12.244   1.424
40357W        W99651   2.349  28.558  14.488
40358W        W99652  11.628  32.056   0.894
40359W        W99653   9.654   3.731   4.231
40360W        W99654  33.520   4.792   4.735
40361W        W99655   0.261  28.587  11.540
40362W        W99656  38.355   1.322  14.483
40363W        W99657  25.577  39.376   9.645
40364W        W99658  32.097  29.128  12.846
40365W        W99659  39.015   7.411   3.256
40366W        W99660  36.052  23.727   2.763
40367W        W99661  34.919   1.440   1.233
40368W        W99662  41.531   8.657  13.006
40369W        W99663  21.663  36.959  11.428
40370W        W99664  16.188  12.631  13.849
40371W        W99665  23.515   7.734  13.331
40372W        W99666   8.830   1.784  12.984
40373W        W99667  31.416   2.445  13.860
40374W        W99668  15.686   3.403  12.436
40375W        W99669  39.350   1.789  12.508
40376W        W99670  30.611  24.711   3.744
40377W        W99671  19.045  21.211  14.837
40378W        W99672  34.002  37.845  14.889
40379W        W99673  44.942  13.126   2.246
40380W        W99674  38.401   6.786  11.946
40381W        W99675   1.368   5.795  13.308
40382W        W99676  36.384  19.752  13.818
40383W        W99677  21.639  27.529  10.550
40384W        W99678  21.146   8.262  12.981
40385W        W99679   4.854  27.494   1.699
40386W        W99680  17.222  24.672  10.577
40387W        W99681  39.820   5.692   1.826
40388W        W99682  43.945  14.772  14.287
40389W        W99683  43.833  15.762  11.084
40390W        W99684  20.122  34.888   4.659
40391W        W99685  12.136  16.690   1.755
40392W        W99686  12.164  42.029   3.361
40393W        W99687  15.756  16.580  11.502
40394W        W99688  15.211  20.628  11.976
40395W        W99689  26.095  22.743   3.832
40396W        W99690  12.135   4.899   3.328
40397W        W99691   3.714  12.661  10.498
40398W        W99692  32.970   2.250  14.406
40399W        W99693  21.063  37.857   1.760
40400W        W99694  23.985  43.484  13.902
40401W        W99695  22.049   5.767  14.791
40402W        W99696  44.426  20.761   1.261
40403W        W99697  26.604  21.225   2.721
40404W        W99698  38.405  24.490  10.532
40405W        W99699  10.664  35.918  12.349
40406W        W99700   4.231  20.759   9.466
40407W        W99701   3.267  14.277   0.928
40408W        W99702  18.648  30.064   1.805
40409W        W99703  20.698  38.393  12.426
40410W        W99704  15.213  32.077  11.588
40411W        W99705  36.892  31.603   5.736
40412W        W99706  13.813  17.073   4.268
40413W        W99707  14.786  22.137  13.469
40414W        W99708   1.305  19.747  12.445
40415W        W99709  15.616  21.148  13.522
40416W        W99710  20.594  11.318  12.442
40417W        W99711  18.764  22.606   1.749
40418W        W99712   0.403  31.917  12.501
40419W        W99713  26.117  17.175  13.444
40420W        W99714  37.492  15.257   3.147
40421W        W99715  15.606  18.228  14.818
40422W        W99716  35.868   5.930  12.010
40423W        W99717   2.804  12.786   4.281
40424W        W99718  18.293  44.796  14.929
40425W        W99719  41.988  28.987   2.825
40426W        W99720  27.556  25.559   1.863
40427W        W99721  37.031  31.033   3.658
40428W        W99722   5.300   2.469   0.479
40429W        W99723  34.583  36.379  10.564
40430W        W99724  31.057   2.849   3.345
40431W        W99725  20.096  26.472  13.385
40432W        W99726   0.839  16.137  14.972
40433W        W99727  27.021   9.756  12.480
40434W        W99728  28.485  43.292   4.774
40435W        W99729   5.706   3.443   1.338
40436W        W99730  37.852  38.556  10.958
40437W        W99731   7.351  13.275   4.252
40438W        W99732   9.793  18.672   0.943
40439W        W99733  12.313  14.619   1.879
40440W        W99734  26.113  33.419   0.335
40441W        W99735  25.204  29.146   4.670
40442W        W99736  27.549  10.362   1.228
40443W        W99737   8.737  40.978  13.490
40444W        W99738  11.715  26.568   4.342
40445W        W99739  28.935   9.707   2.790
40446W        W99740   9.363  23.984  10.555
40447W        W99741   2.415  17.243   0.915
40448W        W99742  36.448  33.887   9.492
40449W        W99743  17.061   2.863  10.636
40450W        W99744  35.947  23.090  10.599
40451W        W99745   9.657   8.390   4.137
40452W        W99746  18.278  25.166  11.553
40453W        W99747  18.282  35.000   1.715
40454W        W99748   9.763  36.480   4.816
40455W        W99749  33.997   5.225   2.857
40456W        W99750  23.992  17.168   0.933
40457W        W99751  30.644  28.055  13.467
40458W        W99752  13.688   0.985   1.748
40459W        W99753  13.270  15.591  11.531
40460W        W99754   2.417  30.037  12.975
40461W        W99755  21.064  28.014   3.319
40462W        W99756  40.889   0.900   3.335
40463W        W99757  25.980  23.100   2.702
40464W        W99758   1.438  29.477  13.481
40465W        W99759  43.941  42.909   4.791
40466W        W99760   3.281  27.982  12.419
40467W        W99761  31.063   0.900  11.896
40468W        W99762  23.622  24.101   1.760
40469W        W99763  13.130  30.947  12.933
40470W        W99764   9.249   4.712  13.925
40471W        W99765  33.515  39.552   0.867
40472W        W99766  14.179  19.534   3.362
40473W        W99767  14.253   9.177   1.837
40474W        W99768   0.811   1.891   2.743
40475W        W99769  32.415  12.649   1.449
40476W        W99770   3.430  31.559  11.585
40477W        W99771  22.621  10.171   3.734
40478W        W99772  36.903   3.329   3.344
40479W        W99773  24.669  20.101  11.463
40480W        W99774  11.194  12.640  14.996
40481W        W99775  25.090  30.037  13.903
40482W        W99776  19.137  31.128  12.523
40483W        W99777  40.443  41.534  11.066
40484W        W99778  26.201  41.024  14.924
40485W        W99779  39.481  43.282  14.452
40486W        W99780  15.724  28.942  12.873
40487W        W99781  26.003  39.347   9.946
40488W        W99782  10.686  41.533   2.766
40489W        W99783  25.077  28.170  10.623
40490W        W99784  18.754  38.535   0.284
40491W        W99785  33.927  20.141  14.788
40492W        W99786  18.751  34.478   3.690
40493W        W99787  32.088   1.293   3.375
40494W        W99788   9.749  22.699   9.950
40495W        W99789  28.080  20.587  12.899
40496W        W99790  19.146  17.733   2.322
40497W        W99791  34.501  29.626   2.689
40498W        W99792  44.407  13.109   4.354
40499W        W99793  10.272   9.298   4.682
40500W        W99794  27.044  29.055   4.640
40501W        W99795  33.410  42.027   3.348
40502W        W99796   7.406  24.480   4.781
40503W        W99797  40.421  33.980   0.249
40504W        W99798  12.189  27.518   3.380
40505W        W99799  29.943  20.221  11.557
40506W        W99800  10.695  20.095   0.309
40507W        W99801  32.532  31.471  12.886
40508W        W99802  44.987  25.587  14.457
40509W        W99803  43.482   6.793  13.967
40510W        W99804   3.934   6.268   9.993
40511W        W99805   1.883  18.736   2.667
40512W        W99806   1.894  37.491   0.400
40513W        W99807   9.810   6.805  14.310
40514W        W99808  17.090   8.656  13.422
40515W        W99809  36.097  16.765  13.518
40516W        W99810  22.664   6.349   4.267
40517W        W99811   9.880  27.994   1.748
40518W        W99812  23.992  30.627   1.715
40519W        W99813  12.614  39.946  12.947
40520W        W99814   2.795  30.452  13.314
40521W        W99815  15.110  31.408  14.400
40522W        W99816  36.376   0.772  14.856
40523W        W99817  16.731   8.713   4.282
40524W        W99818   6.261   6.380  10.420
40525W        W99819  11.819   4.894  13.830
40526W        W99820  26.183  36.024  12.849
40527W        W99821   5.697  44.876  11.412
40528W        W99822  26.518   8.274   4.146
40529W        W99823   9.827  27.184   2.186
40530W        W99824  10.784  44.375   2.891
40531W        W99825   6.290  40.463  11.411
40532W        W99826   1.842  14.616   4.251
40533W        W99827  14.171  33.080  13.837
40534W        W99828  43.988   3.239   1.721
40535W        W99829   3.742  11.828   1.837
40536W        W99830   6.687   5.706  13.944
40537W        W99831  42.813  44.262  12.569
40538W        W99832  28.527  29.635   2.334
40539W        W99833   9.368  24.156   0.912
40540W        W99834  21.530  37.427   5.282
40541W        W99835  32.024  21.224  11.124
40542W        W99836  32.633  26.689   2.826
40543W        W99837  40.995  25.969  14.887
40544W        W99838  25.095  32.627  10.456
40545W        W99839   7.665   5.264  13.502
40546W        W99840  42.800  39.406  14.834
40547W        W99841   7.822   9.172   2.352
40548W        W99842  20.635  21.108  14.018
40549W        W99843  27.158  14.164  13.540
40550W        W99844  15.595  42.944  11.555
40551W        W99845  23.641   8.704  14.981
40552W        W99846  11.718  26.679   3.862
40553W        W99847  20.718  38.499  10.925
40554W        W99848   6.860  18.153  14.514
40555W        W99849  38.511  21.530  11.522
40556W        W99850  23.697  44.335   2.791
40557W        W99851  42.454   1.478   1.777
40558W        W99852  26.004  30.539   0.409
40559W        W99853  20.634  44.806  13.355
40560W        W99854  18.756  40.317   2.681
40561W        W99855  18.236  38.042   4.301
40562W        W99856  27.191   7.847  10.982
40563W        W99857  24.700   7.264   2.396
40564W        W99858  22.037  10.854   1.897
40565W        W99859  29.460  20.703   1.827
40566W        W99860  33.089  14.222  13.968
40567W        W99861  32.517  21.536  11.079
40568W        W99862  33.583   4.273  12.887
40569W        W99863  43.354  36.446  12.557
40570W        W99864  32.518  13.667   1.728
40571W        W99865  38.072  25.507  11.016
40572W        W99866  40.403  25.092   0.886
40573W        W99867  38.511   1.921   1.245
40574W        W99868  20.712  21.125   0.459
40575W        W99869   4.341  22.188  14.279
40576W        W99870  12.355  28.627  11.557
40577W        W99871  34.605  38.941   2.344
40578W        W99872  34.596   2.431   3.242
40579W        W99873  34.090   6.229  13.044
40580W        W99874   3.953   1.450   1.763
40581W        W99875  44.919  35.982  13.315
40582W        W99876   3.946  23.182  11.412
40583W        W99877  34.933  21.597   1.771
40584W        W99878  38.445  16.651  13.313
40585W        W99879  30.641  33.481  11.911
40586W        W99880  28.641  43.512  12.482
40587W        W99881   0.273  20.725   2.754
40588W        W99882  36.457  40.997  13.017
40589W        W99883  22.126   0.800  14.339
40590W        W99884  24.204   5.273  11.462
40591W        W99885  26.191  34.497   1.216
40592W        W99886  28.983  28.647  11.438
40593W        W99887  30.058  42.312   4.697
40594W        W99888  35.379  21.666   4.625
40595W        W99889  20.594  21.077  13.470
40596W        W99890  12.724   5.778   3.318
40597W        W99891   6.208  28.046   3.726
40598W        W99892  44.334  22.201  11.993
40599W        W99893  37.087  28.123   0.251
40600W        W99894  32.898  16.091  14.960
40601W        W99895  16.117  18.158   1.324
40602W        W99896  39.062  20.039  11.420
40603W        W99897   3.720  43.329   2.747
40604W        W99898   5.775  33.082   2.194
40605W        W99899  41.013  32.471  11.377
40606W        W99900  19.739  25.695  14.290
40607W        W99901  10.807   8.211   3.801
40608W        W99902  18.554  35.855  10.048
40609W        W99903  13.264  33.999  11.919
40610W        W99904  23.217   3.417   4.771
40611W        W99905  18.626  39.400   1.848
40612W        W99906  28.623   3.878  13.485
40613W        W99907   1.786  44.457   2.281
40614W        W99908  20.617  36.846  11.493
40615W        W99909  38.526   5.275   1.316
40616W        W99910  43.828  34.588   4.246
40617W        W99911  16.236  27.995   3.148
40618W        W99912  43.448  10.140   1.414
40619W        W99913  41.319  21.688   0.359
40620W        W99914  16.225   4.341  11.537
40621W        W99915  34.470  31.514  11.584
40622W        W99916  31.134  17.277  14.303
40623W        W99917  38.365  26.468   3.173
40624W        W99918  27.150   0.856  11.439
40625W        W99919  28.679  37.952   3.810
40626W        W99920  42.841  36.095   3.836
40627W        W99921  41.854  20.566   3.715
40628W        W99922  33.059  18.781  12.023
40629W        W99923  20.633  36.473  10.957
40630W        W99924  39.957   2.315   0.436
40631W        W99925   9.883  43.824  11.969
40632W        W99926  28.163   2.915   3.757
40633W        W99927  18.558  20.753  12.873
40634W        W99928  24.561  23.700   2.724
40635W        W99929  23.658  32.067  12.578
40636W        W99930   1.969  44.478  12.847
40637W        W99931  18.226  20.130  12.898
40638W        W99932  26.085  24.564  14.881
40639W        W99933  19.084  27.030   4.341
40640W        W99934  34.090  19.685   0.758
40641W        W99935  43.463  31.071  10.628
40642W        W99936   6.751  41.926  14.446
40643W        W99937  31.019  35.428  14.932
40644W        W99938  42.835  34.469  13.951
40645W        W99939  20.239  34.920  11.881
40646W        W99940  43.405  11.368   2.805
40647W        W99941   7.854  25.156  10.550
40648W        W99942   8.769   6.879   0.480
40649W        W99943  44.361  19.190   0.814
40650W        W99944  34.430  23.671  10.975
40651W        W99945  13.723  11.211  14.028
40652W        W99946   4.351   0.387  13.023
40653W        W99947  16.107  36.044  14.452
40654W        W99948  42.435  23.648   2.697
40655W        W99949  37.549  21.246   2.687
40656W        W99950  40.345   0.953   3.188
40657W        W99951  42.308  22.074   2.798
40658W        W99952  42.019  28.664  11.587
40659W        W99953  11.819  17.066  13.018
40660W        W99954  39.316   7.701   5.236
40661W        W99955   7.853  24.562  14.812
40662W        W99956   4.415  36.485   2.416
40663W        W99957  29.002  11.127   4.628
40664W        W99958  10.777  34.391  12.482
40665W        W99959  42.324  15.804   2.309
40666W        W99960  44.376   4.865   3.773
40667W        W99961  28.952  30.435   3.183
40668W        W99962  14.337  10.736  12.507
40669W        W99963  35.361  24.659  12.036
40670W        W99964  15.620  17.279   0.372
40671W        W99965  16.583   3.297  12.530
40672W        W99966  23.197  18.203  12.385
40673W        W99967  14.656  33.419  14.361
40674W        W99968  24.606  23.567   3.275
40675W        W99969  35.972  33.905   2.797
40676W        W99970  44.817  27.453  10.612
40677W        W99971  43.794  33.487  14.786
40678W        W99972  13.338  25.704   3.687
40679W        W99973   3.449   2.942  10.965
40680W        W99974  21.113  30.025   4.815
40681W        W99975  18.694  34.096  14.881
40682W        W99976  22.075  41.942   0.276
40683W        W99977  38.031  42.983   2.272
40684W        W99978  11.852   5.287   3.788
40685W        W99979  26.204  16.303  13.866
40686W        W99980  25.151  14.727   5.321
40687W        W99981  19.542  43.498  13.861
40688W        W99982  31.438   7.318   0.835
40689W        W99983  35.050  27.009   1.291
40690W        W99984  42.399   2.230   4.712
40691W        W99985   1.435  44.003  10.015
40692W        W99986  29.581   9.758   3.192
40693W        W99987  39.931  19.243   2.768
40694W        W99988  25.534  20.719   4.315
40695W        W99989  12.763  39.378   4.301
40696W        W99990  29.438  30.498  11.081
40697W        W99991  43.939  38.946  12.339
40698W        W99992   4.423  10.650   2.375
40699W        W99993  36.507  34.611  13.441
40700W        W99994  29.156  38.522  11.122
40701W        W99995  24.542  29.434   0.356
40702W        W99996  13.319  22.171  14.375
40703W        W99997  14.201  29.927   0.840
40704W        W99998  24.987  20.081   1.719
40705W        W99999  12.623  19.624   3.176
40706W        W    0  29.633   4.845   0.917
40707W        W    1   3.290  17.555   3.721
40708W        W    2  30.010  20.068   3.264
40709W        W    3  22.557  20.129  14.922
40710W        W    4  41.403  35.854  14.349
40711W        W    5   0.417  34.583  11.964
40712W        W    6   8.678  37.010   3.793
40713W        W    7  25.636   2.813  13.903
40714W        W    8  17.073  19.262   3.691
40715W        W    9  17.614  43.297  12.448
40716W        W   10  10.666   0.848   0.245
40717W        W   11  24.992  14.793   0.898
40718W        W   12  36.959  10.237   1.717
40719W        W   13  41.793  34.512  12.890
40720W        W   14  15.752  21.673   1.332
40721W        W   15   7.804  43.983  10.044
40722W        W   16  17.268  43.764  12.879
40723W        W   17  38.016  20.172  12.469
40724W        W   18  16.699  10.664  14.423
40725W        W   19  10.643  36.479  14.764
40726W        W   20  42.326  16.567   1.801
40727W        W   21  40.969   8.194  11.980
40728W        W   22  24.582  11.324   1.814
40729W        W   23  18.151  43.361   3.832
40730W        W   24  27.018  43.418   2.377
40731W        W   25  15.694  20.195   0.799
40732W        W   26   9.858   1.253   3.641
40733W        W   27  25.596  37.901   0.772
40734W        W   28  40.959  33.053  14.763
40735W        W   29   3.902  32.912   1.430
40736W        W   30  12.732  16.086   3.311
40737W        W   31  41.304  38.897  12.489
40738W        W   32  17.762   9.242  14.834
40739W        W   33  31.450  37.002   1.776
40740W        W   34  27.009   0.907  13.412
40741W        W   35  42.987  20.610  12.027
40742W        W   36  28.137  35.096   4.677
40743W        W   37  20.558   7.846   3.303
40744W        W   38  42.869  38.565  14.848
40745W        W   39  11.830  24.048   0.434
40746W        W   40  20.117  10.377   0.887
40747W        W   41  38.477  35.931  14.844
40748W        W   42   4.369  29.512   4.300
40749W        W   43  16.121  13.208  14.469
40750W        W   44   0.843  25.688   1.831
40751W        W   45  23.624   0.770   0.447
40752W        W   46  17.740  25.111  10.630
40753W        W   47  39.474  34.592   3.163
40754W        W   48  11.699  21.526   2.272
40755W        W   49  16.132  21.130  14.789
40756W        W   50  36.941  13.256  12.885
40757W        W   51  15.274   5.199   4.119
40758W        W   52  13.217  16.589   2.899
40759W        W   53   0.247   0.437   5.137
40760W        W   54  25.026   7.747   0.811
40761W        W   55  22.628   7.880   1.828
40762W        W   56  26.496  16.808   0.432
40763W        W   57  21.628  15.291   4.181
40764W        W   58  19.133  41.419  13.368
40765W        W   59  13.135  31.024   2.298
40766W        W   60   2.238  22.636   2.215
40767W        W   61   8.877  33.604   0.290
40768W        W   62  35.449  25.147   3.797
40769W        W   63  12.118   8.758  14.970
40770W        W   64  41.503   3.914  12.979
40771W        W   65  35.897  34.919  12.890
40772W        W   66  35.516  20.654  14.364
40773W        W   67  25.188  32.995  13.859
40774W        W   68  20.654  43.309   1.847
40775W        W   69   3.859  25.151   0.350
40776W        W   70  11.768  17.753  14.001
40777W        W   71  10.877   3.886  11.463
40778W        W   72  16.656  19.135  12.970
40779W        W   73  14.731  10.280  12.062
40780W        W   74  42.963  44.995  14.829
40781W        W   75  15.118  12.140  11.870
40782W        W   76  27.666  10.366   2.721
40783W        W   77  13.169  33.431   0.398
40784W        W   78  14.153  42.787  12.008
40785W        W   79  29.963   7.879   1.763
40786W        W   80  44.816  31.534  14.375
40787W        W   81  41.814  36.413   0.822
40788W        W   82  24.481  14.181  14.445
40789W        W   83  41.821  25.119  14.514
40790W        W   84  37.350  12.715   3.242
40791W        W   85  29.067  17.090  13.463
40792W        W   86  22.543  39.907   4.806
40793W        W   87  36.533  10.210   2.776
40794W        W   88  25.116  15.608  14.348
40795W        W   89  14.214  42.357   4.627
40796W        W   90  14.813  44.259   2.202
40797W        W   91  33.387  23.638  13.308
40798W        W   92  34.449  30.055   4.759
40799W        W   93  22.635  24.678  13.860
40800W        W   94  34.467  27.029  13.982
40801W        W   95   6.756  28.588   2.777
40802W        W   96  34.108  39.926  12.999
40803W        W   97  19.048  26.482  13.966
40804W        W   98  32.939  16.122  13.016
40805W        W   99  30.156   9.769  14.449
40806W        W  100  21.707  18.134   1.849
40807W        W  101  32.085  32.914   3.251
40808W        W  102  33.030  28.155   4.136
40809W        W  103  16.730  23.704  14.444
40810W        W  104  14.211  39.026  10.582
40811W        W  105   5.721   6.734  12.881
40812W        W  106  24.147  31.024   1.338
40813W        W  107  10.874  37.937  14.376
40814W        W  108  16.802   9.253  14.781
40815W        W  109  27.953  34.419  12.359
40816W        W  110  20.152  25.577   1.338
40817W        W  111  40.808  44.353  12.030
40818W        W  112  10.216   9.836  11.903
40819W        W  113   7.860  24.491   1.366
40820W        W  114  12.630   2.798  11.084
40821W        W  115  19.549  26.574  10.904
40822W        W  116   0.852  14.780   4.689
40823W        W  117  25.615  35.422  11.428
40824W        W  118  13.629   0.828   3.752
40825W        W  119  31.521   6.386  14.362
40826W        W  120  42.014  25.091   3.288
40827W        W  121  36.467  29.135   0.756
40828W        W  122  11.842   8.847   1.217
40829W        W  123  39.977   5.380   3.200
40830W        W  124  42.525   3.416  11.010
40831W        W  125  36.401  34.438  12.894
40832W        W  126  24.024  11.159  11.862
40833W        W  127  10.309  11.830   3.694
40834W        W  128  34.919  43.437   3.363
40835W        W  129   0.353  26.133   0.738
40836W        W  130   7.783  28.138  10.564
40837W        W  131  10.664  27.557  13.060
40838W        W  132  34.913  34.557   9.574
40839W        W  133  40.507   7.288  13.895
40840W        W  134  22.601  43.474  12.373
40841W        W  135   2.823  38.470  11.927
40842W        W  136  22.698  11.365   3.284
40843W        W  137  37.422  27.571  14.400
40844W        W  138  10.346  35.430  10.956
40845W        W  139   6.321  11.293  13.900
40846W        W  140  20.571  21.107  10.458
40847W        W  141  25.063   3.368  12.987
40848W        W  142   2.778  18.694   0.893
40849W        W  143  15.104  15.820  14.914
40850W        W  144  33.567   2.720  10.147
40851W        W  145  20.550   0.313  14.393
40852W        W  146  24.120   1.742  13.004
40853W        W  147  23.699  17.118  11.089
40854W        W  148   9.229  33.552   1.715
40855W        W  149   0.763  29.007  13.399
40856W        W  150   1.357  17.767  12.006
40857W        W  151  27.069   9.311   4.199
40858W        W  152  31.080  27.115   4.691
40859W        W  153  37.871  41.801  13.818
40860W        W  154   0.376  25.183  11.545
40861W        W  155   9.349  25.112   4.606
40862W        W  156  33.402  25.114   1.324
40863W        W  157  26.574   2.800  10.986
40864W        W  158  44.358  22.042  13.965
40865W        W  159  35.893  15.605   3.821
40866W        W  160  11.647  24.596  11.542
40867W        W  161  25.114   2.381   2.816
40868W        W  162   4.310  31.596   0.796
40869W        W  163  26.180  42.376   3.804
40870W        W  164   1.847   0.853  10.938
40871W        W  165  10.230   0.756   0.928
40872W        W  166  21.166  40.012  12.505
40873W        W  167  17.767  43.861  14.030
40874W        W  168  34.476  30.935   4.115
40875W        W  169  26.040   4.216   1.763
40876W        W  170  27.506  33.489   4.234
40877W        W  171  29.155  36.882  14.968
40878W        W  172   2.755  20.545  12.402
40879W        W  173   1.916  33.444  13.478
40880W        W  174  32.541  12.307  11.050
40881W        W  175  14.796  26.103   2.279
40882W        W  176  18.242  25.966   3.738
40883W        W  177  29.518  43.934   2.668
40884W        W  178  19.617   1.739  14.988
40885W        W  179   4.334  25.514   3.867
40886W        W  180  32.478  31.624   0.440
40887W        W  181  22.107  34.437  11.935
40888W        W  182  20.664  29.081   4.792
40889W        W  183  29.135  13.816   4.715
40890W        W  184   8.815   0.902  12.578
40891W        W  185   7.412  12.640   1.810
40892W        W  186  16.574  35.541   4.201
40893W        W  187  21.533  40.500  10.940
40894W        W  188  11.714  19.240  10.591
40895W        W  189   0.847  23.609   1.214
40896W        W  190   7.841  34.536   2.409
40897W        W  191  16.790  33.875   4.664
40898W        W  192   2.938  37.081   4.237
40899W        W  193  37.337  14.297   4.671
40900W        W  194  11.227   1.895   5.204
40901W        W  195  39.923  31.474   4.315
40902W        W  196   7.775   8.867   1.439
40903W        W  197  10.143  39.979   1.368
40904W        W  198   6.237  44.480  12.462
40905W        W  199  36.566  19.712   9.997
40906W        W  200  25.594  16.669   2.183
40907W        W  201  33.407  20.734  13.857
40908W        W  202  32.894  21.150  11.867
40909W        W  203  25.473   7.393   1.793
40910W        W  204   7.758  26.153   2.759
40911W        W  205  33.014  25.473   4.616
40912W        W  206   0.803   1.282   2.197
40913W        W  207  12.675   3.257  13.502
40914W        W  208  21.669  16.115  14.839
40915W        W  209  13.123  15.697  13.838
40916W        W  210  19.067   6.699  13.360
40917W        W  211   5.863  41.998  11.004
40918W        W  212   0.316  22.079  10.945
40919W        W  213  20.560  41.929   1.324
40920W        W  214  12.728   0.259   1.392
40921W        W  215   3.733  27.101   2.854
40922W        W  216  32.572  39.349  11.541
40923W        W  217   4.266  38.029   0.916
40924W        W  218  30.948   7.409  14.934
40925W        W  219  39.339  14.248  13.874
40926W        W  220  30.505  21.255  11.046
40927W        W  221  41.838   5.215   4.835
40928W        W  222  22.631   3.712   0.469
40929W        W  223  12.842  34.031  12.508
40930W        W  224   5.411  43.823  12.017
40931W        W  225  34.912  41.933   4.191
40932W        W  226  30.556  20.598  14.808
40933W        W  227  33.922   3.755  13.930
40934W        W  228  21.024  29.620  13.324
40935W        W  229  20.678  19.694  10.532
40936W        W  230  30.150  13.314  10.980
40937W        W  231  12.302  22.512   3.324
40938W        W  232  34.104   6.202  12.521
40939W        W  233  20.141  36.476  12.495
40940W        W  234  31.939   1.737   2.720
40941W        W  235   2.298  37.905  13.511
40942W        W  236  39.024  31.019   1.851
40943W        W  237  37.901  14.763   1.845
40944W        W  238   9.271  18.690  12.379
40945W        W  239  43.876  34.595  12.928
40946W        W  240  28.140   4.795  10.573
40947W        W  241  14.181  23.736   3.818
40948W        W  242   9.845  31.543   2.211
40949W        W  243  21.034  38.978  12.875
40950W        W  244  31.480  10.665   3.825
40951W        W  245  41.028  14.278  14.812
40952W        W  246  44.860  22.181   1.374
40953W        W  247  12.197  38.926  14.873
40954W        W  248  27.566  10.194   4.191
40955W        W  249  10.374   1.475  10.158
40956W        W  250  40.005  17.215  13.028
40957W        W  251  11.150  40.454   3.692
40958W        W  252  37.906  15.678   2.315
40959W        W  253  29.008  19.105   4.626
40960W        W  254  43.414   5.688  12.407
40961W        W  255  10.782  20.034  12.354
40962W        W  256  36.455  24.099   3.230
40963W        W  257  17.798  12.822   2.353
40964W        W  258  44.384  39.374   5.251
40965W        W  259  17.766   6.737   2.697
40966W        W  260  36.083   7.171  12.860
40967W        W  261  18.058  13.608   2.777
40968W        W  262  10.802   4.859  14.961
40969W        W  263  32.941   8.835  13.900
40970W        W  264  18.731   8.856   4.189
40971W        W  265  19.664  27.028  11.946
40972W        W  266  38.068  42.492   4.731
40973W        W  267  36.517  31.495  14.941
40974W        W  268  34.588  41.894  11.443
40975W        W  269  11.790  30.071  11.514
40976W        W  270  21.239   6.222  12.397
40977W        W  271  38.065   1.388   1.395
40978W        W  272  23.725   6.680  14.927
40979W        W  273   7.703  36.894   4.220
40980W        W  274   0.946  36.396  13.400
40981W        W  275  26.535  41.305   3.213
40982W        W  276  11.219  17.124   1.848
40983W        W  277  36.571  19.630  12.488
40984W        W  278  16.119  21.559  11.032
40985W        W  279  30.590  39.437   0.436
40986W        W  280   0.345  32.569   3.229
40987W        W  281   9.169  32.896  14.783
40988W        W  282  31.405  43.451  14.977
40989W        W  283  43.971  24.141   4.205
40990W        W  284  34.967  14.095   4.328
40991W        W  285  29.973  18.102  10.506
40992W        W  286   5.389  37.028  12.823
40993W        W  287  18.159  17.247   2.828
40994W        W  288  28.465  41.300  13.810
40995W        W  289  42.443  32.012  10.420
40996W        W  290  20.695  39.402  14.295
40997W        W  291  33.383   2.907  13.922
40998W        W  292   5.362   3.736  12.404
40999W        W  293   2.298  42.814  10.980
41000W        W  294  38.021  32.967  13.021
41001W        W  295  33.074  16.077  13.986
41002W        W  296  25.201  25.680  13.546
41003W        W  297  24.013   1.736  10.147
41004W        W  298   8.212   3.329   1.768
41005W        W  299  17.141   2.380  14.807
41006W        W  300   2.327  17.763  12.439
41007W        W  301  19.062  13.753  11.973
41008W        W  302  16.253   6.228  11.393
41009W        W  303  18.756  41.922  10.924
41010W        W  304   9.289  26.162  14.996
41011W        W  305  18.763  31.596  14.353
41012W        W  306   3.837  39.990  14.431
41013W        W  307  32.010  35.469  10.899
41014W        W  308  10.805  42.478   2.287
41015W        W  309  15.234   1.315  13.491
41016W        W  310  28.453  10.284  14.958
41017W        W  311  14.712  18.554   1.759
41018W        W  312   2.280  19.156  10.966
41019W        W  313  35.563  21.085   4.747
41020W        W  314   9.713  30.046   1.388
41021W        W  315   1.927  17.747   2.715
41022W        W  316  20.586  22.241   0.824
41023W        W  317  10.699  11.817   3.861
41024W        W  318  37.478  13.140   3.864
41025W        W  319   2.266  27.950   1.416
41026W        W  320   4.331  36.550  13.384
41027W        W  321  26.556  35.102   3.342
41028W        W  322  33.539   0.476   1.807
41029W        W  323  42.920  40.927  12.095
41030W        W  324  24.055  42.795   1.773
41031W        W  325  11.686  40.038  10.905
41032W        W  326  36.047  38.033  12.514
41033W        W  327   7.257  32.140   2.408
41034W        W  328  21.629  22.730   1.875
41035W        W  329  36.413  37.030   0.427
41036W        W  330   9.282  18.137  11.421
41037W        W  331  27.976  32.942  11.078
41038W        W  332  17.786   9.781  10.914
41039W        W  333  31.936  41.445   0.399
41040W        W  334  42.930  28.488   0.953
41041W        W  335   9.381   7.230  14.991
41042W        W  336  27.942   1.841   0.930
41043W        W  337   9.718  26.162  10.412
41044W        W  338  30.630  42.446   0.769
41045W        W  339  37.062  24.482   3.303
41046W        W  340  14.601  40.849  10.589
41047W        W  341  11.740  22.060   4.714
41048W        W  342  42.838  21.193   0.244
41049W        W  343  40.536  30.108   2.885
41050W        W  344   9.252  35.524   0.963
41051W        W  345  32.093   4.763   2.287
41052W        W  346   6.715  34.413   3.296
41053W        W  347   5.704  28.092  10.546
41054W        W  348   0.791  24.131   3.379
41055W        W  349  10.172  42.425   0.358
41056W        W  350   3.843  16.154  14.962
41057W        W  351  41.354  34.531  10.413
41058W        W  352  34.395   4.224  10.414
41059W        W  353  15.295  19.742   5.231
41060W        W  354  26.100  23.215   2.385
41061W        W  355   5.202  26.156  11.408
41062W        W  356  37.530   2.795  12.985
41063W        W  357   6.330  37.561   5.175
41064W        W  358  39.461  10.757   3.181
41065W        W  359  43.343   3.345   2.824
41066W        W  360  38.016  12.235  11.015
41067W        W  361  30.950  32.060   3.386
41068W        W  362  42.445  10.323   2.704
41069W        W  363  38.023   7.852   4.254
41070W        W  364  39.484  18.073   4.682
41071W        W  365  42.305  24.617   1.422
41072W        W  366  30.611   2.423  11.965
41073W        W  367  38.459  28.964   0.765
41074W        W  368   2.939   1.966  13.998
41075W        W  369  38.368  20.074  10.927
41076W        W  370   6.223  43.787   0.269
41077W        W  371  17.746  24.670  10.017
41078W        W  372   9.164   6.764   1.294
41079W        W  373  36.851  10.764  11.012
41080W        W  374  32.612   3.276  12.018
41081W        W  375  41.413  17.284  14.491
41082W        W  376  33.893  22.601   3.861
41083W        W  377  26.485  34.557   3.866
41084W        W  378  27.164   0.970  10.524
41085W        W  379  14.825  18.223  14.503
41086W        W  380  30.454  10.139   1.898
41087W        W  381  18.129  39.320  11.962
41088W        W  382   8.834  40.027   0.889
41089W        W  383  34.430  25.509   2.413
41090W        W  384  44.495  27.188  10.514
41091W        W  385  29.466  44.988   0.839
41092W        W  386   7.263  26.595   0.313
41093W        W  387  24.060  10.871  14.805
41094W        W  388  34.039  24.710  12.370
41095W        W  389  13.338   9.717  14.799
41096W        W  390  10.210  18.257  10.483
41097W        W  391  37.376   1.760  11.437
41098W        W  392   7.904  30.162  13.512
41099W        W  393   8.896   8.253   2.669
41100W        W  394  26.128  15.699   4.810
41101W        W  395  38.832  15.804  10.986
41102W        W  396  39.045   8.678   4.122
41103W        W  397  31.468  33.401   4.236
41104W        W  398  39.405   7.306   2.706
41105W        W  399  44.400   9.797   1.327
41106W        W  400  35.942  42.495  14.413
41107W        W  401  41.936  15.759   3.654
41108W        W  402  44.828  40.326  12.904
41109W        W  403  26.688  35.046   0.371
41110W        W  404  20.563  30.539  11.004
41111W        W  405  11.146  30.140  14.507
41112W        W  406   5.201  22.685  11.078
41113W        W  407  35.952  40.335  11.101
41114W        W  408  31.120  18.066   2.309
41115W        W  409  40.502  32.584   1.387
41116W        W  410  18.195  18.752   2.419
41117W        W  411   2.897  22.083  12.341
41118W        W  412  15.695  27.059  13.347
41119W        W  413  38.420  11.277   1.923
41120W        W  414  14.635  20.152   3.242
41121W        W  415  44.274  38.369   4.603
41122W        W  416  23.499  33.595   1.849
41123W        W  417  30.426  41.927  13.008
41124W        W  418   7.822   1.887  13.346
41125W        W  419  43.303  30.984  12.838
41126W        W  420  10.770  42.776   2.769
41127W        W  421  32.122  18.627   3.829
41128W        W  422  10.776   6.787   2.258
41129W        W  423  30.491  19.253  13.823
41130W        W  424  10.879   3.437   3.644
41131W        W  425  41.318  15.744  13.827
41132W        W  426  14.690  41.937   1.738
41133W        W  427  20.693  41.527   1.288
41134W        W  428  38.852  20.110   2.333
41135W        W  429  41.867  25.653  14.017
41136W        W  430   3.897  28.087  11.096
41137W        W  431  16.655  11.367  13.039
41138W        W  432  24.564  39.846  12.919
41139W        W  433  22.537  34.996   3.228
41140W        W  434  26.177  43.325   4.176
41141W        W  435  12.665  34.423  10.895
41142W        W  436  11.154  24.015  12.415
41143W        W  437  25.076  14.124   2.282
41144W        W  438   4.883  32.391   3.220
41145W        W  439  33.119  36.971  14.300
41146W        W  440  22.620  35.034   2.330
41147W        W  441   6.330  23.585   1.888
41148W        W  442   8.684  25.703   3.862
41149W        W  443   3.820  26.502  14.843
41150W        W  444   3.270  12.785   4.175
41151W        W  445  28.018  36.422  10.967
41152W        W  446   3.853   4.353   4.661
41153W        W  447  42.868  20.727  11.382
41154W        W  448   8.186  20.206   4.227
41155W        W  449  18.767   1.316   1.445
41156W        W  450  24.231   3.720  12.860
41157W        W  451  15.701  39.430  13.514
41158W        W  452  12.157  22.092   0.913
41159W        W  453  21.687   4.931  14.483
41160W        W  454   0.764  18.730   1.886
41161W        W  455  40.309   2.855  10.439
41162W        W  456  17.793  43.341  14.514
41163W        W  457  17.273  34.932   4.150
41164W        W  458  20.241  43.868   1.764
41165W        W  459  21.737  21.616  10.891
41166W        W  460  26.135  40.427  11.074
41167W        W  461  15.609  11.229  11.026
41168W        W  462  41.044  33.078   1.227
41169W        W  463  14.248  30.117  12.829
41170W        W  464  14.809  23.037   2.846
41171W        W  465  29.926  20.161  10.922
41172W        W  466  43.360  34.040   2.661
41173W        W  467  22.639  18.675   3.813
41174W        W  468  22.537  29.153  12.825
41175W        W  469  30.526  40.013   2.743
41176W        W  470  37.582  28.123   0.962
41177W        W  471  26.671  30.578   1.333
41178W        W  472  22.098   7.668  11.562
41179W        W  473   3.771  17.771   2.848
41180W        W  474  38.924   4.370   3.290
41181W        W  475  11.625  22.637  12.851
41182W        W  476  33.614  16.206   4.820
41183W        W  477   5.327   7.698   3.763
41184W        W  478  37.900  29.618   2.774
41185W        W  479  27.962  11.776   3.690
41186W        W  480  22.020  44.791  14.437
41187W        W  481  28.089   5.826  10.127
41188W        W  482   9.799  19.692   9.630
41189W        W  483  26.020   6.385   0.398
41190W        W  484   6.411  44.871   2.382
41191W        W  485  40.320   5.745  11.884
41192W        W  486  18.618  13.840  12.474
41193W        W  487   2.352  44.363   4.219
41194W        W  488  43.354   4.282  13.038
41195W        W  489  42.506   9.164   1.889
41196W        W  490  16.192  11.784   0.792
41197W        W  491  40.961  40.412   4.679
41198W        W  492   2.748  35.358  13.413
41199W        W  493  29.116  18.678  13.336
41200W        W  494   5.282   9.208  11.610
41201W        W  495  21.080  26.522  10.606
41202W        W  496  43.966   6.402   3.342
41203W        W  497  18.563   0.248  13.930
41204W        W  498  43.861  18.563   2.204
41205W        W  499   0.971  43.392  14.876
41206W        W  500  17.641  33.577   4.830
41207W        W  501  36.028  28.151  10.985
41208W        W  502  40.023  33.883  13.024
41209W        W  503  15.097   1.329   0.334
41210W        W  504  28.944  19.130  14.482
41211W        W  505  32.605  37.845  11.915
41212W        W  506  23.208  15.112  12.575
41213W        W  507   5.920  39.385  12.497
41214W        W  508  20.097  40.008   4.331
41215W        W  509   6.797  16.571   3.207
41216W        W  510  15.270  14.823  12.456
41217W        W  511   2.414  34.493  11.891
41218W        W  512  11.697   2.826   2.877
41219W        W  513  30.566   0.795  12.406
41220W        W  514  11.251  29.548  13.035
41221W        W  515   6.744  32.130   0.856
41222W        W  516  11.795   2.734  14.000
41223W        W  517  23.228  24.509   1.393
41224W        W  518  17.222  32.447  11.015
41225W        W  519  14.760  16.116   3.362
41226W        W  520   1.269  18.705  14.929
41227W        W  521   1.314   5.755   3.682
41228W        W  522   2.418  15.183  12.486
41229W        W  523   7.417  35.428   3.263
41230W        W  524  37.969   5.811   2.255
41231W        W  525  31.059  22.657   4.206
41232W        W  526  41.306  42.341   3.651
41233W        W  527  12.257   8.373  10.465
41234W        W  528   8.389  17.073  14.972
41235W        W  529  25.607   2.786   4.833
41236W        W  530  20.035  11.671   1.850
41237W        W  531  22.120  32.966  13.414
41238W        W  532  18.161  33.509   3.766
41239W        W  533   5.900   9.689  12.044
41240W        W  534  32.914  16.223   1.848
41241W        W  535  31.596  41.952  13.892
41242W        W  536  13.642  34.515   0.939
41243W        W  537  40.798  28.013   2.240
41244W        W  538  34.587  32.391  10.578
41245W        W  539   4.731  28.611   2.746
41246W        W  540   7.401  40.404  14.024
41247W        W  541  20.582  13.158   0.755
41248W        W  542   5.872   2.735  12.885
41249W        W  543  25.999   7.767   1.885
41250W        W  544  24.155  19.690   0.427
41251W        W  545  40.001  32.035   0.475
41252W        W  546  39.428  26.696   2.873
41253W        W  547  33.960  27.535  11.090
41254W        W  548   3.267  22.743  14.949
41255W        W  549  31.568  11.835   3.311
41256W        W  550  30.127   2.813   3.257
41257W        W  551  43.328  41.488   1.437
41258W        W  552  31.608  42.425  14.385
41259W        W  553  18.664  25.499   0.386
41260W        W  554   6.252  37.463   0.878
41261W        W  555  41.533  17.180   4.277
41262W        W  556   3.446  20.678   1.805
41263W        W  557  10.250  17.700   1.361
41264W        W  558  41.437  38.994  12.870
41265W        W  559   4.404   2.403  13.907
41266W        W  560   1.932  35.894  10.977
41267W        W  561  38.069  10.286   3.787
41268W        W  562  29.935  33.093   3.785
41269W        W  563  30.491  33.960  13.540
41270W        W  564  10.174  33.130   0.479
41271W        W  565   9.263  25.150  10.890
41272W        W  566  12.255  18.721   3.280
41273W        W  567  27.114   8.713  13.807
41274W        W  568  20.759  14.220  10.490
41275W        W  569   6.334   8.809  12.532
41276W        W  570   5.690  41.014   2.310
41277W        W  571  14.812  39.033   0.307
41278W        W  572   0.306  21.246  12.427
41279W        W  573   6.241  23.145   1.772
41280W        W  574  13.327  17.091  12.489
41281W        W  575   2.734  43.872  14.821
41282W        W  576  22.190  43.392  14.007
41283W        W  577  26.103  27.474  12.986
41284W        W  578  16.181  16.811   1.889
41285W        W  579   8.212   7.334  13.360
41286W        W  580   2.249  23.004  11.473
41287W        W  581  14.738  29.081  12.832
41288W        W  582  30.581  27.610  12.004
41289W        W  583   4.836  21.095  13.996
41290W        W  584  35.506  10.725   0.321
41291W        W  585  31.593  11.337   0.749
41292W        W  586  19.265  33.067  10.502
41293W        W  587  11.184   5.281  13.972
41294W        W  588  26.574  39.020   4.600
41295W        W  589  21.259  23.628  13.391
41296W        W  590   3.359  29.118   3.284
41297W        W  591   1.767  37.045  10.521
41298W        W  592   8.301  27.600   2.414
41299W        W  593   8.264  13.827  11.955
41300W        W  594  32.905  10.837  11.011
41301W        W  595  28.573  39.354  13.471
41302W        W  596  29.083  37.564   0.864
41303W        W  597   8.393  38.404  14.419
41304W        W  598  10.660   3.405   0.416
41305W        W  599  10.770  20.208  13.375
41306W        W  600  17.128   4.767  11.385
41307W        W  601  21.251  16.723   2.252
41308W        W  602  42.289  12.640  13.346
41309W        W  603  31.942  15.289   0.914
41310W        W  604  34.600  18.688  13.807
41311W        W  605  33.464  42.440   1.714
41312W        W  606  33.453  18.248   3.804
41313W        W  607   4.390  36.422   4.260
41314W        W  608  39.362  20.662   1.327
41315W        W  609  44.817  43.933  12.530
41316W        W  610  27.519  27.508   4.190
41317W        W  611   0.881  35.108  12.965
41318W        W  612  18.215  20.664   0.299
41319W        W  613  29.069   2.264  14.032
41320W        W  614  12.291  23.120  14.323
41321W        W  615   1.409  20.186   2.372
41322W        W  616  41.874  33.457   5.309
41323W        W  617  17.248  14.750  12.390
41324W        W  618  15.648   1.904  10.905
41325W        W  619  15.760   8.684   4.717
41326W        W  620  35.023   3.735  13.917
41327W        W  621   2.781  19.613  10.561
41328W        W  622  40.875  39.882  11.433
41329W        W  623  38.064  40.992   3.277
41330W        W  624   6.733  13.786   1.431
41331W        W  625  28.170  26.544   5.220
41332W        W  626  10.646  33.027   3.753
41333W        W  627  30.424  42.801  12.566
41334W        W  628  20.576  10.802  11.003
41335W        W  629   4.249  16.674  13.917
41336W        W  630  10.266  24.564  10.444
41337W        W  631  19.265  38.028  13.530
41338W        W  632  32.961   6.375  14.894
41339W        W  633   8.187  37.994   3.207
41340W        W  634  42.806  22.735   1.246
41341W        W  635   7.720   7.195   0.453
41342W        W  636   3.929  22.171  11.452
41343W        W  637  40.515   4.812  14.971
41344W        W  638  14.339  22.114  11.116
41345W        W  639  31.976  44.447  13.986
41346W        W  640  17.707   8.695  12.479
41347W        W  641  19.124   8.733  11.124
41348W        W  642  11.204  26.635   5.123
41349W        W  643   4.727  13.772  14.976
41350W        W  644  37.467  26.179   3.156
41351W        W  645  25.040  13.320   4.135
41352W        W  646   4.250  39.914   1.720
41353W        W  647   7.267  14.149   0.956
41354W        W  648  12.783  44.781  13.820
41355W        W  649   4.729   8.367   3.806
41356W        W  650  32.422  17.602   4.748
41357W        W  651  10.674   3.789  10.413
41358W        W  652  40.408  44.903   1.436
41359W        W  653  17.162   3.902  14.356
41360W        W  654  42.777  43.777   1.823
41361W        W  655  27.004  43.474   1.232
41362W        W  656  10.670  16.645  11.969
41363W        W  657  24.617  32.482   1.335
41364W        W  658   3.385   4.746  11.097
41365W        W  659  30.458  13.167   2.788
41366W        W  660  27.471  36.961   2.236
41367W        W  661  10.245  22.106   0.469
41368W        W  662   3.755  29.439   2.879
41369W        W  663  31.568  12.801   4.222
41370W        W  664  34.434  34.077   1.797
41371W        W  665   5.217  44.909   0.823
41372W        W  666   8.195  14.288  14.403
41373W        W  667  31.449   0.871   4.289
41374W        W  668  14.261  22.185  14.304
41375W        W  669   1.385  21.151   2.238
41376W        W  670   4.219  29.476   4.734
41377W        W  671  36.872  34.578  13.989
41378W        W  672  26.090  15.678   1.758
41379W        W  673   5.867  17.640  13.347
41380W        W  674  15.293  37.379  11.538
41381W        W  675  20.738  19.685   1.364
41382W        W  676  34.033  12.691   2.899
41383W        W  677  35.457  31.548   4.297
41384W        W  678  13.274  16.130   3.629
41385W        W  679  41.482   4.373  13.506
41386W        W  680  23.125  24.530   0.263
41387W        W  681   9.158  42.844   0.477
41388W        W  682  23.507  41.827  11.533
41389W        W  683  27.016  27.590  13.001
41390W        W  684   9.261   9.283   3.281
41391W        W  685  14.608  39.465   4.261
41392W        W  686  14.231  33.438  13.833
41393W        W  687  12.202   5.355  14.452
41394W        W  688  42.781   2.239  11.984
41395W        W  689   5.266  44.872   4.181
41396W        W  690  24.720  12.118   1.241
41397W        W  691  17.609  34.029  11.864
41398W        W  692  30.943  43.510   0.447
41399W        W  693  41.320   8.368  14.801
41400W        W  694  34.887   5.240   3.264
41401W        W  695  36.071  37.893  13.428
41402W        W  696  24.515  12.766  13.050
41403W        W  697   3.372   0.842  10.423
41404W        W  698  19.188   8.176   0.800
41405W        W  699   1.891   4.781   0.800
41406W        W  700  38.936   2.329   3.367
41407W        W  701  28.053  16.086  12.399
41408W        W  702  10.191  11.779  10.447
41409W        W  703  16.801   4.222  14.386
41410W        W  704  21.531  31.938   4.212
41411W        W  705   8.881  44.003   1.378
41412W        W  706  36.913  10.709  14.844
41413W        W  707  34.914  34.568   1.923
41414W        W  708  22.117  44.769   1.933
41415W        W  709  19.680   1.476   4.288
41416W        W  710  25.042  30.934  10.988
41417W        W  711  44.952  42.974  11.017
41418W        W  712  15.219  23.632  14.496
41419W        W  713  24.036  23.727  12.853
41420W        W  714  25.169  25.098  14.773
41421W        W  715  28.151  38.820   1.783
41422W        W  716  43.945  16.208   2.716
41423W        W  717  42.902  27.538   3.184
41424W        W  718   3.278  19.173   3.665
41425W        W  719   0.842  17.797  13.381
41426W        W  720  14.312  17.219   1.926
41427W        W  721  26.996   4.703   2.323
41428W        W  722  27.662  41.851  13.822
41429W        W  723   6.398   9.198  12.011
41430W        W  724  19.645  43.909   4.816
41431W        W  725  42.312  22.227  11.484
41432W        W  726  16.808  23.498  10.412
41433W        W  727  40.455   9.682   1.232
41434W        W  728  25.973  38.567  10.921
41435W        W  729  44.000  35.088   1.853
41436W        W  730  40.931   3.773   1.762
41437W        W  731  37.016  35.467  13.826
41438W        W  732   0.854  22.585   3.370
41439W        W  733  44.939  21.146   2.768
41440W        W  734  20.662   8.689   2.380
41441W        W  735  37.437  38.372   4.125
41442W        W  736  29.520  10.292   1.873
41443W        W  737  39.887  42.856   2.204
41444W        W  738  40.543   2.812   3.383
41445W        W  739  15.311   0.348   4.656
41446W        W  740  41.918  42.489  10.625
41447W        W  741  35.969  32.593   0.274
41448W        W  742  18.635  31.533  10.486
41449W        W  743  30.637  39.967  12.554
41450W        W  744  37.340  22.131  12.868
41451W        W  745   2.405  26.549  12.849
41452W        W  746  32.076  29.939   4.206
41453W        W  747  33.507  16.774   4.830
41454W        W  748   5.434  26.609  11.931
41455W        W  749  29.605   4.900   1.240
41456W        W  750  39.978  43.454   3.323
41457W        W  751  16.661   6.231   1.325
41458W        W  752  32.022   5.331   0.764
41459W        W  753  44.959   3.247   5.762
41460W        W  754  29.931  18.261  13.436
41461W        W  755   9.291   6.345   0.820
41462W        W  756  21.149  31.648   1.404
41463W        W  757  14.616   6.814  11.939
41464W        W  758  24.483  42.414  12.394
41465W        W  759  31.016  34.483  10.901
41466W        W  760  41.317  25.546   2.385
41467W        W  761  19.725  33.993  13.446
41468W        W  762  29.617  41.898  13.531
41469W        W  763   0.752  40.349   9.946
41470W        W  764  39.886  28.533  13.827
41471W        W  765  31.428  33.110   4.832
41472W        W  766  14.824  30.051   0.905
41473W        W  767   3.777  12.248  13.393
41474W        W  768   4.870  18.580   4.326
41475W        W  769  22.607  21.557   1.763
41476W        W  770  22.025  28.088   2.264
41477W        W  771  38.824  30.610  11.600
41478W        W  772   1.754  11.683   3.678
41479W        W  773  23.692  37.033  14.819
41480W        W  774  13.803  30.571   3.276
41481W        W  775  33.040  40.843  13.507
41482W        W  776  26.522  35.095  10.918
41483W        W  777  37.956  37.941   3.824
41484W        W  778  21.617  40.395   0.797
41485W        W  779  41.475   9.798   2.318
41486W        W  780  23.186  32.896   2.769
41487W        W  781   9.878  10.177  11.439
41488W        W  782  23.133   3.766  12.564
41489W        W  783  13.125  19.733   5.141
41490W        W  784  31.080  10.815  12.443
41491W        W  785  22.728  34.960  10.079
41492W        W  786   4.842  28.074   4.146
41493W        W  787   2.301  12.169  13.883
41494W        W  788  18.109  33.107   2.190
41495W        W  789  12.725   2.265   4.748
41496W        W  790   6.302  25.216   2.740
41497W        W  791  32.900  39.527  14.920
41498W        W  792  13.274  40.383   2.727
41499W        W  793  22.605  11.371  14.807
41500W        W  794  32.484   9.261   0.756
41501W        W  795  44.910  15.289   3.377
41502W        W  796  16.283  39.513   1.903
41503W        W  797  41.475  28.000  12.558
41504W        W  798   1.880  18.224   0.811
41505W        W  799  30.534  16.604  10.925
41506W        W  800  33.568  29.163  10.998
41507W        W  801  22.618  17.573   4.837
41508W        W  802  27.980  35.948  12.976
41509W        W  803  31.520  37.433  12.021
41510W        W  804   4.904   1.832  11.910
41511W        W  805  28.586  10.198  13.981
41512W        W  806  24.229  39.359  10.421
41513W        W  807  35.002  39.495   0.243
41514W        W  808  13.696  20.097  10.126
41515W        W  809  24.201   6.211   1.426
41516W        W  810   0.308   4.368   1.701
41517W        W  811   8.838  44.971   2.822
41518W        W  812   2.450  40.996  14.276
41519W        W  813   9.186  31.469   0.438
41520W        W  814  44.795  37.065  10.888
41521W        W  815  34.381  41.535   0.307
41522W        W  816  38.828  36.467   3.803
41523W        W  817   3.949  36.970   2.695
41524W        W  818  40.531  41.839  14.466
41525W        W  819  31.137  12.767   2.377
41526W        W  820  20.181  35.987   3.270
41527W        W  821  38.855  17.195   1.773
41528W        W  822  36.911  41.875  10.912
41529W        W  823  19.169   3.872  13.431
41530W        W  824   1.790  12.750  14.790
41531W        W  825  42.853   3.844  10.510
41532W        W  826  37.851  11.184  13.964
41533W        W  827   9.823   0.389   4.765
41534W        W  828  11.761  29.593  14.481
41535W        W  829  28.499  39.405  11.007
41536W        W  830   9.817  34.943  14.031
41537W        W  831  21.131  31.458   2.316
41538W        W  832  33.394   1.968   4.238
41539W        W  833   4.397  30.453  13.029
41540W        W  834  35.448  38.549  12.569
41541W        W  835   6.782  41.870   0.800
41542W        W  836  36.363  15.168   2.338
41543W        W  837  41.464  33.616  12.539
41544W        W  838   9.842  42.294   1.731
41545W        W  839  16.617   0.903   2.807
41546W        W  840   7.330  16.130  13.360
41547W        W  841  37.559  15.626  14.793
41548W        W  842  19.538  26.969   0.435
41549W        W  843   4.331   8.238  11.486
41550W        W  844  22.195  38.426  11.512
41551W        W  845  12.772  26.203  11.602
41552W        W  846  16.165  29.107  14.387
41553W        W  847  31.603   1.278   0.322
41554W        W  848  15.737   2.470   4.254
41555W        W  849   7.804  37.911  13.333
41556W        W  850  38.981  21.209   1.886
41557W        W  851   8.283  20.029  14.399
41558W        W  852   5.407  41.369   5.292
41559W        W  853  31.004  31.925   4.175
41560W        W  854  28.978   3.229   4.319
41561W        W  855  21.230  27.518  10.561
41562W        W  856   0.950  15.310   2.664
41563W        W  857  33.042  25.610  11.503
41564W        W  858  28.677  26.611  14.877
41565W        W  859  41.989  31.593   3.804
41566W        W  860   2.413  14.228  14.799
41567W        W  861  31.076   9.696  12.360
41568W        W  862   3.858  22.210   0.872
41569W        W  863  38.051  35.046   1.862
41570W        W  864  34.504   6.219  11.918
41571W        W  865  36.950  42.032  13.959
41572W        W  866  27.499  21.580  13.010
41573W        W  867  12.193  22.624   2.820
41574W        W  868   1.359  38.974   1.750
41575W        W  869  14.125  43.435   1.881
41576W        W  870   8.842  40.476   2.819
41577W        W  871   0.963   6.361  14.382
41578W        W  872   0.299  21.257  12.071
41579W        W  873  16.124  13.150   0.958
41580W        W  874  42.435  20.723  13.503
41581W        W  875  31.574  40.030   0.476
41582W        W  876  14.334  39.368  10.548
41583W        W  877  19.601  44.930   0.419
41584W        W  878  44.431  34.922  11.860
41585W        W  879   2.289  18.787   1.709
41586W        W  880  36.430  44.009   2.696
41587W        W  881  36.578   0.445  13.451
41588W        W  882  40.517  36.467  11.105
41589W        W  883  24.604  26.093   2.179
41590W        W  884  22.995  30.141  11.116
41591W        W  885  26.094  30.537  14.375
41592W        W  886   0.961  14.606  14.775
41593W        W  887  13.764  13.282   1.450
41594W        W  888  35.887  22.511   5.272
41595W        W  889  37.847  22.023  13.331
41596W        W  890  30.423  20.160   0.480
41597W        W  891  13.630   3.295  11.937
41598W        W  892  34.022  10.799  10.959
41599W        W  893   1.828  12.779  11.862
41600W        W  894  43.354  30.566   2.865
41601W        W  895  44.324  12.649  13.982
41602W        W  896  17.799  27.159  14.837
41603W        W  897  40.415  20.137   4.621
41604W        W  898  12.711  24.184   4.155
41605W        W  899  26.545  43.951   0.246
41606W        W  900   9.645   9.851  13.924
41607W        W  901  29.125   1.364  12.972
41608W        W  902  24.038  36.917   2.743
41609W        W  903  24.993  38.497   4.158
41610W        W  904  14.691  34.606   1.883
41611W        W  905  19.117  31.037  13.005
41612W        W  906   2.913  21.060  14.347
41613W        W  907  11.842  20.618   3.748
41614W        W  908  37.482   4.721  13.992
41615W        W  909   6.866  26.978  14.782
41616W        W  910   0.254  11.366  13.317
41617W        W  911  17.063  11.151   0.317
41618W        W  912  21.068  19.628  12.416
41619W        W  913  10.769  34.391   2.662
41620W        W  914  31.008  37.464   4.186
41621W        W  915  28.035  21.736   1.894
41622W        W  916  20.154  15.263  13.422
41623W        W  917  22.078   8.397   9.551
41624W        W  918   3.300  37.851   1.282
41625W        W  919  14.731  42.297   1.719
41626W        W  920  32.009  34.103   3.861
41627W        W  921  11.225  39.534  10.625
41628W        W  922  44.300  32.528  12.863
41629W        W  923   5.731   9.783  14.940
41630W        W  924  29.984  28.970  12.472
41631W        W  925  18.618  31.035   4.136
41632W        W  926   1.256   4.401   5.098
41633W        W  927  37.873  20.580  12.824
41634W        W  928   5.823  28.456   4.195
41635W        W  929  35.381  29.614  14.318
41636W        W  930  23.195  10.327   2.226
41637W        W  931  40.337  40.797  14.961
41638W        W  932  26.157  38.930  13.850
41639W        W  933  37.008  23.608  11.990
41640W        W  934  14.179  32.057   0.301
41641W        W  935  16.264  31.152   0.417
41642W        W  936  23.591  38.508   4.331
41643W        W  937  22.108  17.191  10.623
41644W        W  938  27.565  32.014   0.777
41645W        W  939  19.624   9.232   0.412
41646W        W  940  13.661  41.472   4.252
41647W        W  941  43.429   8.672   0.266
41648W        W  942  23.010  36.973  12.828
41649W        W  943   5.896  31.990   4.306
41650W        W  944  27.448   3.944  13.047
41651W        W  945  22.081  11.797   3.192
41652W        W  946  13.685  32.027  14.500
41653W        W  947  39.921  36.360   1.254
41654W        W  948  21.629  22.550  11.054
41655W        W  949  26.634  28.048   0.731
41656W        W  950  16.718  19.662   3.681
41657W        W  951  30.499  37.441  11.978
41658W        W  952  35.858  34.060  13.458
41659W        W  953  31.943   8.735   4.746
41660W        W  954  21.658  15.210   2.898
41661W        W  955  32.492  30.986  12.349
41662W        W  956  31.914  22.583   1.919
41663W        W  957  13.331  17.696  13.506
41664W        W  958   4.309  38.826  14.774
41665W        W  959  19.598  35.492   3.326
41666W        W  960  28.062  37.449   1.824
41667W        W  961  28.451  43.370  14.292
41668W        W  962  33.891   8.179   3.211
41669W        W  963  44.483  39.032   4.654
41670W        W  964   6.890  14.770   3.203
41671W        W  965   9.878  25.063   3.200
41672W        W  966   9.248   0.257   3.705
41673W        W  967  34.512   3.855   2.760
41674W        W  968  22.543   4.400   3.774
41675W        W  969  42.862  33.043  11.463
41676W        W  970  36.006  42.810   2.210
41677W        W  971  36.059  10.746  14.506
41678W        W  972  25.152   4.885   0.483
41679W        W  973  19.217  20.751   0.828
41680W        W  974  11.730  26.080   3.779
41681W        W  975   6.802  43.970  12.865
41682W        W  976  30.013  13.185   0.863
41683W        W  977  12.717  34.510   3.787
41684W        W  978  37.344  17.708  12.561
41685W        W  979  25.045   5.819  14.906
41686W        W  980  16.659  14.287   9.641
41687W        W  981  37.025  21.529   0.363
41688W        W  982  11.796  15.719  14.804
41689W        W  983  40.437  21.647  14.329
41690W        W  984   3.795  10.813  12.871
41691W        W  985  38.571  40.945   0.273
41692W        W  986  35.893  37.475  14.514
41693W        W  987  27.591  17.576  12.406
41694W        W  988  38.980  11.675   3.835
41695W        W  989  37.441  27.620   3.671
41696W        W  990  44.450  10.187  11.084
41697W        W  991  23.733  32.034  12.911
41698W        W  992  29.563  19.195  12.479
41699W        W  993  13.139  26.545  12.457
41700W        W  994   3.404  27.974  12.022
41701W        W  995  16.280  20.709  11.935
41702W        W  996   1.917  18.171  13.056
41703W        W  997  15.755   2.948   4.185
41704W        W  998  18.673  31.033  11.474
41705W        W  999   6.752   5.303  10.599
41706W        W 1000  28.496  28.610   2.819
41707W        W 1001  41.292  40.852   0.472
41708W        W 1002  42.364  35.567  11.415
41709W        W 1003  18.577  19.256   4.791
41710W        W 1004  32.492  39.062   3.855
41711W        W 1005   5.266  31.583   0.909
41712W        W 1006  40.858  39.992  10.515
41713W        W 1007   3.924   7.369   2.810
41714W        W 1008  16.753  25.486   1.329
41715W        W 1009  44.772  11.147   0.965
41716W        W 1010  44.992  33.416   0.367
41717W        W 1011   1.328   3.409  14.769
41718W        W 1012  37.830   9.241  14.952
41719W        W 1013  34.495  33.027  11.109
41720W        W 1014   6.845  41.483   2.873
41721W        W 1015  39.016  38.424  11.969
41722W        W 1016  32.952   6.200  12.446
41723W        W 1017   7.698  10.847  13.318
41724W        W 1018  19.534   9.663   0.444
41725W        W 1019  22.205  32.080  14.954
41726W        W 1020   0.844  10.302   4.621
41727W        W 1021  22.629   6.422  14.840
41728W        W 1022  40.394  15.822  14.322
41729W        W 1023  31.454  24.691   0.442
41730W        W 1024  12.152  42.788   1.274
41731W        W 1025  13.276   6.758   1.917
41732W        W 1026  39.473  29.152   1.380
41733W        W 1027  33.581  38.856  10.987
41734W        W 1028  33.993   3.865  12.870
41735W        W 1029   5.305  19.093  14.332
41736W        W 1030  15.784  33.460  12.881
41737W        W 1031   9.676  15.605  14.337
41738W        W 1032  27.484  17.668   4.273
41739W        W 1033  39.465  42.297  13.342
41740W        W 1034  16.680   1.251  12.386
41741W        W 1035  28.461  34.078   0.435
41742W        W 1036  17.123  32.127  13.932
41743W        W 1037  40.496  14.180  12.091
41744W        W 1038  24.656  39.467  13.813
41745W        W 1039  42.452  31.034   0.858
41746W        W 1040  39.998   1.253   1.829
41747W        W 1041  17.227  39.013  14.984
41748W        W 1042  44.353  18.272  10.586
41749W        W 1043  39.939   2.414  12.982
41750W        W 1044  19.207  35.943  13.432
41751W        W 1045  19.217   8.354  10.482
41752W        W 1046  14.829  34.092   4.240
41753W        W 1047  21.248  24.704  12.960
41754W        W 1048  35.097  11.686  13.935
41755W        W 1049  25.022  38.938  10.921
41756W        W 1050   3.863  30.098  12.562
41757W        W 1051   2.734  10.647   1.415
41758W        W 1052   9.178  31.142  13.531
41759W        W 1053   8.721   6.311   0.920
41760W        W 1054  15.247   5.912   4.599
41761W        W 1055  25.681  25.981  12.989
41762W        W 1056  31.100   9.794   0.398
41763W        W 1057  12.760  31.591   3.652
41764W        W 1058  29.650  36.053   1.271
41765W        W 1059  21.262  29.515   4.624
41766W        W 1060  37.005  16.132   3.822
41767W        W 1061  12.801  30.558  10.451
41768W        W 1062  35.999  41.809   2.766
41769W        W 1063  27.568  32.463  12.452
41770W        W 1064  14.254  16.625   4.702
41771W        W 1065  20.080   5.327   0.905
41772W        W 1066  22.520  13.704   4.259
41773W        W 1067  41.809  28.638  14.343
41774W        W 1068  20.229  30.500  14.773
41775W        W 1069  10.642  42.973   3.342
41776W        W 1070  18.125  27.178   2.689
41777W        W 1071  38.883   4.939  13.795
41778W        W 1072  19.703  40.344  13.063
41779W        W 1073   9.343   6.720   3.640
41780W        W 1074  17.100  13.760   0.255
41781W        W 1075  11.830  38.502  14.925
41782W        W 1076  28.508  10.840  11.410
41783W        W 1077   1.456  23.610  11.561
41784W        W 1078  27.971  37.412   5.185
41785W        W 1079  36.480  10.252  11.516
41786W        W 1080  23.153  36.472  11.379
41787W        W 1081   5.308  42.465   2.376
41788W        W 1082  42.853   0.824  12.095
41789W        W 1083  39.498  34.536  12.060
41790W        W 1084  34.451  31.049   1.319
41791W        W 1085   1.399  40.959  14.505
41792W        W 1086  10.784  30.140  13.487
41793W        W 1087   2.950  33.439   3.643
41794W        W 1088   9.239  12.624   1.848
41795W        W 1089  14.778  17.295  14.315
41796W        W 1090  39.977  33.071  13.801
41797W        W 1091  28.938  31.933  14.770
41798W        W 1092   7.222  21.213  13.361
41799W        W 1093  34.899  25.603   0.274
41800W        W 1094  21.154   4.896   0.336
41801W        W 1095   2.824  18.057   3.750
41802W        W 1096   5.877  20.180  13.825
41803W        W 1097  34.461   6.295  11.077
41804W        W 1098  30.084   4.204   3.187
41805W        W 1099   7.306   9.762   1.234
41806W        W 1100   1.908   4.424   2.391
41807W        W 1101  20.568   5.907   4.815
41808W        W 1102  28.177  39.959  14.958
41809W        W 1103  22.669  16.587  14.026
41810W        W 1104   0.936  29.646   0.944
41811W        W 1105  15.236  32.965   0.429
41812W        W 1106  25.557  11.637  14.904
41813W        W 1107   3.822  18.749   4.341
41814W        W 1108  40.397  23.084  13.495
41815W        W 1109  44.409  36.054  10.995
41816W        W 1110  13.755  32.515   2.184
41817W        W 1111  43.386  44.361  10.993
41818W        W 1112  41.846  20.705   0.747
41819W        W 1113  44.409  43.866   9.649
41820W        W 1114   8.322  21.122  14.404
41821W        W 1115  42.432  31.429   2.809
41822W        W 1116   4.813  12.754  10.078
41823W        W 1117  42.780   2.763   1.737
41824W        W 1118   9.292  16.794  11.874
41825W        W 1119  42.296  14.114  13.832
41826W        W 1120  42.951  15.317   0.443
41827W        W 1121   3.778   7.377   4.270
41828W        W 1122   7.201  20.263   2.208
41829W        W 1123  18.743  15.675   0.270
41830W        W 1124  17.570  17.305  10.442
41831W        W 1125  26.061   8.208  13.481
41832W        W 1126  14.117  25.476   1.935
41833W        W 1127  25.036  38.826   0.344
41834W        W 1128  27.558  17.276   3.690
41835W        W 1129  24.713  22.046   3.727
41836W        W 1130  18.288   2.456   1.872
41837W        W 1131  39.468  35.101  12.483
41838W        W 1132  10.334  40.945  11.898
41839W        W 1133  23.695   2.424   3.259
41840W        W 1134  31.628  23.692   0.339
41841W        W 1135  23.693  31.923   0.293
41842W        W 1136  12.263  42.281  12.041
41843W        W 1137  22.710   7.242   3.733
41844W        W 1138   1.973  25.602   2.702
41845W        W 1139  10.322  29.001  11.081
41846W        W 1140  24.134  37.073   2.297
41847W        W 1141  26.969  16.582  10.614
41848W        W 1142  29.511   4.716   2.731
41849W        W 1143   3.898  12.215  14.975
41850W        W 1144  18.073  32.990   4.719
41851W        W 1145  17.074  25.991  10.956
41852W        W 1146  35.932  17.635  11.869
41853W        W 1147   7.337  44.933   4.233
41854W        W 1148  25.097  32.581  14.979
41855W        W 1149   2.754  37.944  14.931
41856W        W 1150   8.265  42.363   1.303
41857W        W 1151   3.268  30.013   1.848
41858W        W 1152   2.908  44.420  12.015
41859W        W 1153  11.841  38.935  14.898
41860W        W 1154  13.189   6.693   2.336
41861W        W 1155   3.778   2.311  10.640
41862W        W 1156  26.023   1.278   0.305
41863W        W 1157  17.609  20.241   2.865
41864W        W 1158  28.098  17.219   0.947
41865W        W 1159  28.500  29.475  10.529
41866W        W 1160  22.141   4.245   0.906
41867W        W 1161  36.085  30.928  12.529
41868W        W 1162  40.836  42.023  10.970
41869W        W 1163   5.239  17.152   4.826
41870W        W 1164  42.394  30.132  11.861
41871W        W 1165  16.253  18.761   1.276
41872W        W 1166   4.891   4.815   1.898
41873W        W 1167  13.111  31.550   3.812
41874W        W 1168  38.838   0.784  14.367
41875W        W 1169  18.683  44.790  13.832
41876W        W 1170  18.776  43.357   3.823
41877W        W 1171   6.889   2.379  12.046
41878W        W 1172  18.779  27.026  13.362
41879W        W 1173   4.775  41.522   3.670
41880W        W 1174  42.360  25.500   1.439
41881W        W 1175  38.362  43.365  14.461
41882W        W 1176  34.888  30.027   2.706
41883W        W 1177  34.954  23.717  13.911
41884W        W 1178  43.463  15.592  11.446
41885W        W 1179  31.965  12.713  12.415
41886W        W 1180   4.232   4.444   0.381
41887W        W 1181  27.632  32.404  13.973
41888W        W 1182  37.576  39.057  14.437
41889W        W 1183  23.599   5.700   0.944
41890W        W 1184  13.698   8.328  10.938
41891W        W 1185  25.179  41.042   1.448
41892W        W 1186  12.755  13.639  10.047
41893W        W 1187  34.002  26.203  11.541
41894W        W 1188   5.277  16.568   2.265
41895W        W 1189  44.883  21.689  13.898
41896W        W 1190  35.041   3.352   4.173
41897W        W 1191  34.580  42.919  11.029
41898W        W 1192  34.037   2.833   2.383
41899W        W 1193   2.900  14.757   1.697
41900W        W 1194  20.585  35.416  11.068
41901W        W 1195  31.498   3.776   2.229
41902W        W 1196  38.402  23.576  14.466
41903W        W 1197  33.946  19.670   2.750
41904W        W 1198  10.154  34.551   4.660
41905W        W 1199  20.061  19.666   3.279
41906W        W 1200  20.220  41.493  13.329
41907W        W 1201   2.439  18.148   2.332
41908W        W 1202  28.516   6.861  13.823
41909W        W 1203   5.776  13.756  13.412
41910W        W 1204  22.180   2.457  12.880
41911W        W 1205  18.261  21.568  13.376
41912W        W 1206  16.228   9.679   1.711
41913W        W 1207  36.539   7.816  14.289
41914W        W 1208   1.462  16.734  12.991
41915W        W 1209  13.791  26.138   1.730
41916W        W 1210   7.881  30.562   1.764
41917W        W 1211   4.714  15.228   1.883
41918W        W 1212  11.727   1.412  11.516
41919W        W 1213  19.716  19.217   0.952
41920W        W 1214  23.527  24.550   1.845
41921W        W 1215  13.326  28.658  12.525
41922W        W 1216  33.601  40.470   2.692
41923W        W 1217  39.376  43.494   1.804
41924W        W 1218  22.573  21.089  12.091
41925W        W 1219  29.607  22.547   2.297
41926W        W 1220  11.214   0.342  11.865
41927W        W 1221  30.568  17.197   0.243
41928W        W 1222   1.783  23.716  14.838
41929W        W 1223  42.438  44.951   0.775
41930W        W 1224  28.567  30.460   2.398
41931W        W 1225  21.674  43.296   0.428
41932W        W 1226  24.172  16.254   3.666
41933W        W 1227  31.582   6.886   4.813
41934W        W 1228  11.764   4.368  10.995
41935W        W 1229  26.682  12.679  12.926
41936W        W 1230  39.510  19.772   4.189
41937W        W 1231  30.025  23.489  10.909
41938W        W 1232   8.679  41.535   1.851
41939W        W 1233  40.464   1.875   4.173
41940W        W 1234  11.763  18.783   4.293
41941W        W 1235  39.536  18.709   4.120
41942W        W 1236  37.876  31.427  13.819
41943W        W 1237  31.090  21.096   9.983
41944W        W 1238  12.805  25.014  14.787
41945W        W 1239  16.715  27.957  14.863
41946W        W 1240   6.922  38.894   0.371
41947W        W 1241  40.860  23.144   1.418
41948W        W 1242  30.018   4.358   3.684
41949W        W 1243  31.141  23.207   3.861
41950W        W 1244  10.672  26.038  10.594
41951W        W 1245   3.457  42.427  12.829
41952W        W 1246  31.000  12.244   2.721
41953W        W 1247   8.302   6.894   3.666
41954W        W 1248  31.124  29.517  12.902
41955W        W 1249  42.329   0.352   1.430
41956W        W 1250   8.169  38.035   2.335
41957W        W 1251  34.390  12.697  13.047
41958W        W 1252  26.189   9.696  12.350
41959W        W 1253  16.673  10.334   4.743
41960W        W 1254  29.504   5.219   3.662
41961W        W 1255  42.902   9.883   3.733
41962W        W 1256  20.640   8.291   2.307
41963W        W 1257   8.668  34.867  11.049
41964W        W 1258  16.296  23.014   0.278
41965W        W 1259  44.799   8.821   4.619
41966W        W 1260  18.751   4.371   3.167
41967W        W 1261  37.485  19.095   0.324
41968W        W 1262  11.291  44.338   0.475
41969W        W 1263  15.213  32.133  10.491
41970W        W 1264  16.762  30.096  11.477
41971W        W 1265  42.391   4.392   2.818
41972W        W 1266  33.494  25.164  12.495
41973W        W 1267  14.793  31.504  12.850
41974W        W 1268  41.010  34.869  12.571
41975W        W 1269  37.034  31.941  11.598
41976W        W 1270  15.224  38.331   2.728
41977W        W 1271  34.584  28.114  12.532
41978W        W 1272  22.649  26.017  11.591
41979W        W 1273  43.846   1.438  13.433
41980W        W 1274  41.343  36.539   2.272
41981W        W 1275  14.712   0.937   3.735
41982W        W 1276  30.071  23.655   2.839
41983W        W 1277  24.005  31.137   3.187
41984W        W 1278  10.652  31.038  14.772
41985W        W 1279  14.322  39.412   1.923
41986W        W 1280  32.583  11.662  11.499
41987W        W 1281  20.555  44.408   0.872
41988W        W 1282   1.957  31.978  14.983
41989W        W 1283  38.842   6.328  13.876
41990W        W 1284   6.821  24.624   0.831
41991W        W 1285  14.677  36.087  10.991
41992W        W 1286  30.105  36.923  12.516
41993W        W 1287  32.567  10.356  13.353
41994W        W 1288  43.275  26.078  14.314
41995W        W 1289  32.637  24.511  12.909
41996W        W 1290  19.182  23.214   1.871
41997W        W 1291  33.574  44.373  13.848
41998W        W 1292  39.523   0.975   0.268
41999W        W 1293  31.139   8.348   3.246
42000W        W 1294  40.305  17.705  12.989
42001W        W 1295  31.963   7.912  13.483
42002W        W 1296  28.016  10.855   1.852
42003W        W 1297  14.674  37.400   2.245
42004W        W 1298  18.174   5.245  14.908
42005W        W 1299  44.765   2.799   3.342
42006W        W 1300  39.475  40.446  12.491
42007W        W 1301  36.926  41.998   2.280
42008W        W 1302  17.297  43.795  13.815
42009W        W 1303  26.982  41.527  11.085
42010W        W 1304  42.422  33.555   1.726
42011W        W 1305  22.585  44.427  12.894
42012W        W 1306  20.079  26.612  10.112
42013W        W 1307  30.105  34.905   2.702
42014W        W 1308  19.596  32.627   3.307
42015W        W 1309  19.558  40.025  10.539
42016W        W 1310  17.578  27.645  11.879
42017W        W 1311   4.878  16.236   0.454
42018W        W 1312  27.582   1.832   4.725
42019W        W 1313  41.031   0.432   0.895
42020W        W 1314  25.557   4.437  12.964
42021W        W 1315   7.844   7.860   3.772
42022W        W 1316  28.113  32.962   1.792
42023W        W 1317   3.739  41.835  12.408
42024W        W 1318   7.337   0.472   4.740
42025W        W 1319   2.275  28.622   1.238
42026W        W 1320   1.285   0.262  12.905
42027W        W 1321  25.085   6.751  12.865
42028W        W 1322  19.654   2.810  13.903
42029W        W 1323  17.802  10.648   3.193
42030W        W 1324  34.491  15.170  11.519
42031W        W 1325  23.687  44.007  13.049
42032W        W 1326  42.933  37.839  10.972
42033W        W 1327  23.988   5.722   2.184
42034W        W 1328   0.947  19.600  11.073
42035W        W 1329  11.745   3.241  12.969
42036W        W 1330   4.900  27.478   4.647
42037W        W 1331  22.087   7.225   0.370
42038W        W 1332   4.394   6.824  14.846
42039W        W 1333   9.283  21.623   3.183
42040W        W 1334  39.364  32.540   0.349
42041W        W 1335  35.029  37.906   4.619
42042W        W 1336  25.695  12.645  11.013
42043W        W 1337  27.668   4.871   2.720
42044W        W 1338  11.258  15.214  10.414
42045W        W 1339   5.295  40.366  14.955
42046W        W 1340  37.357   4.377  10.503
42047W        W 1341  31.450  25.117   4.805
42048W        W 1342  34.880  37.987  10.892
42049W        W 1343   0.440   2.336   0.450
42050W        W 1344  28.933  19.634  10.966
42051W        W 1345   8.736  43.279  14.284
42052W        W 1346  12.802  44.774   2.804
42053W        W 1347   3.217   0.452   1.735
42054W        W 1348  37.397  15.225   1.409
42055W        W 1349   4.425  27.182   0.363
42056W        W 1350  15.192  35.923  12.925
42057W        W 1351  41.851  43.799  11.385
42058W        W 1352  22.033   3.720   1.791
42059W        W 1353   4.896  25.115   0.257
42060W        W 1354  18.781  21.089   1.806
42061W        W 1355  31.000  14.650  14.911
42062W        W 1356   0.852  29.453  12.957
42063W        W 1357  12.841  36.941  10.408
42064W        W 1358  38.348  20.061  12.001
42065W        W 1359   1.930   5.238  12.912
42066W        W 1360  14.682   4.803   0.815
42067W        W 1361   8.824  44.837   3.376
42068W        W 1362  30.929  33.890  13.321
42069W        W 1363  29.925  12.141  10.641
42070W        W 1364  15.744  12.301   1.317
42071W        W 1365   9.164  36.903   1.783
42072W        W 1366  37.987  15.622   3.812
42073W        W 1367  11.352  36.864   3.288
42074W        W 1368   6.253  18.195   1.325
42075W        W 1369  26.000  15.624  10.993
42076W        W 1370  34.099   4.833   1.302
42077W        W 1371  21.646  39.878  11.561
42078W        W 1372   2.464  26.532  11.571
42079W        W 1373   7.774  19.555  13.355
42080W        W 1374   1.402   6.881   3.326
42081W        W 1375  28.565   2.452  14.283
42082W        W 1376  17.588  26.020  14.809
42083W        W 1377  27.082  33.013  13.525
42084W        W 1378  22.652  41.976   0.460
42085W        W 1379  18.681  33.030  11.101
42086W        W 1380  42.334  15.231  13.418
42087W        W 1381  14.649  15.794  14.369
42088W        W 1382  25.170  19.675  12.399
42089W        W 1383  44.876  17.293   2.821
42090W        W 1384  13.275  29.099  10.433
42091W        W 1385   2.739  15.217   3.837
42092W        W 1386  19.746  34.023  10.568
42093W        W 1387  21.514  19.151   4.193
42094W        W 1388  21.739   4.357  11.932
42095W        W 1389  28.093  26.075  11.573
42096W        W 1390   0.971   6.225  13.469
42097W        W 1391  13.197  11.825   2.367
42098W        W 1392  22.179  27.633  14.782
42099W        W 1393  32.129  23.047  13.005
42100W        W 1394   9.229  38.973  13.992
42101W        W 1395   1.313   8.369  14.405
42102W        W 1396  38.412   7.302   4.686
42103W        W 1397  19.125  20.697   3.325
42104W        W 1398  28.157   0.455  14.781
42105W        W 1399  18.749  37.047  14.319
42106W        W 1400  14.196  32.446  11.904
42107W        W 1401  10.257  41.319  14.758
42108W        W 1402  28.434  20.252  11.004
42109W        W 1403  26.953  23.106  13.374
42110W        W 1404   0.322  29.948  12.940
42111W        W 1405   5.889   2.847   3.857
42112W        W 1406   3.390  44.813  11.570
42113W        W 1407  22.683  18.117   3.847
42114W        W 1408  19.250  16.214   2.409
42115W        W 1409   2.847  12.660  11.596
42116W        W 1410   3.247  18.236   0.805
42117W        W 1411  24.140   8.857  11.122
42118W        W 1412  11.298  42.319   1.738
42119W        W 1413  22.717  25.684   2.257
42120W        W 1414   0.837  25.094   0.442
42121W        W 1415  24.701  32.136  12.043
42122W        W 1416  42.970  33.995  12.069
42123W        W 1417  24.702  44.356   1.215
42124W        W 1418  21.717  34.910  11.010
42125W        W 1419  24.641  31.514  13.994
42126W        W 1420  10.358  34.932  10.494
42127W        W 1421   3.254   4.834   3.799
42128W        W 1422   9.771  44.373   0.434
42129W        W 1423  22.207  42.959  13.439
42130W        W 1424  17.625  37.888  12.511
42131W        W 1425  10.259  44.430  11.897
42132W        W 1426  13.705   9.758  14.764
42133W        W 1427  23.021   6.295   5.655
42134W        W 1428  15.732  17.627   4.671
42135W        W 1429   5.385   0.466  11.939
42136W        W 1430  29.453  43.875  11.419
42137W        W 1431  23.014  31.954   4.243
42138W        W 1432   7.825  36.042  10.981
42139W        W 1433  29.082  25.487  11.880
42140W        W 1434  13.766  31.424  10.618
42141W        W 1435  41.326  18.614  11.940
42142W        W 1436   9.198   3.414  12.021
42143W        W 1437  42.985   5.330   0.753
42144W        W 1438  33.618   2.242   3.737
42145W        W 1439   6.202  29.035   3.347
42146W        W 1440  34.460  35.007   4.331
42147W        W 1441  38.457  14.307  10.497
42148W        W 1442   6.323  35.972  14.946
42149W        W 1443  12.718  10.737   3.796
42150W        W 1444   9.388  44.357   2.201
42151W        W 1445  44.420  39.041  12.407
42152W        W 1446   7.833  13.191   3.843
42153W        W 1447  34.530  34.393  12.354
42154W        W 1448  13.243   7.332   3.287
42155W        W 1449  20.756  34.410  14.977
42156W        W 1450   7.680  39.470   4.704
42157W        W 1451  11.367   4.333   0.341
42158W        W 1452  34.488  40.465   1.880
42159W        W 1453  32.557  35.034  11.472
42160W        W 1454   7.255   6.872  12.047
42161W        W 1455  36.991   9.691  13.536
42162W        W 1456  38.430   3.854   3.841
42163W        W 1457   3.224   1.938  14.780
42164W        W 1458   4.821  25.657  12.021
42165W        W 1459  41.949  20.607  13.987
42166W        W 1460  22.218   7.365   1.333
42167W        W 1461   6.785  38.560  14.309
42168W        W 1462  33.466  30.036   4.624
42169W        W 1463  28.930  29.430   0.788
42170W        W 1464  27.105  29.042   1.777
42171W        W 1465   3.260   6.858   0.356
42172W        W 1466  21.517  41.985  11.117
42173W        W 1467  34.979  19.096  11.475
42174W        W 1468  36.386   7.223   3.224
42175W        W 1469  19.113  13.112  14.470
42176W        W 1470  17.150  37.371  11.953
42177W        W 1471  23.021   5.886  14.965
42178W        W 1472   2.341   6.264  14.915
42179W        W 1473   0.945  34.541  11.984
42180W        W 1474   8.747  41.796   3.221
42181W        W 1475  26.687   9.752   0.857
42182W        W 1476   8.291  13.638   3.336
42183W        W 1477  16.143  24.526  14.407
42184W        W 1478   4.724  40.513   4.147
42185W        W 1479   1.439   8.891   3.820
42186W        W 1480   9.689  31.562   3.774
42187W        W 1481   3.929  42.973  10.962
42188W        W 1482   0.302  38.917  11.455
42189W        W 1483  35.016   0.363   3.233
42190W        W 1484   1.877  28.105  14.455
42191W        W 1485  40.970   4.796  14.947
42192W        W 1486   7.688   5.742  13.437
42193W        W 1487  14.119  27.468   0.952
42194W        W 1488  10.158  31.478   2.770
42195W        W 1489  42.812  31.018   1.370
42196W        W 1490  10.868  13.685  11.432
42197W        W 1491  15.270  28.069  12.927
42198W        W 1492  31.611  21.154  10.577
42199W        W 1493  12.779   2.466   0.861
42200W        W 1494  17.564  43.874   3.632
42201W        W 1495  25.024  35.393  13.921
42202W        W 1496  37.438  31.441   2.843
42203W        W 1497  30.574   2.862  14.780
42204W        W 1498   9.282  42.397  14.383
42205W        W 1499   8.816   2.950   3.708
42206W        W 1500  30.574   5.286   4.695
42207W        W 1501   1.788  28.449   4.725
42208W        W 1502  37.887  40.478   3.871
42209W        W 1503  43.947  43.834  13.913
42210W        W 1504  41.900   3.883   1.324
42211W        W 1505  16.657   2.802  14.004
42212W        W 1506   5.261   6.338   4.750
42213W        W 1507  20.715   2.818   2.370
42214W        W 1508   4.849  34.447  14.937
42215W        W 1509  40.974  14.595  13.932
42216W        W 1510   1.890  29.594  13.976
42217W        W 1511   5.261   6.352  11.376
42218W        W 1512   7.252  43.860   5.767
42219W        W 1513  23.507  14.716  13.434
42220W        W 1514  43.962  38.524  11.574
42221W        W 1515   7.904   7.289  11.998
42222W        W 1516  30.612  25.165  10.523
42223W        W 1517  30.030  14.254  13.050
42224W        W 1518  34.504   7.676   1.698
42225W        W 1519  34.962  32.068   3.246
42226W        W 1520  42.504   6.302   1.301
42227W        W 1521   7.845   5.873  11.471
42228W        W 1522  11.295  13.329   4.792
42229W        W 1523  18.647  42.857   1.451
42230W        W 1524  12.706   9.823   3.677
42231W        W 1525   6.299  32.002   0.396
42232W        W 1526  15.784  16.315  13.466
42233W        W 1527  39.852   4.368   3.302
42234W        W 1528  26.469  29.108  14.349
42235W        W 1529  13.196  42.792   1.396
42236W        W 1530   8.322  14.785  12.574
42237W        W 1531  21.208   4.906   1.383
42238W        W 1532   8.879  32.431  14.904
42239W        W 1533  23.222  26.959  12.944
42240W        W 1534   8.739  32.043   1.932
42241W        W 1535   9.831  27.993  11.389
42242W        W 1536  34.869  17.671  14.006
42243W        W 1537  29.002  34.429   3.165
42244W        W 1538  34.554  19.178  13.921
42245W        W 1539  17.126  30.476  12.373
42246W        W 1540  12.732   1.974   1.346
42247W        W 1541  13.184  14.772  11.970
42248W        W 1542  18.570  43.987  14.384
42249W        W 1543  20.590  44.392   9.932
42250W        W 1544  34.476  38.855  13.360
42251W        W 1545  17.641  13.699   2.279
42252W        W 1546  17.602  24.056   0.853
42253W        W 1547  43.862  44.322   2.289
42254W        W 1548  11.325   1.869  14.860
42255W        W 1549  14.156  10.296   3.805
42256W        W 1550   3.285   2.286  12.398
42257W        W 1551   3.859   6.836  12.509
42258W        W 1552  40.498  17.120  14.311
42259W        W 1553  13.178  30.144  10.521
42260W        W 1554  27.999  43.764  10.403
42261W        W 1555  27.579  30.425  10.525
42262W        W 1556  17.696  43.497   4.665
42263W        W 1557  11.328  21.758  13.024
42264W        W 1558   9.656  21.523   9.570
42265W        W 1559  22.095  30.152   3.212
42266W        W 1560  31.523   2.765   4.613
42267W        W 1561  31.989  22.704   4.632
42268W        W 1562  44.363  43.488   0.384
42269W        W 1563   0.372  24.200  11.060
42270W        W 1564  30.928  39.337  13.377
42271W        W 1565  24.204  14.786  11.997
42272W        W 1566  12.350  26.198   2.341
42273W        W 1567  22.230   7.765   1.792
42274W        W 1568  23.725  24.594  10.550
42275W        W 1569  28.988  25.579  12.350
42276W        W 1570  37.906  31.123  10.464
42277W        W 1571  19.243  40.445  10.607
42278W        W 1572  44.479  38.489   0.764
42279W        W 1573  25.965  13.605  14.873
42280W        W 1574  10.244  40.830  14.944
42281W        W 1575  22.045   4.859   4.122
42282W        W 1576  22.193  40.989   2.825
42283W        W 1577  23.177  20.663  10.981
42284W        W 1578  42.519  37.058  11.011
42285W        W 1579  32.399  23.695   4.824
42286W        W 1580  29.056  14.169  12.466
42287W        W 1581  36.997  16.169  12.015
42288W        W 1582  12.725  25.187  13.885
42289W        W 1583  32.413  36.371   0.888
42290W        W 1584  12.308   6.401  14.512
42291W        W 1585  42.803  34.381  13.418
42292W        W 1586  31.627  38.938   5.111
42293W        W 1587   8.212  12.620   3.645
42294W        W 1588  10.737  27.450  11.102
42295W        W 1589  44.915  36.564  13.307
42296W        W 1590  29.154  26.536  10.445
42297W        W 1591  28.470  35.008  14.896
42298W        W 1592  21.156  18.168   2.293
42299W        W 1593  36.931   9.356   5.281
42300W        W 1594  38.988   9.857   4.230
42301W        W 1595  44.881  28.612  12.839
42302W        W 1596  43.292  25.556   3.760
42303W        W 1597  41.366  22.541   1.346
42304W        W 1598  27.004  28.124  11.471
42305W        W 1599   4.374   8.768   1.716
42306W        W 1600  17.795  42.923   0.391
42307W        W 1601  44.928   8.275  12.027
42308W        W 1602   4.345  18.209  12.995
42309W        W 1603  41.427  29.098  12.967
42310W        W 1604  26.068  28.994   4.736
42311W        W 1605  30.522   0.813  10.606
42312W        W 1606   0.783   5.820   0.806
42313W        W 1607  44.903  22.604  11.389
42314W        W 1608   2.328  44.880   4.653
42315W        W 1609  43.986  44.945  12.005
42316W        W 1610  26.959  33.575  10.946
42317W        W 1611  32.539  26.622  12.835
42318W        W 1612  24.644  16.178  13.884
42319W        W 1613   5.700  19.135   9.557
42320W        W 1614   0.866   1.429  13.425
42321W        W 1615  36.874  35.386   1.878
42322W        W 1616   7.352  13.279   2.313
42323W        W 1617  11.373   2.395   2.821
42324W        W 1618  27.469   1.766  11.911
42325W        W 1619  19.560  26.193   1.807
42326W        W 1620   5.749  34.117  12.040
42327W        W 1621  43.307   2.872  12.375
42328W        W 1622  12.844  43.777  12.824
42329W        W 1623  28.957  14.242   2.414
42330W        W 1624  24.508  39.539  10.473
42331W        W 1625  10.680  34.598   1.714
42332W        W 1626  17.685  11.842  14.445
42333W        W 1627   0.277   5.909  12.050
42334W        W 1628  13.810  19.215   0.403
42335W        W 1629  22.737  32.606  10.634
42336W        W 1630  32.434  32.136   1.754
42337W        W 1631  14.336   4.247  13.950
42338W        W 1632  34.946  41.829   3.352
42339W        W 1633   1.442  41.811  13.440
42340W        W 1634  24.216  28.966  13.879
42341W        W 1635  21.179  24.638  14.847
42342W        W 1636  15.275   7.805   4.630
42343W        W 1637  32.494  38.839  10.148
42344W        W 1638  34.420  30.117  11.560
42345W        W 1639  35.935  43.799   1.442
42346W        W 1640  29.051   9.283   4.320
42347W        W 1641   6.354  44.314   4.732
42348W        W 1642  12.734  44.469   1.709
42349W        W 1643  35.961   5.249  10.530
42350W        W 1644  23.218  36.537   3.804
42351W        W 1645  14.196  24.181   1.825
42352W        W 1646  34.897  31.521   3.242
42353W        W 1647  29.558   5.849  13.959
42354W        W 1648   6.344  13.836   4.607
42355W        W 1649  33.600  25.078  12.950
42356W        W 1650   1.970   5.843  14.969
42357W        W 1651  16.149  15.135   4.265
42358W        W 1652  43.783  22.619   0.246
42359W        W 1653  18.114  10.783  12.483
42360W        W 1654  15.216  37.082  13.470
42361W        W 1655  27.017   4.810  11.030
42362W        W 1656  30.608  19.614   3.687
42363W        W 1657  33.061  23.145  12.071
42364W        W 1658  29.623  13.172  10.413
42365W        W 1659  38.359  10.731   0.296
42366W        W 1660  34.375  22.030   4.823
42367W        W 1661  28.676  44.811   3.316
42368W        W 1662  11.336   4.332  13.825
42369W        W 1663  39.866  44.809   0.366
42370W        W 1664  44.956  29.089  13.874
42371W        W 1665  32.629  27.175  14.988
42372W        W 1666  22.109  21.566   2.802
42373W        W 1667   3.942  13.611   0.403
42374W        W 1668  39.473   9.786   5.781
42375W        W 1669  26.518  21.070  14.469
42376W        W 1670  26.977  17.675   4.668
42377W        W 1671  20.711  31.625   3.209
42378W        W 1672  27.137  11.153  10.481
42379W        W 1673  41.874  25.684  14.902
42380W        W 1674  37.852   5.740   4.218
42381W        W 1675  36.422  10.641  12.554
42382W        W 1676  28.130  24.079  13.957
42383W        W 1677  31.072   0.255  10.577
42384W        W 1678  32.061   0.807  10.486
42385W        W 1679  12.208  28.143  11.602
42386W        W 1680  37.067   3.435   5.246
42387W        W 1681  12.656  15.739   3.295
42388W        W 1682  21.579  30.580  14.290
42389W        W 1683  12.672  28.650   3.731
42390W        W 1684  12.186  12.843  11.924
42391W        W 1685  15.661  20.157  13.817
42392W        W 1686   5.695  15.119   3.356
42393W        W 1687  32.454  43.805  14.871
42394W        W 1688  26.959  38.492  14.451
42395W        W 1689   7.292   9.246   4.298
42396W        W 1690  31.536  44.000  13.454
42397W        W 1691   5.363  32.030   0.260
42398W        W 1692  41.329   1.428  14.453
42399W        W 1693  26.511  26.630  12.983
42400W        W 1694  31.042  36.547   4.637
42401W        W 1695   2.411   6.210   3.645
42402W        W 1696   4.794   6.213   4.150
42403W        W 1697  20.526  13.246   2.772
42404W        W 1698  20.048   7.677  13.529
42405W        W 1699  36.389  12.220   4.321
42406W        W 1700  22.095  21.556   2.261
42407W        W 1701  37.561  13.646  10.417
42408W        W 1702  16.578  37.896   1.775
42409W        W 1703  12.770  20.092  12.882
42410W        W 1704  40.896   2.271   3.635
42411W        W 1705   7.705  42.478  11.119
42412W        W 1706  20.675  14.119  11.568
42413W        W 1707  24.080  10.837   2.755
42414W        W 1708  41.529  32.544   1.251
42415W        W 1709   5.413  27.516   0.244
42416W        W 1710  29.507   6.841   4.348
42417W        W 1711  12.233  38.347   2.817
42418W        W 1712   4.389  18.071   1.730
42419W        W 1713  14.149  32.127   4.330
42420W        W 1714  34.867  25.077   4.764
42421W        W 1715  38.070  43.824   0.901
42422W        W 1716  36.064  40.351  13.475
42423W        W 1717  24.720  43.850  13.501
42424W        W 1718  34.470  15.738  11.408
42425W        W 1719  19.200  23.541  11.027
42426W        W 1720  32.394  21.100   0.824
42427W        W 1721  35.080  24.560  14.779
42428W        W 1722  15.734   4.729  11.493
42429W        W 1723  25.482  21.204   0.811
42430W        W 1724   5.385   3.383  11.419
42431W        W 1725  24.204  20.559   4.210
42432W        W 1726  44.818   8.680  14.914
42433W        W 1727  32.950  39.432  12.518
42434W        W 1728  19.241  15.748  11.549
42435W        W 1729  41.822   6.906   3.150
42436W        W 1730   5.889   2.938  11.609
42437W        W 1731  31.436  26.018   1.443
42438W        W 1732  29.615  18.787  14.353
42439W        W 1733  25.214  27.149   3.672
42440W        W 1734  26.635  10.290  11.480
42441W        W 1735   9.717  14.269   0.373
42442W        W 1736  21.216   0.316   1.288
42443W        W 1737  26.052  10.326   0.365
42444W        W 1738   1.343  15.289   2.804
42445W        W 1739  38.953  17.259   0.770
42446W        W 1740  11.666   2.818   4.735
42447W        W 1741   9.735   2.320   1.716
42448W        W 1742  29.478  34.898  12.015
42449W        W 1743  20.163  40.894  12.504
42450W        W 1744  21.653  44.777  11.029
42451W        W 1745  40.312   4.713  10.560
42452W        W 1746   1.425  13.742   2.708
42453W        W 1747  10.213  34.427   0.317
42454W        W 1748  28.184  42.936  14.914
42455W        W 1749  21.668  29.091  12.089
42456W        W 1750  30.498  42.904   2.741
42457W        W 1751  32.399  13.754  13.512
42458W        W 1752  29.560  14.771  13.525
42459W        W 1753  31.037  24.559   2.360
42460W        W 1754  44.003  12.678  10.427
42461W        W 1755  40.346   3.372   3.706
42462W        W 1756  23.625  13.165   1.288
42463W        W 1757  16.277  31.037   1.351
42464W        W 1758   8.363  41.465  14.950
42465W        W 1759  24.615  31.044   4.639
42466W        W 1760  37.877  38.469   4.641
42467W        W 1761  37.468  39.452  13.460
42468W        W 1762  19.068  26.502   0.244
42469W        W 1763  15.809  13.351  14.860
42470W        W 1764  35.460  28.071  12.952
42471W        W 1765  44.755  37.575  13.360
42472W        W 1766  26.080  17.621  13.869
42473W        W 1767   5.718   1.319  12.393
42474W        W 1768  21.565   3.754  14.925
42475W        W 1769  38.460  13.138   0.466
42476W        W 1770   7.726  32.998  12.991
42477W        W 1771  37.448   7.770   0.881
42478W        W 1772  34.068   5.905   1.409
42479W        W 1773  29.586  22.526  11.476
42480W        W 1774  10.262   3.297  11.487
42481W        W 1775   9.296   2.853   4.353
42482W        W 1776  39.541  12.795   2.821
42483W        W 1777   7.853  18.076   5.274
42484W        W 1778  36.052   1.789  11.450
42485W        W 1779  21.545  43.412  14.400
42486W        W 1780  11.649  36.524  12.956
42487W        W 1781   4.250  26.614  14.282
42488W        W 1782  10.146  11.290  11.545
42489W        W 1783  42.778  42.391  11.860
42490W        W 1784  35.459  10.853   4.186
42491W        W 1785  17.260  25.564   4.827
42492W        W 1786   6.202  25.018   2.303
42493W        W 1787  41.327  42.025  12.507
42494W        W 1788  42.021  10.324  14.430
42495W        W 1789  30.521   5.708   3.153
42496W        W 1790  29.954  38.383  10.107
42497W        W 1791  34.032  12.631  12.489
42498W        W 1792  40.974  33.518   4.669
42499W        W 1793   3.257  35.440  13.415
42500W        W 1794  37.373  20.731  12.007
42501W        W 1795  44.504  31.016  13.011
42502W        W 1796  35.551   7.312   2.894
42503W        W 1797  37.979   7.400   2.263
42504W        W 1798   5.874   3.725   2.720
42505W        W 1799  21.096  30.925  10.411
42506W        W 1800  11.284   4.777   4.651
42507W        W 1801   3.771  39.925  11.544
42508W        W 1802   8.696  16.277  13.031
42509W        W 1803  26.155   4.942   3.643
42510W        W 1804  20.272   3.722  14.011
42511W        W 1805  35.036   3.754   0.750
42512W        W 1806  16.728   6.787   3.207
42513W        W 1807  14.238  41.516  13.936
42514W        W 1808  21.217  30.140   4.126
42515W        W 1809  24.675   3.272   5.225
42516W        W 1810   7.835  36.915  14.875
42517W        W 1811  33.065  43.896  11.883
42518W        W 1812   2.910  13.134  13.989
42519W        W 1813   2.944  33.498  14.355
42520W        W 1814  21.715  26.160  13.501
42521W        W 1815  33.587  13.201  14.484
42522W        W 1816  30.990  28.678   4.124
42523W        W 1817  35.550  10.754   3.345
42524W        W 1818  37.475  10.212   0.947
42525W        W 1819  17.787  13.741  11.932
42526W        W 1820  44.287  29.483   3.309
42527W        W 1821   0.879  38.510  11.564
42528W        W 1822   0.856  26.141   0.314
42529W        W 1823  18.293  32.135   1.718
42530W        W 1824  19.660   6.893  12.879
42531W        W 1825   1.312   8.774   2.353
42532W        W 1826  29.451  18.161  13.044
42533W        W 1827  31.022  38.954   5.164
42534W        W 1828  39.526  38.470   3.678
42535W        W 1829  33.458  44.923   3.336
42536W        W 1830   9.732  29.112   4.649
42537W        W 1831  36.062  10.324   1.808
42538W        W 1832  25.994  43.956  11.595
42539W        W 1833  24.216  26.960  13.412
42540W        W 1834  30.582   7.415  12.408
42541W        W 1835  40.305   3.891  12.493
42542W        W 1836  32.098  40.440   4.193
42543W        W 1837   5.898  17.590   5.130
42544W        W 1838  44.807  36.482  12.479
42545W        W 1839  38.428   0.332  14.291
42546W        W 1840  37.551  37.385   3.853
42547W        W 1841  17.095  30.940  14.426
42548W        W 1842  36.442   3.427  12.976
42549W        W 1843  39.837  39.396   0.853
42550W        W 1844  44.350  24.674  12.358
42551W        W 1845  31.078  34.552   3.689
42552W        W 1846  15.745  20.649   0.359
42553W        W 1847  39.437  15.149   2.857
42554W        W 1848  21.172  32.025  10.017
42555W        W 1849   8.344  27.639   9.667
42556W        W 1850  32.946   4.892   0.780
42557W        W 1851  33.388  32.921   3.147
42558W        W 1852   4.923  18.061  11.012
42559W        W 1853  44.278   5.708  14.474
42560W        W 1854  16.150  41.378  11.451
42561W        W 1855  26.547  41.998  14.003
42562W        W 1856  27.115  22.165  10.600
42563W        W 1857  35.366  20.196   3.728
42564W        W 1858  12.694  42.349  12.091
42565W        W 1859  39.925   7.190  11.017
42566W        W 1860  11.251  12.623   2.753
42567W        W 1861  35.445   2.916   0.946
42568W        W 1862   3.329  33.070   2.402
42569W        W 1863   8.179  19.765  11.090
42570W        W 1864  14.227  21.188  10.488
42571W        W 1865   2.782   3.745  13.022
42572W        W 1866  32.482  14.188  13.509
42573W        W 1867  40.005  21.721   4.200
42574W        W 1868  17.796  22.505   3.771
42575W        W 1869  22.743  38.491   2.398
42576W        W 1870  29.563  23.155   3.328
42577W        W 1871  19.251  31.905  12.886
42578W        W 1872   4.396  33.076   3.700
42579W        W 1873  15.124  27.498  12.867
42580W        W 1874  22.578  25.696  12.961
42581W        W 1875   5.770  10.653  13.882
42582W        W 1876  31.120  38.408   0.261
42583W        W 1877  23.177  31.901  11.432
42584W        W 1878  43.891  40.016  12.521
42585W        W 1879  33.435  19.595   4.782
42586W        W 1880  25.621  14.272  14.868
42587W        W 1881  40.978   3.747  10.446
42588W        W 1882  13.170   1.845   9.943
42589W        W 1883  39.440   5.282   1.778
42590W        W 1884  31.058  17.286   1.351
42591W        W 1885  15.211  29.442  13.382
42592W        W 1886   2.409  21.235   1.905
42593W        W 1887   6.385  10.290  14.977
42594W        W 1888  25.535  34.918   3.806
42595W        W 1889  16.083  44.879  13.446
42596W        W 1890  20.188  29.506  13.377
42597W        W 1891  37.502  29.121   3.243
42598W        W 1892  20.756  32.913   1.717
42599W        W 1893  12.636  40.980   1.767
42600W        W 1894   9.874  24.003   2.244
42601W        W 1895  24.546  19.197  10.568
42602W        W 1896  37.902   7.778  14.498
42603W        W 1897  22.698  21.261   0.269
42604W        W 1898  42.356  17.266  10.917
42605W        W 1899  20.126  22.075   3.288
42606W        W 1900  30.938  32.982   1.818
42607W        W 1901  10.863  34.501  11.968
42608W        W 1902  20.266   7.867   2.266
42609W        W 1903  22.616   1.920   3.220
42610W        W 1904  44.981  34.049  13.964
42611W        W 1905   8.296  36.909   0.275
42612W        W 1906  12.646  40.856   3.251
42613W        W 1907  17.268  34.423  11.970
42614W        W 1908  32.499   6.215  14.816
42615W        W 1909   9.715  10.860   2.379
42616W        W 1910   4.828  19.764   3.652
42617W        W 1911   5.762  28.963  11.393
42618W        W 1912   2.752  36.957  12.368
42619W        W 1913  40.492  27.186   2.892
42620W        W 1914  38.995  42.781   3.268
42621W        W 1915  23.125  41.843   0.923
42622W        W 1916  37.065   6.407  13.882
42623W        W 1917  40.979   0.886  14.309
42624W        W 1918  40.012   2.912   1.886
42625W        W 1919  16.092  30.115   4.266
42626W        W 1920   0.768   6.690  12.557
42627W        W 1921  35.853   9.670  11.585
42628W        W 1922  18.763  31.636   4.312
42629W        W 1923  30.419  14.224  13.870
42630W        W 1924  17.278  32.636  11.479
42631W        W 1925  11.727  35.000   3.352
42632W        W 1926  23.558  10.694   4.709
42633W        W 1927   6.357  19.756   3.664
42634W        W 1928  17.250  29.564   0.740
42635W        W 1929  17.233  36.578  10.953
42636W        W 1930  33.964   7.767  13.854
42637W        W 1931  24.014  22.086  14.509
42638W        W 1932  38.989  18.290   0.460
42639W        W 1933  44.847  14.676  13.952
42640W        W 1934  14.595  43.872   3.162
42641W        W 1935  37.355  41.303  12.485
42642W        W 1936  15.212  17.634   3.788
42643W        W 1937  22.998  16.230  13.825
42644W        W 1938  12.843  38.064  11.575
42645W        W 1939   8.679  31.556   1.251
42646W        W 1940   7.684  18.283  14.464
42647W        W 1941  40.544  30.109   4.213
42648W        W 1942  41.485  17.658   3.868
42649W        W 1943  19.167  18.223   2.768
42650W        W 1944  26.092  17.168  11.542
42651W        W 1945   4.943  41.973   3.290
42652W        W 1946  18.695  12.719   1.839
42653W        W 1947  35.901  21.512   3.826
42654W        W 1948  37.501  36.385   2.756
42655W        W 1949  23.062  23.237  12.861
42656W        W 1950   6.252  38.457   0.881
42657W        W 1951  44.351  11.622   1.908
42658W        W 1952   6.742  35.872   0.728
42659W        W 1953  26.105  12.320   9.963
42660W        W 1954  14.192  44.434  13.920
42661W        W 1955   2.736  37.055   1.875
42662W        W 1956  34.062  34.388  11.512
42663W        W 1957  43.773  26.635   0.463
42664W        W 1958  23.537  12.744  10.980
42665W        W 1959   8.673  37.883  13.424
42666W        W 1960  34.545  20.728   0.919
42667W        W 1961  24.487   3.881   0.410
42668W        W 1962  16.289  26.121   1.218
42669W        W 1963  39.374  14.190  10.561
42670W        W 1964  24.123  20.673  13.793
42671W        W 1965   6.868  44.492   5.664
42672W        W 1966   9.704   2.861   4.637
42673W        W 1967  26.662  34.608  11.113
42674W        W 1968  33.128   5.759  11.953
42675W        W 1969   2.917   0.358  12.428
42676W        W 1970  33.962   9.371  10.507
42677W        W 1971  31.424  42.498   4.126
42678W        W 1972  24.588  40.799  14.010
42679W        W 1973  31.549  43.965   1.418
42680W        W 1974  18.140  10.293  13.396
42681W        W 1975  33.605   4.360  14.887
42682W        W 1976  23.009   3.251  14.856
42683W        W 1977  26.027   5.883  10.957
42684W        W 1978   1.864  39.331  14.866
42685W        W 1979  39.440   1.900   3.845
42686W        W 1980  38.473  43.312  11.562
42687W        W 1981  29.032   9.380   1.925
42688W        W 1982  11.214  28.613  14.331
42689W        W 1983  33.022   7.782  12.987
42690W        W 1984   8.747  24.714   2.813
42691W        W 1985  11.701  40.002  14.837
42692W        W 1986  16.223  37.856  13.987
42693W        W 1987  43.888   6.883   2.275
42694W        W 1988  42.818  16.760  11.888
42695W        W 1989  23.142   2.755  13.942
42696W        W 1990  17.191   7.173  11.415
42697W        W 1991  21.175   9.698   3.642
42698W        W 1992  18.657  37.475   5.094
42699W        W 1993  26.132  42.859  10.471
42700W        W 1994  22.240  16.093  11.473
42701W        W 1995  10.647  23.598   0.869
42702W        W 1996  39.414  38.052   2.317
42703W        W 1997  19.549  35.979  11.058
42704W        W 1998  12.824   8.739  13.319
42705W        W 1999   1.781  18.727  13.431
42706W        W 2000   0.285  31.629  14.950
42707W        W 2001  21.734   2.722  11.985
42708W        W 2002  38.061  26.507  14.408
42709W        W 2003  12.190  42.004  13.868
42710W        W 2004  44.270  42.945   0.348
42711W        W 2005  20.763   5.724   2.300
42712W        W 2006  43.993  26.566  12.073
42713W        W 2007   1.420  40.827   0.799
42714W        W 2008   4.421   2.226   3.339
42715W        W 2009  19.242  24.664  13.392
42716W        W 2010  29.153  10.704   3.233
42717W        W 2011  27.514  30.514   4.322
42718W        W 2012  44.440  20.152  10.405
42719W        W 2013  18.652   6.696   1.809
42720W        W 2014  20.711   2.760   1.318
42721W        W 2015   1.379  17.763  10.628
42722W        W 2016  30.007  27.580   4.164
42723W        W 2017  42.511   4.443   1.848
42724W        W 2018  38.975  28.944   3.679
42725W        W 2019  28.113  37.977   5.747
42726W        W 2020  14.254  36.578  11.389
42727W        W 2021  14.726  13.609  14.910
42728W        W 2022  10.796  39.891  13.344
42729W        W 2023  26.565  18.266  12.873
42730W        W 2024   7.700  31.152   0.461
42731W        W 2025  31.917   1.426   1.327
42732W        W 2026  39.349   7.828  11.950
42733W        W 2027  41.450   9.361   5.205
42734W        W 2028  17.306  21.645   2.270
42735W        W 2029  39.963  22.609   1.776
42736W        W 2030   0.266  26.497  13.859
42737W        W 2031   7.304  17.250   3.364
42738W        W 2032  27.118  15.096   2.832
42739W        W 2033  36.475  21.679   1.854
42740W        W 2034  11.153   4.265  11.982
42741W        W 2035  32.028  28.042  12.430
42742W        W 2036  33.434   8.798  12.086
42743W        W 2037  15.767  41.430   0.436
42744W        W 2038   2.320  41.035  10.980
42745W        W 2039  11.833  13.287   4.709
42746W        W 2040  11.863   5.800  13.471
42747W        W 2041  41.940  11.796   4.151
42748W        W 2042  37.417  32.523  13.880
42749W        W 2043  12.769   5.214  11.891
42750W        W 2044  33.491  38.963   2.858
42751W        W 2045   2.723  20.705   3.868
42752W        W 2046   3.838  44.394   1.379
42753W        W 2047  29.643   7.896   0.892
42754W        W 2048  20.749   1.248  10.617
42755W        W 2049  32.044  10.704   3.703
42756W        W 2050   7.267   0.752  11.903
42757W        W 2051  33.499  43.780   1.324
42758W        W 2052  22.608  40.909  11.919
42759W        W 2053  24.511  23.624   4.746
42760W        W 2054  22.249   2.443  14.493
42761W        W 2055  27.576   8.724   0.481
42762W        W 2056  35.568  18.296   3.747
42763W        W 2057  17.605  11.244  12.025
42764W        W 2058  42.883   3.794  12.973
42765W        W 2059   2.245  43.492   4.137
42766W        W 2060   3.720   9.666   4.215
42767W        W 2061  36.502   2.241   0.363
42768W        W 2062  32.613  28.603   3.791
42769W        W 2063  44.969   4.935   5.182
42770W        W 2064  13.273  34.462  12.402
42771W        W 2065  28.545   4.841   0.902
42772W        W 2066  18.614  28.460   1.426
42773W        W 2067   0.832  34.615  13.880
42774W        W 2068  14.184  29.433   4.622
42775W        W 2069  43.842   5.906   2.903
42776W        W 2070   2.244   7.740  10.618
42777W        W 2071  22.085   1.440   3.230
42778W        W 2072  22.508  28.092  12.381
42779W        W 2073  39.035  32.901   4.639
42780W        W 2074  25.548  15.190  13.934
42781W        W 2075  33.045  43.482   3.194
42782W        W 2076   6.803  32.041  11.878
42783W        W 2077  33.005  33.532   4.647
42784W        W 2078   0.964  32.976   4.280
42785W        W 2079   8.227   0.872   1.266
42786W        W 2080   1.772  28.656  10.414
42787W        W 2081  42.380  44.323  13.062
42788W        W 2082   1.944  21.120   3.777
42789W        W 2083  43.859  29.919   0.848
42790W        W 2084  16.140  21.260   0.870
42791W        W 2085  27.989  44.766   0.819
42792W        W 2086  39.906   2.246   3.696
42793W        W 2087  30.934  36.950  10.560
42794W        W 2088   4.209  27.692   0.783
42795W        W 2089   4.897  31.527   5.112
42796W        W 2090  11.840   3.458  12.021
42797W        W 2091  37.986  22.507   3.666
42798W        W 2092  25.038  37.385   2.329
42799W        W 2093   4.919   3.413  12.903
42800W        W 2094  10.225  15.585  12.345
42801W        W 2095  31.963  24.633  10.592
42802W        W 2096  12.629  30.599   5.573
42803W        W 2097  21.756  10.763  11.041
42804W        W 2098  37.067   2.257   0.834
42805W        W 2099  20.158  14.751  11.607
42806W        W 2100   0.395   6.187  13.843
42807W        W 2101  31.019   6.900   2.890
42808W        W 2102  40.895  38.540  10.438
42809W        W 2103   8.716   4.439  11.379
42810W        W 2104  20.768  18.716   4.760
42811W        W 2105   7.850  23.569   0.447
42812W        W 2106  16.606   8.877   3.385
42813W        W 2107  23.036  36.091   2.417
42814W        W 2108  15.759  19.106  12.036
42815W        W 2109  19.659  29.998  10.600
42816W        W 2110  42.478  37.541   4.346
42817W        W 2111  22.725  19.075   4.612
42818W        W 2112  44.357  22.179  11.389
42819W        W 2113  18.695  40.866   3.376
42820W        W 2114   8.238  14.835  10.499
42821W        W 2115  41.946  29.112   0.921
42822W        W 2116  41.911   5.890   3.204
42823W        W 2117   0.785  32.035   5.171
42824W        W 2118  25.669   5.230   3.809
42825W        W 2119  41.428   0.885   5.192
42826W        W 2120  11.273  35.470  13.517
42827W        W 2121  22.110   2.451  12.081
42828W        W 2122  35.934  11.332   2.837
42829W        W 2123  39.870   0.780   0.735
42830W        W 2124  20.756  41.927  14.017
42831W        W 2125  40.306  32.545   3.385
42832W        W 2126   3.433  18.119   4.256
42833W        W 2127   2.758  21.230   4.350
42834W        W 2128  35.603  10.805  14.993
42835W        W 2129   1.295  28.447  13.429
42836W        W 2130   7.714  34.962  11.485
42837W        W 2131  44.274   4.340   4.804
42838W        W 2132  28.566  30.909  11.467
42839W        W 2133  19.687  10.829  14.964
42840W        W 2134  21.516  38.998   3.282
42841W        W 2135  13.252  39.887  12.409
42842W        W 2136  38.851  41.903   0.960
42843W        W 2137   7.206   4.389   4.696
42844W        W 2138  36.385  38.832  13.878
42845W        W 2139  43.874  27.618   0.769
42846W        W 2140   3.915  16.210  14.422
42847W        W 2141  13.296  34.926  10.466
42848W        W 2142  39.826  22.701  12.991
42849W        W 2143  16.113   3.760   3.168
42850W        W 2144  17.705   6.401  14.886
42851W        W 2145  10.274  43.398  11.945
42852W        W 2146   4.347  25.972   3.180
42853W        W 2147  17.635  15.782  13.524
42854W        W 2148  16.096  22.030  14.012
42855W        W 2149  34.078  20.036   4.301
42856W        W 2150  15.157   1.270  14.493
42857W        W 2151  36.476  13.605  12.832
42858W        W 2152  17.732  37.433  12.363
42859W        W 2153   6.748  34.009   1.368
42860W        W 2154  31.021  16.757  12.989
42861W        W 2155   5.403   0.368   2.216
42862W        W 2156  24.160  21.140  11.081
42863W        W 2157  22.060  21.038  13.338
42864W        W 2158  43.841  30.123   0.380
42865W        W 2159  42.982  36.919  12.560
42866W        W 2160   9.787   2.913   2.746
42867W        W 2161  13.265  38.886   0.866
42868W        W 2162  18.133   4.851   0.377
42869W        W 2163  31.509  16.259  10.522
42870W        W 2164  43.875  33.009   3.174
42871W        W 2165   2.933  27.611  13.405
42872W        W 2166   9.691   2.838   3.181
42873W        W 2167  23.139  23.145  13.956
42874W        W 2168  36.400   3.297   4.647
42875W        W 2169  33.615  40.312   4.174
42876W        W 2170  18.613   9.256   4.168
42877W        W 2171  33.427  34.590  12.549
42878W        W 2172  18.271  17.755  13.853
42879W        W 2173  15.794  39.856  14.341
42880W        W 2174  18.059  24.113  10.614
42881W        W 2175  43.466  30.510  11.575
42882W        W 2176  15.662  18.222  14.425
42883W        W 2177   9.878   1.272  11.964
42884W        W 2178  22.540   9.218   1.863
42885W        W 2179  38.921  12.290   1.433
42886W        W 2180  13.107   6.271  14.796
42887W        W 2181  20.710   8.373  12.474
42888W        W 2182  39.908  43.355   3.742
42889W        W 2183   9.312  14.288   0.760
42890W        W 2184  15.770   7.868  11.949
42891W        W 2185  19.697  42.792   4.128
42892W        W 2186  30.108  26.610  11.999
42893W        W 2187  13.194  42.838  12.580
42894W        W 2188  17.745  26.660   2.816
42895W        W 2189  37.921  27.513  13.926
42896W        W 2190  19.694  18.648  12.991
42897W        W 2191  26.594  18.673  11.405
42898W        W 2192  39.355  29.051  10.644
42899W        W 2193  42.428   8.362  13.019
42900W        W 2194  30.494  31.046   0.249
42901W        W 2195  18.099   0.439  13.859
42902W        W 2196  40.014   8.219   2.662
42903W        W 2197  33.970  12.191  13.027
42904W        W 2198  31.023   0.976  12.978
42905W        W 2199   4.771  20.655   1.424
42906W        W 2200  14.781  42.957   2.369
42907W        W 2201  32.997  25.506   1.930
42908W        W 2202  23.125   5.927   2.276
42909W        W 2203  42.780  11.341   1.225
42910W        W 2204  25.049  22.731  10.509
42911W        W 2205  26.024   1.238  14.836
42912W        W 2206  18.107  26.147   2.207
42913W        W 2207  17.082  10.854  12.967
42914W        W 2208   7.191  11.237  12.008
42915W        W 2209  38.400  21.229   1.312
42916W        W 2210  20.607  13.706   1.328
42917W        W 2211  21.172  24.122  11.975
42918W        W 2212  12.679  33.464   2.396
42919W        W 2213  42.908  25.588  12.000
42920W        W 2214  34.912  25.471   3.298
42921W        W 2215  27.078  23.600  12.406
42922W        W 2216  11.839  41.491  15.000
42923W        W 2217  38.823   6.206  10.442
42924W        W 2218  13.766  38.853   2.418
42925W        W 2219  30.964  11.633  13.476
42926W        W 2220   7.342  20.762   1.694
42927W        W 2221  23.499   4.738   3.157
42928W        W 2222  16.305  40.972  12.544
42929W        W 2223  41.027  10.176   1.419
42930W        W 2224  27.086  12.804  14.399
42931W        W 2225   0.437  44.963   1.398
42932W        W 2226   5.204  27.481   3.726
42933W        W 2227  29.566   0.310   1.381
42934W        W 2228  12.323   1.389  14.025
42935W        W 2229  39.963  27.186   1.386
42936W        W 2230   9.244  10.834  14.010
42937W        W 2231  37.024  24.215   3.863
42938W        W 2232   5.195  14.297  10.468
42939W        W 2233  16.797  25.156   2.831
42940W        W 2234  43.853   5.807   3.185
42941W        W 2235  27.991  41.881   1.347
42942W        W 2236  15.113   4.214   0.305
42943W        W 2237  28.182  26.196   4.201
42944W        W 2238  11.140  15.214  14.324
42945W        W 2239  31.456   7.693  10.522
42946W        W 2240  23.994  21.085   3.285
42947W        W 2241  22.190   0.879  14.883
42948W        W 2242   5.436  18.673   3.331
42949W        W 2243  38.040  24.583  10.519
42950W        W 2244  29.043  28.592   0.859
42951W        W 2245  32.456  24.525   3.701
42952W        W 2246   8.406  13.281  11.951
42953W        W 2247  38.917  27.094   4.250
42954W        W 2248  32.576  39.054   0.433
42955W        W 2249  32.566  35.941   4.269
42956W        W 2250   1.873  14.107  13.462
42957W        W 2251  40.321  34.056   0.758
42958W        W 2252  12.841  42.319  10.605
42959W        W 2253  20.163   9.265   0.396
42960W        W 2254   4.761  38.063   0.926
42961W        W 2255   4.883  36.850  12.391
42962W        W 2256  25.103   1.277  12.378
42963W        W 2257  20.720  35.536  14.021
42964W        W 2258   9.749  19.671   4.624
42965W        W 2259   6.265  23.025  12.933
42966W        W 2260  35.983   0.864   0.806
42967W        W 2261  26.505  16.102   1.395
42968W        W 2262  43.310  40.850  12.084
42969W        W 2263   9.697  14.255  12.439
42970W        W 2264  25.588  23.012  12.555
42971W        W 2265   6.210  23.490  14.460
42972W        W 2266  17.227   6.267   1.877
42973W        W 2267   5.920  29.046  14.416
42974W        W 2268  43.851  19.575  10.429
42975W        W 2269  35.427  34.872  11.985
42976W        W 2270  35.016  31.596  11.052
42977W        W 2271  23.148  40.317   4.189
42978W        W 2272  35.526  43.844  13.490
42979W        W 2273  18.546  34.065   0.389
42980W        W 2274  21.748   4.317   4.346
42981W        W 2275  14.152  24.025  13.821
42982W        W 2276  31.142  24.626   3.244
42983W        W 2277  22.141  40.549   0.920
42984W        W 2278  27.492  15.229  10.623
42985W        W 2279  40.840  16.240   4.742
42986W        W 2280  32.496  35.597   3.664
42987W        W 2281  28.584  42.486  14.009
42988W        W 2282  41.470   0.821   0.295
42989W        W 2283   6.757  24.564  12.930
42990W        W 2284  17.165  22.199  14.321
42991W        W 2285  35.960   4.835   1.881
42992W        W 2286  22.582  23.603  10.978
42993W        W 2287   0.447  29.594  11.123
42994W        W 2288  20.143  41.989  14.994
42995W        W 2289  19.199  31.129  14.863
42996W        W 2290   7.258   6.824  12.933
42997W        W 2291  30.445  14.758  12.077
42998W        W 2292  20.536  14.310   2.180
42999W        W 2293  20.255  37.570  13.048
43000W        W 2294  17.637  40.323   2.415
43001W        W 2295  42.499  33.942   0.775
43002W        W 2296  35.993   4.401  14.851
43003W        W 2297  35.035  36.406   5.621
43004W        W 2298  43.391  40.420  12.842
43005W        W 2299  32.085  31.521  12.473
43006W        W 2300  40.501  20.187  14.424
43007W        W 2301  15.135  18.226   1.736
43008W        W 2302  21.666  23.690   2.886
43009W        W 2303  10.345  37.483   2.264
43010W        W 2304  14.272  18.553  11.518
43011W        W 2305   2.294   7.713   1.408
43012W        W 2306  35.095  15.148   1.837
43013W        W 2307  41.360  44.382  11.989
43014W        W 2308  33.571   0.855   3.793
43015W        W 2309  24.196  26.558  11.866
43016W        W 2310  32.617  44.439   0.447
43017W        W 2311  34.094   2.846  13.014
43018W        W 2312  40.419  15.643  13.327
43019W        W 2313  13.294  27.633   1.220
43020W        W 2314  35.428  40.480  12.065
43021W        W 2315  38.337  28.007  12.096
43022W        W 2316  24.219  16.076   0.403
43023W        W 2317   8.162  12.698  13.053
43024W        W 2318  22.549  26.060  14.301
43025W        W 2319  14.755  35.475   0.454
43026W        W 2320  36.074  29.659  11.978
43027W        W 2321  31.518  31.144  11.403
43028W        W 2322   9.882  28.052   2.370
43029W        W 2323  17.149  19.113   4.192
43030W        W 2324  37.399  17.789   3.865
43031W        W 2325   3.951  27.132   3.706
43032W        W 2326  23.590  30.033  10.970
43033W        W 2327  18.595  10.732   4.334
43034W        W 2328  20.636  10.383   3.323
43035W        W 2329  37.909  23.046  12.912
43036W        W 2330  11.189  37.453   0.801
43037W        W 2331   2.360   3.349   2.819
43038W        W 2332  28.073  35.393  10.435
43039W        W 2333  27.991  42.437  11.965
43040W        W 2334  13.611  32.135  10.589
43041W        W 2335   6.889  25.470   0.470
43042W        W 2336   6.750   4.229  11.112
43043W        W 2337  37.481  27.051  10.489
43044W        W 2338  38.868  34.040  12.413
43045W        W 2339  34.974  25.695  14.437
43046W        W 2340  36.851  26.515   2.761
43047W        W 2341   8.372   1.274  11.413
43048W        W 2342   3.849  13.204   1.833
43049W        W 2343  10.787  23.732  13.526
43050W        W 2344  40.975  22.641  13.985
43051W        W 2345  14.628  26.187   1.720
43052W        W 2346   6.888   8.808   1.874
43053W        W 2347  40.804  26.703   2.316
43054W        W 2348   0.329  24.095   2.379
43055W        W 2349   9.786   9.177  10.978
43056W        W 2350  30.996  36.083   1.872
43057W        W 2351   3.753  36.061  13.382
43058W        W 2352   9.651  26.621   3.838
43059W        W 2353   5.847  11.795   3.302
43060W        W 2354  30.026  24.074   0.291
43061W        W 2355  42.006   1.309  13.891
43062W        W 2356   8.324   6.879  11.484
43063W        W 2357   5.736  10.654  12.481
43064W        W 2358  38.834  29.061   4.795
43065W        W 2359   3.317  20.687   9.523
43066W        W 2360  28.943  28.542  12.541
43067W        W 2361  10.245  10.839   3.819
43068W        W 2362  20.148  29.980  12.851
43069W        W 2363  39.491   1.263  11.586
43070W        W 2364  10.381  42.311   3.863
43071W        W 2365  15.591  33.106   1.875
43072W        W 2366   7.200  43.819  10.949
43073W        W 2367  16.095  22.116   0.915
43074W        W 2368  18.679  23.122   4.182
43075W        W 2369   6.406  12.303  14.824
43076W        W 2370   8.868  42.285  14.834
43077W        W 2371  22.248  25.677   1.433
43078W        W 2372   9.653  32.043   5.693
43079W        W 2373  29.628  25.633   1.350
43080W        W 2374  37.540  38.484   5.309
43081W        W 2375   7.728  21.247  13.442
43082W        W 2376   4.765   3.306   1.418
43083W        W 2377  28.094   2.946  13.805
43084W        W 2378  25.115   3.887  12.847
43085W        W 2379  30.942  22.744  12.579
43086W        W 2380  10.743  37.527   4.286
43087W        W 2381  42.365   5.889  10.454
43088W        W 2382  18.169  29.511  10.498
43089W        W 2383  18.771  19.693  14.009
43090W        W 2384   6.684  37.072  11.938
43091W        W 2385  10.688   2.338  12.574
43092W        W 2386  38.002  26.519   2.251
43093W        W 2387  41.841   5.740   2.401
43094W        W 2388  36.422  37.529  12.404
43095W        W 2389  20.616  21.570  14.950
43096W        W 2390  16.171   6.690  13.503
43097W        W 2391   9.795  29.633   2.729
43098W        W 2392  35.555  27.979  14.028
43099W        W 2393  33.067   1.966   0.441
43100W        W 2394  30.004  34.555   2.900
43101W        W 2395  15.222  41.898   3.309
43102W        W 2396  29.648   7.730  10.421
43103W        W 2397  15.236  14.312  14.888
43104W        W 2398  25.068  18.059   3.777
43105W        W 2399   3.864  19.580  14.478
43106W        W 2400   8.282   8.387  13.501
43107W        W 2401  25.496  35.905  14.031
43108W        W 2402  42.479  40.025   3.747
43109W        W 2403  36.541   9.765  12.403
43110W        W 2404  35.049   2.233  12.422
43111W        W 2405  28.574  27.684  12.350
43112W        W 2406  30.623  19.047  12.433
43113W        W 2407  43.437  19.258  12.537
43114W        W 2408  40.884  26.461  11.066
43115W        W 2409  23.021  40.517  13.357
43116W        W 2410   9.283  35.923   3.630
43117W        W 2411  20.581  43.292  13.434
43118W        W 2412  28.072  26.517   4.205
43119W        W 2413  30.596  37.999  13.412
43120W        W 2414  32.914  31.073   1.449
43121W        W 2415  30.056  33.493  11.914
43122W        W 2416  36.966  10.693  13.859
43123W        W 2417  24.984  12.801  12.872
43124W        W 2418  23.158  23.098   3.688
43125W        W 2419  34.602  11.826   0.826
43126W        W 2420  27.139  25.618  10.455
43127W        W 2421  43.016   8.660   2.200
43128W        W 2422  33.623  32.586   4.299
43129W        W 2423  18.054  34.928   0.298
43130W        W 2424  36.024  31.912   0.823
43131W        W 2425  38.947  25.038  14.863
43132W        W 2426   7.897  12.839  12.018
43133W        W 2427  39.011  29.997  14.442
43134W        W 2428  28.057  11.662   0.913
43135W        W 2429   9.814  18.064  13.323
43136W        W 2430  21.540  18.153   4.192
43137W        W 2431  17.726  27.958   1.734
43138W        W 2432  29.125   7.699   2.680
43139W        W 2433  18.117  39.867  13.465
43140W        W 2434  23.623  31.617  12.543
43141W        W 2435   3.773  40.820   2.851
43142W        W 2436  43.282  12.687  13.801
43143W        W 2437   6.379  33.978   9.934
43144W        W 2438  44.915  15.212  13.943
43145W        W 2439   0.744  22.529  10.520
43146W        W 2440  11.851  28.592  11.610
43147W        W 2441  13.638  11.695  14.292
43148W        W 2442  16.578  33.114  11.474
43149W        W 2443  40.029  26.562  12.378
43150W        W 2444  36.368  24.141   2.729
43151W        W 2445  37.866  24.499  10.910
43152W        W 2446  15.780  18.076  12.834
43153W        W 2447   1.953  16.275   1.307
43154W        W 2448  40.308  31.455  10.442
43155W        W 2449  35.474  39.505  12.463
43156W        W 2450  36.850  16.173  10.594
43157W        W 2451  44.848  11.656   2.354
43158W        W 2452  27.593  11.824   1.348
43159W        W 2453  44.831  19.106  12.475
43160W        W 2454  27.513  24.086  14.914
43161W        W 2455  10.767  40.908   2.247
43162W        W 2456  34.410  19.608   2.181
43163W        W 2457   0.935   1.855  12.894
43164W        W 2458  16.101  33.433   0.872
43165W        W 2459  37.396  16.297  13.544
43166W        W 2460  22.569  13.611  11.464
43167W        W 2461  11.307  16.584  14.893
43168W        W 2462  13.639   3.843  13.450
43169W        W 2463  12.668  23.642   3.301
43170W        W 2464  14.779  37.432  11.921
43171W        W 2465   9.777  37.416   4.190
43172W        W 2466  26.059   9.870   0.885
43173W        W 2467  42.297  17.156   3.803
43174W        W 2468   8.710  28.037   2.789
43175W        W 2469  31.544  33.507   2.786
43176W        W 2470   6.838  28.092   1.801
43177W        W 2471  19.040  22.525  14.980
43178W        W 2472  38.855  12.667  14.818
43179W        W 2473   5.310  17.616   3.770
43180W        W 2474  22.227  19.259  14.898
43181W        W 2475  23.628  10.775   2.296
43182W        W 2476  31.415  29.097  13.437
43183W        W 2477  40.372  32.009   0.727
43184W        W 2478  25.611  30.557  11.070
43185W        W 2479  29.666  28.124  14.412
43186W        W 2480   3.238  10.248  14.504
43187W        W 2481  42.457  18.699   2.696
43188W        W 2482  14.831   2.342  13.939
43189W        W 2483  16.731  18.753  12.079
43190W        W 2484   9.265  41.380   0.758
43191W        W 2485  39.969  13.308   0.875
43192W        W 2486  32.043  42.937  14.881
43193W        W 2487   9.149  29.094  12.044
43194W        W 2488   4.429  18.286  14.949
43195W        W 2489   8.390   7.253  11.964
43196W        W 2490  36.098  37.071   1.311
43197W        W 2491   1.740  43.780  14.810
43198W        W 2492  15.608  39.024  14.972
43199W        W 2493  28.040  27.009   2.198
43200W        W 2494   0.752   1.448  14.889
43201W        W 2495  11.649  23.637  14.461
43202W        W 2496  27.488  35.486  13.930
43203W        W 2497  18.789   2.243  12.491
43204W        W 2498  21.081  43.927  11.559
43205W        W 2499  23.154  20.115  13.343
43206W        W 2500  43.953  40.802  14.000
43207W        W 2501  39.369   8.371   2.670
43208W        W 2502  14.295  34.402  11.499
43209W        W 2503  11.687  24.572  14.019
43210W        W 2504   3.845   0.352   3.371
43211W        W 2505  36.882  17.197   2.818
43212W        W 2506   1.387  25.533  14.769
43213W        W 2507  37.562  38.936  10.584
43214W        W 2508  44.787  18.150  14.309
43215W        W 2509  15.263  40.451   2.189
43216W        W 2510  14.716  23.558  10.909
43217W        W 2511   5.805  44.272   2.686
43218W        W 2512  34.880  43.895   3.226
43219W        W 2513  28.993   8.228   2.408
43220W        W 2514  20.641  27.558   2.859
43221W        W 2515  12.700   3.840   1.222
43222W        W 2516  30.112  22.109  13.424
43223W        W 2517  26.635  34.601  12.526
43224W        W 2518  38.048  32.465   4.234
43225W        W 2519  42.024  26.147   2.708
43226W        W 2520   0.791  12.116  12.539
43227W        W 2521  36.077   6.715   1.313
43228W        W 2522  23.638   5.213  11.002
43229W        W 2523  27.626  40.957   2.799
43230W        W 2524  38.986  28.645   3.835
43231W        W 2525  26.016   9.845  13.909
43232W        W 2526  29.170  43.908  12.086
43233W        W 2527  36.518   1.828   3.843
43234W        W 2528   3.417  26.470   2.230
43235W        W 2529  20.662  20.089  12.930
43236W        W 2530   0.442  37.396   4.603
43237W        W 2531   8.747  26.197  13.530
43238W        W 2532  28.493   0.936   2.870
43239W        W 2533  40.945   1.283   1.877
43240W        W 2534   5.807  23.204   3.233
43241W        W 2535  38.433  17.098  14.804
43242W        W 2536  44.344  28.671   1.722
43243W        W 2537  19.040  31.082   2.738
43244W        W 2538  23.036  40.457  11.421
43245W        W 2539   1.788  26.545  12.898
43246W        W 2540   4.929  21.030  12.472
43247W        W 2541  40.815  30.992  12.855
43248W        W 2542  20.700  42.922   4.634
43249W        W 2543  27.660  23.126   2.785
43250W        W 2544  36.962  43.491  10.900
43251W        W 2545  39.910  15.757  11.522
43252W        W 2546  12.254  30.120   4.789
43253W        W 2547  30.933  33.447   3.197
43254W        W 2548   2.362  30.415  10.064
43255W        W 2549  31.456   6.849   1.448
43256W        W 2550  41.989  36.900   3.214
43257W        W 2551  41.349   0.334  14.791
43258W        W 2552  42.890  38.347   9.978
43259W        W 2553  30.637  18.283   4.613
43260W        W 2554  20.151  19.235  14.011
43261W        W 2555  31.933  14.738   2.791
43262W        W 2556  17.693  34.569   1.271
43263W        W 2557  10.185  37.460   3.330
43264W        W 2558   4.704  33.938   4.298
43265W        W 2559  37.497  38.001  11.904
43266W        W 2560  19.569  40.944   3.868
43267W        W 2561  18.660  33.416  12.868
43268W        W 2562  43.010  16.192   2.670
43269W        W 2563   6.904  33.575   4.269
43270W        W 2564  35.971  34.114   3.186
43271W        W 2565   5.233  22.530   4.737
43272W        W 2566  26.492  32.604  14.021
43273W        W 2567  13.188  32.398   2.670
43274W        W 2568  43.969  33.938   3.315
43275W        W 2569  11.698   9.765  10.995
43276W        W 2570  12.165  13.817  10.112
43277W        W 2571   2.929  24.684  14.423
43278W        W 2572  43.812   4.718  12.423
43279W        W 2573  43.784  23.506   4.259
43280W        W 2574  15.643  16.313   2.340
43281W        W 2575  40.025  22.118  11.896
43282W        W 2576  27.091  44.462   2.298
43283W        W 2577  22.064  16.275  13.506
43284W        W 2578  44.309  12.166   2.834
43285W        W 2579   1.790  21.105  10.987
43286W        W 2580  37.415  41.831   4.317
43287W        W 2581   1.255   1.402  11.082
43288W        W 2582  18.150   2.770   3.308
43289W        W 2583  33.026  11.778  10.530
43290W        W 2584  42.313  28.076   4.782
43291W        W 2585  40.969  25.697   4.792
43292W        W 2586  21.724  36.062   1.269
43293W        W 2587  30.975  28.451   1.696
43294W        W 2588  35.535  33.492   4.236
43295W        W 2589  13.704   8.656  12.040
43296W        W 2590  27.106  32.439   1.900
43297W        W 2591  41.365  39.872   1.307
43298W        W 2592  26.169  11.370  13.444
43299W        W 2593   1.372   3.809   5.095
43300W        W 2594  38.918  22.200  13.823
43301W        W 2595  11.158  24.062  11.921
43302W        W 2596  28.619  38.058   4.654
43303W        W 2597   5.927  44.808   4.115
43304W        W 2598  19.058  24.518  10.460
43305W        W 2599   6.189  25.485   4.625
43306W        W 2600   6.729  40.933   1.887
43307W        W 2601  25.704  10.138  14.307
43308W        W 2602   1.350  42.980  10.917
43309W        W 2603  39.864  35.555  12.393
43310W        W 2604  15.326   7.338   4.160
43311W        W 2605  37.374  39.484   4.239
43312W        W 2606  42.363  29.635  14.862
43313W        W 2607  36.841   6.313  14.395
43314W        W 2608  13.224   8.824   4.217
43315W        W 2609  25.019  35.890   4.600
43316W        W 2610  44.893   8.725   3.715
43317W        W 2611  18.051  18.775   0.760
43318W        W 2612  37.858  19.072  11.865
43319W        W 2613  39.494  27.008  13.904
43320W        W 2614  16.572  26.618   1.832
43321W        W 2615   7.758  21.239   1.737
43322W        W 2616   9.724  31.434   9.671
43323W        W 2617   4.319  12.840   4.147
43324W        W 2618  24.998  28.073   1.850
43325W        W 2619   0.831  40.366  10.527
43326W        W 2620  20.065  27.124   2.179
43327W        W 2621  43.456  14.177  10.597
43328W        W 2622  27.041  23.673  14.326
43329W        W 2623  24.008  21.573  11.053
43330W        W 2624   4.367  11.714   0.882
43331W        W 2625   9.750  21.120  13.001
43332W        W 2626  44.940  33.564   3.331
43333W        W 2627  42.939  11.647  12.345
43334W        W 2628  43.008  18.144  11.092
43335W        W 2629   6.255  33.489   4.746
43336W        W 2630  42.848   3.943   2.675
43337W        W 2631  35.533  25.213  13.889
43338W        W 2632   6.225  25.621  14.891
43339W        W 2633  13.825  10.698  13.941
43340W        W 2634  38.987  39.890  10.900
43341W        W 2635  40.305  28.030   1.733
43342W        W 2636  30.512  18.171  10.998
43343W        W 2637  40.486  21.185  12.521
43344W        W 2638  13.262  33.418   9.544
43345W        W 2639  23.109  13.808  11.049
43346W        W 2640  42.991  32.887  12.564
43347W        W 2641  19.774  16.749  14.440
43348W        W 2642  35.971  42.935  14.429
43349W        W 2643  15.682  27.126  13.008
43350W        W 2644  13.675  20.761  14.500
43351W        W 2645   5.916  21.607  14.908
43352W        W 2646   8.748  27.945  13.414
43353W        W 2647  41.468  34.543   4.689
43354W        W 2648  25.639  44.451   3.177
43355W        W 2649  38.478  10.150   2.266
43356W        W 2650  27.973  18.203  12.528
43357W        W 2651   2.788  10.748   2.295
43358W        W 2652  10.699  25.474   1.222
43359W        W 2653   7.849  31.617   1.807
43360W        W 2654   3.922  12.231   4.763
43361W        W 2655  44.947   3.401  14.850
43362W        W 2656   2.302   3.816   2.846
43363W        W 2657  42.032   4.220  12.066
43364W        W 2658  43.952  36.376   2.666
43365W        W 2659   4.278   5.208   2.344
43366W        W 2660  16.164  36.003  12.553
43367W        W 2661  16.790   5.777  13.371
43368W        W 2662  11.212  31.440   5.576
43369W        W 2663  30.618   4.917   4.354
43370W        W 2664  36.874  25.059   1.696
43371W        W 2665   4.702   6.273   5.188
43372W        W 2666  11.194  10.846   4.698
43373W        W 2667  33.430  26.073   3.268
43374W        W 2668   0.266  33.079   1.741
43375W        W 2669  40.889  30.629  11.885
43376W        W 2670   0.948   1.253   3.693
43377W        W 2671  20.227  40.906   1.931
43378W        W 2672  38.886  43.014  11.550
43379W        W 2673  41.020   3.749   3.724
43380W        W 2674  34.439  41.455   1.431
43381W        W 2675   1.795   9.253  13.854
43382W        W 2676  28.002  30.121   4.159
43383W        W 2677  21.241  21.123  13.832
43384W        W 2678   9.805   3.377   2.837
43385W        W 2679  25.154  13.667   4.650
43386W        W 2680   6.779   4.429   3.228
43387W        W 2681  42.933  42.859   1.309
43388W        W 2682  27.641  37.896  10.458
43389W        W 2683  24.579   0.762  11.539
43390W        W 2684   3.360  14.685   0.751
43391W        W 2685   4.450  24.224   3.339
43392W        W 2686  44.924   6.725   4.651
43393W        W 2687  20.734  43.450   2.270
43394W        W 2688  19.068  20.599   1.265
43395W        W 2689  34.908  39.559  13.943
43396W        W 2690  42.382  31.066  10.555
43397W        W 2691  38.839  30.546   1.313
43398W        W 2692  11.859  37.411   1.781
43399W        W 2693  35.860  34.547   2.363
43400W        W 2694   1.883  43.438   1.351
43401W        W 2695   4.750   8.299  14.004
43402W        W 2696  38.892  22.575  12.345
43403W        W 2697  37.473  12.783   1.357
43404W        W 2698  29.669  43.329   4.189
43405W        W 2699   3.849   4.445  13.988
43406W        W 2700   1.785  17.147   2.416
43407W        W 2701  27.454  27.628  10.528
43408W        W 2702   9.844  13.280   4.829
43409W        W 2703  21.576  30.538   4.696
43410W        W 2704  19.162  27.964   2.248
43411W        W 2705  21.100  18.625   1.247
43412W        W 2706  19.676  44.862  10.548
43413W        W 2707   4.252  34.369   0.800
43414W        W 2708  18.766  40.904  10.514
43415W        W 2709  22.560   7.265  13.792
43416W        W 2710  39.469   8.161   0.789
43417W        W 2711  41.292  29.465   1.405
43418W        W 2712  18.782  15.762  12.996
43419W        W 2713  35.553   4.776  13.850
43420W        W 2714  16.739  21.155   1.898
43421W        W 2715  23.597  17.664  13.873
43422W        W 2716  22.576  43.814  14.787
43423W        W 2717  12.310  20.581  13.335
43424W        W 2718  12.735  23.681  14.978
43425W        W 2719  42.940   7.352  12.849
43426W        W 2720  22.247  20.220   4.284
43427W        W 2721  22.543  34.607   4.702
43428W        W 2722   9.271  10.773  10.470
43429W        W 2723   1.384   0.446   2.395
43430W        W 2724  10.843  37.533   9.950
43431W        W 2725  17.174  27.631  13.943
43432W        W 2726  12.805  14.307   1.889
43433W        W 2727  32.401  37.039   2.265
43434W        W 2728  27.602   2.472  14.406
43435W        W 2729   7.792   2.799  11.457
43436W        W 2730   8.884   9.890   1.881
43437W        W 2731   2.380  10.294   2.400
43438W        W 2732   7.319  17.139   0.412
43439W        W 2733  38.985  19.760  12.537
43440W        W 2734   1.260  15.817  14.455
43441W        W 2735  35.379  43.892   4.809
43442W        W 2736   9.225  21.233  12.551
43443W        W 2737  29.552  19.187  14.962
43444W        W 2738  22.505  43.385  13.919
43445W        W 2739  37.478  24.665  13.860
43446W        W 2740   8.808  42.824  12.039
43447W        W 2741   9.819  11.820  12.361
43448W        W 2742  44.472  23.004   1.875
43449W        W 2743  33.494  35.416   3.808
43450W        W 2744  22.681  31.528  11.904
43451W        W 2745   7.834   4.204   4.831
43452W        W 2746  24.655  39.840   4.341
43453W        W 2747  43.371   0.324   3.280
43454W        W 2748  40.312  35.874  11.955
43455W        W 2749  20.644  43.840   1.369
43456W        W 2750  39.325  33.044   0.926
43457W        W 2751  25.468  20.271  11.116
43458W        W 2752  43.405  30.923   4.743
43459W        W 2753   7.697   4.746   3.737
43460W        W 2754  39.046  22.038   4.811
43461W        W 2755  14.240   3.816   4.298
43462W        W 2756  19.249  36.576   2.673
43463W        W 2757  25.529  26.104   1.217
43464W        W 2758  23.053   2.423  11.952
43465W        W 2759  19.250   0.295   2.386
43466W        W 2760  12.769  10.316  10.474
43467W        W 2761  11.792  17.106   0.304
43468W        W 2762  36.439  32.414   2.729
43469W        W 2763  39.523  12.840  12.931
43470W        W 2764  38.549  10.341   2.852
43471W        W 2765  36.531   1.445  12.535
43472W        W 2766  20.099  15.228   4.603
43473W        W 2767  40.978  21.091   1.320
43474W        W 2768  39.483   9.229   0.854
43475W        W 2769  12.315   8.861   2.719
43476W        W 2770  33.552   5.354  14.317
43477W        W 2771  19.254  24.126  14.438
43478W        W 2772  29.573   1.318  14.827
43479W        W 2773  11.310  39.940   3.652
43480W        W 2774  21.657  17.175  14.943
43481W        W 2775  43.899   2.798   5.690
43482W        W 2776  10.186  18.640   0.919
43483W        W 2777  28.119  41.806  13.878
43484W        W 2778  33.005  11.147  12.568
43485W        W 2779  23.583   7.181  14.812
43486W        W 2780   8.787  31.113   2.735
43487W        W 2781   8.162  17.693   0.396
43488W        W 2782  20.705  36.865  12.032
43489W        W 2783  18.673  30.438   2.726
43490W        W 2784  44.764   3.231   3.321
43491W        W 2785  30.091   2.846  10.565
43492W        W 2786  21.736   3.372   4.740
43493W        W 2787  14.143  35.951   2.883
43494W        W 2788  31.066  17.303   3.657
43495W        W 2789   3.805  32.042  10.480
43496W        W 2790  34.903  31.970  12.508
43497W        W 2791  12.357   0.877   4.717
43498W        W 2792  16.777  38.982   4.747
43499W        W 2793  42.464  23.512  10.436
43500W        W 2794  30.116  43.900  11.951
43501W        W 2795   2.806  19.652  14.377
43502W        W 2796   7.863   7.179   1.329
43503W        W 2797  15.811  36.505   3.742
43504W        W 2798  31.125  20.033   3.799
43505W        W 2799   7.843  34.448   5.296
43506W        W 2800  27.138  34.028  11.907
43507W        W 2801  29.539  38.532  11.435
43508W        W 2802  14.150  37.472   2.862
43509W        W 2803  10.327  39.903   2.713
43510W        W 2804  35.060   7.196  12.031
43511W        W 2805  37.510  41.886  10.992
43512W        W 2806  19.604  43.901  11.978
43513W        W 2807   6.781  23.566   1.852
43514W        W 2808  18.576  35.079  10.901
43515W        W 2809  24.599  24.055  14.978
43516W        W 2810  15.308  27.557   2.682
43517W        W 2811  14.120  38.504  10.544
43518W        W 2812  18.254  31.997   4.336
43519W        W 2813  40.482  15.682   3.146
43520W        W 2814  44.323  12.825   3.704
43521W        W 2815   7.903  13.169   1.900
43522W        W 2816  28.652   7.753  12.450
43523W        W 2817   6.917  11.197  14.887
43524W        W 2818  10.842  40.316   1.443
43525W        W 2819   8.307  19.693  12.572
43526W        W 2820  31.941   9.736   0.405
43527W        W 2821  31.573  23.140  11.956
43528W        W 2822  38.885  44.356  13.507
43529W        W 2823   5.803   7.821   0.289
43530W        W 2824  24.073  24.180   2.826
43531W        W 2825  40.836   1.933   4.710
43532W        W 2826  38.984  43.959   4.831
43533W        W 2827  18.719  23.720   2.680
43534W        W 2828   4.734   7.179   4.323
43535W        W 2829   5.435  11.666   0.395
43536W        W 2830  12.797  14.761   2.341
43537W        W 2831   1.279  42.381   4.702
43538W        W 2832  24.577  12.342   3.830
43539W        W 2833  44.419  24.152   5.118
43540W        W 2834  29.487   6.308  10.476
43541W        W 2835   5.218  31.940  11.033
43542W        W 2836   9.320  12.324  14.959
43543W        W 2837  10.782   4.763  14.299
43544W        W 2838  25.667  38.024   3.685
43545W        W 2839  10.374  32.624   5.163
43546W        W 2840  40.982  34.102  12.833
43547W        W 2841  33.924  19.085   3.379
43548W        W 2842   3.274  15.113  10.980
43549W        W 2843  12.141  14.320   2.663
43550W        W 2844  38.053  40.506   1.401
43551W        W 2845   0.871   4.253   1.391
43552W        W 2846  28.131  28.993  12.540
43553W        W 2847  17.635  23.162  12.009
43554W        W 2848   9.830  43.394  14.964
43555W        W 2849  11.281  36.936  13.881
43556W        W 2850  36.451  10.729   1.218
43557W        W 2851  29.544  35.095   4.232
43558W        W 2852  14.280   5.334  11.420
43559W        W 2853  34.492  19.126   4.338
43560W        W 2854  10.328  44.308   2.205
43561W        W 2855  15.315  32.588  13.954
43562W        W 2856  10.637   1.768   3.825
43563W        W 2857  35.555  42.467  13.921
43564W        W 2858  44.853   4.891  12.956
43565W        W 2859  32.970  24.218   3.851
43566W        W 2860  23.495  31.122   3.343
43567W        W 2861  15.241  29.010   2.295
43568W        W 2862  42.491  40.498  10.448
43569W        W 2863  20.605  28.107   0.402
43570W        W 2864  40.953  21.056  11.480
43571W        W 2865  30.097  11.717   2.392
43572W        W 2866  44.493   4.804   2.672
43573W        W 2867   5.776  33.555   4.599
43574W        W 2868  24.068  34.907   0.765
43575W        W 2869  15.733  24.086   1.731
43576W        W 2870   7.766   2.906  13.538
43577W        W 2871   9.781   2.821  13.981
43578W        W 2872  14.626   8.320   1.361
43579W        W 2873  11.353   8.174  14.304
43580W        W 2874   8.758  27.091  11.942
43581W        W 2875  42.916   2.955  13.816
43582W        W 2876  23.731   6.771  10.129
43583W        W 2877  11.746  19.221   3.325
43584W        W 2878  20.651  20.116   3.857
43585W        W 2879  27.067  17.145  10.957
43586W        W 2880  43.862  29.569  14.888
43587W        W 2881  16.741  36.915   1.278
43588W        W 2882   6.321  25.078  10.420
43589W        W 2883  36.465  13.347   4.780
43590W        W 2884  13.749  19.161  11.500
43591W        W 2885  12.745  37.928   4.227
43592W        W 2886  17.119   5.827   0.364
43593W        W 2887  20.648  16.178  12.940
43594W        W 2888  43.371  21.737  13.350
43595W        W 2889  13.674  27.050  12.340
43596W        W 2890  42.006  26.027   1.822
43597W        W 2891  21.187  39.056   3.352
43598W        W 2892  32.529  14.296  10.952
43599W        W 2893  21.164  11.187   9.622
43600W        W 2894  29.506  10.318   3.791
43601W        W 2895  26.030  16.175   1.418
43602W        W 2896  32.498  32.444   3.846
43603W        W 2897  24.710  18.107   3.748
43604W        W 2898  22.218  15.262  11.420
43605W        W 2899  42.335   1.343  13.925
43606W        W 2900  10.327  12.125  12.881
43607W        W 2901  36.582  22.510   0.784
43608W        W 2902  33.125  24.640   4.642
43609W        W 2903  27.993  30.981  14.017
43610W        W 2904   2.435  27.513  11.922
43611W        W 2905  33.956  25.650   0.880
43612W        W 2906  18.275  23.074  14.391
43613W        W 2907  44.434   1.464   3.360
43614W        W 2908  36.041  17.090   4.791
43615W        W 2909  18.605  15.254  10.906
43616W        W 2910  33.498  44.460  10.553
43617W        W 2911  29.134  17.571  12.580
43618W        W 2912  19.740  14.174   2.302
43619W        W 2913  26.583  11.319   2.199
43620W        W 2914  41.440   1.732   9.951
43621W        W 2915  16.155  40.357  13.990
43622W        W 2916  17.644  18.771  11.989
43623W        W 2917  11.203  38.071  10.437
43624W        W 2918  36.097  44.786  12.474
43625W        W 2919   2.841   3.846  14.016
43626W        W 2920  17.272  39.353   3.856
43627W        W 2921   1.289  44.819   2.703
43628W        W 2922  31.150  13.787   4.171
43629W        W 2923  31.944   4.266   2.367
43630W        W 2924   9.785  29.991  14.504
43631W        W 2925  43.491  33.910  10.567
43632W        W 2926   4.750  40.343  13.006
43633W        W 2927  16.162   7.281   2.205
43634W        W 2928  25.574  18.728   0.314
43635W        W 2929   6.199  31.614  13.501
43636W        W 2930  41.507  41.338   0.729
43637W        W 2931  24.009   0.366   3.679
43638W        W 2932  21.660  26.969   1.323
43639W        W 2933   1.816  26.508  10.920
43640W        W 2934   8.804  15.167   1.258
43641W        W 2935  12.154  42.285   1.342
43642W        W 2936   9.762  23.120   3.730
43643W        W 2937   9.666   4.733  11.482
43644W        W 2938  42.499  37.952  10.409
43645W        W 2939   0.829  30.108  10.617
43646W        W 2940  38.024   8.732   2.744
43647W        W 2941  19.638  44.872   1.725
43648W        W 2942   2.726  11.753   0.871
43649W        W 2943  42.373  35.871   2.883
43650W        W 2944  16.810   4.337   2.841
43651W        W 2945  31.504  15.303   1.314
43652W        W 2946  36.459  39.897  13.522
43653W        W 2947  16.602  39.471  12.041
43654W        W 2948  44.340  41.536   2.755
43655W        W 2949  43.851  10.178   0.342
43656W        W 2950  39.989  30.579  12.931
43657W        W 2951  12.610  11.725   5.098
43658W        W 2952  30.947  27.690  10.959
43659W        W 2953  43.853  11.632   3.237
43660W        W 2954  22.693  42.435  14.950
43661W        W 2955  19.120  10.294  14.447
43662W        W 2956  10.198  29.652   3.369
43663W        W 2957  42.361  36.436  11.020
43664W        W 2958   7.410  12.155  14.950
43665W        W 2959  27.498  22.008  10.921
43666W        W 2960   9.765  29.606   4.608
43667W        W 2961   4.360   7.349   3.637
43668W        W 2962  35.408   0.381  12.000
43669W        W 2963  38.026  17.205  12.489
43670W        W 2964  24.188  44.386   5.256
43671W        W 2965  25.670  35.593   0.804
43672W        W 2966  20.698  25.152  14.956
43673W        W 2967  15.706  25.130   1.831
43674W        W 2968  14.742  42.422  12.018
43675W        W 2969  27.076  13.803  12.004
43676W        W 2970  32.601  38.455  12.931
43677W        W 2971  31.145   2.348   2.387
43678W        W 2972  26.493  33.410   0.454
43679W        W 2973  44.420  16.254  12.540
43680W        W 2974   2.433  16.672  10.553
43681W        W 2975  13.323  32.394  12.933
43682W        W 2976  43.310  34.460   4.337
43683W        W 2977  11.334  32.036  12.419
43684W        W 2978  27.974  39.335   0.345
43685W        W 2979  14.327  12.234  14.910
43686W        W 2980  33.618  22.073   3.212
43687W        W 2981   0.972  28.641  14.493
43688W        W 2982  30.563  35.548  11.582
43689W        W 2983  13.125  21.627   0.726
43690W        W 2984  17.775  29.113  14.985
43691W        W 2985  13.672  30.143   0.858
43692W        W 2986   7.706   0.747   0.355
43693W        W 2987  17.561  10.377   3.845
43694W        W 2988  41.996  33.903  12.847
43695W        W 2989  22.702  10.148   1.449
43696W        W 2990  27.537  20.080  13.433
43697W        W 2991  24.506   1.919  14.013
43698W        W 2992   8.288   4.891   1.836
43699W        W 2993  19.539   2.286  11.879
43700W        W 2994  38.498  40.375   4.330
43701W        W 2995  20.542  12.713  12.003
43702W        W 2996   2.456  37.500  10.905
43703W        W 2997  27.104  20.122   1.852
43704W        W 2998  36.577  24.985   5.130
43705W        W 2999  31.549  19.769   3.756
43706W        W 3000   5.889  19.122   0.426
43707W        W 3001  40.835  17.681   2.734
43708W        W 3002  13.245  29.544  13.864
43709W        W 3003  23.517  14.165   0.731
43710W        W 3004  39.944  11.239   0.282
43711W        W 3005   7.214   7.340   2.415
43712W        W 3006  40.346  20.211   3.723
43713W        W 3007  10.811  24.594   1.384
43714W        W 3008  14.278  24.704  14.441
43715W        W 3009  19.094  19.254   3.266
43716W        W 3010  22.572   9.780   1.319
43717W        W 3011  23.685  25.963   2.319
43718W        W 3012  28.463  15.289  12.512
43719W        W 3013  26.163  14.694  14.310
43720W        W 3014  23.001   2.372  11.019
43721W        W 3015  35.460   1.936   0.894
43722W        W 3016   0.857  30.118  10.956
43723W        W 3017  43.289  10.347  12.984
43724W        W 3018  23.031   8.807   0.307
43725W        W 3019  36.969  28.138  14.374
43726W        W 3020  34.016  17.557  13.881
43727W        W 3021  22.532  17.217  12.857
43728W        W 3022  16.608  21.149   0.846
43729W        W 3023   0.957  34.397   3.340
43730W        W 3024  20.148   3.277   2.243
43731W        W 3025   4.804  22.650  10.892
43732W        W 3026  38.941  10.158   1.771
43733W        W 3027  23.997   6.418  14.465
43734W        W 3028   3.882   4.277  11.096
43735W        W 3029  25.141   9.178   2.810
43736W        W 3030   3.334  12.832  11.454
43737W        W 3031  19.054  31.630   0.451
43738W        W 3032  25.971   6.736   1.307
43739W        W 3033  39.363  10.312   0.307
43740W        W 3034  11.169  24.540   4.252
43741W        W 3035  23.601   6.686  10.529
43742W        W 3036  39.846  32.511  12.047
43743W        W 3037  36.963  15.612   1.247
43744W        W 3038  13.726   2.368  11.454
43745W        W 3039  44.324  25.090   0.885
43746W        W 3040  21.547  29.652  14.824
43747W        W 3041  25.050  32.107  11.485
43748W        W 3042   7.208  20.716   0.279
43749W        W 3043   6.352  20.652   1.250
43750W        W 3044   4.865  26.527  10.954
43751W        W 3045   5.220  13.648  11.077
43752W        W 3046   4.769  37.373   0.412
43753W        W 3047  22.688   4.214   1.232
43754W        W 3048  25.994  37.556   0.277
43755W        W 3049  39.030  40.479  13.791
43756W        W 3050  22.087   6.353   0.891
43757W        W 3051  17.692  35.018   2.711
43758W        W 3052  21.191  19.566  11.586
43759W        W 3053  19.253  39.413   3.828
43760W        W 3054  31.454  12.700  12.989
43761W        W 3055   8.656  44.348   4.787
43762W        W 3056   1.267  18.598  12.046
43763W        W 3057  32.985  33.124   1.273
43764W        W 3058  29.437  21.708  11.589
43765W        W 3059  36.908  15.268   4.800
43766W        W 3060  40.902   6.832  14.958
43767W        W 3061  16.800  17.256   2.349
43768W        W 3062  11.642   4.759   3.791
43769W        W 3063   5.769  17.711  13.011
43770W        W 3064  44.412  25.963   0.433
43771W        W 3065  13.175   1.398   4.722
43772W        W 3066  11.336  35.994  14.477
43773W        W 3067  42.496  36.980  10.430
43774W        W 3068  13.108  33.511  11.103
43775W        W 3069  26.065  27.146  10.576
43776W        W 3070   3.257  34.509  10.491
43777W        W 3071  23.139  22.699  10.019
43778W        W 3072   8.396  20.251  10.993
43779W        W 3073  30.558  30.458   1.229
43780W        W 3074  23.663  20.662  13.019
43781W        W 3075   7.781  22.182  13.364
43782W        W 3076   1.386  36.361  14.788
43783W        W 3077  19.666  30.552   1.835
43784W        W 3078  36.526  15.691   3.349
43785W        W 3079   1.339  39.536  12.860
43786W        W 3080   4.734   4.440  10.958
43787W        W 3081  13.185  36.547  14.938
43788W        W 3082  39.524  35.991   3.255
43789W        W 3083  35.444  34.103  13.857
43790W        W 3084  44.904   5.223   4.332
43791W        W 3085  29.953  31.896  14.026
43792W        W 3086  18.215  19.675  14.815
43793W        W 3087  38.946  36.938   3.748
43794W        W 3088  29.922  22.083   0.442
43795W        W 3089  32.541  18.640   1.220
43796W        W 3090  16.167  38.016  14.820
43797W        W 3091  28.589   2.924  12.503
43798W        W 3092  43.431   3.820   4.663
43799W        W 3093  44.425  13.159   2.317
43800W        W 3094  40.542  15.268  12.026
43801W        W 3095   5.876  23.664  14.477
43802W        W 3096  36.912   6.741   4.712
43803W        W 3097  15.177  14.742  11.051
43804W        W 3098   7.911  37.349   5.097
43805W        W 3099  41.434  22.576   3.661
43806W        W 3100  22.722  15.083  11.468
43807W        W 3101  19.110  40.913   4.724
43808W        W 3102  21.578  27.983  10.127
43809W        W 3103  27.449   2.359   2.692
43810W        W 3104  27.670   6.792  11.538
43811W        W 3105   4.427  12.802   2.286
43812W        W 3106  11.659  15.214  13.010
43813W        W 3107  22.601  26.556   0.322
43814W        W 3108  13.742  18.098   0.921
43815W        W 3109   3.799   8.782   3.822
43816W        W 3110  44.776  33.439   3.711
43817W        W 3111  35.949  29.096  11.100
43818W        W 3112   7.895  14.823   4.145
43819W        W 3113  18.712  17.591  11.537
43820W        W 3114  41.336  36.864   2.713
43821W        W 3115  37.425   5.419  11.949
43822W        W 3116  21.197  41.952  11.438
43823W        W 3117   0.845   2.923  14.989
43824W        W 3118  38.487  31.542  13.409
43825W        W 3119   4.708  44.907  14.867
43826W        W 3120  37.062  31.143   4.673
43827W        W 3121  42.527  31.955  14.010
43828W        W 3122  36.991   1.875   2.713
43829W        W 3123  33.405   0.334  11.052
43830W        W 3124   6.686  33.014  11.984
43831W        W 3125   8.722  30.062  13.382
43832W        W 3126   8.802  29.002  10.107
43833W        W 3127  27.032   8.337   0.850
43834W        W 3128   4.262  30.121   0.779
43835W        W 3129  12.285  32.613   0.795
43836W        W 3130  31.016  16.102  12.072
43837W        W 3131  13.334   5.926  13.907
43838W        W 3132  19.079  16.647  12.418
43839W        W 3133  18.283  22.225   4.322
43840W        W 3134   5.775  10.226   1.233
43841W        W 3135   0.915  44.414  14.511
43842W        W 3136   7.267  31.052   1.728
43843W        W 3137  32.562  33.034  12.966
43844W        W 3138  12.837  31.021  11.911
43845W        W 3139  17.670  40.348  11.474
43846W        W 3140  14.298   7.231  14.491
43847W        W 3141  14.260  34.869  11.380
43848W        W 3142  10.349  27.042  10.889
43849W        W 3143  44.380  24.012  14.775
43850W        W 3144  14.295   2.765  11.604
43851W        W 3145  12.211   9.820  14.363
43852W        W 3146   3.724  24.649   3.845
43853W        W 3147  34.034   4.423  13.955
43854W        W 3148  25.645  11.756   1.318
43855W        W 3149  24.577  26.481   2.255
43856W        W 3150  34.408  38.348   4.746
43857W        W 3151  29.553   6.834  11.899
43858W        W 3152  24.986  41.459   0.312
43859W        W 3153  18.124  42.871  12.360
43860W        W 3154  14.660  32.938  10.941
43861W        W 3155  34.373  44.453   2.700
43862W        W 3156  20.566  43.445   3.683
43863W        W 3157  38.879   0.487  13.466
43864W        W 3158  18.607  44.853   2.244
43865W        W 3159  24.720  43.479   2.291
43866W        W 3160  10.309  42.401  13.381
43867W        W 3161  17.115  35.590   1.773
43868W        W 3162   6.918  34.975   4.327
43869W        W 3163  30.991  14.117   5.124
43870W        W 3164   0.816  36.974  11.464
43871W        W 3165  11.298  30.111  13.351
43872W        W 3166  41.034  37.442   5.163
43873W        W 3167  34.477  31.001  12.877
43874W        W 3168  10.206  32.896   5.176
43875W        W 3169   3.329  39.331   4.824
43876W        W 3170  30.543   9.174   3.234
43877W        W 3171  17.088  12.618   2.182
43878W        W 3172  32.010  38.450   9.987
43879W        W 3173  36.873   4.699  14.008
43880W        W 3174  38.456  37.841   3.836
43881W        W 3175  12.749   8.258   3.382
43882W        W 3176  43.813  33.033   4.672
43883W        W 3177  21.561  39.863  14.008
43884W        W 3178   9.241  39.878   2.327
43885W        W 3179  32.027  40.951   4.798
43886W        W 3180  25.127  40.905   3.713
43887W        W 3181   8.667  17.085  10.504
43888W        W 3182  19.717  44.994  10.939
43889W        W 3183   3.236  42.446  14.457
43890W        W 3184  10.843  39.491   2.321
43891W        W 3185  41.910  35.491  14.345
43892W        W 3186   3.909  18.608  14.375
43893W        W 3187   6.282  39.952   1.413
43894W        W 3188   2.227  16.315  14.464
43895W        W 3189  31.638  15.585   1.933
43896W        W 3190   1.418  16.241  14.327
43897W        W 3191  12.202  37.070  11.496
43898W        W 3192  44.822  43.467   0.839
43899W        W 3193  18.141  29.638  10.988
43900W        W 3194   5.754  20.660   1.721
43901W        W 3195  16.179  27.052   1.347
43902W        W 3196   5.219  21.261  14.911
43903W        W 3197  44.920  43.358  11.389
43904W        W 3198   1.958  15.170  12.019
43905W        W 3199   0.402   6.811   1.849
43906W        W 3200   9.257  29.147  10.966
43907W        W 3201  30.588  44.405  13.882
43908W        W 3202   2.318  17.668   4.739
43909W        W 3203  22.040  15.820   4.169
43910W        W 3204  33.515  39.520   3.721
43911W        W 3205  19.574  34.528   0.959
43912W        W 3206  33.014   0.316   3.860
43913W        W 3207  27.010  23.085  12.050
43914W        W 3208  13.789   5.853   3.179
43915W        W 3209  27.541  34.966   4.141
43916W        W 3210  17.083  15.307  14.369
43917W        W 3211  22.666  12.764   5.243
43918W        W 3212  12.231  24.669   1.856
43919W        W 3213  19.705  40.449   5.246
43920W        W 3214  18.194  19.141  12.920
43921W        W 3215  31.482  27.998  13.831
43922W        W 3216   1.738   4.761  10.891
43923W        W 3217  34.581  36.480  14.342
43924W        W 3218  11.649  16.665   0.270
43925W        W 3219   1.825  39.416   4.657
43926W        W 3220  13.116  43.919   3.630
43927W        W 3221   7.872  17.628   0.394
43928W        W 3222  17.119   9.737   3.322
43929W        W 3223  23.125  23.032   1.331
43930W        W 3224   1.833   3.710   4.663
43931W        W 3225  30.427   9.696   3.204
43932W        W 3226  26.047   1.299  13.851
43933W        W 3227  34.491   6.385   3.339
43934W        W 3228  39.395  14.289   2.873
43935W        W 3229  11.264   5.928   4.656
43936W        W 3230  21.541  44.983   4.273
43937W        W 3231  38.485  32.075  10.508
43938W        W 3232  41.407  43.987   5.220
43939W        W 3233  30.936  27.479   4.189
43940W        W 3234  18.759   0.351   1.271
43941W        W 3235  19.094  30.544  14.349
43942W        W 3236  26.032  25.175  12.445
43943W        W 3237  43.817  29.145   2.728
43944W        W 3238   4.230   0.294   1.846
43945W        W 3239  18.265  44.855  11.989
43946W        W 3240  44.399  36.442   4.162
43947W        W 3241  16.308   4.789   4.223
43948W        W 3242  22.099  31.087  10.984
43949W        W 3243   8.180  18.591  13.893
43950W        W 3244  20.271  35.921   1.758
43951W        W 3245  24.205  31.449  11.490
43952W        W 3246  31.078   1.452   4.210
43953W        W 3247  23.184  24.544   1.698
43954W        W 3248  21.140  11.753  10.071
43955W        W 3249   4.336  32.584  12.087
43956W        W 3250  11.199  37.541   5.211
43957W        W 3251  32.066  18.080  12.428
43958W        W 3252  31.105  37.410  10.932
43959W        W 3253  39.486  38.868  12.887
43960W        W 3254   4.927  30.631  13.473
43961W        W 3255  31.896   3.388   5.196
43962W        W 3256  22.603   9.794   1.909
43963W        W 3257  37.952  33.090   9.644
43964W        W 3258  26.514  10.289  12.439
43965W        W 3259  24.576  34.472  11.873
43966W        W 3260  43.356   6.808   3.383
43967W        W 3261  14.780  32.422  12.013
43968W        W 3262   2.830  21.605   3.798
43969W        W 3263  28.440  28.560  14.377
43970W        W 3264   2.967  30.088  14.318
43971W        W 3265  23.029  12.645  13.815
43972W        W 3266  18.749  26.585   2.677
43973W        W 3267  16.792  21.106   3.230
43974W        W 3268  13.666  16.218   4.145
43975W        W 3269  20.635   3.422  14.814
43976W        W 3270   6.372   2.748   0.324
43977W        W 3271   1.408  19.675   1.449
43978W        W 3272   0.944   4.862  10.096
43979W        W 3273  41.853  43.465   4.780
43980W        W 3274   2.816  38.878  12.908
43981W        W 3275  28.112  23.531  10.108
43982W        W 3276  41.986  29.444   1.744
43983W        W 3277  44.273  34.975   2.237
43984W        W 3278  43.875   6.202  11.906
43985W        W 3279  29.581   5.312  11.917
43986W        W 3280  36.447   7.255   4.303
43987W        W 3281  24.611   9.222  10.430
43988W        W 3282  21.685  36.524   2.889
43989W        W 3283  32.036  34.521  10.537
43990W        W 3284  33.126   3.242   0.736
43991W        W 3285  16.223   7.322   1.417
43992W        W 3286  40.453  20.688   4.758
43993W        W 3287  13.125  17.773  12.445
43994W        W 3288  32.127  35.107   3.378
43995W        W 3289  18.717  31.488   0.898
43996W        W 3290  15.813  12.341  14.344
43997W        W 3291  41.372  44.344  14.994
43998W        W 3292   2.427  15.207   0.764
43999W        W 3293  27.982  42.438   3.319
44000W        W 3294  12.137  29.988   3.161
44001W        W 3295   6.294  27.138  14.351
44002W        W 3296  44.839  20.141   1.791
44003W        W 3297   8.720  21.741  11.110
44004W        W 3298   0.428  33.527  14.944
44005W        W 3299  34.061   0.375  13.410
44006W        W 3300  26.137  13.183  14.498
44007W        W 3301  10.197  28.544   5.098
44008W        W 3302  29.020  42.781  11.408
44009W        W 3303  35.052  30.642  12.980
44010W        W 3304  24.036   2.411   3.179
44011W        W 3305   3.764  11.722   1.326
44012W        W 3306  28.010  26.475  14.479
44013W        W 3307  35.471  21.741  13.836
44014W        W 3308  30.152  27.456   4.675
44015W        W 3309  15.100  25.100   2.389
44016W        W 3310   0.851  43.351   0.857
44017W        W 3311   9.210  43.974   9.470
44018W        W 3312  31.927   9.340  13.436
44019W        W 3313  43.460  22.051   3.708
44020W        W 3314  18.241  17.127  10.497
44021W        W 3315   8.166   3.330  10.137
44022W        W 3316  30.528  25.480  14.020
44023W        W 3317  30.914   2.460  14.780
44024W        W 3318  40.010   0.808   3.280
44025W        W 3319  22.011  35.478   1.223
44026W        W 3320  40.379  36.872  14.387
44027W        W 3321  17.187  31.429  11.114
44028W        W 3322   7.327  13.717   2.375
44029W        W 3323  12.642  36.389  13.538
44030W        W 3324  26.187  44.975  14.351
44031W        W 3325  32.085  24.486  14.008
44032W        W 3326  20.690  22.039  12.933
44033W        W 3327  14.260  25.157  13.987
44034W        W 3328  24.164  30.525  12.925
44035W        W 3329  13.776  16.600   1.226
44036W        W 3330   4.205  23.122  13.005
44037W        W 3331  32.938  43.302   0.762
44038W        W 3332   8.728   6.202  14.822
44039W        W 3333   9.272  19.200  12.958
44040W        W 3334  38.975  24.188   3.858
44041W        W 3335  31.554  38.523  14.846
44042W        W 3336  22.086  29.537   1.903
44043W        W 3337  23.044  34.397   4.265
44044W        W 3338  30.933   9.200   4.149
44045W        W 3339  18.155  40.947   1.720
44046W        W 3340  31.566  34.496   3.269
44047W        W 3341  44.443   4.281   3.241
44048W        W 3342  16.580   8.379   0.831
44049W        W 3343  34.573  30.637  13.851
44050W        W 3344   8.738  36.861   1.255
44051W        W 3345  35.381   0.268  13.481
44052W        W 3346  12.350   3.904  12.888
44053W        W 3347  33.441  18.648   4.354
44054W        W 3348  21.218  20.151  14.967
44055W        W 3349  16.253  30.616   4.136
44056W        W 3350   3.393  43.319  14.953
44057W        W 3351  31.648   7.253   2.397
44058W        W 3352   5.722  27.112   0.779
44059W        W 3353  14.835  32.418  14.020
44060W        W 3354  27.147  10.236   0.267
44061W        W 3355  15.293   5.320  11.985
44062W        W 3356  17.665  10.868  10.471
44063W        W 3357  25.566  41.043   4.139
44064W        W 3358  26.648  36.468   0.893
44065W        W 3359  26.201  24.174  14.280
44066W        W 3360  36.062   8.787   3.315
44067W        W 3361  17.218  29.599   3.242
44068W        W 3362  25.687  16.681   1.436
44069W        W 3363   5.270  43.992  11.382
44070W        W 3364  33.626  28.059  12.988
44071W        W 3365  34.029   6.918  12.370
44072W        W 3366  32.460  44.434   3.187
44073W        W 3367  34.930  15.209  14.492
44074W        W 3368   8.334  19.048   3.646
44075W        W 3369   0.281  11.344  13.994
44076W        W 3370  29.576  21.668  11.010
44077W        W 3371  36.968  41.801   0.350
44078W        W 3372  14.276  17.758  14.930
44079W        W 3373   3.402  39.913  11.485
44080W        W 3374   1.905  27.619   0.850
44081W        W 3375   3.304  15.239   2.408
44082W        W 3376  26.186  39.022   9.938
44083W        W 3377   4.766  20.232   1.907
44084W        W 3378  27.481  23.499   1.245
44085W        W 3379  38.503  39.438   4.319
44086W        W 3380  32.412  10.633  14.499
44087W        W 3381  35.085  29.447   3.774
44088W        W 3382   3.835  12.662  13.849
44089W        W 3383  24.685   6.764  14.323
44090W        W 3384  21.182  14.157  13.888
44091W        W 3385  30.599  16.278   1.217
44092W        W 3386  24.085  37.355   2.184
44093W        W 3387  17.256  21.183   0.870
44094W        W 3388  35.852   0.275  11.931
44095W        W 3389  36.000  27.600   4.221
44096W        W 3390  15.217   7.305   2.797
44097W        W 3391  29.003  17.125   2.181
44098W        W 3392   5.833  39.534  11.113
44099W        W 3393  14.649   5.393   3.762
44100W        W 3394  33.069  43.459   1.738
44101W        W 3395  24.974   5.787  13.944
44102W        W 3396  20.194  40.030  14.925
44103W        W 3397   9.214  26.031  14.472
44104W        W 3398  10.255  22.684   5.272
44105W        W 3399  27.677   3.251   0.320
44106W        W 3400  17.717  10.658  14.817
44107W        W 3401  34.923  32.567   2.766
44108W        W 3402  18.570   8.210  14.882
44109W        W 3403  29.658  43.398  13.798
44110W        W 3404  32.966  38.369  12.928
44111W        W 3405  26.539  20.042   1.284
44112W        W 3406   6.766  30.072   0.788
44113W        W 3407  28.028  20.265  10.417
44114W        W 3408  41.308  27.035   3.869
44115W        W 3409  25.683   9.327  12.959
44116W        W 3410  40.429  42.901  12.474
44117W        W 3411  36.486   8.361   2.297
44118W        W 3412   0.436   6.298   3.179
44119W        W 3413  33.602   4.240  10.593
44120W        W 3414   3.872  12.294  11.895
44121W        W 3415  19.621  13.701  11.067
44122W        W 3416  26.458  10.800   4.606
44123W        W 3417   2.325  20.253  13.317
44124W        W 3418  33.884  38.950  11.582
44125W        W 3419  28.039  33.097  13.910
44126W        W 3420  23.997   8.327   1.860
44127W        W 3421  12.670  36.492  14.781
44128W        W 3422  26.499  43.293   1.735
44129W        W 3423  29.492  21.581   0.318
44130W        W 3424  25.673   6.899  11.941
44131W        W 3425  43.991  31.046  12.991
44132W        W 3426   2.733  36.967  14.493
44133W        W 3427  17.088  16.156  12.545
44134W        W 3428  30.616  17.576  11.035
44135W        W 3429  30.139   2.854  12.938
44136W        W 3430   9.650   2.414  11.112
44137W        W 3431  14.616  30.483   2.410
44138W        W 3432  31.009  38.504  12.861
44139W        W 3433  44.896  22.011  11.601
44140W        W 3434  24.124   5.287  10.908
44141W        W 3435  38.859   6.798   4.126
44142W        W 3436  31.021  25.150   1.252
44143W        W 3437   2.440   6.187  10.430
44144W        W 3438  37.084  34.560   1.813
44145W        W 3439  29.644  28.625   2.214
44146W        W 3440  16.170  23.062  14.831
44147W        W 3441  32.069   1.838  14.325
44148W        W 3442  16.127   4.434  14.027
44149W        W 3443  39.479  10.182   1.290
44150W        W 3444  24.634  42.363  14.459
44151W        W 3445  43.940   5.803  11.455
44152W        W 3446  28.055  10.203   1.774
44153W        W 3447   9.194   2.936   3.362
44154W        W 3448  31.617  26.669   2.395
44155W        W 3449  32.002  18.128   2.724
44156W        W 3450  35.053  41.951  14.280
44157W        W 3451  37.346  22.235   0.306
44158W        W 3452  28.639  18.174  13.982
44159W        W 3453  22.580  37.508   1.745
44160W        W 3454  41.971  24.168   3.842
44161W        W 3455  18.558  37.046  10.619
44162W        W 3456   8.401  33.539  12.065
44163W        W 3457  35.039  13.136  13.014
44164W        W 3458  27.052  33.089   3.345
44165W        W 3459  20.036  43.989  12.938
44166W        W 3460   0.872  35.454   1.734
44167W        W 3461  28.607  16.090  13.536
44168W        W 3462   5.413   8.286  12.501
44169W        W 3463  16.612   3.220  10.592
44170W        W 3464  21.063   2.930   1.243
44171W        W 3465   3.431   5.389   3.313
44172W        W 3466  25.202  23.214   3.329
44173W        W 3467  18.119  12.273  12.562
44174W        W 3468  17.654  23.715  10.453
44175W        W 3469   8.299  10.698   3.866
44176W        W 3470  29.058   7.890  11.598
44177W        W 3471  19.566  43.855  10.901
44178W        W 3472  22.641  12.210  10.889
44179W        W 3473  15.584  35.855  11.888
44180W        W 3474  27.489  32.558   4.245
44181W        W 3475   6.306  21.703  10.521
44182W        W 3476  27.606  12.785   3.850
44183W        W 3477  29.942  29.114   0.484
44184W        W 3478  26.185  25.074  11.496
44185W        W 3479   7.676  15.687   5.094
44186W        W 3480  11.774  31.146   0.461
44187W        W 3481  29.943  24.562   3.179
44188W        W 3482  34.118  26.100  12.086
44189W        W 3483  33.411  25.035   4.779
44190W        W 3484  32.467  16.740  10.913
44191W        W 3485   2.868  11.821   4.237
44192W        W 3486   2.891  23.193  11.079
44193W        W 3487   7.178  26.186  13.910
44194W        W 3488  20.760  36.906   1.723
44195W        W 3489  24.983  35.473  13.490
44196W        W 3490   9.199  29.541  10.483
44197W        W 3491   0.398  24.991  13.827
44198W        W 3492  44.783  15.608   3.797
44199W        W 3493   4.816  10.238   2.264
44200W        W 3494   7.666  39.407  11.895
44201W        W 3495  32.918  23.117   1.356
44202W        W 3496  16.691   0.336   4.690
44203W        W 3497  32.014  12.141   0.306
44204W        W 3498  15.279  24.685  12.063
44205W        W 3499  15.208  34.058  11.109
44206W        W 3500   5.865  21.212  12.539
44207W        W 3501   4.772  35.396  14.927
44208W        W 3502   2.786  31.589  10.427
44209W        W 3503  29.507  33.127  14.769
44210W        W 3504  29.628  34.085  13.541
44211W        W 3505   2.906  32.976  11.450
44212W        W 3506  18.291  22.179   3.352
44213W        W 3507   7.393  15.125   3.296
44214W        W 3508  41.008   5.430  13.913
44215W        W 3509  23.562  27.524  11.883
44216W        W 3510  23.221  11.650  14.947
44217W        W 3511  13.691  24.054   1.749
44218W        W 3512  15.816  23.579   2.669
44219W        W 3513  29.569  41.017   2.885
44220W        W 3514  19.635  31.482  13.841
44221W        W 3515   7.321   2.795  10.460
44222W        W 3516  23.556  23.991  11.918
44223W        W 3517  11.741  20.587   3.213
44224W        W 3518  19.182  20.230  14.469
44225W        W 3519  10.170  38.555   4.335
44226W        W 3520  39.376   6.844  14.498
44227W        W 3521   5.702  29.175  13.539
44228W        W 3522  42.327  25.568  13.523
44229W        W 3523  11.643  34.031   1.449
44230W        W 3524  16.268  12.257  12.503
44231W        W 3525  33.622  38.048  14.785
44232W        W 3526  20.108  42.916  14.284
44233W        W 3527   3.382   4.286   0.293
44234W        W 3528  21.128  12.806   0.317
44235W        W 3529  29.599  42.462  12.833
44236W        W 3530  11.157  22.996  14.425
44237W        W 3531  38.481  42.827   1.914
44238W        W 3532   7.386  19.769  12.932
44239W        W 3533  28.946  19.042   2.688
44240W        W 3534  19.234  25.036  11.049
44241W        W 3535  16.294  23.542  14.809
44242W        W 3536  44.484  11.760  11.965
44243W        W 3537   2.317  24.487  14.883
44244W        W 3538   5.210  38.048  14.420
44245W        W 3539  42.445  38.961   4.712
44246W        W 3540  24.208  36.528   0.360
44247W        W 3541   7.396  40.051  11.960
44248W        W 3542  14.593  42.380   4.714
44249W        W 3543  18.090  12.122   3.691
44250W        W 3544  13.613  34.087  12.874
44251W        W 3545  16.199  30.505   1.355
44252W        W 3546   6.236   5.845  11.449
44253W        W 3547  35.959   5.288   9.995
44254W        W 3548  26.646   4.321  14.410
44255W        W 3549  15.256  37.426   2.179
44256W        W 3550  44.896   5.728   4.808
44257W        W 3551  28.955  23.200  13.013
44258W        W 3552  22.022  33.516   1.848
44259W        W 3553  15.812  24.203  12.456
44260W        W 3554  29.663  28.584   3.769
44261W        W 3555   6.819  41.844   3.150
44262W        W 3556  12.238  25.575   4.215
44263W        W 3557  13.663  33.926   2.716
44264W        W 3558  28.060  15.181   4.148
44265W        W 3559  27.521  27.674   0.286
44266W        W 3560   3.263  39.868   0.963
44267W        W 3561  28.960  14.326  11.470
44268W        W 3562  41.941   9.856  12.922
44269W        W 3563  44.917  30.920   4.222
44270W        W 3564  36.504  32.601  11.381
44271W        W 3565  15.267  19.141  11.101
44272W        W 3566  35.419  13.247  10.136
44273W        W 3567  33.088  13.166  14.814
44274W        W 3568  37.007  36.351   1.215
44275W        W 3569  39.451  28.437  14.890
44276W        W 3570   9.652  38.984  13.339
44277W        W 3571   3.855  22.511  13.944
44278W        W 3572  42.859  26.559   3.286
44279W        W 3573  40.850  27.559   0.360
44280W        W 3574  37.925   6.305   2.668
44281W        W 3575  27.542   7.745  12.944
44282W        W 3576   5.340  22.129  13.343
44283W        W 3577  17.213  32.394  14.449
44284W        W 3578  38.909  36.914  12.911
44285W        W 3579  33.978   6.232   2.887
44286W        W 3580   9.161  21.090  14.436
44287W        W 3581   7.716   0.333  12.576
44288W        W 3582  20.063   9.691  11.602
44289W        W 3583  34.475  10.142  11.396
44290W        W 3584  15.142  39.350   2.669
44291W        W 3585  13.626  40.852  14.495
44292W        W 3586  24.157   6.409   2.789
44293W        W 3587  23.996   9.291   5.306
44294W        W 3588  31.988  43.980  12.854
44295W        W 3589  35.936   8.857   9.672
44296W        W 3590  43.946  23.227   4.335
44297W        W 3591  35.048  11.158  13.431
44298W        W 3592  30.958  22.017   2.732
44299W        W 3593  28.106   6.374  10.527
44300W        W 3594  21.733  31.501   3.281
44301W        W 3595  20.768  16.102   3.288
44302W        W 3596  38.556  34.480   1.297
44303W        W 3597  20.074  29.078   1.242
44304W        W 3598   3.312  44.790  10.536
44305W        W 3599  23.618  27.071  10.894
44306W        W 3600  23.722  39.420  14.299
44307W        W 3601   4.427   8.254  11.868
44308W        W 3602  11.731  20.239   3.819
44309W        W 3603  13.173   3.228  10.938
44310W        W 3604  32.005  19.106   2.861
44311W        W 3605  17.064  23.646  13.539
44312W        W 3606  13.309  28.963   2.687
44313W        W 3607   4.236  29.496  12.567
44314W        W 3608  31.955   5.783   0.345
44315W        W 3609  14.115  27.056  13.961
44316W        W 3610  12.804  37.074  12.380
44317W        W 3611   1.390   5.196   2.730
44318W        W 3612   4.236  22.023   2.247
44319W        W 3613  41.537  21.138   4.824
44320W        W 3614  12.338  34.530  13.355
44321W        W 3615  37.918  40.500   0.284
44322W        W 3616  29.439  17.224  12.459
44323W        W 3617  31.421  20.163   2.186
44324W        W 3618  44.348  33.941  12.059
44325W        W 3619   5.923  41.966  11.545
44326W        W 3620  12.342  28.606   2.853
44327W        W 3621  25.490   9.740  11.066
44328W        W 3622  36.942   9.322   2.393
44329W        W 3623  25.678  29.035  10.440
44330W        W 3624  40.847  23.643  11.104
44331W        W 3625  39.428  12.681   4.629
44332W        W 3626  42.999   3.340  13.057
44333W        W 3627  31.580  38.021  12.979
44334W        W 3628  44.317  28.491  14.380
44335W        W 3629   0.803  29.607  14.298
44336W        W 3630  24.573   8.192   0.452
44337W        W 3631  28.176  24.035  14.869
44338W        W 3632  14.806  36.851  12.376
44339W        W 3633  12.814  19.691  10.581
44340W        W 3634  14.806  21.555  10.408
44341W        W 3635   0.895  28.967   0.856
44342W        W 3636  23.543  22.168   3.239
44343W        W 3637  19.162  27.636  11.057
44344W        W 3638  28.090  19.183  11.888
44345W        W 3639   4.384  22.096   1.397
44346W        W 3640  18.606  42.890  11.049
44347W        W 3641  42.870  23.110  10.567
44348W        W 3642  29.496  41.532   1.303
44349W        W 3643   4.707  30.117  10.954
44350W        W 3644  27.670  29.589   1.807
44351W        W 3645   2.763  25.145   1.749
44352W        W 3646  40.977  14.261  14.471
44353W        W 3647  15.623  40.391   0.431
44354W        W 3648  30.557   0.940   0.779
44355W        W 3649  12.245   5.385   3.806
44356W        W 3650  44.906   4.270   0.478
44357W        W 3651   6.220  29.971   0.263
44358W        W 3652  40.023  36.996   3.377
44359W        W 3653  38.509  44.839  11.513
44360W        W 3654  39.927  43.850   3.658
44361W        W 3655  38.903   9.293  11.542
44362W        W 3656   8.719  36.010  11.964
44363W        W 3657  27.182   5.720   3.727
44364W        W 3658  13.604  17.600  13.509
44365W        W 3659   7.374  35.032  10.613
44366W        W 3660  21.565  26.611  13.510
44367W        W 3661  25.086  40.876  12.847
44368W        W 3662  41.920  44.278   1.222
44369W        W 3663  28.050   2.867   3.169
44370W        W 3664  30.549  10.262  14.386
44371W        W 3665  10.703  10.272  10.574
44372W        W 3666   0.875  13.749   1.890
44373W        W 3667  17.673  23.133  12.474
44374W        W 3668  17.267   0.456   4.156
44375W        W 3669  42.823  26.544  11.907
44376W        W 3670   5.287   6.860   1.283
44377W        W 3671   1.470  44.853  13.510
44378W        W 3672  22.585  38.980   0.260
44379W        W 3673  38.379  35.486  10.568
44380W        W 3674  20.551  33.571   3.167
44381W        W 3675  42.809   1.885  13.403
44382W        W 3676  29.989  33.439   0.785
44383W        W 3677  11.644  44.268  13.922
44384W        W 3678  37.507  32.100  11.530
44385W        W 3679   8.267  13.837  11.051
44386W        W 3680   1.952  15.608   2.864
44387W        W 3681  41.348  21.172  10.142
44388W        W 3682  32.580   8.253   3.642
44389W        W 3683  23.711   8.762  12.981
44390W        W 3684  35.058  33.930  12.086
44391W        W 3685   5.276  34.913  13.851
44392W        W 3686  15.096  15.770  14.461
44393W        W 3687  28.018  14.202  13.854
44394W        W 3688  33.550  11.650   4.611
44395W        W 3689   3.452  17.750  12.061
44396W        W 3690  34.946  12.323  12.015
44397W        W 3691  10.215  44.899  14.297
44398W        W 3692  18.770  29.035  10.040
44399W        W 3693  11.714  33.086  11.491
44400W        W 3694  27.996  15.660   9.924
44401W        W 3695  43.783  41.410  13.368
44402W        W 3696  42.340  14.723   3.376
44403W        W 3697  22.019  11.817  14.291
44404W        W 3698  36.858  23.200   0.344
44405W        W 3699  26.002  36.410  13.844
44406W        W 3700  11.251  13.253   2.773
44407W        W 3701   3.293  32.953  12.832
44408W        W 3702  44.809  24.058   3.157
44409W        W 3703  21.703  31.468   4.830
44410W        W 3704   9.738   8.810   5.143
44411W        W 3705  11.623  18.757  13.817
44412W        W 3706  29.031  19.610   0.455
44413W        W 3707   8.870   8.330   1.369
44414W        W 3708   9.885  41.390   0.467
44415W        W 3709  11.267  33.070   2.242
44416W        W 3710  10.635   1.974   2.276
44417W        W 3711  19.206  35.496  10.422
44418W        W 3712  32.959  23.135   3.320
44419W        W 3713  18.689  24.703   4.717
44420W        W 3714   3.755  26.975   4.679
44421W        W 3715  37.008  43.831  10.527
44422W        W 3716   7.797  17.301  10.422
44423W        W 3717   5.738  11.673  10.941
44424W        W 3718  35.899  32.140  13.389
44425W        W 3719  27.172  44.811  14.929
44426W        W 3720  18.746  33.087  13.023
44427W        W 3721  35.529  34.392   9.959
44428W        W 3722  42.346  16.794  10.619
44429W        W 3723  34.067  26.206   2.408
44430W        W 3724   7.699  35.937   3.719
44431W        W 3725  14.640  28.653  10.431
44432W        W 3726   1.876  14.779  13.848
44433W        W 3727  14.126  34.068   1.270
44434W        W 3728  36.908  23.494  13.908
44435W        W 3729  16.606  29.548  11.589
44436W        W 3730   2.257   4.833  13.857
44437W        W 3731  35.947   7.822  11.566
44438W        W 3732   7.874  10.358   1.709
44439W        W 3733  17.104  39.345  14.848
44440W        W 3734  42.959  10.314  13.810
44441W        W 3735   3.216  36.046  10.621
44442W        W 3736  23.066  20.077  10.895
44443W        W 3737  21.549  38.533   1.759
44444W        W 3738   0.253  33.527   0.928
44445W        W 3739  30.061  32.987   2.846
44446W        W 3740   3.910  38.487  13.541
44447W        W 3741  44.302  28.540  11.908
44448W        W 3742   3.299  25.035  14.869
44449W        W 3743  22.720  10.836  11.087
44450W        W 3744  29.962  10.689  10.472
44451W        W 3745   0.358  14.679  10.625
44452W        W 3746   1.740  43.329  13.318
44453W        W 3747  13.693  11.300  10.010
44454W        W 3748  29.550  23.027  12.989
44455W        W 3749  19.762   7.274   4.134
44456W        W 3750  16.619  43.919   2.663
44457W        W 3751  35.917  15.105   3.289
44458W        W 3752  21.203  34.399   4.114
44459W        W 3753  26.529  31.648   3.289
44460W        W 3754   3.747  17.756  13.420
44461W        W 3755  43.392   2.411   3.319
44462W        W 3756  15.101  15.155   2.270
44463W        W 3757  17.558  14.807  13.942
44464W        W 3758  36.009  36.400   2.328
44465W        W 3759  13.810  19.273   1.403
44466W        W 3760  23.028   7.680  14.947
44467W        W 3761  28.076  20.581   2.674
44468W        W 3762  44.279  24.105   3.203
44469W        W 3763  35.452   5.197  12.539
44470W        W 3764   7.380  16.736  13.829
44471W        W 3765  30.964  36.958  14.847
44472W        W 3766  32.476  34.452   0.252
44473W        W 3767  40.341   5.853  11.468
44474W        W 3768  20.732  42.407  12.065
44475W        W 3769  10.701   6.191   2.880
44476W        W 3770   7.774  31.568   0.327
44477W        W 3771  13.764  33.067  14.895
44478W        W 3772   0.746  23.492  11.473
44479W        W 3773  25.552  22.197  13.499
44480W        W 3774  27.964  28.934   1.868
44481W        W 3775  28.106  27.944   3.663
44482W        W 3776  36.969   4.303   1.782
44483W        W 3777   3.922   9.299  11.869
44484W        W 3778  41.443  37.389   4.141
44485W        W 3779  18.241  20.083  14.494
44486W        W 3780  15.591  35.416   2.783
44487W        W 3781  32.028  26.540  13.436
44488W        W 3782  42.314  43.792  14.771
44489W        W 3783  39.395  34.412   2.683
44490W        W 3784   0.283  37.360   4.232
44491W        W 3785   2.779  29.464   0.849
44492W        W 3786  33.066  20.078  11.000
44493W        W 3787   8.662  39.002   5.195
44494W        W 3788  22.523  18.243   4.200
44495W        W 3789  39.339  29.605  13.359
44496W        W 3790   4.239  37.396  12.568
44497W        W 3791  28.953  41.341   4.152
44498W        W 3792  29.115  39.889  10.950
44499W        W 3793  22.566  30.932   4.114
44500W        W 3794   5.416  18.773  11.960
44501W        W 3795  41.911   3.346   2.885
44502W        W 3796  18.739  21.223  12.439
44503W        W 3797  43.373  28.179  14.797
44504W        W 3798  40.999  24.096   2.180
44505W        W 3799  37.895  17.217   3.781
44506W        W 3800  29.665   9.714   0.915
44507W        W 3801  23.168   0.817  14.905
44508W        W 3802   6.389  15.723  14.792
44509W        W 3803   2.368   4.307  10.540
44510W        W 3804  17.099   0.341   0.333
44511W        W 3805  31.105  36.092   3.255
44512W        W 3806  24.160  27.505   0.325
44513W        W 3807  26.672   1.443  10.497
44514W        W 3808  15.210   3.830  11.970
44515W        W 3809  18.706  21.196   4.758
44516W        W 3810  43.440  30.630   3.224
44517W        W 3811   6.187  40.856   4.286
44518W        W 3812  23.223   0.852   0.744
44519W        W 3813   4.840   8.391  14.963
44520W        W 3814  42.989  26.592  10.472
44521W        W 3815  15.312   4.774   4.614
44522W        W 3816  25.467  38.942  14.460
44523W        W 3817  23.054  36.557   1.798
44524W        W 3818   5.376  14.258  12.848
44525W        W 3819  41.352   9.860   3.271
44526W        W 3820  43.017   0.422  12.517
44527W        W 3821  43.885  34.602   3.771
44528W        W 3822  43.933  13.169   4.302
44529W        W 3823  23.624   4.701  11.091
44530W        W 3824  30.910  30.910  13.896
44531W        W 3825  12.339  41.453  11.472
44532W        W 3826   1.332  28.567  12.857
44533W        W 3827   3.723  26.037  14.012
44534W        W 3828  24.075  32.573  11.558
44535W        W 3829   9.722  30.067   0.297
44536W        W 3830   5.358  24.632   2.344
44537W        W 3831  36.034  21.250  13.341
44538W        W 3832  18.699  24.022   2.201
44539W        W 3833   1.906  14.201  10.573
44540W        W 3834  22.583  36.481   3.723
44541W        W 3835  21.743   6.699   5.086
44542W        W 3836   7.880  44.484  10.917
44543W        W 3837  15.651  38.903   3.358
44544W        W 3838  28.463   3.929  11.090
44545W        W 3839   3.874  40.884  13.418
44546W        W 3840  16.115  25.962  12.072
44547W        W 3841  23.631  20.064  12.025
44548W        W 3842  35.531  30.094   0.923
44549W        W 3843  37.528  16.688  11.487
44550W        W 3844  12.292   6.795   3.312
44551W        W 3845  40.421  23.082  12.926
44552W        W 3846  42.338  27.576   2.198
44553W        W 3847   6.888  15.804   3.310
44554W        W 3848  15.736  19.690  11.925
44555W        W 3849   3.417  42.028   2.292
44556W        W 3850   6.918  25.607   1.830
44557W        W 3851  29.572   8.320   3.795
44558W        W 3852  35.560  14.242  11.511
44559W        W 3853  27.137  36.917   2.893
44560W        W 3854  40.866  11.695  11.861
44561W        W 3855   9.370  29.667  13.962
44562W        W 3856   8.184  44.413   2.733
44563W        W 3857  26.629   5.213   0.846
44564W        W 3858  23.570  29.657   3.793
44565W        W 3859   6.404  34.930   1.835
44566W        W 3860  31.976  32.561   0.894
44567W        W 3861  44.362  35.357  13.006
44568W        W 3862  17.640  39.420   2.802
44569W        W 3863   9.218   3.920  13.821
44570W        W 3864  14.129  39.508   3.675
44571W        W 3865  31.028  13.801  13.808
44572W        W 3866  13.170  13.730  10.474
44573W        W 3867  11.852  23.006   2.822
44574W        W 3868   5.726  16.260  10.618
44575W        W 3869  33.386  16.172   0.817
44576W        W 3870  36.921   4.349   2.389
44577W        W 3871  16.691   7.863  10.576
44578W        W 3872   1.456  32.396  11.964
44579W        W 3873  16.659  32.454   2.801
44580W        W 3874  23.161   4.797   1.434
44581W        W 3875  11.243  12.732  13.017
44582W        W 3876  11.650  10.663  10.506
44583W        W 3877  34.514  17.138   2.294
44584W        W 3878  37.012  30.029  14.762
44585W        W 3879   6.410   1.367   2.321
44586W        W 3880  29.587  33.545  10.409
44587W        W 3881   4.756  34.436  12.505
44588W        W 3882  44.986  28.085   3.206
44589W        W 3883  36.360  31.107  11.595
44590W        W 3884  17.305   2.906  11.905
44591W        W 3885   0.306  24.497   3.289
44592W        W 3886  32.078  23.175  10.992
44593W        W 3887   2.306  37.074  13.944
44594W        W 3888   3.330   9.170  14.502
44595W        W 3889  11.643  32.488   4.752
44596W        W 3890   2.765   5.200  10.926
44597W        W 3891   7.298  26.957  12.547
44598W        W 3892  34.871  36.538   0.420
44599W        W 3893  23.556   7.843   2.313
44600W        W 3894  15.225  42.527   3.704
44601W        W 3895  28.956  22.635  12.473
44602W        W 3896  28.681  17.259  11.872
44603W        W 3897  28.627  24.077   1.765
44604W        W 3898   6.810  39.508  13.507
44605W        W 3899   9.211  44.008   3.224
44606W        W 3900  29.018  13.286  11.035
44607W        W 3901   1.441  14.307  12.356
44608W        W 3902  33.029  40.033  10.633
44609W        W 3903  17.303  36.402  13.049
44610W        W 3904  14.733  12.337  14.512
44611W        W 3905  27.688  27.505  11.915
44612W        W 3906  17.761   4.723  13.522
44613W        W 3907  40.823  20.225   1.235
44614W        W 3908  17.075  26.604  13.043
44615W        W 3909  18.248  33.942  12.977
44616W        W 3910  12.611  18.162  14.324
44617W        W 3911  35.557  34.412  11.573
44618W        W 3912  21.131  36.352   0.451
44619W        W 3913  37.377  23.502   3.712
44620W        W 3914   7.707  28.490  12.498
44621W        W 3915  14.273   5.932   3.754
44622W        W 3916  37.832  15.740  13.814
44623W        W 3917  29.662  16.316   1.892
44624W        W 3918  20.722  21.591   4.676
44625W        W 3919  35.014  33.900  14.806
44626W        W 3920  12.656  10.343  13.399
44627W        W 3921   5.841  12.775  14.809
44628W        W 3922  27.551   0.475  13.501
44629W        W 3923  43.952  28.440  12.458
44630W        W 3924  17.700  38.410   1.805
44631W        W 3925   3.379  22.225   2.808
44632W        W 3926  22.679  35.855   0.363
44633W        W 3927  24.006  12.183  10.522
44634W        W 3928   3.416  17.735   3.226
44635W        W 3929  21.626  27.125  12.020
44636W        W 3930  23.628  20.042   4.354
44637W        W 3931  26.529  25.002  14.402
44638W        W 3932   6.258  31.013   9.998
44639W        W 3933  20.652  22.629   0.793
44640W        W 3934  41.820  23.199   2.339
44641W        W 3935  35.544   4.872  14.380
44642W        W 3936  31.139   6.401   4.217
44643W        W 3937  12.772   6.218  11.017
44644W        W 3938  32.006  26.150   5.237
44645W        W 3939   9.300  25.568   2.205
44646W        W 3940  15.197  11.830   2.769
44647W        W 3941  12.225  23.086  12.503
44648W        W 3942  40.923  10.243  12.436
44649W        W 3943   8.241  34.047  13.791
44650W        W 3944  10.669  41.425   0.897
44651W        W 3945  17.121  33.602   5.190
44652W        W 3946  16.630  27.999   1.754
44653W        W 3947   5.822  31.468  13.540
44654W        W 3948  33.061  37.985  13.439
44655W        W 3949  32.444   7.892  12.575
44656W        W 3950   0.928  20.171  12.544
44657W        W 3951  20.239  35.448  10.479
44658W        W 3952   2.750  26.636   4.146
44659W        W 3953  16.209  35.437   0.407
44660W        W 3954  29.148  30.139  14.917
44661W        W 3955  20.553  21.688   0.365
44662W        W 3956  28.156   3.346  11.517
44663W        W 3957  37.907  36.842   1.878
44664W        W 3958  18.122  16.643   3.695
44665W        W 3959  36.389   0.800  11.569
44666W        W 3960  39.363   4.233   4.794
44667W        W 3961   5.412  25.022   2.321
44668W        W 3962  41.841  16.308   0.431
44669W        W 3963  44.841   3.800  11.000
44670W        W 3964   5.239  29.668  14.429
44671W        W 3965  31.955  42.361   3.854
44672W        W 3966  21.217  10.814   1.382
44673W        W 3967  27.640  19.197  14.005
44674W        W 3968  25.713   1.960   5.082
44675W        W 3969  38.016  39.487  10.031
44676W        W 3970  11.241  42.385   0.802
44677W        W 3971   5.833  32.890  12.511
44678W        W 3972  28.531   9.859   1.820
44679W        W 3973  24.688  26.066  13.845
44680W        W 3974  20.541  11.797   3.724
44681W        W 3975   4.418  30.549  12.022
44682W        W 3976   2.884  29.985   2.290
44683W        W 3977   5.759  16.073  14.360
44684W        W 3978   8.742  37.948   3.348
44685W        W 3979  32.062  37.422   3.689
44686W        W 3980  34.475   5.373  11.868
44687W        W 3981  34.583  20.257   1.918
44688W        W 3982  19.598   4.724  11.920
44689W        W 3983   0.281   0.914  13.316
44690W        W 3984  38.828  22.570   3.869
44691W        W 3985  23.209   3.880   4.314
44692W        W 3986  22.505  23.701  11.880
44693W        W 3987  32.480  44.783  10.967
44694W        W 3988  13.761   3.257   2.318
44695W        W 3989   0.249  16.635   1.882
44696W        W 3990  35.059  41.499  10.043
44697W        W 3991  22.097  42.990   2.345
44698W        W 3992  44.432  42.032  10.600
44699W        W 3993  16.665  25.972   3.743
44700W        W 3994  26.628  30.578  13.961
44701W        W 3995   2.919  13.196   3.383
44702W        W 3996  32.404  34.919  10.993
44703W        W 3997  19.178  17.227   0.253
44704W        W 3998  36.016   1.390  10.466
44705W        W 3999  33.451  30.430   3.326
44706W        W 4000   6.189  23.053  13.334
44707W        W 4001   6.817  44.930  13.973
44708W        W 4002  13.168  12.146   1.900
44709W        W 4003   8.810  29.099  11.450
44710W        W 4004  38.928  38.029  14.421
44711W        W 4005  28.982  20.543   3.284
44712W        W 4006  25.986  18.157  13.850
44713W        W 4007   3.416   7.179   4.330
44714W        W 4008  42.431  30.595  13.904
44715W        W 4009  24.655  33.105  13.896
44716W        W 4010  27.021  11.789  14.481
44717W        W 4011  14.145  29.557  13.526
44718W        W 4012  43.278  26.603   3.799
44719W        W 4013  13.715  17.580  12.043
44720W        W 4014  19.656   5.224  12.950
44721W        W 4015  16.104  36.927  12.570
44722W        W 4016  38.938  27.027   0.921
44723W        W 4017  37.460  25.005   3.779
44724W        W 4018  33.401   3.286  10.029
44725W        W 4019   8.804   7.840   3.295
44726W        W 4020  15.725  36.582   1.784
44727W        W 4021  25.611  40.799   3.151
44728W        W 4022  29.638  21.610  14.878
44729W        W 4023  37.838  37.454  11.858
44730W        W 4024  38.349  41.431   4.183
44731W        W 4025  32.984  41.850   1.915
44732W        W 4026  17.293   3.918   0.833
44733W        W 4027  32.527   2.778  14.000
44734W        W 4028  40.325  29.127  10.046
44735W        W 4029  33.960  29.520  11.980
44736W        W 4030   7.401  33.119  14.855
44737W        W 4031  31.518  35.085  12.412
44738W        W 4032   2.462  28.478   2.892
44739W        W 4033  35.381  26.083   0.249
44740W        W 4034  16.095  27.062  12.863
44741W        W 4035  18.664  17.751  11.047
44742W        W 4036  37.524  17.087   3.685
44743W        W 4037  14.232  31.098  14.032
44744W        W 4038  18.609  20.203  14.767
44745W        W 4039   1.353  40.803  12.525
44746W        W 4040   7.724  12.779   3.167
44747W        W 4041  10.777   5.792  10.461
44748W        W 4042  25.993  31.985   1.923
44749W        W 4043   2.861  27.155   4.295
44750W        W 4044  39.375  11.178  11.568
44751W        W 4045  24.712  40.876  12.918
44752W        W 4046  20.080  43.410  12.491
44753W        W 4047  30.530  24.185   2.834
44754W        W 4048   7.227   4.255   0.319
44755W        W 4049  11.172  29.552   3.314
44756W        W 4050  31.007  15.092   3.729
44757W        W 4051  18.240  37.965  14.282
44758W        W 4052  39.344  20.690  10.999
44759W        W 4053  29.928  10.786  14.321
44760W        W 4054  24.003  25.150  13.898
44761W        W 4055  30.971  41.299   3.345
44762W        W 4056  20.526   4.912   0.248
44763W        W 4057  14.825   6.705  13.391
44764W        W 4058   3.740  13.615  14.275
44765W        W 4059   9.744   2.433   2.742
44766W        W 4060   9.347  24.137   3.781
44767W        W 4061   1.922   1.939   2.796
44768W        W 4062  32.504  32.460   0.408
44769W        W 4063  23.624  11.142   2.784
44770W        W 4064   3.321  20.682   5.172
44771W        W 4065  27.052  44.407   1.446
44772W        W 4066  39.852   4.906   3.221
44773W        W 4067  41.381  35.435   2.369
44774W        W 4068   8.856  18.062  11.964
44775W        W 4069   2.878  16.289   0.761
44776W        W 4070  29.928  29.146   1.320
44777W        W 4071   8.764  40.426   4.234
44778W        W 4072  22.069  27.082   0.306
44779W        W 4073   4.890  43.344  10.444
44780W        W 4074  24.692  17.699  10.942
44781W        W 4075   4.316  19.561   3.726
44782W        W 4076  41.929   6.865   1.330
44783W        W 4077  21.192  26.599   2.250
44784W        W 4078  12.639  24.997  10.483
44785W        W 4079  28.456  11.283  11.051
44786W        W 4080  38.463  38.018  11.552
44787W        W 4081   0.756  38.344   4.806
44788W        W 4082  20.193  15.802   3.291
44789W        W 4083   6.329  20.077   9.562
44790W        W 4084  26.035   1.325   4.263
44791W        W 4085  29.995  32.047   2.832
44792W        W 4086  36.870  31.445  11.518
44793W        W 4087   5.215  18.059   2.190
44794W        W 4088  34.573  13.642   0.872
44795W        W 4089  44.500  14.688   0.728
44796W        W 4090  26.458  36.956   1.316
44797W        W 4091  35.908   9.277   2.762
44798W        W 4092  22.553  32.044  13.971
44799W        W 4093  35.922  42.958   0.254
44800W        W 4094   4.246  33.927  12.049
44801W        W 4095   2.286  44.478  14.794
44802W        W 4096  43.009   7.800   1.834
44803W        W 4097  25.590  44.942   3.633
44804W        W 4098  43.862  21.665  11.869
44805W        W 4099   1.833   4.240   0.354
44806W        W 4100   9.876  23.078   0.758
44807W        W 4101   8.698  21.679   0.844
44808W        W 4102  13.127  31.140  12.529
44809W        W 4103  19.548  39.353  14.872
44810W        W 4104  15.260   5.279   1.383
44811W        W 4105   7.213  18.705  13.377
44812W        W 4106   4.347  41.012  10.972
44813W        W 4107  32.459   8.340   2.343
44814W        W 4108   0.888  32.922   2.903
44815W        W 4109  28.165  29.429  13.957
44816W        W 4110   1.775  22.601  10.909
44817W        W 4111  18.293  33.893  11.000
44818W        W 4112  36.049  37.451  11.036
44819W        W 4113  14.747  17.073  12.874
44820W        W 4114  24.024   7.665   0.335
44821W        W 4115  30.493  25.508   4.337
44822W        W 4116  10.823  35.467   0.279
44823W        W 4117   0.931  11.821   1.270
44824W        W 4118  30.914  21.586   4.693
44825W        W 4119  26.133   1.956  13.456
44826W        W 4120  31.542  14.737  12.498
44827W        W 4121  43.781  10.825  14.946
44828W        W 4122  25.711  22.692   2.852
44829W        W 4123  18.191   5.380   1.727
44830W        W 4124  20.531  11.666  12.534
44831W        W 4125  21.673  19.178   4.811
44832W        W 4126  35.047  27.154  10.972
44833W        W 4127  16.594  39.358  14.381
44834W        W 4128   7.178  34.881   4.747
44835W        W 4129  31.127  25.063   1.856
44836W        W 4130   1.788   0.362  12.889
44837W        W 4131  16.317  17.238  11.005
44838W        W 4132  43.272  23.713  10.925
44839W        W 4133   3.376  43.793  12.824
44840W        W 4134  26.621  24.576   1.258
44841W        W 4135  21.639  15.704  11.580
44842W        W 4136   6.305   4.413   2.241
44843W        W 4137   0.402   3.741   4.316
44844W        W 4138   6.712  41.378   4.294
44845W        W 4139   5.774  25.137   3.668
44846W        W 4140   1.744  13.665   4.173
44847W        W 4141  16.764   7.251   4.680
44848W        W 4142  17.202  11.795   2.778
44849W        W 4143  22.664  37.563   2.745
44850W        W 4144  29.471  20.527   4.193
44851W        W 4145   3.886  30.432   4.645
44852W        W 4146   7.712  21.037  13.937
44853W        W 4147  29.616  40.052  10.016
44854W        W 4148  14.719   1.402   1.751
44855W        W 4149   1.950   5.881  10.563
44856W        W 4150  42.927   9.331  12.069
44857W        W 4151  21.578   8.344   1.851
44858W        W 4152   0.859  43.501   2.263
44859W        W 4153  38.480  12.742  11.122
44860W        W 4154  34.399  34.414   3.227
44861W        W 4155  11.865  24.670   2.292
44862W        W 4156  18.577  13.122  10.128
44863W        W 4157  38.956  19.249  11.594
44864W        W 4158   1.297  26.638  14.309
44865W        W 4159  12.198  25.045   3.180
44866W        W 4160  14.251   5.207  14.004
44867W        W 4161  12.657  13.105  14.803
44868W        W 4162  22.618  33.011   4.147
44869W        W 4163  25.665  34.102   2.330
44870W        W 4164   6.832  28.631  10.534
44871W        W 4165   8.290  19.540   3.802
44872W        W 4166  37.427  22.194  14.433
44873W        W 4167  35.502  21.513   2.679
44874W        W 4168  20.553  18.564   3.735
44875W        W 4169  35.858  33.464   1.423
44876W        W 4170   9.866  30.993   2.232
44877W        W 4171  16.775   7.258   1.855
44878W        W 4172  29.146  14.147   0.336
44879W        W 4173  35.538  21.735  14.835
44880W        W 4174  28.582  14.204  14.820
44881W        W 4175   4.399  10.233  14.489
44882W        W 4176   7.284  11.339   1.418
44883W        W 4177  43.908  13.131   3.234
44884W        W 4178  35.957  35.864  14.836
44885W        W 4179  22.232  28.008   0.813
44886W        W 4180  36.948  32.393  14.316
44887W        W 4181  13.120   9.214   4.685
44888W        W 4182  26.641  20.643  10.931
44889W        W 4183  15.171  37.024   2.811
44890W        W 4184  33.457   0.451   5.278
44891W        W 4185  44.799   6.358  13.538
44892W        W 4186  44.997  40.031  11.028
44893W        W 4187  28.681  31.082   2.379
44894W        W 4188  37.038  35.417   5.299
44895W        W 4189   3.761   2.342  12.486
44896W        W 4190   6.341  31.464  13.922
44897W        W 4191   1.258  42.960   4.672
44898W        W 4192  10.142  20.264   0.301
44899W        W 4193  32.425  43.426   4.270
44900W        W 4194  24.715  21.573   1.378
44901W        W 4195  12.641   7.215   3.302
44902W        W 4196  43.341  40.903   3.249
44903W        W 4197  20.741  20.639  14.006
44904W        W 4198  17.242  23.153  14.330
44905W        W 4199  25.205  33.120   1.443
44906W        W 4200  31.419  29.580  13.822
44907W        W 4201  30.423  19.630   0.412
44908W        W 4202   3.717  14.236   2.837
44909W        W 4203   0.461  23.496   3.664
44910W        W 4204  12.260  19.259  13.413
44911W        W 4205  38.018  44.954   3.742
44912W        W 4206  41.896  27.151  14.496
44913W        W 4207  29.442  37.889  13.007
44914W        W 4208  19.696   9.358  10.465
44915W        W 4209  24.148  10.265   3.339
44916W        W 4210  43.913  30.929  12.045
44917W        W 4211  40.486  31.532   2.345
44918W        W 4212  17.084  23.063   4.661
44919W        W 4213  10.258  35.083  12.957
44920W        W 4214  23.590  10.664   0.960
44921W        W 4215  44.302  43.879   1.722
44922W        W 4216  38.050  43.279  13.317
44923W        W 4217  24.516  38.915   3.174
44924W        W 4218  38.353   5.750   2.287
44925W        W 4219  16.640  33.022   2.691
44926W        W 4220  27.180  13.646  14.895
44927W        W 4221  20.751   5.423  13.427
44928W        W 4222  41.319   5.422  12.538
44929W        W 4223  43.492  44.289   4.640
44930W        W 4224  10.266   0.265   4.160
44931W        W 4225  36.979  34.462   2.361
44932W        W 4226  13.167  17.560  14.823
44933W        W 4227   5.771  36.928   2.856
44934W        W 4228  17.211  23.160  13.401
44935W        W 4229  13.758  10.851   0.282
44936W        W 4230  22.510  32.020   2.719
44937W        W 4231  13.692  30.486   4.804
44938W        W 4232   8.370  10.337  12.881
44939W        W 4233  24.175  17.214   3.305
44940W        W 4234  28.477  11.791   2.874
44941W        W 4235  36.090  44.958  11.485
44942W        W 4236   4.725  33.462  13.424
44943W        W 4237  29.648  17.166   4.642
44944W        W 4238   1.731  27.680   1.710
44945W        W 4239  21.645  28.153  11.417
44946W        W 4240  44.461  41.003  11.965
44947W        W 4241  31.429  37.449   4.769
44948W        W 4242   6.393  21.594   2.694
44949W        W 4243   8.886  28.121  14.467
44950W        W 4244  31.452  27.059   2.364
44951W        W 4245   7.356  37.073  12.344
44952W        W 4246  33.891  41.013   2.705
44953W        W 4247  37.439  15.694   1.724
44954W        W 4248  28.646  24.706   3.241
44955W        W 4249  15.720  11.214   2.365
44956W        W 4250  42.917  34.442  11.892
44957W        W 4251  14.299  31.609   4.777
44958W        W 4252  16.575   5.925   2.758
44959W        W 4253  33.127  40.474  12.564
44960W        W 4254  22.162  15.675   2.748
44961W        W 4255  35.422  41.482  11.514
44962W        W 4256  16.622  37.540   4.757
44963W        W 4257   2.418  38.426   2.761
44964W        W 4258  42.478  19.588   3.188
44965W        W 4259  39.902  29.602   4.211
44966W        W 4260  21.558  37.421   4.157
44967W        W 4261  18.176  12.156   0.783
44968W        W 4262  39.536  25.219   2.388
44969W        W 4263  13.299  34.604  10.510
44970W        W 4264  44.421  13.244   4.745
44971W        W 4265  27.669  11.855   2.711
44972W        W 4266  12.244  20.619  11.078
44973W        W 4267  22.576   2.244   3.819
44974W        W 4268  21.599   5.312  13.014
44975W        W 4269   1.908  22.229   1.311
44976W        W 4270   8.660  19.655  10.965
44977W        W 4271  41.884  17.710  10.529
44978W        W 4272  34.395  34.937  11.004
44979W        W 4273  26.029  34.942   3.270
44980W        W 4274  26.574  16.270  14.774
44981W        W 4275  12.769  32.558  13.931
44982W        W 4276  40.892  27.511  10.583
44983W        W 4277   0.402  22.229   1.309
44984W        W 4278  35.455  27.977   4.350
44985W        W 4279  32.100   1.284   4.783
44986W        W 4280  16.695   7.881   4.128
44987W        W 4281  20.144  22.746   2.364
44988W        W 4282  40.327  12.819   5.303
44989W        W 4283  40.501  19.213  14.449
44990W        W 4284  23.164   5.429  11.990
44991W        W 4285  38.995  29.596   3.372
44992W        W 4286  31.528  19.063   4.249
44993W        W 4287  36.380  40.852  13.983
44994W        W 4288  23.492  17.267  12.998
44995W        W 4289  29.605  11.370   2.765
44996W        W 4290  34.419   9.670  10.595
44997W        W 4291  37.074   8.876  13.363
44998W        W 4292  31.418  15.591   4.315
44999W        W 4293  27.586   8.712   1.350
45000W        W 4294  30.471  13.640   3.238
45001W        W 4295  38.503  33.387   3.811
45002W        W 4296   0.911  15.765   2.383
45003W        W 4297   8.856  42.922  13.383
45004W        W 4298  27.173  39.049   4.270
45005W        W 4299  24.134  21.162   4.253
45006W        W 4300   9.346   1.440  14.787
45007W        W 4301  38.985  37.483   9.953
45008W        W 4302   6.204  13.782   2.334
45009W        W 4303  30.043  41.852   1.417
45010W        W 4304   6.212  14.817  13.403
45011W        W 4305   6.219  41.293   3.267
45012W        W 4306  32.063   8.889   2.329
45013W        W 4307  16.653  13.690  12.380
45014W        W 4308  43.471  44.408   3.753
45015W        W 4309  20.731  14.152   0.820
45016W        W 4310  32.556  41.929  13.796
45017W        W 4311   1.298  32.490   1.274
45018W        W 4312  13.185   7.773  12.563
45019W        W 4313  20.575  37.502   0.869
45020W        W 4314  24.077  40.529  13.803
45021W        W 4315   9.353  28.618   3.298
45022W        W 4316  37.471  12.673  13.944
45023W        W 4317  20.663  29.581   1.864
45024W        W 4318  37.553  42.307  14.972
45025W        W 4319   4.418  25.136   4.162
45026W        W 4320  27.634  31.948   3.186
45027W        W 4321   2.460   0.365  10.631
45028W        W 4322  23.130  37.088   2.307
45029W        W 4323  30.157  44.462  10.588
45030W        W 4324  14.591   8.719   4.223
45031W        W 4325  18.296  20.524  14.854
45032W        W 4326  36.061   6.272   4.807
45033W        W 4327  14.708  10.846  10.038
45034W        W 4328  38.012   0.436   1.860
45035W        W 4329  44.494   8.223  13.924
45036W        W 4330   8.382  25.482   4.739
45037W        W 4331   6.691   4.248   3.677
45038W        W 4332   4.715   8.849  13.969
45039W        W 4333  43.491  38.488   4.686
45040W        W 4334  11.253  25.518   1.319
45041W        W 4335  44.911  10.331  10.508
45042W        W 4336  19.168  23.098  12.394
45043W        W 4337   5.762  42.347   3.705
45044W        W 4338   1.359  18.188  12.012
45045W        W 4339   4.884  25.611   4.124
45046W        W 4340  31.577  17.779   1.887
45047W        W 4341  14.311   1.773   4.213
45048W        W 4342  31.140  18.591   2.368
45049W        W 4343   7.269   0.340  10.932
45050W        W 4344  16.770   4.809  12.956
45051W        W 4345   7.839  37.442   2.251
45052W        W 4346  18.728  26.140   1.749
45053W        W 4347  14.190  12.312  11.605
45054W        W 4348  38.059  28.148  14.836
45055W        W 4349  15.614  15.099   3.167
45056W        W 4350  32.604   4.738  12.502
45057W        W 4351  35.013   8.719   1.341
45058W        W 4352  31.436   5.312   0.259
45059W        W 4353   6.417  31.607   3.659
45060W        W 4354  21.704  22.738   2.766
45061W        W 4355  18.075  31.502  11.086
45062W        W 4356   0.269  38.329   0.313
45063W        W 4357   7.712  31.601   3.346
45064W        W 4358  24.063  16.162   3.160
45065W        W 4359  41.820  44.883   5.216
45066W        W 4360  42.880   4.213   4.621
45067W        W 4361  14.214   9.722  10.462
45068W        W 4362  39.951  17.153  14.964
45069W        W 4363   9.674  10.286  13.823
45070W        W 4364  39.958  29.094  11.944
45071W        W 4365   6.279  16.712   3.212
45072W        W 4366  28.177  25.219   1.880
45073W        W 4367   6.345  35.510  14.373
45074W        W 4368  36.577  30.542  10.562
45075W        W 4369  23.617  19.728   0.884
45076W        W 4370  14.800   2.346   4.340
45077W        W 4371   7.815  40.943   4.707
45078W        W 4372  35.458  11.623  14.336
45079W        W 4373   7.824  24.713  11.426
45080W        W 4374  24.524  10.851   1.716
45081W        W 4375  10.665  16.586   4.743
45082W        W 4376  27.963  37.576  14.362
45083W        W 4377  42.974   9.836  12.517
45084W        W 4378   5.902  19.133   4.208
45085W        W 4379  16.112  36.508  13.897
45086W        W 4380   6.857  18.158   4.182
45087W        W 4381  26.156  29.089  10.936
45088W        W 4382  39.030   8.722  11.067
45089W        W 4383  18.208   6.908  12.541
45090W        W 4384  35.031  34.081   0.920
45091W        W 4385   9.227  15.291   3.692
45092W        W 4386  31.976  22.125   2.297
45093W        W 4387   4.344  20.261   0.365
45094W        W 4388  34.000  11.353  14.825
45095W        W 4389  31.525  29.511  12.421
45096W        W 4390   9.274  19.619   4.815
45097W        W 4391  31.973  14.283  11.917
45098W        W 4392  16.101  13.154   3.199
45099W        W 4393  39.818  20.762  11.959
45100W        W 4394  34.878  43.379   2.873
45101W        W 4395  33.423  32.092  12.055
45102W        W 4396  24.707  18.781   0.861
45103W        W 4397  19.113  11.831  14.324
45104W        W 4398  19.590  41.472  11.996
45105W        W 4399  14.255  15.166   2.692
45106W        W 4400  26.560  19.063   4.765
45107W        W 4401  40.007  25.040   2.301
45108W        W 4402  41.364  18.690  13.403
45109W        W 4403  22.539  38.459  10.920
45110W        W 4404  26.990  21.168   4.143
45111W        W 4405  12.716  44.968   3.642
45112W        W 4406   5.846   2.310   2.346
45113W        W 4407  41.533  41.892   0.359
45114W        W 4408  37.000  36.446  12.535
45115W        W 4409  41.020  34.475   3.307
45116W        W 4410  20.180  18.226   2.214
45117W        W 4411   8.806   4.769   1.362
45118W        W 4412   8.355  36.889  14.796
45119W        W 4413  14.743  39.900   2.766
45120W        W 4414  23.491  18.779  12.349
45121W        W 4415   6.905  30.127  11.442
45122W        W 4416  16.754  23.195  12.903
45123W        W 4417  14.814   7.265   2.747
45124W        W 4418   7.911  17.170   3.205
45125W        W 4419  27.581  32.918  13.363
45126W        W 4420  42.780  27.002   3.312
45127W        W 4421  16.226   1.875   2.252
45128W        W 4422  21.731  10.138  14.943
45129W        W 4423   9.756   7.407  14.913
45130W        W 4424  37.548  23.127   4.804
45131W        W 4425  25.523   8.237   1.733
45132W        W 4426  27.599   9.344   2.358
45133W        W 4427  16.181  32.553  11.979
45134W        W 4428  13.601  36.907   2.840
45135W        W 4429  18.225   0.354   0.320
45136W        W 4430  30.125   8.342  11.442
45137W        W 4431  29.427  21.023   1.702
45138W        W 4432  43.848  26.021  11.964
45139W        W 4433  11.275  30.563   4.727
45140W        W 4434  14.146   2.741  14.491
45141W        W 4435  39.402  14.594  13.895
45142W        W 4436  42.964  20.638  12.451
45143W        W 4437  23.178  34.392  11.884
45144W        W 4438  11.827   8.232   0.335
45145W        W 4439  41.373  44.303   2.825
45146W        W 4440  29.931  28.448  14.005
45147W        W 4441  17.261  35.088  13.491
45148W        W 4442  26.209  35.505  14.351
45149W        W 4443  32.574  35.534  13.868
45150W        W 4444  27.035  36.885  12.495
45151W        W 4445  22.516  27.945   3.697
45152W        W 4446  43.914  33.575  10.598
45153W        W 4447   1.955  13.173   4.702
45154W        W 4448  21.037  20.064   1.891
45155W        W 4449  17.127  16.225  13.473
45156W        W 4450  35.417  12.338  13.879
45157W        W 4451  18.667  31.135  11.895
45158W        W 4452  19.092  13.736  14.905
45159W        W 4453  12.135  15.761   9.950
45160W        W 4454  14.754  27.631   3.730
45161W        W 4455  22.037  37.469   0.381
45162W        W 4456  30.446  14.633  12.994
45163W        W 4457   6.854  22.653   1.317
45164W        W 4458  37.547  19.771   0.866
45165W        W 4459   5.222  25.198  13.811
45166W        W 4460  31.464  33.504  13.484
45167W        W 4461   7.278   6.916   3.213
45168W        W 4462  27.583   8.718   5.176
45169W        W 4463  38.009  34.578  13.453
45170W        W 4464  43.400  37.060  13.968
45171W        W 4465   7.294  28.550  11.377
45172W        W 4466  39.987  34.428   0.952
45173W        W 4467  25.569  33.599   1.216
45174W        W 4468  39.843  35.505  11.476
45175W        W 4469   3.244  11.188  10.905
45176W        W 4470   3.378   8.707  13.018
45177W        W 4471  31.102  26.493   3.758
45178W        W 4472  25.049  41.376  14.823
45179W        W 4473   9.258   4.786   3.810
45180W        W 4474   8.361   0.762  14.350
45181W        W 4475  19.195   3.428   3.838
45182W        W 4476  22.176   5.892   3.299
45183W        W 4477  18.640  16.760  13.903
45184W        W 4478  34.520  14.180  10.928
45185W        W 4479  12.152  11.837   9.492
45186W        W 4480  23.613   3.737  13.315
45187W        W 4481  40.372  29.996   3.732
45188W        W 4482  30.614  33.117   3.853
45189W        W 4483   9.841  19.543  13.456
45190W        W 4484  44.863  32.562   0.743
45191W        W 4485  25.655  36.087  10.037
45192W        W 4486   9.693  20.194   5.611
45193W        W 4487   8.824  42.503  10.558
45194W        W 4488   2.358  26.988   4.768
45195W        W 4489  38.332  15.221   1.725
45196W        W 4490  18.773  14.817  13.316
45197W        W 4491  33.438  42.502  10.449
45198W        W 4492  27.572  10.701  10.404
45199W        W 4493  27.465  21.017  11.081
45200W        W 4494  14.141  34.412  13.363
45201W        W 4495  15.577  28.669   4.193
45202W        W 4496  25.558  23.496   2.191
45203W        W 4497  26.953  36.952   2.316
45204W        W 4498  30.154  39.522  11.935
45205W        W 4499  30.529  13.651   0.328
45206W        W 4500  18.176  32.113   2.701
45207W        W 4501  16.629  31.153  11.910
45208W        W 4502  29.567  12.293  13.880
45209W        W 4503  27.006  11.797   1.810
45210W        W 4504  21.583  14.121   1.773
45211W        W 4505  10.760  22.647  13.929
45212W        W 4506   1.972  16.124   2.700
45213W        W 4507  14.163   0.747   5.197
45214W        W 4508  15.631   2.470   5.260
45215W        W 4509  27.056  33.077   2.875
45216W        W 4510  38.348  41.338   2.248
45217W        W 4511   4.724  42.001  11.004
45218W        W 4512  18.616   0.835   3.300
45219W        W 4513  16.668  38.482  13.850
45220W        W 4514  20.667  27.955   0.893
45221W        W 4515  23.714   0.978  12.994
45222W        W 4516  41.532  12.199  13.311
45223W        W 4517  37.931  37.488   0.853
45224W        W 4518  10.654  14.670   4.316
45225W        W 4519  26.066  41.947  12.559
45226W        W 4520  19.537  33.950   2.211
45227W        W 4521  25.691  38.069   3.265
45228W        W 4522  15.656  28.665   2.403
45229W        W 4523  27.046  32.946  14.889
45230W        W 4524  44.759  36.073  13.030
45231W        W 4525  24.091  16.588  12.944
45232W        W 4526   9.239   9.688   1.433
45233W        W 4527  12.707  34.881   2.370
45234W        W 4528  13.696  35.995  13.833
45235W        W 4529  43.323  35.869  11.450
45236W        W 4530  28.676  12.264   0.847
45237W        W 4531  33.909  36.406   2.894
45238W        W 4532  22.151  25.069   0.873
45239W        W 4533  36.431  19.745  10.897
45240W        W 4534  25.646   8.743   2.194
45241W        W 4535  18.117  10.364   3.243
45242W        W 4536  32.006   6.834  13.424
45243W        W 4537  12.355   3.243   0.945
45244W        W 4538   1.335   1.457   3.730
45245W        W 4539  28.521   9.320  10.571
45246W        W 4540  44.323  26.641  12.888
45247W        W 4541  30.907  26.126   2.261
45248W        W 4542  34.453  29.552  10.891
45249W        W 4543  32.448  39.933   4.158
45250W        W 4544   2.281  11.831  10.561
45251W        W 4545   8.664   3.925  13.015
45252W        W 4546   4.366   8.334   4.351
45253W        W 4547  40.387  23.017  10.928
45254W        W 4548  32.612   1.950   0.812
45255W        W 4549   3.256   6.232   0.742
45256W        W 4550  10.307  20.661  10.641
45257W        W 4551   6.327  15.092   3.677
45258W        W 4552   3.342  33.975   2.889
45259W        W 4553   4.713   5.334   1.285
45260W        W 4554  27.951  10.302   4.242
45261W        W 4555  18.686  25.167  14.859
45262W        W 4556   1.893  33.072  11.438
45263W        W 4557  24.713  41.360   2.862
45264W        W 4558  21.175  32.886   9.923
45265W        W 4559  40.980  13.241   3.264
45266W        W 4560  23.068   5.881   0.419
45267W        W 4561  34.541  37.367  14.281
45268W        W 4562  23.094  34.018   2.837
45269W        W 4563  15.126   9.762  11.587
45270W        W 4564  34.959   9.727  14.452
45271W        W 4565  10.243  32.391  13.533
45272W        W 4566  12.265  26.974  12.461
45273W        W 4567  10.161  38.883   0.835
45274W        W 4568  32.888  14.808   4.781
45275W        W 4569  26.075  31.582   3.821
45276W        W 4570  34.916  19.064  14.824
45277W        W 4571  11.720  26.996  14.446
45278W        W 4572   9.748  17.733   0.940
45279W        W 4573   3.272  13.227   1.860
45280W        W 4574   3.820   1.260  14.815
45281W        W 4575  43.358  44.419   2.843
45282W        W 4576  35.589  17.209   0.346
45283W        W 4577   7.716  15.227   4.337
45284W        W 4578  41.354  40.807  13.932
45285W        W 4579  35.937  16.570   3.313
45286W        W 4580  16.192  42.988  11.050
45287W        W 4581  20.253   9.198  10.619
45288W        W 4582  23.158  33.016   1.408
45289W        W 4583  13.331  12.161   0.276
45290W        W 4584  18.259  43.934   2.417
45291W        W 4585  20.690  32.451  14.379
45292W        W 4586  33.113  37.439  11.569
45293W        W 4587   4.432  42.029   2.715
45294W        W 4588   6.888  10.752   3.325
45295W        W 4589  43.881  39.891  13.870
45296W        W 4590  37.558  29.129   4.782
45297W        W 4591  30.527   9.150  10.528
45298W        W 4592   0.825   6.858  12.922
45299W        W 4593  23.543   3.757  13.950
45300W        W 4594  22.163   1.273  13.022
45301W        W 4595  15.675  43.292   0.394
45302W        W 4596  35.880   7.396   3.670
45303W        W 4597  17.608  26.605  14.952
45304W        W 4598  27.535  37.055  10.077
45305W        W 4599  39.867   4.385   2.406
45306W        W 4600  12.205  36.384   3.206
45307W        W 4601  24.205   7.227   5.276
45308W        W 4602   0.472   8.658  11.517
45309W        W 4603  44.804  43.799  14.407
45310W        W 4604  44.841  37.451   1.306
45311W        W 4605  40.423  25.635   2.311
45312W        W 4606  24.000  17.641  14.952
45313W        W 4607  20.714  38.991  10.627
45314W        W 4608   0.358   2.737  11.526
45315W        W 4609  28.958  28.142  10.514
45316W        W 4610  31.944   8.742  13.397
45317W        W 4611  20.576  24.542   3.744
45318W        W 4612  12.128  39.507   0.279
45319W        W 4613  30.499  10.759  11.514
45320W        W 4614  28.495  43.773  12.893
45321W        W 4615   0.396  26.007  11.501
45322W        W 4616  25.055  36.998   1.732
45323W        W 4617  44.983   8.284   1.380
45324W        W 4618   6.338  36.007  12.405
45325W        W 4619  35.490  37.037  14.934
45326W        W 4620  42.321  15.260  14.796
45327W        W 4621   9.802  13.111  12.377
45328W        W 4622  18.268  42.505  10.483
45329W        W 4623   8.835  23.991  10.019
45330W        W 4624  23.038  25.552  14.304
45331W        W 4625   8.778  17.563   4.168
45332W        W 4626   7.710  15.657  14.363
45333W        W 4627  28.098  19.184   4.819
45334W        W 4628  16.606   1.312   4.755
45335W        W 4629  14.218  16.260   2.342
45336W        W 4630  33.966  38.002   4.198
45337W        W 4631  32.136   4.230  11.391
45338W        W 4632  30.118  13.181   2.685
45339W        W 4633  37.363  38.356  11.947
45340W        W 4634   6.273  33.017  10.446
45341W        W 4635  28.498  42.948   3.192
45342W        W 4636  19.730   8.197   0.963
45343W        W 4637  31.097  30.599  10.411
45344W        W 4638  41.865   0.816  12.014
45345W        W 4639  26.466  19.567  14.770
45346W        W 4640  26.151  37.951  14.030
45347W        W 4641  36.843  44.454  10.515
45348W        W 4642  30.614  18.647   4.175
45349W        W 4643  31.459  17.557  10.416
45350W        W 4644  39.413  33.090  13.000
45351W        W 4645  25.659  26.092   0.300
45352W        W 4646  26.075  33.588   2.227
45353W        W 4647  37.510  12.123   2.396
45354W        W 4648  23.521   9.330   2.266
45355W        W 4649  41.424  37.340   4.667
45356W        W 4650  37.525  10.317   1.814
45357W        W 4651   8.882  12.804   3.262
45358W        W 4652  39.911  12.672   2.896
45359W        W 4653  10.699   9.256   1.801
45360W        W 4654   6.400  14.321  14.809
45361W        W 4655   5.815  32.979   4.221
45362W        W 4656  20.529  40.539   3.198
45363W        W 4657  27.028  36.841  13.309
45364W        W 4658  27.467  30.153  13.832
45365W        W 4659  22.057  20.696  14.768
45366W        W 4660   4.842  15.659   0.249
45367W        W 4661  21.721  40.350   0.419
45368W        W 4662   1.312   8.689  10.632
45369W        W 4663   2.906  18.126  14.813
45370W        W 4664  12.157   1.927   0.416
45371W        W 4665  32.956  31.127  12.078
45372W        W 4666   0.341  44.499  14.763
45373W        W 4667  22.020  13.798   1.863
45374W        W 4668  12.288   2.285  11.518
45375W        W 4669   0.825  24.516   0.931
45376W        W 4670  24.639  12.772   1.721
45377W        W 4671  34.516  36.918  14.373
45378W        W 4672  35.874  13.605   1.841
45379W        W 4673  29.610  18.662   1.232
45380W        W 4674   3.347  10.668   4.699
45381W        W 4675  37.051   3.229  11.863
45382W        W 4676   6.254  32.124  10.454
45383W        W 4677  35.011  28.673   4.702
45384W        W 4678  15.314  37.856  12.985
45385W        W 4679  38.491  22.531   4.763
45386W        W 4680  28.651   2.921   1.438
45387W        W 4681  36.416  38.551   1.747
45388W        W 4682  37.901  39.060   3.695
45389W        W 4683  22.672  44.753  11.957
45390W        W 4684  42.872   7.402  13.927
45391W        W 4685  39.407  32.022   0.861
45392W        W 4686   4.759  18.662   0.351
45393W        W 4687  20.039   8.309   5.606
45394W        W 4688  13.790  36.565   4.167
45395W        W 4689  20.125  28.472   4.708
45396W        W 4690  41.317  37.580  13.801
45397W        W 4691  10.699  25.140  14.336
45398W        W 4692  35.867  26.674  13.416
45399W        W 4693  42.326  44.466   3.326
45400W        W 4694  42.374   1.408  11.524
45401W        W 4695  34.055  33.617   3.677
45402W        W 4696  40.408  10.324   0.912
45403W        W 4697  29.111  32.978  13.449
45404W        W 4698  20.650  42.293  14.369
45405W        W 4699   5.792  25.128   4.179
45406W        W 4700  23.037  41.510   1.807
45407W        W 4701  44.385   9.231   3.364
45408W        W 4702  11.202  38.396  12.562
45409W        W 4703  21.604  35.563   0.348
45410W        W 4704  23.229   8.748  13.482
45411W        W 4705  23.029   5.349   0.308
45412W        W 4706  29.666   4.287  12.942
45413W        W 4707  39.410  20.608   4.121
45414W        W 4708  33.395  11.725   0.447
45415W        W 4709  20.222   3.728   0.880
45416W        W 4710  41.923  44.995  14.405
45417W        W 4711  43.362  38.893   4.324
45418W        W 4712   1.252  34.116  10.461
45419W        W 4713  33.995   7.901  12.980
45420W        W 4714   3.836  40.387   3.818
45421W        W 4715  32.392  30.079   4.219
45422W        W 4716  42.359  17.639   1.817
45423W        W 4717  44.437  29.136  10.563
45424W        W 4718  44.352   0.798   0.259
45425W        W 4719  42.434   3.313   2.868
45426W        W 4720   0.331  27.517  13.062
45427W        W 4721  42.495   9.356  14.292
45428W        W 4722  38.502  30.108  12.941
45429W        W 4723  44.924   1.408  13.848
45430W        W 4724  34.966  30.004   0.740
45431W        W 4725  15.208  14.202   3.270
45432W        W 4726   2.272   9.163   3.379
45433W        W 4727  11.358  27.497  14.794
45434W        W 4728  35.045  35.002   4.799
45435W        W 4729  40.510  21.607  10.412
45436W        W 4730  44.482   9.814  12.932
45437W        W 4731  32.415   9.195   4.764
45438W        W 4732  40.335  40.971  14.424
45439W        W 4733  12.670   7.380   2.235
45440W        W 4734   0.318  27.955  11.095
45441W        W 4735  11.757  38.526   1.851
45442W        W 4736  38.396   1.257  14.948
45443W        W 4737  38.011  19.279   0.299
45444W        W 4738  40.409  22.702   4.825
45445W        W 4739  39.394  15.143   4.271
45446W        W 4740  11.777  19.575  12.369
45447W        W 4741  12.778  18.178  13.523
45448W        W 4742  18.552  13.331   0.295
45449W        W 4743   5.891  13.333  11.122
45450W        W 4744  26.557  21.189   2.327
45451W        W 4745  22.548  21.710  12.890
45452W        W 4746  25.696  15.237   1.444
45453W        W 4747  11.671  29.020   2.388
45454W        W 4748  35.597  22.225  11.067
45455W        W 4749   6.698  15.768   0.474
45456W        W 4750  11.373  25.205  14.329
45457W        W 4751  12.750  25.505   2.828
45458W        W 4752  22.247   9.342   0.370
45459W        W 4753   5.269  32.500   1.380
45460W        W 4754  22.585   9.775   4.146
45461W        W 4755  16.242  40.365   1.751
45462W        W 4756  42.463  23.674   3.362
45463W        W 4757  15.319  42.793  10.442
45464W        W 4758  43.302   5.753  11.588
45465W        W 4759   1.385  42.975   0.447
45466W        W 4760  16.758  23.559   1.233
45467W        W 4761  24.211  38.488  10.981
45468W        W 4762   2.844  23.092  13.057
45469W        W 4763  19.542  15.250  11.930
45470W        W 4764   1.260  33.003   2.786
45471W        W 4765  28.158  26.988  14.494
45472W        W 4766   0.854  32.488  13.934
45473W        W 4767  15.604  26.189   2.269
45474W        W 4768  44.794  44.790   5.286
45475W        W 4769  28.169  17.061  11.884
45476W        W 4770  30.632  21.075  12.403
45477W        W 4771  35.000  16.672  12.354
45478W        W 4772  13.820  25.160  12.425
45479W        W 4773   8.260  38.967  11.026
45480W        W 4774  13.756  22.504   3.252
45481W        W 4775  44.764  13.658   1.282
45482W        W 4776  15.603  43.392   0.842
45483W        W 4777  13.696  18.640   0.266
45484W        W 4778  19.143  27.024  14.508
45485W        W 4779  31.103   4.304  14.022
45486W        W 4780  37.835  32.438   5.250
45487W        W 4781   4.387  24.172   2.322
45488W        W 4782  23.159  13.744  13.836
45489W        W 4783  31.462  38.350  10.606
45490W        W 4784   8.710  17.236  11.112
45491W        W 4785  24.026   8.802   9.955
45492W        W 4786   9.847   7.791   3.792
45493W        W 4787  32.955  30.508   4.343
45494W        W 4788  33.475  40.047  13.878
45495W        W 4789  29.936  36.591   4.800
45496W        W 4790  25.194  29.491   0.888
45497W        W 4791  43.285  35.928  14.808
45498W        W 4792  10.771  37.970  12.997
45499W        W 4793   0.889  15.733   0.454
45500W        W 4794  43.768  30.035  11.011
45501W        W 4795  32.004  16.229  10.513
45502W        W 4796  35.915  38.003  14.025
45503W        W 4797  35.002   5.375  13.346
45504W        W 4798  41.314  43.815   1.881
45505W        W 4799  24.074  11.213   0.425
45506W        W 4800  16.577  21.678   4.800
45507W        W 4801   4.410   6.700   1.808
45508W        W 4802  36.029   7.283   0.755
45509W        W 4803  41.468   4.944   5.084
45510W        W 4804  37.573   7.881  13.011
45511W        W 4805   4.866  17.758   2.393
45512W        W 4806  14.658  36.428   4.263
45513W        W 4807  23.694  38.971   4.750
45514W        W 4808   2.352  11.781  12.439
45515W        W 4809  34.594  15.806  14.294
45516W        W 4810  11.284  38.857  13.360
45517W        W 4811  11.694  28.606   0.478
45518W        W 4812  31.536  27.603   0.738
45519W        W 4813  15.294  11.255  13.954
45520W        W 4814   7.391  15.119   0.816
45521W        W 4815  22.539  43.482  11.612
45522W        W 4816  35.042  30.615  11.582
45523W        W 4817   3.788  38.059   0.797
45524W        W 4818  24.639  21.742   2.374
45525W        W 4819  17.766   2.308  13.946
45526W        W 4820  13.684  12.313  12.374
45527W        W 4821   9.340  30.941  10.915
45528W        W 4822   1.305  41.508  11.373
45529W        W 4823   3.767  27.010  12.095
45530W        W 4824  44.387  29.428  14.916
45531W        W 4825  44.407  43.416  11.989
45532W        W 4826  15.769  33.440   1.711
45533W        W 4827  38.899  38.037   2.667
45534W        W 4828  41.008  19.742   0.777
45535W        W 4829   3.928  43.918   2.230
45536W        W 4830  22.626   2.266  12.075
45537W        W 4831  31.468  28.028   0.916
45538W        W 4832  14.167  12.308   0.880
45539W        W 4833  26.667   2.833   3.780
45540W        W 4834  11.249  39.399   2.800
45541W        W 4835  39.444   2.393   1.919
45542W        W 4836  25.065  40.966  13.988
45543W        W 4837  19.649  19.679   2.823
45544W        W 4838   1.779  29.062   4.262
45545W        W 4839  30.930  29.977   1.254
45546W        W 4840  21.131  41.854   5.196
45547W        W 4841  16.178  27.659   3.260
45548W        W 4842  28.945  19.098  13.900
45549W        W 4843  17.618  22.738  14.385
45550W        W 4844  15.631  27.503  10.913
45551W        W 4845  20.672  21.167  11.991
45552W        W 4846   8.161  18.196  10.515
45553W        W 4847   4.220  19.584  12.968
45554W        W 4848  17.179  39.907   3.347
45555W        W 4849   0.420  40.342   3.228
45556W        W 4850  28.123  25.057  10.607
45557W        W 4851  11.254  31.449   0.866
45558W        W 4852  21.536  16.760   2.672
45559W        W 4853  30.099  32.629  10.629
45560W        W 4854  17.079  26.618  12.346
45561W        W 4855   6.836  11.356   3.848
45562W        W 4856  33.575  16.605  11.090
45563W        W 4857   7.275  35.091  12.557
45564W        W 4858   5.362  19.049  10.638
45565W        W 4859  17.066  35.476  13.994
45566W        W 4860  38.917   1.865  13.382
45567W        W 4861   5.436  33.508   3.223
45568W        W 4862  20.717  32.932  11.123
45569W        W 4863  30.045  34.445  12.001
45570W        W 4864  10.669  25.033   2.805
45571W        W 4865  23.166  25.215  13.444
45572W        W 4866  42.939  21.671   2.662
45573W        W 4867  43.880  20.608   4.207
45574W        W 4868  33.884  16.647  13.847
45575W        W 4869  28.545  33.405   1.439
45576W        W 4870  21.615  27.943  11.911
45577W        W 4871  18.148  29.045   0.263
45578W        W 4872  29.598   7.908   2.229
45579W        W 4873  43.878  38.552  11.039
45580W        W 4874  25.607   0.823  14.972
45581W        W 4875  38.327  36.501  11.399
45582W        W 4876   1.242  25.120   1.911
45583W        W 4877  24.039  29.939  10.888
45584W        W 4878  42.812  20.130  12.580
45585W        W 4879  30.417  40.398  10.488
45586W        W 4880   3.380  34.374   1.410
45587W        W 4881  42.853  27.538   2.288
45588W        W 4882   0.376  30.575   2.723
45589W        W 4883  16.272  10.268   1.873
45590W        W 4884  34.566  26.004  13.864
45591W        W 4885  35.412  22.163  11.389
45592W        W 4886  16.576  34.030  12.579
45593W        W 4887  17.762   4.716  10.986
45594W        W 4888  10.360  16.121   0.925
45595W        W 4889  36.888  43.503  11.950
45596W        W 4890  39.541  32.072   1.839
45597W        W 4891   4.808  40.531   3.648
45598W        W 4892  43.452  19.277  13.528
45599W        W 4893  12.245  24.052   1.797
45600W        W 4894  43.437  40.884   0.726
45601W        W 4895  35.543  35.483   2.682
45602W        W 4896  14.662   9.381   4.124
45603W        W 4897   7.795  23.701   2.315
45604W        W 4898  15.272   8.705   1.886
45605W        W 4899   0.837  22.689   2.206
45606W        W 4900  12.278  38.826   0.312
45607W        W 4901  38.059  11.357   0.817
45608W        W 4902  27.038  32.071  10.928
45609W        W 4903  26.571  33.101  10.077
45610W        W 4904  20.124   8.763   4.795
45611W        W 4905   6.852  38.472   1.363
45612W        W 4906  43.855  15.714   5.182
45613W        W 4907  21.525  21.184   4.785
45614W        W 4908  43.351  30.643   3.725
45615W        W 4909  40.475  26.164   0.855
45616W        W 4910  24.674   6.236  14.348
45617W        W 4911  37.000  25.085  14.288
45618W        W 4912   1.482  19.275  14.448
45619W        W 4913  22.008  27.502   4.646
45620W        W 4914  14.286   6.336   1.751
45621W        W 4915  36.059  31.561  10.966
45622W        W 4916  33.588  22.575  13.537
45623W        W 4917   6.301  18.628  14.498
45624W        W 4918   7.290   9.705  14.029
45625W        W 4919  20.220  37.394  13.897
45626W        W 4920  27.103   5.227   1.336
45627W        W 4921  43.455  43.417  11.054
45628W        W 4922  35.524  16.187  12.944
45629W        W 4923  35.008   9.824  10.914
45630W        W 4924  41.911   9.333  14.954
45631W        W 4925  23.044  22.076   1.728
45632W        W 4926  20.205  21.031   4.730
45633W        W 4927   3.342  41.828  14.357
45634W        W 4928  30.980  40.975   3.798
45635W        W 4929  23.100  44.390   4.327
45636W        W 4930  15.164  38.057   1.901
45637W        W 4931   5.745  23.040   5.583
45638W        W 4932  25.039  18.774  12.445
45639W        W 4933   5.291  25.589  13.308
45640W        W 4934  19.769  20.108  10.565
45641W        W 4935   0.365  28.026   2.729
45642W        W 4936  25.065  41.920  12.047
45643W        W 4937  24.135  38.342  13.863
45644W        W 4938  11.269  11.788   0.820
45645W        W 4939  16.802  20.718   4.300
45646W        W 4940  44.334  42.878  12.412
45647W        W 4941   3.384   5.734   3.271
45648W        W 4942  10.233  25.114  10.099
45649W        W 4943  19.710  13.617   5.257
45650W        W 4944  16.693   8.192   4.804
45651W        W 4945   0.340  16.616   2.319
45652W        W 4946   6.800   9.861  10.473
45653W        W 4947   3.772  44.990   4.652
45654W        W 4948   8.697   7.846   1.879
45655W        W 4949  22.029  34.898  11.525
45656W        W 4950  22.630  20.747   4.684
45657W        W 4951  40.902  36.923   2.792
45658W        W 4952  28.575  18.691   4.601
45659W        W 4953  37.562   1.775  13.799
45660W        W 4954  30.454  31.902   1.311
45661W        W 4955  36.419  25.003   4.209
45662W        W 4956  40.372  35.380   1.280
45663W        W 4957   5.278  12.802   0.782
45664W        W 4958  23.145   5.779  13.390
45665W        W 4959   8.829  44.969  14.912
45666W        W 4960  42.968   3.439  12.427
45667W        W 4961   9.345  28.436   4.281
45668W        W 4962  19.261  26.599   0.847
45669W        W 4963  26.478  28.941   2.796
45670W        W 4964  23.731  16.136   1.867
45671W        W 4965  10.775  31.148   0.303
45672W        W 4966   8.383  31.015   3.379
45673W        W 4967  28.169  10.675  13.494
45674W        W 4968  30.637   2.750   2.211
45675W        W 4969   0.296   7.351   0.757
45676W        W 4970  34.575  31.438   3.149
45677W        W 4971  21.716  40.962  11.377
45678W        W 4972  27.092   5.933   2.411
45679W        W 4973  40.472   9.263   0.454
45680W        W 4974  24.115  11.711   0.374
45681W        W 4975  24.604  30.934  11.858
45682W        W 4976   0.352   5.425   2.758
45683W        W 4977  23.162  10.372  13.350
45684W        W 4978   6.899   3.800  13.308
45685W        W 4979   7.851  11.805  10.405
45686W        W 4980  37.940   9.312  12.465
45687W        W 4981  17.689  27.191  12.870
45688W        W 4982  18.689  19.216  11.986
45689W        W 4983  38.492   5.324   4.290
45690W        W 4984  16.139  16.679   3.200
45691W        W 4985  42.807  12.342   1.376
45692W        W 4986  17.122   2.471  14.510
45693W        W 4987  30.642  34.598   1.440
45694W        W 4988  30.055  43.483   0.951
45695W        W 4989  43.358  19.622   5.290
45696W        W 4990  34.952  38.385  13.853
45697W        W 4991  43.396  37.576   4.762
45698W        W 4992  33.620  32.002   4.188
45699W        W 4993  19.264  23.728   2.285
45700W        W 4994  42.338  34.580  13.960
45701W        W 4995  43.790  30.152  12.843
45702W        W 4996  44.404  34.950  10.632
45703W        W 4997   6.243  19.233   2.279
45704W        W 4998  15.090   4.794  12.402
45705W        W 4999  15.278  11.360  13.500
45706W        W 5000   9.292  17.603   1.793
45707W        W 5001  24.061  32.009  14.924
45708W        W 5002  13.605  35.098  11.014
45709W        W 5003  20.201  21.108  10.066
45710W        W 5004  42.914  26.188   2.820
45711W        W 5005  39.898  13.736  14.764
45712W        W 5006  17.247   1.739  13.314
45713W        W 5007  33.492  42.862  12.518
45714W        W 5008   5.736   9.228  14.355
45715W        W 5009  12.268   9.216   0.303
45716W        W 5010  37.043  15.727   2.337
45717W        W 5011  23.075  33.388  11.049
45718W        W 5012   4.336  35.048   2.775
45719W        W 5013  41.373   7.300   0.279
45720W        W 5014  19.062   6.775   3.819
45721W        W 5015  25.497   4.205   1.383
45722W        W 5016  41.977  10.825   4.826
45723W        W 5017  17.093   2.882   2.883
45724W        W 5018  39.315  24.980   3.770
45725W        W 5019  19.075  39.460   4.718
45726W        W 5020  35.463  17.299   0.924
45727W        W 5021  35.500  38.072  12.577
45728W        W 5022  38.913  32.571  12.033
45729W        W 5023   9.771   4.312  10.434
45730W        W 5024  13.789  42.861  13.026
45731W        W 5025   0.885  22.011   0.950
45732W        W 5026  14.798  15.201  13.840
45733W        W 5027  15.768  30.499   4.192
45734W        W 5028  41.902  29.069  11.046
45735W        W 5029  10.384  39.421  13.944
45736W        W 5030  27.059   6.255   3.166
45737W        W 5031  30.147  31.899   3.742
45738W        W 5032  43.957  16.664   0.350
45739W        W 5033  10.276  39.370  12.371
45740W        W 5034   2.772  29.132   4.226
45741W        W 5035  29.160  42.011  10.075
45742W        W 5036  28.032  39.877  12.504
45743W        W 5037  30.942   2.344  13.309
45744W        W 5038  14.704  17.648   4.764
45745W        W 5039  35.585  27.111  12.874
45746W        W 5040  24.044  17.588   0.352
45747W        W 5041  26.629  42.810  12.497
45748W        W 5042  22.218  20.575  11.412
45749W        W 5043  12.676  20.673   2.787
45750W        W 5044  43.769   8.778  13.945
45751W        W 5045  25.083  19.201  11.054
45752W        W 5046  11.738  39.912  10.150
45753W        W 5047  29.165  28.169   0.364
45754W        W 5048   3.265   0.287  14.508
45755W        W 5049   9.287  10.223   9.981
45756W        W 5050  22.678   7.379  12.541
45757W        W 5051  44.793   0.960  13.949
45758W        W 5052  27.119  43.440  11.904
45759W        W 5053  24.640  33.892  14.429
45760W        W 5054   5.761  24.532  14.287
45761W        W 5055  24.694   0.357  14.856
45762W        W 5056   4.415   3.377  11.956
45763W        W 5057  19.093  31.896   1.274
45764W        W 5058  19.127  12.804   3.352
45765W        W 5059  30.473  16.313  12.405
45766W        W 5060  37.551  13.145  14.921
45767W        W 5061  18.769  11.292  12.443
45768W        W 5062  14.156  16.648  14.400
45769W        W 5063   3.787   1.298  12.943
45770W        W 5064  41.855  26.639   0.259
45771W        W 5065   4.387   0.900  11.500
45772W        W 5066  19.632  14.779   2.244
45773W        W 5067  26.006  33.543  13.006
45774W        W 5068  34.428   6.808   0.935
45775W        W 5069   2.274  21.128  12.469
45776W        W 5070  34.490  24.985  13.503
45777W        W 5071  20.643  41.004   3.157
45778W        W 5072   6.735   7.390  10.576
45779W        W 5073  22.592  37.970  14.765
45780W        W 5074  16.729  37.420   3.845
45781W        W 5075  29.613  43.352   4.710
45782W        W 5076  33.097   9.312   1.419
45783W        W 5077  13.757  30.914  14.396
45784W        W 5078  37.373  21.677  13.932
45785W        W 5079  43.953   1.852  13.943
45786W        W 5080   6.212  17.215  11.915
45787W        W 5081  38.504  36.902  12.406
45788W        W 5082  33.616  35.511   3.154
45789W        W 5083  38.912  36.580   1.373
45790W        W 5084  10.278  20.562  12.862
45791W        W 5085   3.341  44.754   1.402
45792W        W 5086  37.373  28.534  12.090
45793W        W 5087  37.965  40.014   1.299
45794W        W 5088   0.474   3.453   0.882
45795W        W 5089  38.957  16.714   0.463
45796W        W 5090  12.754  29.063   0.924
45797W        W 5091   2.362   5.718  12.553
45798W        W 5092   9.293  34.914   4.834
45799W        W 5093  38.822   9.379  10.442
45800W        W 5094  12.685  19.687   1.701
45801W        W 5095  24.717  35.080   1.315
45802W        W 5096  43.497  28.612  12.071
45803W        W 5097  37.930  16.091  13.985
45804W        W 5098   3.228   4.446  12.412
45805W        W 5099  38.832  15.653   0.277
45806W        W 5100  33.574  44.946  11.399
45807W        W 5101   4.877  40.524  10.423
45808W        W 5102  32.074  44.864  12.013
45809W        W 5103  22.724  14.619  14.445
45810W        W 5104  25.048  17.559   1.444
45811W        W 5105  37.568  35.421   0.785
45812W        W 5106  23.084  23.733  12.084
45813W        W 5107  39.501   8.825  11.979
45814W        W 5108  20.701  43.403  11.447
45815W        W 5109  13.616  40.845  11.439
45816W        W 5110  31.096  42.019   2.821
45817W        W 5111   8.223  12.226  10.634
45818W        W 5112   6.396  28.517  12.077
45819W        W 5113   4.818  15.763  10.438
45820W        W 5114  25.488  30.952   3.294
45821W        W 5115  19.775  28.030  12.949
45822W        W 5116   0.936   1.822   0.922
45823W        W 5117  22.633  22.228  13.491
45824W        W 5118  44.316   6.420  11.431
45825W        W 5119  36.468  27.581   1.814
45826W        W 5120  43.514  14.173   0.920
45827W        W 5121  37.932  36.018   1.908
45828W        W 5122  28.173  30.049   1.839
45829W        W 5123  14.301  22.528   3.330
45830W        W 5124  25.212  33.577  13.057
45831W        W 5125  38.979   7.786  11.862
45832W        W 5126  35.571   6.275  13.437
45833W        W 5127  31.107  32.110  11.008
45834W        W 5128  12.723  18.578   3.297
45835W        W 5129  32.074  20.686  12.033
45836W        W 5130   8.357  35.948  14.792
45837W        W 5131   2.377  39.870   1.841
45838W        W 5132  24.581  28.963   4.241
45839W        W 5133  16.296  21.530   1.720
45840W        W 5134   1.290  21.205   5.098
45841W        W 5135  38.065  25.217   5.212
45842W        W 5136  15.252  31.028   4.340
45843W        W 5137  40.415  12.665  11.434
45844W        W 5138  30.987  25.043   2.690
45845W        W 5139   0.264  15.142   1.418
45846W        W 5140  33.021  25.528   0.389
45847W        W 5141  44.275  12.210   0.747
45848W        W 5142  30.036  37.396   1.372
45849W        W 5143  38.005  27.607   2.308
45850W        W 5144   7.244  34.885  10.117
45851W        W 5145   9.826  20.273   2.286
45852W        W 5146  41.455  37.959  11.498
45853W        W 5147  18.645   9.701  11.038
45854W        W 5148  36.044  25.620   4.741
45855W        W 5149  33.875  44.848  13.845
45856W        W 5150  17.627  10.863   1.340
45857W        W 5151  18.161  26.956  14.407
45858W        W 5152  16.204  40.333   4.198
45859W        W 5153  27.482  33.595   3.635
45860W        W 5154   8.238  16.164  12.914
45861W        W 5155   3.222  21.733  11.598
45862W        W 5156  38.401  34.065   1.395
45863W        W 5157   3.307  19.091   1.807
45864W        W 5158  28.113  34.982   3.292
45865W        W 5159  28.031   4.753   0.793
45866W        W 5160  20.632   4.853  11.503
45867W        W 5161   8.405  41.406  12.490
45868W        W 5162  33.539  31.916  12.960
45869W        W 5163  41.934  42.027  12.071
45870W        W 5164  38.943  20.071  14.936
45871W        W 5165   1.785   9.888  12.023
45872W        W 5166   5.913   1.312  12.977
45873W        W 5167  44.291  14.310   2.819
45874W        W 5168  21.077  37.484   3.763
45875W        W 5169  17.230  39.854  10.615
45876W        W 5170  44.383  39.338  12.975
45877W        W 5171  43.987  44.427  12.065
45878W        W 5172  10.729  18.234   1.313
45879W        W 5173  37.984  33.999   5.172
45880W        W 5174  34.381   4.233  12.876
45881W        W 5175  25.181  33.048   0.246
45882W        W 5176  39.954  18.733   3.743
45883W        W 5177  22.621  40.847   2.302
45884W        W 5178  37.017   6.797   0.453
45885W        W 5179  13.686  36.017  13.510
45886W        W 5180  43.953  29.080   0.865
45887W        W 5181  39.954  18.151   4.825
45888W        W 5182  32.420  21.206   1.816
45889W        W 5183  23.226  36.549   0.428
45890W        W 5184  37.925  10.865   3.686
45891W        W 5185  33.118   6.880  14.831
45892W        W 5186  33.468  35.960   3.353
45893W        W 5187  36.503  10.270  13.519
45894W        W 5188  10.216   0.330   1.737
45895W        W 5189  29.472   4.775  10.065
45896W        W 5190  15.321  25.072   4.808
45897W        W 5191   4.824  10.685   2.212
45898W        W 5192  26.200  12.163   5.762
45899W        W 5193   2.399  44.261  12.088
45900W        W 5194  31.990   6.735   4.685
45901W        W 5195   0.830  41.418   0.822
45902W        W 5196  30.914  37.025  11.890
45903W        W 5197  27.067   8.161  11.375
45904W        W 5198  44.957   5.828   0.436
45905W        W 5199  11.792   5.781   0.833
45906W        W 5200  27.556  30.626   1.290
45907W        W 5201  13.185   6.910  14.405
45908W        W 5202  22.651   5.401   3.782
45909W        W 5203   9.369  40.392   2.355
45910W        W 5204  18.613  32.930   4.775
45911W        W 5205  32.618  21.710  14.787
45912W        W 5206  16.200  37.530   2.396
45913W        W 5207  22.026  23.576  11.980
45914W        W 5208  18.546  42.024   4.170
45915W        W 5209  35.950  23.508   3.788
45916W        W 5210  23.546  35.859  12.050
45917W        W 5211   5.336  14.830   1.775
45918W        W 5212  38.979  14.181   4.838
45919W        W 5213   0.318  32.058   0.442
45920W        W 5214  21.715  40.990  12.474
45921W        W 5215  35.874  30.568  11.490
45922W        W 5216  19.146   1.452  12.858
45923W        W 5217   2.805   7.838  10.457
45924W        W 5218  38.038   8.792   3.702
45925W        W 5219   7.898  37.441  10.938
45926W        W 5220  24.657  19.267   4.189
45927W        W 5221   8.876  10.815   0.731
45928W        W 5222  27.449  12.174  13.454
45929W        W 5223  18.622  38.916  12.489
45930W        W 5224  41.343  36.028   3.219
45931W        W 5225  20.112  23.535   4.827
45932W        W 5226  34.960  30.462   1.900
45933W        W 5227  29.470  24.063   3.364
45934W        W 5228  18.723  30.051  12.883
45935W        W 5229   4.720   6.823   3.321
45936W        W 5230  13.748   9.212  12.417
45937W        W 5231   2.457  38.915   2.730
45938W        W 5232  36.033  24.501  11.501
45939W        W 5233  32.136  29.459  13.481
45940W        W 5234  38.554  44.445  13.816
45941W        W 5235  33.421   9.159  11.957
45942W        W 5236  37.539  44.813  14.918
45943W        W 5237  19.190  20.745   2.738
45944W        W 5238  12.800  22.599   1.811
45945W        W 5239  34.374  33.406  10.925
45946W        W 5240  27.562  25.474   3.771
45947W        W 5241  10.310   2.778   3.834
45948W        W 5242  15.140  23.678  11.506
45949W        W 5243  29.947   9.827  13.548
45950W        W 5244   6.293  31.004  14.408
45951W        W 5245  31.046  16.090   1.218
45952W        W 5246  41.422  38.013   1.694
45953W        W 5247  40.469  13.715  10.629
45954W        W 5248  36.589  38.004  13.404
45955W        W 5249  29.499  23.503   0.809
45956W        W 5250  21.165   0.462   2.211
45957W        W 5251  44.503  21.562   1.234
45958W        W 5252  23.030  32.414   2.187
45959W        W 5253   8.824  40.860   4.813
45960W        W 5254  19.188  32.425  13.827
45961W        W 5255  12.314   6.422  13.034
45962W        W 5256   5.858  37.059  11.872
45963W        W 5257  16.707  38.052  11.473
45964W        W 5258  39.462   4.380  11.901
45965W        W 5259  44.280  43.794   5.287
45966W        W 5260  20.109   9.690   3.181
45967W        W 5261  10.321   9.679   4.749
45968W        W 5262  27.165  22.659  11.484
45969W        W 5263   0.278  36.489  12.028
45970W        W 5264  15.123   1.848   0.260
45971W        W 5265  33.002  26.502   0.964
45972W        W 5266  42.944  27.570  11.461
45973W        W 5267  20.219  33.565   4.231
45974W        W 5268  14.250   2.799   0.305
45975W        W 5269  10.289  15.105   1.450
45976W        W 5270  22.213   2.955  11.109
45977W        W 5271  19.081   0.867   1.432
45978W        W 5272  28.463  26.188  11.448
45979W        W 5273  11.862   1.419  10.462
45980W        W 5274   1.879  13.185  13.973
45981W        W 5275  17.263  44.843  13.426
45982W        W 5276  17.199  23.125  13.964
45983W        W 5277  35.103  31.599   3.820
45984W        W 5278  44.420  34.988  13.448
45985W        W 5279  10.771  29.520   2.382
45986W        W 5280  17.656  37.387  12.906
45987W        W 5281   9.644  38.903  10.512
45988W        W 5282  21.744  16.584   3.824
45989W        W 5283  10.326  27.457  10.109
45990W        W 5284  31.403  24.655  12.868
45991W        W 5285  28.167   1.775  14.424
45992W        W 5286  34.529  43.365   0.332
45993W        W 5287   0.439  44.858   4.136
45994W        W 5288  33.611  44.401  12.882
45995W        W 5289  28.105  14.695  14.407
45996W        W 5290  19.104  39.370  12.037
45997W        W 5291  37.345  14.615   2.742
45998W        W 5292   2.426   7.233  11.432
45999W        W 5293  24.199  17.734   4.145
46000W        W 5294  31.001  14.594   2.222
46001W        W 5295  40.958   4.409  13.353
46002W        W 5296  30.011  28.529   4.179
46003W        W 5297  15.151  25.493  10.506
46004W        W 5298  22.687  29.993  12.457
46005W        W 5299   6.212  14.728  14.367
46006W        W 5300   8.660  28.655   2.222
46007W        W 5301  10.254   4.713   4.339
46008W        W 5302   0.773  17.288   3.648
46009W        W 5303   4.210  17.069  11.382
46010W        W 5304  33.522  40.899  11.601
46011W        W 5305  24.144  10.655   3.793
46012W        W 5306  20.684  44.277  11.588
46013W        W 5307  24.666  16.664   1.710
46014W        W 5308  26.079   4.916  11.958
46015W        W 5309   8.882  42.461  11.491
46016W        W 5310  20.639  36.999  13.508
46017W        W 5311  11.814  13.259  10.139
46018W        W 5312   4.268  12.248  11.887
46019W        W 5313  28.483  31.124   2.798
46020W        W 5314   0.796  10.686  11.103
46021W        W 5315  22.252  30.097   2.744
46022W        W 5316  40.448  15.190  11.459
46023W        W 5317  41.355   3.864   2.797
46024W        W 5318  36.952  27.012  11.485
46025W        W 5319  28.021  17.707  12.087
46026W        W 5320  16.687  19.634  10.494
46027W        W 5321  22.066  29.628  11.468
46028W        W 5322  18.747  37.567  11.593
46029W        W 5323  14.830  39.930  12.074
46030W        W 5324  39.492  20.644   2.764
46031W        W 5325  29.650  12.314  13.515
46032W        W 5326  32.063   2.354   0.797
46033W        W 5327  13.718  16.123  13.931
46034W        W 5328  30.491   4.893  13.906
46035W        W 5329  22.104   0.395  13.514
46036W        W 5330  38.903  17.086   0.288
46037W        W 5331   9.738  41.474   4.648
46038W        W 5332  27.689  26.634   1.392
46039W        W 5333   6.423  42.468  12.878
46040W        W 5334  12.118  26.164  10.507
46041W        W 5335  15.147   4.265  13.859
46042W        W 5336   7.724   0.405   2.230
46043W        W 5337  20.180   5.839   0.465
46044W        W 5338   5.728  13.182   2.398
46045W        W 5339  20.738   4.219  13.961
46046W        W 5340   8.886  20.042   4.811
46047W        W 5341  31.596  17.164  14.876
46048W        W 5342  27.457  13.140  14.990
46049W        W 5343  42.456  12.820   2.299
46050W        W 5344  19.560   7.269   1.318
46051W        W 5345  25.653  40.872   1.344
46052W        W 5346  30.596  10.847   0.919
46053W        W 5347  39.927  11.821  12.983
46054W        W 5348  14.822   3.791  10.607
46055W        W 5349  14.190  42.523   0.384
46056W        W 5350   6.243  26.626  12.867
46057W        W 5351  17.565   6.313   0.359
46058W        W 5352   8.216  23.121   9.652
46059W        W 5353  43.457  41.981   4.160
46060W        W 5354  33.464  11.773  12.386
46061W        W 5355  11.145  15.725  11.883
46062W        W 5356  21.617  32.975  14.369
46063W        W 5357  23.552  28.626  12.452
46064W        W 5358  29.153  13.610   2.278
46065W        W 5359  15.799  21.186   3.204
46066W        W 5360  16.116  34.573  13.482
46067W        W 5361  17.655  23.733   3.838
46068W        W 5362   3.257  34.392  14.910
46069W        W 5363  35.552  11.802  14.993
46070W        W 5364   5.920  28.049  12.351
46071W        W 5365   3.365  27.629  11.062
46072W        W 5366   8.815   3.420   0.419
46073W        W 5367   4.289  26.507   4.147
46074W        W 5368   6.789  35.961  14.500
46075W        W 5369  30.453   0.905   3.285
46076W        W 5370  30.932  33.889  14.301
46077W        W 5371  22.573  40.924   4.707
46078W        W 5372   9.364  36.396   3.308
46079W        W 5373  19.593  18.708   1.346
46080W        W 5374  42.908  26.514  11.463
46081W        W 5375   8.747  22.065   1.303
46082W        W 5376  10.735  13.111   3.756
46083W        W 5377   2.382   1.905  12.527
46084W        W 5378  44.978   3.721   4.815
46085W        W 5379   8.361  38.008  14.505
46086W        W 5380  38.819  18.101  11.512
46087W        W 5381  34.107  23.048   1.759
46088W        W 5382  42.975  39.959   3.247
46089W        W 5383  42.328  27.020  10.936
46090W        W 5384  28.013  23.523   3.692
46091W        W 5385  42.478  28.067   1.879
46092W        W 5386  30.487   7.243  11.972
46093W        W 5387   7.344  42.349  11.535
46094W        W 5388  26.459  44.821   1.919
46095W        W 5389  37.381  16.169  12.857
46096W        W 5390  17.099   2.288  11.058
46097W        W 5391  10.741  44.471   4.201
46098W        W 5392   1.740  19.225   3.769
46099W        W 5393  28.111  14.248   1.725
46100W        W 5394  33.922  34.100  11.908
46101W        W 5395  44.451  37.933   0.277
46102W        W 5396  30.502  20.569   2.876
46103W        W 5397  20.161   6.363   5.104
46104W        W 5398  34.063  40.983  13.350
46105W        W 5399  10.352  29.424  14.789
46106W        W 5400  23.677  24.985   0.327
46107W        W 5401  35.901  29.124  13.483
46108W        W 5402  40.939  31.564  14.487
46109W        W 5403  31.100  10.377   2.365
46110W        W 5404  28.157  41.964   1.764
46111W        W 5405   6.887  13.826  14.910
46112W        W 5406  11.335  27.982   2.388
46113W        W 5407  39.975  20.163   3.298
46114W        W 5408  13.113  14.213  14.000
46115W        W 5409   9.311  23.707  10.116
46116W        W 5410  22.544   3.234  10.049
46117W        W 5411  11.370   5.271  13.038
46118W        W 5412   8.762  13.655  12.355
46119W        W 5413   0.388  35.390  14.930
46120W        W 5414  37.836  33.905  14.836
46121W        W 5415  22.054  33.975  14.286
46122W        W 5416  29.504  27.462  10.909
46123W        W 5417  13.295  38.383   2.858
46124W        W 5418  40.916   7.848   4.786
46125W        W 5419  14.729  41.019   0.750
46126W        W 5420   5.310  20.605  12.855
46127W        W 5421  27.961  17.219  10.617
46128W        W 5422  12.644  19.697   1.259
46129W        W 5423  31.512  29.494   0.815
46130W        W 5424  30.427  21.213  10.468
46131W        W 5425   5.354   6.899  13.904
46132W        W 5426  37.026  22.517   2.183
46133W        W 5427  40.042  16.745   3.305
46134W        W 5428  27.555  18.254   1.873
46135W        W 5429   6.847  27.459   3.348
46136W        W 5430   6.737  17.787   5.114
46137W        W 5431  19.170  39.810  14.467
46138W        W 5432  16.232   8.296  10.486
46139W        W 5433  26.987  15.750  10.542
46140W        W 5434   0.408  28.597  11.904
46141W        W 5435  32.019  43.948   3.372
46142W        W 5436  32.629  37.446  13.901
46143W        W 5437   9.235   0.401   2.323
46144W        W 5438  15.228  44.416   3.745
46145W        W 5439  34.371  12.830  11.526
46146W        W 5440  35.085  38.951  13.386
46147W        W 5441   5.689  25.648   5.719
46148W        W 5442   3.796   7.391   1.895
46149W        W 5443   0.841  33.409  11.554
46150W        W 5444  35.064  29.175   5.092
46151W        W 5445   1.468   6.908   4.648
46152W        W 5446  13.171  37.977   2.759
46153W        W 5447   4.758  38.416  13.905
46154W        W 5448   7.390  18.778  11.865
46155W        W 5449   9.207  28.516   2.279
46156W        W 5450  31.647  32.438  14.444
46157W        W 5451  35.489   3.307   4.303
46158W        W 5452  40.315  44.309  10.152
46159W        W 5453   2.795   2.317  13.909
46160W        W 5454  34.031  11.689   0.875
46161W        W 5455  40.001  14.654   1.262
46162W        W 5456  20.746  43.357   4.804
46163W        W 5457  16.615  27.604  12.063
46164W        W 5458  42.362  24.510  13.791
46165W        W 5459  21.090  12.317  12.539
46166W        W 5460  43.817  41.890  14.472
46167W        W 5461   9.258  33.509  11.919
46168W        W 5462  38.819  26.112   3.664
46169W        W 5463  36.928  28.544  14.793
46170W        W 5464   2.406  14.612  13.386
46171W        W 5465   1.260  21.600  11.977
46172W        W 5466  15.711  12.274   0.460
46173W        W 5467  40.817  40.836   1.360
46174W        W 5468  34.494   9.856   1.368
46175W        W 5469  19.738   7.351   0.762
46176W        W 5470  10.247  36.528   2.755
46177W        W 5471  18.067  28.939   1.250
46178W        W 5472   8.400  20.587   0.867
46179W        W 5473  44.874  32.001  10.036
46180W        W 5474  22.108  15.163  13.923
46181W        W 5475  26.544   0.481   4.725
46182W        W 5476  43.773  41.522   1.722
46183W        W 5477   5.922  13.172  12.006
46184W        W 5478  38.431  25.698   1.798
46185W        W 5479  23.237   8.222   0.852
46186W        W 5480  25.966  36.843   2.676
46187W        W 5481  43.367  10.179   2.182
46188W        W 5482  40.028   6.832  10.452
46189W        W 5483   6.242  20.713   5.191
46190W        W 5484  10.378   3.341  13.539
46191W        W 5485  13.698  37.362  13.792
46192W        W 5486  39.934   5.804   3.775
46193W        W 5487  21.719  24.505  11.601
46194W        W 5488   5.400  35.479  13.368
46195W        W 5489  10.659  32.397   1.737
46196W        W 5490   0.855  44.006   4.225
46197W        W 5491  31.923  18.706   4.299
46198W        W 5492  35.956   7.882   0.755
46199W        W 5493  36.056   0.439  12.395
46200W        W 5494  36.423  44.374  13.023
46201W        W 5495  27.159   6.685  14.807
46202W        W 5496   2.315   8.199   4.737
46203W        W 5497  39.034  43.445  13.541
46204W        W 5498  14.235  40.927   0.292
46205W        W 5499  14.645  30.583   4.121
46206W        W 5500  37.842  10.765   2.787
46207W        W 5501   7.890   1.883  14.780
46208W        W 5502   2.296  40.515  12.043
46209W        W 5503  12.692  17.275   0.763
46210W        W 5504  34.589   6.833  12.380
46211W        W 5505  12.689  44.443   3.728
46212W        W 5506  19.060  23.633  13.981
46213W        W 5507   2.852   3.857  10.416
46214W        W 5508  29.021   2.756  13.887
46215W        W 5509  23.041  19.266  12.428
46216W        W 5510  19.637  37.979   3.385
46217W        W 5511  25.973  42.499   0.429
46218W        W 5512  31.102  21.537  10.519
46219W        W 5513  27.633   0.434   1.919
46220W        W 5514   7.328  25.041   1.934
46221W        W 5515  33.542  10.361   3.148
46222W        W 5516  19.733   6.407   2.755
46223W        W 5517  38.344  40.473   1.884
46224W        W 5518  44.277  26.102  14.926
46225W        W 5519  38.973  33.916   3.213
46226W        W 5520  39.436  13.336  14.906
46227W        W 5521  27.177  35.931   1.366
46228W        W 5522  39.970  20.692   0.429
46229W        W 5523   6.717  23.004  11.392
46230W        W 5524  23.683  42.517  13.048
46231W        W 5525  28.533   8.740   1.294
46232W        W 5526   9.845  37.443   1.763
46233W        W 5527   6.878  20.140  13.544
46234W        W 5528  22.713  25.216  12.356
46235W        W 5529  23.522  42.429   4.768
46236W        W 5530  11.260  37.926  14.813
46237W        W 5531  35.976  34.562   2.831
46238W        W 5532  31.055  18.774   0.888
46239W        W 5533  30.609  24.987   1.338
46240W        W 5534   7.215  16.742   2.197
46241W        W 5535   1.470  10.221  13.434
46242W        W 5536  28.443  31.052  14.339
46243W        W 5537  40.500  22.180  12.515
46244W        W 5538  26.136  43.888   4.805
46245W        W 5539  30.449   8.770  13.443
46246W        W 5540  33.904   7.242   1.321
46247W        W 5541   1.424  19.574  13.814
46248W        W 5542   6.825  26.072   3.846
46249W        W 5543  20.670  15.652   3.742
46250W        W 5544  31.918  21.736   4.196
46251W        W 5545   1.444  17.796   4.286
46252W        W 5546  33.006  34.470   1.700
46253W        W 5547  34.503  18.767  13.039
46254W        W 5548  14.705   0.790   1.726
46255W        W 5549  21.724  19.550   1.319
46256W        W 5550  13.830  30.055   0.417
46257W        W 5551  24.518  38.432   4.302
46258W        W 5552  29.133   6.855  10.536
46259W        W 5553  32.939  37.911   1.801
46260W        W 5554  39.015  38.409  13.887
46261W        W 5555   1.279  34.556  13.804
46262W        W 5556  18.166  10.339  10.486
46263W        W 5557   4.240  26.164  11.565
46264W        W 5558  40.488  18.234   2.234
46265W        W 5559  21.685  12.228  12.920
46266W        W 5560   1.356   9.374  14.290
46267W        W 5561  36.019  41.001   4.232
46268W        W 5562  35.023   5.219  12.373
46269W        W 5563   9.287  18.288   1.404
46270W        W 5564  24.491  23.023  13.388
46271W        W 5565  37.080  34.439   3.362
46272W        W 5566  35.394   4.835  13.548
46273W        W 5567  13.685   4.397   3.654
46274W        W 5568  14.630  38.979  13.437
46275W        W 5569  43.779  16.197   1.761
46276W        W 5570   7.707  25.004  14.954
46277W        W 5571  29.560  35.383   0.396
46278W        W 5572  14.732  44.775   2.809
46279W        W 5573  40.878  18.725  12.534
46280W        W 5574   1.773   0.857   2.801
46281W        W 5575  14.295  41.998   2.291
46282W        W 5576   0.356   8.314  10.435
46283W        W 5577  22.115   2.908  10.561
46284W        W 5578  35.430  29.532   0.472
46285W        W 5579   3.389  38.377  13.058
46286W        W 5580   8.220  44.420  13.510
46287W        W 5581  28.547   5.367   2.412
46288W        W 5582  38.355  32.507  10.921
46289W        W 5583  10.791  11.284  12.547
46290W        W 5584  11.285  18.111   3.287
46291W        W 5585  33.048  33.983  12.971
46292W        W 5586  23.617   9.792  14.328
46293W        W 5587  21.058  37.975   5.146
46294W        W 5588  13.765  19.763   2.232
46295W        W 5589  26.150  32.489  12.451
46296W        W 5590  37.567  17.117  13.908
46297W        W 5591  38.847   4.895   3.636
46298W        W 5592  21.567  16.677  11.098
46299W        W 5593  14.334   9.847  13.384
46300W        W 5594  15.761  34.920  13.492
46301W        W 5595  15.639  38.005  10.496
46302W        W 5596  23.219  16.584   3.794
46303W        W 5597   2.868   8.876   3.268
46304W        W 5598   0.850  33.382  14.824
46305W        W 5599  43.499   7.854  11.054
46306W        W 5600  28.544   8.276   2.416
46307W        W 5601  34.040  13.116   1.299
46308W        W 5602   1.238   0.338   3.715
46309W        W 5603   8.764   5.260  10.984
46310W        W 5604  15.714  36.009  10.433
46311W        W 5605  30.657  23.074   0.938
46312W        W 5606  22.171  22.709   4.148
46313W        W 5607  14.197  39.851   0.914
46314W        W 5608   6.268  34.098   2.791
46315W        W 5609   6.339  11.269   1.328
46316W        W 5610  31.147   0.886  13.888
46317W        W 5611  23.040  35.387  11.114
46318W        W 5612   8.766  37.580  11.511
46319W        W 5613  17.251  22.695  12.891
46320W        W 5614  26.964  31.583  13.339
46321W        W 5615  25.573   0.258  12.910
46322W        W 5616  27.659  11.336  13.473
46323W        W 5617   3.947  12.176   3.861
46324W        W 5618  27.179  13.684   1.436
46325W        W 5619  11.857   0.875   3.183
46326W        W 5620   7.697  27.962  13.979
46327W        W 5621  41.938  13.233   2.723
46328W        W 5622  17.676  37.392   2.412
46329W        W 5623  34.522  44.886  13.544
46330W        W 5624  21.604  37.346   4.640
46331W        W 5625   3.238  17.560  14.020
46332W        W 5626  32.134  19.726  14.465
46333W        W 5627  19.080  34.041   1.792
46334W        W 5628  10.349   8.856  12.450
46335W        W 5629  13.285   1.816   2.765
46336W        W 5630  36.041   6.696   4.162
46337W        W 5631  43.960   4.375  13.004
46338W        W 5632  31.647  29.562   4.717
46339W        W 5633   9.789   2.934  12.510
46340W        W 5634  34.109  35.415  13.922
46341W        W 5635  32.007  33.475   2.749
46342W        W 5636  37.077  38.959  13.352
46343W        W 5637   2.434  40.941  11.475
46344W        W 5638  44.959  29.637  13.341
46345W        W 5639   6.222  37.340   0.356
46346W        W 5640  13.323  28.036   0.245
46347W        W 5641   6.755   6.224   3.684
46348W        W 5642  42.967  37.470   4.727
46349W        W 5643  22.653  42.878  12.498
46350W        W 5644   3.760  21.571   4.698
46351W        W 5645  32.460  13.340   1.790
46352W        W 5646  13.781   3.233  13.539
46353W        W 5647  33.525  24.540  14.902
46354W        W 5648  13.308   1.929   1.263
46355W        W 5649  35.470   9.349   1.741
46356W        W 5650  22.657  25.537  14.489
46357W        W 5651  16.743  10.365   0.837
46358W        W 5652   5.401  29.481   2.235
46359W        W 5653   7.852  14.302  11.921
46360W        W 5654  43.864  20.564  14.903
46361W        W 5655   9.155  41.416   2.883
46362W        W 5656  43.888  18.601  12.376
46363W        W 5657   2.432  39.455   0.790
46364W        W 5658  18.153  10.159  11.908
46365W        W 5659   9.813  12.671   3.201
46366W        W 5660  21.658  28.950   3.173
46367W        W 5661  35.971  34.952   0.736
46368W        W 5662  10.709  23.990   0.405
46369W        W 5663  37.477  23.074  11.886
46370W        W 5664   8.331   2.270  12.832
46371W        W 5665  21.067  34.567   3.335
46372W        W 5666  21.050  30.574   2.857
46373W        W 5667   8.891  37.982  14.849
46374W        W 5668  12.224  10.326   5.298
46375W        W 5669  25.654  28.499   2.271
46376W        W 5670  25.146  12.168   2.247
46377W        W 5671  24.617  40.910   1.288
46378W        W 5672  41.301  31.899   2.679
46379W        W 5673  17.139  28.155   2.887
46380W        W 5674  11.797   6.392   1.381
46381W        W 5675  18.150   1.859   0.269
46382W        W 5676  44.401  27.570   3.188
46383W        W 5677  25.172  22.052  10.639
46384W        W 5678   1.854  36.427   1.783
46385W        W 5679  34.063   4.335  11.097
46386W        W 5680  21.059  38.044  12.361
46387W        W 5681  11.765  18.234   0.926
46388W        W 5682  25.664  27.020   4.598
46389W        W 5683  11.781   7.896   2.668
46390W        W 5684  17.674   8.233   0.884
46391W        W 5685  22.201   6.352   0.249
46392W        W 5686  19.546   9.355  14.765
46393W        W 5687  38.064  13.784  13.038
46394W        W 5688   2.932  28.537  10.984
46395W        W 5689  28.623  31.129   0.475
46396W        W 5690  23.040  43.947  11.561
46397W        W 5691  44.903  31.605   4.736
46398W        W 5692  15.144  32.043   2.413
46399W        W 5693  28.448  27.594   1.918
46400W        W 5694   9.681  38.020   2.671
46401W        W 5695  16.303  35.885  12.025
46402W        W 5696  23.647   1.867   3.182
46403W        W 5697  28.548  10.635   3.338
46404W        W 5698   1.855  17.682   4.192
46405W        W 5699  39.553  35.457  14.458
46406W        W 5700   1.889  28.141  13.952
46407W        W 5701   5.895  41.805  14.275
46408W        W 5702  19.626   3.796  13.479
46409W        W 5703  21.038  39.982   4.643
46410W        W 5704  26.982   4.438   4.818
46411W        W 5705  28.156  42.983  11.598
46412W        W 5706  34.383  44.910  10.985
46413W        W 5707  25.027  40.822  12.379
46414W        W 5708   3.877  29.036  11.587
46415W        W 5709   5.302  33.122  14.366
46416W        W 5710  34.866   4.256   3.821
46417W        W 5711   4.241  34.438  13.836
46418W        W 5712   8.853  28.637  13.957
46419W        W 5713  41.329  40.313   3.208
46420W        W 5714  41.480  32.533   0.472
46421W        W 5715  27.506   3.360  12.980
46422W        W 5716  31.638  34.484   0.820
46423W        W 5717  14.201   5.304  12.495
46424W        W 5718  26.686  30.594   9.946
46425W        W 5719   1.794  15.255  10.583
46426W        W 5720  11.278   3.332   2.695
46427W        W 5721  11.638  15.166   0.784
46428W        W 5722  17.583  31.491  11.982
46429W        W 5723   3.955   5.897   0.858
46430W        W 5724   7.225  41.524   1.925
46431W        W 5725  30.163  13.759  12.054
46432W        W 5726  25.118  17.656  10.572
46433W        W 5727  10.299  23.138  13.847
46434W        W 5728  24.550  41.805  14.909
46435W        W 5729  35.086  36.972   0.894
46436W        W 5730  24.058  27.101  11.006
46437W        W 5731  16.162  39.840  11.507
46438W        W 5732  23.061  40.798   4.718
46439W        W 5733   3.889  34.073   0.371
46440W        W 5734   7.876  26.698   4.307
46441W        W 5735  39.888  11.754   4.761
46442W        W 5736   2.917  17.230   1.880
46443W        W 5737  34.600  24.166  11.954
46444W        W 5738  24.086  14.719   3.321
46445W        W 5739  43.008  43.998  13.486
46446W        W 5740  31.457  42.862  14.365
46447W        W 5741  43.910  11.177  14.872
46448W        W 5742   0.831  28.485   1.359
46449W        W 5743  14.624   9.202  13.952
46450W        W 5744  44.274  19.611  11.372
46451W        W 5745  27.034  11.247  10.957
46452W        W 5746   0.742  18.163  13.511
46453W        W 5747   6.235  35.600  12.925
46454W        W 5748  12.229  12.133   4.195
46455W        W 5749  36.021  35.409  14.481
46456W        W 5750  40.471   5.405   2.765
46457W        W 5751   3.783   7.349  13.014
46458W        W 5752  40.518  23.204   4.787
46459W        W 5753  37.072  32.512   9.553
46460W        W 5754  28.446  30.608   0.908
46461W        W 5755  24.974   1.287   4.129
46462W        W 5756  32.137  42.907   4.244
46463W        W 5757  29.580   8.803   3.770
46464W        W 5758  37.559  37.438   1.761
46465W        W 5759  34.963  27.678  11.533
46466W        W 5760   1.821   0.771  10.055
46467W        W 5761  39.943   9.202  14.400
46468W        W 5762  29.126  38.931  14.778
46469W        W 5763   2.372  33.570   3.642
46470W        W 5764   4.350  30.947  13.307
46471W        W 5765  34.456   5.770   0.272
46472W        W 5766  32.517   1.464  10.958
46473W        W 5767  39.387   7.372   0.409
46474W        W 5768  28.525  36.464   3.658
46475W        W 5769  36.981  15.178   3.645
46476W        W 5770  36.462  17.151  14.802
46477W        W 5771  42.029  31.440  11.077
46478W        W 5772  15.613   8.388  14.810
46479W        W 5773   4.434  34.042   4.167
46480W        W 5774  22.034  23.647   2.337
46481W        W 5775  29.631  29.552  12.914
46482W        W 5776  38.849   4.793  13.012
46483W        W 5777  15.096  23.660   4.175
46484W        W 5778   0.813  16.754   1.348
46485W        W 5779  31.132  38.962   1.904
46486W        W 5780  27.160  28.965   1.254
46487W        W 5781   7.752  31.916   5.299
46488W        W 5782  43.287  39.432   0.963
46489W        W 5783  33.527   8.842  14.761
46490W        W 5784   2.325   5.808  10.628
46491W        W 5785  18.282   2.758   0.400
46492W        W 5786  31.968   9.884  11.092
46493W        W 5787  11.668  17.773  14.817
46494W        W 5788  36.855   1.315   0.864
46495W        W 5789   4.218  43.009   1.705
46496W        W 5790  28.476  17.220   3.372
46497W        W 5791   2.263  16.272  14.945
46498W        W 5792  44.876  20.573  14.281
46499W        W 5793  20.657  36.078   1.790
46500W        W 5794  24.036  36.536  11.874
46501W        W 5795   1.382  29.570   1.321
46502W        W 5796   1.389  20.727   0.769
46503W        W 5797  40.514   5.341   3.697
46504W        W 5798  18.762   7.209   0.848
46505W        W 5799  21.112  39.315   2.217
46506W        W 5800   0.409  27.963   2.344
46507W        W 5801  40.470  43.939   1.317
46508W        W 5802  10.737  28.440   1.860
46509W        W 5803  13.792  13.651   1.307
46510W        W 5804   1.758   3.908  10.007
46511W        W 5805  35.576  27.670   0.795
46512W        W 5806  29.927  11.255   1.303
46513W        W 5807   9.647   9.227  13.940
46514W        W 5808  34.546  35.520   4.647
46515W        W 5809  15.700  41.836  10.581
46516W        W 5810   1.336  10.827   4.810
46517W        W 5811   0.903  29.543  10.930
46518W        W 5812  22.555   8.900   1.262
46519W        W 5813  29.512  29.099   4.189
46520W        W 5814   3.225  27.985  13.028
46521W        W 5815  37.079  27.503   1.410
46522W        W 5816  16.784  18.182   4.693
46523W        W 5817  38.399  31.480  12.869
46524W        W 5818  11.756  44.827   2.229
46525W        W 5819  37.009  38.355  14.388
46526W        W 5820  11.806  21.522   0.951
46527W        W 5821  40.326  38.374   0.464
46528W        W 5822  10.229   2.305   1.900
46529W        W 5823  13.125  31.927   0.425
46530W        W 5824   7.357  38.019   0.355
46531W        W 5825  28.522  41.982   4.286
46532W        W 5826  42.305  39.010   3.168
46533W        W 5827  41.985  15.699  10.037
46534W        W 5828  40.825  18.201  13.400
46535W        W 5829  36.005  15.614   2.736
46536W        W 5830   3.878  17.735   4.706
46537W        W 5831  33.079  30.919  10.457
46538W        W 5832  37.376   5.393   3.161
46539W        W 5833  20.657  37.046   3.210
46540W        W 5834  32.509  23.666   1.444
46541W        W 5835  43.442   8.210  12.021
46542W        W 5836  10.379  16.618  10.126
46543W        W 5837  15.324   3.299   2.417
46544W        W 5838  25.989  11.824   3.691
46545W        W 5839  42.816  18.589  12.032
46546W        W 5840  33.466  11.336  12.580
46547W        W 5841   1.321   7.781   3.852
46548W        W 5842  17.712  36.390  12.510
46549W        W 5843  43.387  42.939  12.878
46550W        W 5844  43.478  11.309  14.330
46551W        W 5845  13.835  37.900   3.299
46552W        W 5846  40.956  19.240   1.719
46553W        W 5847  19.106  35.419   2.372
46554W        W 5848   9.374  36.007  11.580
46555W        W 5849   6.685   5.790   1.930
46556W        W 5850   4.869   5.323  10.921
46557W        W 5851  13.750  26.457   3.693
46558W        W 5852  19.662  10.876   1.714
46559W        W 5853  36.576  36.378  10.458
46560W        W 5854  25.032  36.352   2.198
46561W        W 5855  36.554  41.410  11.987
46562W        W 5856  26.612  32.075   4.116
46563W        W 5857  27.983  27.655  13.940
46564W        W 5858   7.399  13.617   2.755
46565W        W 5859  17.795  29.666   0.297
46566W        W 5860  37.877  17.687  10.958
46567W        W 5861  20.545  22.504   3.699
46568W        W 5862  12.243   7.417  14.883
46569W        W 5863   8.306  28.581  12.422
46570W        W 5864  28.165  19.070   1.373
46571W        W 5865  41.407  43.349   3.360
46572W        W 5866   5.226  11.358  12.498
46573W        W 5867   5.274  12.836   3.330
46574W        W 5868   8.845  18.607   0.756
46575W        W 5869   1.264  31.909  11.557
46576W        W 5870  37.052  14.276   3.677
46577W        W 5871  39.340  18.698  13.971
46578W        W 5872  24.112  11.202  10.979
46579W        W 5873   8.252  18.062  12.982
46580W        W 5874  12.852  20.207   3.796
46581W        W 5875  40.506  18.148   1.793
46582W        W 5876  26.501  39.314   1.846
46583W        W 5877   1.879  18.138   4.316
46584W        W 5878   0.267  14.145  12.372
46585W        W 5879  19.621  33.103  14.506
46586W        W 5880  16.584   1.776   4.820
46587W        W 5881  41.312  21.685  13.346
46588W        W 5882  39.350  26.650  11.536
46589W        W 5883  40.391  26.674  13.472
46590W        W 5884  25.697  40.393  11.029
46591W        W 5885  12.301  14.323   0.818
46592W        W 5886  39.829   9.361  13.419
46593W        W 5887  36.984  43.794   0.362
46594W        W 5888  11.289   2.431  14.772
46595W        W 5889  34.394  25.492  13.392
46596W        W 5890  23.166   4.252  14.961
46597W        W 5891  23.604  14.312  10.917
46598W        W 5892  28.949   4.305   2.758
46599W        W 5893  21.238  36.414  11.585
46600W        W 5894   4.390  23.544   3.283
46601W        W 5895  12.304  35.010  13.866
46602W        W 5896  28.996  17.590   0.328
46603W        W 5897   1.435   6.330   2.800
46604W        W 5898  31.430   5.343   1.382
46605W        W 5899  32.016   3.925   3.788
46606W        W 5900  10.771  44.313  13.849
46607W        W 5901  19.625  41.915  14.912
46608W        W 5902  16.265  37.061  14.397
46609W        W 5903  29.125   3.407  14.397
46610W        W 5904  20.627  14.109  12.054
46611W        W 5905  31.576  37.388  14.444
46612W        W 5906  29.475  14.797  12.872
46613W        W 5907  32.890  42.434  12.896
46614W        W 5908   4.874   0.805  13.421
46615W        W 5909  21.653  32.925   1.886
46616W        W 5910  12.271  41.432   4.115
46617W        W 5911  38.368  35.077   0.787
46618W        W 5912   7.230  36.387  10.555
46619W        W 5913  18.689  22.595  11.032
46620W        W 5914  22.607  44.776   1.872
46621W        W 5915  25.561  21.239   2.317
46622W        W 5916   8.732  28.596   5.174
46623W        W 5917  23.666  21.163   0.957
46624W        W 5918  41.932  23.523   4.137
46625W        W 5919  29.004   9.285   2.416
46626W        W 5920   0.830  31.152   4.712
46627W        W 5921   3.347   1.858   5.203
46628W        W 5922  28.666  44.984  12.578
46629W        W 5923  13.275  21.114   0.884
46630W        W 5924  18.630  25.610   4.260
46631W        W 5925   9.345  14.790   0.825
46632W        W 5926  29.609  30.003  14.460
46633W        W 5927  26.012  23.678  11.594
46634W        W 5928  15.620  36.091  10.917
46635W        W 5929  36.456   3.940   0.359
46636W        W 5930   1.846  36.430   2.224
46637W        W 5931  15.239  42.797   1.280
46638W        W 5932   9.281  21.530   5.638
46639W        W 5933  34.473  41.835  13.384
46640W        W 5934  12.851  10.204   3.689
46641W        W 5935  36.381  29.536   4.682
46642W        W 5936  27.601  15.154   4.230
46643W        W 5937  10.777  16.657   0.917
46644W        W 5938  25.198  23.179  12.469
46645W        W 5939  21.033   8.282  14.812
46646W        W 5940  37.975  24.992   2.784
46647W        W 5941  29.921  33.030  13.900
46648W        W 5942   6.189  21.519  14.827
46649W        W 5943   5.412   7.763   1.430
46650W        W 5944   7.203  24.620   1.248
46651W        W 5945   3.867  11.194  10.572
46652W        W 5946  40.335  23.664  13.450
46653W        W 5947  33.577  28.678  10.114
46654W        W 5948  10.784  16.127   0.410
46655W        W 5949  31.088  31.096   3.758
46656W        W 5950  33.507  13.812  13.854
46657W        W 5951  41.791   0.796  11.440
46658W        W 5952  25.576  11.849  14.354
46659W        W 5953  27.628  35.893  14.364
46660W        W 5954   6.756  39.827   3.727
46661W        W 5955  39.364  44.824   4.263
46662W        W 5956  19.228  40.984   1.894
46663W        W 5957  40.950  26.626  10.432
46664W        W 5958  15.675  14.667  14.012
46665W        W 5959   7.884  43.296  13.031
46666W        W 5960  33.407  33.619   1.775
46667W        W 5961  15.166  30.021   4.330
46668W        W 5962   8.778  25.166   3.323
46669W        W 5963  20.274  32.097   3.712
46670W        W 5964  29.133   4.785  11.552
46671W        W 5965  41.391  35.070   2.845
46672W        W 5966   0.366  41.033  14.998
46673W        W 5967  41.977  39.344  14.466
46674W        W 5968  10.760   9.644  14.842
46675W        W 5969  32.587  35.535  14.438
46676W        W 5970  14.228  44.453   1.306
46677W        W 5971  40.835  25.079  11.394
46678W        W 5972  37.087  44.445   3.646
46679W        W 5973  19.087  34.073   1.368
46680W        W 5974   3.216  10.834   3.865
46681W        W 5975  37.925  20.179   3.234
46682W        W 5976  40.388  13.648  14.463
46683W        W 5977  32.900  12.618   2.672
46684W        W 5978  42.413   5.784  14.315
46685W        W 5979  17.643  22.618   1.340
46686W        W 5980   1.423   0.405   9.526
46687W        W 5981  16.127   2.341   1.805
46688W        W 5982  38.849  31.082   1.283
46689W        W 5983  39.923  26.025  11.951
46690W        W 5984   4.343  11.237  13.480
46691W        W 5985  24.109  17.276  11.104
46692W        W 5986   5.423  30.091   1.888
46693W        W 5987  32.497  16.088  12.936
46694W        W 5988  25.634  30.452   4.219
46695W        W 5989  28.492  21.196  14.784
46696W        W 5990  40.998  14.757   1.926
46697W        W 5991  10.352   9.705  13.975
46698W        W 5992  23.101  14.808   2.666
46699W        W 5993   1.381  11.374   3.344
46700W        W 5994  10.177   6.870  14.403
46701W        W 5995  37.514   6.225  13.016
46702W        W 5996  30.962  17.711   2.707
46703W        W 5997  23.128  31.045   3.159
46704W        W 5998  14.763  44.428   3.303
46705W        W 5999   7.333   9.372  11.102
46706W        W 6000  20.679  43.928   3.702
46707W        W 6001  41.808  19.172   4.332
46708W        W 6002   1.870  40.910   2.279
46709W        W 6003  42.867  18.740  12.341
46710W        W 6004   9.295  29.484  12.884
46711W        W 6005  34.497  10.737   2.707
46712W        W 6006  23.650  26.591  11.536
46713W        W 6007  35.037  37.988  11.587
46714W        W 6008   0.391  37.003  13.479
46715W        W 6009  31.073   9.878  13.490
46716W        W 6010   3.322   4.265   3.763
46717W        W 6011  37.989  20.686   3.645
46718W        W 6012  11.224  25.626   3.147
46719W        W 6013  13.238  40.961   4.682
46720W        W 6014  31.944  22.649   0.729
46721W        W 6015  17.727  40.010  10.603
46722W        W 6016  33.517  16.674   1.355
46723W        W 6017  11.785  21.055   4.739
46724W        W 6018  34.408  22.251   0.293
46725W        W 6019  10.332   9.196   2.673
46726W        W 6020   3.722   5.871  12.027
46727W        W 6021  15.145  41.412  14.387
46728W        W 6022  37.474  41.998  14.872
46729W        W 6023  40.502  21.107  10.523
46730W        W 6024   6.723   7.785  13.981
46731W        W 6025  27.466  17.630  14.966
46732W        W 6026  13.720  13.810  12.886
46733W        W 6027  28.958  15.127   3.733
46734W        W 6028   5.858  35.443  11.450
46735W        W 6029  24.570  41.041   3.634
46736W        W 6030  39.840   4.801  11.904
46737W        W 6031  37.556   0.467  12.509
46738W        W 6032   4.805  10.748   1.790
46739W        W 6033  35.045  13.284   0.260
46740W        W 6034  33.586  29.439   3.206
46741W        W 6035   9.203  42.471   3.707
46742W        W 6036  29.666  23.083   0.736
46743W        W 6037  31.476  32.539  12.447
46744W        W 6038  38.511  21.185  14.300
46745W        W 6039  44.774   4.931   4.666
46746W        W 6040  30.115  33.118  12.388
46747W        W 6041  40.436   0.986  14.772
46748W        W 6042  35.875  36.565   0.790
46749W        W 6043  15.595  31.022  12.516
46750W        W 6044  26.975  17.628  12.506
46751W        W 6045  25.069  36.543  14.340
46752W        W 6046  24.672  31.621   2.407
46753W        W 6047   6.778  42.778   2.241
46754W        W 6048  19.232  12.165   1.903
46755W        W 6049   6.196  34.453  14.362
46756W        W 6050  43.800  13.657  12.452
46757W        W 6051   0.288  11.693  13.004
46758W        W 6052   1.424  15.297  13.361
46759W        W 6053  14.748  34.899   0.295
46760W        W 6054  31.987  25.057   0.855
46761W        W 6055  31.935  22.533  14.900
46762W        W 6056  15.734   4.367   1.875
46763W        W 6057  36.365  25.047   2.329
46764W        W 6058  28.091   0.871   2.678
46765W        W 6059  22.102   6.835  12.954
46766W        W 6060  23.221   7.256   9.544
46767W        W 6061  38.325  30.025   2.749
46768W        W 6062   3.321   2.266  14.925
46769W        W 6063   2.889  23.730   1.911
46770W        W 6064  25.488  20.151   0.327
46771W        W 6065  23.060  14.689  11.997
46772W        W 6066  37.994  24.625  14.351
46773W        W 6067  34.565  16.620   2.819
46774W        W 6068  15.723   5.359   2.681
46775W        W 6069  23.184  16.617   0.254
46776W        W 6070   0.913   5.885  12.912
46777W        W 6071  40.859  43.310   3.160
46778W        W 6072  42.997  31.065   0.456
46779W        W 6073   4.423  42.825   2.785
46780W        W 6074   1.785  15.777   3.216
46781W        W 6075  17.637  34.079  13.324
46782W        W 6076  34.070  38.968  14.433
46783W        W 6077  30.037   2.442   1.441
46784W        W 6078  17.196  39.053  10.931
46785W        W 6079   6.299  33.523   4.338
46786W        W 6080  18.563   2.287  13.811
46787W        W 6081  41.858  10.730   0.855
46788W        W 6082  36.588  14.139  12.442
46789W        W 6083   7.234  34.585  14.843
46790W        W 6084  18.701  15.099  13.330
46791W        W 6085   4.799  36.541   3.203
46792W        W 6086   4.251  10.275  11.511
46793W        W 6087  34.545  42.907   3.763
46794W        W 6088  34.428  35.575   0.400
46795W        W 6089  39.338   5.435   0.468
46796W        W 6090  33.503  20.624   1.368
46797W        W 6091  19.728  10.175   1.258
46798W        W 6092   0.866  27.179   1.330
46799W        W 6093  16.651  14.835   1.697
46800W        W 6094  15.646   3.378   3.841
46801W        W 6095  42.844  26.049  13.806
46802W        W 6096  10.780   0.853   3.190
46803W        W 6097  14.205  20.579  12.912
46804W        W 6098  27.520   8.687   4.758
46805W        W 6099   2.873  12.677  14.975
46806W        W 6100  10.778   7.860  13.000
46807W        W 6101  32.456  17.262  11.538
46808W        W 6102   9.863  28.657  13.014
46809W        W 6103  12.640  12.312  14.289
46810W        W 6104  24.492  34.488   3.194
46811W        W 6105  19.684   2.344  12.861
46812W        W 6106  22.243   7.278  13.806
46813W        W 6107  40.800  43.913  13.967
46814W        W 6108  15.144   8.662  13.471
46815W        W 6109  34.383  33.881  13.890
46816W        W 6110  18.752  41.462  11.099
46817W        W 6111  40.356   2.729   2.726
46818W        W 6112  12.316  19.653  11.896
46819W        W 6113  37.046  27.963   3.380
46820W        W 6114  38.864  30.502  13.964
46821W        W 6115  10.781   7.187  14.916
46822W        W 6116   4.816   2.931   3.221
46823W        W 6117  10.758  39.909  14.395
46824W        W 6118   5.385  41.447  12.362
46825W        W 6119  26.990  18.080   4.181
46826W        W 6120  18.766  14.660   1.230
46827W        W 6121   9.764   3.237   0.307
46828W        W 6122  29.033  11.309   4.327
46829W        W 6123  14.603  26.972  10.558
46830W        W 6124   4.879  25.710  11.126
46831W        W 6125  25.143   2.847  14.761
46832W        W 6126  21.519  31.920  14.780
46833W        W 6127  23.052  42.024  12.996
46834W        W 6128  31.624  17.588   0.849
46835W        W 6129  39.843  36.052  12.476
46836W        W 6130  28.176  42.515   0.942
46837W        W 6131  34.080   2.353  11.965
46838W        W 6132   5.225   3.308  12.924
46839W        W 6133   1.822  19.156  10.446
46840W        W 6134  30.983  12.223   1.768
46841W        W 6135  41.530  22.011   3.257
46842W        W 6136  36.431  37.344  11.481
46843W        W 6137  41.868  21.121   2.405
46844W        W 6138  29.977  17.757   4.823
46845W        W 6139  32.405  37.037  12.488
46846W        W 6140  22.508  28.602   4.317
46847W        W 6141  42.970   3.717  10.943
46848W        W 6142   4.246  24.004   0.801
46849W        W 6143  12.774  18.688   3.680
46850W        W 6144  31.450   3.387   4.790
46851W        W 6145  11.240  39.924   4.651
46852W        W 6146  43.818  43.784  10.999
46853W        W 6147   8.707  15.327   0.278
46854W        W 6148  39.470   0.288   4.692
46855W        W 6149   7.214   0.896   3.159
46856W        W 6150  41.313  22.537   3.152
46857W        W 6151  22.623  38.502  13.329
46858W        W 6152   5.232  12.798   4.332
46859W        W 6153  14.208  11.304   2.719
46860W        W 6154   6.789  24.524   4.286
46861W        W 6155  43.322   3.304   0.335
46862W        W 6156  41.898  39.395   3.760
46863W        W 6157  16.701  33.035  11.037
46864W        W 6158  44.937  20.623   4.203
46865W        W 6159  44.397  15.794   1.892
46866W        W 6160  39.009  31.932  12.541
46867W        W 6161  30.531  34.388  10.543
46868W        W 6162  40.393   0.849  11.023
46869W        W 6163  11.844  23.209   3.350
46870W        W 6164  15.308  41.848  11.408
46871W        W 6165   6.725  17.738  10.645
46872W        W 6166  14.728   8.676  11.983
46873W        W 6167  25.602  15.794   3.831
46874W        W 6168  30.477  37.000  12.834
46875W        W 6169  43.802  22.170   2.785
46876W        W 6170   7.834  11.170   1.338
46877W        W 6171  19.262  14.640  13.315
46878W        W 6172  41.795  42.012   2.765
46879W        W 6173  19.266   8.865  11.903
46880W        W 6174   4.812  32.099  12.075
46881W        W 6175  29.607  34.005  14.907
46882W        W 6176   7.272   3.449   0.884
46883W        W 6177  17.117   5.738  10.989
46884W        W 6178  35.479   0.810  10.934
46885W        W 6179  31.926  40.801  14.456
46886W        W 6180  43.776  33.069  11.868
46887W        W 6181  42.346  40.849  12.057
46888W        W 6182  38.880  39.553   2.737
46889W        W 6183   0.336  31.491   4.700
46890W        W 6184  24.076  26.205   2.681
46891W        W 6185  44.973   9.247  12.005
46892W        W 6186  12.794  13.617   0.423
46893W        W 6187   6.911  16.612   1.728
46894W        W 6188  16.286  35.587  14.937
46895W        W 6189  31.061   2.954   2.789
46896W        W 6190  14.333  32.897  11.534
46897W        W 6191  24.979   9.871  13.050
46898W        W 6192  20.697  37.400   1.316
46899W        W 6193  22.217  26.088   4.337
46900W        W 6194  21.216  37.472  11.120
46901W        W 6195   2.449  21.089   0.846
46902W        W 6196  43.996  10.185   2.336
46903W        W 6197   0.791  36.904   0.341
46904W        W 6198   5.929  20.079  11.445
46905W        W 6199  25.694  11.178   3.180
46906W        W 6200   3.907   6.800   3.368
46907W        W 6201  31.117  10.696  13.000
46908W        W 6202  40.541  17.574  10.483
46909W        W 6203  32.966  21.636   2.715
46910W        W 6204  12.626  12.776  11.012
46911W        W 6205  22.054  26.619   4.613
46912W        W 6206   4.324  35.037   0.935
46913W        W 6207  18.672  37.833  11.089
46914W        W 6208   3.385  13.729  12.502
46915W        W 6209  21.666   7.406  13.031
46916W        W 6210  41.962  44.840   3.684
46917W        W 6211   2.837  34.557   1.281
46918W        W 6212   1.889  37.369   2.399
46919W        W 6213  13.775  41.795  14.932
46920W        W 6214  30.481  23.608   0.954
46921W        W 6215  28.668  14.128   4.713
46922W        W 6216  10.727  15.186   1.254
46923W        W 6217   1.415  42.474   1.411
46924W        W 6218  14.318  17.678   1.425
46925W        W 6219   9.199  21.145   1.368
46926W        W 6220   2.258  31.440  12.865
46927W        W 6221  15.739  25.661   4.721
46928W        W 6222   2.778  32.431   1.826
46929W        W 6223  27.020   7.742  12.043
46930W        W 6224  26.174   3.349  14.359
46931W        W 6225  17.223  25.218   2.322
46932W        W 6226  16.636   9.361   3.377
46933W        W 6227  20.169  37.462   4.134
46934W        W 6228  23.567  35.920  10.946
46935W        W 6229   7.284  19.114  13.517
46936W        W 6230  42.425  24.718  13.472
46937W        W 6231  13.757  26.464  14.488
46938W        W 6232  21.705  18.670   4.674
46939W        W 6233  31.627  24.676   1.449
46940W        W 6234  30.150  16.197   0.742
46941W        W 6235  14.701  39.846  14.400
46942W        W 6236  23.491  11.211  14.898
46943W        W 6237  29.948  32.517  12.014
46944W        W 6238  32.107  38.907  14.829
46945W        W 6239  36.996  27.521   2.841
46946W        W 6240  34.007   3.376   2.704
46947W        W 6241   4.906  36.052  14.803
46948W        W 6242  17.760   2.941  12.368
46949W        W 6243  28.436  34.101  13.050
46950W        W 6244  15.585  23.569   0.850
46951W        W 6245  16.665  21.019  11.404
46952W        W 6246  32.010  27.479   3.643
46953W        W 6247  12.307  42.969  14.450
46954W        W 6248   7.336  20.714  14.917
46955W        W 6249  36.589   5.904  10.014
46956W        W 6250  18.179  24.091   3.151
46957W        W 6251  26.636  16.205   4.738
46958W        W 6252   1.776   1.749   3.382
46959W        W 6253  28.469  30.138  14.289
46960W        W 6254  39.403  10.336   0.770
46961W        W 6255  13.133  13.146  14.785
46962W        W 6256   2.269   9.756   1.213
46963W        W 6257  11.626  28.652   0.753
46964W        W 6258   1.381   6.716   0.263
46965W        W 6259  24.641  36.458   1.811
46966W        W 6260  21.103  18.771  10.965
46967W        W 6261  15.222  30.631   0.471
46968W        W 6262  27.631   6.749   0.835
46969W        W 6263   3.351  25.123  13.514
46970W        W 6264   0.773   1.261   0.918
46971W        W 6265   1.474  10.672   1.767
46972W        W 6266  32.580  12.228  14.846
46973W        W 6267  17.210  10.266  13.018
46974W        W 6268  36.406   4.214   4.254
46975W        W 6269  26.006   1.341   2.709
46976W        W 6270  32.904  11.748  12.022
46977W        W 6271  21.720  27.943   2.726
46978W        W 6272  27.519  18.066  10.457
46979W        W 6273  39.330  10.346   1.820
46980W        W 6274  41.022   5.238   2.792
46981W        W 6275  20.193  11.318   3.647
46982W        W 6276   3.721  12.714   0.827
46983W        W 6277  40.413  30.470  11.405
46984W        W 6278  30.095   2.849   1.322
46985W        W 6279  32.585  21.712  14.458
46986W        W 6280  35.943  24.159  13.033
46987W        W 6281  44.409  10.656  10.436
46988W        W 6282  28.079  19.107   9.959
46989W        W 6283  37.833  19.732   3.748
46990W        W 6284  43.378  39.383   3.709
46991W        W 6285   4.818  19.663  14.379
46992W        W 6286  40.867  29.060   1.247
46993W        W 6287   4.441  25.080  13.822
46994W        W 6288  26.476   5.234  14.344
46995W        W 6289  28.097  41.390   4.626
46996W        W 6290  17.711   6.694   3.734
46997W        W 6291  32.950  30.659  13.826
46998W        W 6292  12.672  43.516   3.838
46999W        W 6293  15.606  34.955   3.825
47000W        W 6294  38.438  39.868  13.482
47001W        W 6295  12.203   0.923  13.952
47002W        W 6296   4.368  26.996   1.785
47003W        W 6297  11.132  12.244   1.337
47004W        W 6298  18.633  23.699   1.806
47005W        W 6299   4.820   7.740  14.009
47006W        W 6300  17.799  35.974  10.617
47007W        W 6301   8.360  18.231  14.868
47008W        W 6302  22.061  37.561  11.877
47009W        W 6303  40.319  21.696   1.930
47010W        W 6304   1.761  32.890   1.848
47011W        W 6305  16.721  30.456  14.016
47012W        W 6306  35.040  23.694  12.429
47013W        W 6307  10.712  26.544   9.943
47014W        W 6308  23.161  18.737   3.817
47015W        W 6309  28.133   2.726  14.284
47016W        W 6310  34.052  31.648  13.429
47017W        W 6311  21.713  12.139   1.266
47018W        W 6312   6.395  28.628  13.882
47019W        W 6313  10.770  12.684   1.219
47020W        W 6314  23.514  36.571   1.926
47021W        W 6315   8.253   8.374   1.736
47022W        W 6316  39.035  17.258  11.565
47023W        W 6317  10.743   9.242  12.921
47024W        W 6318   9.396   1.445   3.275
47025W        W 6319  16.589  25.688   3.736
47026W        W 6320  43.980  13.202  11.597
47027W        W 6321   3.825  31.476  12.014
47028W        W 6322  29.038  41.401   5.278
47029W        W 6323  17.208   5.851   4.354
47030W        W 6324   0.484  18.191  14.840
47031W        W 6325  35.889  35.935   4.180
47032W        W 6326  38.071  30.627   0.352
47033W        W 6327  16.132  37.443   2.677
47034W        W 6328  37.057  41.303   1.745
47035W        W 6329   0.968  16.640  14.963
47036W        W 6330   8.830  24.699  12.937
47037W        W 6331   5.381   3.891   1.321
47038W        W 6332  30.558   1.288  12.082
47039W        W 6333  44.295  10.805   4.143
47040W        W 6334  35.051  15.728   9.988
47041W        W 6335   4.944  38.832  14.835
47042W        W 6336  38.069  37.435  13.028
47043W        W 6337  19.578  42.347   2.267
47044W        W 6338  37.418  36.927   4.292
47045W        W 6339  26.580  35.853  13.543
47046W        W 6340  38.874   1.952  10.500
47047W        W 6341  14.673  36.987   2.779
47048W        W 6342   7.392  13.670  14.789
47049W        W 6343   3.458   3.851  11.516
47050W        W 6344  26.160  15.321   2.900
47051W        W 6345  42.457  38.012  13.845
47052W        W 6346  33.005   7.665   3.654
47053W        W 6347   6.306  21.138  13.487
47054W        W 6348  18.294   6.201   4.671
47055W        W 6349  31.944  23.694   0.290
47056W        W 6350  39.324  43.379  13.054
47057W        W 6351  16.611  41.963   0.255
47058W        W 6352  30.962  33.557  13.845
47059W        W 6353  18.161  36.589   1.433
47060W        W 6354  32.062   7.242  10.608
47061W        W 6355  33.572  24.150   0.468
47062W        W 6356  32.593   0.869  14.939
47063W        W 6357   1.286  10.725   3.267
47064W        W 6358   4.938   5.272  14.962
47065W        W 6359   2.453  20.641  14.017
47066W        W 6360  25.525  34.615  14.334
47067W        W 6361  11.758  38.506  12.995
47068W        W 6362   0.779   9.739   2.252
47069W        W 6363  23.988  22.189  11.002
47070W        W 6364  34.886  22.552   3.778
47071W        W 6365   0.984  23.606   1.907
47072W        W 6366  29.157  30.072   1.364
47073W        W 6367   0.363  22.213  13.886
47074W        W 6368   7.321   6.407  13.502
47075W        W 6369  23.541  38.500  14.394
47076W        W 6370  29.005  23.212   0.439
47077W        W 6371  14.782  38.037   3.860
47078W        W 6372  10.710  12.726   2.321
47079W        W 6373  11.799  27.475   1.411
47080W        W 6374  26.053  22.997  14.937
47081W        W 6375   4.833   4.239   4.329
47082W        W 6376  28.665  44.298  10.161
47083W        W 6377  27.590  39.924  14.890
47084W        W 6378   8.232  36.990  12.380
47085W        W 6379  21.222  21.034   5.267
47086W        W 6380  10.638  16.180   2.404
47087W        W 6381  16.796  21.236  14.867
47088W        W 6382  36.854  37.559   2.692
47089W        W 6383  17.794   8.769   4.312
47090W        W 6384  31.071  37.911  13.464
47091W        W 6385   7.852  18.556  14.872
47092W        W 6386  31.490  39.956  13.954
47093W        W 6387  38.949  35.581  14.507
47094W        W 6388  36.544  24.127  10.944
47095W        W 6389  32.937  17.766  11.049
47096W        W 6390  39.062  14.826   4.810
47097W        W 6391  25.681   6.805   4.192
47098W        W 6392  28.471  36.542   2.900
47099W        W 6393  33.987  41.485  11.078
47100W        W 6394  39.994  20.629   3.682
47101W        W 6395  32.482  24.537   3.158
47102W        W 6396  19.266  32.956  12.527
47103W        W 6397  37.957   3.456  10.107
47104W        W 6398   8.212  19.647   2.405
47105W        W 6399   0.393  20.552   3.230
47106W        W 6400  26.973  28.622   2.310
47107W        W 6401  10.873  13.192   4.681
47108W        W 6402  28.636   6.854   2.307
47109W        W 6403  26.087  38.039  11.059
47110W        W 6404  25.120   6.691  11.590
47111W        W 6405  20.269   1.796   1.867
47112W        W 6406  30.594  22.663  12.462
47113W        W 6407   7.250   7.405  11.502
47114W        W 6408  33.404  16.703  10.069
47115W        W 6409  37.916  32.517  12.392
47116W        W 6410  27.542  10.141   5.186
47117W        W 6411  16.658  19.628   1.836
47118W        W 6412  28.583  10.755  12.066
47119W        W 6413   6.297   9.663   1.916
47120W        W 6414   1.368   9.164   0.358
47121W        W 6415   3.928  13.279  13.384
47122W        W 6416  22.195  14.674  12.564
47123W        W 6417  34.496   2.234   2.711
47124W        W 6418  17.746  22.141  11.962
47125W        W 6419   0.879  20.599  13.452
47126W        W 6420   8.213  23.120  11.023
47127W        W 6421  22.023  37.342   2.355
47128W        W 6422  19.588  37.986  11.483
47129W        W 6423   1.401  32.454   0.886
47130W        W 6424  32.521  13.833   0.430
47131W        W 6425  31.115  16.215  14.292
47132W        W 6426   4.293  32.519   3.780
47133W        W 6427  40.912  16.687   3.840
47134W        W 6428  33.122  14.308   2.254
47135W        W 6429  36.887  33.983   5.628
47136W        W 6430  32.403  38.373  13.852
47137W        W 6431   5.928  17.721   3.237
47138W        W 6432  33.943  29.560   2.204
47139W        W 6433  40.463  19.091   4.723
47140W        W 6434  12.694  41.835  14.880
47141W        W 6435  33.015  21.590  10.595
47142W        W 6436  24.119  25.143  14.835
47143W        W 6437  37.855  40.437   4.674
47144W        W 6438  17.298  22.102   5.619
47145W        W 6439  23.044   1.455  13.386
47146W        W 6440   4.284   4.812  14.512
47147W        W 6441  39.503  18.748  13.537
47148W        W 6442  43.836   9.883  14.953
47149W        W 6443  44.400  32.536  12.068
47150W        W 6444  29.526  18.659   5.299
47151W        W 6445  31.897   0.418  10.904
47152W        W 6446  29.176  39.057  12.055
47153W        W 6447  26.072  42.415   1.928
47154W        W 6448  20.740  11.198   4.302
47155W        W 6449  12.314   5.332   0.887
47156W        W 6450   0.951  18.741  12.020
47157W        W 6451   7.765  13.335   2.287
47158W        W 6452   3.767  42.919   2.695
47159W        W 6453   3.794  18.192   5.244
47160W        W 6454  38.391  14.759   4.156
47161W        W 6455  31.143  40.339   0.418
47162W        W 6456  22.060  26.607  13.809
47163W        W 6457  21.051  24.721  12.413
47164W        W 6458  44.313  21.262  10.138
47165W        W 6459   3.722  10.166  10.523
47166W        W 6460  40.398  31.999  10.032
47167W        W 6461  32.973  43.008   4.191
47168W        W 6462  24.187   7.739  11.411
47169W        W 6463   0.412  11.723   4.307
47170W        W 6464  41.025  26.508  10.059
47171W        W 6465  20.656   8.758  10.486
47172W        W 6466  38.401  43.890   0.867
47173W        W 6467  11.770   0.811  10.081
47174W        W 6468  17.723  33.542   4.285
47175W        W 6469   2.465  33.425  11.999
47176W        W 6470  25.200  10.227   1.367
47177W        W 6471  24.990  38.523  12.927
47178W        W 6472  42.336  29.634  13.800
47179W        W 6473  44.282  14.730  14.930
47180W        W 6474   6.244  30.030   3.720
47181W        W 6475   9.275   9.768  13.897
47182W        W 6476  37.428  21.645  14.282
47183W        W 6477  14.594  24.004   0.942
47184W        W 6478   6.811   5.302  11.576
47185W        W 6479  37.080  43.337  12.550
47186W        W 6480  23.699  33.510   3.305
47187W        W 6481  18.562   7.737  10.939
47188W        W 6482  40.898  34.532  11.524
47189W        W 6483  14.651   3.881  14.482
47190W        W 6484  19.540  24.504   0.729
47191W        W 6485  31.647  39.475   1.234
47192W        W 6486  33.907   7.333   5.293
47193W        W 6487  17.220   9.285  12.352
47194W        W 6488  23.089  12.652  14.959
47195W        W 6489  24.672   4.706  11.559
47196W        W 6490  23.652  29.993   3.166
47197W        W 6491   0.873  40.000  13.981
47198W        W 6492  28.646  30.962  10.526
47199W        W 6493  10.704  36.559   0.789
47200W        W 6494   3.407  16.294   2.328
47201W        W 6495  39.518  18.727   2.850
47202W        W 6496  17.691   2.963  14.008
47203W        W 6497  36.048   3.433  13.345
47204W        W 6498  33.443   0.901  12.842
47205W        W 6499  14.699  20.112  13.830
47206W        W 6500  39.065  40.316   2.307
47207W        W 6501  27.685  33.512  12.832
47208W        W 6502  13.110   1.459   3.729
47209W        W 6503  44.828  24.684   0.912
47210W        W 6504  18.766   4.449   1.727
47211W        W 6505  25.150  10.661   2.307
47212W        W 6506  19.776   2.432   1.291
47213W        W 6507   4.711  44.767   0.779
47214W        W 6508  34.899  33.503   2.272
47215W        W 6509   1.751   5.311   1.794
47216W        W 6510   4.936  31.931   0.481
47217W        W 6511  34.439  37.883   4.258
47218W        W 6512   3.797  40.002   2.364
47219W        W 6513  41.792  20.232   2.878
47220W        W 6514   2.793  43.956  10.944
47221W        W 6515  24.526   6.742   4.745
47222W        W 6516  19.073  15.674  13.843
47223W        W 6517   5.433  30.506  13.832
47224W        W 6518  14.197  30.027  14.023
47225W        W 6519  29.543  34.031  11.492
47226W        W 6520  35.902  15.314   1.272
47227W        W 6521  17.267  18.156   1.741
47228W        W 6522  27.502  11.797   2.292
47229W        W 6523   4.326   1.825   0.371
47230W        W 6524  10.286  36.029   1.228
47231W        W 6525  21.226  20.682  13.037
47232W        W 6526  13.657   1.810  12.869
47233W        W 6527   7.334   3.368   5.714
47234W        W 6528   8.812   6.911  12.469
47235W        W 6529  44.467   7.779   2.308
47236W        W 6530  41.822   7.723   1.717
47237W        W 6531   9.682  43.294   2.334
47238W        W 6532  31.477  25.662  14.299
47239W        W 6533  14.290  14.237  13.940
47240W        W 6534  27.649  43.889  13.811
47241W        W 6535  21.176   0.365   4.238
47242W        W 6536  36.558  27.087  12.407
47243W        W 6537   5.197  41.856  14.402
47244W        W 6538  18.545   5.786   1.218
47245W        W 6539  24.515  17.243  14.890
47246W        W 6540   7.669  27.469  12.452
47247W        W 6541  15.770  34.952  14.446
47248W        W 6542  30.596  10.742  12.044
47249W        W 6543   4.376  40.490   1.338
47250W        W 6544   9.191  35.560   3.257
47251W        W 6545  25.654  29.467   3.318
47252W        W 6546  19.677  24.051  11.947
47253W        W 6547  23.991  24.190  10.966
47254W        W 6548  42.849  19.097  12.477
47255W        W 6549  45.000   6.794   2.746
47256W        W 6550  11.825   0.335  14.467
47257W        W 6551  26.202  24.681   4.624
47258W        W 6552  22.567  14.774  14.774
47259W        W 6553  11.163  15.797  10.410
47260W        W 6554  34.587  44.359  13.927
47261W        W 6555  28.539  33.034  13.458
47262W        W 6556  26.649  41.430  11.855
47263W        W 6557   5.927  23.209   1.803
47264W        W 6558  44.440  43.789  11.013
47265W        W 6559  17.698  20.609   2.333
47266W        W 6560  19.755  37.081  14.857
47267W        W 6561  10.786  18.126  11.973
47268W        W 6562  44.953  44.826  14.935
47269W        W 6563  21.050   7.758  10.951
47270W        W 6564  35.495  35.909   5.209
47271W        W 6565  34.926  28.156  13.504
47272W        W 6566  35.920  30.590  13.886
47273W        W 6567  10.690  10.858   0.311
47274W        W 6568   0.254   2.762   2.365
47275W        W 6569  44.771   7.322   3.257
47276W        W 6570  10.204  37.007   2.666
47277W        W 6571  10.367  16.205  13.491
47278W        W 6572  21.712  15.137  13.487
47279W        W 6573  14.827  43.801   0.786
47280W        W 6574   2.794  22.523   0.476
47281W        W 6575  18.647  10.209  12.571
47282W        W 6576  34.943   6.763   5.084
47283W        W 6577  18.093   8.705   1.271
47284W        W 6578  43.813  20.681   1.268
47285W        W 6579   7.677  37.445  14.477
47286W        W 6580  43.972   5.375  13.413
47287W        W 6581   8.884   9.148  11.987
47288W        W 6582  22.506  26.157   1.846
47289W        W 6583   9.193  26.987   3.840
47290W        W 6584  30.000  41.378   1.419
47291W        W 6585  22.057   1.406   2.796
47292W        W 6586  31.404   9.249   4.654
47293W        W 6587  40.817  19.257  12.436
47294W        W 6588  17.098  15.664   2.685
47295W        W 6589  37.517  23.684  13.390
47296W        W 6590   0.901  16.796   0.369
47297W        W 6591   3.855   4.212   0.252
47298W        W 6592  10.736  11.839  13.340
47299W        W 6593  12.362  21.241   0.806
47300W        W 6594  37.353  36.389   3.184
47301W        W 6595  27.513  31.133  10.929
47302W        W 6596   1.257  14.227  11.469
47303W        W 6597  13.282  31.117  11.923
47304W        W 6598  25.077   4.755   1.755
47305W        W 6599  42.308  37.905   4.283
47306W        W 6600  12.709  43.445  14.984
47307W        W 6601  31.617   1.825  12.567
47308W        W 6602  11.731   6.278   0.738
47309W        W 6603  40.477  29.008  14.005
47310W        W 6604  33.974  38.939  13.864
47311W        W 6605  42.476  33.622  11.042
47312W        W 6606   4.311  28.085  12.504
47313W        W 6607  11.718  34.996   2.329
47314W        W 6608  34.468  10.226   3.200
47315W        W 6609   3.939  13.157   2.178
47316W        W 6610  20.581  21.123  12.391
47317W        W 6611  23.115  18.630  14.402
47318W        W 6612  42.953  44.929   0.851
47319W        W 6613  11.291  16.254  10.528
47320W        W 6614  38.551  41.856  10.644
47321W        W 6615   9.744  25.995   4.240
47322W        W 6616  33.996   1.363  11.409
47323W        W 6617  30.508  18.661   1.785
47324W        W 6618  23.668  23.126  10.542
47325W        W 6619  41.965  31.403  11.595
47326W        W 6620  29.156  35.099   4.746
47327W        W 6621  25.539  32.064   0.731
47328W        W 6622  33.052   3.326  11.945
47329W        W 6623  17.086  21.731  14.307
47330W        W 6624  36.032  32.902   2.228
47331W        W 6625   9.659  34.383  13.378
47332W        W 6626  29.581   6.679   1.725
47333W        W 6627  42.998  44.354  13.395
47334W        W 6628   6.401  25.079  12.416
47335W        W 6629  15.287   9.720  11.864
47336W        W 6630  29.609  37.510   3.710
47337W        W 6631   9.767  22.503   2.244
47338W        W 6632  10.272  15.801   3.191
47339W        W 6633   6.775  17.714   3.649
47340W        W 6634   7.853  34.476   3.278
47341W        W 6635  12.294  10.369   2.399
47342W        W 6636  29.456  16.588  13.426
47343W        W 6637   0.825  15.804   4.191
47344W        W 6638   0.978  41.502  12.504
47345W        W 6639  12.824   4.913   1.780
47346W        W 6640  11.801  29.474   2.873
47347W        W 6641  39.968   8.392  14.006
47348W        W 6642  15.216   8.807  10.486
47349W        W 6643  14.773  30.041  10.495
47350W        W 6644  28.598  31.429  11.107
47351W        W 6645  15.284  41.857  13.334
47352W        W 6646  13.769   6.293   0.747
47353W        W 6647  38.565   3.261  12.829
47354W        W 6648  16.142  23.714  11.074
47355W        W 6649  32.632  44.487  10.426
47356W        W 6650  22.033  43.497   2.759
47357W        W 6651   5.697  13.770  12.094
47358W        W 6652  39.424  40.479   3.691
47359W        W 6653  36.371  37.441  12.044
47360W        W 6654  36.408  41.341   1.270
47361W        W 6655  42.805   8.252   2.407
47362W        W 6656   3.911  17.247   2.216
47363W        W 6657  17.271  23.231   2.316
47364W        W 6658  42.889  30.475  11.038
47365W        W 6659  14.634  43.492   3.289
47366W        W 6660   5.206  12.151   3.679
47367W        W 6661  37.928  44.419   0.329
47368W        W 6662  12.796   0.393  14.858
47369W        W 6663  30.428  36.568  11.419
47370W        W 6664   5.297  10.810  13.062
47371W        W 6665  36.558  18.635  10.576
47372W        W 6666  17.758  14.145   3.355
47373W        W 6667  25.595  23.499  12.349
47374W        W 6668  36.547   3.772  14.968
47375W        W 6669   2.424  41.961  12.080
47376W        W 6670  44.919   7.280   2.739
47377W        W 6671  25.084  25.566  13.042
47378W        W 6672   7.791  27.033   3.371
47379W        W 6673  39.940  35.914  10.089
47380W        W 6674  34.397  21.511  12.404
47381W        W 6675   5.783   8.286  12.403
47382W        W 6676   0.777  32.415  12.462
47383W        W 6677  28.528  15.773  12.569
47384W        W 6678  12.613  18.645   2.678
47385W        W 6679   9.221   4.892   1.315
47386W        W 6680  21.747  41.488   3.667
47387W        W 6681  25.472  27.977  13.412
47388W        W 6682   2.793  18.061  13.464
47389W        W 6683  17.768   9.387   3.379
47390W        W 6684   8.862  19.615  10.632
47391W        W 6685   6.290  33.003   4.789
47392W        W 6686  22.615  27.987  14.343
47393W        W 6687  42.794  21.210   4.206
47394W        W 6688  22.540  23.588  10.576
47395W        W 6689   0.981   6.918  13.945
47396W        W 6690  37.038  33.456  11.048
47397W        W 6691   6.297   8.395   3.697
47398W        W 6692  36.945  22.024   0.776
47399W        W 6693  29.151  19.284   3.720
47400W        W 6694   5.367  20.050  11.889
47401W        W 6695  40.945  41.006  12.977
47402W        W 6696  33.537  35.099   4.601
47403W        W 6697   5.897   4.448  10.467
47404W        W 6698   1.348  26.500  10.514
47405W        W 6699  25.544  37.524   3.816
47406W        W 6700   5.352  42.289   3.262
47407W        W 6701  12.197  30.555   1.812
47408W        W 6702  41.039  39.369  10.597
47409W        W 6703   5.732   1.459   0.840
47410W        W 6704  18.251   0.442  14.346
47411W        W 6705  16.266  40.403  13.531
47412W        W 6706   2.341  18.713   0.331
47413W        W 6707  33.515  10.373  12.358
47414W        W 6708  16.245  17.565   4.720
47415W        W 6709  40.337  26.115  13.799
47416W        W 6710  41.404   2.374   2.250
47417W        W 6711   8.261  21.683   4.736
47418W        W 6712   4.872  29.645  14.908
47419W        W 6713  27.530   0.410  12.564
47420W        W 6714   1.339  32.598   1.732
47421W        W 6715  29.568  42.794  13.423
47422W        W 6716   4.894   3.270  10.405
47423W        W 6717   6.826  39.990  14.956
47424W        W 6718  26.560  14.773  12.941
47425W        W 6719   4.801  31.112   0.335
47426W        W 6720  30.475  30.507   4.760
47427W        W 6721   4.418  25.697   2.324
47428W        W 6722  28.637  31.954  14.902
47429W        W 6723  25.196  14.277  11.012
47430W        W 6724  16.089  39.004   4.743
47431W        W 6725  28.445  34.514   0.437
47432W        W 6726  35.973  40.925  12.554
47433W        W 6727  23.579   1.268  12.962
47434W        W 6728  41.348  14.589   4.326
47435W        W 6729  33.078  19.230  12.901
47436W        W 6730   7.748  43.273   2.750
47437W        W 6731  24.616   2.959   1.896
47438W        W 6732   4.930  26.560  12.069
47439W        W 6733  23.005  39.066   2.363
47440W        W 6734  14.723  16.695   1.899
47441W        W 6735   9.731  42.940  13.983
47442W        W 6736  41.444  21.533  11.021
47443W        W 6737   2.230  43.881  11.511
47444W        W 6738  26.518  23.525  13.940
47445W        W 6739  10.672  29.021  14.803
47446W        W 6740  26.580   9.795   2.902
47447W        W 6741  39.314  30.095   1.328
47448W        W 6742  32.404   4.756  12.949
47449W        W 6743   5.256  24.622   0.876
47450W        W 6744  11.629   7.308   4.173
47451W        W 6745  20.201  26.509  11.469
47452W        W 6746  43.934  21.738  10.588
47453W        W 6747  35.039  27.668   1.272
47454W        W 6748  34.544   9.720   2.870
47455W        W 6749  27.522  11.756   4.268
47456W        W 6750   2.948   5.717  14.451
47457W        W 6751  21.648  30.088   4.669
47458W        W 6752  28.052  19.743  14.413
47459W        W 6753  24.714  43.812   0.278
47460W        W 6754  10.185  38.439   3.306
47461W        W 6755  29.021  25.104  14.512
47462W        W 6756  42.995  13.227   3.850
47463W        W 6757  18.063  36.978  13.520
47464W        W 6758   0.367  33.888  10.477
47465W        W 6759  43.343  41.854  14.854
47466W        W 6760  35.492  15.267   1.714
47467W        W 6761  32.567  29.084   3.311
47468W        W 6762  23.522  16.606  13.441
47469W        W 6763  28.102  35.397  12.903
47470W        W 6764  16.634  37.039  10.920
47471W        W 6765   8.662  16.291   3.721
47472W        W 6766  38.463  26.689   0.457
47473W        W 6767  32.562  25.044   0.261
47474W        W 6768   3.825  16.094   3.839
47475W        W 6769   6.769  13.171   4.151
47476W        W 6770  29.086  29.055   2.793
47477W        W 6771  24.230  34.396  11.375
47478W        W 6772  12.317  13.825  11.112
47479W        W 6773   9.776  16.311  14.949
47480W        W 6774  36.443  15.093   1.395
47481W        W 6775  19.238  27.140   1.425
47482W        W 6776  13.108  23.194   4.336
47483W        W 6777  15.250  32.071  12.030
47484W        W 6778  39.973  39.832   0.313
47485W        W 6779  23.139  12.769   3.720
47486W        W 6780  11.220  37.856  14.029
47487W        W 6781  37.403  17.129  11.105
47488W        W 6782   9.656  32.929   1.706
47489W        W 6783   8.231  13.173   0.243
47490W        W 6784  13.133  43.487   1.723
47491W        W 6785  29.131  29.167  10.423
47492W        W 6786  27.457   3.400   0.773
47493W        W 6787  41.935  37.353  11.888
47494W        W 6788  15.139  22.621   0.279
47495W        W 6789  32.536  37.897  10.971
47496W        W 6790  38.860  36.402   4.708
47497W        W 6791  16.758  38.516  12.022
47498W        W 6792   5.435   7.314  10.914
47499W        W 6793  33.518  11.308   0.344
47500W        W 6794  11.186  24.130   0.321
47501W        W 6795  34.466  32.557   0.249
47502W        W 6796  26.207   4.317   2.275
47503W        W 6797  40.019  44.312   2.843
47504W        W 6798  11.197  34.056  14.328
47505W        W 6799   9.824   2.938   3.735
47506W        W 6800  10.220   7.828   1.389
47507W        W 6801  23.185   1.412   1.371
47508W        W 6802  29.492  11.689   2.695
47509W        W 6803  44.277  41.424   3.852
47510W        W 6804  44.859  23.701  10.993
47511W        W 6805  41.949   6.421   3.313
47512W        W 6806   3.431  32.049  13.421
47513W        W 6807  17.271  20.676  10.024
47514W        W 6808  40.460  30.145   3.365
47515W        W 6809  22.106  14.177  14.449
47516W        W 6810  14.821   5.269  12.955
47517W        W 6811  13.311  29.163   4.648
47518W        W 6812  13.146  13.269  12.018
47519W        W 6813  36.884  28.053   1.753
47520W        W 6814  34.954  43.903  13.411
47521W        W 6815  23.730  39.902   3.696
47522W        W 6816  44.475  42.468   3.184
47523W        W 6817   0.408  32.923  12.372
47524W        W 6818   3.399  41.919   3.275
47525W        W 6819  19.622  32.140   4.238
47526W        W 6820  35.375   4.760   2.858
47527W        W 6821  28.045   5.264  10.419
47528W        W 6822  39.443  36.913   4.197
47529W        W 6823  37.485  32.597  12.071
47530W        W 6824  24.016  44.975   4.712
47531W        W 6825  32.596  21.705   4.250
47532W        W 6826   9.801   5.200   0.726
47533W        W 6827  39.930  37.866   2.221
47534W        W 6828   8.822  43.279   1.213
47535W        W 6829  37.568  29.113  13.474
47536W        W 6830   2.780  32.613  14.867
47537W        W 6831  32.094  42.845  11.125
47538W        W 6832  37.376  20.632  12.537
47539W        W 6833  25.665  15.107   2.873
47540W        W 6834  10.382   5.257   4.331
47541W        W 6835  19.627  43.332   2.336
47542W        W 6836  35.385  37.345  11.465
47543W        W 6837  14.145  44.339   1.836
47544W        W 6838  34.450   7.227  14.992
47545W        W 6839  42.449  40.322   4.273
47546W        W 6840  42.820  37.068   9.947
47547W        W 6841  30.956  12.750   1.865
47548W        W 6842  32.975  40.311  14.280
47549W        W 6843  27.197  20.638  11.530
47550W        W 6844   9.752   1.850  11.020
47551W        W 6845  44.865  28.961   2.393
47552W        W 6846  15.725  32.934  10.436
47553W        W 6847   0.304  23.024   3.304
47554W        W 6848  32.025  29.450   4.299
47555W        W 6849  19.266  29.551   4.632
47556W        W 6850  37.530  20.133  11.033
47557W        W 6851   0.854  42.010  13.398
47558W        W 6852  39.313  42.019  10.536
47559W        W 6853  19.678  10.289   4.794
47560W        W 6854  40.418  32.569  11.947
47561W        W 6855   7.675  35.925  12.400
47562W        W 6856   4.940  42.954   4.680
47563W        W 6857   3.401  32.895  10.904
47564W        W 6858   2.399  26.486   0.293
47565W        W 6859  31.584  22.630   3.265
47566W        W 6860   2.419   9.325  10.479
47567W        W 6861  36.920   7.349  14.392
47568W        W 6862  25.168  44.904  12.472
47569W        W 6863  25.700   4.406   3.789
47570W        W 6864  26.675  44.983  14.767
47571W        W 6865  43.870  12.742  12.843
47572W        W 6866  38.053  44.311   1.218
47573W        W 6867  21.548  13.331   2.715
47574W        W 6868  37.539  15.607   2.812
47575W        W 6869  44.381  24.710  14.801
47576W        W 6870  12.627   5.811  12.859
47577W        W 6871  18.657  12.631   3.263
47578W        W 6872  24.541   4.406   1.730
47579W        W 6873  44.341  41.365  10.532
47580W        W 6874  38.041   8.725  13.865
47581W        W 6875   9.844  31.624   0.779
47582W        W 6876  29.454   0.422  13.000
47583W        W 6877   7.299  41.324  10.634
47584W        W 6878  19.193  10.285  11.993
47585W        W 6879  28.185  44.873   4.733
47586W        W 6880   9.235  26.512   0.351
47587W        W 6881  18.719   8.772   3.385
47588W        W 6882  18.646   2.851  12.083
47589W        W 6883  26.586   6.318   3.304
47590W        W 6884   7.299   7.722   3.235
47591W        W 6885  26.625  11.294  14.894
47592W        W 6886  27.960   7.226   1.445
47593W        W 6887   5.283  39.036  13.343
47594W        W 6888  33.961  38.536   2.315
47595W        W 6889   5.784  23.579  14.821
47596W        W 6890  43.010   2.235   2.678
47597W        W 6891  39.319  11.651   1.779
47598W        W 6892  21.726  30.656   3.665
47599W        W 6893  41.979  16.133   3.761
47600W        W 6894  40.360   1.967   1.436
47601W        W 6895  27.605  30.005   1.246
47602W        W 6896   4.273  33.625   2.729
47603W        W 6897  36.968  13.656   0.458
47604W        W 6898   2.238   0.898   3.807
47605W        W 6899  18.241   4.239   3.766
47606W        W 6900  35.401  26.993  11.590
47607W        W 6901  41.006   0.291  10.579
47608W        W 6902  31.553   1.823   3.152
47609W        W 6903  40.406   1.323   3.631
47610W        W 6904   1.751  37.424   4.223
47611W        W 6905  39.033   7.207  14.012
47612W        W 6906  12.190   9.355   4.675
47613W        W 6907  26.511  21.096  10.497
47614W        W 6908   6.243  10.307   5.232
47615W        W 6909  26.679  20.675   4.259
47616W        W 6910   1.967  33.566   4.204
47617W        W 6911  35.469  28.662   0.351
47618W        W 6912  21.057  31.555  11.490
47619W        W 6913  11.307  14.270  13.324
47620W        W 6914   1.889  30.907  14.469
47621W        W 6915  29.160  14.813  14.318
47622W        W 6916  11.854  29.567   1.274
47623W        W 6917  28.019  32.947  11.431
47624W        W 6918   3.821  30.517  13.527
47625W        W 6919  37.348  33.928   0.948
47626W        W 6920  20.202  27.692   0.352
47627W        W 6921  24.112   5.264  14.309
47628W        W 6922  22.223  23.219  10.529
47629W        W 6923  28.979  21.749  11.864
47630W        W 6924  41.927   2.338   4.241
47631W        W 6925   9.306  37.424  11.977
47632W        W 6926  38.887  41.970  10.635
47633W        W 6927  26.107  12.195  12.453
47634W        W 6928  32.032  31.479  10.993
47635W        W 6929  42.821  31.483   1.893
47636W        W 6930  44.867   5.687   1.302
47637W        W 6931   6.834   6.285  10.607
47638W        W 6932  33.130  21.578  12.493
47639W        W 6933   4.228  18.689   4.257
47640W        W 6934  20.225  24.625   0.471
47641W        W 6935  17.576  24.663  12.518
47642W        W 6936  12.853  38.392  11.385
47643W        W 6937  12.811  42.527  12.365
47644W        W 6938   1.954  19.182   3.258
47645W        W 6939  21.608  34.005  13.435
47646W        W 6940  31.142   0.798   0.288
47647W        W 6941  25.127  36.972  12.943
47648W        W 6942  28.553  10.768   4.639
47649W        W 6943  31.139  38.452   3.256
47650W        W 6944  12.722  21.167   4.152
47651W        W 6945  35.044  20.160   2.736
47652W        W 6946  15.121   9.370   0.892
47653W        W 6947  13.724  21.254  12.833
47654W        W 6948  26.630  36.409  11.511
47655W        W 6949  27.638  39.839  10.085
47656W        W 6950  21.746   6.842  11.862
47657W        W 6951  41.008  31.426   2.682
47658W        W 6952  10.305  24.183   4.257
47659W        W 6953   0.830  44.261  12.514
47660W        W 6954  26.169  24.996  11.000
47661W        W 6955  36.519  20.115  11.612
47662W        W 6956  43.887  10.218  11.392
47663W        W 6957  35.990   2.908  14.469
47664W        W 6958  28.011  24.015  13.023
47665W        W 6959  24.684   5.420   5.101
47666W        W 6960  21.526  41.326   5.175
47667W        W 6961  15.773  12.633  12.994
47668W        W 6962  20.538  37.990  12.351
47669W        W 6963  23.164  43.477   1.727
47670W        W 6964   9.696  41.036  10.615
47671W        W 6965  31.464   5.243  14.879
47672W        W 6966  17.587  36.398  10.580
47673W        W 6967   6.720  23.098  14.898
47674W        W 6968  29.021  29.514   2.680
47675W        W 6969  39.060   9.815   3.867
47676W        W 6970  35.372   4.399   2.349
47677W        W 6971  17.722   5.881   3.160
47678W        W 6972  20.720  28.935   4.127
47679W        W 6973  40.871   4.274   4.314
47680W        W 6974  12.141  16.298  13.888
47681W        W 6975  15.604  39.322  10.444
47682W        W 6976   2.303   8.785  10.976
47683W        W 6977   1.795   0.746   3.172
47684W        W 6978  13.138   5.907  10.952
47685W        W 6979  40.892  43.895   2.357
47686W        W 6980  23.196  27.531  12.978
47687W        W 6981  42.937  11.669   4.786
47688W        W 6982   3.367   3.269  13.861
47689W        W 6983  22.719  16.219  14.364
47690W        W 6984  38.422  32.955   1.421
47691W        W 6985  18.185  43.980   2.886
47692W        W 6986  43.429  21.565   4.220
47693W        W 6987  15.626  40.376   4.665
47694W        W 6988   1.924  27.540   2.320
47695W        W 6989  15.164  14.299  14.368
47696W        W 6990   6.918  28.631   3.357
47697W        W 6991  19.054  44.304   2.696
47698W        W 6992  28.607  25.029  11.866
47699W        W 6993  44.844  42.976  11.573
47700W        W 6994   2.813  10.197  11.100
47701W        W 6995  39.819  14.611  10.951
47702W        W 6996  20.212  40.507  13.998
47703W        W 6997   6.298  41.974  11.070
47704W        W 6998  19.123  44.847   4.214
47705W        W 6999   3.245  39.849   3.195
47706W        W 7000  31.549   5.371   1.756
47707W        W 7001  35.991  36.070   5.108
47708W        W 7002  30.658  36.533   0.890
47709W        W 7003  41.433  23.673   2.829
47710W        W 7004  20.169  33.553  14.356
47711W        W 7005  22.007   0.853   4.218
47712W        W 7006  29.489  19.658   2.853
47713W        W 7007   6.365  16.291   1.808
47714W        W 7008  23.674  41.499  14.940
47715W        W 7009  16.217  37.452   3.320
47716W        W 7010  14.756   2.865  14.774
47717W        W 7011  16.753  35.902  14.390
47718W        W 7012  30.096   7.905  13.468
47719W        W 7013  40.476  32.107  12.504
47720W        W 7014  41.820  44.778  13.413
47721W        W 7015  29.148  27.179   1.297
47722W        W 7016   1.471  24.694   3.238
47723W        W 7017  11.688  18.099  11.559
47724W        W 7018  40.999  21.078   2.861
47725W        W 7019  23.522  23.183   2.384
47726W        W 7020  25.123   3.348  11.478
47727W        W 7021  26.053  24.215   4.234
47728W        W 7022   0.847  29.603  13.901
47729W        W 7023   5.435  17.608  12.501
47730W        W 7024  16.772  31.423   0.439
47731W        W 7025  42.496  19.177  11.965
47732W        W 7026  17.627  36.856  13.425
47733W        W 7027  42.884   7.250   0.746
47734W        W 7028  36.482  41.815   0.370
47735W        W 7029  36.463  25.994  14.966
47736W        W 7030  36.948  27.953   4.789
47737W        W 7031   8.764  34.999  11.595
47738W        W 7032   4.803  27.664  14.311
47739W        W 7033  33.993  31.590   0.458
47740W        W 7034  19.627  31.966  13.054
47741W        W 7035  21.658  31.473  13.448
47742W        W 7036  36.086   5.301  13.513
47743W        W 7037  28.591  21.236   2.213
47744W        W 7038  12.356  14.758  13.337
47745W        W 7039   4.379  29.619   3.678
47746W        W 7040  12.684   9.315   0.439
47747W        W 7041   3.373  42.934  13.544
47748W        W 7042  26.533  40.907  13.405
47749W        W 7043   7.749  44.484  11.381
47750W        W 7044  32.072  35.592  13.508
47751W        W 7045  29.588  14.307   0.352
47752W        W 7046  35.567  23.603   3.719
47753W        W 7047   2.307  32.007  14.363
47754W        W 7048  22.687   1.320   2.231
47755W        W 7049  12.691  22.682  13.326
47756W        W 7050  31.440  36.096   0.404
47757W        W 7051  44.821  40.476   1.440
47758W        W 7052   7.177  12.646   2.716
47759W        W 7053   7.745   5.348   4.233
47760W        W 7054  40.960  37.434   4.350
47761W        W 7055  14.657  29.653  11.963
47762W        W 7056  17.274  38.517   2.236
47763W        W 7057  43.795  15.755   3.650
47764W        W 7058  43.501   3.349  14.777
47765W        W 7059  35.880  11.672  13.044
47766W        W 7060  17.559  11.138  13.515
47767W        W 7061  14.816  24.227  12.073
47768W        W 7062  31.069  43.350   2.757
47769W        W 7063  18.739  27.061  13.797
47770W        W 7064  29.594  12.191   2.256
47771W        W 7065  13.251  27.691  14.358
47772W        W 7066   0.848   1.876   9.960
47773W        W 7067  12.770  24.509  11.926
47774W        W 7068  42.458  20.233   4.140
47775W        W 7069  34.003  25.997   3.298
47776W        W 7070  20.173  27.459  12.480
47777W        W 7071  28.523  41.950   4.835
47778W        W 7072  33.957  40.931  11.526
47779W        W 7073  28.638  39.837  14.973
47780W        W 7074  11.768  17.064  13.438
47781W        W 7075   4.735  40.487   9.995
47782W        W 7076  12.180   3.361  10.954
47783W        W 7077  17.246  19.621  10.987
47784W        W 7078  31.939  18.563  12.823
47785W        W 7079  38.851   5.422  13.999
47786W        W 7080  10.362  31.121  14.954
47787W        W 7081   6.333  31.436   2.759
47788W        W 7082  13.630  43.020   4.309
47789W        W 7083  34.892  15.584  10.889
47790W        W 7084   2.722  25.028  10.466
47791W        W 7085  27.462  33.949  12.009
47792W        W 7086  23.112  19.754  12.964
47793W        W 7087   7.738  23.192  12.413
47794W        W 7088  29.923  16.126  11.109
47795W        W 7089   2.941  31.599  12.023
47796W        W 7090   4.808  37.908   2.673
47797W        W 7091  31.153  14.112   3.856
47798W        W 7092  27.670  26.193  12.460
47799W        W 7093  37.939  42.797  12.028
47800W        W 7094  20.036   6.870   2.298
47801W        W 7095  11.181  29.931   4.218
47802W        W 7096  35.885  23.209   4.145
47803W        W 7097  13.263  21.743  14.857
47804W        W 7098  29.611  25.630   0.282
47805W        W 7099  22.021   1.924   4.754
47806W        W 7100  36.463  11.210  14.395
47807W        W 7101  34.963  35.981   2.865
47808W        W 7102  43.794  23.227  14.935
47809W        W 7103  12.757   9.170  13.538
47810W        W 7104  40.380   5.733  13.362
47811W        W 7105  16.251  40.404   0.300
47812W        W 7106  42.786  39.505  14.293
47813W        W 7107   6.741  41.422   1.336
47814W        W 7108  12.221  34.406   3.199
47815W        W 7109  23.013   5.767   4.675
47816W        W 7110   7.384   6.248  11.409
47817W        W 7111   0.393  35.951  10.628
47818W        W 7112  30.506   4.265   1.932
47819W        W 7113   9.377  42.892  10.069
47820W        W 7114  29.530  18.056   3.693
47821W        W 7115  22.097  35.094  11.002
47822W        W 7116  43.001  35.029   4.119
47823W        W 7117  25.610  11.707   3.303
47824W        W 7118  42.399   9.886   0.283
47825W        W 7119  22.252  12.727  10.427
47826W        W 7120  12.662  34.898  14.348
47827W        W 7121  26.083  30.085  12.436
47828W        W 7122  34.996  17.258  14.290
47829W        W 7123  34.593  32.006  12.877
47830W        W 7124  30.933  41.389  11.542
47831W        W 7125  21.216   9.329  13.504
47832W        W 7126  42.875  11.636   0.731
47833W        W 7127  27.468  12.780   4.273
47834W        W 7128  12.749   5.402   1.839
47835W        W 7129  38.436  22.018   1.832
47836W        W 7130  42.945   1.439  14.494
47837W        W 7131   3.430  40.975  14.493
47838W        W 7132  41.800  18.294  12.991
47839W        W 7133  22.019  12.204   1.710
47840W        W 7134  21.659  33.480  10.426
47841W        W 7135  30.538  41.496   0.814
47842W        W 7136  34.510  41.528   0.907
47843W        W 7137  38.831  37.918  10.462
47844W        W 7138  32.913  44.293   2.370
47845W        W 7139   0.872  24.221   1.869
47846W        W 7140   9.218  41.306   4.832
47847W        W 7141  25.174  25.096  10.963
47848W        W 7142  18.113  17.115  11.052
47849W        W 7143  30.061  11.861   0.783
47850W        W 7144   6.875  26.130  14.811
47851W        W 7145   2.899   7.345   0.877
47852W        W 7146   6.883  39.032  10.575
47853W        W 7147  29.138   5.414   3.740
47854W        W 7148  14.161  42.787  10.487
47855W        W 7149  41.882  11.311   1.746
47856W        W 7150  38.484  26.459   2.347
47857W        W 7151  37.077  36.446  13.025
47858W        W 7152  35.019  15.237  10.952
47859W        W 7153  38.932   7.819  14.989
47860W        W 7154   9.368  15.222   0.364
47861W        W 7155  14.124   1.365  13.868
47862W        W 7156  38.487   8.679  13.026
47863W        W 7157  18.627  24.097   0.738
47864W        W 7158  40.505  32.127   4.706
47865W        W 7159  28.064  37.502  11.872
47866W        W 7160  26.107  37.839   1.738
47867W        W 7161  11.647  23.235   0.949
47868W        W 7162  16.609  44.779  12.925
47869W        W 7163   2.796  41.492   1.826
47870W        W 7164   8.719  27.013  14.031
47871W        W 7165  27.468  25.161   1.843
47872W        W 7166   3.351  23.611  10.477
47873W        W 7167   2.450  24.501   2.719
47874W        W 7168  42.364  43.916   3.862
47875W        W 7169  40.379  28.068   1.353
47876W        W 7170   8.378  38.888  12.563
47877W        W 7171  22.155   1.951  14.818
47878W        W 7172  23.004  14.694   0.855
47879W        W 7173   7.367  14.817   4.758
47880W        W 7174  33.485  16.636  12.546
47881W        W 7175  20.764   0.787  12.350
47882W        W 7176  12.648  27.572   2.703
47883W        W 7177  35.543   4.211   1.751
47884W        W 7178  17.761  17.209   2.726
47885W        W 7179  29.545   4.772   1.789
47886W        W 7180   9.150  30.415  14.893
47887W        W 7181   4.262  27.958  10.417
47888W        W 7182  14.765  18.611  11.524
47889W        W 7183  16.806  39.850  12.559
47890W        W 7184  44.386  42.471  10.990
47891W        W 7185  20.676  17.667   4.751
47892W        W 7186  39.055  10.635  11.593
47893W        W 7187   4.749   3.757   1.773
47894W        W 7188  42.375  34.476   4.767
47895W        W 7189  37.533  29.616  11.963
47896W        W 7190  14.100  17.802  10.479
47897W        W 7191   5.924   8.177   3.183
47898W        W 7192  22.667  18.163   2.360
47899W        W 7193  17.168  28.678  13.412
47900W        W 7194  27.483  31.420  10.452
47901W        W 7195  34.613  21.742  14.321
47902W        W 7196   3.746  15.274  13.312
47903W        W 7197  31.935  42.865  11.528
47904W        W 7198   0.294  39.999   3.229
47905W        W 7199  31.042  38.420  11.552
47906W        W 7200  38.016  17.645  11.921
47907W        W 7201  26.200  35.427   3.642
47908W        W 7202  17.611  26.087  14.388
47909W        W 7203  38.509   8.159   3.845
47910W        W 7204  32.587  11.836  10.111
47911W        W 7205  28.643  31.484   0.882
47912W        W 7206   1.875  32.066   4.768
47913W        W 7207   2.894  15.631   0.257
47914W        W 7208   5.802  28.492   4.786
47915W        W 7209  21.102  21.574   1.421
47916W        W 7210  25.548  10.866   3.366
47917W        W 7211  44.906  39.817  12.919
47918W        W 7212   0.342  34.414   0.473
47919W        W 7213  32.023  33.088   3.744
47920W        W 7214  16.711  28.667  11.551
47921W        W 7215   0.856  43.924  12.516
47922W        W 7216  31.505  24.068  14.923
47923W        W 7217  11.715   3.749   1.223
47924W        W 7218  23.694  42.793  11.378
47925W        W 7219   2.386   2.855   0.330
47926W        W 7220  19.238  35.006  12.344
47927W        W 7221  27.126  32.596  12.852
47928W        W 7222  28.059  21.210   0.922
47929W        W 7223  32.465  43.862  12.934
47930W        W 7224   5.875  30.155  11.478
47931W        W 7225  32.126   9.394  11.040
47932W        W 7226  22.689  41.955   2.324
47933W        W 7227   7.823  39.945  12.510
47934W        W 7228   3.823   0.805  11.569
47935W        W 7229  12.210  24.172  11.465
47936W        W 7230  24.589  37.000  12.998
47937W        W 7231  17.670  43.790  10.574
47938W        W 7232  14.636  35.949  12.339
47939W        W 7233  38.481  23.604   4.768
47940W        W 7234   7.687   9.365  10.526
47941W        W 7235  21.561  43.441   2.383
47942W        W 7236  21.604  12.302  12.381
47943W        W 7237  26.616  35.014   5.179
47944W        W 7238  13.600  18.125   0.464
47945W        W 7239  17.775  35.892   3.184
47946W        W 7240  35.600  24.596   0.896
47947W        W 7241  13.329  43.451  10.474
47948W        W 7242   3.439  37.548   4.730
47949W        W 7243  18.217  44.390  14.276
47950W        W 7244  20.712   1.427  14.887
47951W        W 7245  41.811  12.170   1.420
47952W        W 7246  30.007  11.169   1.798
47953W        W 7247  15.592   1.254  14.446
47954W        W 7248  38.058  13.262   1.299
47955W        W 7249  44.955   1.973  13.807
47956W        W 7250  32.998   0.337  11.026
47957W        W 7251  44.356  16.679   3.662
47958W        W 7252  16.186  31.487  11.473
47959W        W 7253  25.011  33.398   0.341
47960W        W 7254  23.552  42.029   4.821
47961W        W 7255  36.917  24.574   2.703
47962W        W 7256  23.587  10.795   4.202
47963W        W 7257   2.839  14.793   1.425
47964W        W 7258  44.470  15.180   4.750
47965W        W 7259  16.631   9.392  12.087
47966W        W 7260  14.118  13.640   1.325
47967W        W 7261  21.703   7.358   0.874
47968W        W 7262  44.786  18.080  11.449
47969W        W 7263  41.998  38.993   5.167
47970W        W 7264  17.731  24.694   2.798
47971W        W 7265  11.329   8.294   2.419
47972W        W 7266  23.558  16.278   2.235
47973W        W 7267  19.668  36.491  12.434
47974W        W 7268  11.645  34.952  13.405
47975W        W 7269  17.133   7.795  12.051
47976W        W 7270   6.896  34.040  14.392
47977W        W 7271  39.504  32.120  12.028
47978W        W 7272  11.739  41.312  12.839
47979W        W 7273  22.049  17.168   0.911
47980W        W 7274  24.081  24.484  12.368
47981W        W 7275  21.097  38.363  10.597
47982W        W 7276   6.205   7.726   0.766
47983W        W 7277  22.031  36.407  10.487
47984W        W 7278  40.328  29.580   3.638
47985W        W 7279  27.046  26.150  11.049
47986W        W 7280  44.856  34.938  12.833
47987W        W 7281  36.891  25.152  11.068
47988W        W 7282  12.733  34.583  12.577
47989W        W 7283  42.360   2.858  11.416
47990W        W 7284  20.576  20.250  14.383
47991W        W 7285  44.796  12.268  14.439
47992W        W 7286   6.359   4.735  12.387
47993W        W 7287  35.477  34.971  10.064
47994W        W 7288   9.680  40.860  12.038
47995W        W 7289  43.861  13.227  13.474
47996W        W 7290  32.590  39.826   3.213
47997W        W 7291  29.056  41.982  11.082
47998W        W 7292  11.838  38.022   4.601
47999W        W 7293  44.968   2.729  12.839
48000W        W 7294  14.168  16.093  11.065
48001W        W 7295   4.246  27.679   2.243
48002W        W 7296  15.769  43.920  13.001
48003W        W 7297  36.007  33.555  11.430
48004W        W 7298  44.443  40.029  10.407
48005W        W 7299  14.118  19.693   5.137
48006W        W 7300  13.176   0.480   2.675
48007W        W 7301  32.498  18.242   4.645
48008W        W 7302  11.262   9.280  14.361
48009W        W 7303  17.601  16.093   0.877
48010W        W 7304  21.176  15.243   1.844
48011W        W 7305  35.565  28.630   3.187
48012W        W 7306   1.931  25.121  11.532
48013W        W 7307  14.142  11.329  12.028
48014W        W 7308  44.832  18.571   4.347
48015W        W 7309  27.566   5.252   0.331
48016W        W 7310  14.326   9.196   2.826
48017W        W 7311   8.833  44.341   3.813
48018W        W 7312  24.495  23.028  12.887
48019W        W 7313  11.237   9.172   0.910
48020W        W 7314  19.662   7.684   5.116
48021W        W 7315   0.448  23.580  10.606
48022W        W 7316  14.662  18.672  13.377
48023W        W 7317  33.104  44.812   1.402
48024W        W 7318   6.780  30.159   4.693
48025W        W 7319  33.442  35.365  11.550
48026W        W 7320  37.029  23.661  11.587
48027W        W 7321  11.128  15.632   3.284
48028W        W 7322   5.265  10.368  11.011
48029W        W 7323  14.633   4.354   0.419
48030W        W 7324  27.145   5.755   0.727
48031W        W 7325   3.864  19.161  13.950
48032W        W 7326  12.822  13.665  12.833
48033W        W 7327  21.621  30.053  14.510
48034W        W 7328  35.935  17.295  14.448
48035W        W 7329  37.497   7.307   3.672
48036W        W 7330   8.179  38.364   3.815
48037W        W 7331  25.208  14.223  11.504
48038W        W 7332  21.191  22.673   0.792
48039W        W 7333  30.591  13.693   1.436
48040W        W 7334  28.085  34.526  11.555
48041W        W 7335  26.022  34.987  12.088
48042W        W 7336  22.587  22.204   3.286
48043W        W 7337   0.868  18.112  14.780
48044W        W 7338  30.554  13.351   1.285
48045W        W 7339  41.292  29.477  10.499
48046W        W 7340  38.884   1.899  12.867
48047W        W 7341  34.072  11.294  11.462
48048W        W 7342   2.929  20.060  13.421
48049W        W 7343   2.272  33.010   2.747
48050W        W 7344  11.773  21.229  10.438
48051W        W 7345   1.256  25.524  10.919
48052W        W 7346  29.005  42.803  14.772
48053W        W 7347   2.258  27.014   1.746
48054W        W 7348  24.224   9.308   0.341
48055W        W 7349  41.984  38.533  13.950
48056W        W 7350   4.246  14.598   2.717
48057W        W 7351  13.820  31.049   1.445
48058W        W 7352  15.161  24.017   0.279
48059W        W 7353  19.206  12.821   1.375
48060W        W 7354  35.008  33.540   4.259
48061W        W 7355  11.763  28.521   4.315
48062W        W 7356  12.680  40.909  11.451
48063W        W 7357   9.246   6.882  14.360
48064W        W 7358  42.032  15.671   2.363
48065W        W 7359  31.640   4.720  13.801
48066W        W 7360  25.060   6.765   3.818
48067W        W 7361  21.592  30.003   1.784
48068W        W 7362  38.908  13.257   1.888
48069W        W 7363  11.279   0.982  12.092
48070W        W 7364  34.994   5.315  14.806
48071W        W 7365  43.459  17.642  14.900
48072W        W 7366  13.627   0.456   3.369
48073W        W 7367  12.325  35.103  11.387
48074W        W 7368  17.121  29.450  11.489
48075W        W 7369  42.804   1.909   2.824
48076W        W 7370  33.578  33.580   2.206
48077W        W 7371  35.397  27.480   1.390
48078W        W 7372  36.951   6.704   3.306
48079W        W 7373  16.654  42.459  14.950
48080W        W 7374  43.507  31.484  14.897
48081W        W 7375  25.011  12.771  11.945
48082W        W 7376   1.816  39.050   1.852
48083W        W 7377  44.802  30.992  14.331
48084W        W 7378  42.881  37.973  13.365
48085W        W 7379  40.804  21.745  10.435
48086W        W 7380   1.458  35.003   4.339
48087W        W 7381   8.193   6.309  12.560
48088W        W 7382  41.404   3.821  13.536
48089W        W 7383  37.988  34.076   1.770
48090W        W 7384  13.345  27.032   4.661
48091W        W 7385  12.177  29.507   4.225
48092W        W 7386  22.229   8.387  12.343
48093W        W 7387  16.604  37.920   4.753
48094W        W 7388  18.762  18.150   2.211
48095W        W 7389  26.695  30.007  11.956
48096W        W 7390  11.660   6.191  11.408
48097W        W 7391  13.228   2.231   1.212
48098W        W 7392  23.660  43.909  10.529
48099W        W 7393   4.268  37.959   3.774
48100W        W 7394   2.744  28.120  11.585
48101W        W 7395  17.708  23.501  13.981
48102W        W 7396  35.954  16.575  13.866
48103W        W 7397   6.830  33.901  11.414
48104W        W 7398  32.911   5.829  14.301
48105W        W 7399  29.040   8.312  12.964
48106W        W 7400  39.817  32.006  10.507
48107W        W 7401  38.826  38.384   0.383
48108W        W 7402   8.823  37.518  13.468
48109W        W 7403  37.845  30.006   4.775
48110W        W 7404  28.121  28.108  11.012
48111W        W 7405  18.258  44.005   3.681
48112W        W 7406  24.681  42.974   0.287
48113W        W 7407  40.840  24.545  13.481
48114W        W 7408  39.010  33.530   2.261
48115W        W 7409  24.230  36.436  14.343
48116W        W 7410  43.458  35.922  13.331
48117W        W 7411  21.208  33.084   1.314
48118W        W 7412  19.122   3.405   1.341
48119W        W 7413   8.218   9.676  14.286
48120W        W 7414   9.225  20.232   3.844
48121W        W 7415   7.828   7.181   3.224
48122W        W 7416  27.127  17.287   0.420
48123W        W 7417  31.022  36.360   0.825
48124W        W 7418  30.982  42.935  13.013
48125W        W 7419   2.426   4.734  12.843
48126W        W 7420  33.579  22.093   1.296
48127W        W 7421   6.896  17.767   1.924
48128W        W 7422  41.935  19.093   1.795
48129W        W 7423  10.753  29.507  11.533
48130W        W 7424  10.777  21.055  11.405
48131W        W 7425  43.969  11.313   2.724
48132W        W 7426  17.066  44.948  11.066
48133W        W 7427  25.187  18.726   5.181
48134W        W 7428  32.438  41.419   3.656
48135W        W 7429  39.356   4.297  13.003
48136W        W 7430  12.833  23.047  13.446
48137W        W 7431  33.608  13.661   4.122
48138W        W 7432  11.670  38.938  11.416
48139W        W 7433   4.896  10.313  10.598
48140W        W 7434  30.624  32.885   1.898
48141W        W 7435  14.683   6.251   4.151
48142W        W 7436  35.477  19.682   0.379
48143W        W 7437  39.051  37.864   1.832
48144W        W 7438   4.363  34.870  14.793
48145W        W 7439  30.494   0.391   4.299
48146W        W 7440  10.361   5.288   0.278
48147W        W 7441  15.181  27.122  13.368
48148W        W 7442  44.350  42.323  10.484
48149W        W 7443  35.552  41.363  13.500
48150W        W 7444  33.386  19.211  14.320
48151W        W 7445  23.707  19.256  13.034
48152W        W 7446   6.257  33.972   2.210
48153W        W 7447  41.808   0.926   1.439
48154W        W 7448  17.204  17.141  12.026
48155W        W 7449  17.560   5.397  13.377
48156W        W 7450  44.984  43.512  13.323
48157W        W 7451   4.277  22.072   3.163
48158W        W 7452  35.074  43.438   3.835
48159W        W 7453  33.942  11.626  10.625
48160W        W 7454  42.807  22.027  10.039
48161W        W 7455  23.588   6.913  14.282
48162W        W 7456  21.240  22.636   3.701
48163W        W 7457   0.944  14.666   4.272
48164W        W 7458  11.187  19.625  10.573
48165W        W 7459  38.919  28.660   1.858
48166W        W 7460   0.771  37.990   0.734
48167W        W 7461  13.238  16.669  13.008
48168W        W 7462  39.486  41.019   1.727
48169W        W 7463  11.683   6.849   1.344
48170W        W 7464  33.897  11.362   0.726
48171W        W 7465  35.444   5.752  14.810
48172W        W 7466  33.597  26.147  12.384
48173W        W 7467  39.463  24.658   3.162
48174W        W 7468  24.712   3.895   4.606
48175W        W 7469  29.046  21.697  11.566
48176W        W 7470   4.260  33.389  13.458
48177W        W 7471  29.035   2.297   1.261
48178W        W 7472  28.601  22.601   2.789
48179W        W 7473  43.841   2.264  14.451
48180W        W 7474   9.278  29.543   2.772
48181W        W 7475   6.679  43.810   1.896
48182W        W 7476  26.504  27.593   2.254
48183W        W 7477  11.755   5.932   2.809
48184W        W 7478   4.918  25.085  14.958
48185W        W 7479  12.813  44.901  11.066
48186W        W 7480  15.117   0.911   0.360
48187W        W 7481  18.636   8.222  12.863
48188W        W 7482  11.215  39.950   3.272
48189W        W 7483   0.399   7.292   2.665
48190W        W 7484  30.062  13.168   3.230
48191W        W 7485   2.738   2.828   0.887
48192W        W 7486  40.363  25.074  14.315
48193W        W 7487  44.899   6.306   2.372
48194W        W 7488  25.041  13.212  10.964
48195W        W 7489   1.823  32.985  10.455
48196W        W 7490  20.634  14.644   4.821
48197W        W 7491   7.671  10.663  10.935
48198W        W 7492  11.164  32.044   0.813
48199W        W 7493  13.671  24.038  10.465
48200W        W 7494  18.608  44.316  13.875
48201W        W 7495   8.836  37.416   2.343
48202W        W 7496  28.145  40.833  11.081
48203W        W 7497  33.954   2.470   0.275
48204W        W 7498  32.082  15.640  11.027
48205W        W 7499  37.528  30.978   4.322
48206W        W 7500   2.321  12.714  12.897
48207W        W 7501  33.507  37.465   4.355
48208W        W 7502  15.629   0.447  10.473
48209W        W 7503  20.244  26.085   0.835
48210W        W 7504  24.201   5.234  13.962
48211W        W 7505  24.485   2.747  13.029
48212W        W 7506  35.072  37.898   0.270
48213W        W 7507  34.527  23.033   0.473
48214W        W 7508  32.024  17.718   2.259
48215W        W 7509  36.429  28.577  13.953
48216W        W 7510   6.337  28.455  10.897
48217W        W 7511   3.385  40.536   3.691
48218W        W 7512   6.834   2.239   2.371
48219W        W 7513   0.811  29.076  14.418
48220W        W 7514  29.152  18.051  14.497
48221W        W 7515  23.654  23.038   2.891
48222W        W 7516  21.207  43.017   2.253
48223W        W 7517  40.546  16.595   0.913
48224W        W 7518  17.292  14.109  11.475
48225W        W 7519  37.997  19.191   2.273
48226W        W 7520  44.373  31.042   4.340
48227W        W 7521  13.286  38.937  13.360
48228W        W 7522  12.704  36.860  13.833
48229W        W 7523  14.725  24.033  10.555
48230W        W 7524  32.048  40.835  12.406
48231W        W 7525   6.682  17.259  10.888
48232W        W 7526  11.342  27.650  11.520
48233W        W 7527  16.165  12.173   1.341
48234W        W 7528  34.988  10.286   2.797
48235W        W 7529   3.421  40.811  14.919
48236W        W 7530  21.543  39.939  11.989
48237W        W 7531   3.260  24.007  12.514
48238W        W 7532  17.799  32.074  11.489
48239W        W 7533  25.574  13.192  11.883
48240W        W 7534   1.897   1.403  10.445
48241W        W 7535  34.488  27.472   1.324
48242W        W 7536   4.809   1.325   0.339
48243W        W 7537   2.366  27.083  14.980
48244W        W 7538  34.578  23.724  11.576
48245W        W 7539  25.562  27.124  10.434
48246W        W 7540   4.450  33.394   1.785
48247W        W 7541  39.010   4.413  12.512
48248W        W 7542   0.274  18.741  12.414
48249W        W 7543  29.565  31.456   2.830
48250W        W 7544  41.453  35.926  12.891
48251W        W 7545  11.687  28.143  10.638
48252W        W 7546   5.888  39.822   3.650
48253W        W 7547   1.946  21.160  12.388
48254W        W 7548  25.103  31.927   0.352
48255W        W 7549  17.582  12.246  14.760
48256W        W 7550  31.494  21.101   2.665
48257W        W 7551  17.095  34.447  14.375
48258W        W 7552  13.318  31.040   1.887
48259W        W 7553  33.998   6.223  11.922
48260W        W 7554   5.193  24.633  13.977
48261W        W 7555  37.490  44.797  13.348
48262W        W 7556  29.551   0.984  13.312
48263W        W 7557  23.614   3.424  14.823
48264W        W 7558   6.719  39.542   1.769
48265W        W 7559  40.385  31.018  10.941
48266W        W 7560  33.093   2.912  14.471
48267W        W 7561   2.726  23.583  12.515
48268W        W 7562  24.023  39.837   3.200
48269W        W 7563  44.340  12.790  13.407
48270W        W 7564   1.741  11.142  14.410
48271W        W 7565   9.267   8.794  14.448
48272W        W 7566  39.523  10.308  10.481
48273W        W 7567  37.348  19.771   1.716
48274W        W 7568  32.390  14.678  10.499
48275W        W 7569  29.603  19.724   2.413
48276W        W 7570  25.507  24.661  14.488
48277W        W 7571  16.228   4.899  14.325
48278W        W 7572  43.292  24.024   3.821
48279W        W 7573  21.653  23.677   0.368
48280W        W 7574  12.821  15.655  13.957
48281W        W 7575  15.308  16.224  11.874
48282W        W 7576   9.840  29.993  13.418
48283W        W 7577  22.231  26.553   2.413
48284W        W 7578  24.128  24.987  10.437
48285W        W 7579  21.675  17.145  13.885
48286W        W 7580  16.135  16.140  10.928
48287W        W 7581  37.034  37.469   0.810
48288W        W 7582  43.921  42.305   3.635
48289W        W 7583  35.994   8.360  11.886
48290W        W 7584  15.814  26.511  13.486
48291W        W 7585  28.936   1.828   1.397
48292W        W 7586  11.248  22.678  10.427
48293W        W 7587   5.757  23.017   4.690
48294W        W 7588  17.579  34.868  14.986
48295W        W 7589  29.430  18.177  13.876
48296W        W 7590  24.125  42.361  12.571
48297W        W 7591   5.420   9.247  13.363
48298W        W 7592  19.213   8.746   3.773
48299W        W 7593  44.955  27.539  14.854
48300W        W 7594   2.407  27.446  11.525
48301W        W 7595  44.942  36.027   2.310
48302W        W 7596  44.274  29.162  12.944
48303W        W 7597  17.177  39.815  11.023
48304W        W 7598  44.497  18.226   0.458
48305W        W 7599   3.751   8.731  14.862
48306W        W 7600  27.673   0.327  13.054
48307W        W 7601  27.488  12.733  10.463
48308W        W 7602  31.642  40.946   2.349
48309W        W 7603  25.689  27.058  14.001
48310W        W 7604  12.780   3.862  10.888
48311W        W 7605  41.866   5.762   1.792
48312W        W 7606  34.602  24.479  11.398
48313W        W 7607  26.973  38.824  12.484
48314W        W 7608  44.826  34.514   1.803
48315W        W 7609   9.311  21.540   4.239
48316W        W 7610   0.887  12.766   2.245
48317W        W 7611  37.981  33.051  13.369
48318W        W 7612  34.596  35.498  12.487
48319W        W 7613  32.018  30.498  14.497
48320W        W 7614   2.762  32.507  12.355
48321W        W 7615  20.033   9.851  12.067
48322W        W 7616  10.712  43.900  12.346
48323W        W 7617  27.684   1.346   0.396
48324W        W 7618   1.432   4.896  14.983
48325W        W 7619   4.362  35.862   2.251
48326W        W 7620   6.712  11.278  13.437
48327W        W 7621  25.147  20.176   0.739
48328W        W 7622  11.662  18.577  12.011
48329W        W 7623   0.484   7.833  11.981
48330W        W 7624  21.257   9.801  12.864
48331W        W 7625  23.493  13.175   0.787
48332W        W 7626  31.026  40.815  11.488
48333W        W 7627  27.940  16.115   4.117
48334W        W 7628  19.197  30.959   2.367
48335W        W 7629  10.657  29.578   1.434
48336W        W 7630  42.490  19.681  13.952
48337W        W 7631  29.949   4.349   4.832
48338W        W 7632  35.966  16.680   0.364
48339W        W 7633   5.237   2.721   3.335
48340W        W 7634  33.400  34.501  14.393
48341W        W 7635  36.932  36.413   4.686
48342W        W 7636  26.018  22.995  14.377
48343W        W 7637  33.084  40.838   4.685
48344W        W 7638  14.741  37.855   2.240
48345W        W 7639  12.253   7.285   0.438
48346W        W 7640  44.924  27.188  14.809
48347W        W 7641  44.962  30.027   4.336
48348W        W 7642  20.256   1.902   0.751
48349W        W 7643  36.041  12.311   1.715
48350W        W 7644   2.957   2.839  10.536
48351W        W 7645  32.407  34.428  10.511
48352W        W 7646   9.254  10.374   1.227
48353W        W 7647   0.383  13.731   4.747
48354W        W 7648  12.161  39.036  12.476
48355W        W 7649  37.889  24.035   3.680
48356W        W 7650   5.776  40.017   1.893
48357W        W 7651   1.244  41.975   1.262
48358W        W 7652  32.007  29.569  13.876
48359W        W 7653   8.405  37.561   3.756
48360W        W 7654  35.602   2.358  11.536
48361W        W 7655  25.703  44.979  11.941
48362W        W 7656  11.360  27.167   2.787
48363W        W 7657  41.497  43.399  14.999
48364W        W 7658  39.894  42.285  12.483
48365W        W 7659  27.996  33.557   0.766
48366W        W 7660   7.275  18.296  11.054
48367W        W 7661   8.266  19.127  13.477
48368W        W 7662  41.855  41.017   2.696
48369W        W 7663  12.296  27.674   4.311
48370W        W 7664  24.194   5.384   3.742
48371W        W 7665   2.429  25.985   4.260
48372W        W 7666  28.043  23.028  14.383
48373W        W 7667  16.285  39.956   0.922
48374W        W 7668  30.912  10.280   3.713
48375W        W 7669  20.053  43.871  12.532
48376W        W 7670   3.398   8.295   1.742
48377W        W 7671  19.583  27.616  13.522
48378W        W 7672   9.796  32.534  13.364
48379W        W 7673  36.576  33.020  12.051
48380W        W 7674  20.206  37.499   0.739
48381W        W 7675  44.382  26.628   4.249
48382W        W 7676  20.576   7.335  13.384
48383W        W 7677  33.481  27.185   1.892
48384W        W 7678  10.186  10.299  13.370
48385W        W 7679  43.389  16.240  14.978
48386W        W 7680  44.297  35.063  14.806
48387W        W 7681  28.579  10.213  12.057
48388W        W 7682  27.969  14.719   4.789
48389W        W 7683  16.702  35.430  12.094
48390W        W 7684  44.898  13.652   3.208
48391W        W 7685  26.006  36.396   1.235
48392W        W 7686  19.727  23.505  11.877
48393W        W 7687  22.526   2.435  14.414
48394W        W 7688  37.414  42.425  13.061
48395W        W 7689  26.506  15.701  11.966
48396W        W 7690  33.551  37.385   0.340
48397W        W 7691  28.611   9.804   2.799
48398W        W 7692  38.018  22.144  10.597
48399W        W 7693  10.366  34.907  12.460
48400W        W 7694  39.034   0.979  13.401
48401W        W 7695  21.044  34.929  12.989
48402W        W 7696  38.434  44.921  14.941
48403W        W 7697   3.834   6.830  14.332
48404W        W 7698  36.502  34.065   1.282
48405W        W 7699  35.886  28.015   2.836
48406W        W 7700   1.478  16.589   1.875
48407W        W 7701  40.538  17.265   0.274
48408W        W 7702  38.987  14.786  13.892
48409W        W 7703  11.733  15.731  12.949
48410W        W 7704  37.522   8.837  13.998
48411W        W 7705  31.576   7.903   0.300
48412W        W 7706   8.690  10.723   3.642
48413W        W 7707  14.823  42.524   1.353
48414W        W 7708  36.489   3.421  11.027
48415W        W 7709  35.092  44.370  14.967
48416W        W 7710  40.872  43.489  11.524
48417W        W 7711   4.421   4.219  10.485
48418W        W 7712  38.544  19.190  12.025
48419W        W 7713  26.673  19.239   2.690
48420W        W 7714  22.069  20.230  12.964
48421W        W 7715  36.448  16.294   0.451
48422W        W 7716  29.601   4.214   3.736
48423W        W 7717  36.378  42.434  13.800
48424W        W 7718  27.098  36.065   1.704
48425W        W 7719  29.011  40.501   0.773
48426W        W 7720  39.419  37.996  13.968
48427W        W 7721   1.287  16.203  11.080
48428W        W 7722  42.865  30.112  11.104
48429W        W 7723   6.391  23.589  10.160
48430W        W 7724   6.193  12.824   1.853
48431W        W 7725   2.935   7.716   1.440
48432W        W 7726  25.022  29.647   4.744
48433W        W 7727  40.997  38.959   0.388
48434W        W 7728   4.376  28.521   2.726
48435W        W 7729  23.553  13.640  10.451
48436W        W 7730   7.723  16.275  11.527
48437W        W 7731  28.643   0.253   2.347
48438W        W 7732  10.225  10.710  11.869
48439W        W 7733  24.020   4.874   1.382
48440W        W 7734  27.636  28.020   1.852
48441W        W 7735  30.917  29.603  14.838
48442W        W 7736  41.317  41.430  10.548
48443W        W 7737  39.510  44.277  10.609
48444W        W 7738  35.959  24.217   2.409
48445W        W 7739  25.500  39.977   3.303
48446W        W 7740  36.544  27.990   3.740
48447W        W 7741  16.755  19.061  14.458
48448W        W 7742   7.893  39.314   0.353
48449W        W 7743  24.189  20.247  12.039
48450W        W 7744  26.960   5.906  13.358
48451W        W 7745  42.961  26.036   0.894
48452W        W 7746  23.719  43.328  14.021
48453W        W 7747  22.237  15.733  13.866
48454W        W 7748  42.370  17.743   4.824
48455W        W 7749  43.785   7.887  12.567
48456W        W 7750  42.469  12.288   2.701
48457W        W 7751  23.583  37.410  12.911
48458W        W 7752  12.353  17.100  13.493
48459W        W 7753  17.614  18.726  13.501
48460W        W 7754  23.042  20.124   3.726
48461W        W 7755  13.290  33.489   4.163
48462W        W 7756  29.928  16.105   4.201
48463W        W 7757  18.102  13.290   2.288
48464W        W 7758   7.355  43.844  12.902
48465W        W 7759  17.601  38.360   4.802
48466W        W 7760   5.867  27.647   4.795
48467W        W 7761  27.656  16.690   1.374
48468W        W 7762  23.639  39.913  10.426
48469W        W 7763  32.498  30.990   3.348
48470W        W 7764  10.858  20.050  10.404
48471W        W 7765  37.548  37.004   0.284
48472W        W 7766  27.074  23.089   4.205
48473W        W 7767  40.042  35.535  14.764
48474W        W 7768  24.050  43.887  13.991
48475W        W 7769  31.416   9.797  12.879
48476W        W 7770  43.802   9.761   4.608
48477W        W 7771  43.413  42.454  13.916
48478W        W 7772  35.587   1.400  12.899
48479W        W 7773  19.702  42.423   3.675
48480W        W 7774  40.549  35.859  14.414
48481W        W 7775   6.214  36.945  10.479
48482W        W 7776  22.719  42.516   3.858
48483W        W 7777  33.588  44.402  10.102
48484W        W 7778  37.069   5.228  12.439
48485W        W 7779  41.351  31.496   2.804
48486W        W 7780   5.399  33.128   3.159
48487W        W 7781  39.539  19.094  11.394
48488W        W 7782  32.630  22.195  11.032
48489W        W 7783  25.168  44.926   3.175
48490W        W 7784  20.523  26.691  10.967
48491W        W 7785  35.941  27.117  12.365
48492W        W 7786  17.646  35.370  10.950
48493W        W 7787  34.388   0.874  12.435
48494W        W 7788  19.072  41.930   0.338
48495W        W 7789  40.821  26.117   0.406
48496W        W 7790  24.182  10.719  14.301
48497W        W 7791  17.212   4.330   1.268
48498W        W 7792   5.715  31.488  12.450
48499W        W 7793   8.262   5.844   2.731
48500W        W 7794  23.133  35.939   4.228
48501W        W 7795  26.014  35.028   2.734
48502W        W 7796  27.965   6.365   4.837
48503W        W 7797  22.648  15.738  11.958
48504W        W 7798  37.512  16.804  10.425
48505W        W 7799   5.375   0.427   2.718
48506W        W 7800  17.710  40.812  11.054
48507W        W 7801  14.653  11.342   1.348
48508W        W 7802  14.727  23.018  11.409
48509W        W 7803  18.656  33.987   4.833
48510W        W 7804  29.919   3.858  12.417
48511W        W 7805  25.683  31.517  13.792
48512W        W 7806   7.288  18.714  11.482
48513W        W 7807   3.826   4.270   2.821
48514W        W 7808  16.771  36.876  14.423
48515W        W 7809  28.655  42.402   3.747
48516W        W 7810   4.245  28.149   2.244
48517W        W 7811  42.860  37.000  14.306
48518W        W 7812  11.222  24.665   0.933
48519W        W 7813  14.241  35.501  11.482
48520W        W 7814  38.464   6.807  10.933
48521W        W 7815  38.536  31.139   4.644
48522W        W 7816  44.261   8.691  10.503
48523W        W 7817  39.857   4.864   4.165
48524W        W 7818  27.176   5.329  10.452
48525W        W 7819   9.651  26.164   0.768
48526W        W 7820  22.563  16.768   2.895
48527W        W 7821  18.095   6.406  14.992
48528W        W 7822  31.613  32.002   2.377
48529W        W 7823  36.452  23.490   4.203
48530W        W 7824  20.150  11.700   1.405
48531W        W 7825  28.004  29.078  13.469
48532W        W 7826  33.130  16.644   4.167
48533W        W 7827  21.224   4.716  12.070
48534W        W 7828  41.461   4.768  12.823
48535W        W 7829   1.455  34.905  11.064
48536W        W 7830   9.798  43.515  12.950
48537W        W 7831   0.466  21.244  10.893
48538W        W 7832  41.934  31.919   5.307
48539W        W 7833  10.308  18.116  13.882
48540W        W 7834  42.313  42.894  13.005
48541W        W 7835  36.898  42.837   0.905
48542W        W 7836  21.255   9.732   4.181
48543W        W 7837  23.082  11.229   2.673
48544W        W 7838  22.076  40.383  10.999
48545W        W 7839  42.846  28.951   1.892
48546W        W 7840  13.245  41.938   0.463
48547W        W 7841  36.882   1.270  12.997
48548W        W 7842   8.686  21.198  14.875
48549W        W 7843  21.204  41.380   1.875
48550W        W 7844  36.906  11.782  10.554
48551W        W 7845  44.929  27.588  11.026
48552W        W 7846  30.129  36.466   0.913
48553W        W 7847   4.851  21.218   1.868
48554W        W 7848   2.333   4.383   0.825
48555W        W 7849  22.556  13.621  14.796
48556W        W 7850  20.750  35.866   4.691
48557W        W 7851  29.555  16.726  10.546
48558W        W 7852  27.137  23.029  13.800
48559W        W 7853  27.526  25.038  13.874
48560W        W 7854   4.942  33.939   0.298
48561W        W 7855  37.498  13.763  12.904
48562W        W 7856  20.552  15.679  13.964
48563W        W 7857  35.030  10.756  11.548
48564W        W 7858  25.998   8.721  12.004
48565W        W 7859  17.785  19.733  14.991
48566W        W 7860  40.934  13.761   1.761
48567W        W 7861  28.958  39.395   1.799
48568W        W 7862  31.107   8.375  13.399
48569W        W 7863  42.294  17.678  13.471
48570W        W 7864  13.161   2.839   0.810
48571W        W 7865   2.757   1.476   3.684
48572W        W 7866  27.158  16.164  13.990
48573W        W 7867  42.315  43.418  11.531
48574W        W 7868  18.599  26.199   0.452
48575W        W 7869  21.249  25.106   2.780
48576W        W 7870  30.015  30.066  12.574
48577W        W 7871  26.991  34.608  12.535
48578W        W 7872  26.492   3.711  14.461
48579W        W 7873  18.550  31.137   0.334
48580W        W 7874  28.940  31.529   0.431
48581W        W 7875  32.004  24.082   4.681
48582W        W 7876  20.191  10.777  13.992
48583W        W 7877   1.919  19.053   1.335
48584W        W 7878   4.237  27.139  14.986
48585W        W 7879  31.023  29.583  11.604
48586W        W 7880   3.745  27.510   3.862
48587W        W 7881   4.204  38.558   1.766
48588W        W 7882  17.762  25.538  12.368
48589W        W 7883  14.112  11.771   1.249
48590W        W 7884  40.504  30.648  13.419
48591W        W 7885  20.582  34.578  12.976
48592W        W 7886  16.796  26.644  11.061
48593W        W 7887   9.685  15.724  11.076
48594W        W 7888  37.024  20.698   4.615
48595W        W 7889  20.671  39.482  13.809
48596W        W 7890  22.671  39.558   3.682
48597W        W 7891   1.843  29.084   0.336
48598W        W 7892  17.649  26.206  14.002
48599W        W 7893  24.040  10.184   2.321
48600W        W 7894  30.917   1.754  11.554
48601W        W 7895  43.383  28.661   1.363
48602W        W 7896  43.364  14.177   3.631
48603W        W 7897  19.048  25.108   3.743
48604W        W 7898  26.639   6.818  11.461
48605W        W 7899  11.650  35.945   0.282
48606W        W 7900  40.420  43.951  11.903
48607W        W 7901  16.186  27.002   4.682
48608W        W 7902   6.229  44.454  12.981
48609W        W 7903  25.623   7.756  12.951
48610W        W 7904   7.779  13.724  14.827
48611W        W 7905  18.194  22.518   2.290
48612W        W 7906  17.217  22.607  13.414
48613W        W 7907  41.920   4.330   0.847
48614W        W 7908  29.579   7.862  14.510
48615W        W 7909  43.964  21.235   4.743
48616W        W 7910   0.266  24.591  11.924
48617W        W 7911   3.216  11.814   4.637
48618W        W 7912   0.747  33.490   5.212
48619W        W 7913  14.631  14.751   2.269
48620W        W 7914  32.139  33.043  12.862
48621W        W 7915  19.142  18.594   0.297
48622W        W 7916  29.155  11.322   0.346
48623W        W 7917  24.661   5.342   4.712
48624W        W 7918   2.353  27.565  13.482
48625W        W 7919  16.639  42.871   1.720
48626W        W 7920  15.723  31.462   2.900
48627W        W 7921   7.863  32.055  11.023
48628W        W 7922  17.117  18.139   2.385
48629W        W 7923  30.603  31.430   2.801
48630W        W 7924  41.413  28.586   3.793
48631W        W 7925  28.965  23.670  13.403
48632W        W 7926  42.965  21.736  11.540
48633W        W 7927  34.596  28.633  10.521
48634W        W 7928  15.193  18.261   0.427
48635W        W 7929   7.385  23.560   2.755
48636W        W 7930  20.681  19.174   1.418
48637W        W 7931  30.530  15.222  14.974
48638W        W 7932  14.224  32.529   2.404
48639W        W 7933  37.940  18.115  11.011
48640W        W 7934   3.768  34.445   1.291
48641W        W 7935  17.182   6.730   4.621
48642W        W 7936  23.572  44.873  10.922
48643W        W 7937   4.323  44.009  10.632
48644W        W 7938  17.796  13.771   4.781
48645W        W 7939  17.207  17.228  10.147
48646W        W 7940  23.032  19.533   3.252
48647W        W 7941  42.912  19.052   3.240
48648W        W 7942  25.657   5.256   3.172
48649W        W 7943  39.429  39.970   0.729
48650W        W 7944  38.532  14.751  13.944
48651W        W 7945  11.631   3.458  13.450
48652W        W 7946   4.428  30.078   4.289
48653W        W 7947  36.374   0.393   4.796
48654W        W 7948  25.035  25.711  14.372
48655W        W 7949  44.306  25.538  14.860
48656W        W 7950  26.039  36.906   3.723
48657W        W 7951  18.720  31.441   0.287
48658W        W 7952  32.564  40.846  14.334
48659W        W 7953  25.485  25.562  14.797
48660W        W 7954  11.344  12.338   0.356
48661W        W 7955   3.328  43.787  12.080
48662W        W 7956   5.425  21.629   3.315
48663W        W 7957  28.967  25.472   2.286
48664W        W 7958  31.926  25.538   2.891
48665W        W 7959  29.443  19.105   4.731
48666W        W 7960  10.792  28.976  14.439
48667W        W 7961  24.193   0.254  10.063
48668W        W 7962  36.427  36.037   1.930
48669W        W 7963  44.408  10.369   2.677
48670W        W 7964   4.346   3.831  10.935
48671W        W 7965  31.994   7.704   9.535
48672W        W 7966  12.796  32.431   9.475
48673W        W 7967  39.873  27.013   1.848
48674W        W 7968   0.470  36.866   1.911
48675W        W 7969   7.793  23.051   2.877
48676W        W 7970  25.603  23.602  14.405
48677W        W 7971  33.025  44.503  13.952
48678W        W 7972  24.978  36.538   3.777
48679W        W 7973   1.394  33.962   2.797
48680W        W 7974  38.333  22.677  13.326
48681W        W 7975   4.765   5.855   2.675
48682W        W 7976  25.527  14.755  10.529
48683W        W 7977  38.029  38.436  14.767
48684W        W 7978  29.569   6.845  11.513
48685W        W 7979  31.003  23.152  11.543
48686W        W 7980  27.511  20.535   2.255
48687W        W 7981  19.107  30.150   3.740
48688W        W 7982  41.322   5.369  11.436
48689W        W 7983  41.354   0.780  12.459
48690W        W 7984  14.657   4.715  12.418
48691W        W 7985   3.799   1.809  10.931
48692W        W 7986   4.769  10.353  11.080
48693W        W 7987  22.179  36.882   2.216
48694W        W 7988   2.315  39.492  10.554
48695W        W 7989   6.688  31.058   2.781
48696W        W 7990  42.932  26.529   0.909
48697W        W 7991  28.133  17.171  13.909
48698W        W 7992  38.413  29.136   1.694
48699W        W 7993  17.636  26.193   0.744
48700W        W 7994  26.002  44.787   0.944
48701W        W 7995  13.769  16.620   3.757
48702W        W 7996  28.664  29.428  11.562
48703W        W 7997  35.524   1.755  14.930
48704W        W 7998  41.850   7.755  14.315
48705W        W 7999  14.750   9.800   5.267
48706W        W 8000  32.419  13.841  10.906
48707W        W 8001   5.719   7.830   2.843
48708W        W 8002  35.420  19.255  13.013
48709W        W 8003  21.157  11.831  13.834
48710W        W 8004  38.338   6.426   3.209
48711W        W 8005  23.136   7.865   3.742
48712W        W 8006  32.534  43.987  11.994
48713W        W 8007  38.822  34.900   3.692
48714W        W 8008  21.675  43.421   1.773
48715W        W 8009   4.915   2.766   1.867
48716W        W 8010   7.862  36.913   3.711
48717W        W 8011  25.497  27.589  13.891
48718W        W 8012  33.961  23.205   2.383
48719W        W 8013  41.353  27.028  10.962
48720W        W 8014  19.689   4.371  11.579
48721W        W 8015  44.819  39.886  11.967
48722W        W 8016  19.117   9.840  10.965
48723W        W 8017   4.875  33.470   3.232
48724W        W 8018  34.986  23.027  11.576
48725W        W 8019   0.331  37.950  14.307
48726W        W 8020  11.648  39.336   4.612
48727W        W 8021  44.466  43.884   4.811
48728W        W 8022  10.374  36.493   0.916
48729W        W 8023  28.973  41.453   2.397
48730W        W 8024  22.551   1.888  14.486
48731W        W 8025  17.792  27.007  13.801
48732W        W 8026  21.174  42.337   1.349
48733W        W 8027  21.704  25.694   3.363
48734W        W 8028  17.107   5.355  12.890
48735W        W 8029  31.009  20.166   0.842
48736W        W 8030  27.152  33.468   0.810
48737W        W 8031  31.054  41.407   1.818
48738W        W 8032  17.222  36.007  11.402
48739W        W 8033  17.203  33.947   0.350
48740W        W 8034  25.177  32.023   1.875
48741W        W 8035  27.605  37.522   4.670
48742W        W 8036  28.558   6.875   1.394
48743W        W 8037  39.541   9.191  12.954
48744W        W 8038  25.066  23.061   4.273
48745W        W 8039  26.095  18.750   3.741
48746W        W 8040  17.161  20.709  12.422
48747W        W 8041   1.757  10.325  13.966
48748W        W 8042  26.702  22.248   3.858
48749W        W 8043  23.511  11.241   0.261
48750W        W 8044  20.067  20.706  14.809
48751W        W 8045  37.360   5.769  14.497
48752W        W 8046  24.593  28.165   4.151
48753W        W 8047  36.462  11.358   4.306
48754W        W 8048  35.534   4.359   3.369
48755W        W 8049  13.304  31.057  10.961
48756W        W 8050  37.864   2.961   2.371
48757W        W 8051  37.958  12.246   2.684
48758W        W 8052  29.609   3.381  11.050
48759W        W 8053   8.861  33.500  14.423
48760W        W 8054  10.168   7.279  14.852
48761W        W 8055  38.429  29.046   2.713
48762W        W 8056  34.913  16.656  11.090
48763W        W 8057   6.816  33.902   2.188
48764W        W 8058  22.548  36.914  13.872
48765W        W 8059  14.609  24.578  14.032
48766W        W 8060  26.601  20.732  10.579
48767W        W 8061  23.709   5.833  12.353
48768W        W 8062  31.408  29.472   2.419
48769W        W 8063  24.220   4.333   1.330
48770W        W 8064  21.037  39.861  10.521
48771W        W 8065  32.438  28.046  13.532
48772W        W 8066  38.833  31.023  10.079
48773W        W 8067   7.412  20.622  12.517
48774W        W 8068  17.579   4.244   3.162
48775W        W 8069   8.279  40.816   1.234
48776W        W 8070  40.487  15.115  12.445
48777W        W 8071  20.556  16.716   3.285
48778W        W 8072  23.679  25.608  10.921
48779W        W 8073  27.996  14.620  10.512
48780W        W 8074  28.626  23.683  10.628
48781W        W 8075   2.809  29.428   3.733
48782W        W 8076  23.086  11.806   4.683
48783W        W 8077  14.234  26.022  14.374
48784W        W 8078  27.040  34.418  13.055
48785W        W 8079  37.042  36.900   2.179
48786W        W 8080   2.261  24.495   0.391
48787W        W 8081   2.770  21.229  11.988
48788W        W 8082  12.158   8.199  14.349
48789W        W 8083   0.956  10.355  12.026
48790W        W 8084  44.454  37.400   2.900
48791W        W 8085  25.710  34.115  13.061
48792W        W 8086  37.069  30.603  14.281
48793W        W 8087   4.872  31.959   4.802
48794W        W 8088  22.231   1.736  11.865
48795W        W 8089  38.443   0.438  10.589
48796W        W 8090   8.676  13.770  13.901
48797W        W 8091  20.216  24.716   0.818
48798W        W 8092  21.592  31.930   5.188
48799W        W 8093  24.580   6.329   3.195
48800W        W 8094  43.914  24.127   4.801
48801W        W 8095  10.140  10.773   3.235
48802W        W 8096  20.718   6.799  13.874
48803W        W 8097  43.461  13.111  13.484
48804W        W 8098  21.084  12.265  10.938
48805W        W 8099  30.147  30.631  12.473
48806W        W 8100  27.079  10.858  14.984
48807W        W 8101  19.668  41.040   2.194
48808W        W 8102  41.961   5.259   2.309
48809W        W 8103  28.135  26.647  10.453
48810W        W 8104   3.245  17.081  11.482
48811W        W 8105  16.712  28.601  12.874
48812W        W 8106  13.693   6.820   1.447
48813W        W 8107  25.517  12.287   5.768
48814W        W 8108  41.416  38.938  11.103
48815W        W 8109  10.212  19.564   4.292
48816W        W 8110  22.538  36.508   2.716
48817W        W 8111  30.008   7.342  13.537
48818W        W 8112   7.894  16.140   1.807
48819W        W 8113   7.343   1.903  11.383
48820W        W 8114  24.981  13.117   1.809
48821W        W 8115  39.433  41.938  13.973
48822W        W 8116  20.063  41.836   4.815
48823W        W 8117  24.082  12.149   1.417
48824W        W 8118   2.266  43.364  10.610
48825W        W 8119  39.843   4.434  12.411
48826W        W 8120  44.310  29.957  13.897
48827W        W 8121  19.600  33.467   1.913
48828W        W 8122  42.912  23.202  12.459
48829W        W 8123  42.801   7.270   3.195
48830W        W 8124  30.048  15.113  14.914
48831W        W 8125  31.507  32.929   1.263
48832W        W 8126   4.916  41.028  14.317
48833W        W 8127  39.834  38.438  14.400
48834W        W 8128   7.716  19.141  13.819
48835W        W 8129  11.131  36.096  13.844
48836W        W 8130  23.660  26.059   3.220
48837W        W 8131  30.534  44.291  14.910
48838W        W 8132  39.527  43.835  13.491
48839W        W 8133  41.847  37.860   1.791
48840W        W 8134  14.155  41.452  12.957
48841W        W 8135   8.703  28.174   1.856
48842W        W 8136  35.952  11.768   0.416
48843W        W 8137  34.598  21.593   4.176
48844W        W 8138   6.372  15.690  12.535
48845W        W 8139   2.802  17.703   0.798
48846W        W 8140  13.692  26.161  11.899
48847W        W 8141  44.796  26.156  12.922
48848W        W 8142  11.323  21.676   4.732
48849W        W 8143  33.505  38.001  12.419
48850W        W 8144  18.634  10.830  11.414
48851W        W 8145  15.089  13.599   1.321
48852W        W 8146  31.153   5.322   4.631
48853W        W 8147   5.222  17.676  11.411
48854W        W 8148   4.912  15.301  10.461
48855W        W 8149  15.304  38.975  14.852
48856W        W 8150  27.554   8.375   2.697
48857W        W 8151  30.541  21.159   0.854
48858W        W 8152   9.805  29.138  12.897
48859W        W 8153   2.839  17.076   3.671
48860W        W 8154  40.330  35.380  13.978
48861W        W 8155  34.090  30.073  14.967
48862W        W 8156   5.926  20.192   0.396
48863W        W 8157  37.919  27.496   1.708
48864W        W 8158  36.935  29.556   2.244
48865W        W 8159  11.181  14.595  13.906
48866W        W 8160  26.185  38.336   0.946
48867W        W 8161   6.704  12.647  11.933
48868W        W 8162  37.557  42.811   3.262
48869W        W 8163  21.227   4.437   0.767
48870W        W 8164  27.092   1.389  13.398
48871W        W 8165  14.704  44.968  12.078
48872W        W 8166  18.077   2.805   3.690
48873W        W 8167   2.465  40.972  13.463
48874W        W 8168  36.099  32.971  12.019
48875W        W 8169  25.539  18.112  12.879
48876W        W 8170  25.528  10.633   4.322
48877W        W 8171  18.725  28.447   3.280
48878W        W 8172  14.315  12.750   2.297
48879W        W 8173  39.514  19.595  12.971
48880W        W 8174  44.370  32.021   4.321
48881W        W 8175  14.289  14.248  11.961
48882W        W 8176  23.614  20.184  12.487
48883W        W 8177  34.427  41.341  13.526
48884W        W 8178  17.617  31.928  13.370
48885W        W 8179  44.300   5.364   2.278
48886W        W 8180  20.575   0.921   3.150
48887W        W 8181  15.173  27.998   3.764
48888W        W 8182  37.340   7.911  13.893
48889W        W 8183   0.354  42.501  12.555
48890W        W 8184   9.852   9.222  13.317
48891W        W 8185  44.935   1.807   2.879
48892W        W 8186  22.740  22.048  13.817
48893W        W 8187  30.445   9.367  14.002
48894W        W 8188  15.185  26.536   4.735
48895W        W 8189  43.926   3.296  12.075
48896W        W 8190  12.682   1.439   2.860
48897W        W 8191  12.727  28.659  13.969
48898W        W 8192  20.220  16.790   4.658
48899W        W 8193   8.682  35.953  10.626
48900W        W 8194  27.611  36.047   0.895
48901W        W 8195   2.881  34.486  12.574
48902W        W 8196  13.766   2.869   1.934
48903W        W 8197  14.182   4.753  13.313
48904W        W 8198  20.627  20.103   5.195
48905W        W 8199  26.181  14.208   3.807
48906W        W 8200  15.115  16.175   5.567
48907W        W 8201  19.570  12.186  13.794
48908W        W 8202   5.199  27.984   0.913
48909W        W 8203  34.987  18.639  13.850
48910W        W 8204  20.570  38.342  11.399
48911W        W 8205  32.088  33.115   0.829
48912W        W 8206  33.478  41.800   4.217
48913W        W 8207  30.596   0.475   0.869
48914W        W 8208  26.003   4.287  14.904
48915W        W 8209  22.597  10.804   0.247
48916W        W 8210   1.894  23.542  13.971
48917W        W 8211   4.360  39.862   2.672
48918W        W 8212   0.391  37.480   1.935
48919W        W 8213  41.937  42.807  11.971
48920W        W 8214  43.968  14.277  13.907
48921W        W 8215  13.822   6.685   2.188
48922W        W 8216  17.682  21.162   1.281
48923W        W 8217  31.926  44.828   2.837
48924W        W 8218  16.587  22.093  11.610
48925W        W 8219   2.946  12.841  11.112
48926W        W 8220   0.982  40.806  11.883
48927W        W 8221  31.412  40.914   3.299
48928W        W 8222  22.505   9.742   4.737
48929W        W 8223   6.700  14.716  14.768
48930W        W 8224   5.227  20.169   1.902
48931W        W 8225  37.012  26.540  14.861
48932W        W 8226  15.594   1.311   2.677
48933W        W 8227  24.688  24.052   0.370
48934W        W 8228  24.645  27.585   3.814
48935W        W 8229  28.626  25.205  14.904
48936W        W 8230   7.352  30.149  14.874
48937W        W 8231  31.628  18.133   4.165
48938W        W 8232  15.156  22.114   2.793
48939W        W 8233  10.337  13.687  13.001
48940W        W 8234   7.309   8.210   4.352
48941W        W 8235  19.678  31.515  10.628
48942W        W 8236  40.473   1.911   4.605
48943W        W 8237  13.636   6.198  14.494
48944W        W 8238  14.173  28.655  14.445
48945W        W 8239  11.149  13.153   1.722
48946W        W 8240  24.549  13.302   4.268
48947W        W 8241  25.050  17.212   0.331
48948W        W 8242   6.229  17.721  11.477
48949W        W 8243  18.558  20.583  11.883
48950W        W 8244  43.809  32.585   0.307
48951W        W 8245  38.398  42.985  11.979
48952W        W 8246  41.524   6.826   3.192
48953W        W 8247  21.660   5.248  11.523
48954W        W 8248  32.557   7.763  11.076
48955W        W 8249   9.694  11.686  13.493
48956W        W 8250   1.325  29.163   4.714
48957W        W 8251   5.312  33.471  13.493
48958W        W 8252  27.082   9.714  10.620
48959W        W 8253  19.669   0.492   3.295
48960W        W 8254  30.045   5.814   0.300
48961W        W 8255  40.008  20.586  13.440
48962W        W 8256  17.594  12.794  12.375
48963W        W 8257  27.681  15.783  13.871
48964W        W 8258  13.623  31.582  11.992
48965W        W 8259  20.082   8.264  13.843
48966W        W 8260  34.501   3.350  13.954
48967W        W 8261   1.288  43.877  12.090
48968W        W 8262  38.928  42.323   1.801
48969W        W 8263  12.793  10.637   2.334
48970W        W 8264   8.796   9.722   0.350
48971W        W 8265  17.620   9.233   0.917
48972W        W 8266  24.637  44.920   0.810
48973W        W 8267  13.606  27.971  11.002
48974W        W 8268  27.162   2.782   1.800
48975W        W 8269  26.066  15.237  10.446
48976W        W 8270  44.279  40.035   0.818
48977W        W 8271  30.123  44.839   1.869
48978W        W 8272  20.089  25.605  14.962
48979W        W 8273  15.624  24.653  12.473
48980W        W 8274  31.644  36.435  14.939
48981W        W 8275   0.880  25.479  13.421
48982W        W 8276  11.198  31.456  13.039
48983W        W 8277  14.599   4.700   1.891
48984W        W 8278  37.056  21.122  11.004
48985W        W 8279  19.756   4.867  10.637
48986W        W 8280  12.294  24.688   0.263
48987W        W 8281   7.668  13.668   0.475
48988W        W 8282  35.603   6.696   3.368
48989W        W 8283   9.210  27.596   0.966
48990W        W 8284  26.147   1.275   3.634
48991W        W 8285  37.938  29.030  13.331
48992W        W 8286  37.072  31.976  10.629
48993W        W 8287  40.364   7.870   4.241
48994W        W 8288   2.469  17.784  12.913
48995W        W 8289  17.207  29.068  12.851
48996W        W 8290  22.709  30.623   4.706
48997W        W 8291   1.336  16.315   1.809
48998W        W 8292   8.704  12.300  12.555
48999W        W 8293  22.242  11.316  12.560
49000W        W 8294  36.847  31.009  11.903
49001W        W 8295   9.168   8.340  13.511
49002W        W 8296  43.979   8.232  14.891
49003W        W 8297  11.781   6.227   3.631
49004W        W 8298  24.129  43.777   0.924
49005W        W 8299  31.474  44.953   3.165
49006W        W 8300  33.520  25.995  10.902
49007W        W 8301  11.709  24.603   3.793
49008W        W 8302  31.127  18.179  12.390
49009W        W 8303  38.051   7.260   4.827
49010W        W 8304  40.362   7.879  13.059
49011W        W 8305  28.605  29.567   0.952
49012W        W 8306  40.902  24.008   0.329
49013W        W 8307  19.639  14.694   2.665
49014W        W 8308  11.654  11.775  12.999
49015W        W 8309  39.897   3.825   0.323
49016W        W 8310   0.799  32.475   3.214
49017W        W 8311  18.092  12.267  14.287
49018W        W 8312   9.697  15.084  14.778
49019W        W 8313   9.739  42.854   2.319
49020W        W 8314  35.562  16.292  13.501
49021W        W 8315  37.981  43.838  11.460
49022W        W 8316  32.492  17.189   1.269
49023W        W 8317  32.912  42.920   2.406
49024W        W 8318  34.998  31.122  14.940
49025W        W 8319  16.799  43.833  12.893
49026W        W 8320  36.045  17.634   3.785
49027W        W 8321  40.848  17.617   4.351
49028W        W 8322  36.049   9.289  11.857
49029W        W 8323   5.210  28.550  14.846
49030W        W 8324  42.405  26.132  11.574
49031W        W 8325  15.816  21.633   5.168
49032W        W 8326  17.248  32.559  13.346
49033W        W 8327  25.471  36.425   2.237
49034W        W 8328  17.141  22.584   3.845
49035W        W 8329  36.085  27.125   4.787
49036W        W 8330  32.509   9.869  13.502
49037W        W 8331  33.418  22.698  11.016
49038W        W 8332  39.819  25.050   3.218
49039W        W 8333  21.641  27.466   3.733
49040W        W 8334   7.254   1.453   0.430
49041W        W 8335  32.600  33.997   2.399
49042W        W 8336  10.802   9.780   0.862
49043W        W 8337   6.268   6.309   2.741
49044W        W 8338  10.817   9.797  11.570
49045W        W 8339  33.511  43.490  11.530
49046W        W 8340  23.551  22.683  12.381
49047W        W 8341   0.750   0.894  14.914
49048W        W 8342   0.844  14.137   2.822
49049W        W 8343  40.024   0.951   4.229
49050W        W 8344  12.723  23.527  13.530
49051W        W 8345  18.135  19.754   2.707
49052W        W 8346  12.848  20.055   1.791
49053W        W 8347  11.252   4.293   4.344
49054W        W 8348  30.143  43.492  12.080
49055W        W 8349  42.777   9.253  12.880
49056W        W 8350  40.957  11.244   4.351
49057W        W 8351  31.487  30.559   0.277
49058W        W 8352  30.620  15.804  13.521
49059W        W 8353   0.869  19.231   2.695
49060W        W 8354   6.743  23.203   4.630
49061W        W 8355  29.923  38.946  13.496
49062W        W 8356  43.274   4.747   2.850
49063W        W 8357  12.826  36.063  11.975
49064W        W 8358  40.476  30.085  11.494
49065W        W 8359  33.394  36.913   1.725
49066W        W 8360  36.392  31.151  12.483
49067W        W 8361  25.089  29.604  13.926
49068W        W 8362   6.290  16.632   1.340
49069W        W 8363   3.326  38.462   2.767
49070W        W 8364  23.511   5.195  13.353
49071W        W 8365  43.516  41.374   0.317
49072W        W 8366  39.025  39.016   2.288
49073W        W 8367  29.583  11.129  14.322
49074W        W 8368   4.438  12.833   3.264
49075W        W 8369   6.716   1.419   0.443
49076W        W 8370  24.632  36.023   3.257
49077W        W 8371  23.087   6.786   3.750
49078W        W 8372   9.188  28.101  13.548
49079W        W 8373   3.362  15.655  11.095
49080W        W 8374  13.779  13.272  14.455
49081W        W 8375  40.900  31.040   3.768
49082W        W 8376  30.155  23.726   1.882
49083W        W 8377  38.381  38.365   2.270
49084W        W 8378  12.363  34.423   1.234
49085W        W 8379   7.771  38.946  12.392
49086W        W 8380  13.309   6.870  13.889
49087W        W 8381  31.067  18.188  10.478
49088W        W 8382  20.202  18.171   1.285
49089W        W 8383  23.517   9.281   0.290
49090W        W 8384  40.512  37.530   1.286
49091W        W 8385  19.755  30.658  12.043
49092W        W 8386   8.750  24.191   0.853
49093W        W 8387  15.271  17.273   4.837
49094W        W 8388  34.985  43.368  10.960
49095W        W 8389  31.548  41.486  12.520
49096W        W 8390  39.918  29.572  12.555
49097W        W 8391   1.415  17.704   2.663
49098W        W 8392  43.892  44.498   1.449
49099W        W 8393  42.957   3.293  13.828
49100W        W 8394  10.736  41.394   4.302
49101W        W 8395  39.872  10.824  14.339
49102W        W 8396   3.933  44.450  11.509
49103W        W 8397   8.169   9.280   1.843
49104W        W 8398  41.535  42.510   3.212
49105W        W 8399  42.951  13.741  14.306
49106W        W 8400   8.316  26.642  13.923
49107W        W 8401  33.038  26.198   2.203
49108W        W 8402  38.424  31.002  14.379
49109W        W 8403   5.858  14.747   3.319
49110W        W 8404  40.307  25.711   0.917
49111W        W 8405  39.553   7.356  10.549
49112W        W 8406  30.066   7.675   0.253
49113W        W 8407  24.637   7.895  12.834
49114W        W 8408  10.362   1.395   2.667
49115W        W 8409   5.405  25.648   1.908
49116W        W 8410  29.987  37.520  11.097
49117W        W 8411   9.170   6.269   3.335
49118W        W 8412  26.670  26.047   4.794
49119W        W 8413  42.844  41.036   1.388
49120W        W 8414  15.594   6.728   1.278
49121W        W 8415  12.705  27.099   3.364
49122W        W 8416  17.162  24.725   4.640
49123W        W 8417  30.540  18.748   4.739
49124W        W 8418   7.771   9.315  12.561
49125W        W 8419  30.433  11.297  12.911
49126W        W 8420  10.678  40.468  10.528
49127W        W 8421   3.307   6.419  14.479
49128W        W 8422  17.169   4.726   2.188
49129W        W 8423  35.562  22.538   4.731
49130W        W 8424  44.827   3.955   2.875
49131W        W 8425  25.983  35.975   0.918
49132W        W 8426  12.796  10.689  13.461
49133W        W 8427  12.814  10.181  12.354
49134W        W 8428  19.063   6.225  11.466
49135W        W 8429  25.480  15.204   4.244
49136W        W 8430   6.323  29.120  12.456
49137W        W 8431  39.834  24.686  11.938
49138W        W 8432   3.353  34.605   2.720
49139W        W 8433  43.859  37.424  12.848
49140W        W 8434  27.138  23.045   0.776
49141W        W 8435  19.184  41.370  13.831
49142W        W 8436  40.982  21.024   3.684
49143W        W 8437  29.595  41.947  10.905
49144W        W 8438  30.650  33.426   2.303
49145W        W 8439  43.016   8.175   1.885
49146W        W 8440  13.622  29.997  14.367
49147W        W 8441  15.304  38.562   0.940
49148W        W 8442  44.008  21.634   3.280
49149W        W 8443  16.746  33.984  13.529
49150W        W 8444   4.923   6.861   1.807
49151W        W 8445  16.282  10.281   2.313
49152W        W 8446  32.905  35.555   0.373
49153W        W 8447  44.857  40.810  14.917
49154W        W 8448  10.322  11.243  13.864
49155W        W 8449  33.967  36.850   0.243
49156W        W 8450  17.629  18.706  12.547
49157W        W 8451  32.907   5.395  14.395
49158W        W 8452  28.948  17.688   2.203
49159W        W 8453  34.003  35.858   3.756
49160W        W 8454  28.123  43.907  10.983
49161W        W 8455  10.643  16.745  11.418
49162W        W 8456  38.515  25.116   2.778
49163W        W 8457   7.789  11.208   1.917
49164W        W 8458  21.261  43.456  13.410
49165W        W 8459  27.053  33.618   4.251
49166W        W 8460  23.605  23.101  13.470
49167W        W 8461  20.628  41.459   3.381
49168W        W 8462  26.507   2.900   1.759
49169W        W 8463  33.909   2.908   1.704
49170W        W 8464  19.695  36.094   4.716
49171W        W 8465  28.483   2.271   0.469
49172W        W 8466  34.559  18.113   1.902
49173W        W 8467   0.767   2.411   3.736
49174W        W 8468  38.460  20.245  12.349
49175W        W 8469  26.567   4.321  11.056
49176W        W 8470  21.711  18.053  12.922
49177W        W 8471  20.581  17.247   0.962
49178W        W 8472  12.824   2.272   1.328
49179W        W 8473   8.882   6.383  11.021
49180W        W 8474   5.843  21.130  14.365
49181W        W 8475  34.382   9.314  10.007
49182W        W 8476  36.462   9.806   3.224
49183W        W 8477  38.890  38.492   4.604
49184W        W 8478  10.641  27.018   0.870
49185W        W 8479  24.053  26.465  13.052
49186W        W 8480  43.447  26.550  12.384
49187W        W 8481  21.206  29.002   0.787
49188W        W 8482  18.219   7.393  14.022
49189W        W 8483   8.816  18.225   3.317
49190W        W 8484  13.158   1.387  13.848
49191W        W 8485  21.540  25.174  13.903
49192W        W 8486  12.298  13.227   4.615
49193W        W 8487  11.772  14.618  14.786
49194W        W 8488  22.625  20.110  13.990
49195W        W 8489   3.770  15.185  12.082
49196W        W 8490  44.899  16.602  10.984
49197W        W 8491  16.721  29.932   4.701
49198W        W 8492  15.124   0.944  11.887
49199W        W 8493  20.766   2.464  12.579
49200W        W 8494  38.466  26.179  12.055
49201W        W 8495   1.972  39.881   3.347
49202W        W 8496  19.619  42.811   0.944
49203W        W 8497  35.943  41.803   4.751
49204W        W 8498  17.686  24.716  10.564
49205W        W 8499  11.274  25.546   2.417
49206W        W 8500   3.773  35.106   1.353
49207W        W 8501   4.867  34.033   2.663
49208W        W 8502  32.502   3.379   4.252
49209W        W 8503  14.259  36.928  12.377
49210W        W 8504  11.261   3.297  11.500
49211W        W 8505  35.404  17.572   0.946
49212W        W 8506  27.065  32.083   3.683
49213W        W 8507  15.188  10.366  14.511
49214W        W 8508   3.323  14.251   4.295
49215W        W 8509   3.919  19.133  11.578
49216W        W 8510   7.721  42.949  14.793
49217W        W 8511  23.057  24.538   2.863
49218W        W 8512  43.383  25.585   0.862
49219W        W 8513  34.051  31.536   2.784
49220W        W 8514  32.581  44.801  13.981
49221W        W 8515  35.382  34.525   2.897
49222W        W 8516  13.227   9.867  13.887
49223W        W 8517   8.693  12.770   2.884
49224W        W 8518  43.384  22.545   1.724
49225W        W 8519  28.606  12.335   1.250
49226W        W 8520  40.460  28.117  14.278
49227W        W 8521  30.562  22.591  10.436
49228W        W 8522  30.968  20.732   4.290
49229W        W 8523  44.450   3.237  10.048
49230W        W 8524  43.375  20.161   4.651
49231W        W 8525  18.204  26.036   1.412
49232W        W 8526  35.413  21.146  12.962
49233W        W 8527  37.010  18.163   2.876
49234W        W 8528   0.928  43.859   1.322
49235W        W 8529  38.991   1.849  10.910
49236W        W 8530  16.205  30.068  14.455
49237W        W 8531  28.108   7.686  13.016
49238W        W 8532  28.064  10.350   5.249
49239W        W 8533  34.888  40.401  13.934
49240W        W 8534  34.447   7.387   1.386
49241W        W 8535  10.735  14.112   5.147
49242W        W 8536  44.932  29.456  11.552
49243W        W 8537  28.471  38.860  12.085
49244W        W 8538  38.356  13.122   3.686
49245W        W 8539  40.359  31.077  13.985
49246W        W 8540  26.460   0.984  10.977
49247W        W 8541  21.719  28.028   4.695
49248W        W 8542  35.367  10.751  10.929
49249W        W 8543  33.440  19.054  10.124
49250W        W 8544  37.010  21.117  13.467
49251W        W 8545  35.410  23.580  11.857
49252W        W 8546  24.504  43.478   1.795
49253W        W 8547  38.858  32.886  12.892
49254W        W 8548  39.046  26.665  11.871
49255W        W 8549   5.727  15.663   5.157
49256W        W 8550  12.793  29.604   0.781
49257W        W 8551  39.381  30.988  14.858
49258W        W 8552  24.998  18.085  11.538
49259W        W 8553  33.901   7.234  11.536
49260W        W 8554  23.178  12.779   0.459
49261W        W 8555  28.543  27.490  13.931
49262W        W 8556  20.732  16.265  11.915
49263W        W 8557  33.987  11.728  11.510
49264W        W 8558  15.272  13.182   3.165
49265W        W 8559  21.144  18.608   3.252
49266W        W 8560   7.753  13.186  12.436
49267W        W 8561  33.413  40.481   5.185
49268W        W 8562  33.416  16.157  12.033
49269W        W 8563   0.286  32.410  11.083
49270W        W 8564  15.653  43.016  12.448
49271W        W 8565   8.706  17.734  10.441
49272W        W 8566  37.020  33.054  12.880
49273W        W 8567  33.982   7.821   3.169
49274W        W 8568  43.980  32.459  14.792
49275W        W 8569  34.893  38.866  14.508
49276W        W 8570  21.120  10.638   3.318
49277W        W 8571  15.167  30.044  14.365
49278W        W 8572  13.755  37.390   0.251
49279W        W 8573  37.932  41.008  13.832
49280W        W 8574  20.261  16.595  12.847
49281W        W 8575  34.608  24.680   0.458
49282W        W 8576  11.802  14.607  13.817
49283W        W 8577  15.321   2.255  13.413
49284W        W 8578  31.900   4.846   1.232
49285W        W 8579   5.271  41.870   2.240
49286W        W 8580  35.404   9.327   9.930
49287W        W 8581  32.623  30.537   0.317
49288W        W 8582  43.487  22.537  10.483
49289W        W 8583  37.036  21.223   0.317
49290W        W 8584  41.406  43.301  14.386
49291W        W 8585  29.526  40.901  14.008
49292W        W 8586  14.095  40.323  12.400
49293W        W 8587   6.412  16.809   0.833
49294W        W 8588  31.990  12.689  10.445
49295W        W 8589  18.244  19.060   3.248
49296W        W 8590  25.613  26.521   1.916
49297W        W 8591  37.966   6.834   4.790
49298W        W 8592  38.963  14.756  11.054
49299W        W 8593  23.580  32.944   2.332
49300W        W 8594  16.689  17.111   4.149
49301W        W 8595  24.127  31.433  10.405
49302W        W 8596  18.137  26.537   0.380
49303W        W 8597   2.865  27.636   1.809
49304W        W 8598  22.611  22.153   1.843
49305W        W 8599  42.032  35.429  13.832
49306W        W 8600  34.983  42.810   2.814
49307W        W 8601  20.728  32.569   0.371
49308W        W 8602  28.128  37.549   1.407
49309W        W 8603  11.768  32.122   3.746
49310W        W 8604   6.381   3.409  11.498
49311W        W 8605  42.342  23.066  14.468
49312W        W 8606  26.603  29.081   4.162
49313W        W 8607  12.268  10.180  13.386
49314W        W 8608   2.424  15.823   5.252
49315W        W 8609   4.891   8.857  14.352
49316W        W 8610  23.133   9.663  14.315
49317W        W 8611  11.134  44.407  10.642
49318W        W 8612  36.398  13.153   0.728
49319W        W 8613  38.929  40.348   0.430
49320W        W 8614   6.754  44.273   5.146
49321W        W 8615  42.474  18.778   4.284
49322W        W 8616  21.523  39.855   2.778
49323W        W 8617   4.395  38.064  10.482
49324W        W 8618  34.913   4.336   1.222
49325W        W 8619  29.559   9.744   1.386
49326W        W 8620   8.167  30.147  14.011
49327W        W 8621  30.065  31.524   2.731
49328W        W 8622  31.050   3.292  13.924
49329W        W 8623  10.336  38.930   5.309
49330W        W 8624  33.518  14.203  14.384
49331W        W 8625  44.839   3.267  11.968
49332W        W 8626  30.914  42.890   1.886
49333W        W 8627  26.630  28.629   0.908
49334W        W 8628  41.492   4.433  10.507
49335W        W 8629  19.153  18.757  12.974
49336W        W 8630  27.573  37.457   4.302
49337W        W 8631  25.060  42.433   3.656
49338W        W 8632   1.803  34.459   2.881
49339W        W 8633  19.744  32.951  13.368
49340W        W 8634   9.764  31.605  14.909
49341W        W 8635  37.067  38.459   4.661
49342W        W 8636  33.441  18.100   9.971
49343W        W 8637  27.157  21.228  10.123
49344W        W 8638  15.652  32.968   4.790
49345W        W 8639  24.996  10.656   3.632
49346W        W 8640  43.429   2.442  11.091
49347W        W 8641  18.270  24.009   4.255
49348W        W 8642  13.727   1.891   1.835
49349W        W 8643  21.232  11.801  13.540
49350W        W 8644  23.238  43.942  13.911
49351W        W 8645   5.713  15.589   1.317
49352W        W 8646  34.103   4.373  10.500
49353W        W 8647   7.317  34.096   9.921
49354W        W 8648  16.185  16.100   1.885
49355W        W 8649  15.147  10.326   4.824
49356W        W 8650  12.144  15.250   0.854
49357W        W 8651  30.594   0.448   1.748
49358W        W 8652  17.714  43.349   3.233
49359W        W 8653  20.182   4.769  13.449
49360W        W 8654  12.764  35.036   3.293
49361W        W 8655   4.770  42.489  14.979
49362W        W 8656  39.933  40.528  10.515
49363W        W 8657  19.540  32.963   1.906
49364W        W 8658  22.007   0.372   2.284
49365W        W 8659   0.753   7.293   5.214
49366W        W 8660   7.403  33.504  12.565
49367W        W 8661  21.577  27.549   4.741
49368W        W 8662   6.263  30.426   1.278
49369W        W 8663  20.651  41.856   2.253
49370W        W 8664   5.769  39.392   0.850
49371W        W 8665   6.866  17.231   0.338
49372W        W 8666  32.925  31.415  11.912
49373W        W 8667  33.578  36.521   0.896
49374W        W 8668  44.888  43.969  11.446
49375W        W 8669  39.544  37.046   0.446
49376W        W 8670   3.776  39.319   1.804
49377W        W 8671  12.734   9.253  12.893
49378W        W 8672  20.720  43.916   2.308
49379W        W 8673  21.541  36.972   2.340
49380W        W 8674   1.324   7.184   0.876
49381W        W 8675  25.559  29.562   1.895
49382W        W 8676  41.360  40.803  11.071
49383W        W 8677  35.554  14.303  10.959
49384W        W 8678   3.895  18.668  12.445
49385W        W 8679  25.554  43.952  11.935
49386W        W 8680   5.780  19.120  12.850
49387W        W 8681  23.641   5.787   3.852
49388W        W 8682  33.019   9.749  13.385
49389W        W 8683  21.056  31.619   3.868
49390W        W 8684  18.214   3.937  14.494
49391W        W 8685  31.009  11.664   1.830
49392W        W 8686  34.920  44.977   0.947
49393W        W 8687   6.691  31.049   2.235
49394W        W 8688   9.295  19.636  10.947
49395W        W 8689  38.372  13.165  12.998
49396W        W 8690   2.849  15.707   3.368
49397W        W 8691  27.457   8.174  14.845
49398W        W 8692  21.097  36.393  13.464
49399W        W 8693   3.746  20.730   0.290
49400W        W 8694  39.383   5.258   2.876
49401W        W 8695   4.342   5.412  14.025
49402W        W 8696  40.444  27.022  11.439
49403W        W 8697   3.253   0.381   9.923
49404W        W 8698  29.431  37.477  13.463
49405W        W 8699  33.963  23.177   4.664
49406W        W 8700  25.650   1.371   3.773
49407W        W 8701   3.948   5.351  10.965
49408W        W 8702   7.733  27.517   1.890
49409W        W 8703   9.280  12.795  12.850
49410W        W 8704  44.765  21.623   2.392
49411W        W 8705  38.999  11.805  14.496
49412W        W 8706   1.260  35.919   3.231
49413W        W 8707  23.673  20.071   0.337
49414W        W 8708  33.609  25.676  13.394
49415W        W 8709  40.973  13.842  14.762
49416W        W 8710   8.191  26.181  13.040
49417W        W 8711  33.962   2.383   0.791
49418W        W 8712  39.428  21.675   4.241
49419W        W 8713   5.698  18.152   3.240
49420W        W 8714  28.147   9.735  11.079
49421W        W 8715   5.221  22.512  13.975
49422W        W 8716   9.776  25.588  11.421
49423W        W 8717  19.199  30.132   0.831
49424W        W 8718  42.339  24.081  10.915
49425W        W 8719  39.822  34.946  14.462
49426W        W 8720   5.791  33.002  14.958
49427W        W 8721  40.848  29.002  10.979
49428W        W 8722  44.826  20.069  13.429
49429W        W 8723  34.112  19.755   0.441
49430W        W 8724  12.146  13.307  12.961
49431W        W 8725   7.324  43.342  11.533
49432W        W 8726   4.425  26.670  13.316
49433W        W 8727  26.193   5.240   4.227
49434W        W 8728  14.110  13.623   4.229
49435W        W 8729  42.446  36.565   3.765
49436W        W 8730  44.794  30.096   0.467
49437W        W 8731  18.564   4.752  10.526
49438W        W 8732   1.869   6.911   0.369
49439W        W 8733  10.317  20.156   2.765
49440W        W 8734  23.152   6.851   5.675
49441W        W 8735  17.727  37.564  10.514
49442W        W 8736   8.268   2.745   5.804
49443W        W 8737  26.200   8.760   2.747
49444W        W 8738  37.553  15.085  14.314
49445W        W 8739  10.806  35.027  14.819
49446W        W 8740  19.566   1.813  13.959
49447W        W 8741  33.096  10.658   0.459
49448W        W 8742   7.246  30.152   0.772
49449W        W 8743  33.463   6.764  14.817
49450W        W 8744  18.256  39.053   1.815
49451W        W 8745  19.770  15.720   2.268
49452W        W 8746  23.570  22.053  11.545
49453W        W 8747  33.559   1.801   3.310
49454W        W 8748   1.782  17.226   5.202
49455W        W 8749  12.625  10.339   3.240
49456W        W 8750  13.620   0.937  14.963
49457W        W 8751  34.958  12.784  10.131
49458W        W 8752  14.703  32.120  14.824
49459W        W 8753   5.821  37.486   2.317
49460W        W 8754  38.060  36.587  11.537
49461W        W 8755   0.269   9.819  14.818
49462W        W 8756  10.736   8.770  14.343
49463W        W 8757   9.793   1.431  11.410
49464W        W 8758  22.189  31.082  13.966
49465W        W 8759  13.300   8.264  11.118
49466W        W 8760  11.225   5.856  12.951
49467W        W 8761   4.707  16.658  13.507
49468W        W 8762  28.523   2.372  12.087
49469W        W 8763   2.854  25.997   2.415
49470W        W 8764  44.385   8.310   4.322
49471W        W 8765  12.150   6.752   0.819
49472W        W 8766  29.918  41.384  14.945
49473W        W 8767  41.522  18.245   3.810
49474W        W 8768  29.547  12.327   0.842
49475W        W 8769  43.332   8.697   5.259
49476W        W 8770  29.100  14.101  13.042
49477W        W 8771  44.259  22.558   2.399
49478W        W 8772  18.182  13.120   0.918
49479W        W 8773  10.766   6.238  10.426
49480W        W 8774  13.712  29.067   1.434
49481W        W 8775  18.627   2.942  12.549
49482W        W 8776  10.169  26.651   0.835
49483W        W 8777  32.133   3.301  13.391
49484W        W 8778  44.402  42.947   3.231
49485W        W 8779  32.457  16.767   0.774
49486W        W 8780  37.484  44.978   4.661
49487W        W 8781  23.197   4.742  10.999
49488W        W 8782  32.508  44.950   3.779
49489W        W 8783   4.365  21.655   2.744
49490W        W 8784  30.149  43.356  13.316
49491W        W 8785  13.610   8.271  11.427
49492W        W 8786  27.502  37.409   2.202
49493W        W 8787   0.844  27.540  13.353
49494W        W 8788  24.154  37.443  13.911
49495W        W 8789  21.041  29.627  11.987
49496W        W 8790  27.088  24.568  14.487
49497W        W 8791  35.465  23.613   2.697
49498W        W 8792  37.872  42.853  14.442
49499W        W 8793  25.981  38.429   4.642
49500W        W 8794  39.830  21.691  14.929
49501W        W 8795   3.787   7.697   4.244
49502W        W 8796  14.669  22.558   4.658
49503W        W 8797  39.833  10.249  13.838
49504W        W 8798  13.654  43.821   3.793
49505W        W 8799  17.265  39.902   1.821
49506W        W 8800  23.682  36.021   3.257
49507W        W 8801   9.371  15.300  13.386
49508W        W 8802  40.350  18.728  13.524
49509W        W 8803  27.108  21.051   1.310
49510W        W 8804  40.347  42.798  12.041
49511W        W 8805  32.104  20.582   3.284
49512W        W 8806  32.972  34.089   2.206
49513W        W 8807  41.516  42.489  11.973
49514W        W 8808  13.254  26.602  13.525
49515W        W 8809   8.826  37.857   0.268
49516W        W 8810  23.180   0.803  13.016
49517W        W 8811   3.389  19.547  12.405
49518W        W 8812  26.169  37.937  11.858
49519W        W 8813  14.705  38.395  10.427
49520W        W 8814   0.300  30.526  13.852
49521W        W 8815  34.077   3.354   3.218
49522W        W 8816   4.712  16.125   3.794
49523W        W 8817  39.861   0.256  10.048
49524W        W 8818  33.450  40.349  14.895
49525W        W 8819  22.737  44.841  13.050
49526W        W 8820  43.465  11.727   1.217
49527W        W 8821   1.804  24.622  11.592
49528W        W 8822   9.879   8.749  14.397
49529W        W 8823  43.795  26.086   1.289
49530W        W 8824  28.048  27.068   4.258
49531W        W 8825  30.445  33.997   2.326
49532W        W 8826   5.833  15.233  14.999
49533W        W 8827  31.456  22.520  12.897
49534W        W 8828  39.039  14.644  13.548
49535W        W 8829   8.810  43.340  12.894
49536W        W 8830  10.863  27.102  12.570
49537W        W 8831   1.388   2.318   1.735
49538W        W 8832   0.905   9.685  11.929
49539W        W 8833  40.431  16.616   3.372
49540W        W 8834  42.019  24.696  14.834
49541W        W 8835  13.134   0.928  10.059
49542W        W 8836  17.729  41.994   2.377
49543W        W 8837  37.505  28.511  11.028
49544W        W 8838  43.313  37.956  13.880
49545W        W 8839  32.128   9.158   0.460
49546W        W 8840  33.512  21.076  12.384
49547W        W 8841   3.917  21.722   1.822
49548W        W 8842  27.144  43.486  11.457
49549W        W 8843  26.981  26.958  13.953
49550W        W 8844  16.135  10.768   3.276
49551W        W 8845  10.721   8.674   5.143
49552W        W 8846   0.851  38.870  11.022
49553W        W 8847  14.122  24.708  10.911
49554W        W 8848  16.582   2.962  12.868
49555W        W 8849  22.112  11.344  14.856
49556W        W 8850  15.122  29.003   0.918
49557W        W 8851   5.752  32.045  11.906
49558W        W 8852  10.308  34.596   1.429
49559W        W 8853  14.282  26.141  10.459
49560W        W 8854  40.485   5.389  13.380
49561W        W 8855  22.527   4.787   1.702
49562W        W 8856  10.213  35.424   0.404
49563W        W 8857  28.477  32.516  13.885
49564W        W 8858  25.090  44.468   0.962
49565W        W 8859  31.131  20.667  12.855
49566W        W 8860  18.210   2.248  12.913
49567W        W 8861   3.924  26.167  11.912
49568W        W 8862   7.283   3.374  11.040
49569W        W 8863   5.888  13.204   2.799
49570W        W 8864  31.529  40.810  12.492
49571W        W 8865  31.107  41.970   3.165
49572W        W 8866  44.817  13.161  11.107
49573W        W 8867  39.962  18.662   0.947
49574W        W 8868  29.458   8.711  13.918
49575W        W 8869  11.689  38.357  14.384
49576W        W 8870  41.968   9.747  13.855
49577W        W 8871  26.675  37.929  10.033
49578W        W 8872  17.265   3.280   0.277
49579W        W 8873  34.413  16.240   3.864
49580W        W 8874  37.871  32.894   3.861
49581W        W 8875  44.924  27.065  10.492
49582W        W 8876   6.804  34.006   2.668
49583W        W 8877  30.040  17.573   3.859
49584W        W 8878  42.399  24.562  12.913
49585W        W 8879  38.833  22.681  14.985
49586W        W 8880  25.613  26.535   2.320
49587W        W 8881  32.411   7.706  11.437
49588W        W 8882   6.281  18.771  10.020
49589W        W 8883  33.606  26.483  11.409
49590W        W 8884  13.812   2.375  12.505
49591W        W 8885   8.196  36.036   0.781
49592W        W 8886  18.077   6.711   4.293
49593W        W 8887   1.434  16.619   0.958
49594W        W 8888  20.106  28.958  11.957
49595W        W 8889  44.456  23.007  13.383
49596W        W 8890  24.215  40.399  12.475
49597W        W 8891  21.652  11.213   2.257
49598W        W 8892  36.404  22.590  13.378
49599W        W 8893  21.690  15.160   1.830
49600W        W 8894   1.483   1.451  10.514
49601W        W 8895  26.601  12.120   0.931
49602W        W 8896  19.751  20.555   4.202
49603W        W 8897  31.485  11.150   3.742
49604W        W 8898  43.359   9.651   1.910
49605W        W 8899  34.085  33.022   3.678
49606W        W 8900  13.171   1.836   5.095
49607W        W 8901  12.227  43.018  13.535
49608W        W 8902  27.010  31.090   0.362
49609W        W 8903  33.569   2.467   4.731
49610W        W 8904  23.599  33.939  14.924
49611W        W 8905  34.092   0.441   0.247
49612W        W 8906  22.568  25.132   0.771
49613W        W 8907  22.136   7.349  14.298
49614W        W 8908  17.137  35.506   4.114
49615W        W 8909  17.614  31.000   1.741
49616W        W 8910  24.182  24.205   1.927
49617W        W 8911  30.569  26.028   3.665
49618W        W 8912  10.209  41.821  13.412
49619W        W 8913  28.494  33.915  13.799
49620W        W 8914  10.314  22.108  14.440
49621W        W 8915  28.123  15.232  14.495
49622W        W 8916  24.681  41.292   4.635
49623W        W 8917  22.658  35.506  13.040
49624W        W 8918  21.203  35.889   3.216
49625W        W 8919  26.540   3.767  14.810
49626W        W 8920   7.282  15.614   1.798
49627W        W 8921  33.052   6.870   4.630
49628W        W 8922  18.547  41.009   0.948
49629W        W 8923  28.452  38.534  14.326
49630W        W 8924  22.663   1.884   3.847
49631W        W 8925  11.740  41.806  13.341
49632W        W 8926   0.412   8.273  11.569
49633W        W 8927  31.100   5.881  12.053
49634W        W 8928  20.711   1.338   1.744
49635W        W 8929  26.634  12.359   3.247
49636W        W 8930  16.709   6.327  14.299
49637W        W 8931   5.325  34.528  12.578
49638W        W 8932  26.024   1.296  12.933
49639W        W 8933  18.093  11.197  11.912
49640W        W 8934   5.208  23.656  13.039
49641W        W 8935  13.721  21.685  13.820
49642W        W 8936  15.748  13.213   3.718
49643W        W 8937   9.352  26.592   4.221
49644W        W 8938  36.536  30.161   2.733
49645W        W 8939   7.301  28.456  13.450
49646W        W 8940  36.900   8.893  11.938
49647W        W 8941  32.615  11.761   2.827
49648W        W 8942  30.464   6.424  14.362
49649W        W 8943  11.360  29.118  12.082
49650W        W 8944  43.457  41.923  14.350
49651W        W 8945  18.692  12.636   9.952
49652W        W 8946  25.024  24.505  11.453
49653W        W 8947  44.263  19.243   2.850
49654W        W 8948  39.429   0.745  11.379
49655W        W 8949  27.521  35.937  10.948
49656W        W 8950  20.712   4.315   4.241
49657W        W 8951   4.921  22.707   1.219
49658W        W 8952  13.634   2.746   4.655
49659W        W 8953  43.014  26.642   4.116
49660W        W 8954  20.056  40.824   4.115
49661W        W 8955  42.478   8.349   0.816
49662W        W 8956  20.674  20.574   1.840
49663W        W 8957  43.424   6.326   2.768
49664W        W 8958  43.945  24.188  12.864
49665W        W 8959  17.109  25.622  11.593
49666W        W 8960  42.800   0.867   0.316
49667W        W 8961  31.958  16.174   1.804
49668W        W 8962   1.366   8.837  12.007
49669W        W 8963  30.963   6.825   4.134
49670W        W 8964   2.826  35.953   1.263
49671W        W 8965  12.640   2.426   2.286
49672W        W 8966  37.981  15.234   3.314
49673W        W 8967  26.620  17.276   2.792
49674W        W 8968   9.651  21.689  14.775
49675W        W 8969   4.835  44.393   4.695
49676W        W 8970   0.309  37.341  13.832
49677W        W 8971  18.754   1.325  13.504
49678W        W 8972  34.503  37.892  12.843
49679W        W 8973  31.150  31.903  14.891
49680W        W 8974   3.828  40.051  11.939
49681W        W 8975  31.505  40.330   9.985
49682W        W 8976  30.455  44.876   0.770
49683W        W 8977  24.640  10.353   1.916
49684W        W 8978  43.819  11.342   1.877
49685W        W 8979  19.264   2.848  10.889
49686W        W 8980  44.501  37.849   1.709
49687W        W 8981  27.196  17.300   2.384
49688W        W 8982  44.496  27.568   3.692
49689W        W 8983  42.919  18.264  12.029
49690W        W 8984  25.609  19.691   3.795
49691W        W 8985  20.733  40.907   4.138
49692W        W 8986  16.224  35.096  13.340
49693W        W 8987  22.535  31.450   4.809
49694W        W 8988  16.306  16.812   3.768
49695W        W 8989  42.301  39.982   4.772
49696W        W 8990  18.658  39.025  14.027
49697W        W 8991   1.914   1.361   1.832
49698W        W 8992  37.458  10.783  14.320
49699W        W 8993  20.588  20.659  14.949
49700W        W 8994   5.197  22.542   1.394
49701W        W 8995   1.837  41.436   4.118
49702W        W 8996   3.367  22.635   1.219
49703W        W 8997  30.011  12.256  12.879
49704W        W 8998  37.479  32.970  14.361
49705W        W 8999  27.991  41.899  13.001
49706W        W 9000   7.697  23.011  14.764
49707W        W 9001  21.607   1.976  10.598
49708W        W 9002  11.843   8.721   4.620
49709W        W 9003  44.466  43.786   4.354
49710W        W 9004   7.277  38.864   4.646
49711W        W 9005  13.664  37.469   5.235
49712W        W 9006  34.984  25.549  12.580
49713W        W 9007   5.809  39.940   0.267
49714W        W 9008  15.799  38.471  11.111
49715W        W 9009  10.141   3.859  12.052
49716W        W 9010  16.240  26.575   5.232
49717W        W 9011  23.548  27.095   3.218
49718W        W 9012   5.709  28.488  14.366
49719W        W 9013   9.331  44.787  11.020
49720W        W 9014  29.662  34.936  14.983
49721W        W 9015  38.491  31.048  10.942
49722W        W 9016  14.699  39.845  12.921
49723W        W 9017  27.670  42.924   4.713
49724W        W 9018  16.206  11.127  13.409
49725W        W 9019  43.902  15.731  12.870
49726W        W 9020   4.233  41.440  11.013
49727W        W 9021   4.733  10.674  12.528
49728W        W 9022  35.023  16.142  14.933
49729W        W 9023   3.879  25.606   4.271
49730W        W 9024  12.631  11.286  14.378
49731W        W 9025  11.672  39.383  11.473
49732W        W 9026  18.116   1.347   1.876
49733W        W 9027  40.917  34.016   0.794
49734W        W 9028  27.056  13.813  12.964
49735W        W 9029  21.168  24.114  13.343
49736W        W 9030  11.325  39.896   4.214
49737W        W 9031   3.811  23.045  14.398
49738W        W 9032  36.364  35.525  14.828
49739W        W 9033  19.071  40.318  14.921
49740W        W 9034  36.843  40.468  11.387
49741W        W 9035   5.871  13.640  12.881
49742W        W 9036  12.647  23.133   2.194
49743W        W 9037  43.838  41.855   1.425
49744W        W 9038  18.078  16.207   3.733
49745W        W 9039  43.281   3.317   3.252
49746W        W 9040   3.443   9.191   0.248
49747W        W 9041  42.374   4.302   0.431
49748W        W 9042  27.999  41.813   4.197
49749W        W 9043   7.899  26.154  10.990
49750W        W 9044  36.038  36.060  11.544
49751W        W 9045  19.084  27.186  13.347
49752W        W 9046  36.080   9.160  13.812
49753W        W 9047  44.325  43.409  10.550
49754W        W 9048  28.970  33.060   4.762
49755W        W 9049  14.803  39.487  14.912
49756W        W 9050  39.902  36.078   2.286
49757W        W 9051   5.845  31.065   0.957
49758W        W 9052  29.587  29.534  13.436
49759W        W 9053  37.466   4.789   4.628
49760W        W 9054  30.659  37.453   0.466
49761W        W 9055  35.509  26.496   0.429
49762W        W 9056  20.692  15.704   0.789
49763W        W 9057  44.369  30.089   1.277
49764W        W 9058  41.376  26.484   2.260
49765W        W 9059  39.871  12.698   4.642
49766W        W 9060   3.262  11.354   3.347
49767W        W 9061  38.346   3.394   4.769
49768W        W 9062  13.280  10.873  10.424
49769W        W 9063   4.387  32.909  11.071
49770W        W 9064  20.069  31.404   1.375
49771W        W 9065  25.482   4.737   4.313
49772W        W 9066   0.312  21.757   2.180
49773W        W 9067   6.197   7.368   4.338
49774W        W 9068  31.946  41.390   2.282
49775W        W 9069  31.498  18.272   2.830
49776W        W 9070  27.613  33.470   4.665
49777W        W 9071   2.836  30.957  10.637
49778W        W 9072  25.049   7.797  12.413
49779W        W 9073   3.319  35.051   3.224
49780W        W 9074  16.256  10.276   2.719
49781W        W 9075  16.203  43.012   2.349
49782W        W 9076   0.761  43.937  10.020
49783W        W 9077   5.920   5.751  14.292
49784W        W 9078  44.986  28.168   0.408
49785W        W 9079  25.026  35.086  14.932
49786W        W 9080  35.944  43.353  12.902
49787W        W 9081  33.484  29.447   0.924
49788W        W 9082  30.094  26.027  10.917
49789W        W 9083  14.600  16.621  12.389
49790W        W 9084  29.132   6.678   2.224
49791W        W 9085  32.614  38.336   9.636
49792W        W 9086  31.907  22.178  13.416
49793W        W 9087  33.119  36.533   2.719
49794W        W 9088  24.177  42.478  11.038
49795W        W 9089   1.373   1.934   0.252
49796W        W 9090   6.862  15.663   2.782
49797W        W 9091   9.815  38.432   4.258
49798W        W 9092   8.259   1.844  14.294
49799W        W 9093  32.025  18.685  12.013
49800W        W 9094  10.186  10.172  12.521
49801W        W 9095  40.467  32.612   4.774
49802W        W 9096  38.928  26.121  10.124
49803W        W 9097  19.161  18.709  12.554
49804W        W 9098  13.600  30.603   1.322
49805W        W 9099  22.547  39.050  10.128
49806W        W 9100   7.273  14.340  12.839
49807W        W 9101  34.078  39.391   0.935
49808W        W 9102  13.649   2.895   0.854
49809W        W 9103  38.472  28.500  12.084
49810W        W 9104  44.900   4.254   0.857
49811W        W 9105  26.505  28.503   4.635
49812W        W 9106  36.429  38.855  11.122
49813W        W 9107  39.858  21.701   1.417
49814W        W 9108  12.257  12.768   2.337
49815W        W 9109  41.817  24.489  11.054
49816W        W 9110  20.179  32.915  11.490
49817W        W 9111  11.144  23.564  12.472
49818W        W 9112  14.628  37.851   0.886
49819W        W 9113  37.374  11.848  11.033
49820W        W 9114   8.192  43.280   1.309
49821W        W 9115  22.241  25.166   4.234
49822W        W 9116   6.264  15.307   0.299
49823W        W 9117  26.488   5.747  13.835
49824W        W 9118   1.388   8.892  10.926
49825W        W 9119   1.852  41.981   0.369
49826W        W 9120  37.064  19.183  13.831
49827W        W 9121  13.777   1.923   4.212
49828W        W 9122  25.676   1.935  14.812
49829W        W 9123   1.245  14.604   4.794
49830W        W 9124  11.705  36.960   1.281
49831W        W 9125   7.701  10.255   4.623
49832W        W 9126  30.072   2.459  10.494
49833W        W 9127  10.652  40.798  14.994
49834W        W 9128   6.677   9.152  11.856
49835W        W 9129  44.291  26.122  12.475
49836W        W 9130   2.766  15.726  12.089
49837W        W 9131   5.236  35.106  14.310
49838W        W 9132  14.231   1.849   1.425
49839W        W 9133   1.264  15.678   4.645
49840W        W 9134  27.674  10.367  12.043
49841W        W 9135  34.549  28.575  13.389
49842W        W 9136  38.436  28.185   4.249
49843W        W 9137  43.316  16.259  13.397
49844W        W 9138   4.366  19.597   4.316
49845W        W 9139   3.368  25.552  12.918
49846W        W 9140  21.087  16.137   2.839
49847W        W 9141  31.936  38.549   2.673
49848W        W 9142  39.495  12.211   4.225
49849W        W 9143   5.274  36.398  11.944
49850W        W 9144  19.539  37.084  11.998
49851W        W 9145  24.664  18.274  10.450
49852W        W 9146  21.523  36.397   3.226
49853W        W 9147   2.764  22.721   4.632
49854W        W 9148  23.635  30.516  11.978
49855W        W 9149  12.303  15.809  10.554
49856W        W 9150  44.446  27.942  12.940
49857W        W 9151   2.403   0.361  14.948
49858W        W 9152  32.625  34.382   5.239
49859W        W 9153   9.211  41.813  11.027
49860W        W 9154   0.405  31.970   3.154
49861W        W 9155  20.624  22.507  12.538
49862W        W 9156  40.520  42.779   0.871
49863W        W 9157   9.799  21.652  12.078
49864W        W 9158  36.501  33.035  14.323
49865W        W 9159   3.812  10.359  12.940
49866W        W 9160  30.119  39.955   9.591
49867W        W 9161  18.555   0.326   0.849
49868W        W 9162  34.602  42.386   4.771
49869W        W 9163  27.468  20.109  14.831
49870W        W 9164   5.898  40.357  13.999
49871W        W 9165  37.444   7.815  14.885
49872W        W 9166  25.486  14.170   0.728
49873W        W 9167   6.302  24.504   1.731
49874W        W 9168  42.373  12.163   0.933
49875W        W 9169  17.221  21.038  14.458
49876W        W 9170   1.779  20.571   3.183
49877W        W 9171  44.985  12.164  10.989
49878W        W 9172  39.897   8.310  14.447
49879W        W 9173   3.272  30.636  12.839
49880W        W 9174  38.992   7.764   5.723
49881W        W 9175   0.776  35.422  10.912
49882W        W 9176  26.460  32.616  10.517
49883W        W 9177  38.976  21.248  13.939
49884W        W 9178  10.363  10.808   0.343
49885W        W 9179  41.333   1.375  11.921
49886W        W 9180   1.297  19.537  11.897
49887W        W 9181  10.163   3.286   4.224
49888W        W 9182  32.579  17.558  12.413
49889W        W 9183  30.077  34.922  10.611
49890W        W 9184  19.572  34.546   4.796
49891W        W 9185  35.576  25.575   2.797
49892W        W 9186  37.921  42.437   1.724
49893W        W 9187  27.029  34.931  10.087
49894W        W 9188  23.611  10.167   3.332
49895W        W 9189  39.398  42.443  12.451
49896W        W 9190   9.782  33.000   4.207
49897W        W 9191  28.136  20.577  10.913
49898W        W 9192  28.445   2.803   3.774
49899W        W 9193   6.865  18.156  12.532
49900W        W 9194  29.544  40.906   2.295
49901W        W 9195   9.344  40.833   0.805
49902W        W 9196  27.634  35.008  11.098
49903W        W 9197  17.272  17.676  12.404
49904W        W 9198  32.441  36.066   3.267
49905W        W 9199  11.688  22.047  12.972
49906W        W 9200  12.326  43.008   1.747
49907W        W 9201  26.490  22.637  13.460
49908W        W 9202  41.819  35.594  11.885
49909W        W 9203  19.046  13.216   4.757
49910W        W 9204  23.672  16.569   0.889
49911W        W 9205  27.049  39.380  13.891
49912W        W 9206  19.064  40.916  12.526
49913W        W 9207  39.961  34.407  14.459
49914W        W 9208  35.909   9.805   1.406
49915W        W 9209  16.726  22.186  14.831
49916W        W 9210  11.778  11.718   4.732
49917W        W 9211  40.437  38.496  14.405
49918W        W 9212  10.359  23.641   0.243
49919W        W 9213  38.526  41.335  14.328
49920W        W 9214  29.973  11.271   2.224
49921W        W 9215  35.053   0.266   1.309
49922W        W 9216  18.093   8.317  12.437
49923W        W 9217  11.758  34.421  10.499
49924W        W 9218   0.333  17.190  13.322
49925W        W 9219  29.014  25.678  14.400
49926W        W 9220  42.491  14.261   2.757
49927W        W 9221  25.082  38.833   2.274
49928W        W 9222  42.486  19.218  12.554
49929W        W 9223  12.800   8.353  14.860
49930W        W 9224  24.195  23.578  13.533
49931W        W 9225   8.213  17.573   4.783
49932W        W 9226   0.964  16.733   4.260
49933W        W 9227  14.792  26.088  13.347
49934W        W 9228   8.255  15.698   1.402
49935W        W 9229  12.157   4.852   2.395
49936W        W 9230  41.849  31.934  11.971
49937W        W 9231  24.557  10.198  12.859
49938W        W 9232  16.593   8.657  11.429
49939W        W 9233  13.651  29.612   0.370
49940W        W 9234  10.818   6.801  12.973
49941W        W 9235  10.662  31.918  14.322
49942W        W 9236   5.859  20.726  14.969
49943W        W 9237  25.998  43.950   1.247
49944W        W 9238   9.337  20.573   3.325
49945W        W 9239  39.542  37.439  12.409
49946W        W 9240   5.857  33.116   2.771
49947W        W 9241  44.289  31.014   5.117
49948W        W 9242   8.268   6.394   4.187
49949W        W 9243  16.744  22.660   4.802
49950W        W 9244  25.645  10.374   2.296
49951W        W 9245  15.629  30.057  10.430
49952W        W 9246  44.970  13.190  14.888
49953W        W 9247  20.163  33.557   4.823
49954W        W 9248   6.730   2.879  11.043
49955W        W 9249  16.101  32.067   1.387
49956W        W 9250  27.026  10.385   0.950
49957W        W 9251  32.442   8.780   3.643
49958W        W 9252  14.158  17.672   1.863
49959W        W 9253   2.446  42.463   3.313
49960W        W 9254  17.290  18.094   5.197
49961W        W 9255   2.794  28.488  11.535
49962W        W 9256  30.158  32.429  14.505
49963W        W 9257  22.118   3.298  13.950
49964W        W 9258  14.337  34.958   0.263
49965W        W 9259  43.020  41.791  11.449
49966W        W 9260  16.607  39.482   2.393
49967W        W 9261  25.644  26.554  13.996
49968W        W 9262  14.805   1.840   1.774
49969W        W 9263  10.836   4.212   1.801
49970W        W 9264  17.194  31.114  11.914
49971W        W 9265  40.869  16.081  14.029
49972W        W 9266  23.584  37.394  12.507
49973W        W 9267  21.542  33.056   2.264
49974W        W 9268  27.498  42.887  11.553
49975W        W 9269   8.181   7.287   2.244
49976W        W 9270  28.642   2.271  10.633
49977W        W 9271  18.293   4.381  12.978
49978W        W 9272  17.130  32.561   2.896
49979W        W 9273  13.147  44.317   4.708
49980W        W 9274  20.230   9.350   3.711
49981W        W 9275  38.932   4.236  13.867
49982W        W 9276  14.264  35.077   1.288
49983W        W 9277  43.804   8.374   2.740
49984W        W 9278  23.058   2.323  13.016
49985W        W 9279   3.720   1.967  14.298
49986W        W 9280  38.868  11.646  14.976
49987W        W 9281  30.620  23.558   2.688
49988W        W 9282  29.125   9.381   4.744
49989W        W 9283  32.971  23.035  12.390
49990W        W 9284  29.518  34.985  13.984
49991W        W 9285   3.405  15.088  14.767
49992W        W 9286  29.584  24.056  14.289
49993W        W 9287   5.874  22.586  13.017
49994W        W 9288   3.772  30.500   3.146
49995W        W 9289  14.272  31.413   3.195
49996W        W 9290   3.236  39.000   1.335
49997W        W 9291  18.200  42.860   3.837
49998W        W 9292  42.401  34.907  12.548
49999W        W 9293   6.762  44.287   3.327
50000W        W 9294   8.192  12.137  12.085
50001W        W 9295  33.444  39.467  14.951
50002W        W 9296  11.719  44.357   4.660
50003W        W 9297   3.834   4.757  12.451
50004W        W 9298  13.701  17.772   1.268
50005W        W 9299  39.003  22.173   2.360
50006W        W 9300  32.024  24.193  11.040
50007W        W 9301  28.052  10.696  12.969
50008W        W 9302  22.612  44.390   9.946
50009W        W 9303  40.454  16.244  12.384
50010W        W 9304  33.467  23.697  14.307
50011W        W 9305  41.479  13.841  14.346
50012W        W 9306  27.136  32.448  11.510
50013W        W 9307  16.714  30.636   3.184
50014W        W 9308  30.002  28.448  12.085
50015W        W 9309  39.955  37.555  13.399
50016W        W 9310  38.437  43.458  10.515
50017W        W 9311  25.126  41.016   2.192
50018W        W 9312  31.957  33.937  14.785
50019W        W 9313  39.559  21.537   2.808
50020W        W 9314  33.451  27.008   1.243
50021W        W 9315   4.741  42.509  13.011
50022W        W 9316  19.633  15.262   0.770
50023W        W 9317   6.828  19.285   1.279
50024W        W 9318  17.606  21.155  11.103
50025W        W 9319  32.482  28.609  14.781
50026W        W 9320  29.487  44.289  12.903
50027W        W 9321  32.501  29.955   3.163
50028W        W 9322  41.462  42.342  13.968
50029W        W 9323  11.866  34.378   3.146
50030W        W 9324  33.934  21.704  10.956
50031W        W 9325  12.745   9.205   3.319
50032W        W 9326  28.545   1.306  12.510
50033W        W 9327  37.442  16.271  11.905
50034W        W 9328   1.289   5.323   0.308
50035W        W 9329  17.734   3.379   4.136
50036W        W 9330  21.100  11.866   4.206
50037W        W 9331  26.088  14.636  11.580
50038W        W 9332  33.419   9.808   0.806
50039W        W 9333  24.541  10.260  13.346
50040W        W 9334  12.288  37.420   1.798
50041W        W 9335  14.650  43.279  14.482
50042W        W 9336  18.210   8.330   4.610
50043W        W 9337  12.638  11.363   2.188
50044W        W 9338  16.743  25.969  11.482
50045W        W 9339  22.673  20.634  13.483
50046W        W 9340   8.875  37.908   2.734
50047W        W 9341  20.274  27.011   1.855
50048W        W 9342  33.430  12.226   3.346
50049W        W 9343  27.010  35.865  11.488
50050W        W 9344   6.286  24.525  11.607
50051W        W 9345  13.809  35.383  13.391
50052W        W 9346  24.164   9.831   3.272
50053W        W 9347  24.714  25.629  12.034
50054W        W 9348  12.313  31.626   3.657
50055W        W 9349  16.667  38.030   4.352
50056W        W 9350  13.648  11.215  12.444
50057W        W 9351   7.320   0.376  11.536
50058W        W 9352  37.494  13.205  11.575
50059W        W 9353  30.946  34.993  12.579
50060W        W 9354  16.113  24.664  11.940
50061W        W 9355  16.275  27.087   2.299
50062W        W 9356  26.612  29.582  13.001
50063W        W 9357  21.100   6.300   1.445
50064W        W 9358  16.728  33.438   2.251
50065W        W 9359  31.031  15.603  13.007
50066W        W 9360  15.604  23.720  11.924
50067W        W 9361  16.150   6.300   3.751
50068W        W 9362  39.955  19.575   5.204
50069W        W 9363  13.215  43.869  14.313
50070W        W 9364  30.069  12.201   2.186
50071W        W 9365   7.827  15.290  11.038
50072W        W 9366  37.485  19.216  12.908
50073W        W 9367  19.193  31.106  14.310
50074W        W 9368  25.576  29.587   3.764
50075W        W 9369  34.913   1.839   2.302
50076W        W 9370  31.939   2.319  13.884
50077W        W 9371  10.350  29.150  13.426
50078W        W 9372  25.213  29.089  10.454
50079W        W 9373  35.412  24.631   1.894
50080W        W 9374  29.588  10.660   3.637
50081W        W 9375  31.480  42.394   1.879
50082W        W 9376  15.194  18.646  14.957
50083W        W 9377  33.991  35.926  14.343
50084W        W 9378  19.547  35.894  14.300
50085W        W 9379  41.988   7.403  14.371
50086W        W 9380  36.970  38.021  12.560
50087W        W 9381  36.931  44.985   1.809
50088W        W 9382   1.901  44.497   4.829
50089W        W 9383   3.250   0.327  11.474
50090W        W 9384   8.391   1.820   3.355
50091W        W 9385   0.839  37.569  13.820
50092W        W 9386  39.527   1.469   0.839
50093W        W 9387  44.455  23.225   5.250
50094W        W 9388   9.177   6.359   4.245
50095W        W 9389   9.696  14.787   0.280
50096W        W 9390  21.572  15.762  12.833
50097W        W 9391  13.131  26.167  11.607
50098W        W 9392  11.207  20.545  14.320
50099W        W 9393  44.327  25.206  14.443
50100W        W 9394  18.784   3.799  12.563
50101W        W 9395   1.412   6.876  14.380
50102W        W 9396  11.221  30.999   1.387
50103W        W 9397  15.118  36.985   0.313
50104W        W 9398  26.046  30.471   1.250
50105W        W 9399  44.337   3.230  11.554
50106W        W 9400  43.838  34.983  12.438
50107W        W 9401  11.695  42.907  10.621
50108W        W 9402  17.099  13.191   0.335
50109W        W 9403  22.049  30.420  11.501
50110W        W 9404  38.456  13.665  13.016
50111W        W 9405   2.401  33.083  12.940
50112W        W 9406  15.812  14.766   3.776
50113W        W 9407  19.585  29.651  11.032
50114W        W 9408  13.688  30.020  11.098
50115W        W 9409   9.697  15.641   2.714
50116W        W 9410  29.583  42.963  12.423
50117W        W 9411  26.003   6.410  11.491
50118W        W 9412  29.657   1.865   2.843
50119W        W 9413  42.841  34.589   2.384
50120W        W 9414  26.112  26.666  13.533
50121W        W 9415  17.200  20.683  13.450
50122W        W 9416  38.336   3.840   4.217
50123W        W 9417  26.121  14.612   0.469
50124W        W 9418   1.909  13.287   5.229
50125W        W 9419  40.012  38.570   2.203
50126W        W 9420  22.713   2.832  10.519
50127W        W 9421  36.969  32.432  14.780
50128W        W 9422  29.160  23.013  11.941
50129W        W 9423  14.635  25.173   2.398
50130W        W 9424  17.678  28.513  11.943
50131W        W 9425  29.096  10.674  12.424
50132W        W 9426   2.818   4.926   3.157
50133W        W 9427  43.294  40.408   0.811
50134W        W 9428   7.689  17.695  11.582
50135W        W 9429   4.879  40.851  10.993
50136W        W 9430  41.391  40.926   4.720
50137W        W 9431  16.168   9.865   9.436
50138W        W 9432  44.435  11.733   3.383
50139W        W 9433  16.704  11.765  13.894
50140W        W 9434   5.337  25.486   2.301
50141W        W 9435  27.957  35.905   0.463
50142W        W 9436  34.420  12.620  14.031
50143W        W 9437  21.223  40.904  14.802
50144W        W 9438  31.901   6.298  12.367
50145W        W 9439  17.065  28.669   1.342
50146W        W 9440   3.804  15.806  10.511
50147W        W 9441  34.882  16.631   3.357
50148W        W 9442   5.438  43.469  13.365
50149W        W 9443  19.097  30.086  13.963
50150W        W 9444  34.448   6.280   4.207
50151W        W 9445  10.167  30.091   3.374
50152W        W 9446   2.458  11.160  11.882
50153W        W 9447  13.813  33.918   2.373
50154W        W 9448   9.326  17.177  11.486
50155W        W 9449  11.133  16.752   0.256
50156W        W 9450   6.893  19.210   3.708
50157W        W 9451  21.623  11.651  14.316
50158W        W 9452  14.823  30.030   4.221
50159W        W 9453  15.294   8.366   0.383
50160W        W 9454  40.848   3.267   3.164
50161W        W 9455   2.311  40.453   2.217
50162W        W 9456  11.138  36.517  11.098
50163W        W 9457   3.274   2.432  11.024
50164W        W 9458  37.890  37.502  13.347
50165W        W 9459  26.144   1.433  10.435
50166W        W 9460  30.567   1.432   1.300
50167W        W 9461  36.976  42.950  14.396
50168W        W 9462  30.557  36.388  14.416
50169W        W 9463  22.634   8.324  14.377
50170W        W 9464   5.319  11.807  12.415
50171W        W 9465  17.639  17.692  13.308
50172W        W 9466  11.208  37.886  11.072
50173W        W 9467  25.096  36.492   0.339
50174W        W 9468  39.926  22.563   3.357
50175W        W 9469  38.502  22.231  12.844
50176W        W 9470  26.965  40.960  11.995
50177W        W 9471  40.383  33.033   2.411
50178W        W 9472  41.352  20.592   2.736
50179W        W 9473  17.119   7.894   2.247
50180W        W 9474   1.349  25.076  11.030
50181W        W 9475  29.016  37.998  11.944
50182W        W 9476  34.072  36.543   2.337
50183W        W 9477  14.280  17.722  11.417
50184W        W 9478  44.810  27.145  11.531
50185W        W 9479  33.096  42.877  10.565
50186W        W 9480   1.823  39.317  12.502
50187W        W 9481  43.915  39.852  13.533
50188W        W 9482  21.086  33.480  12.938
50189W        W 9483  42.957  12.312  13.339
50190W        W 9484   6.365  20.238   2.375
50191W        W 9485  18.055  21.603   0.457
50192W        W 9486  12.654  12.142  14.969
50193W        W 9487  27.664  14.683   3.692
50194W        W 9488  41.789   2.804   1.219
50195W        W 9489  22.503  18.285   0.248
50196W        W 9490  14.099  19.188   0.888
50197W        W 9491  25.523  31.134   3.787
50198W        W 9492   0.346   6.923  14.032
50199W        W 9493   1.797  33.526  14.838
50200W        W 9494  35.400   4.819  11.541
50201W        W 9495  44.775  42.438   4.163
50202W        W 9496  37.462  31.418  12.345
50203W        W 9497  17.256  29.472   2.297
50204W        W 9498  36.415  10.248   3.805
50205W        W 9499  18.635  17.124  11.564
50206W        W 9500  24.581  36.051  12.528
50207W        W 9501  28.185   9.658  13.351
50208W        W 9502  37.562  12.210  10.431
50209W        W 9503  12.824   7.349  13.950
50210W        W 9504  39.364   7.798  10.421
50211W        W 9505  28.044  24.627  10.140
50212W        W 9506  17.578  28.064  13.483
50213W        W 9507  18.221  34.378   3.821
50214W        W 9508  36.427  28.456   2.382
50215W        W 9509   3.295   0.908   0.332
50216W        W 9510  40.808  32.996  11.903
50217W        W 9511  21.252  20.180  10.960
50218W        W 9512   7.795  16.657  14.325
50219W        W 9513  39.962   1.443   2.874
50220W        W 9514  23.584  12.301  14.926
50221W        W 9515  30.999  25.585  11.499
50222W        W 9516  43.967  43.434  10.891
50223W        W 9517   1.882  20.629   2.755
50224W        W 9518  43.411  27.665   0.774
50225W        W 9519  16.789  42.490  14.508
50226W        W 9520  23.630   5.763  14.307
50227W        W 9521  23.045  37.011   4.675
50228W        W 9522  43.389  22.734   1.284
50229W        W 9523   8.890  32.128   1.324
50230W        W 9524  40.460   0.982  12.463
50231W        W 9525   4.295  24.059  12.094
50232W        W 9526  34.945  16.146  12.981
50233W        W 9527   0.300  24.128   0.872
50234W        W 9528  21.683  30.603  10.410
50235W        W 9529   4.371  39.974   4.605
50236W        W 9530  23.232  15.224  10.603
50237W        W 9531   5.389  19.642  14.360
50238W        W 9532  37.075  40.536   1.250
50239W        W 9533   3.765  34.381  13.400
50240W        W 9534  42.428   8.269   2.221
50241W        W 9535  15.788  30.428   1.249
50242W        W 9536   9.312  12.776   0.840
50243W        W 9537  32.986  24.038   2.693
50244W        W 9538  16.100  19.572   2.903
50245W        W 9539  38.499   3.759  12.363
50246W        W 9540  32.624  40.930   3.641
50247W        W 9541  38.442  10.202  11.549
50248W        W 9542  16.642  29.424   1.210
50249W        W 9543  18.293  13.776  14.010
50250W        W 9544  36.535  43.460  11.864
50251W        W 9545  18.126  30.464  13.924
50252W        W 9546  14.712  32.932   2.722
50253W        W 9547  37.540  10.241  14.911
50254W        W 9548   7.239  25.605  13.496
50255W        W 9549  11.366  30.119   1.714
50256W        W 9550  18.669  32.968   0.311
50257W        W 9551  15.732  27.464  11.508
50258W        W 9552  40.450  22.712   3.345
50259W        W 9553  17.666  18.711  14.028
50260W        W 9554  24.657  18.187   1.433
50261W        W 9555   0.386  26.080  12.471
50262W        W 9556   7.172   5.270   4.341
50263W        W 9557  36.441  20.692   4.272
50264W        W 9558  23.058   4.273   2.862
50265W        W 9559  43.279  35.956  10.591
50266W        W 9560  28.574   6.292  10.939
50267W        W 9561  29.934  11.361  12.069
50268W        W 9562  38.013  24.045   1.776
50269W        W 9563  34.416  15.228  14.411
50270W        W 9564  20.174  10.840   0.748
50271W        W 9565   0.795   0.379   5.124
50272W        W 9566  40.848  35.604  12.348
50273W        W 9567  24.071  35.017   0.462
50274W        W 9568  40.877  38.887  12.831
50275W        W 9569  37.975   3.858   2.213
50276W        W 9570  14.251  13.118  12.009
50277W        W 9571   2.467   0.346  10.946
50278W        W 9572  31.595  31.531   0.808
50279W        W 9573   2.283  19.569   3.184
50280W        W 9574  40.385  16.723  11.385
50281W        W 9575  38.076   4.391   3.157
50282W        W 9576  14.696  38.857   1.451
50283W        W 9577  26.593  29.172  10.549
50284W        W 9578  30.043  21.216  12.567
50285W        W 9579  36.569  35.031  11.900
50286W        W 9580  18.273  29.602  13.010
50287W        W 9581  33.025  39.885  11.940
50288W        W 9582   5.284  30.992  11.079
50289W        W 9583  43.403  29.623   0.357
50290W        W 9584  36.056   2.460   3.829
50291W        W 9585  34.000  32.129  11.983
50292W        W 9586   9.274  38.421  12.389
50293W        W 9587  37.882  33.569   2.412
50294W        W 9588  40.860   1.815   4.137
50295W        W 9589  21.217   2.322  14.865
50296W        W 9590  21.155   2.336   1.871
50297W        W 9591  34.026   6.895   3.770
50298W        W 9592  44.786  19.678   2.862
50299W        W 9593  22.686  26.630  12.419
50300W        W 9594  22.164  11.282  11.451
50301W        W 9595  16.587   7.730   4.690
50302W        W 9596   4.293   7.720  13.057
50303W        W 9597   3.314  43.327   3.826
50304W        W 9598   7.250   3.798   3.797
50305W        W 9599  23.641  22.225   1.210
50306W        W 9600   6.346  17.244  13.356
50307W        W 9601  15.800  23.113  12.053
50308W        W 9602   6.738   5.423   4.170
50309W        W 9603  21.170  22.535   2.279
50310W        W 9604  18.627  32.493  12.521
50311W        W 9605   5.892  10.772   3.255
50312W        W 9606  35.936   6.338   5.235
50313W        W 9607  36.398  40.463  12.928
50314W        W 9608   0.987  40.848  11.589
50315W        W 9609  22.589  10.335  12.375
50316W        W 9610  27.980  42.982  14.507
50317W        W 9611   7.909  21.097   3.159
50318W        W 9612   1.864  27.556  13.385
50319W        W 9613  24.481  15.183   2.383
50320W        W 9614  22.170  28.931  14.963
50321W        W 9615  13.220   7.850  14.975
50322W        W 9616  11.189  28.562   5.119
50323W        W 9617  15.797  34.026   0.285
50324W        W 9618  22.020  13.680  11.040
50325W        W 9619  39.345  37.543  13.934
50326W        W 9620  14.604   6.213   1.854
50327W        W 9621  37.984  12.712  13.976
50328W        W 9622  34.530  42.340   0.355
50329W        W 9623  31.627  11.708  11.576
50330W        W 9624  25.505  13.659  10.504
50331W        W 9625   8.800   4.808   4.788
50332W        W 9626  14.673  15.120  12.015
50333W        W 9627  35.041  34.102  10.094
50334W        W 9628  14.106   5.829   1.387
50335W        W 9629  33.538  13.754   0.960
50336W        W 9630  24.059  25.037   1.391
50337W        W 9631  34.421  19.736  14.869
50338W        W 9632  44.876  32.894  11.095
50339W        W 9633   9.656   8.243  14.318
50340W        W 9634  42.971  17.729   3.835
50341W        W 9635  29.628  21.027  13.490
50342W        W 9636   0.783  33.401  12.900
50343W        W 9637  35.387  35.496   3.165
50344W        W 9638  10.771  12.197   2.299
50345W        W 9639  34.570  12.613   2.269
50346W        W 9640   9.858  30.997   2.882
50347W        W 9641  44.322  43.328   0.799
50348W        W 9642  30.026   5.691  10.560
50349W        W 9643  30.639  29.168  12.353
50350W        W 9644   2.963  29.960  12.875
50351W        W 9645  23.544  40.546   2.789
50352W        W 9646  31.051  16.727   2.829
50353W        W 9647   2.808   3.711  11.066
50354W        W 9648  24.590  11.725  11.469
50355W        W 9649   8.899  16.595   2.697
50356W        W 9650  24.132  19.664  10.986
50357W        W 9651   6.205  18.680  13.530
50358W        W 9652  43.005   7.789  14.387
50359W        W 9653  17.657  21.732   1.336
50360W        W 9654  18.687  24.659  11.983
50361W        W 9655   4.784   5.920   1.216
50362W        W 9656  14.273  34.033   4.771
50363W        W 9657  38.457  36.538   4.825
50364W        W 9658  15.737  44.850   4.234
50365W        W 9659  36.358  18.260   4.618
50366W        W 9660  18.549  35.382   0.419
50367W        W 9661  41.019  22.071  13.837
50368W        W 9662  38.968  33.597   2.706
50369W        W 9663  19.560   6.788   1.779
50370W        W 9664  43.462  42.905  10.966
50371W        W 9665  44.259  13.659  12.020
50372W        W 9666  38.915  18.183   4.762
50373W        W 9667   1.332  27.066  14.793
50374W        W 9668  42.821  40.456  13.980
50375W        W 9669  30.026  31.951   4.261
50376W        W 9670  44.367  10.773   1.749
50377W        W 9671  42.792  39.994   0.739
50378W        W 9672  16.603  32.958   1.797
50379W        W 9673  15.099   7.783  13.408
50380W        W 9674  36.356   7.375  14.805
50381W        W 9675  40.416   4.248  13.975
50382W        W 9676  15.218  37.023  14.401
50383W        W 9677   0.339  17.590  11.411
50384W        W 9678  20.049   8.251  13.472
50385W        W 9679  20.028  17.562  13.990
50386W        W 9680  10.226  19.673  10.049
50387W        W 9681  41.378  11.323  10.579
50388W        W 9682  33.524  44.406  12.523
50389W        W 9683  44.763  32.957   0.963
50390W        W 9684  30.978  44.928   1.384
50391W        W 9685  22.041  21.543  13.528
50392W        W 9686   9.646  33.562   2.256
50393W        W 9687  18.646  24.202  12.556
50394W        W 9688  31.092  24.040  11.460
50395W        W 9689  32.891  36.443  12.040
50396W        W 9690   6.252  20.614  13.381
50397W        W 9691  30.445   4.745  12.428
50398W        W 9692   1.837  33.042   0.876
50399W        W 9693  43.322  24.177   2.220
50400W        W 9694  20.211  11.273  14.461
50401W        W 9695  35.002   6.277  14.897
50402W        W 9696   6.298  15.675   1.223
50403W        W 9697  15.128  14.600  14.441
50404W        W 9698  43.347  13.351  13.013
50405W        W 9699  17.590   1.975  11.858
50406W        W 9700  43.848   5.290  12.544
50407W        W 9701  37.898  12.822  12.571
50408W        W 9702   7.367   2.730   0.472
50409W        W 9703  16.762  24.613  13.335
50410W        W 9704   6.791  12.287  14.984
50411W        W 9705  25.986  19.625  10.429
50412W        W 9706  19.593  13.733  11.573
50413W        W 9707  22.038  41.535   3.870
50414W        W 9708   4.354  29.433  11.981
50415W        W 9709   0.322  12.251  11.491
50416W        W 9710  41.528   1.901   3.748
50417W        W 9711  26.691  10.350  14.420
50418W        W 9712  24.527  44.353  11.022
50419W        W 9713  28.585   9.192   2.806
50420W        W 9714  20.100  39.027   0.742
50421W        W 9715  33.400  32.409  13.324
50422W        W 9716  26.056  14.751  13.870
50423W        W 9717  18.740  25.166   4.656
50424W        W 9718  41.503  35.961   0.477
50425W        W 9719   4.209  21.095  14.898
50426W        W 9720  28.057  16.118   1.781
50427W        W 9721  15.734  28.672  11.596
50428W        W 9722   6.865  37.410  13.011
50429W        W 9723  14.814  40.348   1.779
50430W        W 9724   0.380  40.894   0.956
50431W        W 9725  28.076  33.625   3.385
50432W        W 9726  30.011   8.894  14.432
50433W        W 9727  35.067  21.254   3.640
50434W        W 9728  21.051  42.959  13.814
50435W        W 9729  22.094  27.064  13.328
50436W        W 9730  37.540  27.022  14.463
50437W        W 9731  43.824  42.949  13.375
50438W        W 9732   4.362   5.926  11.494
50439W        W 9733  33.106  41.949  12.847
50440W        W 9734  40.489   0.891   4.625
50441W        W 9735  27.634  17.619   3.355
50442W        W 9736  27.943  44.774   1.431
50443W        W 9737  35.917  43.010   1.420
50444W        W 9738   4.769  14.241  12.446
50445W        W 9739  35.516  25.616  12.029
50446W        W 9740   6.346  44.472   4.310
50447W        W 9741   0.380   1.835   1.731
50448W        W 9742  15.601   9.795   4.664
50449W        W 9743  36.898   9.363   1.342
50450W        W 9744  41.999   8.900   4.126
50451W        W 9745   0.948  16.772  12.089
50452W        W 9746  38.512  31.151   3.831
50453W        W 9747  13.754  24.621   2.826
50454W        W 9748  21.647  38.852   1.347
50455W        W 9749  16.621  13.834   1.715
50456W        W 9750  15.721  28.115   0.290
50457W        W 9751   3.749  40.542  13.987
50458W        W 9752  11.765   0.435   4.131
50459W        W 9753  16.179  21.073  14.400
50460W        W 9754   6.341   2.894   1.424
50461W        W 9755  25.469  20.100  12.970
50462W        W 9756  12.255  23.050   3.181
50463W        W 9757   9.697  20.063  13.376
50464W        W 9758  26.640  10.246  13.363
50465W        W 9759   9.195  42.795   0.842
50466W        W 9760  24.582  16.273   2.674
50467W        W 9761  29.069  30.536   0.323
50468W        W 9762  26.547   5.204   0.356
50469W        W 9763   6.303  39.843  11.121
50470W        W 9764   2.962  12.333   2.742
50471W        W 9765   1.394  31.519   4.822
50472W        W 9766  44.292   7.696   1.267
50473W        W 9767   0.900  27.497   0.421
50474W        W 9768   5.259  13.819  11.566
50475W        W 9769  23.165  36.468   3.295
50476W        W 9770  31.937  35.978  13.501
50477W        W 9771   0.946   5.392  10.979
50478W        W 9772  31.599  11.286   2.246
50479W        W 9773  36.978  39.379   1.845
50480W        W 9774  21.216  11.232   3.287
50481W        W 9775  23.057   1.824  11.563
50482W        W 9776  30.596  42.523  12.451
50483W        W 9777  38.405  35.579   0.822
50484W        W 9778  30.070  40.873   3.200
50485W        W 9779  26.498   3.399   2.812
50486W        W 9780   6.428   5.278   4.627
50487W        W 9781  40.395   3.882  13.531
50488W        W 9782  28.453  44.409  13.366
50489W        W 9783  12.616  24.188  13.051
50490W        W 9784  22.696   3.765  11.938
50491W        W 9785  26.579  11.368  14.376
50492W        W 9786  13.824  27.512  11.438
50493W        W 9787  23.178   1.962   3.327
50494W        W 9788  23.601  13.812   1.790
50495W        W 9789  29.509  44.259   5.147
50496W        W 9790   2.423  14.116   3.273
50497W        W 9791  15.742  40.854  12.887
50498W        W 9792  10.820   2.817   4.783
50499W        W 9793   1.339  32.632   2.794
50500W        W 9794  19.643  27.570  12.344
50501W        W 9795  17.218   0.440  13.951
50502W        W 9796   3.441   4.206   3.298
50503W        W 9797   4.887   7.826   1.763
50504W        W 9798  13.839  27.090  14.419
50505W        W 9799  40.919  24.054  13.344
50506W        W 9800  34.065  27.647   1.328
50507W        W 9801  16.178  36.951   3.198
50508W        W 9802  21.082  31.026  12.472
50509W        W 9803  27.549  10.851  11.868
50510W        W 9804  42.932   0.377  12.836
50511W        W 9805  23.005  44.384   2.307
50512W        W 9806   7.861  27.941   3.663
50513W        W 9807  32.463   3.728  12.525
50514W        W 9808  23.106  27.978   4.628
50515W        W 9809  11.349  44.998  11.116
50516W        W 9810  35.506  35.924  11.610
50517W        W 9811  27.975  31.482  11.421
50518W        W 9812  38.547   7.693  12.441
50519W        W 9813  20.256  23.529   0.868
50520W        W 9814   5.800  15.584  10.988
50521W        W 9815  20.580  24.089   2.774
50522W        W 9816  34.533  31.130   3.336
50523W        W 9817  10.643  18.081   4.242
50524W        W 9818  42.819  18.671  14.336
50525W        W 9819   5.350   3.402  10.489
50526W        W 9820  37.511  10.796  11.053
50527W        W 9821  40.332  21.162   0.847
50528W        W 9822   6.273   6.762   3.340
50529W        W 9823   5.242  12.184  11.900
50530W        W 9824  25.166  12.748   0.955
50531W        W 9825  12.767  29.967  12.542
50532W        W 9826  19.231  13.296  13.987
50533W        W 9827  28.070  26.655   2.770
50534W        W 9828  32.950   4.435  11.937
50535W        W 9829  10.327  31.422  12.093
50536W        W 9830  28.989  21.645  11.041
50537W        W 9831  19.717  24.503  13.925
50538W        W 9832  17.257  37.345  12.841
50539W        W 9833  32.405   8.308   0.419
50540W        W 9834  32.912  22.087   0.455
50541W        W 9835   6.325  27.447  10.961
50542W        W 9836  12.845   1.393  12.369
50543W        W 9837   8.390  23.706   3.791
50544W        W 9838  24.502  20.595   2.232
50545W        W 9839  16.279  38.966   4.293
50546W        W 9840  13.722  40.021   3.207
50547W        W 9841  41.824  44.794  10.603
50548W        W 9842  19.593  40.428  10.941
50549W        W 9843  19.571   2.900   4.614
50550W        W 9844  38.470  35.524  14.366
50551W        W 9845  17.609  41.298   0.282
50552W        W 9846  31.037   7.212  12.975
50553W        W 9847  22.584   7.875   3.753
50554W        W 9848  33.889  18.063   2.870
50555W        W 9849  20.194  34.556  10.561
50556W        W 9850  27.522  22.525  12.501
50557W        W 9851  10.787  41.827  12.473
50558W        W 9852  34.536   6.298  13.376
50559W        W 9853  42.003  19.750   9.965
50560W        W 9854  41.446  23.058  14.486
50561W        W 9855   5.223  31.990  12.528
50562W        W 9856  37.008   3.731   3.778
50563W        W 9857  29.482   9.822  11.047
50564W        W 9858  38.483  22.563   2.798
50565W        W 9859  40.878  12.629   1.843
50566W        W 9860  22.082  10.784   3.329
50567W        W 9861  10.242  16.098  11.422
50568W        W 9862  25.063  33.887   3.756
50569W        W 9863  28.540  15.133   2.277
50570W        W 9864  41.794  35.410  12.985
50571W        W 9865  36.443  30.582  13.930
50572W        W 9866   5.851  12.653   4.740
50573W        W 9867  21.576  11.843   9.934
50574W        W 9868   4.902  38.447  13.514
50575W        W 9869  19.739  37.891   1.232
50576W        W 9870   9.235  14.811   1.767
50577W        W 9871   0.461  12.344   0.341
50578W        W 9872  33.584  23.518   4.333
50579W        W 9873  24.665  17.229  12.882
50580W        W 9874   4.908  10.145  13.061
50581W        W 9875  23.047   6.318  14.921
50582W        W 9876  21.221  14.645   3.243
50583W        W 9877  34.548  25.578  14.338
50584W        W 9878  33.063  40.478   2.190
50585W        W 9879  38.500  30.540   0.454
50586W        W 9880  41.388   8.170  12.054
50587W        W 9881  26.625  39.906  14.920
50588W        W 9882  26.207  15.586   3.310
50589W        W 9883  34.421  29.127   4.798
50590W        W 9884   4.352   0.966  14.490
50591W        W 9885   8.673  14.286  13.020
50592W        W 9886  15.648  29.535   4.814
50593W        W 9887  26.999  29.452   0.419
50594W        W 9888  37.424  32.986  12.081
50595W        W 9889  25.134   5.425   0.345
50596W        W 9890  33.405  32.114   0.851
50597W        W 9891  32.591  17.738  14.879
50598W        W 9892  29.943  41.984  12.496
50599W        W 9893  33.959  36.487  14.452
50600W        W 9894  40.342  31.060   0.932
50601W        W 9895  39.812  31.518   2.338
50602W        W 9896  42.885  12.812  11.535
50603W        W 9897   4.250  43.431  13.463
50604W        W 9898  34.011  22.009  14.922
50605W        W 9899  10.858  42.391  11.098
50606W        W 9900   2.467  13.318   0.755
50607W        W 9901   8.671  35.871   3.777
50608W        W 9902  35.978   0.810  13.898
50609W        W 9903  43.834   2.928  14.413
50610W        W 9904  10.815   0.864  11.440
50611W        W 9905   6.207  31.574  10.551
50612W        W 9906  33.982  43.475  11.595
50613W        W 9907  24.127  27.686   4.286
50614W        W 9908  10.247  31.565  10.461
50615W        W 9909  11.159  41.382  14.421
50616W        W 9910  42.788  32.999   1.339
50617W        W 9911  24.157  12.731   0.838
50618W        W 9912  35.389  41.888   0.938
50619W        W 9913   8.673  12.360   0.365
50620W        W 9914   0.828   5.718   2.274
50621W        W 9915  43.483  12.818  12.445
50622W        W 9916   4.214   8.337   2.733
50623W        W 9917  10.238  15.142   2.783
50624W        W 9918  13.292   0.975  13.359
50625W        W 9919  20.650  11.226   3.666
50626W        W 9920  22.614   0.409  12.039
50627W        W 9921  32.476  40.844  10.082
50628W        W 9922  22.013   9.844   4.741
50629W        W 9923  14.287  12.780   2.711
50630W        W 9924  29.478   2.365  13.957
50631W        W 9925  28.522  39.022   3.756
50632W        W 9926  11.630  29.564   2.312
50633W        W 9927  37.376  35.857   2.827
50634W        W 9928  27.673  11.190   3.370
50635W        W 9929  11.625   5.194  13.039
50636W        W 9930   0.747  25.549  12.371
50637W        W 9931   5.787  17.656  10.406
50638W        W 9932  36.367  19.688  10.595
50639W        W 9933   4.706  44.347   3.737
50640W        W 9934  33.986  37.387  12.981
50641W        W 9935  10.677  14.761   1.236
50642W        W 9936   2.796   7.377   2.864
50643W        W 9937   3.420  13.351   4.821
50644W        W 9938  28.131   4.777  13.467
50645W        W 9939   4.933  31.951  12.542
50646W        W 9940  44.400  25.187  12.364
50647W        W 9941  22.102  20.117  13.812
50648W        W 9942  43.283  41.993   3.640
50649W        W 9943  30.933  33.399  11.125
50650W        W 9944  35.476  11.210  14.917
50651W        W 9945  25.209  10.824   3.331
50652W        W 9946  43.439  15.123   2.323
50653W        W 9947  26.538  25.640  11.505
50654W        W 9948   8.700  27.085   0.387
50655W        W 9949  17.079  23.114  12.923
50656W        W 9950  23.191  11.728  14.396
50657W        W 9951  22.607  22.528  12.538
50658W        W 9952  24.684  25.541  10.437
50659W        W 9953  10.148  11.741  13.912
50660W        W 9954  23.573  39.527   2.869
50661W        W 9955   8.314  42.370   3.385
50662W        W 9956  34.566  22.578   4.663
50663W        W 9957  10.369  30.909  12.544
50664W        W 9958  35.012   4.911  14.350
50665W        W 9959  44.934  19.669   1.296
50666W        W 9960  17.304  18.186   4.814
50667W        W 9961  26.631   6.682  10.986
50668W        W 9962  35.893  21.071  11.493
50669W        W 9963  23.513   0.329  11.521
50670W        W 9964  44.917  21.219   3.803
50671W        W 9965  26.546   6.694  12.409
50672W        W 9966  31.985  21.084  14.780
50673W        W 9967   6.356  28.572   4.190
50674W        W 9968  28.533   2.791  12.958
50675W        W 9969  14.260  21.626  12.039
50676W        W 9970  23.141  13.704  14.796
50677W        W 9971  36.048  14.095   2.757
50678W        W 9972  35.505  36.382  12.388
50679W        W 9973  41.821  17.089  11.125
50680W        W 9974  36.518  34.369  13.915
50681W        W 9975   0.376  30.989   0.920
50682W        W 9976  43.903  20.659   0.467
50683W        W 9977  39.017  23.693  14.410
50684W        W 9978   3.376  16.105  14.489
50685W        W 9979  18.287  24.707   0.356
50686W        W 9980  15.617  23.079  14.766
50687W        W 9981   2.789  35.528  13.852
50688W        W 9982   6.759  24.182  11.053
50689W        W 9983  17.099   1.446   1.309
50690W        W 9984   9.304  43.340  13.412
50691W        W 9985  12.778   7.411   2.892
50692W        W 9986   1.762  35.367   4.167
50693W        W 9987   6.269  37.394   3.849
50694W        W 9988  15.182  20.700   2.346
50695W        W 9989  29.162  33.419   4.640
50696W        W 9990  28.568   5.264   4.638
50697W        W 9991   1.479  20.684  11.025
50698W        W 9992  33.414   4.230   1.742
50699W        W 9993  41.982  32.603   4.233
50700W        W 9994  17.233  44.313   3.794
50701W        W 9995  27.635  28.054   4.642
50702W        W 9996   0.428  11.630   3.738
50703W        W 9997  19.681  19.561   4.724
50704W        W 9998   3.290   8.364  13.842
50705W        W 9999  22.691  12.327   2.715
50706W        W10000  33.591  27.984   2.720
50707W        W10001  29.597   4.274  14.320
50708W        W10002   5.803  44.943  13.514
50709W        W10003  29.474  41.398  11.568
50710W        W10004  36.435   1.381   0.307
50711W        W10005  34.410  21.116  10.961
50712W        W10006  41.884   7.750   4.342
50713W        W10007   3.289  43.295  14.291
50714W        W10008   7.711  11.712   4.237
50715W        W10009  43.379  21.133   3.248
50716W        W10010  10.674   7.832   2.259
50717W        W10011   1.732  41.483  12.357
50718W        W10012  25.192   4.252  14.945
50719W        W10013  24.120   1.423  11.385
50720W        W10014  21.263  21.102   1.224
50721W        W10015  13.158  29.979   5.268
50722W        W10016  37.886  19.260  10.509
50723W        W10017   8.236  30.568  14.445
50724W        W10018  27.185   2.453  11.101
50725W        W10019  33.958  34.485   1.377
50726W        W10020  32.911  23.533   2.705
50727W        W10021   9.316  11.349  13.519
50728W        W10022   0.350  26.539   4.309
50729W        W10023  30.488  24.573  11.556
50730W        W10024   4.812  43.782   4.819
50731W        W10025  15.105  13.713   0.433
50732W        W10026  25.504  28.977  11.934
50733W        W10027  10.875  14.331   0.424
50734W        W10028  24.633  22.171   1.712
50735W        W10029  33.938  23.079  13.971
50736W        W10030  13.715   8.252   3.768
50737W        W10031  26.492  21.568   2.841
50738W        W10032   3.749  19.286   0.954
50739W        W10033   5.204  10.185   3.774
50740W        W10034  25.537  18.549   3.234
50741W        W10035  15.719  21.750   4.611
50742W        W10036  40.523  17.198   4.309
50743W        W10037  16.173  42.522   3.829
50744W        W10038  19.050  44.823   4.799
50745W        W10039  21.030  21.065   3.768
50746W        W10040  19.650  12.294  14.847
50747W        W10041  25.188  35.390   4.733
50748W        W10042  12.267  40.389   1.747
50749W        W10043   1.934   2.308   3.256
50750W        W10044  43.303  25.091   2.328
50751W        W10045  42.992  42.527   4.197
50752W        W10046  14.288   8.860   1.715
50753W        W10047  38.018   2.893   1.803
50754W        W10048   6.828  13.689   4.712
50755W        W10049  42.918  38.932   3.844
50756W        W10050   9.384   5.863  12.505
50757W        W10051  28.065  28.657   4.642
50758W        W10052  38.448  39.487   4.818
50759W        W10053  23.493   7.804  14.379
50760W        W10054   1.895  30.595  12.853
50761W        W10055  21.583   4.877   4.244
50762W        W10056   0.793  11.693   3.167
50763W        W10057  28.941  32.927  14.503
50764W        W10058  29.014  18.104  14.921
50765W        W10059  30.636  24.022  12.855
50766W        W10060  19.136  16.693   0.850
50767W        W10061  22.698  16.645   3.830
50768W        W10062  36.465  29.619  14.841
50769W        W10063  31.019   8.853  12.362
50770W        W10064  37.062  24.648   1.330
50771W        W10065   6.891  37.383  14.371
50772W        W10066  33.617   3.264  11.966
50773W        W10067  25.612  32.477   0.941
50774W        W10068  26.972  18.768   2.372
50775W        W10069   8.861  41.964   1.280
50776W        W10070  40.527  24.115  13.809
50777W        W10071   6.255  23.173  11.460
50778W        W10072  21.127  16.119  13.407
50779W        W10073  18.546  41.522  14.901
50780W        W10074  22.211   5.753  12.429
50781W        W10075  18.172  41.376  14.308
50782W        W10076  31.590  37.028  11.392
50783W        W10077  22.646   4.828  14.379
50784W        W10078  40.944  17.787  12.039
50785W        W10079  33.434  24.696   2.201
50786W        W10080  15.093  40.449  12.841
50787W        W10081   9.328  43.370   1.800
50788W        W10082  43.511  35.454   2.844
50789W        W10083  32.593  17.211  10.465
50790W        W10084  27.537  33.426   1.271
50791W        W10085  23.121   3.876  13.014
50792W        W10086   3.942  44.003   1.420
50793W        W10087   4.244  14.333   2.280
50794W        W10088  35.377  23.137  11.856
50795W        W10089  36.467   1.291   3.647
50796W        W10090  14.828   1.426   2.178
50797W        W10091  18.194  18.610  14.332
50798W        W10092  40.863  30.913   3.215
50799W        W10093  29.149  23.627   0.343
50800W        W10094  26.952   7.880   1.780
50801W        W10095   5.249  36.043  12.970
50802W        W10096   3.359   0.786  14.966
50803W        W10097   9.236  40.798   1.876
50804W        W10098  13.730  18.722   2.415
50805W        W10099  17.595  35.966  12.490
50806W        W10100   9.665   8.218   2.855
50807W        W10101   2.285   6.403   0.437
50808W        W10102  21.054  29.608   3.861
50809W        W10103   7.337  32.912   1.282
50810W        W10104   5.848   7.678  10.891
50811W        W10105  18.769  32.443   4.347
50812W        W10106  17.716  41.324   1.755
50813W        W10107  15.207  10.740   0.466
50814W        W10108   0.450  31.448   1.244
50815W        W10109  26.069  23.159  11.570
50816W        W10110  41.400  35.394   5.776
50817W        W10111   3.780  23.645  10.633
50818W        W10112   5.274   5.338   3.387
50819W        W10113   8.174  43.794  13.046
50820W        W10114  27.500  34.369   3.660
50821W        W10115   8.242  17.733   1.277
50822W        W10116  31.539  38.487  11.466
50823W        W10117   5.396  27.520  14.378
50824W        W10118  44.863   7.799  10.525
50825W        W10119   6.885  21.521  13.797
50826W        W10120  41.024  30.592   1.320
50827W        W10121  21.164  28.972   4.245
50828W        W10122  43.311  38.904  12.348
50829W        W10123  19.090  13.614  10.929
50830W        W10124   6.728  21.522   1.815
50831W        W10125   5.906  30.646  11.110
50832W        W10126  43.817  13.257   1.758
50833W        W10127  17.227   4.863  11.985
50834W        W10128  38.064  22.537   3.264
50835W        W10129  35.089  20.177   4.164
50836W        W10130  31.001   6.405  14.861
50837W        W10131  18.272   1.787   3.185
50838W        W10132  14.597  16.071  14.787
50839W        W10133  10.303  35.384   1.295
50840W        W10134   2.966  30.015  11.866
50841W        W10135  13.139   4.729   3.794
50842W        W10136  28.014  37.390   4.231
50843W        W10137  40.481  10.843  13.450
50844W        W10138  14.287  11.189   4.135
50845W        W10139  36.896  35.874   0.944
50846W        W10140  37.348   8.890   0.761
50847W        W10141   0.885  38.943  12.984
50848W        W10142  26.581  36.354  13.024
50849W        W10143  24.663   9.674   0.334
50850W        W10144   5.312  13.658  13.389
50851W        W10145  18.718  12.664  11.567
50852W        W10146  40.897  40.324   1.719
50853W        W10147  30.956  20.191   1.838
50854W        W10148  30.599  37.950  12.412
50855W        W10149  24.501  17.126  13.801
50856W        W10150  40.996   2.280  11.499
50857W        W10151  38.533  37.503  13.402
50858W        W10152  31.929  18.147   0.862
50859W        W10153  19.716  16.743  13.011
50860W        W10154  35.470  13.648   0.306
50861W        W10155  25.089  13.817  12.902
50862W        W10156  14.778  20.225   0.951
50863W        W10157  44.844  18.757   1.807
50864W        W10158   8.665  27.055  12.919
50865W        W10159  24.563  15.121   4.632
50866W        W10160  15.647  44.489   0.434
50867W        W10161  19.535  29.934   3.783
50868W        W10162  39.899   5.835   4.798
50869W        W10163  31.988  22.010  11.415
50870W        W10164   7.365  11.228  10.447
50871W        W10165   3.941  24.569   0.259
50872W        W10166  29.084  29.454   1.213
50873W        W10167  10.330  39.962  10.545
50874W        W10168  36.027  32.008  12.983
50875W        W10169  11.859  14.686  11.526
50876W        W10170  10.345   1.925  11.901
50877W        W10171  13.282   7.209   0.250
50878W        W10172   3.721  21.074  14.437
50879W        W10173  10.656  17.203  13.334
50880W        W10174  18.764   1.428  12.892
50881W        W10175  36.477  40.307  10.563
50882W        W10176   7.342   0.356  12.914
50883W        W10177  13.768  22.233  13.991
50884W        W10178  33.885  36.957   4.676
50885W        W10179  24.565  26.644   0.890
50886W        W10180  27.475   7.790  14.325
50887W        W10181  13.349  26.029  10.903
50888W        W10182   4.892  43.977  12.926
50889W        W10183  43.415  18.256   3.835
50890W        W10184  15.205   8.813   4.708
50891W        W10185  31.973   6.366   1.298
50892W        W10186   7.223   5.208   4.747
50893W        W10187   0.290  23.001   0.383
50894W        W10188  38.989   7.881   9.508
50895W        W10189  34.427  11.624  12.089
50896W        W10190  34.512   0.890  14.425
50897W        W10191   9.221  25.057  12.359
50898W        W10192  28.510   2.736  13.801
50899W        W10193  15.680   0.826  14.455
50900W        W10194  44.369  14.287   4.229
50901W        W10195  42.024  15.637  11.035
50902W        W10196  16.121  41.843   4.694
50903W        W10197   3.266  20.052   2.344
50904W        W10198  35.438  27.101   1.373
50905W        W10199  29.958  37.475  14.797
50906W        W10200   8.232  32.500  12.974
50907W        W10201  21.241  19.750   4.278
50908W        W10202  25.568   8.351  13.457
50909W        W10203  20.104  35.531  14.767
50910W        W10204   8.676  37.406   2.794
50911W        W10205  25.194  27.481   3.326
50912W        W10206  37.342  43.502   4.129
50913W        W10207  33.428  44.001   9.999
50914W        W10208  42.009  39.877  14.011
50915W        W10209  21.633   5.878  13.800
50916W        W10210  35.004  27.051   4.640
50917W        W10211   1.957  17.605  13.495
50918W        W10212  33.127  12.734   4.194
50919W        W10213  29.977   4.768  13.426
50920W        W10214  22.553  23.560   2.803
50921W        W10215  42.287  23.600  11.452
50922W        W10216  41.960  13.754   4.660
50923W        W10217  16.162  41.321  13.542
50924W        W10218  35.530  16.206  14.992
50925W        W10219  33.066  29.626   2.736
50926W        W10220   6.788   6.741   4.155
50927W        W10221  17.567  16.682  14.478
50928W        W10222  40.899  44.297   1.220
50929W        W10223   3.224  41.360   2.295
50930W        W10224   3.437  28.524   4.776
50931W        W10225  42.990   6.860  11.038
50932W        W10226  33.498  41.478   0.246
50933W        W10227  40.482  18.604  11.390
50934W        W10228  22.611  37.435   0.378
50935W        W10229  32.984  30.943  13.049
50936W        W10230   8.169  43.880   0.355
50937W        W10231   1.937   8.253  10.468
50938W        W10232  42.334   8.887  11.022
50939W        W10233   0.493  15.312   1.729
50940W        W10234  42.885  42.879  13.541
50941W        W10235  27.959  19.276  11.064
50942W        W10236   1.933  39.477  13.516
50943W        W10237  24.608   4.739   0.482
50944W        W10238  42.487  22.197  10.517
50945W        W10239   1.766  16.220   4.757
50946W        W10240   1.387  44.482   3.307
50947W        W10241   9.214  10.199   1.813
50948W        W10242  21.547   7.686  12.408
50949W        W10243  20.599  40.374  11.883
50950W        W10244  32.085  11.647   0.960
50951W        W10245  12.625   9.225   1.417
50952W        W10246  23.608  21.665  14.484
50953W        W10247  11.774  29.568  12.979
50954W        W10248  24.540  29.964  14.830
50955W        W10249  39.043   9.668   3.281
50956W        W10250  40.845  10.733   3.372
50957W        W10251   9.699  14.112  10.471
50958W        W10252  21.058   0.398  10.015
50959W        W10253  23.093  36.857   1.915
50960W        W10254  28.545   6.725   2.777
50961W        W10255  34.388  19.276  10.583
50962W        W10256  13.254  13.625  11.920
50963W        W10257  10.842   0.447  12.374
50964W        W10258   1.917  22.537  14.873
50965W        W10259  28.465  37.996   1.444
50966W        W10260  41.870  32.497   1.822
50967W        W10261  15.735  16.778  12.364
50968W        W10262  37.849  10.871  14.448
50969W        W10263  23.012   9.775  14.873
50970W        W10264  39.843   3.954  12.449
50971W        W10265  12.305  31.644   0.783
50972W        W10266  21.608  27.078   2.295
50973W        W10267   9.725  25.192   2.682
50974W        W10268  22.054  21.063   4.710
50975W        W10269  36.855  26.487   1.219
50976W        W10270  25.179  22.188  13.532
50977W        W10271  26.686  25.968   1.210
50978W        W10272  19.588  22.112  10.422
50979W        W10273   2.880  41.800  10.982
50980W        W10274  28.632  21.139   1.339
50981W        W10275   0.778   3.274  14.358
50982W        W10276   3.259  16.151  14.815
50983W        W10277  16.715  23.215   1.435
50984W        W10278  41.886   8.211   2.880
50985W        W10279  21.640  29.968  14.964
50986W        W10280  38.505  13.837   4.176
50987W        W10281   6.197  18.115  10.926
50988W        W10282   1.794   4.342   1.820
50989W        W10283  20.096  41.835   1.862
50990W        W10284  20.684  11.240  13.834
50991W        W10285  26.171  27.193   3.714
50992W        W10286  21.626  13.151  11.583
50993W        W10287  31.503  28.648   0.943
50994W        W10288  32.524  23.538   0.832
50995W        W10289  35.944  12.730   1.352
50996W        W10290  35.988  37.413   0.418
50997W        W10291  27.671  21.607  14.897
50998W        W10292  20.119  23.502  13.794
50999W        W10293  11.220  43.488  12.919
51000W        W10294  26.117   8.387   3.775
51001W        W10295   0.392  41.026  10.502
51002W        W10296  18.787   4.286  14.839
51003W        W10297   1.269  36.543  14.510
51004W        W10298  11.673  16.190  14.997
51005W        W10299  25.596   3.331  12.404
51006W        W10300  36.875  35.407  13.405
51007W        W10301  32.540  26.057   1.816
51008W        W10302  37.535   3.439   4.163
51009W        W10303  39.394  25.572   2.684
51010W        W10304  38.073   3.460  13.957
51011W        W10305  24.558  14.762   2.288
51012W        W10306  33.533  40.501  13.024
51013W        W10307  34.555  42.874   1.713
51014W        W10308  40.918  33.897  14.920
51015W        W10309  43.009  34.375  11.412
51016W        W10310   4.368   6.365  13.959
51017W        W10311  15.236  36.856  10.902
51018W        W10312   1.243  29.600  11.589
51019W        W10313  37.523  14.758   3.776
51020W        W10314   3.219  20.171  12.507
51021W        W10315  12.199   6.206  12.369
51022W        W10316  41.010  41.309   2.303
51023W        W10317  37.887  21.041  12.378
51024W        W10318  19.702   7.759   0.784
51025W        W10319   2.829  23.162   1.818
51026W        W10320  14.791  42.354  11.450
51027W        W10321  40.405  25.187   3.688
51028W        W10322  30.590   2.780  12.556
51029W        W10323  15.168  30.585   2.852
51030W        W10324  40.997  18.243   3.348
51031W        W10325  24.495  24.481   1.329
51032W        W10326   6.245  24.186  12.012
51033W        W10327  10.822  21.218   1.793
51034W        W10328  34.575  26.057   4.626
51035W        W10329  28.091   8.362   2.810
51036W        W10330  26.664   8.759  14.418
51037W        W10331  44.501  40.939  11.450
51038W        W10332  23.715  22.632   4.186
51039W        W10333   3.718  34.509   2.807
51040W        W10334  30.020   2.391  11.555
51041W        W10335  33.988   1.788   2.747
51042W        W10336  42.466  24.724  10.413
51043W        W10337  13.256  22.676   3.667
51044W        W10338   2.320  37.504   5.233
51045W        W10339  40.350   7.315   4.318
51046W        W10340  43.890  28.592  14.839
51047W        W10341  13.186   9.791   1.308
51048W        W10342   0.371   1.253   3.729
51049W        W10343  24.492  13.309   3.747
51050W        W10344  31.408  42.335   0.248
51051W        W10345  22.537  37.372   0.934
51052W        W10346  29.603  25.203   3.817
51053W        W10347  30.079  42.954   4.225
51054W        W10348  32.115   8.260   1.435
51055W        W10349  30.546  15.086  13.388
51056W        W10350  15.235  33.906   2.693
51057W        W10351  38.024  24.144  10.462
51058W        W10352  33.524  36.980   9.924
51059W        W10353  27.461  36.533   2.283
51060W        W10354  14.159  31.074  10.447
51061W        W10355  18.751  22.074   1.295
51062W        W10356  42.402  13.769   0.749
51063W        W10357  38.543   4.232  13.864
51064W        W10358   3.815  40.309   3.286
51065W        W10359  44.834  25.172  13.002
51066W        W10360  28.554   4.765  12.485
51067W        W10361  36.073   7.200  13.885
51068W        W10362  14.241  16.601  13.895
51069W        W10363  31.084  43.480  11.523
51070W        W10364   2.380  35.597   0.746
51071W        W10365  12.272  26.658  14.948
51072W        W10366   4.447  37.842   2.901
51073W        W10367  20.111   7.681  14.915
51074W        W10368  22.187   2.335   4.241
51075W        W10369  17.066  31.521   4.284
51076W        W10370  44.274   6.219  12.983
51077W        W10371   4.805  43.343   5.109
51078W        W10372  34.868   5.266   3.732
51079W        W10373  14.259  30.412  12.875
51080W        W10374   3.415  32.939  10.454
51081W        W10375   0.881  17.090  10.420
51082W        W10376  41.356  29.553   4.146
51083W        W10377  23.126  19.190   1.355
51084W        W10378  27.465  30.006   0.858
51085W        W10379  32.040  21.673   4.812
51086W        W10380   4.902  39.860  11.451
51087W        W10381  11.232  41.356   2.252
51088W        W10382  11.292  21.664   2.367
51089W        W10383  39.320  40.319   4.263
51090W        W10384  17.780  33.391  13.928
51091W        W10385  36.089  23.118   0.949
51092W        W10386  12.325  18.103  10.545
51093W        W10387  39.926   8.207   3.213
51094W        W10388  28.125  26.970  10.404
51095W        W10389  19.111  17.781  13.485
51096W        W10390  44.801   4.366   4.211
51097W        W10391  28.989  40.350   2.207
51098W        W10392  16.212   0.400   2.705
51099W        W10393  36.560  22.707   4.688
51100W        W10394  30.995  15.269  12.356
51101W        W10395  14.692  11.804   0.812
51102W        W10396  24.674  18.117   3.347
51103W        W10397  15.698  12.806  11.096
51104W        W10398  22.545  18.191  14.761
51105W        W10399   2.753  44.755  13.375
51106W        W10400  24.146  29.175   2.706
51107W        W10401  17.755  35.985   2.185
51108W        W10402  32.975  13.648  13.464
51109W        W10403   4.790  39.327   4.183
51110W        W10404   6.683  44.389  12.340
51111W        W10405  32.076  14.689  13.348
51112W        W10406   7.852  22.142   1.366
51113W        W10407  32.529  32.510  14.331
51114W        W10408  41.318  29.620  14.416
51115W        W10409  31.565  30.949   2.850
51116W        W10410  22.647  32.516  11.972
51117W        W10411  10.212   4.829  13.422
51118W        W10412  41.005  42.951  12.060
51119W        W10413   4.240  29.056  10.956
51120W        W10414   9.357  23.104  10.920
51121W        W10415  13.259  17.577  11.993
51122W        W10416  20.654  35.990  11.086
51123W        W10417  24.641  44.366  14.446
51124W        W10418  19.278  44.792   2.669
51125W        W10419   7.883  21.113  12.382
51126W        W10420   4.323   9.343   3.198
51127W        W10421  30.132  42.446   3.844
51128W        W10422  24.189   2.764   3.310
51129W        W10423  39.968  38.006   1.293
51130W        W10424   7.766   5.794   2.833
51131W        W10425  27.942  34.386   0.259
51132W        W10426   3.801   8.285   3.768
51133W        W10427  16.690   9.654   4.348
51134W        W10428   4.936  44.897  14.288
51135W        W10429  12.231   4.727  13.433
51136W        W10430   8.696  20.596  11.507
51137W        W10431  39.824  41.440  11.506
51138W        W10432  15.707  29.633  14.011
51139W        W10433  31.951  30.014   3.718
51140W        W10434   9.357  32.458  13.024
51141W        W10435  38.009   4.282   3.817
51142W        W10436   0.879  23.020  11.569
51143W        W10437  31.149   3.243   0.863
51144W        W10438  17.760   5.924  11.998
51145W        W10439  33.932  37.884   4.743
51146W        W10440  14.670  34.931  13.025
51147W        W10441  35.563  16.228  12.412
51148W        W10442  29.638   8.250  14.031
51149W        W10443   8.342  33.580  13.485
51150W        W10444  20.151  32.589   2.202
51151W        W10445   3.811  12.175  11.470
51152W        W10446  25.133   4.247   9.976
51153W        W10447  30.651   2.286   2.751
51154W        W10448  18.665   0.376   1.801
51155W        W10449  13.707   3.246  13.812
51156W        W10450  22.729  13.606  13.964
51157W        W10451   8.730  19.540   4.806
51158W        W10452  26.175  23.521   3.707
51159W        W10453  22.591  18.733  12.938
51160W        W10454  16.084  12.660   0.402
51161W        W10455  24.529   1.237   0.777
51162W        W10456  31.007  17.169  11.912
51163W        W10457  28.659  22.557   1.241
51164W        W10458  33.616  25.543   3.670
51165W        W10459  11.841  15.815  10.149
51166W        W10460  17.707  16.089   4.183
51167W        W10461  29.566  26.963  14.339
51168W        W10462  30.545  23.701  12.891
51169W        W10463  18.659   9.390   3.861
51170W        W10464  41.326   8.741  12.034
51171W        W10465  35.043  33.452   3.683
51172W        W10466  32.090  28.461  11.447
51173W        W10467  26.984   6.744  14.489
51174W        W10468  35.881  19.170   4.309
51175W        W10469  38.907  20.093   4.131
51176W        W10470   9.180   6.367   2.754
51177W        W10471  42.840  11.858   3.665
51178W        W10472  19.659   3.809  14.468
51179W        W10473  17.104  44.492  14.853
51180W        W10474  11.209  10.714  11.975
51181W        W10475  19.266  25.151  11.495
51182W        W10476  15.676  34.454  12.913
51183W        W10477  20.659  24.534  14.988
51184W        W10478  21.709   8.738  12.369
51185W        W10479  37.416  12.181   4.657
51186W        W10480  37.535  32.399   3.300
51187W        W10481  39.968  23.153  14.515
51188W        W10482   5.901   4.789   2.396
51189W        W10483  36.552  27.559  12.823
51190W        W10484  19.202  31.971  10.429
51191W        W10485  41.827  13.215  13.000
51192W        W10486  44.927  42.387  11.966
51193W        W10487  38.968  37.573   0.464
51194W        W10488  19.195   3.308  10.640
51195W        W10489  24.661  12.228  14.942
51196W        W10490  18.260  15.621  13.436
51197W        W10491  25.167  32.042   3.716
51198W        W10492  42.031   8.856   2.662
51199W        W10493  38.391  18.090  11.373
51200W        W10494   9.157   9.211   2.755
51201W        W10495  24.031  17.689  13.795
51202W        W10496  21.049  23.659   2.216
51203W        W10497  16.130  25.053   0.903
51204W        W10498  34.395  16.267  10.513
51205W        W10499  29.599  42.376  14.857
51206W        W10500  27.613  35.427  11.468
51207W        W10501  27.177  35.015   3.189
51208W        W10502  25.053  34.038  10.894
51209W        W10503   2.844  14.279  13.411
51210W        W10504  43.426  23.188   3.646
51211W        W10505   7.743  27.600  13.939
51212W        W10506  33.124  40.871  14.939
51213W        W10507   8.837  20.204  12.487
51214W        W10508  13.601   9.728  11.947
51215W        W10509  12.273  21.643  11.080
51216W        W10510  26.002  37.529  13.834
51217W        W10511   1.313   6.253  13.366
51218W        W10512   3.385  22.208   0.301
51219W        W10513   3.430  29.958   3.731
51220W        W10514  42.031   5.746  13.031
51221W        W10515  19.143  37.499  10.091
51222W        W10516  19.125   1.742   2.307
51223W        W10517  37.469  13.790   0.473
51224W        W10518  40.803  18.770   1.809
51225W        W10519   1.332  41.398   0.775
51226W        W10520   4.725   6.325   2.399
51227W        W10521  41.022  28.502   0.965
51228W        W10522  42.889  16.213  10.977
51229W        W10523  14.824   6.392  13.897
51230W        W10524  21.559  44.995   2.707
51231W        W10525  28.037   1.416  12.928
51232W        W10526  25.504  22.647   4.648
51233W        W10527  26.558  34.021   1.254
51234W        W10528   4.930  14.731   2.697
51235W        W10529  32.467   6.848   3.288
51236W        W10530   1.959  44.929   3.181
51237W        W10531  20.261   4.450   3.352
51238W        W10532   3.241   7.707   2.408
51239W        W10533  16.786   7.178  13.890
51240W        W10534  19.150  22.714   0.928
51241W        W10535  22.725   3.817  10.407
51242W        W10536   3.845  12.640  12.968
51243W        W10537   1.448  17.139  11.463
51244W        W10538  21.139   3.220   0.739
51245W        W10539  21.527   0.984  14.980
51246W        W10540  33.061  36.473   4.254
51247W        W10541   3.405  21.209   2.246
51248W        W10542  44.383  37.970   4.197
51249W        W10543  14.099  29.175  12.412
51250W        W10544  23.549  14.102   2.385
51251W        W10545  19.277  35.535  14.905
51252W        W10546  41.301  30.623   3.373
51253W        W10547  29.647   5.883   2.901
51254W        W10548  44.000  18.774   1.733
51255W        W10549  15.816  42.506  14.390
51256W        W10550  37.071  42.829  12.879
51257W        W10551  26.618  32.013   2.812
51258W        W10552  20.097  39.048  12.444
51259W        W10553  24.714  42.367   0.369
51260W        W10554  37.873  38.492  14.478
51261W        W10555  38.943   3.233  11.395
51262W        W10556  26.626  30.993  11.411
51263W        W10557  42.832  40.797  10.927
51264W        W10558   3.220   9.784  14.763
51265W        W10559  31.638  34.887   4.718
51266W        W10560  26.033   7.289  13.985
51267W        W10561  21.549  10.151   0.914
51268W        W10562  36.942   9.661  12.837
51269W        W10563   8.704  20.630  12.830
51270W        W10564   7.372  36.039  13.488
51271W        W10565   9.221  42.355   3.254
51272W        W10566   8.787  27.495   0.288
51273W        W10567   4.878  34.429   0.933
51274W        W10568  20.623  23.203  13.394
51275W        W10569   3.285  11.252   1.834
51276W        W10570  30.595   1.918   4.235
51277W        W10571  42.376  34.485   3.711
51278W        W10572  44.494   1.954   0.808
51279W        W10573  31.624  24.634  10.581
51280W        W10574   0.936  39.477   1.833
51281W        W10575  30.534   1.818   2.675
51282W        W10576  23.158   6.783  12.383
51283W        W10577  12.242  25.708  13.001
51284W        W10578  24.676   2.757   0.340
51285W        W10579  32.576  26.139   2.257
51286W        W10580  31.101  32.473   1.291
51287W        W10581   8.251   7.256  14.852
51288W        W10582  20.552  15.676  12.344
51289W        W10583   2.338  30.596  13.447
51290W        W10584  31.055  23.490  14.926
51291W        W10585  24.638   0.260   1.738
51292W        W10586  42.527  35.586   0.737
51293W        W10587  31.035   4.399   1.362
51294W        W10588  20.599  23.181   0.917
51295W        W10589  10.370   5.207  11.976
51296W        W10590  15.145  22.121  14.846
51297W        W10591  32.935   0.852  11.981
51298W        W10592  25.469  11.222   1.438
51299W        W10593  35.051  42.906   0.920
51300W        W10594   5.899  31.902   2.233
51301W        W10595  19.698  19.202  13.524
51302W        W10596  20.638  25.646  12.864
51303W        W10597  13.336  22.707  12.517
51304W        W10598   3.279   9.681  13.981
51305W        W10599  30.621  25.506  12.374
51306W        W10600   6.334  18.632  14.812
51307W        W10601  35.365  43.014  11.962
51308W        W10602  21.193  40.873   2.205
51309W        W10603  13.785  34.425  10.619
51310W        W10604  18.054  44.942   1.320
51311W        W10605  37.408  11.209  12.409
51312W        W10606   2.403   6.813  11.975
51313W        W10607   3.460  17.127  14.478
51314W        W10608  20.124  24.195   3.324
51315W        W10609   9.236  38.495   2.291
51316W        W10610  20.614  20.534   0.729
51317W        W10611  40.428   5.853   4.315
51318W        W10612  17.277  42.350   1.829
51319W        W10613  41.527  31.448  13.032
51320W        W10614  12.317  20.231  13.907
51321W        W10615  28.658  26.586  11.102
51322W        W10616  26.541   0.251   0.267
51323W        W10617  13.308   6.911   4.694
51324W        W10618  22.746  39.326   0.464
51325W        W10619  38.868  15.703   2.805
51326W        W10620  35.545  30.472  14.776
51327W        W10621  37.368  44.923  11.551
51328W        W10622  18.131  39.989   1.835
51329W        W10623  31.407  34.390   2.883
51330W        W10624  30.632   5.897  14.315
51331W        W10625  27.103  41.356   3.837
51332W        W10626  21.185   5.248  14.016
51333W        W10627  34.982  42.477  12.036
51334W        W10628  26.608   5.832   4.712
51335W        W10629  25.655   6.242  13.936
51336W        W10630  26.558  20.700  14.461
51337W        W10631  19.085  27.965  12.469
51338W        W10632  34.120  33.037  12.569
51339W        W10633   1.831  44.988   2.736
51340W        W10634  16.309  44.855   2.188
51341W        W10635  37.397   7.216   1.336
51342W        W10636  23.123  35.552   1.372
51343W        W10637  11.774  24.221  11.896
51344W        W10638  43.452  44.839   3.751
51345W        W10639  33.876  10.783   2.178
51346W        W10640  44.924  20.754  10.949
51347W        W10641   6.695  44.427   4.622
51348W        W10642  33.530   4.209  11.087
51349W        W10643  23.046   0.774   1.297
51350W        W10644  29.128  29.140  12.000
51351W        W10645  38.926   2.271  12.992
51352W        W10646  17.766  17.621   2.375
51353W        W10647  25.703  44.798   0.793
51354W        W10648  39.434  17.587   3.372
51355W        W10649  41.483  16.635   4.304
51356W        W10650  19.127  26.118   2.313
51357W        W10651  44.494  24.012  14.316
51358W        W10652  31.516  18.671   1.774
51359W        W10653   0.345  14.098   2.326
51360W        W10654  12.274  21.145   0.461
51361W        W10655  43.767  22.029   1.259
51362W        W10656  43.022   8.756   2.859
51363W        W10657  14.125  32.425  11.424
51364W        W10658  29.983  24.706  14.968
51365W        W10659  25.554  39.920  12.026
51366W        W10660  21.518  28.510  13.498
51367W        W10661   1.928  28.983   3.278
51368W        W10662  26.674  15.803   3.645
51369W        W10663   1.339  27.557  11.915
51370W        W10664  38.895   8.262   4.243
51371W        W10665  25.155  29.521   3.387
51372W        W10666  26.110  22.701  14.860
51373W        W10667  30.424  18.088   0.293
51374W        W10668  30.565   4.698  14.913
51375W        W10669  14.301  12.177   2.843
51376W        W10670  35.575  44.272   0.960
51377W        W10671  15.277  30.933  11.083
51378W        W10672  10.325  20.224  11.504
51379W        W10673  33.443  22.019  14.954
51380W        W10674  39.533   5.286  11.473
51381W        W10675  40.410  14.295   2.241
51382W        W10676   8.388   4.412  13.012
51383W        W10677  27.988  44.370   2.328
51384W        W10678  30.914  22.704   1.694
51385W        W10679  21.076  44.905   4.684
51386W        W10680  31.086  17.802   2.186
51387W        W10681  14.323  42.348  10.637
51388W        W10682  43.318   6.212   1.226
51389W        W10683  36.487  43.911   1.876
51390W        W10684  34.892  13.277   3.756
51391W        W10685  20.744   5.821   2.671
51392W        W10686  37.529   5.208   3.762
51393W        W10687   3.904  11.225  12.577
51394W        W10688   2.962  33.498   0.774
51395W        W10689  32.442  24.581   2.831
51396W        W10690  42.490  27.488   2.786
51397W        W10691  24.546  19.198  11.440
51398W        W10692  38.342   0.871   2.795
51399W        W10693  15.609   4.370  12.978
51400W        W10694  23.565  23.542   3.230
51401W        W10695  18.165  43.850  12.864
51402W        W10696  41.788   6.775  13.474
51403W        W10697  21.631  31.070   4.678
51404W        W10698  13.336  39.519  14.454
51405W        W10699   1.418  26.456   3.147
51406W        W10700   6.911  12.679   0.836
51407W        W10701  26.056  17.754   4.147
51408W        W10702  33.097  32.459   4.274
51409W        W10703   4.825  40.326  14.980
51410W        W10704  21.749  28.502  12.942
51411W        W10705   7.748  35.504  13.954
51412W        W10706  19.187   4.206  13.902
51413W        W10707  17.754  37.854   1.758
51414W        W10708  31.648  42.954  12.979
51415W        W10709  24.091   4.873  13.318
51416W        W10710  28.958  31.634   1.320
51417W        W10711  34.051  13.264   3.334
51418W        W10712  20.693  26.667   1.863
51419W        W10713  39.853  24.019  10.497
51420W        W10714  14.235  43.478  12.976
51421W        W10715   2.936  14.283   3.364
51422W        W10716   1.803  15.685  14.889
51423W        W10717  18.191   0.253   1.931
51424W        W10718  23.018  12.170   0.903
51425W        W10719   4.295   8.871  13.317
51426W        W10720  12.116   0.424  12.993
51427W        W10721   9.159  30.636  14.327
51428W        W10722  34.865  16.094  14.278
51429W        W10723  35.519   1.366  12.538
51430W        W10724   7.187   1.410   3.162
51431W        W10725  36.944  25.180   3.361
51432W        W10726  20.667   7.210   3.806
51433W        W10727  20.044  14.147   0.389
51434W        W10728  13.196  18.221  13.888
51435W        W10729  24.592  25.185  13.312
51436W        W10730  19.550  17.074  11.924
51437W        W10731  44.804  44.898  14.469
51438W        W10732   5.912  24.551  13.523
51439W        W10733  24.584  24.029   1.752
51440W        W10734  11.659   9.728  14.967
51441W        W10735   6.226  13.122   4.178
51442W        W10736  17.684  32.478   3.246
51443W        W10737   7.771  11.165  10.941
51444W        W10738  14.694  29.585   2.702
51445W        W10739   0.844  14.222   4.677
51446W        W10740  31.633  12.298  13.825
51447W        W10741   6.324  11.655  14.341
51448W        W10742  18.088  11.677   2.239
51449W        W10743   9.744  35.517   0.775
51450W        W10744  35.852  33.563   5.194
51451W        W10745  28.587  33.402   2.815
51452W        W10746  30.997   6.265   1.364
51453W        W10747  28.135  18.628  10.560
51454W        W10748  15.813   3.224  13.052
51455W        W10749  20.093  10.148  12.346
51456W        W10750   2.851  27.186  11.937
51457W        W10751   4.892  29.924  11.456
51458W        W10752   1.329   3.835  14.978
51459W        W10753   0.456  25.653  13.015
51460W        W10754  41.863  35.538  10.141
51461W        W10755  39.987  44.443  10.452
51462W        W10756  24.582  38.040   1.839
51463W        W10757  13.609  18.070   3.692
51464W        W10758  10.215  23.618  11.027
51465W        W10759  34.497   6.365   2.405
51466W        W10760  38.945  31.046   0.318
51467W        W10761  14.712  13.651  12.951
51468W        W10762  22.707  36.554   3.352
51469W        W10763  19.661  23.124   1.450
51470W        W10764  29.596  41.448  12.992
51471W        W10765  25.641  21.249   3.319
51472W        W10766  21.087  44.769  11.025
51473W        W10767   0.875  16.804   3.735
51474W        W10768   4.902  36.031   2.780
51475W        W10769  19.660   3.912   1.766
51476W        W10770  20.568   9.253  11.921
51477W        W10771   8.211   5.870  12.997
51478W        W10772  20.680  40.454   0.263
51479W        W10773  17.800  36.956   4.121
51480W        W10774  37.382  44.409   1.210
51481W        W10775  27.035  35.874  13.005
51482W        W10776   8.389  32.390   3.264
51483W        W10777   4.371  27.604   4.773
51484W        W10778  36.491  41.352  10.025
51485W        W10779  15.779  34.011   3.696
51486W        W10780  28.073   1.882  11.095
51487W        W10781  24.566  27.556  11.451
51488W        W10782  18.765   2.295   0.304
51489W        W10783  35.473   1.835   1.701
51490W        W10784  18.760  35.506  12.948
51491W        W10785   7.857  40.024  12.847
51492W        W10786  26.655  16.785   3.682
51493W        W10787  11.759  12.760  10.606
51494W        W10788   4.209  23.612  13.513
51495W        W10789  14.668  21.134  10.012
51496W        W10790  40.529  15.724  14.811
51497W        W10791  10.823  28.956   4.142
51498W        W10792  30.005  21.069   4.285
51499W        W10793  11.343  26.113   2.683
51500W        W10794  16.680  11.660   0.422
51501W        W10795   7.315  22.118   2.201
51502W        W10796   4.342  43.856   3.698
51503W        W10797  31.025  21.711  12.448
51504W        W10798  21.156  40.430   1.435
51505W        W10799  41.307  22.058  13.409
51506W        W10800  11.646  41.870   0.813
51507W        W10801  44.905  41.917  10.578
51508W        W10802  13.635  24.168  14.913
51509W        W10803  14.821  29.165   3.709
51510W        W10804   6.347  37.521   4.324
51511W        W10805  44.754   0.363  12.020
51512W        W10806   1.348   6.826   2.846
51513W        W10807  40.958  20.055  12.024
51514W        W10808  17.221  43.926   1.379
51515W        W10809   3.221  29.950  13.799
51516W        W10810  32.115   3.868   1.213
51517W        W10811   8.225  35.988   0.412
51518W        W10812  28.549  42.514  12.355
51519W        W10813  35.407  42.337  13.389
51520W        W10814  27.980  14.134   5.211
51521W        W10815   6.715  13.181   1.702
51522W        W10816   3.271  12.616  14.870
51523W        W10817  17.576  41.439  10.950
51524W        W10818  11.746   6.781  10.894
51525W        W10819   4.272  42.462   3.221
51526W        W10820  37.557  32.426  10.093
51527W        W10821  14.721  43.859  14.876
51528W        W10822  24.601  43.969  12.032
51529W        W10823  22.016   8.219   9.996
51530W        W10824   4.290  20.202  14.974
51531W        W10825   8.165  22.186  14.004
51532W        W10826  18.741   1.278  14.353
51533W        W10827  41.918  31.442   2.668
51534W        W10828   7.413  44.385   0.834
51535W        W10829   1.407  34.013   2.209
51536W        W10830  21.690  39.978   2.264
51537W        W10831  22.623   3.311  13.919
51538W        W10832  19.591  35.592   0.439
51539W        W10833  31.422  43.775   1.705
51540W        W10834  41.011  39.941  14.895
51541W        W10835   9.715  43.938   1.241
51542W        W10836   2.237  11.627  14.945
51543W        W10837  28.479   8.342   3.246
51544W        W10838  15.266  32.562  10.892
51545W        W10839  21.251  40.890  11.937
51546W        W10840  18.211   8.885  10.444
51547W        W10841  29.488  27.048  11.037
51548W        W10842  26.988  29.597  11.031
51549W        W10843  32.443  42.929  10.546
51550W        W10844  34.573  35.920  13.445
51551W        W10845   3.452  17.261   4.836
51552W        W10846  36.036  29.109  14.976
51553W        W10847  30.020  43.449  14.379
51554W        W10848  22.718  22.684  12.865
51555W        W10849  10.861  38.844   1.831
51556W        W10850  20.117  43.469  10.467
51557W        W10851  18.082  44.441   1.820
51558W        W10852  26.654  38.993   5.686
51559W        W10853  12.707   7.906   1.899
51560W        W10854  30.639   6.716  12.053
51561W        W10855  32.462  43.286  10.889
51562W        W10856   6.398   0.369   3.287
51563W        W10857   5.378  30.605   3.783
51564W        W10858   0.801  34.416   3.648
51565W        W10859  37.071  42.417  12.516
51566W        W10860  35.459  24.494   2.902
51567W        W10861   7.804   0.807   4.736
51568W        W10862   7.830   4.446   2.837
51569W        W10863  24.991  19.716  12.933
51570W        W10864  10.749  14.186   2.398
51571W        W10865   6.725  36.866   0.342
51572W        W10866  19.216   5.842  10.937
51573W        W10867  35.604   0.347  11.068
51574W        W10868  16.701  10.265   0.293
51575W        W10869  27.608  42.864  14.413
51576W        W10870  35.095  24.603   2.219
51577W        W10871  38.910  10.348  11.046
51578W        W10872   4.338  29.515  12.865
51579W        W10873   6.864   8.708   4.210
51580W        W10874  27.517  17.184   2.254
51581W        W10875  15.220  41.366   0.886
51582W        W10876  31.613  36.552  13.947
51583W        W10877  30.547  35.357  12.053
51584W        W10878  34.554  28.556  13.838
51585W        W10879  18.661   1.404  14.868
51586W        W10880   1.904   2.226   3.676
51587W        W10881  41.986  19.674   2.672
51588W        W10882  14.321  13.664  10.913
51589W        W10883  10.148  43.984  14.334
51590W        W10884  16.193   3.901   0.440
51591W        W10885  39.880  28.995   2.859
51592W        W10886   2.428  40.459  11.545
51593W        W10887  10.154  28.998   3.808
51594W        W10888  13.349  14.753  13.438
51595W        W10889  14.170  12.714   3.334
51596W        W10890  32.450  22.726  14.991
51597W        W10891  26.959  33.381   2.313
51598W        W10892  35.600  35.575   4.717
51599W        W10893  33.126  18.248   4.234
51600W        W10894   0.858  30.563   4.341
51601W        W10895   2.263   2.736   4.234
51602W        W10896   5.203   6.826  12.026
51603W        W10897  14.208  26.629  10.057
51604W        W10898   0.907  25.993  12.858
51605W        W10899   4.869  24.070  13.333
51606W        W10900  26.054  32.395  14.344
51607W        W10901   1.964  34.605  14.017
51608W        W10902   9.691  44.488   2.232
51609W        W10903  21.722  16.741   3.339
51610W        W10904  41.959   0.318  10.536
51611W        W10905  17.161  41.947   3.793
51612W        W10906   5.317  37.456  14.849
51613W        W10907  37.080   0.965  14.977
51614W        W10908  33.545  40.355   1.266
51615W        W10909  29.634  36.553   0.946
51616W        W10910  11.202  28.579  14.865
51617W        W10911   2.366  23.721   2.691
51618W        W10912  44.370  23.547   1.860
51619W        W10913  26.115  29.039  13.394
51620W        W10914  35.576  18.055  13.909
51621W        W10915  39.522  10.290   4.170
51622W        W10916  23.038  32.063   3.347
51623W        W10917   9.395   8.377  13.987
51624W        W10918  16.663  41.383   1.752
51625W        W10919  22.014  27.066  12.395
51626W        W10920  10.216   6.802   3.300
51627W        W10921   6.197  14.199  10.447
51628W        W10922  11.850   7.862   3.216
51629W        W10923  19.051  14.284  14.369
51630W        W10924  10.849   9.288   3.843
51631W        W10925  26.018   6.223  11.032
51632W        W10926  26.172  44.914  12.840
51633W        W10927  39.542  12.188  12.084
51634W        W10928  15.605   7.686  13.973
51635W        W10929   9.864  30.938  14.423
51636W        W10930   1.757  20.058   3.190
51637W        W10931   9.387  22.102   0.431
51638W        W10932  34.032  20.758  13.548
51639W        W10933  16.143  26.567  11.559
51640W        W10934   7.261   0.922  14.494
51641W        W10935  26.981  21.079  10.544
51642W        W10936  12.193  24.207   4.625
51643W        W10937   0.843  11.787   0.864
51644W        W10938  25.968  15.095   4.707
51645W        W10939  18.732  15.209   1.745
51646W        W10940  32.107   4.229   4.712
51647W        W10941  12.348  40.425  12.445
51648W        W10942  33.023  20.243  14.459
51649W        W10943  10.187  14.776  14.859
51650W        W10944   1.421  28.176  11.980
51651W        W10945  22.685  10.364  14.924
51652W        W10946  16.621  34.516  10.940
51653W        W10947  18.597  32.627  10.927
51654W        W10948   7.177   2.782   3.639
51655W        W10949   5.345   5.896   1.316
51656W        W10950  11.303  18.689   3.370
51657W        W10951  26.141  42.853   4.724
51658W        W10952  29.039   8.827  14.362
51659W        W10953  29.035  19.690   4.653
51660W        W10954  42.500  35.483  11.110
51661W        W10955  14.769  25.963  11.871
51662W        W10956  23.713  25.190   3.234
51663W        W10957  29.668  34.577   3.631
51664W        W10958  13.205  11.209  12.965
51665W        W10959  31.614  12.128  10.509
51666W        W10960  25.974   4.249   4.269
51667W        W10961  10.172  37.878  11.871
51668W        W10962  38.524  29.114  13.993
51669W        W10963  25.109   2.856  11.560
51670W        W10964  28.100  33.468  11.552
51671W        W10965  26.516  21.562  13.339
51672W        W10966   0.338  44.829   5.144
51673W        W10967  14.632  41.342  10.418
51674W        W10968  14.803   7.895  14.407
51675W        W10969  32.513   1.394   4.207
51676W        W10970   1.393   7.342  11.567
51677W        W10971   9.166   6.220   1.817
51678W        W10972   0.784  12.249   4.791
51679W        W10973  13.729   9.862   3.755
51680W        W10974  27.016  32.952  13.853
51681W        W10975   7.802  34.926   0.403
51682W        W10976  19.052  28.568  11.861
51683W        W10977  28.600  26.653   3.862
51684W        W10978  16.078  32.516   1.294
51685W        W10979  28.679  27.487  10.927
51686W        W10980  18.191  16.809   0.257
51687W        W10981   9.150  29.918   4.224
51688W        W10982  37.348  23.157  12.347
51689W        W10983  41.972  23.599  14.347
51690W        W10984   8.292  42.897  10.444
51691W        W10985  26.631  40.499  13.408
51692W        W10986   2.417  14.256   2.281
51693W        W10987   5.385  22.025  11.886
51694W        W10988  35.489  17.794   2.893
51695W        W10989   8.219  18.242  11.865
51696W        W10990  25.992  27.691   1.743
51697W        W10991  44.987   4.350   5.097
51698W        W10992  35.536   5.792   3.316
51699W        W10993  12.754   0.961   4.797
51700W        W10994  12.207  35.987  14.473
51701W        W10995   8.889  40.450  11.964
51702W        W10996  26.604  14.227   2.853
51703W        W10997  22.624  19.636   9.920
51704W        W10998  41.821   2.884   3.149
51705W        W10999  13.740  34.078  11.434
51706W        W11000  23.645  30.514  10.605
51707W        W11001   9.247   4.866  13.316
51708W        W11002  17.593  42.377   2.286
51709W        W11003  10.283  26.186   2.363
51710W        W11004  35.602  44.427  10.563
51711W        W11005  15.307   6.343  14.850
51712W        W11006  36.490   4.704   9.948
51713W        W11007  31.070  18.118   3.325
51714W        W11008  16.647  20.108  10.038
51715W        W11009  38.976  29.052  12.917
51716W        W11010  36.500  22.109   4.345
51717W        W11011   5.693  26.011  14.826
51718W        W11012   2.383  21.623  13.535
51719W        W11013   2.904  24.127   2.369
51720W        W11014  37.833  41.806   4.224
51721W        W11015  10.747  42.899   1.235
51722W        W11016  42.809  37.479  12.023
51723W        W11017  23.715   3.917  11.455
51724W        W11018   3.454  25.613   2.864
51725W        W11019  18.588  17.710  12.503
51726W        W11020  22.084  12.704  12.374
51727W        W11021  35.895  41.484   0.737
51728W        W11022  22.629  15.792   1.791
51729W        W11023  37.858   1.751  10.444
51730W        W11024  27.175  22.531   3.842
51731W        W11025  34.461  32.040  14.342
51732W        W11026  38.919  27.979   0.349
51733W        W11027  17.745  14.178  14.418
51734W        W11028  32.011  25.017  14.295
51735W        W11029  22.530  38.960  10.546
51736W        W11030  11.653   0.794   1.391
51737W        W11031  43.345  17.130  13.910
51738W        W11032  10.251  28.930   1.435
51739W        W11033  41.292  15.805  10.907
51740W        W11034  37.904  38.940  11.921
51741W        W11035  34.091  20.608   1.363
51742W        W11036   8.870   9.822  10.429
51743W        W11037   6.759  39.560   4.151
51744W        W11038  39.852  30.047   4.831
51745W        W11039  30.931  44.380  12.504
51746W        W11040  25.070  15.760   1.742
51747W        W11041  37.398  25.503  12.983
51748W        W11042  43.313  24.978   3.239
51749W        W11043   2.737  44.873   4.696
51750W        W11044  16.676  39.973   4.316
51751W        W11045  41.810  13.231  13.934
51752W        W11046   9.250  33.625   5.186
51753W        W11047  16.794  25.999  13.929
51754W        W11048  39.427  37.385   0.355
51755W        W11049   6.744  25.137   0.856
51756W        W11050  38.070  29.527   1.783
51757W        W11051  33.042  24.144  12.994
51758W        W11052  20.644   7.271  12.540
51759W        W11053  27.961  29.176  14.301
51760W        W11054  23.154  14.254   3.794
51761W        W11055  18.607   8.335   2.834
51762W        W11056   7.901  37.459  13.994
51763W        W11057  21.144  40.520  10.443
51764W        W11058  32.022  18.763  14.426
51765W        W11059   6.777   5.241   3.365
51766W        W11060  42.796  31.507   2.769
51767W        W11061   2.288  44.372  14.276
51768W        W11062   7.360   8.301  10.465
51769W        W11063   9.230  37.497  11.101
51770W        W11064  21.542  20.711   2.690
51771W        W11065  44.488  19.596   9.985
51772W        W11066  14.249  16.596   0.402
51773W        W11067   9.300  30.124  12.870
51774W        W11068  38.512  11.131  13.012
51775W        W11069  11.717  11.210   4.603
51776W        W11070  20.624   9.822   0.450
51777W        W11071  38.878   1.783   1.858
51778W        W11072  24.086  12.778   4.346
51779W        W11073  14.297  38.920   1.238
51780W        W11074   2.900   4.435  12.382
51781W        W11075   6.366  30.617   1.853
51782W        W11076  23.150  13.736   0.966
51783W        W11077  16.668  25.154   2.279
51784W        W11078  26.525  34.497   9.970
51785W        W11079  14.810  44.368   2.772
51786W        W11080  36.069   5.310   1.419
51787W        W11081   8.838  27.149   0.759
51788W        W11082  10.172  28.974  14.947
51789W        W11083  18.262  28.073  14.354
51790W        W11084   9.261  26.031  11.031
51791W        W11085  13.830  22.074   0.797
51792W        W11086  22.058  31.900  12.392
51793W        W11087   9.349  36.521  11.579
51794W        W11088  13.703  25.080   0.408
51795W        W11089  34.074  33.624   4.834
51796W        W11090  24.506  20.577  13.504
51797W        W11091  40.052  34.928  13.979
51798W        W11092  24.700  32.504   1.774
51799W        W11093  13.344  36.515  11.441
51800W        W11094  23.986   4.815  12.031
51801W        W11095  10.677  15.670   3.377
51802W        W11096  39.549  41.916   4.260
51803W        W11097  23.188   2.382  13.910
51804W        W11098  39.898   4.329   2.741
51805W        W11099  23.596  21.684   4.165
51806W        W11100  23.554  26.587  13.879
51807W        W11101  17.079  27.038  13.999
51808W        W11102   2.961   3.254  10.557
51809W        W11103   3.361   5.854   4.837
51810W        W11104  37.517  22.011  13.491
51811W        W11105   5.829  37.432   1.415
51812W        W11106  27.055  43.495   2.831
51813W        W11107  26.471  30.646  12.371
51814W        W11108  36.002  42.388  12.434
51815W        W11109   4.797   6.911   0.446
51816W        W11110  11.184  30.454  13.874
51817W        W11111   3.768  31.486  11.494
51818W        W11112   5.398  42.870   4.798
51819W        W11113  12.175   4.827   0.295
51820W        W11114  40.408  18.772   5.215
51821W        W11115  44.355   3.357   3.357
51822W        W11116  16.613  17.789  10.523
51823W        W11117   5.796   4.421   3.871
51824W        W11118   6.757  11.791  13.997
51825W        W11119  31.597   7.718   5.308
51826W        W11120  35.496  15.212  11.458
51827W        W11121  32.922  32.959   3.169
51828W        W11122  19.538  27.685  12.042
51829W        W11123  34.508   5.800  10.623
51830W        W11124  20.674   8.373  14.503
51831W        W11125  22.157   4.376   3.254
51832W        W11126  11.147  41.501   0.315
51833W        W11127  27.989  16.290   2.373
51834W        W11128  20.676  24.659  14.003
51835W        W11129   6.264   6.297  11.899
51836W        W11130  12.828  29.529  12.977
51837W        W11131  17.750  34.605  13.918
51838W        W11132  22.708   7.897   9.929
51839W        W11133   1.303  10.292   2.788
51840W        W11134  17.212  14.106   1.802
51841W        W11135  29.067  21.698   0.890
51842W        W11136  41.497  33.097  14.873
51843W        W11137  32.490  35.076  13.518
51844W        W11138   0.254   5.877  12.896
51845W        W11139  39.350  39.989  12.356
51846W        W11140   9.733  36.909   4.167
51847W        W11141  12.840  17.615  11.910
51848W        W11142   8.782  39.517   3.150
51849W        W11143  33.438  20.252  10.637
51850W        W11144  32.496   8.797  10.986
51851W        W11145  18.140  24.690   0.755
51852W        W11146   0.928  37.969  13.373
51853W        W11147  35.535   4.929  14.877
51854W        W11148  42.392  12.753   1.775
51855W        W11149  42.309  10.762  14.793
51856W        W11150   7.299  21.099   1.779
51857W        W11151  11.287  22.100   2.706
51858W        W11152   7.314  40.005  13.516
51859W        W11153  34.571  40.977   3.336
51860W        W11154  35.582  23.188   4.727
51861W        W11155  41.517  12.227   0.875
51862W        W11156   2.858  22.208  13.921
51863W        W11157  18.559  23.061   3.212
51864W        W11158  44.290  29.959  12.957
51865W        W11159   5.221   6.692   2.354
51866W        W11160  39.549  30.508   3.345
51867W        W11161  35.025  15.180   4.699
51868W        W11162  24.568  39.373   2.868
51869W        W11163  35.866  21.164  11.070
51870W        W11164  27.992  13.261   0.266
51871W        W11165  12.615  42.350  11.488
51872W        W11166  38.938   4.428  11.512
51873W        W11167  24.109  28.469  12.448
51874W        W11168  22.092   6.812   0.407
51875W        W11169  27.127  16.755   3.661
51876W        W11170  27.515  32.497   4.828
51877W        W11171  22.513   1.357   2.739
51878W        W11172   6.724  19.099   4.270
51879W        W11173  17.262  19.052  10.094
51880W        W11174  42.796  29.502  11.084
51881W        W11175  12.124   2.816   3.297
51882W        W11176   7.229   2.469  11.902
51883W        W11177   9.672  29.460   3.798
51884W        W11178   2.325  24.534  14.009
51885W        W11179  20.240   4.850   0.484
51886W        W11180  36.521  17.580  11.386
51887W        W11181  36.899  13.308  14.966
51888W        W11182  32.516  11.330   3.361
51889W        W11183   1.819   4.866  10.451
51890W        W11184  42.455  42.904  14.930
51891W        W11185  11.755  14.732  13.398
51892W        W11186  19.604  19.220   1.795
51893W        W11187  16.290   7.337  10.936
51894W        W11188   6.885  10.353   1.432
51895W        W11189  20.606  25.037   2.275
51896W        W11190   5.271   8.791   2.764
51897W        W11191   9.313  34.882   2.330
51898W        W11192  10.819  11.770   3.387
51899W        W11193  42.281  11.793   0.825
51900W        W11194  37.926   4.862  10.137
51901W        W11195   2.823  40.328   0.953
51902W        W11196  44.840  41.822   0.844
51903W        W11197   1.950   0.450   0.366
51904W        W11198  38.561  17.306  11.077
51905W        W11199   1.286   5.424   1.309
51906W        W11200  25.522  41.890  11.911
51907W        W11201  31.104  31.644   0.437
51908W        W11202  16.182   3.215  11.435
51909W        W11203  17.663  18.102   2.231
51910W        W11204  15.816  44.820  12.974
51911W        W11205  11.324  33.612   1.227
51912W        W11206  31.469  11.655   2.235
51913W        W11207  42.882  16.724   2.859
51914W        W11208  29.036  29.005  12.996
51915W        W11209  31.049  32.096   2.358
51916W        W11210  17.770  13.243  11.445
51917W        W11211  40.462   1.277   2.275
51918W        W11212   2.279  39.059  14.806
51919W        W11213  10.374  13.189  13.504
51920W        W11214  23.631  28.164  14.971
51921W        W11215  40.848  44.794   3.631
51922W        W11216  39.433  29.460  11.402
51923W        W11217  17.157  22.188  11.549
51924W        W11218  21.734  44.978   3.812
51925W        W11219  35.522  10.356   3.308
51926W        W11220  15.716  43.930  11.431
51927W        W11221  33.535   8.358   3.845
51928W        W11222   1.431  41.527   3.783
51929W        W11223  20.093   8.736  11.884
51930W        W11224  11.347   2.354  10.069
51931W        W11225  16.804  23.572   5.310
51932W        W11226  42.801  10.800  12.417
51933W        W11227  26.529  44.398  11.591
51934W        W11228   2.416  10.796   1.381
51935W        W11229  36.957  35.054  12.904
51936W        W11230  38.429  37.925   1.421
51937W        W11231  37.007  41.940   4.784
51938W        W11232  13.728  13.301  14.797
51939W        W11233  28.613  29.007  14.982
51940W        W11234  14.124   1.339  14.375
51941W        W11235  38.836  13.656  10.433
51942W        W11236  24.670   3.840   1.711
51943W        W11237  25.534   7.348   2.416
51944W        W11238  33.614  32.072   2.325
51945W        W11239  21.051  12.815   1.223
51946W        W11240  12.677  15.293   1.912
51947W        W11241  21.205  18.285  11.021
51948W        W11242   9.711   7.222  11.460
51949W        W11243  42.316  29.556  11.053
51950W        W11244  25.559  13.771  13.504
51951W        W11245  18.258  17.690  12.094
51952W        W11246  25.180  31.128   0.330
51953W        W11247  29.129  44.922  11.949
51954W        W11248  37.948  37.429   2.310
51955W        W11249  44.315  23.130  14.387
51956W        W11250  19.683  27.081  13.319
51957W        W11251  25.707  18.197   2.786
51958W        W11252  43.793  26.527  10.444
51959W        W11253   5.389  42.316   4.752
51960W        W11254   3.776  30.491  14.942
51961W        W11255  17.074  37.439  13.540
51962W        W11256  44.476  41.896  11.551
51963W        W11257  21.680  21.064   0.312
51964W        W11258  16.790  24.040   1.288
51965W        W11259  42.455  38.501  14.283
51966W        W11260  38.938  18.242   3.155
51967W        W11261  34.452  14.785  13.439
51968W        W11262   8.273  16.102  11.093
51969W        W11263  33.527   0.864   1.741
51970W        W11264  30.640  23.042  13.548
51971W        W11265  19.762  41.442  14.438
51972W        W11266  29.571  33.881  12.393
51973W        W11267  37.439   6.766  14.334
51974W        W11268  29.158  18.068  12.062
51975W        W11269  29.044   9.173   3.838
51976W        W11270  18.193  20.704  12.973
51977W        W11271  41.829  16.315  11.963
51978W        W11272  25.962   6.190  10.417
51979W        W11273  15.751  37.086  11.581
51980W        W11274  41.868  37.886   0.791
51981W        W11275  24.719  23.035   1.761
51982W        W11276   1.281   3.357  13.384
51983W        W11277  25.995  38.976  14.935
51984W        W11278  36.956   8.305  13.397
51985W        W11279  33.014  11.182  13.944
51986W        W11280  34.566  26.958  14.276
51987W        W11281   6.829  44.364  11.058
51988W        W11282  22.054   3.366  12.562
51989W        W11283   7.784   6.311   3.715
51990W        W11284  41.340  14.154   4.309
51991W        W11285  43.764  39.003  14.370
51992W        W11286  13.805  15.157   3.669
51993W        W11287   4.342  13.727   1.438
51994W        W11288  24.015  27.479   2.758
51995W        W11289  41.938  30.657  14.478
51996W        W11290  42.455  34.955  14.331
51997W        W11291   4.931  34.106   1.831
51998W        W11292   6.805  43.800  11.421
51999W        W11293  32.027  30.493  10.934
52000W        W11294  12.821  30.532  14.962
52001W        W11295  44.812  38.048  10.910
52002W        W11296  33.473  38.967   1.724
52003W        W11297  30.513  22.220  13.056
52004W        W11298  33.064  38.897   1.241
52005W        W11299  14.670  10.652  11.517
52006W        W11300  26.673  13.711   1.800
52007W        W11301  12.150  11.348   9.966
52008W        W11302  41.349   9.757   1.882
52009W        W11303   9.283  16.292   1.799
52010W        W11304  15.212   3.840   3.694
52011W        W11305  39.957  38.542  12.073
52012W        W11306  15.211  43.398   1.272
52013W        W11307  25.050  17.121  13.316
52014W        W11308   3.224  26.186  10.469
52015W        W11309  35.862  30.572   3.227
52016W        W11310  23.006   7.226   3.351
52017W        W11311   4.231  13.162  14.915
52018W        W11312  38.994   1.258  10.962
52019W        W11313  18.719  22.505   2.836
52020W        W11314   6.725  26.122  12.434
52021W        W11315  44.484   3.733   3.696
52022W        W11316  14.660  26.160   2.848
52023W        W11317  25.975  12.240  14.309
52024W        W11318  15.777  12.122   2.378
52025W        W11319  23.526  44.955   2.862
52026W        W11320  31.044   8.355  14.778
52027W        W11321   7.696  41.383  11.020
52028W        W11322  38.996  23.985  12.385
52029W        W11323  44.330  17.692  11.595
52030W        W11324  42.790  24.073  12.523
52031W        W11325  39.396   1.298   3.220
52032W        W11326  13.683  39.472  11.093
52033W        W11327  18.158  18.649   2.727
52034W        W11328  27.640  40.392   1.318
52035W        W11329  30.519  19.170  13.540
52036W        W11330   1.814  36.063   3.685
52037W        W11331   3.382   9.699   4.809
52038W        W11332  19.207  22.171   2.380
52039W        W11333  39.977  38.958  11.084
52040W        W11334  35.387  23.025  12.579
52041W        W11335  17.728  24.026   2.863
52042W        W11336  31.453  15.211  14.425
52043W        W11337   7.333  35.441   0.311
52044W        W11338  11.226  16.250  13.424
52045W        W11339  22.542  13.629  13.310
52046W        W11340  12.817  42.813   4.785
52047W        W11341   3.425  18.087   2.388
52048W        W11342  10.803   3.377  11.456
52049W        W11343  16.094  35.559  12.385
52050W        W11344  36.501   6.859   2.388
52051W        W11345   0.816   5.196   3.640
52052W        W11346  11.779  19.710  11.969
52053W        W11347   0.263   8.880  11.968
52054W        W11348  25.139  29.455  12.561
52055W        W11349  29.434  23.991   2.345
52056W        W11350  33.575   6.348   2.856
52057W        W11351  13.608   5.891   3.739
52058W        W11352  13.288  12.704   0.454
52059W        W11353  37.366  17.211   4.726
52060W        W11354  33.539  11.651  10.968
52061W        W11355  14.815  20.709   9.663
52062W        W11356  12.761  29.600  14.438
52063W        W11357  28.090   5.927  11.907
52064W        W11358  31.043  16.307  14.890
52065W        W11359   5.751   3.879   0.739
52066W        W11360  39.013  36.909   0.787
52067W        W11361  34.924  16.305   1.327
52068W        W11362  24.994  29.106  13.917
52069W        W11363  28.652  25.999   1.901
52070W        W11364  23.678  27.950  10.897
52071W        W11365  16.770  39.436  10.966
52072W        W11366  35.047  32.914  10.591
52073W        W11367  44.264   7.275   4.808
52074W        W11368  18.734  27.458  12.894
52075W        W11369  17.070  37.084   2.255
52076W        W11370  33.096  10.847  14.488
52077W        W11371  16.794  25.075  12.061
52078W        W11372  31.902  39.024  10.435
52079W        W11373  10.337  35.389   2.795
52080W        W11374  38.825  43.776  14.334
52081W        W11375  37.033  16.229   1.223
52082W        W11376  19.618  19.635  14.761
52083W        W11377  36.029  43.963   0.790
52084W        W11378  37.508  20.697   1.756
52085W        W11379   0.859  32.394  12.868
52086W        W11380   2.227   4.285  12.556
52087W        W11381  13.717  15.769  13.430
52088W        W11382  14.624  27.175  14.456
52089W        W11383   8.839  20.158  10.618
52090W        W11384  38.525  41.787  12.552
52091W        W11385  26.968  10.714   1.832
52092W        W11386  11.240  33.004   1.914
52093W        W11387   3.303  28.154  13.311
52094W        W11388  32.127  10.303  12.517
52095W        W11389  34.909   1.483   3.326
52096W        W11390  41.474  19.637   1.333
52097W        W11391  12.759  30.946  13.510
52098W        W11392  35.077  34.934   2.399
52099W        W11393  33.568   6.741   0.929
52100W        W11394  37.422   2.728  13.872
52101W        W11395  44.265  37.078  13.457
52102W        W11396  14.688  18.604  13.962
52103W        W11397  27.186  26.514   4.306
52104W        W11398  27.551  20.194  13.028
52105W        W11399  33.559  18.173   1.252
52106W        W11400  21.555  15.588   3.859
52107W        W11401  19.173  33.433   1.420
52108W        W11402  31.508  25.545  12.364
52109W        W11403   3.901  39.887  13.811
52110W        W11404  14.158  17.123   5.240
52111W        W11405  16.653  13.751   4.294
52112W        W11406  42.489  12.827   0.250
52113W        W11407   1.250  30.918  11.589
52114W        W11408  36.867  19.644  11.902
52115W        W11409  40.317   6.756  11.049
52116W        W11410  33.391  28.637  12.544
52117W        W11411   5.248  34.385  10.478
52118W        W11412   9.663  18.085   4.174
52119W        W11413  27.154  19.564   1.358
52120W        W11414   0.863   4.706   3.771
52121W        W11415  26.958  25.206   2.766
52122W        W11416  18.574  13.709   3.207
52123W        W11417  12.614  33.931   0.947
52124W        W11418   2.315  34.073  12.843
52125W        W11419  44.284  42.429   2.226
52126W        W11420  20.142  27.057  11.388
52127W        W11421  24.072   2.789   0.759
52128W        W11422  40.437  37.473   2.335
52129W        W11423  35.557  44.780  12.416
52130W        W11424   2.250  16.248   2.239
52131W        W11425   6.238  28.024  13.917
52132W        W11426  16.721  18.735  12.926
52133W        W11427  23.524  18.785   1.424
52134W        W11428  10.253  24.127  12.084
52135W        W11429  31.145  11.728   4.277
52136W        W11430  35.905  36.924  13.320
52137W        W11431  16.311  44.921   4.283
52138W        W11432  28.960  26.668  13.942
52139W        W11433  18.725  29.168   2.362
52140W        W11434  20.053  33.939  14.821
52141W        W11435  32.579  19.683   3.186
52142W        W11436   7.240  30.105   3.356
52143W        W11437   5.259  30.431  12.878
52144W        W11438  40.904  35.109  13.534
52145W        W11439  30.556  38.976  13.829
52146W        W11440  24.553  15.794   4.734
52147W        W11441  38.526  19.150   0.906
52148W        W11442  13.297  13.832  10.890
52149W        W11443   2.765  39.458   1.450
52150W        W11444  19.234   0.436   4.241
52151W        W11445  16.722  11.801  13.454
52152W        W11446  28.957  39.367  10.551
52153W        W11447  14.642  39.897  13.983
52154W        W11448  34.933  28.159  14.842
52155W        W11449   9.705  23.142  12.436
52156W        W11450   9.761  32.084  11.888
52157W        W11451  10.675  22.677  13.383
52158W        W11452  36.483  31.996   3.246
52159W        W11453  40.514  39.837  12.540
52160W        W11454  15.162   3.851   2.279
52161W        W11455   3.403  24.010  14.831
52162W        W11456  18.596   1.911  11.603
52163W        W11457  41.389  44.377   3.163
52164W        W11458  21.532  20.146   1.709
52165W        W11459  34.940  39.901  12.402
52166W        W11460  42.954  28.514  13.910
52167W        W11461  23.691   0.469   1.807
52168W        W11462  35.564   4.269   0.893
52169W        W11463   3.265  19.265  13.381
52170W        W11464  23.621   4.874   0.859
52171W        W11465  38.433  38.560   3.294
52172W        W11466  36.550  22.007   1.724
52173W        W11467  42.489  32.101  11.401
52174W        W11468  27.091  20.633   4.791
52175W        W11469  38.402  10.376  13.819
52176W        W11470  40.816  17.133  12.855
52177W        W11471  16.179  42.452   2.236
52178W        W11472  22.559  39.861  13.324
52179W        W11473  38.835  30.563   0.777
52180W        W11474   2.332  18.556  12.872
52181W        W11475   0.346  24.000  14.882
52182W        W11476  17.701  27.544   0.916
52183W        W11477  43.393  33.395   0.289
52184W        W11478  42.927  43.776  10.485
52185W        W11479  31.410  10.143   0.887
52186W        W11480   8.179  40.336  10.476
52187W        W11481  27.641   6.908  13.532
52188W        W11482  33.126  27.135   4.779
52189W        W11483  10.782  28.146   2.331
52190W        W11484  18.100   8.702   2.361
52191W        W11485   7.391  38.440   4.735
52192W        W11486  30.619  31.950  14.507
52193W        W11487  40.392  17.265   5.164
52194W        W11488  14.169  26.067   1.926
52195W        W11489  16.603  25.630  12.075
52196W        W11490  33.891  15.116  13.326
52197W        W11491  25.096  18.102   3.242
52198W        W11492  34.028  21.096  11.907
52199W        W11493  18.197  14.656   2.309
52200W        W11494  34.485  41.887  11.046
52201W        W11495  18.654   4.758  12.351
52202W        W11496  43.357  19.040   0.856
52203W        W11497   3.734  12.839   3.839
52204W        W11498  17.653  34.116  13.030
52205W        W11499  36.011  10.741  11.906
52206W        W11500  12.811  35.054  14.862
52207W        W11501  11.336  30.930  11.539
52208W        W11502  11.261  18.181   2.350
52209W        W11503  41.365   8.326  13.526
52210W        W11504  16.072  32.076  14.865
52211W        W11505   9.174  21.578  13.043
52212W        W11506  33.557  11.220   2.190
52213W        W11507  33.029  22.641  11.891
52214W        W11508  19.211  19.209  11.085
52215W        W11509  36.967   5.925  10.552
52216W        W11510  14.669   1.296   4.780
52217W        W11511  32.041   9.679   1.245
52218W        W11512  10.198  40.344   2.884
52219W        W11513  13.689  16.651  13.063
52220W        W11514  20.633  36.960  12.363
52221W        W11515   1.248  14.202  13.978
52222W        W11516  40.506  18.252  11.425
52223W        W11517  24.633  41.011  14.817
52224W        W11518   1.849  42.345  14.487
52225W        W11519  37.015  38.909  12.931
52226W        W11520  38.993   6.803  12.079
52227W        W11521   8.852  21.057   0.254
52228W        W11522   8.818  17.644   0.276
52229W        W11523  43.474  21.072  14.969
52230W        W11524  43.919  19.747  11.446
52231W        W11525  30.657  31.431  14.513
52232W        W11526  29.964   7.383   3.346
52233W        W11527  19.545  15.216   2.705
52234W        W11528  16.168  13.788  14.404
52235W        W11529  36.909  26.962  12.049
52236W        W11530  43.435  16.737  11.591
52237W        W11531  38.382   9.809  10.407
52238W        W11532  25.163   2.329  13.518
52239W        W11533   1.755  35.598  12.920
52240W        W11534  40.804  29.099  10.463
52241W        W11535  38.418   1.412   0.449
52242W        W11536  26.034   6.747   1.712
52243W        W11537  18.082  18.740  10.900
52244W        W11538  30.489   9.822  12.988
52245W        W11539   0.346  30.937  13.028
52246W        W11540  12.711  25.552  11.508
52247W        W11541  26.053  36.850  11.483
52248W        W11542  31.948  39.396  12.065
52249W        W11543  22.604  18.619   3.376
52250W        W11544   0.802  21.252  13.964
52251W        W11545  37.006   2.296   4.305
52252W        W11546   1.378   1.797   1.328
52253W        W11547  25.642   5.834   3.304
52254W        W11548  24.979   6.246   5.151
52255W        W11549   4.923  44.835   4.126
52256W        W11550   1.396  24.102  12.355
52257W        W11551  10.354  13.303  14.292
52258W        W11552  11.827   9.387  11.962
52259W        W11553   3.228   2.798   2.223
52260W        W11554  15.262  31.918  13.870
52261W        W11555  30.012  44.370  14.334
52262W        W11556   3.887  39.433  13.925
52263W        W11557   3.942  39.835  12.534
52264W        W11558  43.904  39.535  13.315
52265W        W11559  41.331   9.691  13.960
52266W        W11560  40.992  32.970   3.152
52267W        W11561  11.810  17.288   0.952
52268W        W11562  43.443   6.379  10.592
52269W        W11563  19.260   9.764  10.486
52270W        W11564   9.810  23.101  13.979
52271W        W11565   7.296  26.580   3.792
52272W        W11566   2.463  31.101   0.409
52273W        W11567   5.368  23.550   2.860
52274W        W11568  38.421  33.885  14.779
52275W        W11569  21.078  13.706  13.060
52276W        W11570   6.208  42.848  11.117
52277W        W11571  16.258  35.857   4.328
52278W        W11572  27.523  30.107  12.021
52279W        W11573  28.025   8.874   3.281
52280W        W11574  19.103  30.013   0.342
52281W        W11575  41.506  36.045  10.943
52282W        W11576  29.490  12.276  11.373
52283W        W11577  30.152  44.381   3.199
52284W        W11578  14.738  44.436  10.421
52285W        W11579   3.239  24.639   0.304
52286W        W11580  38.857   4.823  10.406
52287W        W11581   5.403  27.019  13.350
52288W        W11582   0.823  26.526   2.350
52289W        W11583   6.807  35.600  10.569
52290W        W11584  25.118  39.972  11.043
52291W        W11585  32.559  23.710  13.974
52292W        W11586   6.312  44.423   2.783
52293W        W11587  29.130   8.895  11.911
52294W        W11588  11.742   0.477  11.929
52295W        W11589  17.241  15.607  11.518
52296W        W11590  22.095  10.761   0.354
52297W        W11591   5.792  39.065   0.369
52298W        W11592   4.910   3.912   0.389
52299W        W11593  12.684  11.677   2.374
52300W        W11594  28.472  27.193   2.254
52301W        W11595  28.655  32.982   2.293
52302W        W11596   8.875  24.590   2.358
52303W        W11597  40.532   0.259   4.640
52304W        W11598  29.546   0.850  12.523
52305W        W11599  21.657   1.393   0.400
52306W        W11600  31.513  26.073  11.041
52307W        W11601  16.145  36.386   2.709
52308W        W11602  43.360  28.678   2.753
52309W        W11603   6.325  38.325  14.467
52310W        W11604  29.670  38.490   1.381
52311W        W11605  10.355  17.748  14.455
52312W        W11606  38.851  38.836   1.317
52313W        W11607  20.660  35.871  12.981
52314W        W11608  36.553  35.535   4.331
52315W        W11609  41.324  44.459   4.152
52316W        W11610   5.423   5.933   0.745
52317W        W11611   9.282  12.354   3.848
52318W        W11612   2.261  32.486  14.777
52319W        W11613  37.974  18.082   4.187
52320W        W11614  42.485   7.320   2.405
52321W        W11615   8.261  20.718  13.937
52322W        W11616  12.301  37.526  12.975
52323W        W11617  43.293  11.329   1.817
52324W        W11618  10.742  28.049  11.457
52325W        W11619  37.969  38.879   2.698
52326W        W11620  26.961  32.942   3.644
52327W        W11621  26.469   7.359  10.997
52328W        W11622  24.145  36.441  14.795
52329W        W11623   8.372  44.834  14.943
52330W        W11624  17.164  12.712  14.450
52331W        W11625  41.928  26.024   4.182
52332W        W11626  44.764  23.023   4.246
52333W        W11627  17.118   0.266   2.761
52334W        W11628  23.694  13.663   4.734
52335W        W11629  38.528   0.452   4.686
52336W        W11630   1.756   0.328  11.935
52337W        W11631  39.349  43.993  11.864
52338W        W11632  16.239  42.515  14.495
52339W        W11633  30.920   7.702  13.430
52340W        W11634  23.217  42.894  12.546
52341W        W11635  17.107  31.450  14.801
52342W        W11636   7.285  19.049  13.030
52343W        W11637  27.063  19.177   2.776
52344W        W11638  25.146  27.005  12.374
52345W        W11639   3.326  16.728  12.904
52346W        W11640   2.765   2.759   4.269
52347W        W11641  22.247   9.182   5.239
52348W        W11642  29.620  12.159  12.005
52349W        W11643  40.808  35.590   2.784
52350W        W11644  17.590  16.093  11.948
52351W        W11645  40.016  29.987  10.511
52352W        W11646   9.794  33.606   4.652
52353W        W11647   3.726  24.077  12.984
52354W        W11648  12.325  38.864  14.334
52355W        W11649  24.205   0.303  12.862
52356W        W11650  34.885  26.162  12.341
52357W        W11651   0.284  30.528   0.771
52358W        W11652   6.802  21.056  10.134
52359W        W11653   2.330  38.418  13.864
52360W        W11654  18.791  25.983   2.751
52361W        W11655  40.460  40.958  13.332
52362W        W11656  20.742   4.812  12.510
52363W        W11657   1.380  23.708   2.691
52364W        W11658  32.621   9.881  11.601
52365W        W11659   5.720  20.077   1.729
52366W        W11660  43.954  35.866   2.832
52367W        W11661   8.801   5.728   4.224
52368W        W11662  43.823  38.535  13.958
52369W        W11663  24.162  26.127   4.351
52370W        W11664  21.615  24.019  12.565
52371W        W11665  24.563  40.037   0.796
52372W        W11666  18.708  42.797  14.940
52373W        W11667  40.915  35.109  13.972
52374W        W11668  27.549  23.514   2.351
52375W        W11669  35.852  36.953  12.959
52376W        W11670   8.325  12.226  13.975
52377W        W11671  13.311  18.106  10.537
52378W        W11672  14.192  15.250   2.246
52379W        W11673   6.299  30.579   3.783
52380W        W11674  28.073  32.065  11.013
52381W        W11675   4.328  24.532  13.826
52382W        W11676  14.628  22.625   1.724
52383W        W11677   7.904  39.349   0.804
52384W        W11678  32.138  43.325  14.992
52385W        W11679  19.752  40.946  14.883
52386W        W11680  32.113  11.209  11.922
52387W        W11681  23.513  13.341   2.407
52388W        W11682  42.358  13.240   0.285
52389W        W11683  37.503  29.656   3.321
52390W        W11684  33.996  20.078  13.548
52391W        W11685   0.852  41.964  12.488
52392W        W11686  24.504  39.415  14.760
52393W        W11687  12.223  19.646   4.215
52394W        W11688  26.190  15.273   2.321
52395W        W11689  34.110  19.603   1.370
52396W        W11690   1.476  17.082  12.422
52397W        W11691  23.507   1.394   4.732
52398W        W11692   0.330   8.826   4.177
52399W        W11693  25.548  34.067   1.775
52400W        W11694  35.071  39.907  14.464
52401W        W11695  22.538   5.843  14.772
52402W        W11696  34.940   6.363  14.333
52403W        W11697  15.197  15.817  13.519
52404W        W11698  14.199  29.524  11.586
52405W        W11699   4.434  20.086   3.360
52406W        W11700   8.276  18.200   2.281
52407W        W11701   3.411  43.348  14.026
52408W        W11702  11.730  16.692  11.017
52409W        W11703  40.873  35.933   3.373
52410W        W11704  43.773  24.116  13.520
52411W        W11705  16.268  27.095   3.386
52412W        W11706  10.185   0.446   0.319
52413W        W11707  36.029   5.911   4.715
52414W        W11708  30.137   4.363   1.796
52415W        W11709  26.458   2.865   2.694
52416W        W11710  44.790  11.624  13.829
52417W        W11711  29.974  18.211   1.241
52418W        W11712  35.950   2.940   2.308
52419W        W11713  22.035  24.501   2.804
52420W        W11714  44.837  35.104   2.776
52421W        W11715  14.115  36.590   2.248
52422W        W11716   5.323  25.473  13.986
52423W        W11717  29.429  42.018   1.303
52424W        W11718  33.400   3.744  12.433
52425W        W11719  23.221  38.886  13.495
52426W        W11720  24.542  10.238   0.847
52427W        W11721  33.602  36.459   4.122
52428W        W11722  23.183  30.642  13.360
52429W        W11723  35.969  27.473   0.827
52430W        W11724   5.824  10.264  10.544
52431W        W11725  40.906  42.967  14.339
52432W        W11726  29.980  24.056   4.690
52433W        W11727   8.791  15.707   2.328
52434W        W11728  18.637  20.107   2.860
52435W        W11729  35.033  40.051   4.157
52436W        W11730  40.875   3.907   1.212
52437W        W11731  33.035  33.961  14.421
52438W        W11732  24.486   4.436  10.981
52439W        W11733  14.631   0.428  14.960
52440W        W11734  26.631   4.353   1.808
52441W        W11735  34.018  12.168  12.071
52442W        W11736  33.455  20.654   3.763
52443W        W11737   7.879   3.921   4.675
52444W        W11738  27.503  27.010  11.018
52445W        W11739  27.171  42.996  13.394
52446W        W11740  33.417  25.663  13.982
52447W        W11741   8.299  12.183   4.288
52448W        W11742   7.363  11.731   2.703
52449W        W11743   6.897   8.171  12.887
52450W        W11744  33.525  25.649  14.376
52451W        W11745   3.460  44.314   5.113
52452W        W11746  28.946  43.004   1.241
52453W        W11747  26.959  17.198  13.411
52454W        W11748  42.330  35.966   4.346
52455W        W11749  31.146  10.706  13.980
52456W        W11750  28.567  44.922  11.506
52457W        W11751  35.401   6.901   1.928
52458W        W11752  39.470  41.011  10.417
52459W        W11753  17.165  26.557   5.254
52460W        W11754  34.943  10.332  13.031
52461W        W11755  26.485  38.508   4.332
52462W        W11756  22.219   1.262   1.337
52463W        W11757  25.536  25.190   2.268
52464W        W11758   0.922   9.780  12.562
52465W        W11759  27.609  38.460   0.852
52466W        W11760  28.556  31.979   4.821
52467W        W11761  13.691  26.694  12.356
52468W        W11762   0.469  28.533  13.030
52469W        W11763  16.133  20.192   1.309
52470W        W11764  17.572   9.781   2.767
52471W        W11765   5.303   2.855   0.800
52472W        W11766  10.737  24.214   4.772
52473W        W11767  37.342  21.189   4.642
52474W        W11768  41.389   6.189  12.485
52475W        W11769  19.663  10.158  12.877
52476W        W11770  40.514  30.928   4.756
52477W        W11771   9.736  15.607   0.457
52478W        W11772  10.321  20.665   2.234
52479W        W11773  28.634  10.322   4.233
52480W        W11774  27.687  23.123   1.307
52481W        W11775   0.374  42.955  14.297
52482W        W11776  22.649  27.118   3.256
52483W        W11777  27.971  25.000  11.457
52484W        W11778  24.491  21.749   2.779
52485W        W11779  35.898   3.368  14.369
52486W        W11780  26.994   4.255   1.719
52487W        W11781   8.406   2.389   4.639
52488W        W11782   7.192   4.816   5.288
52489W        W11783   0.324  36.479  10.498
52490W        W11784  36.061  24.216   2.666
52491W        W11785  22.720  11.857  11.535
52492W        W11786   3.872  12.766   1.825
52493W        W11787  19.612  17.203  11.050
52494W        W11788   9.650  39.521   4.145
52495W        W11789  12.262  31.646   3.265
52496W        W11790   4.219  35.525  13.503
52497W        W11791   6.768  40.335   0.806
52498W        W11792   9.302  21.124  12.852
52499W        W11793  40.530  44.947  12.002
52500W        W11794   5.859  25.039   0.265
52501W        W11795   9.747  42.355  12.066
52502W        W11796  20.723  27.660  12.939
52503W        W11797  38.859  15.315   4.598
52504W        W11798  17.581  18.055   1.372
52505W        W11799   3.401  12.226  14.459
52506W        W11800   3.729   1.795  10.538
52507W        W11801  30.495  16.101   3.762
52508W        W11802  34.514  24.018   2.885
52509W        W11803  13.334  35.926  14.846
52510W        W11804  11.674  42.829   1.736
52511W        W11805  36.587  20.066   1.819
52512W        W11806   7.707  43.864   1.724
52513W        W11807  33.008  37.387  12.836
52514W        W11808  40.869  44.264   3.869
52515W        W11809   0.305  30.159   1.410
52516W        W11810  38.328  10.290   4.717
52517W        W11811  37.838  18.635  14.907
52518W        W11812   8.881  20.062   1.788
52519W        W11813   0.319   3.239   4.218
52520W        W11814  28.090  28.086  10.105
52521W        W11815  41.037  37.061   2.355
52522W        W11816  10.743  19.249   4.743
52523W        W11817  31.150   8.357   4.117
52524W        W11818  30.084  12.674  11.875
52525W        W11819  17.642   4.749  11.396
52526W        W11820  37.934  10.749   2.395
52527W        W11821  18.242  35.517   2.279
52528W        W11822  20.182  38.918   2.897
52529W        W11823  14.674   7.679   0.834
52530W        W11824  33.484  18.766   3.346
52531W        W11825  10.703   6.911  10.644
52532W        W11826   2.347  38.438  12.481
52533W        W11827  31.029  31.153  11.598
52534W        W11828   4.437   7.885   4.651
52535W        W11829   7.331  24.705   3.173
52536W        W11830  20.059   8.867  14.808
52537W        W11831  27.463  24.066  12.939
52538W        W11832  16.813   0.459   1.415
52539W        W11833  21.083  10.324  10.558
52540W        W11834  26.651  14.640   2.689
52541W        W11835   1.748   9.875  13.804
52542W        W11836  16.770  25.491  13.964
52543W        W11837  11.781  31.043  11.894
52544W        W11838  24.565  11.786  10.982
52545W        W11839  34.613  34.499   5.084
52546W        W11840  33.552  27.037   3.719
52547W        W11841  28.129  27.125  11.095
52548W        W11842  13.217  40.425   4.746
52549W        W11843  15.115  13.741  13.805
52550W        W11844  24.672  11.686   2.377
52551W        W11845  38.048  30.050  10.431
52552W        W11846  36.405  26.691  11.481
52553W        W11847  26.131  22.699   1.910
52554W        W11848  13.302  18.651   4.671
52555W        W11849  31.573  41.013   2.722
52556W        W11850  23.191  21.716  10.622
52557W        W11851  30.608  42.018   0.879
52558W        W11852  27.514  34.611   1.451
52559W        W11853  27.172  16.311   0.841
52560W        W11854  36.576  25.650   3.172
52561W        W11855  42.284  11.670  12.522
52562W        W11856  19.087  10.230   3.228
52563W        W11857  21.202   2.792  10.945
52564W        W11858  12.313   0.492  14.477
52565W        W11859  14.295  39.554   2.366
52566W        W11860  26.989   2.727   3.840
52567W        W11861   9.364   1.326   1.891
52568W        W11862  17.641  41.904   0.922
52569W        W11863  33.401  22.097  14.362
52570W        W11864  38.556  20.066  14.951
52571W        W11865   8.291   8.734   2.405
52572W        W11866  29.163   1.274  10.936
52573W        W11867   7.398  30.512  14.772
52574W        W11868   9.364  25.554   4.262
52575W        W11869  43.817  42.865  12.945
52576W        W11870  44.320  23.056   4.770
52577W        W11871  21.147  38.957  13.498
52578W        W11872  22.071  18.233   3.218
52579W        W11873  14.606  43.790   4.240
52580W        W11874  31.130  13.323   3.298
52581W        W11875  25.125  38.389   2.315
52582W        W11876  23.177   9.718   1.720
52583W        W11877  12.666   6.767   3.290
52584W        W11878  21.690  20.540  12.503
52585W        W11879  27.448  19.633  11.559
52586W        W11880  21.705  18.255   3.766
52587W        W11881  37.941   8.223  12.424
52588W        W11882   6.918  26.197   0.257
52589W        W11883  38.332  32.459   4.634
52590W        W11884  18.264  35.561   0.806
52591W        W11885  29.650   1.779   1.883
52592W        W11886  21.512   9.385  11.532
52593W        W11887  20.749   2.734   4.750
52594W        W11888  12.237  28.152  11.084
52595W        W11889   9.888  17.126  13.382
52596W        W11890  26.187  32.070  11.006
52597W        W11891  44.400   3.246   2.398
52598W        W11892  33.509  10.681   3.159
52599W        W11893   5.387  32.124   3.229
52600W        W11894  36.029  14.815   0.802
52601W        W11895  15.088   9.186   2.670
52602W        W11896   2.909   7.334  12.009
52603W        W11897   3.301   5.793  12.859
52604W        W11898  38.330  37.507  14.767
52605W        W11899   2.872  17.221  12.872
52606W        W11900  35.880  34.485   0.291
52607W        W11901  43.019  40.874  10.462
52608W        W11902  35.461   2.286   2.754
52609W        W11903  40.463  26.198  12.889
52610W        W11904  19.275   1.364  14.816
52611W        W11905  43.481  35.102   4.661
52612W        W11906  31.436  21.248  11.566
52613W        W11907   8.881  18.570  13.899
52614W        W11908   4.709  39.014  12.095
52615W        W11909  25.495  33.389  14.460
52616W        W11910   4.760  15.641   5.304
52617W        W11911   3.715   5.910  14.349
52618W        W11912   7.264  23.996   1.871
52619W        W11913   8.836  16.777   4.754
52620W        W11914  41.337   8.866   2.318
52621W        W11915   2.838  21.248  10.906
52622W        W11916   2.740  31.553   2.730
52623W        W11917  26.466  25.102  12.872
52624W        W11918  38.875  22.506   4.193
52625W        W11919  26.506  23.533  11.089
52626W        W11920  13.639  43.012  13.900
52627W        W11921  10.383  28.597   4.796
52628W        W11922  11.282  31.601   1.883
52629W        W11923   7.272  15.309   4.600
52630W        W11924  16.802  23.715   9.622
52631W        W11925  25.654  33.593   0.394
52632W        W11926  43.790  32.957   0.380
52633W        W11927   0.860  27.105   4.332
52634W        W11928  15.111   9.235   3.717
52635W        W11929  30.020  11.275   0.952
52636W        W11930   2.302  44.398   4.656
52637W        W11931   0.956   7.840  14.838
52638W        W11932   4.236   1.800  13.024
52639W        W11933  18.284  26.998   4.207
52640W        W11934   6.397  35.381  10.989
52641W        W11935   7.277  10.669  13.960
52642W        W11936  14.826  32.048   4.672
52643W        W11937   7.736  11.296   2.291
52644W        W11938   0.490  42.810  13.895
52645W        W11939  34.491  15.224   0.327
52646W        W11940  24.021  25.473  10.966
52647W        W11941  39.541  12.193  13.809
52648W        W11942  10.196  17.214   3.182
52649W        W11943  27.177  19.616   4.616
52650W        W11944  25.667  43.383   1.757
52651W        W11945   5.852  10.267  10.896
52652W        W11946  36.490  21.640   0.858
52653W        W11947   9.251  44.983   3.324
52654W        W11948  15.703  38.355   0.373
52655W        W11949  19.547   4.836   0.788
52656W        W11950  42.478  30.915  13.792
52657W        W11951  27.623  23.070  11.459
52658W        W11952  23.222  18.676  12.446
52659W        W11953  37.478  22.736   4.202
52660W        W11954   1.904  13.200   1.780
52661W        W11955   2.879  43.416   0.315
52662W        W11956   1.771  40.478   2.288
52663W        W11957  13.115  23.146  12.906
52664W        W11958  28.624   7.345  11.532
52665W        W11959  11.211   2.822  10.950
52666W        W11960  42.922  43.480   4.232
52667W        W11961  41.529  31.108   0.733
52668W        W11962  44.004  43.877   2.325
52669W        W11963  39.842   3.779   3.292
52670W        W11964  27.196  15.218   1.290
52671W        W11965   3.345  35.909   0.314
52672W        W11966   1.911  11.858  12.580
52673W        W11967   0.987  32.407  11.420
52674W        W11968  40.839  34.490  12.991
52675W        W11969  42.459  18.183  14.939
52676W        W11970  14.098  41.864   1.838
52677W        W11971  18.253  23.069  13.382
52678W        W11972  29.560  32.556   3.382
52679W        W11973  40.410   9.269  14.352
52680W        W11974  41.488   4.316  11.436
52681W        W11975   0.742  17.739  11.950
52682W        W11976  31.056  36.027   3.777
52683W        W11977  32.597  36.467   0.335
52684W        W11978  17.077  26.076  11.863
52685W        W11979  29.067   0.781   1.372
52686W        W11980  19.647  23.144   4.143
52687W        W11981  21.131  20.239  11.384
52688W        W11982  25.539  26.457   0.881
52689W        W11983  36.007  18.174   0.417
52690W        W11984  11.205  19.661  14.893
52691W        W11985  35.868  27.085  11.928
52692W        W11986  36.425  19.223  12.942
52693W        W11987   5.417  41.842   4.121
52694W        W11988  27.502  10.651  12.939
52695W        W11989  38.899  11.186   9.927
52696W        W11990   2.857  29.073  13.007
52697W        W11991  14.616  21.581  11.586
52698W        W11992  44.966  15.640   0.290
52699W        W11993  31.953  38.075  11.465
52700W        W11994  40.888  41.331  10.611
52701W        W11995  28.523  25.583  11.551
52702W        W11996   2.350   2.259   5.165
52703W        W11997  36.380  26.567   2.388
52704W        W11998  33.046  39.881  13.962
52705W        W11999  44.395  38.331  14.960
52706W        W12000  27.126   6.183   0.406
52707W        W12001   3.277  33.504  12.068
52708W        W12002  26.132  23.162  11.943
52709W        W12003  32.133  14.594  11.590
52710W        W12004   8.315  24.707  12.843
52711W        W12005  29.149   8.893  11.043
52712W        W12006  36.451   8.305   0.312
52713W        W12007  10.717  14.254  11.065
52714W        W12008  39.959  37.934  10.895
52715W        W12009  12.229  11.198   5.236
52716W        W12010  10.334   2.962   0.920
52717W        W12011  35.508  27.472  10.986
52718W        W12012  13.791  31.048   2.187
52719W        W12013  35.418  30.642  12.356
52720W        W12014  35.387  10.661  12.006
52721W        W12015  23.652  42.882  13.850
52722W        W12016  36.073  44.960  10.971
52723W        W12017  22.614  15.601  11.105
52724W        W12018  29.936  42.465  14.759
52725W        W12019  32.006  21.167  13.918
52726W        W12020  42.301  23.182   2.266
52727W        W12021   4.745  20.085  13.506
52728W        W12022   5.246  40.846   0.416
52729W        W12023  32.886  15.647  14.974
52730W        W12024   1.240  10.785   4.223
52731W        W12025  36.882  23.118   3.829
52732W        W12026  13.209  31.552  14.874
52733W        W12027  17.143  16.268   0.337
52734W        W12028  28.998  33.430  14.890
52735W        W12029  44.285  30.466   0.244
52736W        W12030  36.501   4.342  10.977
52737W        W12031  18.260  16.755  13.992
52738W        W12032   5.410  17.750   1.234
52739W        W12033  42.788  32.126   2.370
52740W        W12034  36.845  17.277  14.347
52741W        W12035  16.200  44.368  11.556
52742W        W12036  20.601  28.034  13.910
52743W        W12037  19.238  16.652   3.169
52744W        W12038  22.680   0.382  12.548
52745W        W12039  19.746  24.128  13.499
52746W        W12040  29.127  10.176  13.389
52747W        W12041  21.164  44.883   0.732
52748W        W12042  37.467  43.839  11.919
52749W        W12043   2.866   6.742   2.334
52750W        W12044   9.294  27.562  11.026
52751W        W12045  35.034  20.269  13.981
52752W        W12046  36.001   4.285   2.418
52753W        W12047  19.639  32.496  11.044
52754W        W12048  20.159   1.776  14.286
52755W        W12049   8.294  15.121   4.615
52756W        W12050  28.610  40.380  12.369
52757W        W12051   1.400  19.582   2.299
52758W        W12052  38.058  37.083  14.911
52759W        W12053  14.276  28.622  14.848
52760W        W12054  22.240  33.555  10.587
52761W        W12055  35.525  37.580   4.230
52762W        W12056  27.501  21.251  11.977
52763W        W12057  44.405  24.001   4.225
52764W        W12058  19.561  28.513   2.320
52765W        W12059   1.809  12.226   4.126
52766W        W12060   9.836  17.799  11.893
52767W        W12061  22.596  11.692   4.142
52768W        W12062  36.414  16.626  11.919
52769W        W12063  37.362   2.754  10.445
52770W        W12064  32.432  44.975   3.373
52771W        W12065  33.521  35.033  11.983
52772W        W12066  14.148  44.862  12.902
52773W        W12067   9.166  38.468   1.815
52774W        W12068  10.138  24.161   2.394
52775W        W12069   0.933  21.565  10.935
52776W        W12070   4.790   5.706   0.879
52777W        W12071  18.120  13.226   2.703
52778W        W12072  42.479  26.952   0.958
52779W        W12073  34.057  22.062   4.671
52780W        W12074  30.948  11.810   2.782
52781W        W12075  32.516  14.703  13.875
52782W        W12076  16.778  26.180  12.925
52783W        W12077  35.464  40.987   0.839
52784W        W12078  12.315  21.729  14.312
52785W        W12079  22.713  39.951  11.891
52786W        W12080  24.137  20.189   0.855
52787W        W12081   4.324  26.612   2.326
52788W        W12082  31.088  32.565  14.478
52789W        W12083  13.271  41.876   2.783
52790W        W12084  21.118  35.497   3.869
52791W        W12085  25.510  22.241   1.365
52792W        W12086   8.863  35.943   4.727
52793W        W12087  33.913  25.660  13.989
52794W        W12088  23.213  32.487   4.796
52795W        W12089  35.562   4.335   0.342
52796W        W12090   8.805  16.169   4.289
52797W        W12091  12.189  31.913  14.923
52798W        W12092   2.945  29.472  14.358
52799W        W12093  30.416  31.944   3.184
52800W        W12094   1.360  19.196  10.587
52801W        W12095  32.507  16.229   2.900
52802W        W12096  44.483  24.000  11.557
52803W        W12097   8.742  13.677  10.502
52804W        W12098  11.216  35.363   4.242
52805W        W12099  30.542  19.102   4.658
52806W        W12100   2.871  36.925  10.572
52807W        W12101  38.569  42.490  13.370
52808W        W12102   3.315   3.217   4.801
52809W        W12103   3.732   1.734  12.538
52810W        W12104  21.155   7.812   0.802
52811W        W12105  28.526  12.183  13.968
52812W        W12106  14.296  43.798  11.923
52813W        W12107  26.696  17.286  14.416
52814W        W12108  35.054  42.303   4.306
52815W        W12109  24.556  41.987  12.359
52816W        W12110  39.454  12.128  13.495
52817W        W12111  34.009  11.815  12.380
52818W        W12112  24.716   9.245  12.879
52819W        W12113  30.134  31.461  13.044
52820W        W12114  36.874  43.899  13.401
52821W        W12115   9.723   6.747  13.354
52822W        W12116  25.661  14.289   3.326
52823W        W12117  26.471  28.666   1.331
52824W        W12118  12.294   0.801   2.332
52825W        W12119   5.271  35.887  12.061
52826W        W12120  15.225   7.406  12.446
52827W        W12121  34.397   2.251   4.736
52828W        W12122  10.833  38.345  14.308
52829W        W12123   8.738  30.510   2.676
52830W        W12124  27.529  31.109   2.825
52831W        W12125  19.092   1.477  13.866
52832W        W12126  24.166  12.342  13.323
52833W        W12127  39.029  10.756   2.884
52834W        W12128  29.064   0.472  13.449
52835W        W12129  19.232   3.929  10.644
52836W        W12130  41.495  27.997   0.324
52837W        W12131  24.566   8.656   2.876
52838W        W12132   3.381  30.029  10.932
52839W        W12133  11.224   7.836   3.816
52840W        W12134  43.472  21.255   3.794
52841W        W12135   4.816  36.851  13.357
52842W        W12136  28.965  19.153   0.367
52843W        W12137  19.265  23.170  14.870
52844W        W12138  22.996   1.443  12.894
52845W        W12139  31.949  13.243   1.273
52846W        W12140   6.794   8.256   0.914
52847W        W12141  24.662   4.882   2.830
52848W        W12142  34.094   9.346  14.011
52849W        W12143  28.562  26.030  13.972
52850W        W12144  25.037  26.600   5.173
52851W        W12145  19.059  20.055  11.462
52852W        W12146   8.804  36.973   3.366
52853W        W12147  13.318  35.068  12.352
52854W        W12148  34.881  26.494  10.494
52855W        W12149  26.087   9.765   2.711
52856W        W12150  30.008  33.880   3.325
52857W        W12151  41.406  24.495   1.255
52858W        W12152   8.297  13.289   4.745
52859W        W12153  35.973  43.390   0.949
52860W        W12154  37.853   0.855   3.163
52861W        W12155  30.457  16.717   3.725
52862W        W12156  10.866  30.444   1.373
52863W        W12157  30.461  38.914   3.672
52864W        W12158   2.729  14.209   4.212
52865W        W12159  28.168   4.442   2.202
52866W        W12160   3.893  41.518  14.907
52867W        W12161  23.725  37.994  14.991
52868W        W12162  35.537  12.280  13.422
52869W        W12163  33.875  35.948   0.869
52870W        W12164  33.033  12.352  12.965
52871W        W12165   5.879  30.964   9.660
52872W        W12166  24.019  42.365   4.794
52873W        W12167  34.456   6.264   5.262
52874W        W12168  20.754  18.169   2.221
52875W        W12169  31.943  14.228   2.668
52876W        W12170  44.842  22.169  12.977
52877W        W12171  20.250   9.755   1.918
52878W        W12172  26.520  38.490  12.359
52879W        W12173  10.336  38.847   4.630
52880W        W12174  26.990  14.239  11.876
52881W        W12175  11.788   2.882  11.419
52882W        W12176   5.712   6.306  14.851
52883W        W12177  20.649  36.864  11.023
52884W        W12178   1.847  20.735  14.488
52885W        W12179  16.698  17.734   2.226
52886W        W12180  27.675  27.193  14.384
52887W        W12181  25.605  40.983   9.563
52888W        W12182  43.892  30.538  13.870
52889W        W12183  40.385  13.289  12.543
52890W        W12184   2.761  44.330  11.599
52891W        W12185   6.323  24.050   2.669
52892W        W12186  17.074   2.395   0.326
52893W        W12187   5.787  20.133  14.304
52894W        W12188   7.875  20.233   5.593
52895W        W12189  10.264  25.187  12.493
52896W        W12190   0.404  40.407   0.276
52897W        W12191  28.659  14.238  11.401
52898W        W12192  37.999  15.639   0.922
52899W        W12193  11.288  36.962  12.484
52900W        W12194  39.031   0.435   1.786
52901W        W12195  39.453   2.271  12.903
52902W        W12196   5.201  21.657  12.828
52903W        W12197   7.718  16.244   3.348
52904W        W12198  28.059   0.272   0.356
52905W        W12199  42.864  31.410  11.074
52906W        W12200  17.301  31.573   1.329
52907W        W12201  41.970  18.663   0.835
52908W        W12202  37.439   2.885   4.691
52909W        W12203  30.472  30.052  14.967
52910W        W12204   8.255   6.816   0.849
52911W        W12205   4.410  33.066  10.621
52912W        W12206  33.004  10.252   1.704
52913W        W12207  34.580  29.958  12.024
52914W        W12208  28.114  13.193   3.381
52915W        W12209  22.011   4.298  12.961
52916W        W12210  23.984  43.832  12.991
52917W        W12211  42.938  42.342  10.630
52918W        W12212  20.715  13.309   1.417
52919W        W12213  12.780  21.538  13.828
52920W        W12214   0.826  10.189  13.522
52921W        W12215   1.773  40.012   4.294
52922W        W12216  14.207  36.488   2.730
52923W        W12217  38.412  27.189  12.495
52924W        W12218   5.835  31.143   5.711
52925W        W12219   7.315  27.563  14.276
52926W        W12220  36.363  43.886   3.727
52927W        W12221  27.558  19.609  11.933
52928W        W12222  17.736  12.852  14.939
52929W        W12223  21.592  25.570   0.257
52930W        W12224  19.097  28.932  13.479
52931W        W12225  34.406  19.168   2.233
52932W        W12226  27.489  41.503  13.926
52933W        W12227  40.945  24.137   1.849
52934W        W12228  15.162  36.009  13.873
52935W        W12229  29.131   5.847   2.327
52936W        W12230   6.349  10.651   4.794
52937W        W12231  27.550  41.988  14.281
52938W        W12232  39.864  34.421   0.299
52939W        W12233  27.567  41.794   0.737
52940W        W12234  24.667  30.428  14.805
52941W        W12235  32.996  20.610  14.463
52942W        W12236  24.677  18.093   1.915
52943W        W12237   7.321  41.968  10.961
52944W        W12238  44.275  30.446  11.522
52945W        W12239  13.732  10.697  12.054
52946W        W12240  44.496  31.441  12.546
52947W        W12241  15.694  19.253   1.260
52948W        W12242  18.579   7.355   4.597
52949W        W12243  38.570  18.671   3.775
52950W        W12244  29.643  13.238   0.967
52951W        W12245  40.512  32.899  10.585
52952W        W12246   1.477  30.080   2.755
52953W        W12247  12.246   0.912   0.248
52954W        W12248  43.895  26.526   4.666
52955W        W12249  23.160  24.536  14.001
52956W        W12250   4.408  17.256   2.246
52957W        W12251   9.187  11.723  12.482
52958W        W12252  10.272   3.221  13.010
52959W        W12253  24.704   9.394  12.076
52960W        W12254   0.251   4.836  11.049
52961W        W12255   2.776   9.214  11.606
52962W        W12256  42.978  36.391  10.491
52963W        W12257  17.103  17.124   1.716
52964W        W12258  21.687   3.226   2.201
52965W        W12259  41.788  44.461   1.882
52966W        W12260   0.457  25.164   0.340
52967W        W12261  18.164  38.905   2.817
52968W        W12262  22.649  14.620   1.429
52969W        W12263   6.343  11.656  13.813
52970W        W12264  12.348  27.590   1.700
52971W        W12265  41.012  15.772  11.072
52972W        W12266  29.078   4.935  10.601
52973W        W12267  34.410  13.654   3.211
52974W        W12268  22.733  42.983   4.209
52975W        W12269  37.481  22.606  13.955
52976W        W12270   5.360   4.397   0.941
52977W        W12271  18.192  31.420  13.911
52978W        W12272  10.685   0.852   2.766
52979W        W12273  36.883  16.208  12.852
52980W        W12274  39.932  22.204   4.827
52981W        W12275   0.373  29.164   0.282
52982W        W12276  21.635  25.132  10.515
52983W        W12277   3.327   3.825  10.518
52984W        W12278   8.226  17.238   0.796
52985W        W12279  15.705  13.817   1.837
52986W        W12280  35.986  27.689   3.322
52987W        W12281  15.236  31.524   0.757
52988W        W12282  41.994  30.029   4.815
52989W        W12283  41.341  16.572  10.636
52990W        W12284  10.793  31.431  14.329
52991W        W12285  15.665  13.298  13.517
52992W        W12286  34.991  25.197  12.535
52993W        W12287  17.587   6.891   1.853
52994W        W12288  40.973  28.987   4.332
52995W        W12289  33.625   8.253  13.362
52996W        W12290   6.917  28.095  10.572
52997W        W12291  17.753  12.140  12.438
52998W        W12292  23.580  38.363  10.479
52999W        W12293  28.668  34.458  11.989
53000W        W12294  18.094  19.241  11.612
53001W        W12295  31.415  29.509  13.522
53002W        W12296   3.881  30.490   5.192
53003W        W12297  16.217  30.432  13.005
53004W        W12298  32.960  30.141  12.378
53005W        W12299  10.367  33.399   4.204
53006W        W12300   0.422  31.548  10.587
53007W        W12301  18.268   4.218   0.754
53008W        W12302  23.648  43.888   1.868
53009W        W12303  32.433  35.876   4.638
53010W        W12304   5.907   5.210   4.654
53011W        W12305  25.069  13.622   0.780
53012W        W12306  43.457   2.942   4.820
53013W        W12307  20.653  44.293   1.822
53014W        W12308  41.306  12.641   3.153
53015W        W12309  13.753   8.870   2.873
53016W        W12310  33.439  39.468  13.915
53017W        W12311  43.922  22.709   4.753
53018W        W12312  38.941   0.369  13.982
53019W        W12313  44.367  25.689  13.045
53020W        W12314   1.742   0.983   1.313
53021W        W12315  14.709  30.459   3.313
53022W        W12316   4.815  34.054  13.972
53023W        W12317  11.209  24.586  14.767
53024W        W12318   8.841   7.291   2.301
53025W        W12319  26.072  32.089  13.964
53026W        W12320   9.785  28.126  14.511
53027W        W12321  26.463  12.752  12.394
53028W        W12322  11.820   6.758  13.973
53029W        W12323  16.715   6.341  13.963
53030W        W12324  16.085  39.327  10.517
53031W        W12325  24.044  17.116  12.883
53032W        W12326   2.893  37.433  13.311
53033W        W12327  18.262   2.860  12.915
53034W        W12328   8.287  33.456   0.854
53035W        W12329   9.666  23.168  12.043
53036W        W12330   3.291  15.201  11.445
53037W        W12331  18.111   1.832   4.171
53038W        W12332  24.487   3.734   3.646
53039W        W12333  20.029  36.404   3.739
53040W        W12334  32.636  25.572  11.457
53041W        W12335  44.313  12.813  11.080
53042W        W12336   2.321  39.050  14.444
53043W        W12337   7.225  43.369   1.383
53044W        W12338  44.919  12.683   3.778
53045W        W12339  11.701  34.017   4.146
53046W        W12340  19.768   3.728   2.677
53047W        W12341   8.893   6.893   4.678
53048W        W12342  32.940  44.436  13.439
53049W        W12343  26.526  42.933   3.386
53050W        W12344  31.067  14.251  10.534
53051W        W12345  28.938  36.004   3.332
53052W        W12346  33.505  44.817   1.828
53053W        W12347  39.330  22.729  14.764
53054W        W12348  37.501  19.716  13.822
53055W        W12349  32.108  26.675   2.230
53056W        W12350  31.486  23.567  12.540
53057W        W12351  15.695  28.056  13.321
53058W        W12352   9.755  40.548   0.443
53059W        W12353  35.898  13.136  13.853
53060W        W12354  29.025  11.834  13.374
53061W        W12355  32.042  31.619  11.500
53062W        W12356  20.596   7.211  10.933
53063W        W12357  28.019  36.416   3.289
53064W        W12358  21.058  24.618  10.530
53065W        W12359  26.125   7.899  10.899
53066W        W12360  35.907  28.665   1.727
53067W        W12361  13.308  33.964   2.749
53068W        W12362  44.000  15.716   0.460
53069W        W12363  42.893  32.490  14.869
53070W        W12364   4.313  10.673   4.248
53071W        W12365   6.875  10.856  14.320
53072W        W12366  34.929   7.886   1.796
53073W        W12367   1.766  35.001   3.335
53074W        W12368  37.929  40.041   3.868
53075W        W12369  42.778   2.765  12.567
53076W        W12370  13.317  25.087   2.855
53077W        W12371   4.270  24.660  11.926
53078W        W12372  11.262  27.056  14.983
53079W        W12373  18.555  39.999  13.030
53080W        W12374   6.261  34.494   0.380
53081W        W12375  25.083  28.497   0.444
53082W        W12376  18.234  38.921  13.816
53083W        W12377  40.497   2.737  14.424
53084W        W12378  18.206  38.039   2.180
53085W        W12379  23.509  40.970   3.783
53086W        W12380  19.157  30.421  10.943
53087W        W12381  15.710   4.318   2.858
53088W        W12382  24.071  18.787  14.341
53089W        W12383   1.958  17.219  12.380
53090W        W12384  22.557  34.457  11.104
53091W        W12385  22.063  36.015   3.828
53092W        W12386   7.262  20.193  12.092
53093W        W12387  18.639  34.969  12.443
53094W        W12388   0.847  29.617   1.406
53095W        W12389  25.532  12.325  11.486
53096W        W12390  32.530  20.046   4.315
53097W        W12391  11.774  18.690   1.768
53098W        W12392  18.565  22.058  13.991
53099W        W12393  35.063  39.437   3.669
53100W        W12394  38.997  23.619  11.956
53101W        W12395  19.643  14.216   5.156
53102W        W12396  17.232  13.213  13.471
53103W        W12397  11.661  14.304  12.966
53104W        W12398  30.016   4.892  10.146
53105W        W12399  20.749  23.230  14.963
53106W        W12400  30.416  35.054  12.492
53107W        W12401  19.680  32.534   0.829
53108W        W12402  10.785   8.208  14.349
53109W        W12403  34.441  39.809  12.019
53110W        W12404   2.867  20.646   2.322
53111W        W12405  20.273  14.327  10.898
53112W        W12406   1.394  34.940  11.459
53113W        W12407  28.523   3.834   0.829
53114W        W12408   2.951  31.060   2.301
53115W        W12409  27.096  26.579  10.633
53116W        W12410  19.144  41.849   4.609
53117W        W12411  35.598   7.230   5.756
53118W        W12412   3.802  22.169   4.253
53119W        W12413  26.096  41.838   2.350
53120W        W12414  21.520  40.866   4.702
53121W        W12415  36.863   6.707  12.884
53122W        W12416  29.469  14.783   2.811
53123W        W12417  39.547   7.271  13.851
53124W        W12418  38.925  39.994  12.402
53125W        W12419  44.354  27.630   2.793
53126W        W12420  29.994  19.238   2.831
53127W        W12421  43.410  20.110  14.428
53128W        W12422  25.988  10.862   0.785
53129W        W12423  29.500  21.075   4.788
53130W        W12424  44.980  39.391  13.915
53131W        W12425  16.210  28.611  14.299
53132W        W12426  19.274  19.236  13.360
53133W        W12427  34.578  42.915  13.443
53134W        W12428  41.008  26.124  13.393
53135W        W12429  21.695   9.388  13.034
53136W        W12430   8.312   2.854   3.649
53137W        W12431  17.612  36.085  13.439
53138W        W12432  21.168  43.455   1.732
53139W        W12433  26.062  24.148   0.434
53140W        W12434  22.111  29.027  13.411
53141W        W12435  16.318  37.030  14.855
53142W        W12436  37.444  15.627  11.436
53143W        W12437   1.477   7.842   4.339
53144W        W12438  30.523  44.478  12.896
53145W        W12439  11.186   2.357   2.359
53146W        W12440  27.189  32.002  13.447
53147W        W12441  37.447   2.406  11.857
53148W        W12442  40.477  18.289   4.272
53149W        W12443  17.624  11.247   2.282
53150W        W12444  41.455  32.896  14.495
53151W        W12445  28.641  22.585   4.690
53152W        W12446  13.723  31.001   1.741
53153W        W12447  15.134  26.654  14.511
53154W        W12448   3.373  11.331   1.424
53155W        W12449  24.560  27.593  13.361
53156W        W12450  28.166  17.720  11.106
53157W        W12451  35.889  21.717  11.090
53158W        W12452  24.212  19.056   4.718
53159W        W12453  10.861  25.062  11.406
53160W        W12454   4.235   1.784   2.200
53161W        W12455   5.813   7.255   1.291
53162W        W12456  35.518  17.767  11.467
53163W        W12457   0.809  27.192  11.103
53164W        W12458  14.832   9.184  12.352
53165W        W12459   9.305  25.492  13.890
53166W        W12460  14.219   7.317  13.939
53167W        W12461  21.567  12.690  11.612
53168W        W12462  30.546  27.454  12.839
53169W        W12463   0.251  18.111   3.805
53170W        W12464   9.317  23.689  12.396
53171W        W12465  35.566  32.072  12.000
53172W        W12466  10.353  43.397  11.564
53173W        W12467  40.493  18.659  14.968
53174W        W12468   1.937   1.364   4.665
53175W        W12469  19.570   4.380   0.792
53176W        W12470  41.423  39.528  11.926
53177W        W12471  37.925   0.818  13.547
53178W        W12472  37.078  43.945   1.344
53179W        W12473  18.716  32.033  11.377
53180W        W12474  36.504  12.650   0.456
53181W        W12475  10.822  38.053   3.304
53182W        W12476  38.421  11.777   4.353
53183W        W12477  25.096   5.772  11.968
53184W        W12478   2.946  39.414   2.832
53185W        W12479  16.665  44.359   4.318
53186W        W12480  18.644  19.689   4.294
53187W        W12481  20.583  33.530   4.746
53188W        W12482   1.824  36.019  11.535
53189W        W12483  24.524  16.791   2.394
53190W        W12484  19.635  20.690  11.446
53191W        W12485  29.029  41.950   2.756
53192W        W12486  21.721   4.729  11.089
53193W        W12487   5.776  42.000  12.420
53194W        W12488  37.567  10.242  13.330
53195W        W12489  26.698  27.458   0.358
53196W        W12490  36.931  22.250  10.913
53197W        W12491   8.334  37.473  11.084
53198W        W12492  26.998  11.344  11.551
53199W        W12493  29.989  41.831   1.881
53200W        W12494  34.400  44.276   1.795
53201W        W12495   7.711  13.117  11.396
53202W        W12496  18.692  43.306  14.420
53203W        W12497   6.784   9.248   4.693
53204W        W12498  12.220   6.859   1.447
53205W        W12499  42.865  41.788  12.908
53206W        W12500  40.529  12.693   4.659
53207W        W12501  25.977  33.075  12.845
53208W        W12502  40.316   9.873   4.315
53209W        W12503   0.289   5.251  10.479
53210W        W12504  17.572  40.352   0.794
53211W        W12505   0.928  42.914   4.716
53212W        W12506   0.341   2.352   4.749
53213W        W12507  40.441  42.410   3.375
53214W        W12508   5.753  18.076  14.823
53215W        W12509  29.967  29.071  13.930
53216W        W12510  34.552  32.058  12.465
53217W        W12511  15.773  18.246   4.666
53218W        W12512  16.766  14.228  13.042
53219W        W12513  23.175  41.522   0.461
53220W        W12514  38.043  38.842   0.919
53221W        W12515  42.967  31.971  12.859
53222W        W12516  10.369  28.008  14.835
53223W        W12517   4.291  42.306  11.941
53224W        W12518  34.997  43.327   4.334
53225W        W12519  23.182   0.373  14.760
53226W        W12520  15.782  36.432   3.226
53227W        W12521  19.192  12.357  11.886
53228W        W12522  17.688  36.592  13.503
53229W        W12523  35.416  35.450   2.405
53230W        W12524  24.580  37.503   2.337
53231W        W12525  34.970  41.858  12.066
53232W        W12526  31.553  17.752   3.868
53233W        W12527  12.796   6.759   1.245
53234W        W12528  26.140   4.783   3.200
53235W        W12529  36.483   9.692   5.145
53236W        W12530  35.038  28.014   2.669
53237W        W12531  17.202   7.306  13.003
53238W        W12532  14.194  31.415  12.006
53239W        W12533   5.318  35.481   1.748
53240W        W12534  26.695  11.292   1.798
53241W        W12535  34.103  12.667   3.811
53242W        W12536   2.315  21.733   4.136
53243W        W12537  16.689  33.384  11.887
53244W        W12538  22.643  19.188  13.021
53245W        W12539  39.852  43.406  13.945
53246W        W12540  25.208  22.140  10.947
53247W        W12541  11.353   5.691  14.411
53248W        W12542  38.958  22.149  10.997
53249W        W12543   4.705  27.465   0.419
53250W        W12544   5.893  30.475   3.836
53251W        W12545  20.270  12.354  13.793
53252W        W12546  14.172  24.020   3.329
53253W        W12547  40.925  32.575   4.244
53254W        W12548  23.241  37.517   1.756
53255W        W12549  22.691  15.635   0.732
53256W        W12550  11.316   8.275  12.482
53257W        W12551  28.033  24.111  13.334
53258W        W12552  24.121  26.615   2.822
53259W        W12553  28.168  34.435   4.190
53260W        W12554  30.119  44.297  14.943
53261W        W12555  20.128  42.284   4.231
53262W        W12556  16.783  17.171   3.195
53263W        W12557  25.492  31.908   3.756
53264W        W12558  12.690   3.357  14.371
53265W        W12559  21.582  23.555  13.004
53266W        W12560  22.234   1.745  11.411
53267W        W12561  18.668  30.021  14.887
53268W        W12562   0.357  21.651   4.240
53269W        W12563   8.666  24.708   4.759
53270W        W12564   1.846  31.410   3.163
53271W        W12565  35.913   1.339   1.736
53272W        W12566  22.507  31.528   0.765
53273W        W12567   8.681  22.069   4.822
53274W        W12568   8.336  43.341   2.405
53275W        W12569  20.210  16.677   2.395
53276W        W12570   6.283   0.780   2.210
53277W        W12571  33.536  43.909  12.042
53278W        W12572   9.363  42.890   4.170
53279W        W12573  22.225  18.052   4.170
53280W        W12574  32.975  29.544  14.287
53281W        W12575   6.309   3.362  12.835
53282W        W12576  12.773  16.610  11.076
53283W        W12577  40.430  16.597   9.986
53284W        W12578  16.103  33.039   3.195
53285W        W12579  15.736  38.831  10.408
53286W        W12580  40.998  29.481  12.993
53287W        W12581   3.251  38.349  11.942
53288W        W12582   0.489  19.283  14.914
53289W        W12583   9.355  14.158   5.117
53290W        W12584   4.237  39.832  11.991
53291W        W12585  36.394  14.833  12.001
53292W        W12586  23.133  35.092   0.389
53293W        W12587  33.972  32.944  12.943
53294W        W12588  17.580  24.107   5.151
53295W        W12589  36.991  18.726   2.793
53296W        W12590  19.582  28.015   4.796
53297W        W12591  18.189   7.275  12.526
53298W        W12592  32.609  30.446   5.097
53299W        W12593  14.117  17.661   4.192
53300W        W12594  43.769  35.419  13.404
53301W        W12595  44.001  37.857   4.189
53302W        W12596   4.760   9.335  12.362
53303W        W12597   0.887  11.816  12.443
53304W        W12598  37.999  40.421  10.982
53305W        W12599  37.862  31.449   0.289
53306W        W12600  32.083  15.803   1.260
53307W        W12601  16.120  37.027   2.213
53308W        W12602  20.055  15.311   1.705
53309W        W12603  26.528  14.301   2.212
53310W        W12604  30.610  43.868  12.071
53311W        W12605   3.316  44.368  10.437
53312W        W12606  28.126   7.685  11.451
53313W        W12607  14.613   3.231  13.005
53314W        W12608  11.786   1.911   4.183
53315W        W12609  13.285  42.372  13.800
53316W        W12610  37.938  36.526   3.340
53317W        W12611   2.938  31.095   1.918
53318W        W12612  21.192  17.752   5.229
53319W        W12613   4.429  43.430   1.237
53320W        W12614  39.949  26.644   1.302
53321W        W12615   0.395   4.832   0.426
53322W        W12616  31.974  34.019  11.886
53323W        W12617  43.372  33.118   3.184
53324W        W12618  15.304  22.215   0.382
53325W        W12619  18.724  27.521  11.099
53326W        W12620  32.587  28.587   1.384
53327W        W12621  15.189   4.263   4.607
53328W        W12622   7.813  42.401   1.377
53329W        W12623   2.323  17.683   0.919
53330W        W12624  41.300  26.582  13.399
53331W        W12625  18.240   5.832  10.913
53332W        W12626  15.759  34.025  13.021
53333W        W12627  18.651  41.459  13.505
53334W        W12628  20.187   8.239   1.396
53335W        W12629   5.400  41.867  13.829
53336W        W12630   6.351  23.201   3.186
53337W        W12631  38.964   6.316   2.187
53338W        W12632  32.109  30.648  13.533
53339W        W12633  20.715   7.286  14.002
53340W        W12634   6.284  23.000   4.265
53341W        W12635   4.938  24.538  13.543
53342W        W12636  11.736  37.386  12.919
53343W        W12637  26.552  10.151  12.957
53344W        W12638   8.371  15.587   1.734
53345W        W12639  43.286  30.622  13.881
53346W        W12640  20.125  15.634   1.864
53347W        W12641  11.727  44.799  12.552
53348W        W12642  21.559  18.294  11.930
53349W        W12643  15.686  37.557   1.268
53350W        W12644   7.295  12.200   4.653
53351W        W12645   6.727  42.966  14.972
53352W        W12646  37.443   7.362   2.351
53353W        W12647  30.969  26.544   5.268
53354W        W12648  40.381   7.313   5.258
53355W        W12649  39.493  33.435  11.969
53356W        W12650  21.028  43.878  12.018
53357W        W12651   3.828  16.101  13.923
53358W        W12652   3.270  31.083   5.202
53359W        W12653  28.608  17.199  13.056
53360W        W12654  14.669  24.028   2.380
53361W        W12655   5.194  37.468   2.687
53362W        W12656  20.101   1.366   3.259
53363W        W12657   7.697  23.101  11.074
53364W        W12658  26.630  36.870  13.013
53365W        W12659  44.381  33.920   2.206
53366W        W12660  30.058   6.376  11.936
53367W        W12661  34.006  33.549   4.351
53368W        W12662   2.859   2.326  10.484
53369W        W12663  10.200   0.402  10.060
53370W        W12664  32.920  34.415  11.903
53371W        W12665  27.131  43.271  12.416
53372W        W12666   2.898  27.180  11.111
53373W        W12667  24.207  30.153   4.230
53374W        W12668  39.011   5.836   0.917
53375W        W12669   6.231   5.285   2.772
53376W        W12670   3.447  33.001  14.821
53377W        W12671  26.698  10.253   3.653
53378W        W12672  31.468  22.635   3.694
53379W        W12673  39.488  22.662   2.316
53380W        W12674  39.412  39.875   4.249
53381W        W12675   9.245  40.364  11.883
53382W        W12676  19.745  14.618   4.267
53383W        W12677  13.793  30.608  14.420
53384W        W12678  39.444  36.515  12.377
53385W        W12679  31.641  44.288   3.239
53386W        W12680  39.914  12.733  13.896
53387W        W12681  20.125   9.303  13.911
53388W        W12682  44.305  26.643   1.269
53389W        W12683  34.533  31.408  13.039
53390W        W12684  11.842   3.834  11.987
53391W        W12685  33.892  27.940  12.399
53392W        W12686   8.734  38.047  12.953
53393W        W12687   7.318  35.091   2.718
53394W        W12688  26.601  36.923  14.888
53395W        W12689  29.974  40.030  10.988
53396W        W12690  15.742  30.950  14.978
53397W        W12691   2.426  12.687   1.230
53398W        W12692  11.254  33.464   3.671
53399W        W12693  22.644  15.663   5.256
53400W        W12694   4.740   4.438  10.572
53401W        W12695   6.711  18.610   0.857
53402W        W12696  27.480  44.941  13.920
53403W        W12697  19.266  10.855  12.887
53404W        W12698  26.616  13.794  10.911
53405W        W12699  17.752  32.908   4.276
53406W        W12700  35.884  36.380  13.440
53407W        W12701  26.984  10.333  12.579
53408W        W12702  25.188   3.307   5.316
53409W        W12703  33.968  13.205   0.830
53410W        W12704  40.457  30.916  12.860
53411W        W12705  42.802  23.022   2.300
53412W        W12706  32.508  31.104   2.330
53413W        W12707  24.493  32.522   4.142
53414W        W12708  22.081  28.567   0.359
53415W        W12709   5.223  39.917  14.776
53416W        W12710  25.069  21.162   3.299
53417W        W12711  26.140  23.007  13.498
53418W        W12712  39.019  19.548  13.468
53419W        W12713  43.949   9.860   4.191
53420W        W12714   7.857   4.903  13.856
53421W        W12715  13.218  20.196  13.509
53422W        W12716   1.737  32.463  11.591
53423W        W12717  19.614  12.688   3.206
53424W        W12718  40.353  43.962   2.407
53425W        W12719  33.595  31.048  13.546
53426W        W12720  37.356  26.625   1.349
53427W        W12721  37.858  36.453  10.133
53428W        W12722  17.707  33.571   1.431
53429W        W12723  44.344  22.643   5.313
53430W        W12724   1.894  25.159   4.344
53431W        W12725  22.547   0.326  14.320
53432W        W12726   4.394  17.586   3.808
53433W        W12727   4.379  36.032   4.786
53434W        W12728  21.631  28.950   0.808
53435W        W12729  43.806  32.540  14.511
53436W        W12730   7.876  31.036  14.409
53437W        W12731  14.611  12.768   1.894
53438W        W12732  33.597  22.134  13.443
53439W        W12733  33.964  38.364   2.698
53440W        W12734  13.337  33.070  12.417
53441W        W12735  41.479  34.089  11.952
53442W        W12736  27.627  42.004  11.576
53443W        W12737   0.326  43.447   3.685
53444W        W12738  28.520  38.348   3.266
53445W        W12739  30.550   0.359   3.745
53446W        W12740  17.179  24.116   4.308
53447W        W12741  29.583   8.900   5.224
53448W        W12742  13.639   7.245   1.393
53449W        W12743  34.977   3.242  14.445
53450W        W12744  20.719  25.662  13.921
53451W        W12745  23.672  31.520   1.229
53452W        W12746   7.857  42.830  13.363
53453W        W12747  41.992  12.672   5.148
53454W        W12748  22.083   5.700  13.986
53455W        W12749   0.253  17.287  13.864
53456W        W12750   6.288  16.599   4.641
53457W        W12751  17.201   2.750   3.208
53458W        W12752   0.866  44.422  14.820
53459W        W12753   1.310   2.315   0.447
53460W        W12754   7.708  18.590  14.405
53461W        W12755   0.881  30.418   3.271
53462W        W12756   6.782  33.917   3.327
53463W        W12757  23.144  28.625   1.799
53464W        W12758   2.274   5.308  12.053
53465W        W12759  40.536   1.793   3.378
53466W        W12760  21.112  34.520  10.005
53467W        W12761  27.560  35.397   0.941
53468W        W12762  40.874  33.132  13.374
53469W        W12763  30.590  24.169   0.864
53470W        W12764  35.943  33.989  13.944
53471W        W12765   4.707  32.039   2.682
53472W        W12766  35.961  39.380   3.707
53473W        W12767  44.350  44.863  14.956
53474W        W12768  34.120  40.985   0.908
53475W        W12769  23.049   1.256   2.183
53476W        W12770  42.405  38.846  14.763
53477W        W12771  34.453  14.754  13.057
53478W        W12772   2.430  20.525   3.359
53479W        W12773  19.223  24.203   3.302
53480W        W12774  41.011  34.483  12.539
53481W        W12775  12.189  35.914   0.432
53482W        W12776  43.883  37.472  14.022
53483W        W12777  29.020  27.668  12.537
53484W        W12778  27.189   2.906  14.346
53485W        W12779  26.577  41.808  13.061
53486W        W12780   2.317   0.347   2.856
53487W        W12781  10.374  38.044  10.574
53488W        W12782  41.320  23.576   1.902
53489W        W12783  35.872  42.425  12.864
53490W        W12784  23.165  42.920   2.724
53491W        W12785  20.095  40.404  10.636
53492W        W12786  42.972  43.777   0.243
53493W        W12787  30.927   1.755   4.759
53494W        W12788  19.696  28.940  12.507
53495W        W12789  44.498  20.589   2.204
53496W        W12790  15.697  30.573  10.901
53497W        W12791   5.327  14.663   2.816
53498W        W12792  41.413  38.497   2.372
53499W        W12793  20.748   9.770   1.252
53500W        W12794  20.064  31.935  13.012
53501W        W12795  30.536  23.574  14.873
53502W        W12796   3.288   5.233  11.981
53503W        W12797   4.847   3.374   3.207
53504W        W12798   0.951  22.568  12.378
53505W        W12799  31.900  15.220  14.984
53506W        W12800  11.804  40.913   2.361
53507W        W12801   1.916  38.385   0.944
53508W        W12802  29.988  26.580   1.838
53509W        W12803  20.742  23.147  13.025
53510W        W12804  41.887  35.947   2.357
53511W        W12805   4.911  11.222   2.403
53512W        W12806   5.851  29.050   1.248
53513W        W12807  14.757  13.813   4.235
53514W        W12808  12.355  38.495  11.104
53515W        W12809  22.520  15.172  12.968
53516W        W12810  37.407  26.577  13.469
53517W        W12811  12.712   5.775  11.441
53518W        W12812  39.549  39.932   4.672
53519W        W12813  11.373  12.641   1.785
53520W        W12814  14.164  38.891   0.764
53521W        W12815  24.039  32.094  12.512
53522W        W12816  40.859  33.074  14.320
53523W        W12817  28.617  26.036  12.020
53524W        W12818   2.382  42.796  14.464
53525W        W12819  10.353  17.693   0.809
53526W        W12820  30.135  10.801   4.228
53527W        W12821  26.192  32.486  10.568
53528W        W12822  23.097  15.685  12.547
53529W        W12823  38.434   9.785  12.507
53530W        W12824  18.108  42.864  14.461
53531W        W12825  23.655   6.271   2.692
53532W        W12826  35.856  17.122  10.609
53533W        W12827  29.038  22.511   3.283
53534W        W12828  12.254  26.059   2.690
53535W        W12829  22.135  18.143   1.875
53536W        W12830  44.312  26.672  11.412
53537W        W12831  39.526   3.364  11.094
53538W        W12832   7.297   6.688   3.707
53539W        W12833   8.187  28.435   4.269
53540W        W12834  17.224  26.562   0.399
53541W        W12835  27.130   9.880  12.830
53542W        W12836  22.746   5.340   3.184
53543W        W12837  24.511  24.136   4.758
53544W        W12838  37.009  26.951   1.286
53545W        W12839  26.575  32.966  13.889
53546W        W12840  31.426  17.301  12.899
53547W        W12841  34.015  43.890   4.820
53548W        W12842  14.250  34.398   0.484
53549W        W12843   7.874  29.989   2.847
53550W        W12844   0.969  35.866   3.234
53551W        W12845   1.861  24.993  14.869
53552W        W12846  40.826  36.457   2.814
53553W        W12847  41.809   2.288  13.052
53554W        W12848  21.250  19.614   1.734
53555W        W12849  26.650  43.482   3.758
53556W        W12850  14.116  18.115   3.308
53557W        W12851   3.906   2.848  11.862
53558W        W12852  10.640   8.242   3.373
53559W        W12853  40.957  44.323  10.972
53560W        W12854   5.204  15.704  10.953
53561W        W12855   2.806  17.740  13.814
53562W        W12856  42.881  40.381   1.697
53563W        W12857  13.251  32.115  12.977
53564W        W12858   1.793  33.003  11.896
53565W        W12859  30.558   7.890  11.379
53566W        W12860  22.541  10.215  10.943
53567W        W12861  35.988  32.026  11.934
53568W        W12862  28.161  15.794  11.921
53569W        W12863  25.703  38.454  14.407
53570W        W12864  28.613   2.371  11.520
53571W        W12865   5.270   8.718   4.258
53572W        W12866  15.693  11.287  13.923
53573W        W12867  28.167  44.493  11.896
53574W        W12868  23.732   1.317  11.102
53575W        W12869  16.611  33.537   4.717
53576W        W12870  33.942  27.102   2.393
53577W        W12871  33.916  17.262  13.315
53578W        W12872   3.407  22.242   1.385
53579W        W12873  15.133   9.235   1.785
53580W        W12874  38.410  43.874   2.736
53581W        W12875  35.457  34.119   2.664
53582W        W12876   5.323  26.685  14.762
53583W        W12877  39.006  26.636  13.470
53584W        W12878  43.961   3.327   0.740
53585W        W12879  37.846  13.290   2.889
53586W        W12880  10.852  10.819   3.236
53587W        W12881  26.678  24.071   3.387
53588W        W12882  42.343  18.716  11.475
53589W        W12883  33.570  12.178  10.959
53590W        W12884  19.270   5.409  13.312
53591W        W12885   1.795   1.944  11.929
53592W        W12886  42.402   1.890  13.357
53593W        W12887  40.407  28.450  14.390
53594W        W12888  41.907  43.989   2.322
53595W        W12889  19.688  31.916  13.480
53596W        W12890   9.813  43.362   4.229
53597W        W12891  23.006  15.709   3.365
53598W        W12892  35.493  40.488   1.768
53599W        W12893  39.047   7.417  10.005
53600W        W12894  42.798  31.111  14.373
53601W        W12895  40.516  44.277  13.424
53602W        W12896  13.204  32.934  12.056
53603W        W12897  32.394  11.188   0.920
53604W        W12898  38.904   5.898  11.052
53605W        W12899  33.456  34.497   2.419
53606W        W12900  23.561  21.067  11.964
53607W        W12901  35.410  43.411  11.567
53608W        W12902   2.461  37.994  10.455
53609W        W12903   4.430  31.591   4.718
53610W        W12904  44.317   7.347   2.668
53611W        W12905  25.467  31.145  12.452
53612W        W12906  43.826  27.593   3.244
53613W        W12907  36.858  29.007  12.971
53614W        W12908  27.077  25.524  13.426
53615W        W12909  42.483  33.435  12.027
53616W        W12910  32.446   1.826  14.805
53617W        W12911  16.687  39.405  10.447
53618W        W12912  36.411  17.711   3.740
53619W        W12913   2.323  32.005  12.087
53620W        W12914  34.084   5.804  10.492
53621W        W12915   4.449  38.898   0.426
53622W        W12916  33.887  34.574   4.252
53623W        W12917  21.571  21.090  14.915
53624W        W12918   3.844  32.914  11.599
53625W        W12919   7.790  30.641   3.774
53626W        W12920  43.844  11.641  13.853
53627W        W12921   9.258  20.751   2.220
53628W        W12922  33.550  18.110   3.242
53629W        W12923  19.632  39.863   2.693
53630W        W12924  41.998   9.172   2.662
53631W        W12925   1.931  18.601  13.846
53632W        W12926  31.625  25.656   3.686
53633W        W12927   9.354  42.339  13.529
53634W        W12928  39.325  40.009  11.430
53635W        W12929  31.025  30.931  11.968
53636W        W12930  37.494  25.544  10.452
53637W        W12931  41.377  17.770  13.318
53638W        W12932  32.974  22.704  11.505
53639W        W12933   9.681  12.678   4.724
53640W        W12934   0.783  36.920   2.342
53641W        W12935  36.504  12.181  13.449
53642W        W12936  39.820   6.712  12.076
53643W        W12937  31.088  16.662  14.465
53644W        W12938  31.019  20.585   1.319
53645W        W12939   4.421  32.957  14.022
53646W        W12940   5.394  25.515   2.775
53647W        W12941   1.796   7.866   1.769
53648W        W12942  22.231   4.361  12.550
53649W        W12943  15.733  35.535   2.308
53650W        W12944  42.883   9.288   0.480
53651W        W12945  42.501   4.836   3.246
53652W        W12946   7.715  16.297  12.989
53653W        W12947  13.230  30.523  14.896
53654W        W12948  41.852  28.947  12.401
53655W        W12949  20.759  31.452   2.892
53656W        W12950  12.231   5.848  11.923
53657W        W12951  32.138  20.032   5.118
53658W        W12952   4.370  42.323  10.432
53659W        W12953   0.951  31.091   4.278
53660W        W12954  28.125  13.741  13.911
53661W        W12955  15.679  30.641   0.914
53662W        W12956   8.259   4.933  14.934
53663W        W12957  28.435  44.823  11.915
53664W        W12958  13.693   1.303  14.973
53665W        W12959   8.288  42.998  12.039
53666W        W12960  43.990   6.877   1.439
53667W        W12961  28.457  12.763  13.970
53668W        W12962  16.104  16.617  11.444
53669W        W12963  20.141   5.740  11.053
53670W        W12964  23.500  10.149  11.524
53671W        W12965   1.949  26.993   1.396
53672W        W12966  43.294  10.372  13.885
53673W        W12967  26.048  29.122  14.827
53674W        W12968  15.683  19.565   1.349
53675W        W12969   1.751   6.709  12.918
53676W        W12970  22.060  14.259  14.945
53677W        W12971  18.198  33.094   1.928
53678W        W12972  29.094   8.853   0.790
53679W        W12973  15.695   7.877  12.404
53680W        W12974   7.847  10.848   1.245
53681W        W12975   6.187  32.935   0.471
53682W        W12976  34.534  17.219   1.277
53683W        W12977  33.592  21.028   4.666
53684W        W12978  22.057  25.168  11.017
53685W        W12979  12.732   5.432  13.363
53686W        W12980   0.842  43.825   2.286
53687W        W12981  19.283   7.822   3.159
53688W        W12982   7.175   8.877   1.211
53689W        W12983   7.179  29.627  13.442
53690W        W12984  14.303   0.966   2.284
53691W        W12985  31.899   0.377   4.236
53692W        W12986   4.880  29.473   4.819
53693W        W12987  16.221  32.513  13.331
53694W        W12988   3.369  25.619   3.794
53695W        W12989   9.741  33.990   2.678
53696W        W12990   2.329  15.241   3.242
53697W        W12991  22.995  10.856  11.554
53698W        W12992   4.220   0.314   9.920
53699W        W12993  35.414  28.138   1.272
53700W        W12994   7.190  16.194   2.191
53701W        W12995  40.976  42.387  12.369
53702W        W12996  34.046  37.475   2.401
53703W        W12997  23.628   9.831  11.552
53704W        W12998  10.330  27.462   4.736
53705W        W12999  23.720  15.729   1.274
53706W        W13000   5.694  14.152   4.666
53707W        W13001  34.880   6.859   1.424
53708W        W13002  35.537  42.894   0.842
53709W        W13003  30.501  43.791   4.307
53710W        W13004  43.456  19.602   2.367
53711W        W13005  38.480   7.717  12.976
53712W        W13006  25.517  39.514   0.953
53713W        W13007  22.078  13.105  14.348
53714W        W13008  25.585  31.602  10.526
53715W        W13009   9.375  20.610  10.415
53716W        W13010  24.191  18.204  11.084
53717W        W13011  39.321   6.910   3.705
53718W        W13012  17.615  30.579   4.294
53719W        W13013  13.126  25.587   0.478
53720W        W13014   1.755  11.662  12.001
53721W        W13015  16.237  37.035   4.697
53722W        W13016   5.229   0.489  12.940
53723W        W13017   0.786  26.199   3.222
53724W        W13018   9.667  33.947   4.615
53725W        W13019   1.320  22.040  10.943
53726W        W13020  31.632   6.856  10.525
53727W        W13021  20.271   3.368   4.167
53728W        W13022  20.171   8.747   1.392
53729W        W13023  35.561   0.907   3.260
53730W        W13024   1.302  28.475   0.740
53731W        W13025  15.620   9.884  14.329
53732W        W13026  17.614   2.238  10.948
53733W        W13027  33.525  21.132  11.990
53734W        W13028   2.393   3.888  14.868
53735W        W13029  23.672  19.724   2.686
53736W        W13030  35.584  24.126  13.820
53737W        W13031   9.279  21.561   3.657
53738W        W13032  31.964  41.957   5.124
53739W        W13033  26.499  22.230  12.068
53740W        W13034  36.569  20.586  11.995
53741W        W13035  10.201   6.787   0.303
53742W        W13036   2.461  13.284   3.307
53743W        W13037  44.959  20.712   1.728
53744W        W13038  10.808  32.476   1.385
53745W        W13039   4.396  13.736   0.403
53746W        W13040  25.540  32.573   1.366
53747W        W13041  25.607  37.388  10.487
53748W        W13042  23.693   3.869   1.886
53749W        W13043  24.219   6.720  11.872
53750W        W13044  31.937  29.088  11.949
53751W        W13045  34.943   1.420   4.742
53752W        W13046  11.743  41.407  10.153
53753W        W13047  38.982   9.820   0.734
53754W        W13048  20.763  35.604   2.191
53755W        W13049  12.131   2.410   0.879
53756W        W13050  17.266  27.028   0.381
53757W        W13051   0.286  39.016   3.673
53758W        W13052  21.116  27.194   1.358
53759W        W13053  25.070  35.042   5.217
53760W        W13054  36.880   6.823   4.265
53761W        W13055  41.456   5.848  10.937
53762W        W13056  12.648  37.845   4.667
53763W        W13057  26.682  26.608  13.404
53764W        W13058  36.457  11.323   5.230
53765W        W13059   4.213  37.022  11.377
53766W        W13060  40.502  42.850  13.987
53767W        W13061  13.751  27.577   1.255
53768W        W13062  44.423  32.045  11.046
53769W        W13063  41.492  36.358   9.645
53770W        W13064  19.128  39.882  13.882
53771W        W13065  17.739  32.422   4.131
53772W        W13066  30.656  25.999   4.629
53773W        W13067  40.518  44.415  11.985
53774W        W13068  30.586  34.904   2.240
53775W        W13069  25.010  13.666   2.219
53776W        W13070  43.946  44.826  10.099
53777W        W13071  18.601   1.763   1.416
53778W        W13072  37.504  10.664   0.436
53779W        W13073  33.112   7.666  11.412
53780W        W13074  30.156  37.964  14.460
53781W        W13075  17.704   0.970   4.610
53782W        W13076  29.659  41.882   2.360
53783W        W13077   2.791  27.665   1.292
53784W        W13078   8.214  19.706  11.950
53785W        W13079  26.627  26.084   1.767
53786W        W13080  38.380  27.453   4.789
53787W        W13081   7.669  32.091   2.887
53788W        W13082  32.929  38.469  10.930
53789W        W13083  19.675  42.976   1.700
53790W        W13084  15.225   8.879   2.372
53791W        W13085   0.764   5.925   2.683
53792W        W13086  13.122  35.933  14.475
53793W        W13087   1.325  16.783   2.345
53794W        W13088  15.307  19.187  10.583
53795W        W13089  15.186  12.694  12.917
53796W        W13090   1.929  30.604  10.909
53797W        W13091   6.387  28.159  14.478
53798W        W13092  42.513   7.315   0.828
53799W        W13093  22.735  23.565  14.786
53800W        W13094   3.880  28.556  12.565
53801W        W13095  31.608  36.880  13.808
53802W        W13096  24.525  21.018  13.398
53803W        W13097  43.812  36.468  12.543
53804W        W13098  32.925  10.320   1.317
53805W        W13099  21.154  15.239   3.677
53806W        W13100  19.718  25.083  11.859
53807W        W13101  32.142   4.758  13.354
53808W        W13102  43.515  28.443   3.332
53809W        W13103  39.956   5.709  11.535
53810W        W13104  38.874  32.518  13.481
53811W        W13105   5.805  44.329  11.582
53812W        W13106  10.854  43.395  11.951
53813W        W13107   5.707  31.640  12.017
53814W        W13108  39.857  17.276  11.409
53815W        W13109  11.320  20.656   1.379
53816W        W13110  36.987  13.740  14.287
53817W        W13111   8.292  35.525  11.585
53818W        W13112  44.780  25.068   4.273
53819W        W13113  43.356   1.801  11.603
53820W        W13114   7.808  31.969  11.898
53821W        W13115   3.407  26.509   4.834
53822W        W13116   7.835  13.229   0.387
53823W        W13117   5.359  27.683   4.114
53824W        W13118  26.070  30.955  10.957
53825W        W13119  44.775   8.322  14.462
53826W        W13120  40.988  18.143   2.873
53827W        W13121  31.102  44.997   0.817
53828W        W13122  26.671  38.944   0.366
53829W        W13123  36.956  15.131  10.539
53830W        W13124  19.772  27.188   3.252
53831W        W13125   8.831  26.197  12.857
53832W        W13126  28.437  19.119  13.796
53833W        W13127   9.356   9.216   1.246
53834W        W13128  21.592  43.349   4.772
53835W        W13129  27.163   5.303  13.354
53836W        W13130  14.275  23.025  14.006
53837W        W13131  18.054  40.406   0.431
53838W        W13132   3.823  42.969  14.978
53839W        W13133  10.707   5.759   2.712
53840W        W13134  17.616   2.355  12.005
53841W        W13135  41.945  26.072  11.884
53842W        W13136  35.960  28.439  11.943
53843W        W13137   1.475  25.523   0.907
53844W        W13138  30.035  41.860   2.850
53845W        W13139  24.105  35.908  10.541
53846W        W13140  40.968  34.420  14.804
53847W        W13141  41.944   7.751  13.890
53848W        W13142   7.398  19.222  14.808
53849W        W13143  39.871  39.818  13.871
53850W        W13144  44.463  22.628  14.393
53851W        W13145  17.180   0.781  12.418
53852W        W13146  33.498  25.671  12.559
53853W        W13147  22.725  23.120  12.060
53854W        W13148  42.451  12.836   3.742
53855W        W13149  13.197   0.771  11.455
53856W        W13150  31.097  25.976   0.827
53857W        W13151  13.799   8.729  12.392
53858W        W13152  41.417  44.824   1.784
53859W        W13153   0.308  21.706   1.362
53860W        W13154  30.508  14.669  14.477
53861W        W13155  33.013  42.007  11.043
53862W        W13156  28.125  30.006  13.845
53863W        W13157  43.987  31.526   0.473
53864W        W13158  24.670  31.472  13.020
53865W        W13159   0.962  39.914   2.256
53866W        W13160  37.844   7.678  12.858
53867W        W13161  37.445  20.147   2.705
53868W        W13162  18.593  30.962  12.943
53869W        W13163  23.727  18.218   4.621
53870W        W13164  13.707  43.789  13.329
53871W        W13165  21.098  16.690  14.796
53872W        W13166  38.446  40.342   3.826
53873W        W13167  17.700  43.831  11.995
53874W        W13168  10.211  16.738   5.114
53875W        W13169  39.474  33.966  11.498
53876W        W13170  33.054   2.373  11.861
53877W        W13171   5.807   3.761  12.483
53878W        W13172   8.304   5.416   5.598
53879W        W13173  21.698  33.574   4.298
53880W        W13174  12.301  29.463  10.517
53881W        W13175  12.226  31.905   1.845
53882W        W13176  33.588  44.393  14.871
53883W        W13177  27.998  25.518   3.268
53884W        W13178  35.435  13.165   4.810
53885W        W13179  12.271   5.868  11.596
53886W        W13180  34.983  24.223   0.271
53887W        W13181  41.428  22.076   2.395
53888W        W13182  21.053   8.236   4.340
53889W        W13183  19.565  26.620  12.345
53890W        W13184   6.226  34.589  14.949
53891W        W13185  31.949   3.925  11.371
53892W        W13186   0.304  16.583   4.621
53893W        W13187   6.309  31.912   1.787
53894W        W13188  16.674  39.319   2.717
53895W        W13189  11.209  16.640   0.808
53896W        W13190   5.272  18.618   4.690
53897W        W13191  36.923  22.683  12.408
53898W        W13192  22.620   5.359   0.346
53899W        W13193  11.659  33.597   2.899
53900W        W13194  34.573  24.641  13.363
53901W        W13195  30.478   0.798   2.367
53902W        W13196  14.689   8.867  14.304
53903W        W13197  12.276  44.765  12.871
53904W        W13198  34.613  12.236  11.486
53905W        W13199   7.268  37.913   0.944
53906W        W13200  11.371  11.313  12.837
53907W        W13201   6.883  31.036   0.743
53908W        W13202  40.496  29.517   1.344
53909W        W13203  16.667   8.160   2.197
53910W        W13204  16.201   5.715   1.398
53911W        W13205  11.238  44.817  13.308
53912W        W13206  43.850   0.799  13.325
53913W        W13207  14.256  43.330  13.472
53914W        W13208  26.577   7.750  12.403
53915W        W13209  32.031  34.503  11.948
53916W        W13210  16.262  14.702  14.342
53917W        W13211  38.335  18.675  10.615
53918W        W13212  32.543  36.354  12.558
53919W        W13213   9.293  36.529  12.544
53920W        W13214  15.601  40.491   3.684
53921W        W13215   8.671  26.023  11.988
53922W        W13216   9.291  13.238   2.408
53923W        W13217  12.218  20.736  12.373
53924W        W13218   4.928  22.156  11.912
53925W        W13219   8.252  34.013  14.761
53926W        W13220  30.136  32.962   4.823
53927W        W13221  26.535  13.285  10.945
53928W        W13222   4.734  39.892   4.197
53929W        W13223  41.509  29.953   1.808
53930W        W13224   0.825   2.255  10.489
53931W        W13225  17.715   4.414  13.988
53932W        W13226  33.973  38.539  11.424
53933W        W13227  16.782   1.440  11.516
53934W        W13228   0.798  19.605  13.369
53935W        W13229   8.339  24.586  14.427
53936W        W13230  35.563  40.350  13.387
53937W        W13231  35.375   8.259   4.114
53938W        W13232  33.983   4.738  11.058
53939W        W13233  15.216   8.874  14.282
53940W        W13234  12.842  31.595  11.492
53941W        W13235  28.948   9.714   1.405
53942W        W13236   6.730  22.600  14.939
53943W        W13237  35.488  37.856   0.936
53944W        W13238  19.739  29.086   1.921
53945W        W13239   0.352  40.325  11.580
53946W        W13240   1.394   9.783  10.515
53947W        W13241   3.252  22.559  13.825
53948W        W13242  15.612  24.000  10.521
53949W        W13243  12.245  23.075   4.270
53950W        W13244   7.876  26.008  14.515
53951W        W13245  26.508  11.294  12.996
53952W        W13246   7.310  28.671  13.915
53953W        W13247  12.681  16.783  13.956
53954W        W13248  34.976  30.501   3.355
53955W        W13249  38.402  27.148  11.895
53956W        W13250  39.024  22.718   1.235
53957W        W13251  22.054  21.600   3.655
53958W        W13252   7.890  44.283  13.884
53959W        W13253  40.375  12.118   3.646
53960W        W13254  44.341  14.267   1.762
53961W        W13255  17.642  12.233   3.717
53962W        W13256  43.984  35.398   1.697
53963W        W13257  16.778  35.960  11.021
53964W        W13258   6.736   3.817  11.523
53965W        W13259  33.408   7.670  13.505
53966W        W13260  15.730  20.577  13.409
53967W        W13261  21.028  19.061   1.263
53968W        W13262   8.311  21.197   3.830
53969W        W13263  26.999  34.534  11.053
53970W        W13264  39.464  39.484   1.442
53971W        W13265  22.058  12.803   4.663
53972W        W13266  36.996  27.493  13.804
53973W        W13267  38.514  42.793  12.862
53974W        W13268   2.764  37.835   4.838
53975W        W13269  17.213  40.425  14.311
53976W        W13270   5.775  10.663  14.887
53977W        W13271   5.741   4.884  11.384
53978W        W13272  10.374  22.744   1.315
53979W        W13273  32.138   8.698  14.293
53980W        W13274  38.437  30.563   4.317
53981W        W13275  25.698  10.879  14.354
53982W        W13276  39.968   3.928  14.930
53983W        W13277  19.642  17.097   2.896
53984W        W13278  17.600  42.925   4.277
53985W        W13279  30.988  42.423   3.718
53986W        W13280  29.122   0.792  14.770
53987W        W13281  32.485  32.588  13.878
53988W        W13282  25.585  30.925  11.451
53989W        W13283  27.581  24.487  11.973
53990W        W13284  27.511   0.786  10.613
53991W        W13285  31.073  32.585  13.927
53992W        W13286  37.398   9.688   0.754
53993W        W13287   3.233  26.149   0.731
53994W        W13288  13.128  15.252   0.335
53995W        W13289   2.751  40.319   2.272
53996W        W13290  35.929  13.227   1.217
53997W        W13291  37.068  33.072   3.665
53998W        W13292  37.032  43.933  14.980
53999W        W13293  14.170  29.618   3.777
54000W        W13294  40.410  34.551  11.032
54001W        W13295  20.104  37.063   1.442
54002W        W13296   0.822  16.596  11.016
54003W        W13297  40.321   1.333   2.878
54004W        W13298  43.770  31.543  12.367
54005W        W13299  19.642  37.977  14.800
54006W        W13300   3.952  24.493   2.322
54007W        W13301  42.367   7.241  14.008
54008W        W13302   9.348  22.156   4.147
54009W        W13303  23.022  42.378  13.518
54010W        W13304  20.118  29.014   1.933
54011W        W13305  31.579  39.478  11.518
54012W        W13306  12.197  34.423   3.815
54013W        W13307  16.149  26.530  12.026
54014W        W13308  19.620   7.357  13.354
54015W        W13309   7.809  16.149   3.746
54016W        W13310  41.447  31.977  13.967
54017W        W13311  14.614  10.158  11.438
54018W        W13312  40.865   6.244  14.418
54019W        W13313  24.189   4.943  10.909
54020W        W13314  11.717  14.742  14.462
54021W        W13315   2.851  15.681  12.964
54022W        W13316  34.979  15.732   0.398
54023W        W13317  39.383  27.070  13.495
54024W        W13318  26.613  21.049   4.768
54025W        W13319  33.520  39.861   1.812
54026W        W13320   0.870  10.732   3.224
54027W        W13321  18.637  33.116   3.204
54028W        W13322  43.364  38.887  11.488
54029W        W13323   2.815   1.242  13.935
54030W        W13324   6.910  44.365  13.970
54031W        W13325  34.526  21.074   3.820
54032W        W13326  43.270   8.353  11.516
54033W        W13327  29.144  18.268   0.263
54034W        W13328  30.069  43.397   3.318
54035W        W13329   1.855  31.985   0.916
54036W        W13330  31.954  13.608   0.466
54037W        W13331  15.634   6.307  11.027
54038W        W13332   0.389  43.495   0.249
54039W        W13333   4.390  17.746   1.861
54040W        W13334   4.421   1.333  14.278
54041W        W13335  11.731  32.026  11.593
54042W        W13336  24.614  29.107   1.372
54043W        W13337  19.193  37.911  14.842
54044W        W13338  33.882  31.463  12.841
54045W        W13339  27.177   0.839  10.997
54046W        W13340  38.821   0.317  10.621
54047W        W13341  37.045  11.166   1.247
54048W        W13342  17.694  44.411  13.797
54049W        W13343   3.232  21.162   1.298
54050W        W13344  32.421   4.315  11.951
54051W        W13345  19.712   9.306  11.968
54052W        W13346  20.033  16.741  12.089
54053W        W13347   0.249  34.526  10.473
54054W        W13348  17.681  30.621   3.304
54055W        W13349  24.552  32.492  12.918
54056W        W13350   5.418  44.503  13.901
54057W        W13351   5.851  41.998   3.273
54058W        W13352  31.412   2.737  10.581
54059W        W13353  36.920  19.116   3.231
54060W        W13354  17.739  19.671   2.688
54061W        W13355  15.597  14.599  10.000
54062W        W13356  30.514  33.570   1.873
54063W        W13357  32.139  36.943  11.901
54064W        W13358   2.807  18.567  14.400
54065W        W13359   0.393   0.984  11.382
54066W        W13360   8.841  42.312   4.711
54067W        W13361  10.767   2.898   1.422
54068W        W13362  33.444  28.117  13.390
54069W        W13363  44.449  39.888  13.875
54070W        W13364  15.298  35.923  11.867
54071W        W13365  20.768  10.735  13.465
54072W        W13366  42.307  10.161   3.719
54073W        W13367   1.873   6.919   4.624
54074W        W13368  16.171  27.022  14.432
54075W        W13369  36.444   1.799   5.152
54076W        W13370   9.354  12.307   1.446
54077W        W13371  16.692  35.880   2.793
54078W        W13372  16.216  17.246   9.587
54079W        W13373  17.589  29.514   1.932
54080W        W13374   1.360   3.757  13.953
54081W        W13375  21.048   5.420  14.925
54082W        W13376  22.654   0.370  13.920
54083W        W13377   9.658  25.695   3.184
54084W        W13378  21.613  43.387  14.899
54085W        W13379  12.207  43.473  13.023
54086W        W13380   1.959  26.008   2.780
54087W        W13381  20.191  24.523  13.314
54088W        W13382  35.475  12.758   3.334
54089W        W13383  44.359  36.452  13.841
54090W        W13384  30.586  12.180   3.702
54091W        W13385   3.384  28.993   2.682
54092W        W13386  39.466   6.799   0.310
54093W        W13387   6.878  42.423  11.075
54094W        W13388   1.901   7.174  14.019
54095W        W13389  30.933  36.503  11.479
54096W        W13390  26.980  10.278   2.750
54097W        W13391  44.452  21.263   3.219
54098W        W13392  13.714   6.770  12.047
54099W        W13393  19.253   9.888   3.377
54100W        W13394   4.371   2.743  12.419
54101W        W13395  40.854  12.828   1.365
54102W        W13396   9.174  17.121   1.732
54103W        W13397  36.438  24.133   0.469
54104W        W13398  44.868  13.706  14.922
54105W        W13399   4.388   0.279  11.108
54106W        W13400  13.198  37.485   1.734
54107W        W13401  20.765  25.608  13.522
54108W        W13402  28.439   2.871  14.361
54109W        W13403   6.701  42.296   3.658
54110W        W13404  36.430  34.021   3.807
54111W        W13405  32.480  43.329   2.348
54112W        W13406   2.853  44.885  10.528
54113W        W13407  25.613   1.732   1.930
54114W        W13408   0.462  18.728  11.588
54115W        W13409  30.479   4.370   1.439
54116W        W13410  27.678   8.721  14.411
54117W        W13411  37.878  30.417   1.901
54118W        W13412  37.525  39.903   1.900
54119W        W13413  34.408  27.584  14.499
54120W        W13414   0.950  11.803  13.908
54121W        W13415  37.506  29.647  13.510
54122W        W13416  44.363   8.263   3.243
54123W        W13417  42.893  21.753   1.444
54124W        W13418  33.448  20.647   0.484
54125W        W13419  38.448  22.109   2.383
54126W        W13420  30.983  42.289   4.686
54127W        W13421  41.375  21.625   0.789
54128W        W13422  26.967   1.331  11.961
54129W        W13423  32.938  35.419  14.940
54130W        W13424  27.186  44.806  14.415
54131W        W13425  44.407  38.895   1.902
54132W        W13426  18.571  43.924   1.848
54133W        W13427  27.150  33.455   0.422
54134W        W13428  37.582  22.089  10.610
54135W        W13429   9.690  14.690   4.630
54136W        W13430  13.759  39.891   2.243
54137W        W13431  28.972  37.042   0.295
54138W        W13432   6.685  13.821  13.456
54139W        W13433  13.608   0.903   2.200
54140W        W13434  19.123  37.348   4.114
54141W        W13435   8.236  11.334   0.266
54142W        W13436  19.165  19.772  14.851
54143W        W13437  11.205  43.406  12.404
54144W        W13438  34.584  37.935   0.331
54145W        W13439  43.309   5.345   5.706
54146W        W13440  39.343  25.549  14.313
54147W        W13441  27.617  20.641  10.531
54148W        W13442  35.058  26.541  12.559
54149W        W13443  16.310  25.065  10.605
54150W        W13444  13.638  23.122   9.489
54151W        W13445   1.888  22.536  12.359
54152W        W13446   6.212   4.883  10.108
54153W        W13447  29.632  18.753   1.922
54154W        W13448  40.518  30.583  12.060
54155W        W13449   6.329   4.810   0.281
54156W        W13450  36.364  44.288  12.369
54157W        W13451  30.055  26.475   3.760
54158W        W13452  27.134  27.517   3.688
54159W        W13453  14.669  41.346   4.120
54160W        W13454  17.620  18.284   0.248
54161W        W13455   3.931  42.349  12.956
54162W        W13456  24.492  18.784  11.485
54163W        W13457  35.524  30.566   4.659
54164W        W13458   7.206  19.226   1.333
54165W        W13459  39.379  13.228  10.419
54166W        W13460   8.394  11.796   3.852
54167W        W13461  15.740   1.430   1.311
54168W        W13462  33.507  21.629  12.987
54169W        W13463   6.417  29.580  14.284
54170W        W13464  17.646  12.341   1.884
54171W        W13465   5.356   8.256   3.862
54172W        W13466  34.948  41.411   2.810
54173W        W13467  29.995  34.045  10.920
54174W        W13468   3.880  11.684   4.331
54175W        W13469  15.738   6.223   5.251
54176W        W13470  11.194  36.078  12.575
54177W        W13471  28.587  40.827   0.420
54178W        W13472  24.591  20.216   2.840
54179W        W13473  36.583  27.462  13.538
54180W        W13474  20.172  33.941  14.322
54181W        W13475   2.949  39.520   0.331
54182W        W13476  30.484  39.906   1.791
54183W        W13477   4.358  43.487  10.951
54184W        W13478  34.377  37.517   1.280
54185W        W13479  37.473  17.270  14.457
54186W        W13480  16.179  24.152   2.393
54187W        W13481   3.290   8.656  13.808
54188W        W13482  29.166  22.674  11.609
54189W        W13483  25.978   9.791  11.593
54190W        W13484  22.636  25.160  11.588
54191W        W13485  12.636  16.643   0.950
54192W        W13486   4.828  17.188   4.301
54193W        W13487  13.664  17.579   0.410
54194W        W13488  32.959  21.559   0.407
54195W        W13489  42.305  40.892   1.725
54196W        W13490  25.061  37.399  12.926
54197W        W13491   8.223  19.042  12.452
54198W        W13492  21.519  37.056  10.517
54199W        W13493   6.725  32.454   2.815
54200W        W13494   1.412   0.866   9.954
54201W        W13495   0.456  22.147  12.921
54202W        W13496  25.501  35.971  11.608
54203W        W13497  40.826  14.097  11.971
54204W        W13498  30.459  17.756   2.734
54205W        W13499  16.566   9.324   0.407
54206W        W13500   7.187   6.802   2.845
54207W        W13501  16.787  29.057   3.854
54208W        W13502   5.304  24.224   1.910
54209W        W13503  36.846  37.347  14.336
54210W        W13504  37.348  43.449  14.309
54211W        W13505  32.487  40.854  10.943
54212W        W13506  41.991  14.692  13.804
54213W        W13507  40.959   1.856  10.608
54214W        W13508   9.817  31.022   1.276
54215W        W13509   0.284  18.213  11.075
54216W        W13510  19.694  17.081   4.319
54217W        W13511  42.904  36.081  13.874
54218W        W13512  11.652  31.133  12.442
54219W        W13513  27.543  35.980  12.910
54220W        W13514   3.886  24.083   3.722
54221W        W13515  40.336  11.762  14.477
54222W        W13516  27.956  34.113   0.861
54223W        W13517  14.771  30.450  10.487
54224W        W13518  36.440  18.098  11.945
54225W        W13519  29.060  24.057   0.243
54226W        W13520  44.344   3.214  14.510
54227W        W13521  28.937  28.135  13.820
54228W        W13522   4.735  36.425  12.523
54229W        W13523  21.612  10.306   2.880
54230W        W13524  33.454  36.893  14.765
54231W        W13525  21.552  35.504   3.844
54232W        W13526  20.707   0.982  13.491
54233W        W13527   9.344  13.688  11.867
54234W        W13528  13.273   7.794  13.913
54235W        W13529  32.490  40.856  13.501
54236W        W13530  23.098  28.961   3.291
54237W        W13531   0.874  44.840   2.245
54238W        W13532  11.296  32.079   3.806
54239W        W13533   7.306  44.338   5.715
54240W        W13534  19.672  30.498   2.708
54241W        W13535  34.965  26.201   2.192
54242W        W13536  33.614   6.240  14.410
54243W        W13537   1.883  27.037  13.520
54244W        W13538  19.051  42.815   3.217
54245W        W13539   2.336  21.163   3.707
54246W        W13540  42.397  20.716   1.864
54247W        W13541   9.886   2.873  14.417
54248W        W13542   1.773   0.856   3.696
54249W        W13543  13.827   6.839   0.796
54250W        W13544   5.353  12.140  10.525
54251W        W13545  27.022   9.242  14.901
54252W        W13546  24.658  32.958   0.479
54253W        W13547   0.383   2.831  14.999
54254W        W13548  23.576  44.772   0.344
54255W        W13549  23.063  43.788   4.604
54256W        W13550  15.622   7.180   4.135
54257W        W13551  17.289  21.569   3.311
54258W        W13552  30.650  10.201  13.851
54259W        W13553  14.791  19.554  10.590
54260W        W13554  27.003  31.055   1.735
54261W        W13555  40.976  28.450  13.375
54262W        W13556  38.494  23.082   0.371
54263W        W13557  31.552   4.891  12.448
54264W        W13558   6.723  31.593   5.319
54265W        W13559  27.956  36.914   5.174
54266W        W13560  25.476  35.977   1.706
54267W        W13561  15.677   9.252  13.529
54268W        W13562  15.123   6.319   1.354
54269W        W13563  28.931   0.385  12.860
54270W        W13564  18.231  12.739   2.279
54271W        W13565   4.252  26.160   2.207
54272W        W13566  28.560  10.217  11.433
54273W        W13567   6.275  14.222  11.102
54274W        W13568   8.865   5.412   0.770
54275W        W13569  28.649  31.515  12.079
54276W        W13570  42.910   9.668  11.587
54277W        W13571  17.106  10.363  14.765
54278W        W13572  26.549  31.442  13.021
54279W        W13573  15.226  44.373   0.870
54280W        W13574  35.895  42.776  11.476
54281W        W13575  26.048  10.224   3.636
54282W        W13576  13.122  42.029  11.595
54283W        W13577  39.009  35.075  13.350
54284W        W13578  10.249  34.931   5.160
54285W        W13579   4.942  40.488   5.209
54286W        W13580   6.199   2.930   3.664
54287W        W13581  12.351   8.301   0.878
54288W        W13582  26.552  14.256  11.465
54289W        W13583  27.039   3.906  10.623
54290W        W13584  42.814  42.841   4.171
54291W        W13585  24.557  27.494   0.824
54292W        W13586  17.268  28.162   1.859
54293W        W13587  32.478  40.428  12.934
54294W        W13588  28.065  14.232   1.223
54295W        W13589  16.282   9.374  13.862
54296W        W13590  19.249  44.453  11.496
54297W        W13591  30.048  42.323   0.395
54298W        W13592  15.203   7.898   2.261
54299W        W13593  13.269  26.683   4.271
54300W        W13594  16.129  13.312   2.784
54301W        W13595  37.445  42.315   3.845
54302W        W13596  39.934  19.729  14.337
54303W        W13597  32.522  17.141  13.020
54304W        W13598  20.162  17.739  10.998
54305W        W13599  12.196  34.053   1.242
54306W        W13600  14.285   0.838   1.732
54307W        W13601  25.530  23.554   4.776
54308W        W13602  32.392  22.179   3.303
54309W        W13603  41.899  26.035  13.464
54310W        W13604   0.468  32.619  11.581
54311W        W13605   9.829  26.500   1.265
54312W        W13606  38.421  23.527   0.337
54313W        W13607   3.362  17.563   4.797
54314W        W13608  36.862  15.134  11.410
54315W        W13609   9.658   4.407  13.009
54316W        W13610  21.721  27.008  11.504
54317W        W13611  26.172  36.589  12.838
54318W        W13612  21.182   7.737  14.379
54319W        W13613   5.371  37.417  11.918
54320W        W13614  22.167  32.562   2.414
54321W        W13615  34.089   0.909  14.405
54322W        W13616  16.187  16.703  13.491
54323W        W13617  22.633  11.777  14.924
54324W        W13618  43.804   1.835   9.946
54325W        W13619   5.750  29.026  12.528
54326W        W13620  34.932   8.838   3.209
54327W        W13621   7.247  44.438   3.733
54328W        W13622  26.142  41.822  10.637
54329W        W13623  27.139  26.959  12.998
54330W        W13624  43.946  28.000   4.788
54331W        W13625  35.972  24.024  13.328
54332W        W13626  20.741  35.871  10.475
54333W        W13627  22.239  25.568  12.469
54334W        W13628  43.388  19.666  10.642
54335W        W13629  31.540  20.560  10.594
54336W        W13630  18.280  20.229   1.771
54337W        W13631  19.049  22.115  10.471
54338W        W13632  20.127  23.512  10.581
54339W        W13633  29.022  21.699   4.629
54340W        W13634  35.371  12.689   1.739
54341W        W13635  17.254  33.079  14.361
54342W        W13636  16.799  23.124   3.308
54343W        W13637  17.653  31.933  10.529
54344W        W13638  44.431  32.628  11.026
54345W        W13639  33.391  24.209  12.442
54346W        W13640  25.994  22.030  12.501
54347W        W13641  40.809  31.089   1.886
54348W        W13642  24.724  22.210   4.222
54349W        W13643  37.909  24.643   0.398
54350W        W13644  44.891   2.847   4.761
54351W        W13645  37.558   2.425  13.984
54352W        W13646  35.865  34.502   1.920
54353W        W13647   3.254   0.985  13.032
54354W        W13648   1.927  39.488  11.028
54355W        W13649  18.688  35.373  12.437
54356W        W13650  34.482  24.133  10.887
54357W        W13651  17.244   7.855   1.291
54358W        W13652  21.202  22.015   2.394
54359W        W13653  17.727  30.658  10.890
54360W        W13654  35.922  28.559  11.519
54361W        W13655   4.303   3.232  10.934
54362W        W13656  19.100   4.713  14.433
54363W        W13657  28.168  37.858  13.957
54364W        W13658  25.599  19.277  12.551
54365W        W13659  25.665  36.893   3.191
54366W        W13660  37.504  44.765   3.812
54367W        W13661  33.049  21.689  14.449
54368W        W13662  21.158  20.271   0.820
54369W        W13663   2.792   6.289   2.827
54370W        W13664  41.815  25.124   0.282
54371W        W13665   2.327  21.662  14.296
54372W        W13666   1.804   0.932   0.959
54373W        W13667  23.513  21.663  13.530
54374W        W13668  21.140  34.999  11.438
54375W        W13669  42.476  38.978  10.894
54376W        W13670   0.267  38.837   1.303
54377W        W13671  32.501   6.771  10.543
54378W        W13672  31.030   2.877  11.015
54379W        W13673  25.190  35.394  14.886
54380W        W13674  44.977   0.330   0.457
54381W        W13675  39.912  24.541  10.922
54382W        W13676  22.688  31.121   3.268
54383W        W13677   5.779   5.356   3.258
54384W        W13678  32.901   7.369  11.972
54385W        W13679  20.030  32.053  12.439
54386W        W13680  11.207   0.865   1.868
54387W        W13681   7.743  32.630   0.799
54388W        W13682  14.719   5.373   0.458
54389W        W13683  33.619   6.357   3.857
54390W        W13684  25.048   0.895   1.272
54391W        W13685  36.055  44.363   1.774
54392W        W13686   3.906  40.886  13.837
54393W        W13687  11.656  22.186  14.384
54394W        W13688   8.240  11.164   3.647
54395W        W13689  37.945  36.066   5.220
54396W        W13690   9.882  26.136  11.524
54397W        W13691   5.435   1.897   5.142
54398W        W13692   1.818  32.963  13.951
54399W        W13693  32.438  31.924  13.501
54400W        W13694  19.069  33.945   0.260
54401W        W13695  14.132  10.759   1.423
54402W        W13696   7.205  30.978  12.543
54403W        W13697  16.575  27.621  12.935
54404W        W13698  13.630  20.531   1.860
54405W        W13699  12.618   4.293  13.544
54406W        W13700  30.954  30.543   1.904
54407W        W13701   7.833  32.057  12.965
54408W        W13702  26.495  28.671  13.863
54409W        W13703  25.622  12.208  11.956
54410W        W13704  19.569  32.056   3.704
54411W        W13705  35.866  32.447   3.702
54412W        W13706  18.181  11.137   0.867
54413W        W13707   9.793   7.403   3.806
54414W        W13708  19.715  27.646  10.891
54415W        W13709  25.623  24.021   4.636
54416W        W13710  19.632  19.643   1.764
54417W        W13711  25.669  41.816  14.811
54418W        W13712   3.461  14.115  12.555
54419W        W13713  21.019  28.597  12.342
54420W        W13714  36.848  40.462  13.831
54421W        W13715  36.559  26.517   2.774
54422W        W13716   0.765   0.431   1.393
54423W        W13717   5.199  33.497  10.945
54424W        W13718  29.140  21.085   0.448
54425W        W13719  29.498  23.180   4.746
54426W        W13720  14.201  19.096  11.868
54427W        W13721  22.226   2.241   2.717
54428W        W13722  14.146  40.513   4.317
54429W        W13723  34.558   3.873   2.315
54430W        W13724  26.102  23.631  14.954
54431W        W13725  41.960   2.332  14.383
54432W        W13726   2.793   2.946  13.804
54433W        W13727  23.590  13.250  14.778
54434W        W13728  43.506  16.155   4.336
54435W        W13729  21.642   0.985   1.428
54436W        W13730  14.647  15.164  14.824
54437W        W13731   5.746  25.628   5.213
54438W        W13732  44.388   1.448  14.997
54439W        W13733  22.708  42.914  11.863
54440W        W13734   2.232  18.154  13.351
54441W        W13735  32.406   0.823   4.739
54442W        W13736  33.045   8.876  13.363
54443W        W13737   7.787  34.939   4.153
54444W        W13738   6.274  26.542   4.267
54445W        W13739   4.444  33.553   4.755
54446W        W13740  42.999  25.507  14.954
54447W        W13741  35.933  22.517  14.499
54448W        W13742  36.954  39.884  11.921
54449W        W13743   1.366  42.444  12.862
54450W        W13744   0.945  10.781   3.736
54451W        W13745  15.592   1.301  13.317
54452W        W13746  40.320  44.408  11.560
54453W        W13747  27.462  39.046  14.969
54454W        W13748  24.578  17.101   1.876
54455W        W13749   6.293   8.390   4.300
54456W        W13750  19.121  22.138  11.953
54457W        W13751  13.599  33.568   3.795
54458W        W13752  30.536   9.839  12.095
54459W        W13753  29.092  20.594  13.846
54460W        W13754   5.885  41.013  11.445
54461W        W13755   7.859  43.826  13.875
54462W        W13756   2.726  29.045   4.802
54463W        W13757  21.514   7.877  11.473
54464W        W13758   3.727  34.528   4.715
54465W        W13759  21.256  18.588   2.878
54466W        W13760   8.671  37.991  13.803
54467W        W13761   0.268  29.506   4.190
54468W        W13762  26.137   5.900  11.958
54469W        W13763  38.843   5.421  12.951
54470W        W13764  29.159   5.835  12.064
54471W        W13765  26.969  24.710   4.330
54472W        W13766   1.454   4.379   1.730
54473W        W13767  19.248   8.309   2.742
54474W        W13768  35.529  17.165  13.355
54475W        W13769  25.511  42.366  10.583
54476W        W13770  31.944   6.267   3.779
54477W        W13771  21.564  34.493   4.232
54478W        W13772  30.650  10.721   2.772
54479W        W13773  22.640  19.073  14.438
54480W        W13774  29.069  33.033   4.334
54481W        W13775   6.371  14.607   2.373
54482W        W13776  14.807   3.394  10.141
54483W        W13777  23.016  14.650   1.436
54484W        W13778  17.592  12.267  11.857
54485W        W13779  28.502  20.664  14.000
54486W        W13780  24.102  16.207  10.429
54487W        W13781  16.742   5.412  13.389
54488W        W13782   9.275  40.322   1.822
54489W        W13783   4.872  19.120   0.300
54490W        W13784  27.625  14.298   1.372
54491W        W13785  32.965  13.759  11.578
54492W        W13786  19.110  13.169   0.470
54493W        W13787  40.912  36.062  14.896
54494W        W13788   5.210  33.885   0.872
54495W        W13789  16.094  40.345  12.891
54496W        W13790  27.545   9.869  12.972
54497W        W13791  44.993  28.491  11.115
54498W        W13792  19.624  42.861  12.981
54499W        W13793  34.016  33.936   1.382
54500W        W13794  41.456  31.965   3.364
54501W        W13795   6.854  29.176  13.469
54502W        W13796  13.749  20.581   2.276
54503W        W13797  17.144   1.813   1.796
54504W        W13798   3.256  30.486  14.027
54505W        W13799  22.173  23.508   3.796
54506W        W13800  14.217  40.465  13.327
54507W        W13801  30.102  19.761  12.353
54508W        W13802   6.715  34.413  11.376
54509W        W13803  29.965  22.014   3.149
54510W        W13804  35.101  11.701   1.347
54511W        W13805   7.826  42.344  12.964
54512W        W13806  25.096   9.375   0.908
54513W        W13807  33.442   9.223   1.213
54514W        W13808  17.239  32.007   9.972
54515W        W13809   6.911  41.466  11.100
54516W        W13810  15.201  22.721  12.951
54517W        W13811  20.703  19.587  14.954
54518W        W13812  10.764  10.186  11.549
54519W        W13813   1.477  11.653  12.868
54520W        W13814   2.369  30.976   1.780
54521W        W13815   7.808  20.107   2.738
54522W        W13816  24.564  40.478   3.362
54523W        W13817  12.171  44.338  11.024
54524W        W13818  13.131  41.494   9.935
54525W        W13819  34.887   2.420  10.554
54526W        W13820  42.784  13.748   2.702
54527W        W13821  32.912  23.604  10.637
54528W        W13822  22.707  24.622  13.411
54529W        W13823   4.726  43.484   2.697
54530W        W13824  44.905  12.216  10.633
54531W        W13825  20.586   1.786   0.309
54532W        W13826  31.921  20.220  11.591
54533W        W13827  18.212  33.919   3.780
54534W        W13828  25.500  25.472   1.335
54535W        W13829  19.534  34.084  12.493
54536W        W13830  35.107  11.365  12.036
54537W        W13831  34.910  19.618   1.878
54538W        W13832  38.937  40.490   5.309
54539W        W13833   7.355  29.998   0.266
54540W        W13834  40.473   2.813   4.784
54541W        W13835  44.902  11.798   3.200
54542W        W13836  33.879   1.289   2.333
54543W        W13837  17.646   1.938  13.942
54544W        W13838   4.297  22.733   4.138
54545W        W13839  12.783   7.318  10.636
54546W        W13840  37.081  30.458  12.400
54547W        W13841  17.719  32.999   1.709
54548W        W13842  43.843  15.736  13.893
54549W        W13843  12.832  35.434  12.406
54550W        W13844   8.758  15.323  11.062
54551W        W13845  18.602  24.533   4.250
54552W        W13846  35.406  22.679   2.774
54553W        W13847  13.165   8.283  13.455
54554W        W13848  32.498  42.835   3.309
54555W        W13849   4.876  42.382   1.845
54556W        W13850  21.104  36.860  13.991
54557W        W13851  18.631  34.895  11.943
54558W        W13852  22.161  20.171   2.790
54559W        W13853  37.950  44.264   1.851
54560W        W13854   7.219  21.657  10.622
54561W        W13855  31.978  35.877  11.898
54562W        W13856   7.183  11.630  12.462
54563W        W13857  37.037  16.747   0.463
54564W        W13858  20.084  35.958   0.341
54565W        W13859  11.740   4.382   0.903
54566W        W13860  44.349  26.466   0.784
54567W        W13861  17.682  34.947  11.096
54568W        W13862  24.189  44.861   3.712
54569W        W13863  28.065  30.128  14.475
54570W        W13864  23.989  29.529  12.963
54571W        W13865  14.232  35.934   0.851
54572W        W13866  24.718   7.185   1.317
54573W        W13867  26.093   5.260  14.922
54574W        W13868  25.477  22.688  13.996
54575W        W13869  12.295  31.987  10.478
54576W        W13870  20.207  27.155  14.938
54577W        W13871   7.782  34.385  13.312
54578W        W13872  11.173  24.101  10.605
54579W        W13873  19.094  41.443   1.875
54580W        W13874  37.373   7.897   0.319
54581W        W13875  16.722   3.437   0.404
54582W        W13876  14.650  29.441   0.835
54583W        W13877   6.863   1.309   1.434
54584W        W13878  29.987  18.206  14.392
54585W        W13879  25.045  14.680  11.919
54586W        W13880   2.315  29.149   3.636
54587W        W13881  33.423   7.254   1.365
54588W        W13882  13.112  44.874  12.466
54589W        W13883  22.117   8.305   1.378
54590W        W13884  15.590  41.304  10.632
54591W        W13885  30.493  26.041   1.234
54592W        W13886  10.283  19.040  10.422
54593W        W13887   2.823  44.927  11.018
54594W        W13888  40.332  27.091   0.246
54595W        W13889   6.832  12.116   0.744
54596W        W13890  31.576   3.934  12.371
54597W        W13891  28.005   1.468   3.236
54598W        W13892   4.733  16.624  11.017
54599W        W13893   5.702   6.192   0.378
54600W        W13894  20.619  32.460   4.114
54601W        W13895  16.757  32.502   1.867
54602W        W13896  32.478  31.139   2.672
54603W        W13897  39.050  29.615  13.390
54604W        W13898   4.343  30.520   0.847
54605W        W13899  23.535  10.743   3.287
54606W        W13900  42.953  30.596  14.280
54607W        W13901  36.853  14.151   0.878
54608W        W13902   2.907   8.718  14.965
54609W        W13903  14.129  11.135   5.098
54610W        W13904  43.778  30.161   3.859
54611W        W13905  27.134  34.119  13.918
54612W        W13906  12.292   9.883  11.408
54613W        W13907   7.707  43.786   2.313
54614W        W13908   3.447  22.715   1.847
54615W        W13909  37.420   3.946  10.947
54616W        W13910  32.939  27.509  12.040
54617W        W13911  25.672  29.606   4.832
54618W        W13912   4.892  29.024   1.704
54619W        W13913  29.156  13.338   4.140
54620W        W13914  34.919  38.853   3.659
54621W        W13915  37.441  18.274  14.303
54622W        W13916  43.472  30.020   4.684
54623W        W13917  27.190  13.142   4.618
54624W        W13918  23.699  13.302  12.511
54625W        W13919  44.984  31.102   2.820
54626W        W13920  12.756  37.986  12.489
54627W        W13921  34.374  23.992   0.403
54628W        W13922  30.482  14.322  12.975
54629W        W13923  40.952   9.227   4.316
54630W        W13924  25.074  22.579  14.380
54631W        W13925  41.376   8.204  10.552
54632W        W13926   2.934  25.028  13.853
54633W        W13927   8.660  13.764  14.871
54634W        W13928  21.177  35.371   1.262
54635W        W13929   0.752  19.275   4.670
54636W        W13930  14.831   8.165   1.753
54637W        W13931   9.256   2.290  11.944
54638W        W13932   1.902  19.173   4.629
54639W        W13933  19.602  15.590   3.859
54640W        W13934   4.885   9.245   2.882
54641W        W13935   4.293   9.330  13.024
54642W        W13936  10.795   1.264   2.844
54643W        W13937  42.836  11.170  14.922
54644W        W13938  27.079  13.327  14.469
54645W        W13939  15.781   6.775  12.491
54646W        W13940  41.964  24.546  14.326
54647W        W13941   4.919  36.017   4.704
54648W        W13942  21.061  20.567   2.725
54649W        W13943   4.845   5.757   4.165
54650W        W13944  29.627   5.241  13.343
54651W        W13945  11.258  36.961   4.314
54652W        W13946  28.078  18.600   1.727
54653W        W13947   5.864   5.253   1.243
54654W        W13948  22.166  29.152   4.248
54655W        W13949  30.630   8.213   4.597
54656W        W13950  30.616  26.068   2.789
54657W        W13951  10.846  21.260  12.402
54658W        W13952  31.915  33.538  13.822
54659W        W13953  27.951  21.697  11.010
54660W        W13954  19.153  32.067  14.826
54661W        W13955  14.301  10.146  10.926
54662W        W13956  35.948  15.168   4.651
54663W        W13957  40.518  13.642   2.878
54664W        W13958  14.100  28.145   3.324
54665W        W13959  26.570   6.411  13.400
54666W        W13960  32.988  29.008  12.365
54667W        W13961  39.540  10.725   3.853
54668W        W13962   0.463  41.514   2.803
54669W        W13963  13.673  24.108  12.902
54670W        W13964   2.353  40.999   2.301
54671W        W13965  24.479   2.251  11.085
54672W        W13966   6.372  44.423   1.433
54673W        W13967  21.744  21.539  13.998
54674W        W13968  36.921  16.186  12.485
54675W        W13969  33.508   3.334   4.308
54676W        W13970  13.271   6.782   4.125
54677W        W13971  14.658   3.748   1.258
54678W        W13972  36.553  42.335   3.378
54679W        W13973  13.126  19.639   3.211
54680W        W13974  29.148  26.472  12.856
54681W        W13975  15.675  12.851   2.297
54682W        W13976  21.191  41.814  14.287
54683W        W13977  38.441  43.000  10.895
54684W        W13978  30.650  15.649   1.820
54685W        W13979  20.269  13.278  12.526
54686W        W13980  17.113   0.379   3.375
54687W        W13981  29.961  26.554  11.521
54688W        W13982  30.093  33.399  10.894
54689W        W13983  14.272  12.173  14.505
54690W        W13984  41.502  32.590   4.816
54691W        W13985  42.475  32.637   4.692
54692W        W13986  18.662  12.786   4.139
54693W        W13987   0.854   0.751  11.434
54694W        W13988  26.999  14.832   0.258
54695W        W13989   3.814  38.445  11.519
54696W        W13990   4.860   0.849   0.756
54697W        W13991  22.719  40.304   1.873
54698W        W13992  24.017  41.427  14.375
54699W        W13993  37.005  29.605  12.522
54700W        W13994   0.890  12.737  11.516
54701W        W13995  40.807   2.829   3.262
54702W        W13996  11.323  21.222   0.906
54703W        W13997  10.281  11.863   2.899
54704W        W13998  23.026  15.144  11.437
54705W        W13999  11.645  20.679  14.421
54706W        W14000  24.018   5.253   0.897
54707W        W14001  18.205  19.562   1.848
54708W        W14002  23.156  21.173  13.437
54709W        W14003  40.974  22.747   1.245
54710W        W14004  25.038  19.098  11.947
54711W        W14005  15.274  17.749   3.366
54712W        W14006  29.639  44.849  13.010
54713W        W14007  38.488  37.496  13.983
54714W        W14008  19.260   7.376  14.409
54715W        W14009  37.076  23.490  10.615
54716W        W14010  12.611  12.338   5.646
54717W        W14011  40.838  32.890  12.444
54718W        W14012  32.073  40.344   9.944
54719W        W14013   9.865  33.978   2.300
54720W        W14014  26.481  41.437   3.699
54721W        W14015  19.054  41.424  11.514
54722W        W14016  18.238  21.652   2.829
54723W        W14017  44.371  15.136   4.326
54724W        W14018  11.867  32.523   3.795
54725W        W14019  20.748  41.001  14.465
54726W        W14020   3.368  30.951  12.025
54727W        W14021  10.848  35.536   2.808
54728W        W14022  34.945  30.126   2.249
54729W        W14023  14.266  37.046  13.007
54730W        W14024  31.030  29.526  13.981
54731W        W14025  27.186  38.066  13.062
54732W        W14026  33.110  23.594   1.708
54733W        W14027   2.452  42.016  14.438
54734W        W14028   6.312   3.908  12.424
54735W        W14029  42.026  10.670   4.166
54736W        W14030  17.670  22.634   0.909
54737W        W14031   0.255  29.924  13.898
54738W        W14032  30.530  13.121   5.245
54739W        W14033  44.432  12.305  12.501
54740W        W14034  33.598  44.440   1.709
54741W        W14035  41.886   6.824  11.608
54742W        W14036   1.804  38.441   1.802
54743W        W14037   0.957  40.335  12.578
54744W        W14038  39.527   0.429   1.758
54745W        W14039  24.179  15.100  11.090
54746W        W14040  39.961   6.218  11.419
54747W        W14041   5.424  17.779   3.293
54748W        W14042  38.835  29.995  13.368
54749W        W14043  30.931  30.928   3.310
54750W        W14044   3.773  15.589  12.831
54751W        W14045  37.476  32.041   3.282
54752W        W14046  22.025  24.109   2.858
54753W        W14047  38.393  43.289  13.464
54754W        W14048  16.227   5.435  12.343
54755W        W14049  12.787  30.144   5.708
54756W        W14050  22.579  17.203   5.213
54757W        W14051  27.007   0.249   0.902
54758W        W14052  10.859  12.266   0.749
54759W        W14053  30.958   4.829  13.912
54760W        W14054   6.392   7.792  14.931
54761W        W14055  11.760  39.890   1.293
54762W        W14056  31.632   3.230   2.255
54763W        W14057  31.992  39.966  12.844
54764W        W14058  27.144   6.278  13.933
54765W        W14059  19.566  24.166  11.378
54766W        W14060  27.580  33.123   2.251
54767W        W14061  22.149   2.763  13.791
54768W        W14062   3.284   5.241  10.632
54769W        W14063  30.061  33.566  14.434
54770W        W14064  18.692  23.196   0.849
54771W        W14065  26.061  38.489   2.872
54772W        W14066  33.484   0.270   3.745
54773W        W14067   9.205  31.470   4.234
54774W        W14068  32.523  25.043   1.358
54775W        W14069  19.671  16.148   4.322
54776W        W14070   1.478  25.096  12.092
54777W        W14071  33.571  16.082   4.121
54778W        W14072   5.930  24.690  12.990
54779W        W14073  41.379  31.461  12.388
54780W        W14074  22.116  25.108  11.529
54781W        W14075   9.378  22.106  13.371
54782W        W14076  25.086  17.662   3.629
54783W        W14077   1.965  44.904  11.071
54784W        W14078  36.012  18.665  11.876
54785W        W14079  15.090  28.493  13.344
54786W        W14080  39.513  23.565   3.657
54787W        W14081  10.852  18.719  12.428
54788W        W14082   6.764  26.978   1.260
54789W        W14083  21.224   5.261   0.308
54790W        W14084  16.146  31.465   1.271
54791W        W14085  20.573  40.844  11.062
54792W        W14086  41.908  18.098   2.367
54793W        W14087  21.683  11.324   4.297
54794W        W14088  42.321  27.023  11.467
54795W        W14089  35.539  22.101   1.798
54796W        W14090  37.386  17.146   5.269
54797W        W14091   1.316  32.419  11.008
54798W        W14092  10.698  21.219   4.180
54799W        W14093  44.285  31.409  12.886
54800W        W14094  39.436  42.975   4.738
54801W        W14095   2.754  34.111   3.675
54802W        W14096  43.861  18.199  13.921
54803W        W14097  22.227  36.890   1.337
54804W        W14098   0.491  20.207   0.745
54805W        W14099  36.055  34.991   3.342
54806W        W14100  26.178  28.065   4.241
54807W        W14101  39.891  16.712  13.799
54808W        W14102  23.116  36.011  14.480
54809W        W14103   5.911  32.540   1.397
54810W        W14104  27.169  43.819   1.413
54811W        W14105  21.732  44.307  10.617
54812W        W14106  44.932  11.280  14.838
54813W        W14107  35.541  18.060  12.559
54814W        W14108   5.733  13.688  11.564
54815W        W14109  27.941  38.345   2.405
54816W        W14110  35.972  18.142  13.030
54817W        W14111  30.476  35.046  10.537
54818W        W14112  41.372  39.467   4.342
54819W        W14113  25.696  41.881   4.720
54820W        W14114  25.207  17.632  12.428
54821W        W14115  38.987  21.608   3.354
54822W        W14116  10.720  29.523  11.096
54823W        W14117  11.224  44.929  12.422
54824W        W14118  15.150  41.929  12.575
54825W        W14119   6.756  14.771  14.026
54826W        W14120  24.217  27.056   1.275
54827W        W14121  26.542  41.013  12.873
54828W        W14122  27.568   1.839   4.164
54829W        W14123  22.641  23.163  11.080
54830W        W14124  30.144  29.652  11.087
54831W        W14125  22.539  24.981   2.226
54832W        W14126  44.492  19.732   4.179
54833W        W14127  36.431   5.856  13.444
54834W        W14128  44.272  22.684   0.873
54835W        W14129  25.668  12.850  12.950
54836W        W14130   3.447  18.780  11.899
54837W        W14131  30.631   5.357  13.477
54838W        W14132   5.762   5.201   0.949
54839W        W14133  24.534  43.775   0.796
54840W        W14134  32.142  42.907   1.382
54841W        W14135  12.259  12.266  12.454
54842W        W14136   4.291  16.737   4.663
54843W        W14137  33.888   6.815  14.793
54844W        W14138   9.691  44.297   3.193
54845W        W14139  11.178  14.597  14.398
54846W        W14140  22.556   1.403  10.468
54847W        W14141  26.630  35.377   4.619
54848W        W14142   8.711  36.000   2.731
54849W        W14143  27.046  33.989  14.774
54850W        W14144  33.023  32.394   3.351
54851W        W14145   6.758   6.363   4.667
54852W        W14146  40.481  24.573   2.354
54853W        W14147  10.322  25.215   2.786
54854W        W14148  37.477  33.401  14.015
54855W        W14149  39.375   2.921   4.643
54856W        W14150  29.534   0.844  12.835
54857W        W14151  15.314   2.442   1.832
54858W        W14152  40.803  39.509   3.657
54859W        W14153  28.511  29.973   1.254
54860W        W14154  11.260  21.018   0.417
54861W        W14155   2.268   5.272  10.994
54862W        W14156  14.635  15.100  12.501
54863W        W14157  19.567  20.605  10.893
54864W        W14158  19.215   8.330   3.307
54865W        W14159  28.543  39.469   3.190
54866W        W14160  10.793   8.223   4.325
54867W        W14161   0.277  25.538   4.141
54868W        W14162  33.946  13.206  12.006
54869W        W14163  39.469  11.794   2.769
54870W        W14164  15.811   1.269   0.941
54871W        W14165  25.081  26.694  12.358
54872W        W14166  26.677   6.797  12.876
54873W        W14167  21.643   6.914  14.493
54874W        W14168  42.287  43.276  12.353
54875W        W14169  42.798   3.722  11.491
54876W        W14170   6.868  26.163  13.471
54877W        W14171  22.190   4.780  13.896
54878W        W14172  12.338  41.400   1.728
54879W        W14173  35.505  41.019   1.873
54880W        W14174  27.465  25.705  13.966
54881W        W14175  16.133  27.560   1.733
54882W        W14176  18.256  38.002  13.050
54883W        W14177  10.659  21.552  13.368
54884W        W14178   3.412  30.156   0.933
54885W        W14179  36.053  28.644   2.806
54886W        W14180  39.826   9.713  14.437
54887W        W14181  32.086  37.974  10.127
54888W        W14182  19.674  14.611   3.207
54889W        W14183   0.414  21.650  12.004
54890W        W14184  43.860  13.318  10.913
54891W        W14185  30.596  41.337   2.293
54892W        W14186  37.426  18.054   0.821
54893W        W14187  30.980  10.807   2.846
54894W        W14188  18.760  37.495   9.978
54895W        W14189  13.754   6.268   2.699
54896W        W14190  17.229   4.840  13.364
54897W        W14191  11.149  44.987   4.203
54898W        W14192  33.885  24.490  10.444
54899W        W14193  11.301  12.343  12.932
54900W        W14194  38.029  12.239   4.328
54901W        W14195  36.362   7.281   0.878
54902W        W14196  29.585   5.911   4.662
54903W        W14197  20.064  27.492   1.776
54904W        W14198  25.545  29.050   1.439
54905W        W14199  40.378  33.599   4.297
54906W        W14200   5.203  17.642  14.393
54907W        W14201  10.640  30.142   1.865
54908W        W14202  34.039  31.897  12.825
54909W        W14203   5.373  10.148   1.370
54910W        W14204   8.190   8.741  13.338
54911W        W14205  38.414  24.211  11.399
54912W        W14206  12.309  11.239  11.082
54913W        W14207  12.130   1.369  11.530
54914W        W14208   3.248   3.784  14.936
54915W        W14209  40.956  16.772   1.416
54916W        W14210  16.616   3.397  13.799
54917W        W14211  39.878  38.064  14.866
54918W        W14212  32.014  39.909  11.461
54919W        W14213  38.877  31.084  11.121
54920W        W14214  20.124  34.913  11.433
54921W        W14215  17.667  44.905   3.736
54922W        W14216  13.184   9.836   3.648
54923W        W14217  29.122   8.239  12.494
54924W        W14218  35.432   3.809   3.730
54925W        W14219  42.983  16.703   3.172
54926W        W14220   6.366  33.023  12.389
54927W        W14221  27.503  13.189   1.411
54928W        W14222  17.086  43.271  13.521
54929W        W14223  12.205  21.050   2.667
54930W        W14224   3.794   0.309  13.936
54931W        W14225  38.439  36.957  13.874
54932W        W14226   6.322  39.351  10.520
54933W        W14227  41.924  16.796  14.834
54934W        W14228   8.346  43.873  11.526
54935W        W14229  44.292  11.645   3.719
54936W        W14230   6.377  10.874  12.374
54937W        W14231  25.516  40.843   5.317
54938W        W14232   3.292  26.631  13.023
54939W        W14233   6.884  33.505   0.757
54940W        W14234  19.221   4.311   2.667
54941W        W14235  28.577  16.288   1.713
54942W        W14236  26.002  14.773   4.777
54943W        W14237  28.076  31.989  11.884
54944W        W14238  21.063   5.333   3.866
54945W        W14239  26.697  21.711   4.764
54946W        W14240  28.673   7.176   0.747
54947W        W14241   4.406  37.023   2.777
54948W        W14242  42.516  23.104  12.414
54949W        W14243  23.593   4.214   0.757
54950W        W14244  44.898  36.889   4.606
54951W        W14245  27.647   7.672  12.445
54952W        W14246  19.777  36.975   1.767
54953W        W14247  40.336  15.771  13.842
54954W        W14248  28.630  39.457   1.912
54955W        W14249  36.492  42.401   2.736
54956W        W14250   5.249  21.108   3.147
54957W        W14251  36.592  21.168   4.238
54958W        W14252  14.110   1.325  11.428
54959W        W14253  15.647   9.798  12.486
54960W        W14254  39.459  14.303  14.427
54961W        W14255  29.141  15.736  14.338
54962W        W14256  41.907  28.070   1.722
54963W        W14257   3.880   7.684   1.438
54964W        W14258  40.313  32.092   1.241
54965W        W14259  10.851  31.928  12.400
54966W        W14260   7.686   7.316   1.753
54967W        W14261  36.022  22.206  11.573
54968W        W14262   2.839  34.970  11.390
54969W        W14263  34.090  41.925  14.376
54970W        W14264  43.856  14.181  12.361
54971W        W14265  15.659  24.640  14.851
54972W        W14266   9.351  44.895  14.817
54973W        W14267   5.417   2.286  10.557
54974W        W14268  20.160   2.779  11.565
54975W        W14269  27.554  17.773   1.790
54976W        W14270  14.119   3.398   1.724
54977W        W14271  36.454  36.408  14.307
54978W        W14272   2.943  26.154  14.449
54979W        W14273   9.851  12.742  10.576
54980W        W14274   6.879   3.437  13.826
54981W        W14275  26.494  24.077   2.849
54982W        W14276  32.557  16.234   3.807
54983W        W14277   8.321  26.960  10.504
54984W        W14278  11.229  11.136  14.938
54985W        W14279  30.034  41.439   4.755
54986W        W14280  10.226  12.768  13.833
54987W        W14281  14.784  32.125  10.976
54988W        W14282  16.144  34.869  11.518
54989W        W14283  37.362  31.436  11.004
54990W        W14284  44.428  43.982  13.821
54991W        W14285  16.122   7.824  13.397
54992W        W14286  12.338  12.696   0.343
54993W        W14287  12.275  24.573  14.506
54994W        W14288  36.559  23.732   4.786
54995W        W14289   2.376  34.492   2.344
54996W        W14290  35.406  31.087  14.886
54997W        W14291   1.270   7.173   1.331
54998W        W14292  12.725  21.717   0.377
54999W        W14293  28.439  15.800   4.703
55000W        W14294   2.727  28.453  14.864
55001W        W14295  10.345  12.176  13.393
55002W        W14296  21.121  12.235   3.865
55003W        W14297  21.659  41.854  14.816
55004W        W14298  20.148  15.227   0.733
55005W        W14299  20.244  10.701   3.870
55006W        W14300  34.585  31.988   4.329
55007W        W14301  39.321  29.987  11.394
55008W        W14302  34.504  44.896   2.283
55009W        W14303   1.361  18.244   1.787
55010W        W14304  12.674  20.581  11.393
55011W        W14305  14.108   1.766  14.487
55012W        W14306   7.410   7.386  11.037
55013W        W14307   1.897  31.117  12.006
55014W        W14308  42.358  19.741  11.932
55015W        W14309   3.762  18.740  11.118
55016W        W14310  13.121  13.763   1.924
55017W        W14311  18.291  14.783  10.125
55018W        W14312  38.076  29.017   4.659
55019W        W14313  40.850  40.385   0.925
55020W        W14314   3.731  22.743   4.298
55021W        W14315  28.090  35.057   1.767
55022W        W14316  42.995   1.806  12.529
55023W        W14317  29.604  29.540  11.386
55024W        W14318   7.886  27.095   2.406
55025W        W14319   1.937   4.415   1.346
55026W        W14320  32.106  17.176  14.802
55027W        W14321   0.809  35.969  13.448
55028W        W14322  11.718  19.581  14.430
55029W        W14323  35.359  15.144   3.697
55030W        W14324  33.494  10.383   1.344
55031W        W14325   9.393  32.416  14.016
55032W        W14326   8.348   5.210   1.865
55033W        W14327  19.724  15.791   3.232
55034W        W14328  28.554  16.143  14.975
55035W        W14329  17.232  16.621   1.412
55036W        W14330   0.976  27.485  12.421
55037W        W14331  42.485   6.852  12.054
55038W        W14332  39.031  23.699   4.115
55039W        W14333  23.513  18.245  12.902
55040W        W14334  43.505   2.750  10.495
55041W        W14335  32.042  36.589   1.221
55042W        W14336   5.202  20.139  12.869
55043W        W14337  22.014  26.178   1.796
55044W        W14338  10.198  20.677  12.374
55045W        W14339  25.124  26.469  11.601
55046W        W14340   0.915   3.398  11.980
55047W        W14341  41.500  19.143  14.939
55048W        W14342  28.113  40.955  13.009
55049W        W14343  41.472  11.839   4.202
55050W        W14344  22.596  25.161   5.119
55051W        W14345  26.038  44.930   0.249
55052W        W14346  11.796  22.244  12.093
55053W        W14347  13.686  22.628   9.456
55054W        W14348  24.124  41.873   2.751
55055W        W14349  38.997  22.149   4.202
55056W        W14350   7.775  14.592  11.605
55057W        W14351  26.694   1.432  14.321
55058W        W14352  27.984  43.929  14.956
55059W        W14353  12.781  21.163   0.424
55060W        W14354   4.784  25.690   2.228
55061W        W14355  15.132   6.242  11.978
55062W        W14356   6.899  31.646   4.656
55063W        W14357  17.753  18.070  10.598
55064W        W14358  18.193  28.154   0.951
55065W        W14359  16.680  18.767   0.403
55066W        W14360  13.634  38.831   1.815
55067W        W14361  30.621  36.433   4.626
55068W        W14362  33.589  21.103  14.462
55069W        W14363  16.084  18.149   2.406
55070W        W14364  29.986  10.220   3.301
55071W        W14365   0.487   8.848  14.277
55072W        W14366  34.012  39.939   3.197
55073W        W14367   8.683  18.234  14.961
55074W        W14368  23.683  18.290   1.887
55075W        W14369  26.977  38.853   3.864
55076W        W14370  25.487   6.412  12.945
55077W        W14371  37.831  34.450   2.382
55078W        W14372  20.039  24.155  13.859
55079W        W14373  27.104   0.483   4.811
55080W        W14374  36.077  26.660  12.022
55081W        W14375  39.413   6.363  13.053
55082W        W14376  35.602  34.890   2.272
55083W        W14377  42.969  31.432  14.334
55084W        W14378  16.214  30.051  11.105
55085W        W14379  34.900  32.511  14.880
55086W        W14380  37.505  40.344  14.436
55087W        W14381  20.068  40.363  13.463
55088W        W14382  21.191  44.356  13.387
55089W        W14383  24.590  21.074   3.352
55090W        W14384   3.240   7.291   4.838
55091W        W14385  11.306  37.551  13.462
55092W        W14386  41.369   2.944   4.621
55093W        W14387  44.503  22.210  10.596
55094W        W14388  39.846  21.729   3.298
55095W        W14389  16.591  17.726  10.997
55096W        W14390  32.480  23.094  14.437
55097W        W14391  19.239  37.922   3.703
55098W        W14392  33.600  28.629  14.477
55099W        W14393   5.695  32.409   9.676
55100W        W14394  16.637  36.580   4.292
55101W        W14395   9.247  17.172   3.735
55102W        W14396  12.769  35.039  13.942
55103W        W14397  11.341  39.492  14.886
55104W        W14398  21.724  41.896   3.693
55105W        W14399  19.768  35.432   4.229
55106W        W14400  17.745  30.417   2.867
55107W        W14401  34.427  38.565  14.428
55108W        W14402  25.192   2.889   0.866
55109W        W14403  28.155   5.755   4.269
55110W        W14404  35.524  16.591  12.008
55111W        W14405  24.995  35.029  12.465
55112W        W14406  24.601   0.811  12.453
55113W        W14407  22.043  21.220  11.925
55114W        W14408   9.850  15.137   3.280
55115W        W14409  18.621   2.803   4.223
55116W        W14410  20.702  27.582  12.345
55117W        W14411  16.590  44.329   0.861
55118W        W14412  18.580  23.507  10.520
55119W        W14413  28.131  29.459   4.322
55120W        W14414  39.446  43.407   4.277
55121W        W14415  36.097  13.741   3.788
55122W        W14416  27.029  25.986   0.942
55123W        W14417  41.839  18.611   2.308
55124W        W14418   1.382   1.931   3.338
55125W        W14419   1.297  29.160  11.455
55126W        W14420   4.902  39.320   1.785
55127W        W14421  26.081  20.692   3.193
55128W        W14422  10.243  23.663  13.401
55129W        W14423  43.976  15.223  10.894
55130W        W14424   7.819  26.569   2.837
55131W        W14425  10.784  28.126  14.015
55132W        W14426  27.965  33.553  12.856
55133W        W14427  21.076  39.348  10.461
55134W        W14428  31.621  44.972  10.418
55135W        W14429  40.882   2.940  14.817
55136W        W14430  19.166  27.118   1.763
55137W        W14431  21.229  17.161   4.762
55138W        W14432  30.560  20.063   1.410
55139W        W14433  28.542  10.819  13.916
55140W        W14434  21.582  20.152   0.951
55141W        W14435  37.444  27.671   4.321
55142W        W14436   4.275  35.930  12.949
55143W        W14437  16.719  22.715  10.529
55144W        W14438  42.963  15.620   4.699
55145W        W14439  23.640   1.750  12.846
55146W        W14440  36.034  39.869  14.800
55147W        W14441  23.055  35.044  14.760
55148W        W14442   6.847  41.009   2.882
55149W        W14443  11.694  23.627  13.969
55150W        W14444  32.033  12.837   1.782
55151W        W14445  14.316  15.596   0.957
55152W        W14446  24.700   0.378  10.502
55153W        W14447  11.796   3.407   2.838
55154W        W14448   0.924  38.988  13.321
55155W        W14449  32.908  18.667   1.219
55156W        W14450  12.351  44.852   0.325
55157W        W14451  18.076   6.194  14.363
55158W        W14452  16.108   6.702   0.327
55159W        W14453  30.070  31.486   2.267
55160W        W14454  35.938  36.463   4.725
55161W        W14455  43.467  11.855  13.821
55162W        W14456  30.603  27.620   1.442
55163W        W14457   2.809   6.808   1.246
55164W        W14458  30.920  25.697  13.973
55165W        W14459  25.085  24.975  11.509
55166W        W14460  24.509  37.569  12.459
55167W        W14461   9.815  41.044  11.378
55168W        W14462  29.019   3.269  11.404
55169W        W14463  24.516   9.322  13.822
55170W        W14464  41.041   0.845   4.309
55171W        W14465  41.299  12.188   3.344
55172W        W14466  22.127  20.564   0.353
55173W        W14467   9.807  28.541   2.738
55174W        W14468  21.696   6.414  11.537
55175W        W14469  24.184  40.322   5.097
55176W        W14470  42.974   9.644   4.161
55177W        W14471  35.885   4.210   1.369
55178W        W14472  13.181  25.003   1.832
55179W        W14473  12.129   3.927  14.797
55180W        W14474   6.704   9.835  11.944
55181W        W14475  21.042  20.578  12.496
55182W        W14476  35.553  44.341   3.208
55183W        W14477  39.963  14.681   0.271
55184W        W14478   2.728  17.175  13.313
55185W        W14479  42.284  17.237   2.229
55186W        W14480  31.441  13.271  12.844
55187W        W14481   7.203  35.860   4.599
55188W        W14482  37.932  26.994   0.758
55189W        W14483  11.324   7.901  10.489
55190W        W14484  41.980  40.988  13.018
55191W        W14485  21.570   4.715   2.382
55192W        W14486  19.126   4.838  11.960
55193W        W14487  44.332  39.379   1.798
55194W        W14488   3.784  11.841   2.239
55195W        W14489  29.473  27.595   4.825
55196W        W14490  23.009   2.843   1.317
55197W        W14491  20.171  38.076  14.853
55198W        W14492  41.296  17.064  12.849
55199W        W14493  40.346  22.502   1.770
55200W        W14494  19.560  12.280  11.514
55201W        W14495  18.126   1.748  10.888
55202W        W14496  22.581  21.569  11.597
55203W        W14497  42.780  26.070  14.800
55204W        W14498  26.121  37.946   2.388
55205W        W14499  37.439  12.312  11.483
55206W        W14500   2.261  18.097  14.761
55207W        W14501  32.591  20.137   1.391
55208W        W14502  40.879  12.272  12.542
55209W        W14503  17.724  31.124  11.933
55210W        W14504  19.274  30.628   4.646
55211W        W14505  35.900  18.223   3.807
55212W        W14506   4.794  25.022   3.812
55213W        W14507  42.488  18.279  13.836
55214W        W14508   5.744  24.224  14.353
55215W        W14509  10.801   8.399   4.821
55216W        W14510  33.612   4.793   0.792
55217W        W14511  20.053  11.634   0.412
55218W        W14512   7.861  24.037  14.863
55219W        W14513  40.905  31.627  11.086
55220W        W14514  16.244  34.876   0.872
55221W        W14515  23.227   0.450  11.001
55222W        W14516  39.467  31.487  12.512
55223W        W14517  39.429  15.221   0.829
55224W        W14518   0.441  39.340  11.558
55225W        W14519  14.261  44.306   0.358
55226W        W14520   5.357   1.390  13.836
55227W        W14521  14.146  36.845   2.393
55228W        W14522  33.093   8.900  14.435
55229W        W14523   4.863   3.254  13.831
55230W        W14524  14.763  29.482  10.448
55231W        W14525  16.205  40.041   3.783
55232W        W14526  16.711  31.577  13.821
55233W        W14527  10.740  25.191   0.397
55234W        W14528  39.366  25.159  10.627
55235W        W14529  41.042  34.904   0.858
55236W        W14530  36.016  31.952   2.825
55237W        W14531  28.056  31.965  12.880
55238W        W14532  41.367  23.623  10.899
55239W        W14533  42.983  21.067  10.533
55240W        W14534   1.346  40.799  11.928
55241W        W14535  16.108  25.597  11.965
55242W        W14536  26.625  22.674   2.710
55243W        W14537  15.201  16.077  12.524
55244W        W14538  20.246  37.946   3.856
55245W        W14539  32.031  20.536  11.531
55246W        W14540  30.072   5.300   2.301
55247W        W14541  10.857   0.782  14.992
55248W        W14542  15.687  33.530  14.319
55249W        W14543  16.178  11.350   1.727
55250W        W14544  21.585  35.493  12.998
55251W        W14545  26.084  21.063  14.768
55252W        W14546  41.020  18.051   2.275
55253W        W14547  15.312  25.642   0.903
55254W        W14548   5.777  13.292  12.406
55255W        W14549  10.862  32.954   2.860
55256W        W14550  25.169  44.501  13.334
55257W        W14551  15.185  15.281   0.321
55258W        W14552  36.858  17.764  14.023
55259W        W14553  37.402  40.872   1.827
55260W        W14554   5.215   0.470  14.827
55261W        W14555   2.372  23.552  12.530
55262W        W14556  23.054   5.366  11.406
55263W        W14557  25.136  15.087  10.975
55264W        W14558  13.119  35.984   4.733
55265W        W14559  13.284  42.813  10.480
55266W        W14560  38.473  29.585  10.463
55267W        W14561  42.509  22.176   1.833
55268W        W14562   3.446   1.835   5.795
55269W        W14563   3.278  44.292  14.339
55270W        W14564   9.714  30.029  11.062
55271W        W14565   8.829  27.680   1.730
55272W        W14566  10.229  28.158   0.419
55273W        W14567  10.354  22.212  11.897
55274W        W14568  35.930  28.958  12.969
55275W        W14569   5.247  18.146  14.413
55276W        W14570  36.985  23.706  14.391
55277W        W14571  29.052  16.202   3.707
55278W        W14572  16.075   1.824  12.360
55279W        W14573  11.781  40.981  14.796
55280W        W14574  29.576  17.218   1.361
55281W        W14575  30.555  30.499  13.021
55282W        W14576  42.407  37.555   1.698
55283W        W14577  13.763  19.700  10.975
55284W        W14578   2.848  17.101  13.980
55285W        W14579  37.002   4.820  10.992
55286W        W14580   2.312  10.688  10.417
55287W        W14581  29.578  15.164   2.882
55288W        W14582  14.767  36.846   2.298
55289W        W14583  25.029   3.933  13.528
55290W        W14584  12.619  20.121   4.717
55291W        W14585  30.620  33.949  14.917
55292W        W14586  43.301  33.085  12.437
55293W        W14587  22.100   6.182  13.474
55294W        W14588  31.935  27.140  14.914
55295W        W14589  23.670  13.109   5.245
55296W        W14590  23.088  40.043  11.065
55297W        W14591  20.073  20.187   1.835
55298W        W14592   2.406  26.615  10.496
55299W        W14593  28.126  38.977   2.328
55300W        W14594  40.319   6.723   3.771
55301W        W14595  14.746   1.273  13.489
55302W        W14596  37.375  35.990  10.603
55303W        W14597  21.627   9.842   3.295
55304W        W14598  25.545  23.042   1.710
55305W        W14599  23.171  44.289  10.930
55306W        W14600   6.332  15.652   2.352
55307W        W14601   7.297  27.587   4.328
55308W        W14602  12.216  38.528   4.763
55309W        W14603  43.782  39.389   4.311
55310W        W14604  19.258  17.089  14.778
55311W        W14605  35.465  40.836   2.679
55312W        W14606  39.870  11.636  13.905
55313W        W14607  16.643  31.581   3.679
55314W        W14608  20.579  44.948  11.411
55315W        W14609  44.300  24.071   1.383
55316W        W14610  29.623   1.239   0.751
55317W        W14611  20.632  15.134   3.776
55318W        W14612   0.898  29.461   4.180
55319W        W14613  27.656  40.334  10.442
55320W        W14614  25.024  28.644  14.480
55321W        W14615  34.493   7.849  11.990
55322W        W14616  28.149  28.999  10.016
55323W        W14617  39.916  33.499   1.275
55324W        W14618  33.474  16.099  14.989
55325W        W14619  37.425  12.664  13.373
55326W        W14620  41.796   0.253  13.436
55327W        W14621  41.403  13.148   3.341
55328W        W14622  15.205  42.458   4.253
55329W        W14623   5.350  15.319  14.895
55330W        W14624  20.263  29.634   3.166
55331W        W14625  24.490  11.704  14.386
55332W        W14626  14.626  34.521  11.473
55333W        W14627  10.638   8.258  11.607
55334W        W14628  15.722   5.709   4.154
55335W        W14629  34.891  42.032  11.519
55336W        W14630  43.786  36.430   4.171
55337W        W14631  44.455  25.120  14.899
55338W        W14632  29.154  41.882  14.017
55339W        W14633  21.685  29.593   4.716
55340W        W14634  21.255  17.223   1.787
55341W        W14635  24.566  37.478   3.325
55342W        W14636   9.727  44.471  12.023
55343W        W14637  14.121  40.331  14.840
55344W        W14638   6.748  30.571  13.340
55345W        W14639   3.729   4.306   0.750
55346W        W14640   6.915  30.134  10.978
55347W        W14641  18.295   0.928  12.477
55348W        W14642  12.266  21.241  10.537
55349W        W14643  17.583  26.461  13.338
55350W        W14644  15.716  43.811  12.445
55351W        W14645  24.015  29.044  13.502
55352W        W14646  41.507  14.616   1.915
55353W        W14647  25.965  38.975  10.898
55354W        W14648  19.572  15.642  14.289
55355W        W14649  18.160  28.640   3.834
55356W        W14650  28.097  11.653   1.440
55357W        W14651  13.758   0.779   0.812
55358W        W14652   5.725  18.663   3.650
55359W        W14653  22.604  18.657   4.736
55360W        W14654  28.523  31.571  12.983
55361W        W14655   6.249  30.162   2.360
55362W        W14656  15.651  34.020   0.762
55363W        W14657  10.772  13.217  14.031
55364W        W14658  25.539  28.545   4.260
55365W        W14659  44.320  31.030  11.108
55366W        W14660  44.426   6.355   2.738
55367W        W14661  25.707   6.872  10.983
55368W        W14662  23.044  34.065   4.212
55369W        W14663   7.343  26.531   1.709
55370W        W14664  27.960   9.364  10.488
55371W        W14665  12.629  41.487  12.529
55372W        W14666  14.733  39.411  11.601
55373W        W14667  18.708  37.421  14.488
55374W        W14668  10.265  41.358  12.833
55375W        W14669   3.456  11.802   2.183
55376W        W14670   9.695  40.836   3.825
55377W        W14671  24.993  35.453   3.358
55378W        W14672  26.004  35.483  12.957
55379W        W14673   4.298  36.937  14.851
55380W        W14674  13.243  12.189   2.187
55381W        W14675   7.235  42.347   0.252
55382W        W14676  13.787  26.467   0.359
55383W        W14677  11.230  11.317  13.926
55384W        W14678  21.138  26.529   1.278
55385W        W14679  41.942   0.346  10.062
55386W        W14680   0.301  43.786   1.751
55387W        W14681   1.834  25.977   1.322
55388W        W14682   4.917  14.702  13.387
55389W        W14683  29.495  31.588   3.634
55390W        W14684  30.136  37.434   2.196
55391W        W14685  39.525  29.964   2.240
55392W        W14686  18.144  17.801   3.639
55393W        W14687  16.582  23.194  13.320
55394W        W14688  31.542  41.937   1.896
55395W        W14689  34.511  38.936   4.785
55396W        W14690  26.471  18.569  13.438
55397W        W14691  18.647  34.062   3.162
55398W        W14692   5.904  36.555   3.842
55399W        W14693   3.240  26.575  11.103
55400W        W14694   2.822   7.313  14.946
55401W        W14695  13.128  23.221   0.373
55402W        W14696  21.091  18.573  11.589
55403W        W14697  20.191  33.106   4.132
55404W        W14698  14.764  36.372  12.380
55405W        W14699  11.837  29.105  13.493
55406W        W14700  32.918  25.068  10.472
55407W        W14701   7.207  25.669  12.382
55408W        W14702  44.305  44.302   0.460
55409W        W14703   9.795  29.940  13.927
55410W        W14704  11.300  34.012   9.443
55411W        W14705  39.977   3.253  13.462
55412W        W14706  36.495  28.461  10.468
55413W        W14707  24.616  42.361  13.428
55414W        W14708  12.747  38.349  12.000
55415W        W14709  21.051  14.755   2.742
55416W        W14710   8.710  18.716  11.903
55417W        W14711  33.591   7.311  12.486
55418W        W14712  20.721  11.671  11.469
55419W        W14713   3.294  19.241  10.438
55420W        W14714  29.087  25.565  13.955
55421W        W14715   1.255  25.156   0.937
55422W        W14716   4.784  17.248   1.724
55423W        W14717  24.659   3.222   0.408
55424W        W14718  12.141  23.074   2.228
55425W        W14719  18.136  11.177   3.351
55426W        W14720  41.459  42.362  14.865
55427W        W14721  36.905  17.615   0.303
55428W        W14722  27.670  37.853   1.921
55429W        W14723  27.179  10.638  13.805
55430W        W14724   8.403  13.348  12.904
55431W        W14725   8.246  40.969   2.308
55432W        W14726  15.320  25.094   1.844
55433W        W14727  43.833  20.709  11.925
55434W        W14728  34.963  30.136   1.932
55435W        W14729  30.553  20.718  12.073
55436W        W14730  13.163  20.651   2.305
55437W        W14731  25.579   8.163   2.841
55438W        W14732  18.224  31.154   3.660
55439W        W14733  38.919   8.785   1.755
55440W        W14734   2.366  33.089  12.551
55441W        W14735  32.080  14.157   2.241
55442W        W14736  38.889  39.866   4.828
55443W        W14737  13.230  40.390  11.491
55444W        W14738  35.046  13.749   4.656
55445W        W14739  31.910  34.079   0.920
55446W        W14740  10.685  17.068   2.759
55447W        W14741  18.583  12.615   1.342
55448W        W14742  42.894  23.067  13.494
55449W        W14743  14.653   0.251   1.427
55450W        W14744  29.590  16.266   2.311
55451W        W14745  38.356  10.734   9.543
55452W        W14746  34.418  32.574   1.849
55453W        W14747  25.084  17.705  11.534
55454W        W14748  27.617  32.059  10.481
55455W        W14749   2.723  23.728   9.604
55456W        W14750  32.121  43.013   1.725
55457W        W14751  44.422  44.989   3.715
55458W        W14752  40.400   3.754   1.705
55459W        W14753  28.446  26.558  12.376
55460W        W14754  24.992  31.514  14.916
55461W        W14755  23.091  21.216   3.678
55462W        W14756  28.152   7.310  11.946
55463W        W14757   2.342  11.747  11.955
55464W        W14758  24.529  11.251   4.805
55465W        W14759   1.280  43.925  13.337
55466W        W14760  12.359   5.335   4.226
55467W        W14761  33.482  33.496   3.292
55468W        W14762  26.175  43.883   2.755
55469W        W14763  18.632   8.322  10.418
55470W        W14764  11.752  16.572  12.041
55471W        W14765  37.523  39.463  11.128
55472W        W14766   1.882  11.764  13.542
55473W        W14767  38.370   0.409  11.097
55474W        W14768  13.630   6.757   3.647
55475W        W14769  10.145   0.976  10.479
55476W        W14770  14.162  43.906   2.416
55477W        W14771  24.510  41.297  13.794
55478W        W14772   4.892  17.557  11.483
55479W        W14773   9.302  28.451  14.453
55480W        W14774  44.276  18.230  12.926
55481W        W14775  44.469  14.160  12.978
55482W        W14776  43.841  16.165  13.915
55483W        W14777  18.638  28.155  14.022
55484W        W14778  23.664  31.449  13.856
55485W        W14779   1.277  13.214  11.961
55486W        W14780  32.449  38.545  12.419
55487W        W14781  20.257  42.906   4.227
55488W        W14782  37.969  22.705   0.312
55489W        W14783  29.645  31.604  14.816
55490W        W14784  14.740  33.937   0.263
55491W        W14785   5.926  17.628  14.346
55492W        W14786   1.317  13.236   1.448
55493W        W14787  41.960   5.417   3.299
55494W        W14788  14.713  34.955   3.746
55495W        W14789  30.547   2.390  11.422
55496W        W14790  36.483  41.482  14.488
55497W        W14791   9.381   1.310  14.357
55498W        W14792  24.614  37.467   0.292
55499W        W14793  39.870  38.525   4.132
55500W        W14794  32.963  19.163  10.975
55501W        W14795   7.678  20.213   4.256
55502W        W14796  31.452  41.979   2.187
55503W        W14797  15.111  35.078   3.828
55504W        W14798   1.267  27.127  13.927
55505W        W14799   8.364  13.268   3.248
55506W        W14800  15.787  38.361  10.057
55507W        W14801  28.489  14.753   3.194
55508W        W14802  18.260  27.156  12.537
55509W        W14803   5.804   0.487  13.320
55510W        W14804  28.602  22.553  11.966
55511W        W14805   9.298   1.290  10.066
55512W        W14806   3.430  25.122  12.972
55513W        W14807  35.364  11.182  14.026
55514W        W14808  36.060   6.427   2.858
55515W        W14809  41.440  26.624   3.838
55516W        W14810  23.181  27.524  14.942
55517W        W14811  42.910   5.200  12.945
55518W        W14812   2.271  41.445  11.071
55519W        W14813  28.122  23.510   4.730
55520W        W14814  28.656  12.726   0.881
55521W        W14815  35.971   5.856   3.673
55522W        W14816  19.060   1.817  12.841
55523W        W14817  11.670  18.216  12.891
55524W        W14818  10.238   8.772  12.029
55525W        W14819  26.525  19.693   4.253
55526W        W14820  23.179  27.597   1.703
55527W        W14821  13.161  26.481  11.374
55528W        W14822  39.065  24.717   5.230
55529W        W14823   7.394  44.461  12.988
55530W        W14824  37.862  41.359   4.799
55531W        W14825  31.002  26.525  13.379
55532W        W14826  17.622  11.808   2.257
55533W        W14827  33.540  21.702  12.427
55534W        W14828  31.022  37.403   2.691
55535W        W14829  12.116  18.544  11.927
55536W        W14830   5.306  14.660  13.833
55537W        W14831   5.246   8.881   4.731
55538W        W14832  44.907   1.451   3.256
55539W        W14833   5.865  35.085  11.568
55540W        W14834  20.714  11.191  14.342
55541W        W14835  18.287  13.351  10.576
55542W        W14836  44.465  25.034   2.347
55543W        W14837  15.681  26.677   5.173
55544W        W14838  13.271  12.852  14.871
55545W        W14839   3.306  15.582  11.891
55546W        W14840  35.454  15.577   1.870
55547W        W14841   9.206  11.866  11.600
55548W        W14842  28.447  23.059  13.857
55549W        W14843   9.852  25.604  12.093
55550W        W14844  14.212  16.770   3.285
55551W        W14845  11.638  35.451  10.475
55552W        W14846   6.305  26.483  13.393
55553W        W14847  15.181  26.592  12.045
55554W        W14848  40.505  18.233  12.391
55555W        W14849  18.589  10.351  12.894
55556W        W14850  11.679  13.733  10.599
55557W        W14851  11.130  38.991   1.394
55558W        W14852  13.273   7.218  10.504
55559W        W14853  24.511  21.205  14.903
55560W        W14854  25.548  20.564  11.497
55561W        W14855  12.251   2.745  10.891
55562W        W14856  34.481  15.792  10.896
55563W        W14857  36.005  12.204   1.395
55564W        W14858  31.485   9.722  12.351
55565W        W14859  23.584  34.529   0.355
55566W        W14860  21.133  42.823  11.481
55567W        W14861  24.166  38.549   4.758
55568W        W14862   6.415   7.890  12.529
55569W        W14863  28.670  36.917   5.274
55570W        W14864   9.858  16.111  11.984
55571W        W14865  28.941   8.244  13.952
55572W        W14866  15.120  21.148  12.364
55573W        W14867  14.702  36.925   3.255
55574W        W14868   9.164  40.874  11.457
55575W        W14869  27.481  33.524  13.885
55576W        W14870   6.812  40.858  14.982
55577W        W14871  35.523   1.785  10.973
55578W        W14872  15.324  22.072   0.851
55579W        W14873  37.835   7.189  10.573
55580W        W14874   2.964   3.755  14.819
55581W        W14875   5.193  42.402  14.812
55582W        W14876  42.950  10.831  11.065
55583W        W14877  26.037  29.498   3.277
55584W        W14878  33.432  24.522  10.520
55585W        W14879  20.721  21.706   4.221
55586W        W14880   3.825  33.002  13.908
55587W        W14881  25.219  31.434  11.094
55588W        W14882  26.117  40.899   2.376
55589W        W14883  30.659  38.354   1.280
55590W        W14884   9.386  40.973   4.801
55591W        W14885   5.784   4.737   1.878
55592W        W14886  36.867  42.422  12.922
55593W        W14887  39.911  23.602   2.208
55594W        W14888   0.745  32.024  11.924
55595W        W14889  41.343   1.834   2.253
55596W        W14890  16.128   0.977  11.576
55597W        W14891   1.909   8.888  14.394
55598W        W14892  38.496  13.604   0.316
55599W        W14893  18.630  18.576   4.189
55600W        W14894  11.225  33.067  11.612
55601W        W14895  40.454  32.951   5.235
55602W        W14896  36.887  26.633   4.162
55603W        W14897  42.326  12.807   0.836
55604W        W14898  31.473  21.519  13.922
55605W        W14899  25.066  19.719   0.286
55606W        W14900   8.165  15.262  14.854
55607W        W14901  28.176  32.570   0.830
55608W        W14902   4.930  13.604   1.218
55609W        W14903  26.983  22.209   1.288
55610W        W14904   9.356  23.633  10.585
55611W        W14905  18.081  27.963   4.159
55612W        W14906  38.366  28.967  10.968
55613W        W14907  17.110  21.070   2.188
55614W        W14908  33.070   4.235   3.681
55615W        W14909   6.384  27.477   2.331
55616W        W14910  24.641  35.098   1.739
55617W        W14911  42.503  27.062   3.234
55618W        W14912  31.598   7.815   4.195
55619W        W14913  17.282  29.435  12.861
55620W        W14914  38.500  34.471  13.371
55621W        W14915  35.925   5.692  10.937
55622W        W14916  39.383  35.378  12.826
55623W        W14917  16.599   2.352  11.524
55624W        W14918  10.735  16.261   1.316
55625W        W14919  28.582  39.313  12.090
55626W        W14920  28.499  18.109   1.926
55627W        W14921  29.602  36.987  13.424
55628W        W14922  38.364   1.856   2.680
55629W        W14923  15.607  44.881  13.874
55630W        W14924  29.069  11.215   2.255
55631W        W14925  12.270  40.339  11.579
55632W        W14926  43.331  13.231  14.388
55633W        W14927  25.695  25.094  14.325
55634W        W14928   3.878  31.101   0.738
55635W        W14929  16.245   7.873  12.867
55636W        W14930   1.871  35.603   2.293
55637W        W14931  30.533  10.273   3.804
55638W        W14932  44.364  32.445   4.219
55639W        W14933  35.857   3.828   3.201
55640W        W14934  21.602  43.917   3.327
55641W        W14935   8.166   5.889   0.743
55642W        W14936  19.719   3.294  14.798
55643W        W14937   7.219  40.479   3.172
55644W        W14938  22.999   5.254   3.364
55645W        W14939  12.318   5.786   1.874
55646W        W14940  30.941  22.542   1.328
55647W        W14941  35.405   5.224   1.236
55648W        W14942  25.632  18.551  13.041
55649W        W14943   3.347  36.879   3.809
55650W        W14944  10.739  41.924   1.753
55651W        W14945   6.901  35.368   3.717
55652W        W14946  39.457  36.366   2.374
55653W        W14947  34.433   2.873  11.990
55654W        W14948   7.877  41.509  13.798
55655W        W14949  36.080  25.500   0.843
55656W        W14950  23.136  16.129  11.092
55657W        W14951  16.137   9.824  14.350
55658W        W14952  38.030  27.660  13.047
55659W        W14953  10.738  23.003   0.765
55660W        W14954   0.447  43.920   4.250
55661W        W14955  13.816  38.856  12.566
55662W        W14956  17.697  27.074  11.584
55663W        W14957  34.921  22.120  10.581
55664W        W14958   2.962   7.233  13.495
55665W        W14959   7.871  42.787  11.035
55666W        W14960  33.401  14.233   2.411
55667W        W14961  19.688  15.279   4.785
55668W        W14962   8.231   5.369   3.345
55669W        W14963  29.527  29.923  10.508
55670W        W14964  28.596  43.369  13.416
55671W        W14965  29.975   2.856  12.394
55672W        W14966   0.301  29.453   0.937
55673W        W14967  36.500  33.524   0.756
55674W        W14968  33.566  33.983  12.021
55675W        W14969  39.503  25.494  12.499
55676W        W14970  15.274   0.745  11.405
55677W        W14971  44.281  35.878   1.342
55678W        W14972  19.716  16.568   3.173
55679W        W14973  17.223  30.013  11.556
55680W        W14974  26.068  35.555   4.299
55681W        W14975  17.692   5.710   1.872
55682W        W14976  28.178  12.224   1.805
55683W        W14977  17.655  32.628   4.709
55684W        W14978   3.364  37.865  10.625
55685W        W14979  19.634  23.542  11.529
55686W        W14980  35.020  20.045   4.634
55687W        W14981  31.539  17.231  12.475
55688W        W14982   7.671  34.971   3.168
55689W        W14983   1.808  13.623   2.409
55690W        W14984  30.956  25.186  10.111
55691W        W14985  31.521  10.310  12.069
55692W        W14986  17.081  38.448  10.550
55693W        W14987  12.689  33.515  13.904
55694W        W14988   9.878  27.940   5.154
55695W        W14989  27.173   3.835  14.892
55696W        W14990   8.682   7.387  14.466
55697W        W14991  41.327  41.958  14.480
55698W        W14992  37.012  41.395  11.036
55699W        W14993  44.907  25.996   4.620
55700W        W14994  12.291  37.486   1.331
55701W        W14995  10.878  25.667  11.530
55702W        W14996   3.788  16.666  11.492
55703W        W14997   2.727  37.061  14.022
55704W        W14998  32.419  35.439  11.060
55705W        W14999  13.680  38.059  14.992
55706W        W15000  10.752  32.139   1.847
55707W        W15001  27.999  12.839   4.115
55708W        W15002  31.447  10.328  14.899
55709W        W15003  19.546   6.426  12.855
55710W        W15004  22.124  37.357  11.460
55711W        W15005  30.080  29.162  10.500
55712W        W15006   4.775   8.852  14.953
55713W        W15007   0.400   7.704  12.436
55714W        W15008   0.337  32.587   3.763
55715W        W15009  30.453  41.804  12.460
55716W        W15010  38.442   6.740   1.767
55717W        W15011  15.286  40.419  10.625
55718W        W15012   3.416   1.324  11.056
55719W        W15013  42.976  27.071  12.888
55720W        W15014   7.407  19.208  11.440
55721W        W15015  29.957  37.344   1.757
55722W        W15016  38.401   9.347  13.921
55723W        W15017  10.337  11.151  14.506
55724W        W15018  18.241  42.824   3.301
55725W        W15019  38.448   9.697   4.766
55726W        W15020  13.727  14.777  11.982
55727W        W15021  18.575  44.352  12.900
55728W        W15022   2.855   3.296  13.506
55729W        W15023   8.848  41.400   0.760
55730W        W15024   6.224  10.784   0.316
55731W        W15025  43.785  36.036  12.523
55732W        W15026  19.099   9.169   4.814
55733W        W15027   6.285  28.034  10.122
55734W        W15028  25.964  24.675   3.315
55735W        W15029  30.992  10.647  14.942
55736W        W15030  32.627  12.812  13.935
55737W        W15031   6.758  36.579  14.808
55738W        W15032  18.710   6.838   2.765
55739W        W15033  14.132   8.171   1.420
55740W        W15034  19.130  17.119   4.291
55741W        W15035   5.913  36.426  14.866
55742W        W15036  33.394  20.254  11.409
55743W        W15037  23.693  33.923   1.283
55744W        W15038  25.588  15.107  11.494
55745W        W15039   6.195  37.484  10.065
55746W        W15040   2.789   0.251   4.344
55747W        W15041   5.808   2.796  13.499
55748W        W15042   7.308  27.517   2.350
55749W        W15043  17.654  39.960  14.507
55750W        W15044   9.877  19.648   3.706
55751W        W15045   2.778  14.708  10.931
55752W        W15046  11.773  42.341   2.716
55753W        W15047   3.335  44.846   3.752
55754W        W15048  30.424  41.347  13.457
55755W        W15049  34.970  21.071  11.061
55756W        W15050  32.602  30.949  13.036
55757W        W15051  41.815  42.443   3.799
55758W        W15052   4.803  22.091  13.886
55759W        W15053  37.395  42.403   2.323
55760W        W15054  12.851  36.394   2.870
55761W        W15055  20.072   8.806  14.436
55762W        W15056  27.572  41.291   2.836
55763W        W15057  31.433  12.830  14.331
55764W        W15058  37.393  22.666   5.212
55765W        W15059  26.475  31.454  14.345
55766W        W15060  23.570  37.925  13.791
55767W        W15061  26.674  26.980   0.265
55768W        W15062   8.809  23.000  10.404
55769W        W15063   2.822  15.254  13.830
55770W        W15064  35.387   9.813   4.154
55771W        W15065  35.865  38.418  10.539
55772W        W15066  29.101  13.764  12.974
55773W        W15067  43.853  32.627  11.392
55774W        W15068  36.887  35.052   0.258
55775W        W15069  25.532  38.853  14.914
55776W        W15070  21.702  24.172  13.421
55777W        W15071   7.896  16.129  11.120
55778W        W15072  20.557  16.100   2.825
55779W        W15073  42.370  13.839  14.413
55780W        W15074  37.945   2.424   4.829
55781W        W15075   2.428  23.509  10.541
55782W        W15076  10.792  26.526  11.082
55783W        W15077   6.690  35.949   4.730
55784W        W15078   4.786  34.997   3.682
55785W        W15079  32.596  43.304   3.383
55786W        W15080  25.198  13.338  14.875
55787W        W15081  18.777  37.368  12.441
55788W        W15082  25.195   1.317   2.321
55789W        W15083  43.365  22.012  11.897
55790W        W15084  44.855  43.359  11.069
55791W        W15085  19.611  40.802  14.354
55792W        W15086  25.963   4.938   2.318
55793W        W15087  15.748   2.902   0.788
55794W        W15088  39.352  20.711  11.391
55795W        W15089  42.995  39.408   1.754
55796W        W15090  42.295  11.670   3.708
55797W        W15091  35.392  42.027   4.837
55798W        W15092  42.939  36.972   3.834
55799W        W15093  18.779  32.394   0.282
55800W        W15094  44.787  35.920   3.308
55801W        W15095   2.758  24.546  11.389
55802W        W15096   8.811   1.422  12.359
55803W        W15097  34.890   4.424   2.348
55804W        W15098  24.993  23.621   3.273
55805W        W15099  29.087  23.180   1.301
55806W        W15100  38.461  17.562  12.455
55807W        W15101   1.750  35.528  12.471
55808W        W15102   3.785  14.252  11.954
55809W        W15103  27.628   5.435   3.164
55810W        W15104  40.528  11.669   1.846
55811W        W15105   6.717  39.046  12.020
55812W        W15106  30.640  18.142  13.439
55813W        W15107  21.723  19.232   0.862
55814W        W15108  36.537  19.065  14.460
55815W        W15109  23.049  26.110   0.893
55816W        W15110   3.926  39.541   4.180
55817W        W15111  19.045   1.883  13.403
55818W        W15112  33.547  18.273  14.408
55819W        W15113  25.498  16.167  13.318
55820W        W15114   3.931   0.275   5.082
55821W        W15115   1.834  30.067  13.509
55822W        W15116  13.737  27.488  14.776
55823W        W15117  29.985  10.287  12.881
55824W        W15118   1.898  26.596  14.959
55825W        W15119  25.525  40.440  13.981
55826W        W15120  15.164  16.256   1.292
55827W        W15121  36.924  44.476  11.483
55828W        W15122   0.331  35.390   3.749
55829W        W15123   2.239   9.749   3.322
55830W        W15124   0.325  44.398   3.848
55831W        W15125  20.544   1.268  14.500
55832W        W15126  40.965  39.909   2.350
55833W        W15127  20.734   4.256  10.525
55834W        W15128   0.898  41.984  14.458
55835W        W15129  38.075  44.931   1.368
55836W        W15130  25.008  16.254   2.339
55837W        W15131  22.704  33.907   0.270
55838W        W15132  14.683   4.386   2.835
55839W        W15133  41.034  37.844  12.349
55840W        W15134  15.766  44.843   2.415
55841W        W15135  24.215  38.058  13.915
55842W        W15136  29.639  39.500  12.407
55843W        W15137   4.910   1.813  14.855
55844W        W15138  16.133  12.735  12.375
55845W        W15139  15.227  15.142  10.535
55846W        W15140   9.849  23.591   1.309
55847W        W15141  28.033  32.525  13.859
55848W        W15142  34.593  34.001  11.468
55849W        W15143  44.832  32.908   4.824
55850W        W15144  44.011   6.411  13.892
55851W        W15145   9.787  24.192   3.189
55852W        W15146  21.552  41.425   4.191
55853W        W15147  31.630  13.345   1.419
55854W        W15148  23.544  44.004  11.473
55855W        W15149  31.936  40.329  12.444
55856W        W15150  42.957  36.842   4.704
55857W        W15151  36.543  10.647   2.849
55858W        W15152  19.596  43.515   4.750
55859W        W15153  18.766   5.336  14.770
55860W        W15154  13.193  15.303  12.056
55861W        W15155  21.738  42.324   1.703
55862W        W15156   3.750   9.389   2.236
55863W        W15157  31.645  40.004   2.295
55864W        W15158  36.921  21.675   4.137
55865W        W15159  16.127   6.240  10.968
55866W        W15160  29.639   1.413   3.220
55867W        W15161  17.082  29.544   0.409
55868W        W15162  32.399   5.697  14.813
55869W        W15163  24.055  11.252   2.358
55870W        W15164  28.065  34.104   4.148
55871W        W15165  19.083  36.041  11.477
55872W        W15166   6.399  36.456   1.263
55873W        W15167  44.403  27.947   1.246
55874W        W15168  10.142  26.066  11.860
55875W        W15169  20.270   6.841   3.244
55876W        W15170  44.872  29.123  13.325
55877W        W15171  15.647  22.060   0.295
55878W        W15172  10.384   5.397  14.981
55879W        W15173  43.900  11.236  14.029
55880W        W15174  10.160  21.144  10.576
55881W        W15175  36.437  13.250   3.696
55882W        W15176  34.601  15.697   0.342
55883W        W15177  16.626  40.413   0.260
55884W        W15178   6.762  26.505   9.955
55885W        W15179  43.984   9.847   2.690
55886W        W15180   9.873  15.298  12.087
55887W        W15181  27.050  40.926  10.466
55888W        W15182  31.007   6.241   2.281
55889W        W15183  24.585  11.830   3.175
55890W        W15184  37.859  36.571   0.266
55891W        W15185  32.911   5.874   1.445
55892W        W15186  20.082  32.885   2.384
55893W        W15187  40.038  18.764  14.458
55894W        W15188   4.819  39.427   1.278
55895W        W15189  11.173  34.603   1.269
55896W        W15190   5.295  20.656   0.901
55897W        W15191  38.335  30.996   2.901
55898W        W15192  34.485  31.505   0.404
55899W        W15193  35.002  38.438  12.962
55900W        W15194   7.257  32.020   4.710
55901W        W15195  14.166  42.957  13.893
55902W        W15196  43.339   8.175   1.768
55903W        W15197  27.485  29.560   3.842
55904W        W15198  23.634  25.209   0.842
55905W        W15199  22.118  20.546   3.250
55906W        W15200  17.607  39.365   3.683
55907W        W15201  29.045  43.995  14.005
55908W        W15202  14.743  36.092  13.327
55909W        W15203  13.605  44.481   4.804
55910W        W15204  25.612  44.367  11.597
55911W        W15205  30.922  42.301  12.580
55912W        W15206  11.338  17.625  14.771
55913W        W15207  15.221  36.535  12.348
55914W        W15208  14.313  19.713  11.596
55915W        W15209  36.437  39.933   2.273
55916W        W15210  43.806   0.810  11.871
55917W        W15211  37.533   0.761   1.293
55918W        W15212  40.019   0.293   5.257
55919W        W15213   4.330   5.381  12.847
55920W        W15214  11.695  44.970  13.447
55921W        W15215  27.504  22.129  12.428
55922W        W15216  32.949  33.949   1.371
55923W        W15217  20.590  40.039  12.919
55924W        W15218  43.858  38.943  10.562
55925W        W15219  14.285  22.640   0.355
55926W        W15220  17.752  23.556  11.556
55927W        W15221  29.018  42.512  11.512
55928W        W15222  37.071  38.460   0.360
55929W        W15223   3.855   0.960   3.325
55930W        W15224  40.488  12.331   4.294
55931W        W15225  36.959  12.667   3.670
55932W        W15226  27.137   1.440   4.825
55933W        W15227  39.461  25.162   1.790
55934W        W15228   7.698  33.455  13.801
55935W        W15229  43.965   3.754   4.202
55936W        W15230   2.384  40.490   3.828
55937W        W15231   0.313   6.267  12.866
55938W        W15232  10.292   3.290  14.460
55939W        W15233  39.362  41.484   1.753
55940W        W15234  30.040  10.680   1.912
55941W        W15235  32.526  40.430  13.846
55942W        W15236  12.277  31.561   1.412
55943W        W15237  16.083  38.349  14.928
55944W        W15238  20.251  25.146   4.310
55945W        W15239  33.545  33.112   1.240
55946W        W15240  26.459  29.107   3.748
55947W        W15241  16.093  38.440  10.960
55948W        W15242  37.989   5.693  14.838
55949W        W15243  23.988  22.555  14.487
55950W        W15244  33.053  38.026  14.002
55951W        W15245  39.333  19.187  12.545
55952W        W15246  16.175  37.566   4.253
55953W        W15247  15.635  17.303  13.803
55954W        W15248  21.114   9.296  11.373
55955W        W15249  43.270  36.992  12.406
55956W        W15250  14.201  13.313  11.524
55957W        W15251   3.457  37.357  14.813
55958W        W15252   8.745   7.781  11.932
55959W        W15253  31.592  32.109   1.215
55960W        W15254   5.420  10.755   0.839
55961W        W15255  22.038  23.175  13.804
55962W        W15256  44.365  30.153   2.287
55963W        W15257  15.300  26.065   0.885
55964W        W15258   5.403  25.200  13.340
55965W        W15259  41.314   4.838  12.392
55966W        W15260  38.472  21.174  14.813
55967W        W15261   3.918   9.169  13.399
55968W        W15262  26.671  12.837   3.642
55969W        W15263  13.162  28.102  13.029
55970W        W15264  29.011  13.207  11.545
55971W        W15265  43.292  37.993  11.507
55972W        W15266  21.173  44.285  10.964
55973W        W15267  37.567   3.776   3.188
55974W        W15268  24.079  32.636  14.885
55975W        W15269  32.392  40.434   9.662
55976W        W15270  30.094  22.248  12.343
55977W        W15271  22.223  38.966  14.925
55978W        W15272   4.907  35.065   0.360
55979W        W15273  41.971  35.010   3.358
55980W        W15274  28.636  23.144   0.428
55981W        W15275   0.878   2.384   0.926
55982W        W15276   2.330  27.468   2.684
55983W        W15277  16.661  19.231  11.492
55984W        W15278  18.135  26.501  13.958
55985W        W15279   2.891  19.758  10.930
55986W        W15280  40.454  43.819  10.895
55987W        W15281   3.863   0.400   4.269
55988W        W15282  40.011  17.710   4.622
55989W        W15283  35.893  39.400  11.379
55990W        W15284  35.024  42.399   2.713
55991W        W15285  40.868  40.804  13.452
55992W        W15286   7.284   2.348   0.742
55993W        W15287  15.738   5.890  14.309
55994W        W15288  35.099   6.371   5.721
55995W        W15289  17.097  40.881   2.410
55996W        W15290  36.926  14.323   0.343
55997W        W15291  14.825   2.913   4.768
55998W        W15292  24.010   5.918   2.846
55999W        W15293  40.020   2.266  11.033
56000W        W15294   4.371   8.349   1.358
56001W        W15295  38.428  12.852   1.279
56002W        W15296  22.511   1.363  13.921
56003W        W15297  15.820   5.234  10.975
56004W        W15298  32.600  13.747   4.131
56005W        W15299  26.564  28.597   3.280
56006W        W15300  14.281   3.317   3.237
56007W        W15301   9.719  33.609   2.845
56008W        W15302   9.884  14.215   1.715
56009W        W15303  33.916  19.628   4.305
56010W        W15304   4.226  10.640   3.810
56011W        W15305  40.489   8.333   2.710
56012W        W15306   2.442   0.755  11.375
56013W        W15307   4.718  25.494   1.441
56014W        W15308  25.580  34.566   3.376
56015W        W15309  16.801  37.834  12.003
56016W        W15310  17.735  16.792  12.515
56017W        W15311  43.868  10.830   0.950
56018W        W15312  11.694  11.693   9.960
56019W        W15313  21.549   2.463  11.439
56020W        W15314  35.412  21.179  10.977
56021W        W15315  17.161  41.994   1.299
56022W        W15316  32.015   3.252   3.865
56023W        W15317  25.186   4.329  14.440
56024W        W15318  42.414  25.528  12.831
56025W        W15319  16.772   5.697  14.022
56026W        W15320  41.997  23.988  13.307
56027W        W15321  16.176  26.192   4.801
56028W        W15322  10.828  11.655   0.871
56029W        W15323  27.449  29.074   2.676
56030W        W15324  27.063  38.492   5.109
56031W        W15325  21.705  20.076   1.235
56032W        W15326  35.440  37.457  12.496
56033W        W15327  33.456   4.832   9.922
56034W        W15328   8.376   1.813  13.489
56035W        W15329  15.766  24.503  12.969
56036W        W15330  33.495  12.342   5.167
56037W        W15331  28.525  42.923   1.323
56038W        W15332  29.996  26.509   1.430
56039W        W15333   1.358  25.060  12.873
56040W        W15334  18.277  17.218   0.883
56041W        W15335  43.505  39.010   0.757
56042W        W15336   6.910  27.528   0.884
56043W        W15337  31.409  31.575  12.925
56044W        W15338  30.564  10.263  14.929
56045W        W15339  17.623  43.447   2.380
56046W        W15340   5.698  29.948   2.743
56047W        W15341  20.230   8.316   0.311
56048W        W15342  39.355  24.161   0.453
56049W        W15343  28.038  25.151  14.511
56050W        W15344   1.376  32.899   0.931
56051W        W15345  35.375  39.825   4.211
56052W        W15346  31.427  16.106  14.370
56053W        W15347  32.548   5.409   2.380
56054W        W15348  30.036   7.347   1.925
56055W        W15349   2.797   4.313   2.399
56056W        W15350   4.238  15.613  13.924
56057W        W15351  13.751  21.249  11.569
56058W        W15352  12.755   8.250   1.229
56059W        W15353   3.780  38.532  14.979
56060W        W15354  16.255  22.647   0.929
56061W        W15355  43.835   2.336   0.363
56062W        W15356  25.602  35.888  14.889
56063W        W15357  29.623  18.665  14.823
56064W        W15358  41.993  42.913  13.975
56065W        W15359  12.324  21.037  14.848
56066W        W15360   8.285  18.727   2.206
56067W        W15361  43.956  20.120  13.823
56068W        W15362   8.761  24.581  14.323
56069W        W15363  26.050  17.749   4.750
56070W        W15364  10.747  13.607   3.744
56071W        W15365  35.042  44.993  11.983
56072W        W15366  23.170  31.619   3.340
56073W        W15367  34.972  13.229  14.918
56074W        W15368  39.335  41.361   1.445
56075W        W15369  20.140  31.051   0.907
56076W        W15370  12.818   8.392   4.731
56077W        W15371  28.186   7.226   4.735
56078W        W15372   8.164  18.743   1.901
56079W        W15373   6.351  22.686   5.203
56080W        W15374  16.082   2.943  11.862
56081W        W15375  37.921  12.798   2.243
56082W        W15376   7.237  37.005   0.374
56083W        W15377  26.160  34.379   0.344
56084W        W15378   2.754   3.252   1.788
56085W        W15379   1.403  22.736  10.508
56086W        W15380  43.424  28.477  11.512
56087W        W15381  16.157  24.188  12.542
56088W        W15382   2.839  36.382   3.254
56089W        W15383   6.427  14.669  14.886
56090W        W15384   8.672  17.164  14.406
56091W        W15385  34.581  28.546   0.872
56092W        W15386  34.040  22.079  11.982
56093W        W15387  38.878  26.463  14.006
56094W        W15388  35.019  22.251  12.028
56095W        W15389  30.535  34.882  14.835
56096W        W15390  39.331  44.427  11.124
56097W        W15391   4.360  28.553   1.216
56098W        W15392  15.693  12.798   3.383
56099W        W15393  26.699  19.634   5.173
56100W        W15394  20.206  20.129  11.950
56101W        W15395  38.446   1.946   4.290
56102W        W15396  38.986  36.882   1.806
56103W        W15397  27.948  40.549   2.806
56104W        W15398  11.763   8.288  14.853
56105W        W15399  10.306  20.199   0.804
56106W        W15400  40.867  29.631  10.968
56107W        W15401   4.246  41.956  13.525
56108W        W15402  32.453   7.859  14.459
56109W        W15403  27.654  42.521  11.590
56110W        W15404  39.858  27.957  11.593
56111W        W15405  30.438  34.995   4.826
56112W        W15406  44.351   3.266   3.736
56113W        W15407  20.746  30.461  12.531
56114W        W15408  17.173   3.273   4.685
56115W        W15409  44.421   5.365  12.078
56116W        W15410   8.186  18.663   4.177
56117W        W15411   4.292  10.261   4.223
56118W        W15412  10.680  23.160   4.260
56119W        W15413  40.523  18.719   2.326
56120W        W15414  24.535  29.042   2.812
56121W        W15415  36.924  33.032   0.892
56122W        W15416  12.213   1.908   3.870
56123W        W15417  20.167   7.215  10.108
56124W        W15418  19.242  16.219   0.372
56125W        W15419   7.244   4.447  14.394
56126W        W15420  11.677  23.202  12.375
56127W        W15421  33.887  35.081   4.682
56128W        W15422   2.399  34.396  11.573
56129W        W15423  25.151   1.955   0.852
56130W        W15424  15.258   2.393  14.369
56131W        W15425  24.178  29.511  14.354
56132W        W15426  24.519  11.325   0.780
56133W        W15427   0.338  13.210  12.899
56134W        W15428  44.304  29.159   2.696
56135W        W15429  15.625  19.275   2.664
56136W        W15430   5.401  20.247  12.488
56137W        W15431  40.814  43.949   0.421
56138W        W15432   9.254   8.240   1.371
56139W        W15433  21.721  33.429   3.842
56140W        W15434   9.262  37.492  14.277
56141W        W15435   5.916   7.754  12.837
56142W        W15436  27.535   9.342   2.684
56143W        W15437  44.980  27.145  10.962
56144W        W15438   6.774  44.906  14.817
56145W        W15439  16.711   5.710  11.454
56146W        W15440   3.260  29.166  14.890
56147W        W15441   8.311  14.319  10.940
56148W        W15442   9.887  22.055   0.940
56149W        W15443   3.418  31.954  14.970
56150W        W15444  17.629  43.374  11.521
56151W        W15445   2.454   7.699   3.277
56152W        W15446  20.583  28.016   4.597
56153W        W15447   1.932  40.355  14.507
56154W        W15448  34.549  39.387   1.917
56155W        W15449  16.276  35.935   4.632
56156W        W15450  21.116  44.338  13.794
56157W        W15451  22.099  35.003   2.185
56158W        W15452   6.678  30.574  14.776
56159W        W15453  14.797  31.094  14.376
56160W        W15454  14.202  17.238  13.493
56161W        W15455  15.581  36.954  12.854
56162W        W15456  40.938  41.862   1.891
56163W        W15457  40.370  32.461   0.307
56164W        W15458  16.167  13.225  11.517
56165W        W15459  38.965  37.935  12.572
56166W        W15460  17.241  10.261  11.976
56167W        W15461  41.807   5.343  14.440
56168W        W15462   6.379  16.796  13.391
56169W        W15463  34.383  34.595   9.582
56170W        W15464  23.614   6.293   3.675
56171W        W15465  10.279  38.567   0.438
56172W        W15466  36.528  18.586  14.477
56173W        W15467   8.284   9.711   2.678
56174W        W15468  31.983  11.322  14.482
56175W        W15469  28.096   0.409  13.431
56176W        W15470  39.981  10.360   3.646
56177W        W15471  25.176  33.954   4.242
56178W        W15472  13.241  21.112  14.023
56179W        W15473  38.508  14.138  11.874
56180W        W15474  10.364  10.673   0.829
56181W        W15475  32.443  18.564  11.924
56182W        W15476  24.111   5.238  13.492
56183W        W15477   9.255  17.726   0.765
56184W        W15478   0.835  39.559   2.185
56185W        W15479  42.845  33.474  13.513
56186W        W15480   4.371  32.502   2.728
56187W        W15481  35.394   7.384  13.325
56188W        W15482  19.543   2.772   3.765
56189W        W15483  33.025  11.768  12.930
56190W        W15484  36.976   4.729   4.225
56191W        W15485  42.494  25.176  14.452
56192W        W15486   2.741  41.862   1.347
56193W        W15487  29.117  39.871  14.959
56194W        W15488  29.558  14.104  14.906
56195W        W15489  13.161  16.278   2.885
56196W        W15490   5.290  27.529   0.760
56197W        W15491  13.212  37.924  13.852
56198W        W15492  27.969   8.736   4.777
56199W        W15493   6.776  36.481   0.396
56200W        W15494  32.592  42.005  11.958
56201W        W15495  43.949  20.589   3.334
56202W        W15496  31.037  10.197   2.692
56203W        W15497  42.503  42.937   2.662
56204W        W15498   0.432  42.941  12.013
56205W        W15499  22.086  40.490   3.314
56206W        W15500  35.429   1.882  13.862
56207W        W15501   5.379  24.667  12.426
56208W        W15502   7.346  28.626   2.669
56209W        W15503  18.098  22.067  12.913
56210W        W15504  22.120  11.734   4.183
56211W        W15505  22.633   8.301   3.267
56212W        W15506  23.688   2.466   1.859
56213W        W15507  21.103  15.729  14.395
56214W        W15508  39.917  23.189   1.912
56215W        W15509  20.732   3.789  10.899
56216W        W15510  14.288  23.553  14.470
56217W        W15511   8.194  16.787   4.749
56218W        W15512   7.883  32.944   4.727
56219W        W15513  16.096  25.691   4.598
56220W        W15514  30.936  17.297   5.211
56221W        W15515   2.800  18.746  10.516
56222W        W15516  13.126  29.535   1.803
56223W        W15517  19.234  41.531  11.967
56224W        W15518  13.756   6.795   0.296
56225W        W15519  39.491   3.422   2.230
56226W        W15520  19.064  15.777   2.812
56227W        W15521  34.542   6.868  13.504
56228W        W15522  14.694  43.324   4.620
56229W        W15523   0.400  35.913  13.821
56230W        W15524  44.969  12.322  14.806
56231W        W15525  34.879   9.322  12.981
56232W        W15526  42.435  12.146   0.255
56233W        W15527  21.756  11.819   0.371
56234W        W15528  23.666   7.371   2.743
56235W        W15529   9.681  36.463  13.041
56236W        W15530  30.088  35.412  12.075
56237W        W15531  34.423   2.927  14.348
56238W        W15532  19.098  18.175  14.766
56239W        W15533  14.753  17.713   2.782
56240W        W15534  31.151  24.219   0.442
56241W        W15535  33.543  34.427   2.811
56242W        W15536  35.035  30.969  12.931
56243W        W15537  26.130  25.636  11.916
56244W        W15538  33.128   6.357  13.409
56245W        W15539  11.330  43.806  11.073
56246W        W15540  32.505  33.925   0.734
56247W        W15541  10.659  16.642  14.015
56248W        W15542   2.418  18.296  13.848
56249W        W15543  31.423   6.255  13.906
56250W        W15544  29.014  44.958  10.910
56251W        W15545  39.316  16.592   1.411
56252W        W15546  38.482  23.587  11.960
56253W        W15547  20.163  35.472  14.351
56254W        W15548  23.041  15.594  14.760
56255W        W15549  27.156  10.281   4.162
56256W        W15550  40.323  17.071  12.910
56257W        W15551  34.508  33.105   2.258
56258W        W15552  14.747  11.162  13.036
56259W        W15553   7.753  44.857  11.560
56260W        W15554  39.340  38.917   0.751
56261W        W15555  29.980  33.586   2.891
56262W        W15556  15.670  38.504  12.046
56263W        W15557  34.932  23.626  10.920
56264W        W15558  27.941   8.371   1.389
56265W        W15559  17.649  43.512  11.946
56266W        W15560  33.121  32.107  12.844
56267W        W15561  17.204  41.347  11.976
56268W        W15562  34.416  24.593  14.850
56269W        W15563  32.626  44.454  13.013
56270W        W15564  37.065  15.187   3.367
56271W        W15565   6.387  12.239  13.851
56272W        W15566  31.582  24.647  14.395
56273W        W15567  13.601  41.003   0.951
56274W        W15568   0.839  24.565   3.641
56275W        W15569  44.499  36.999  14.894
56276W        W15570  27.087  34.041   0.849
56277W        W15571  36.543  20.197   4.722
56278W        W15572  34.459  34.089   3.268
56279W        W15573   6.339  26.188   3.835
56280W        W15574  20.610   5.907   0.303
56281W        W15575  20.074   6.184   3.176
56282W        W15576  27.955  10.712   1.383
56283W        W15577   1.963  20.219  12.561
56284W        W15578  37.437   4.837  12.077
56285W        W15579  42.459  25.594  10.633
56286W        W15580  38.373  17.704   3.781
56287W        W15581  20.182  35.949   2.683
56288W        W15582  28.545   4.220   3.629
56289W        W15583   4.916   1.817  14.329
56290W        W15584   5.925  33.883  13.962
56291W        W15585  13.620  11.812   5.253
56292W        W15586  24.171  26.602  10.643
56293W        W15587   8.359   5.391   4.327
56294W        W15588  18.126  27.979   3.253
56295W        W15589   9.251  27.189  12.832
56296W        W15590  12.733  24.630   3.721
56297W        W15591  18.654  23.233  13.899
56298W        W15592  39.030  36.453  14.432
56299W        W15593   3.727   8.858  13.942
56300W        W15594   1.834  25.653   4.787
56301W        W15595  14.137  37.850  14.473
56302W        W15596   7.410  35.375  12.390
56303W        W15597  27.100  18.564   3.675
56304W        W15598  28.987   1.923   1.760
56305W        W15599  39.949   0.884  14.289
56306W        W15600  30.030  14.833   2.260
56307W        W15601  39.015  34.608   1.321
56308W        W15602  12.660  11.763   1.817
56309W        W15603  16.600  20.574  12.515
56310W        W15604  42.342  36.425   2.252
56311W        W15605  33.569  44.894  13.875
56312W        W15606  21.532   1.326  11.513
56313W        W15607  34.936  17.571   0.431
56314W        W15608  13.729  12.265   1.304
56315W        W15609  16.758  15.109   3.697
56316W        W15610   6.824  18.259   9.645
56317W        W15611  11.251   4.779   0.949
56318W        W15612  31.122  33.591  10.037
56319W        W15613  11.144  19.092   0.329
56320W        W15614  44.394  43.355  12.388
56321W        W15615  21.681   9.769  10.560
56322W        W15616  23.631  32.015  14.025
56323W        W15617  37.453  11.272   2.855
56324W        W15618   0.331  29.996  11.069
56325W        W15619  27.953  37.579  10.508
56326W        W15620   7.263  36.415  14.766
56327W        W15621  29.526   6.428  13.529
56328W        W15622  39.406  15.147  11.059
56329W        W15623  37.021  35.040   0.824
56330W        W15624  38.369  42.011   4.654
56331W        W15625  34.534  42.811   0.816
56332W        W15626  14.180  37.488   1.381
56333W        W15627  18.582  41.341  10.619
56334W        W15628  40.469  33.892   1.883
56335W        W15629   6.687  20.767  12.913
56336W        W15630  39.471   0.417  14.911
56337W        W15631   5.860   1.407   2.790
56338W        W15632  30.471  14.106   2.319
56339W        W15633  19.555  22.674   3.316
56340W        W15634  42.828   5.209  11.451
56341W        W15635   1.356   5.885   1.828
56342W        W15636  34.462  36.928   1.235
56343W        W15637  24.016  35.496  13.539
56344W        W15638  10.237   3.937   0.858
56345W        W15639  24.155  41.325  12.920
56346W        W15640   6.748   5.436   2.266
56347W        W15641  28.008  26.976  13.409
56348W        W15642  16.306   2.370   2.289
56349W        W15643  29.166  10.349  10.422
56350W        W15644   7.359   6.772  10.590
56351W        W15645  12.224  32.002   9.963
56352W        W15646  29.582  25.607  13.395
56353W        W15647  17.799  36.440   1.416
56354W        W15648  15.713  38.508  14.959
56355W        W15649  22.094  10.187  13.510
56356W        W15650  21.705   5.728   4.176
56357W        W15651  34.985  19.245  10.425
56358W        W15652  33.922   1.811  13.410
56359W        W15653   7.715  33.124   3.371
56360W        W15654  30.960  44.486  13.334
56361W        W15655   0.379  20.734  14.853
56362W        W15656  34.938  28.467  13.480
56363W        W15657  11.304  32.502  10.603
56364W        W15658  44.922  38.443  10.640
56365W        W15659   9.247  38.985  10.951
56366W        W15660  31.968  11.671  13.446
56367W        W15661  14.624   6.855  14.336
56368W        W15662  21.057  40.839   2.814
56369W        W15663  43.297  43.911   0.947
56370W        W15664  32.585  17.637   0.902
56371W        W15665  26.701  36.358   5.186
56372W        W15666   8.174  28.015   1.791
56373W        W15667  30.416  10.862   4.798
56374W        W15668  32.529  29.123   4.242
56375W        W15669  36.061  44.327  11.945
56376W        W15670  29.436  20.565   3.792
56377W        W15671   5.376   0.330   4.274
56378W        W15672  16.158  42.851   3.196
56379W        W15673  35.432  10.850  12.479
56380W        W15674  40.464  44.912   0.823
56381W        W15675  32.100   5.407   1.429
56382W        W15676  39.836  21.069   1.214
56383W        W15677  31.106  36.010  11.465
56384W        W15678  33.077  33.109  12.483
56385W        W15679   0.439  40.413   4.291
56386W        W15680  41.382  36.964   9.477
56387W        W15681  15.124  43.332  12.088
56388W        W15682   5.399   5.272  14.032
56389W        W15683  29.123  41.413   2.748
56390W        W15684   9.364   5.789  12.914
56391W        W15685  42.387  30.097  14.356
56392W        W15686  30.098   0.969   0.387
56393W        W15687  32.895   3.391  12.944
56394W        W15688   5.266  16.241  10.492
56395W        W15689  40.052  27.106  11.927
56396W        W15690  39.550   0.948   4.770
56397W        W15691   4.922  36.043   3.647
56398W        W15692  43.334  16.648  13.382
56399W        W15693  41.292   2.848   0.822
56400W        W15694  43.300  23.043  13.866
56401W        W15695  21.528  10.250   2.279
56402W        W15696  19.133  17.071   3.331
56403W        W15697  42.389   2.863   1.839
56404W        W15698  40.492   7.809   0.954
56405W        W15699  14.776  18.781   0.809
56406W        W15700  44.959  23.734   0.919
56407W        W15701  41.867  24.176   4.717
56408W        W15702  35.479  25.169   3.333
56409W        W15703  25.468  35.521   0.349
56410W        W15704  41.998  23.718   4.618
56411W        W15705   1.906   1.752   2.247
56412W        W15706  20.764   9.830  11.029
56413W        W15707  35.505  19.671   4.341
56414W        W15708   0.414  22.063  14.366
56415W        W15709  23.642  14.786   1.273
56416W        W15710   7.677  41.349  14.455
56417W        W15711  17.733  39.903   3.855
56418W        W15712  18.097  17.185  14.372
56419W        W15713  44.326  35.558   3.788
56420W        W15714  25.654   5.738  13.878
56421W        W15715  36.465  39.877   3.254
56422W        W15716  13.237   4.734   4.602
56423W        W15717  17.166  29.582   2.773
56424W        W15718  31.491  26.646   3.708
56425W        W15719  10.639   2.821  13.312
56426W        W15720  41.322   7.791  11.462
56427W        W15721  21.647  38.366   3.694
56428W        W15722  21.200  25.467   2.401
56429W        W15723  18.644  20.660   2.796
56430W        W15724   1.947  40.438  14.825
56431W        W15725  17.104  33.518  11.520
56432W        W15726  43.420  12.137   1.877
56433W        W15727  40.818  43.318  13.426
56434W        W15728  25.202  13.817  10.479
56435W        W15729  18.773  29.656   2.400
56436W        W15730  43.478  31.589  13.800
56437W        W15731  26.174  33.558  14.320
56438W        W15732   4.742  43.866  11.082
56439W        W15733  43.276  17.255  10.898
56440W        W15734  27.076  11.187   4.799
56441W        W15735  34.590  19.210  14.348
56442W        W15736  27.626   4.407  11.860
56443W        W15737  16.738   6.370   1.824
56444W        W15738   6.350  16.181  14.967
56445W        W15739  17.560  17.772   1.769
56446W        W15740  22.246  20.624  10.571
56447W        W15741  24.002  14.741   1.213
56448W        W15742   0.323  29.664   3.784
56449W        W15743  43.989  19.166  14.313
56450W        W15744  28.675  18.719   3.308
56451W        W15745   6.216  35.087  11.583
56452W        W15746   5.699   8.703  12.462
56453W        W15747  25.098  40.019   0.756
56454W        W15748  31.105  19.128   4.322
56455W        W15749  40.864  32.625  14.472
56456W        W15750  20.721  18.240  11.376
56457W        W15751  32.015  13.683   3.752
56458W        W15752  41.531  15.261   2.670
56459W        W15753  40.853   1.427  14.938
56460W        W15754  18.190  35.933   4.133
56461W        W15755  42.977  24.033   1.408
56462W        W15756  22.130  37.869   1.401
56463W        W15757  40.955  19.557  14.342
56464W        W15758   9.291  36.925   3.822
56465W        W15759  31.435  26.681   0.296
56466W        W15760  30.641  44.766   3.736
56467W        W15761  17.603  11.366   2.731
56468W        W15762  34.594  30.033   4.248
56469W        W15763  41.815  33.947   9.442
56470W        W15764  44.497  28.042  10.478
56471W        W15765   9.666  43.832   4.236
56472W        W15766  23.113  24.085   4.186
56473W        W15767  28.511  30.946  11.867
56474W        W15768  11.146  12.249  12.487
56475W        W15769   7.778  41.893  13.364
56476W        W15770   0.977  43.349  10.516
56477W        W15771   8.375   6.728  12.899
56478W        W15772   9.801   5.202   3.870
56479W        W15773  44.859  10.258  11.959
56480W        W15774  43.799  26.509  12.919
56481W        W15775  38.825  11.165  14.480
56482W        W15776  42.462  22.514  13.928
56483W        W15777  42.853  41.350  10.537
56484W        W15778  22.185   5.785   1.330
56485W        W15779   6.835  36.529   4.672
56486W        W15780   2.950  39.386  11.484
56487W        W15781   2.243  17.222  10.076
56488W        W15782  16.161  23.028   1.265
56489W        W15783   8.666  10.686   1.265
56490W        W15784   4.842  44.434  13.347
56491W        W15785  21.052  21.538   0.439
56492W        W15786  43.379  10.249  13.383
56493W        W15787   9.344  31.438   3.346
56494W        W15788  34.871  35.035  12.011
56495W        W15789   2.791   2.437   0.249
56496W        W15790  10.819  39.984   3.641
56497W        W15791  36.454  25.704   2.290
56498W        W15792  43.991  24.202  10.893
56499W        W15793  34.398  34.902   3.638
56500W        W15794  26.187  31.507   0.389
56501W        W15795  43.467  22.192   4.303
56502W        W15796  42.297  19.768  12.991
56503W        W15797  44.924  40.384   3.637
56504W        W15798   6.881  34.023   0.825
56505W        W15799   0.985  39.898  10.639
56506W        W15800   8.779  21.739  12.027
56507W        W15801  23.616  16.131  14.484
56508W        W15802  20.234  35.390  12.991
56509W        W15803   5.839  39.855   3.266
56510W        W15804  13.222  39.358  11.504
56511W        W15805  32.107  39.976   2.748
56512W        W15806  44.384  19.600   2.275
56513W        W15807  42.907  16.625   3.812
56514W        W15808   3.373  38.367   0.815
56515W        W15809  10.729  35.085   2.177
56516W        W15810  19.079   7.333   4.325
56517W        W15811  44.425  12.148  10.949
56518W        W15812  20.616  25.135  10.629
56519W        W15813  38.068  42.920  12.873
56520W        W15814  31.092  30.630  13.429
56521W        W15815  15.789  24.139  11.103
56522W        W15816   6.245  11.284  10.587
56523W        W15817  34.998  27.527  14.455
56524W        W15818   4.353  28.004   1.298
56525W        W15819  32.483  23.526  12.057
56526W        W15820  25.491   4.718   4.835
56527W        W15821  42.876  24.095  14.487
56528W        W15822  31.960  19.673   1.268
56529W        W15823  39.964   8.771   0.442
56530W        W15824  44.986  12.810  14.934
56531W        W15825  38.445  32.576  12.032
56532W        W15826  43.349  18.228   2.257
56533W        W15827   2.393  34.928  10.535
56534W        W15828  32.113   8.286  13.821
56535W        W15829  26.192  28.524   3.345
56536W        W15830  41.313  37.061  10.492
56537W        W15831   0.401  19.194  11.536
56538W        W15832  38.067  23.629  13.002
56539W        W15833  12.807  24.171  11.057
56540W        W15834   2.308   3.723  10.938
56541W        W15835  21.159  42.919   0.290
56542W        W15836  42.493  40.048  13.994
56543W        W15837  42.433  40.309   1.411
56544W        W15838  33.899  24.061  12.965
56545W        W15839   6.811  16.222  12.370
56546W        W15840   1.415   4.211  10.017
56547W        W15841   1.481  41.950  13.840
56548W        W15842   0.938   7.339   4.278
56549W        W15843  36.015  10.853   4.639
56550W        W15844  21.223  39.813   4.115
56551W        W15845  24.702   4.913   0.832
56552W        W15846  21.073  41.527  13.855
56553W        W15847  13.844  13.239  13.874
56554W        W15848  44.410  12.809   2.209
56555W        W15849  39.839  34.068  11.535
56556W        W15850   3.306   8.899  14.297
56557W        W15851  35.101   6.232  10.037
56558W        W15852  28.681  20.256   0.404
56559W        W15853  39.420  36.446   2.844
56560W        W15854  15.717  31.115   0.945
56561W        W15855  28.948  31.147  11.110
56562W        W15856  24.662  12.345   2.248
56563W        W15857  18.136  30.004   3.831
56564W        W15858   8.667  36.479  11.431
56565W        W15859   3.729   5.892  10.984
56566W        W15860  12.330  24.502   3.280
56567W        W15861   0.297  38.024  12.435
56568W        W15862  36.354   0.789   4.136
56569W        W15863   4.896   2.394   3.805
56570W        W15864  20.653  37.404   3.346
56571W        W15865  38.055  25.149   0.274
56572W        W15866  38.962  34.556   0.298
56573W        W15867  40.492   5.891   1.798
56574W        W15868   2.314  31.070   0.963
56575W        W15869   7.184  29.162  11.900
56576W        W15870   7.236  33.440   3.689
56577W        W15871  28.610  39.027  10.569
56578W        W15872  33.042  38.935   1.765
56579W        W15873  19.115  42.336   0.936
56580W        W15874  41.886  38.867  11.050
56581W        W15875  40.436  22.715  13.802
56582W        W15876  38.388  21.151  12.393
56583W        W15877  15.595  30.436  12.422
56584W        W15878  26.174   3.246   3.661
56585W        W15879  17.295  17.217   0.415
56586W        W15880   3.812  20.553  14.840
56587W        W15881   7.888   4.943  10.975
56588W        W15882   4.910  18.556  11.465
56589W        W15883  30.561  37.927  12.890
56590W        W15884  32.609  36.446   2.260
56591W        W15885  18.561   2.749  13.507
56592W        W15886  21.037   1.453  13.013
56593W        W15887   8.381  30.579   0.406
56594W        W15888  12.120  10.318  11.486
56595W        W15889  44.918   8.842   5.149
56596W        W15890  20.144  35.595   0.882
56597W        W15891  23.203  18.090  11.387
56598W        W15892  42.472  14.595   2.842
56599W        W15893  38.430  17.799   2.275
56600W        W15894  20.724  11.829  10.024
56601W        W15895  30.939   6.730  13.999
56602W        W15896  43.411  17.079  12.892
56603W        W15897  28.024  43.792   0.748
56604W        W15898  37.560   7.367  13.057
56605W        W15899  17.079   6.812  11.117
56606W        W15900  38.362   9.763  14.841
56607W        W15901  29.666  35.866  13.435
56608W        W15902  15.739  28.983  13.995
56609W        W15903  34.455  13.251  12.475
56610W        W15904  43.436  31.953  14.310
56611W        W15905   9.784  22.678  11.992
56612W        W15906  26.612  24.509  11.570
56613W        W15907  43.823  42.841  11.933
56614W        W15908   0.774  32.484   0.793
56615W        W15909  33.005   5.706   2.875
56616W        W15910  36.031  12.281  14.358
56617W        W15911   9.303  44.836   2.204
56618W        W15912   8.773   0.953  11.863
56619W        W15913  16.258   9.184  11.038
56620W        W15914   6.252  26.652   0.809
56621W        W15915  24.079   4.385   2.828
56622W        W15916  30.924  19.229  12.866
56623W        W15917  17.108  10.873   4.702
56624W        W15918  39.330   6.293  10.613
56625W        W15919   9.339  20.642   0.405
56626W        W15920  24.719  14.167  10.966
56627W        W15921   3.721   5.349   2.278
56628W        W15922   5.383  21.522   0.857
56629W        W15923  31.989  30.529   3.679
56630W        W15924  39.926  29.651   0.341
56631W        W15925   0.392   5.780   2.690
56632W        W15926  34.530  15.662   3.719
56633W        W15927  11.172   4.764  13.431
56634W        W15928  17.775  37.872   1.374
56635W        W15929  12.256   8.221   4.819
56636W        W15930  16.749  22.691   0.476
56637W        W15931  26.162   0.815  14.303
56638W        W15932  38.337  32.502   5.728
56639W        W15933  30.609  26.960   0.921
56640W        W15934  43.824   8.751   2.233
56641W        W15935  32.051  14.624   0.825
56642W        W15936   7.355   2.282  12.355
56643W        W15937   0.768   6.363   1.288
56644W        W15938   4.329  15.313   2.799
56645W        W15939   7.903   4.831  12.421
56646W        W15940  20.547  40.809  13.477
56647W        W15941  34.426   9.857  14.321
56648W        W15942  44.341  41.366   2.402
56649W        W15943  27.078  41.314   0.473
56650W        W15944  41.814  42.777   3.348
56651W        W15945  14.095  24.995  10.993
56652W        W15946  22.713  15.214   3.697
56653W        W15947  38.510  12.789   4.259
56654W        W15948  32.584  38.387   1.233
56655W        W15949  40.921  28.545   2.764
56656W        W15950  22.250  37.426  13.382
56657W        W15951  44.853  32.509   1.707
56658W        W15952   5.879  15.098   1.411
56659W        W15953  21.611  42.798   5.186
56660W        W15954  17.637  42.373  14.836
56661W        W15955  43.910  11.254   4.327
56662W        W15956   6.736  19.088  14.996
56663W        W15957  43.822  28.161  11.553
56664W        W15958  30.632  33.392  10.639
56665W        W15959   8.772   6.421   3.289
56666W        W15960  39.354  37.885  12.577
56667W        W15961  19.148  32.510  14.305
56668W        W15962  27.081  35.491   4.248
56669W        W15963  16.075  10.674   3.743
56670W        W15964   2.791  29.150   1.235
56671W        W15965   9.783  27.513  13.947
56672W        W15966   8.878  21.063   3.253
56673W        W15967  36.854  27.592   4.741
56674W        W15968  40.842  35.038   1.730
56675W        W15969  44.363  44.859  14.348
56676W        W15970  32.444   4.233  10.979
56677W        W15971   2.327  14.829  14.856
56678W        W15972   0.856  13.338  10.553
56679W        W15973  38.856   7.325   1.758
56680W        W15974  26.975   3.419  13.417
56681W        W15975  10.226  21.138   3.664
56682W        W15976  43.837  15.610  12.008
56683W        W15977  25.536  34.909  10.410
56684W        W15978  26.200  32.989  14.889
56685W        W15979   9.246  19.597  14.414
56686W        W15980  20.077  19.283   0.418
56687W        W15981   8.343  18.556   0.761
56688W        W15982  28.480  43.348  14.845
56689W        W15983   0.947  42.417  10.626
56690W        W15984  32.390  28.580  10.939
56691W        W15985  12.165  43.402   3.750
56692W        W15986  15.104  31.421  10.452
56693W        W15987   4.293  44.942   2.207
56694W        W15988  20.204  44.813   2.354
56695W        W15989  20.174  29.969  13.942
56696W        W15990  21.071  18.160   4.227
56697W        W15991   4.381  37.836   1.823
56698W        W15992   5.922  23.103   2.859
56699W        W15993  34.104  26.970   3.162
56700W        W15994  12.693   0.354  12.403
56701W        W15995  19.660  23.557   3.267
56702W        W15996  10.146   4.255  11.427
56703W        W15997  20.526   2.880   3.299
56704W        W15998  25.191  21.032  11.559
56705W        W15999  44.445  32.465  13.392
56706W        W16000   9.270  16.611  14.380
56707W        W16001  16.140  38.855  14.873
56708W        W16002  10.320  38.064   2.832
56709W        W16003   0.757   5.370  14.878
56710W        W16004  10.745  33.116  11.536
56711W        W16005   0.468   8.268   3.377
56712W        W16006  32.102  11.147  13.961
56713W        W16007  21.575  29.424  11.498
56714W        W16008  15.623  34.504  11.871
56715W        W16009  23.569   0.439  11.888
56716W        W16010  16.264   8.841   2.855
56717W        W16011  44.277  18.625  11.916
56718W        W16012  38.926  30.037   3.292
56719W        W16013  38.962  42.784  12.566
56720W        W16014  35.986  36.522   2.684
56721W        W16015  37.907  25.655   3.354
56722W        W16016  39.920  39.885  13.340
56723W        W16017   8.315   0.893   2.770
56724W        W16018  32.917  40.958   1.393
56725W        W16019  44.426  42.996  13.798
56726W        W16020  17.759  35.602  12.370
56727W        W16021  22.556  34.384  12.515
56728W        W16022   7.804  28.960   3.356
56729W        W16023  34.985   0.371   2.702
56730W        W16024  12.203  28.997  11.083
56731W        W16025   9.709   4.267   3.801
56732W        W16026   2.794  30.658  10.593
56733W        W16027  11.758  33.422  12.414
56734W        W16028  15.788  28.612   4.639
56735W        W16029   7.374  43.873   2.225
56736W        W16030   7.190  19.553  10.035
56737W        W16031   4.872  38.560   3.146
56738W        W16032  43.501  28.595  13.976
56739W        W16033   7.239  34.095  12.521
56740W        W16034  34.421  33.944   0.899
56741W        W16035  29.558  43.955  11.071
56742W        W16036  18.285  34.967   0.738
56743W        W16037  25.986  18.143  11.070
56744W        W16038   3.872   2.809   0.914
56745W        W16039   3.341  34.092   1.257
56746W        W16040   3.380  44.348   0.373
56747W        W16041  21.242   1.970  13.847
56748W        W16042  27.639   8.394  11.559
56749W        W16043  13.649   1.355   0.250
56750W        W16044  12.116  31.586  11.089
56751W        W16045  35.512  19.670   2.331
56752W        W16046  33.395  25.608   1.427
56753W        W16047  11.338   3.871  13.366
56754W        W16048   3.898  23.057   1.387
56755W        W16049  19.055  28.151   1.908
56756W        W16050  34.522  44.344  10.542
56757W        W16051  33.613  31.594   1.297
56758W        W16052  24.207  18.765  11.975
56759W        W16053  29.952  19.737  10.507
56760W        W16054   5.776   4.790   3.657
56761W        W16055  21.689  13.660  10.637
56762W        W16056  44.411   9.787   0.804
56763W        W16057  39.321  37.081   0.962
56764W        W16058  31.421  17.585   3.224
56765W        W16059  39.471  11.168  12.376
56766W        W16060  31.496   4.315  13.038
56767W        W16061  44.292  17.220  14.281
56768W        W16062  35.381  19.675   3.324
56769W        W16063  29.607  17.262  11.986
56770W        W16064  19.608  44.930   3.704
56771W        W16065   7.383  16.200  14.906
56772W        W16066  27.603  29.048  13.992
56773W        W16067  19.091  26.180  10.557
56774W        W16068  11.236  42.801  12.400
56775W        W16069  17.074  21.632   2.828
56776W        W16070  16.695  36.421   2.184
56777W        W16071  36.954   8.274   1.934
56778W        W16072   4.269  29.025   1.711
56779W        W16073   4.208   6.272  13.369
56780W        W16074  19.670  41.900   1.887
56781W        W16075  42.440   8.223  10.408
56782W        W16076  23.093  39.057   3.639
56783W        W16077   4.751  34.579  11.123
56784W        W16078  33.084  33.911   3.165
56785W        W16079  10.244  38.073   3.869
56786W        W16080  11.244  15.264   2.179
56787W        W16081  24.536   6.399  10.583
56788W        W16082  23.556  31.902   2.861
56789W        W16083  16.670  27.988  12.006
56790W        W16084  23.127   5.711   1.306
56791W        W16085  12.176  10.871   1.384
56792W        W16086  37.836  42.010   2.391
56793W        W16087   3.376   7.899  11.958
56794W        W16088  14.647   6.771   0.802
56795W        W16089  38.922   6.733  13.941
56796W        W16090  27.539   6.368   4.672
56797W        W16091  38.350  16.705  10.572
56798W        W16092  39.507  32.557  12.981
56799W        W16093  15.185  25.664  11.030
56800W        W16094  10.700  34.057  12.537
56801W        W16095   7.327  21.661   1.450
56802W        W16096  27.598  16.091  12.976
56803W        W16097  20.181  22.251  12.500
56804W        W16098  12.344  27.061  13.802
56805W        W16099  17.689  37.858   3.736
56806W        W16100  22.522  32.435   3.294
56807W        W16101  19.649   8.224   3.842
56808W        W16102   3.858  21.217   3.207
56809W        W16103   5.927   5.270  10.504
56810W        W16104  23.629  19.205   4.144
56811W        W16105  33.436  19.196   4.729
56812W        W16106   9.376  32.410   3.199
56813W        W16107  22.541  33.450   4.308
56814W        W16108   6.385   7.778  11.388
56815W        W16109  21.166  41.834   0.805
56816W        W16110  12.824  42.933  14.448
56817W        W16111  40.485  41.406   4.258
56818W        W16112  42.798  37.562  12.422
56819W        W16113  39.340  35.376   3.353
56820W        W16114   6.398  26.021  13.986
56821W        W16115  15.802   6.865   4.657
56822W        W16116   3.321  29.128   0.750
56823W        W16117   8.328  32.533  13.363
56824W        W16118  14.278  26.120   0.368
56825W        W16119   6.917  42.853   0.866
56826W        W16120  21.138  17.656   3.323
56827W        W16121  41.365   9.162   4.606
56828W        W16122  26.604   3.333  13.884
56829W        W16123   7.815  30.162   0.941
56830W        W16124  32.395   2.322   0.484
56831W        W16125  34.492  40.818  11.483
56832W        W16126  17.295  10.670  12.055
56833W        W16127   0.817  36.871  10.629
56834W        W16128  41.006  32.583   1.710
56835W        W16129  16.227  22.199   4.218
56836W        W16130  16.569  16.165   3.709
56837W        W16131  34.461  14.690  14.870
56838W        W16132  13.234   3.873  13.471
56839W        W16133   0.957  37.396  11.550
56840W        W16134   9.723  40.390   1.410
56841W        W16135  10.751   8.769  13.959
56842W        W16136   3.352  23.707  10.900
56843W        W16137  16.673  27.627  10.975
56844W        W16138  31.910  17.120   2.882
56845W        W16139   0.902  11.669  11.489
56846W        W16140  27.060  36.382   1.372
56847W        W16141  16.786   4.381  12.433
56848W        W16142  22.205   2.351   2.390
56849W        W16143  25.594   3.362   0.962
56850W        W16144  13.263   1.893  14.403
56851W        W16145  36.593   3.443   3.156
56852W        W16146  24.478  23.598  12.531
56853W        W16147   9.816   7.220   1.413
56854W        W16148  11.204  12.645  11.437
56855W        W16149  41.533  29.495   4.779
56856W        W16150   6.914  37.951   3.222
56857W        W16151   5.271  34.052  11.579
56858W        W16152  12.624   5.315  13.806
56859W        W16153  22.126  26.059   2.403
56860W        W16154  29.636  22.154  12.479
56861W        W16155  40.393   3.337   4.742
56862W        W16156  42.978  44.261   2.395
56863W        W16157  29.133  22.585  12.006
56864W        W16158  36.468  12.274   3.218
56865W        W16159  26.166  36.461   3.383
56866W        W16160  16.101  35.368   1.735
56867W        W16161  10.248  27.581   2.286
56868W        W16162   2.440  41.831   1.736
56869W        W16163  34.424  38.051  12.470
56870W        W16164   6.184  25.043  11.968
56871W        W16165  29.931   8.223  13.945
56872W        W16166  14.774  34.923  13.940
56873W        W16167  29.050  28.595  13.956
56874W        W16168   6.722  32.431   2.365
56875W        W16169  33.923  38.408   1.304
56876W        W16170  17.200  12.259   0.786
56877W        W16171  24.583  17.760   3.733
56878W        W16172  22.582   3.412   3.645
56879W        W16173  44.818  34.426  10.978
56880W        W16174  36.080  36.406   0.428
56881W        W16175   9.272  30.545   1.410
56882W        W16176  33.598   3.947   3.303
56883W        W16177  43.418  21.193  11.884
56884W        W16178  43.792  25.635  11.904
56885W        W16179  13.249  18.162   3.153
56886W        W16180   6.708  29.561   0.340
56887W        W16181  44.284   0.760  12.062
56888W        W16182   0.476  31.598   1.912
56889W        W16183  37.936  19.174  11.408
56890W        W16184  16.200  33.078   4.197
56891W        W16185  20.118  25.694   4.353
56892W        W16186  17.101  24.100   1.919
56893W        W16187  28.076   6.922  14.497
56894W        W16188  23.544  44.909   3.307
56895W        W16189   4.932  23.736  12.092
56896W        W16190  27.103  20.235   1.431
56897W        W16191   2.766  15.321   3.365
56898W        W16192  37.056  39.358   4.284
56899W        W16193   2.289  24.991  13.836
56900W        W16194  15.658  38.545  13.499
56901W        W16195   9.344  43.285   3.232
56902W        W16196  25.468  18.280  14.814
56903W        W16197   8.314  35.878   1.842
56904W        W16198  44.348  36.412  11.054
56905W        W16199   5.427  41.942  13.010
56906W        W16200  25.657  19.597   5.103
56907W        W16201   1.848  24.701   3.330
56908W        W16202   5.276  27.122  11.087
56909W        W16203  29.035  16.736   3.309
56910W        W16204   5.342  23.229   1.704
56911W        W16205  24.044  39.317  14.459
56912W        W16206  14.713  18.668  14.909
56913W        W16207  17.165  20.159  11.933
56914W        W16208   2.925  27.643  12.881
56915W        W16209  24.038  44.427   9.982
56916W        W16210   8.291  26.656  10.642
56917W        W16211   2.736   0.464   1.284
56918W        W16212  33.391  13.635   1.339
56919W        W16213  23.088  33.070  13.887
56920W        W16214  31.536  26.563   0.759
56921W        W16215  35.884  28.475  14.948
56922W        W16216  10.353   2.857  11.447
56923W        W16217  39.515  32.047   2.362
56924W        W16218   8.325  23.630  11.960
56925W        W16219  19.549  15.233  14.975
56926W        W16220   9.884  20.642   0.308
56927W        W16221  29.441  20.759   0.356
56928W        W16222  43.384  19.741   1.215
56929W        W16223  35.364  44.499  11.976
56930W        W16224  23.043  18.171  14.785
56931W        W16225  32.048  13.294  11.906
56932W        W16226  39.357  24.065   2.735
56933W        W16227  35.468   6.208  11.977
56934W        W16228  30.444  19.146  11.470
56935W        W16229  27.014  39.354   1.878
56936W        W16230   1.481  25.131   0.345
56937W        W16231  21.519  39.893  14.370
56938W        W16232  14.622  15.720   9.968
56939W        W16233  12.123   5.334  11.033
56940W        W16234  19.585  23.063  10.929
56941W        W16235   0.926  31.910  14.495
56942W        W16236  15.088  13.262   0.271
56943W        W16237  39.355  29.106   3.234
56944W        W16238  34.549  21.531  10.631
56945W        W16239  19.682  12.219   4.180
56946W        W16240   0.394  12.776   3.830
56947W        W16241  36.059   5.833  12.425
56948W        W16242   6.731  28.463   4.255
56949W        W16243  19.222  43.907   0.943
56950W        W16244  28.116  37.557  10.938
56951W        W16245   8.757  29.055  10.474
56952W        W16246   8.899  39.982   3.775
56953W        W16247  41.967   6.919   4.171
56954W        W16248  15.248  27.611   3.723
56955W        W16249  34.003  29.131  11.476
56956W        W16250  23.076  20.645   3.831
56957W        W16251   8.401  11.731  10.444
56958W        W16252   0.294  18.290  11.923
56959W        W16253  40.819  34.055   2.182
56960W        W16254  30.492  12.837  14.369
56961W        W16255  28.471  29.021   0.799
56962W        W16256  20.588  11.717   4.283
56963W        W16257  43.014  28.110   5.314
56964W        W16258   0.265   4.253  10.964
56965W        W16259  12.815   2.757   2.893
56966W        W16260  12.334  29.541   4.606
56967W        W16261  42.517  26.618   4.655
56968W        W16262  40.346  40.394  14.956
56969W        W16263  39.530   3.798   3.655
56970W        W16264  36.392   8.883  10.060
56971W        W16265   8.655   9.220  14.432
56972W        W16266  37.030   4.764  12.377
56973W        W16267   7.369   0.949  13.512
56974W        W16268  31.499  31.522  11.009
56975W        W16269   6.801  26.674   1.285
56976W        W16270  30.617   0.387   2.853
56977W        W16271  41.822  33.037  10.428
56978W        W16272  12.835  23.069  12.939
56979W        W16273  36.927  44.432   1.824
56980W        W16274  24.018  27.648   4.686
56981W        W16275  41.032  27.000  11.098
56982W        W16276  19.086  26.508   2.302
56983W        W16277   4.296  17.647  14.031
56984W        W16278  38.502  22.070  11.050
56985W        W16279   4.215  38.404  12.915
56986W        W16280  31.517  34.095   1.853
56987W        W16281  29.655  41.829   0.783
56988W        W16282   1.741  13.341   1.232
56989W        W16283  13.741  26.529   4.142
56990W        W16284  23.507  19.639   5.170
56991W        W16285  16.186  13.697   2.270
56992W        W16286   4.845  13.179  11.604
56993W        W16287  42.382  42.312  12.498
56994W        W16288   9.692  31.408   1.925
56995W        W16289  38.063  29.553  12.561
56996W        W16290  35.982  29.670  14.396
56997W        W16291  44.309  11.144  10.626
56998W        W16292  26.640  17.727  10.467
56999W        W16293  14.751   1.834  12.054
57000W        W16294  29.151  44.362  13.992
57001W        W16295  34.081  39.414  14.316
57002W        W16296  27.174  30.520   4.832
57003W        W16297   4.286  40.960  10.448
57004W        W16298  26.144  21.739   0.803
57005W        W16299  28.009  28.611  10.428
57006W        W16300  19.159  43.812  12.085
57007W        W16301  26.682  27.076   2.210
57008W        W16302  41.378  38.438   3.853
57009W        W16303   9.790   2.777   0.347
57010W        W16304  12.240  16.672   2.667
57011W        W16305  20.581  14.832  10.417
57012W        W16306  40.427  40.490   5.321
57013W        W16307  20.635  13.606   2.292
57014W        W16308  24.085  39.937  13.927
57015W        W16309  18.230  30.610   0.827
57016W        W16310  20.094  13.618   2.178
57017W        W16311   7.240  34.411  12.930
57018W        W16312  12.125  26.560  13.516
57019W        W16313  32.906  20.685  12.387
57020W        W16314  35.458  12.783  11.455
57021W        W16315  31.643  34.069   4.150
57022W        W16316  10.845  27.507  11.403
57023W        W16317  16.302   3.789  11.054
57024W        W16318  13.336  32.112   3.745
57025W        W16319  36.459  15.588   4.736
57026W        W16320   1.962  33.912   2.253
57027W        W16321   9.659   3.829   2.385
57028W        W16322  13.822  31.572  13.927
57029W        W16323  24.037  25.470  11.611
57030W        W16324   3.370  27.508  10.598
57031W        W16325  22.635  42.803   2.812
57032W        W16326  35.090  14.223   0.273
57033W        W16327  13.118  41.340  10.632
57034W        W16328  25.176  16.273  12.457
57035W        W16329  32.927  44.958  11.420
57036W        W16330  14.811   8.242  12.442
57037W        W16331  37.959  44.953   2.794
57038W        W16332  15.646   4.710  10.437
57039W        W16333  24.983  22.173   3.229
57040W        W16334  37.836  16.787   4.241
57041W        W16335  34.107  30.503   2.350
57042W        W16336  26.587  26.151   0.734
57043W        W16337  10.281   6.238  13.403
57044W        W16338  23.572  34.456  12.056
57045W        W16339   7.212   0.852  11.392
57046W        W16340  37.520   5.840   1.798
57047W        W16341  13.122   6.291  14.032
57048W        W16342  35.359  10.700  13.037
57049W        W16343  32.569  42.844  12.923
57050W        W16344  26.649  36.980   0.450
57051W        W16345  20.029  39.314   3.828
57052W        W16346  14.163  24.566   3.735
57053W        W16347  26.481  14.704   4.231
57054W        W16348   3.819  24.052  12.367
57055W        W16349   4.755   3.441  12.069
57056W        W16350  39.469  20.618   2.209
57057W        W16351  42.017  10.796  14.988
57058W        W16352   3.861   7.325   0.375
57059W        W16353  39.434  30.041   4.176
57060W        W16354  22.070   2.924   4.127
57061W        W16355  33.396  35.547  14.853
57062W        W16356  32.132  15.247   1.721
57063W        W16357   4.227  31.506   1.846
57064W        W16358  41.804   7.892  11.572
57065W        W16359  19.762  20.201  12.457
57066W        W16360  11.807  37.061   0.396
57067W        W16361  12.314  44.279  14.940
57068W        W16362   6.343  24.644  10.974
57069W        W16363   6.854  43.386  12.564
57070W        W16364  16.776  39.878   4.783
57071W        W16365  35.392  42.327   3.698
57072W        W16366  24.612  37.003   4.744
57073W        W16367  14.608  12.708  13.532
57074W        W16368  23.087  12.794  13.351
57075W        W16369  37.515   4.807  13.467
57076W        W16370  39.487  18.694   1.766
57077W        W16371   5.296   7.176   4.344
57078W        W16372  24.658  23.712  13.811
57079W        W16373  26.964  20.707   2.858
57080W        W16374  41.441   2.431  13.456
57081W        W16375  36.004   5.918  14.492
57082W        W16376   5.801  12.766  13.419
57083W        W16377  35.391  42.861   2.861
57084W        W16378  41.374  40.927  11.391
57085W        W16379  25.607   3.935   0.433
57086W        W16380   9.345  26.555  13.886
57087W        W16381   9.221   5.319  11.556
57088W        W16382  29.919  35.033  11.422
57089W        W16383  42.319  26.567   2.851
57090W        W16384  10.295  29.981  12.876
57091W        W16385  39.040  23.702  13.379
57092W        W16386   7.271   2.859  11.069
57093W        W16387   2.233  29.477   0.879
57094W        W16388  22.697  44.301   4.147
57095W        W16389   5.763  34.038   3.631
57096W        W16390  41.995  38.372   4.824
57097W        W16391  22.115  12.145  13.806
57098W        W16392  31.054  35.966  12.994
57099W        W16393  40.348  24.062   2.291
57100W        W16394  23.214  15.611   1.765
57101W        W16395  28.083  18.577   0.453
57102W        W16396  29.670   9.689  12.570
57103W        W16397  41.482  10.168   0.415
57104W        W16398  13.618  38.544  12.380
57105W        W16399  30.961   5.418   1.355
57106W        W16400   5.819  34.527   2.375
57107W        W16401  24.146  28.987   4.254
57108W        W16402  33.913  24.083  10.990
57109W        W16403   5.197   8.782   1.431
57110W        W16404  36.883  37.864   4.773
57111W        W16405  40.514   5.273   0.904
57112W        W16406  44.817  26.686  12.541
57113W        W16407  18.274  42.523  14.327
57114W        W16408   8.373  44.008  13.893
57115W        W16409  26.998  27.084   4.736
57116W        W16410  25.518  24.194   2.710
57117W        W16411   1.331  11.809   0.368
57118W        W16412  37.491  43.773  11.024
57119W        W16413  24.201   3.344   3.327
57120W        W16414   6.903  37.906   4.196
57121W        W16415  11.749  24.066  14.824
57122W        W16416  25.122   7.189   2.837
57123W        W16417  27.008  30.538   4.231
57124W        W16418  12.773  41.795  11.975
57125W        W16419  11.734  37.347   3.714
57126W        W16420  32.117  15.096   1.398
57127W        W16421  21.223  10.283  11.557
57128W        W16422  41.337  31.015  11.483
57129W        W16423  12.286   1.737   2.219
57130W        W16424   1.261   1.758   9.562
57131W        W16425  14.157  15.189  13.864
57132W        W16426  43.858   3.386   2.298
57133W        W16427  38.927   5.270  12.089
57134W        W16428   8.278   4.872   0.793
57135W        W16429  14.612  28.138  11.536
57136W        W16430  11.847  39.483   3.809
57137W        W16431   7.844  42.527   0.246
57138W        W16432  37.009  19.757   4.187
57139W        W16433  23.075  44.975   2.178
57140W        W16434  40.392  24.614   4.252
57141W        W16435  31.019   2.354   2.867
57142W        W16436  26.643  37.930  10.900
57143W        W16437  35.049  27.658   4.306
57144W        W16438  14.167   4.889  11.377
57145W        W16439  31.004  39.863  14.371
57146W        W16440  19.042  29.033   2.202
57147W        W16441  26.168  32.101   4.295
57148W        W16442   5.207  29.606  11.431
57149W        W16443  35.050  44.962   4.666
57150W        W16444  23.186  20.665  11.467
57151W        W16445   4.932  15.255  13.501
57152W        W16446  19.646  12.362   0.417
57153W        W16447   7.832  36.589   2.771
57154W        W16448  19.079   1.827  14.826
57155W        W16449  27.647  26.638   3.305
57156W        W16450  34.085  44.361   3.289
57157W        W16451   0.824  11.158  12.524
57158W        W16452  34.872  11.209   4.744
57159W        W16453  42.287  10.859  12.518
57160W        W16454  17.292  12.280  12.095
57161W        W16455  43.831  27.079   2.742
57162W        W16456  34.524  30.652  12.518
57163W        W16457   6.892  31.612   9.563
57164W        W16458  22.195  23.208   4.821
57165W        W16459   2.305   6.356   2.857
57166W        W16460  31.933  15.308  11.553
57167W        W16461  14.122  38.036  11.047
57168W        W16462  21.636  22.223   4.652
57169W        W16463  14.685  25.013   5.154
57170W        W16464  30.556  44.963   2.669
57171W        W16465  26.666  30.111  13.427
57172W        W16466  37.449  20.686  13.857
57173W        W16467  33.438  10.355  11.129
57174W        W16468   4.373  38.350  13.521
57175W        W16469  29.146   4.291  14.967
57176W        W16470   9.370   9.329   4.206
57177W        W16471  16.199   8.329   4.764
57178W        W16472  20.041  13.233   4.171
57179W        W16473  41.871  35.932   2.673
57180W        W16474   5.786   7.698  11.587
57181W        W16475  41.459   8.747   1.788
57182W        W16476  18.657   6.789  12.526
57183W        W16477  16.801  38.399  10.436
57184W        W16478  27.194  36.537  11.063
57185W        W16479  23.621  33.544   0.771
57186W        W16480   5.907  19.087  10.989
57187W        W16481  28.441   7.391  10.578
57188W        W16482  18.243  11.744   1.817
57189W        W16483  11.149  39.451   4.225
57190W        W16484  27.141  27.553  10.588
57191W        W16485   4.323  10.872  13.944
57192W        W16486   4.721  36.041  14.376
57193W        W16487  23.706  33.111   3.237
57194W        W16488  23.698  15.581   4.349
57195W        W16489  22.669   9.266  11.109
57196W        W16490  33.499  24.038  11.597
57197W        W16491  33.900  30.616   1.854
57198W        W16492   2.402  22.015  12.965
57199W        W16493  16.712  34.413   4.601
57200W        W16494   2.836  42.811   1.873
57201W        W16495  31.585  18.112  11.403
57202W        W16496   2.299   6.745  12.458
57203W        W16497  22.097  22.195   0.286
57204W        W16498  12.688  20.582  14.014
57205W        W16499  19.574  10.672  12.938
57206W        W16500  13.117  23.723   2.347
57207W        W16501  27.608  17.729  11.076
57208W        W16502  26.644   2.906  12.456
57209W        W16503  38.918  38.053   4.753
57210W        W16504  40.918   3.844   2.825
57211W        W16505   0.872  25.705   2.380
57212W        W16506   7.395  40.020  12.402
57213W        W16507   5.323   2.749  11.044
57214W        W16508  16.676  16.176  12.912
57215W        W16509   2.722   4.852   2.371
57216W        W16510  24.008  42.799  13.337
57217W        W16511   1.969  36.394   2.713
57218W        W16512   3.302  13.767  14.948
57219W        W16513  36.065  17.689   1.237
57220W        W16514  41.514  37.345   1.375
57221W        W16515   6.191  33.424  14.902
57222W        W16516  30.443  20.179  11.508
57223W        W16517  32.391  22.634   2.241
57224W        W16518  21.663  29.521  11.091
57225W        W16519  22.729  33.990  13.422
57226W        W16520  44.364  32.620  10.421
57227W        W16521  10.748  17.698   3.762
57228W        W16522  40.351  25.562  11.876
57229W        W16523  43.452  32.134   0.845
57230W        W16524  10.815  32.438  12.956
57231W        W16525   0.404  19.757  11.007
57232W        W16526  43.916   7.417  12.072
57233W        W16527  26.606  11.350  11.455
57234W        W16528  29.654  29.142   2.707
57235W        W16529  10.212   6.831   0.898
57236W        W16530  36.028  42.795   4.202
57237W        W16531  22.649  12.297  11.400
57238W        W16532  39.369  42.309  10.975
57239W        W16533  42.961   5.369   0.340
57240W        W16534   0.295  28.035   4.289
57241W        W16535   7.841  34.982   1.447
57242W        W16536  18.573  35.582   4.682
57243W        W16537  32.392   6.915  14.513
57244W        W16538   7.734  41.397   2.394
57245W        W16539  19.542  14.647  11.396
57246W        W16540  31.597   7.346   4.818
57247W        W16541  41.962   1.826   4.629
57248W        W16542   9.383   1.247  13.529
57249W        W16543  38.424  12.803  13.038
57250W        W16544  41.971  38.868   2.379
57251W        W16545  12.630  33.900   3.379
57252W        W16546  37.012   2.381  11.875
57253W        W16547  13.845   7.402  11.398
57254W        W16548  19.591  17.692   4.164
57255W        W16549  15.744  13.258  11.491
57256W        W16550  11.664  13.207  13.987
57257W        W16551  27.083  44.803  11.372
57258W        W16552  18.689   0.426   4.774
57259W        W16553  39.372  27.981   3.781
57260W        W16554  20.622  32.550  10.537
57261W        W16555  39.541  22.723   4.233
57262W        W16556   0.802  31.472   0.452
57263W        W16557   0.784  31.980   0.372
57264W        W16558  22.221  28.960  12.934
57265W        W16559  21.683   1.393   4.325
57266W        W16560   5.712   1.928  10.569
57267W        W16561   3.453  35.504   2.257
57268W        W16562  21.255   0.413   2.888
57269W        W16563   5.342   5.338  11.921
57270W        W16564  26.559  33.122  11.458
57271W        W16565  18.151  36.503  12.868
57272W        W16566  34.896  42.871  11.419
57273W        W16567  15.161  19.577  13.922
57274W        W16568  26.081  44.365  11.879
57275W        W16569  37.500  18.720   4.614
57276W        W16570  39.911  34.548   1.429
57277W        W16571  42.789  16.675  14.905
57278W        W16572   7.198  40.030  13.839
57279W        W16573   7.724  11.228  13.338
57280W        W16574  17.557  36.870   3.226
57281W        W16575  13.129  32.997  10.508
57282W        W16576   0.473  16.704   0.347
57283W        W16577  36.961  36.955  11.113
57284W        W16578  18.693  25.077   4.257
57285W        W16579  16.285  22.547  12.882
57286W        W16580   7.906  35.488   0.265
57287W        W16581   0.760  26.515  10.420
57288W        W16582  30.509   1.252  12.888
57289W        W16583  13.249  11.646   2.783
57290W        W16584   1.307  38.830  12.547
57291W        W16585  19.665  36.841  13.450
57292W        W16586  21.050   9.254   3.235
57293W        W16587  43.350  18.091  13.367
57294W        W16588  20.079  15.150   2.195
57295W        W16589  42.286   6.237   4.829
57296W        W16590   3.897  17.237  14.424
57297W        W16591  36.053   4.938   3.662
57298W        W16592   6.315   5.205  11.428
57299W        W16593   3.871  15.686   1.338
57300W        W16594   5.702  31.992   0.264
57301W        W16595  32.598  10.644   0.264
57302W        W16596  25.081  32.636  11.523
57303W        W16597  19.175   4.727   2.405
57304W        W16598   6.857  19.716  11.979
57305W        W16599  19.247  40.921   2.298
57306W        W16600  14.154  34.425  10.602
57307W        W16601   3.245  10.356  11.410
57308W        W16602  30.052  35.861  13.528
57309W        W16603  31.582  24.657   2.887
57310W        W16604   0.828  13.134   4.656
57311W        W16605   7.857   4.315  12.375
57312W        W16606  16.102  26.148   4.270
57313W        W16607  41.417  44.945   0.446
57314W        W16608  19.640  41.323   4.120
57315W        W16609   7.303   9.278  13.903
57316W        W16610  40.500   5.897  13.810
57317W        W16611  26.520   8.344  14.290
57318W        W16612  40.503  25.579   1.353
57319W        W16613   1.366   5.200  10.454
57320W        W16614  42.521  32.138   2.842
57321W        W16615   1.788   7.327  11.529
57322W        W16616  24.509   5.754  10.901
57323W        W16617  31.493  16.075   2.247
57324W        W16618  24.046  29.567   2.878
57325W        W16619  24.088  15.644   0.329
57326W        W16620  21.712  32.513  12.348
57327W        W16621   5.770  11.728   2.233
57328W        W16622  43.779  23.593   0.474
57329W        W16623   1.458   0.365  14.004
57330W        W16624  32.974   0.858  12.388
57331W        W16625   9.667  26.547  10.989
57332W        W16626   0.431  25.160   5.225
57333W        W16627  32.919  17.750  14.002
57334W        W16628  15.202  22.245  13.835
57335W        W16629   2.737  41.499  11.439
57336W        W16630   5.359  27.080   2.702
57337W        W16631  16.718  15.714   3.358
57338W        W16632  27.051  37.429   0.447
57339W        W16633   9.209  13.242   2.791
57340W        W16634  14.163  18.156  12.078
57341W        W16635  37.071  18.723  10.420
57342W        W16636  43.939  26.616  13.346
57343W        W16637  17.077  35.507  11.500
57344W        W16638  19.679  26.173  12.373
57345W        W16639  11.697  10.852   3.333
57346W        W16640  14.099  44.838  14.512
57347W        W16641  25.978  10.265  11.490
57348W        W16642   7.791  32.084   4.260
57349W        W16643  30.608  38.856   4.237
57350W        W16644  29.653  30.055   2.403
57351W        W16645  14.290  26.627   0.271
57352W        W16646  10.262  19.716  14.404
57353W        W16647  30.053  39.847   3.187
57354W        W16648  25.184   0.836   0.429
57355W        W16649  16.599  11.151  14.468
57356W        W16650   1.319   1.447  13.424
57357W        W16651  36.463  42.943   1.728
57358W        W16652  38.845  43.310   2.731
57359W        W16653  10.747   8.829   3.282
57360W        W16654  22.051  11.674  13.853
57361W        W16655  19.754  11.208  12.392
57362W        W16656   7.747  30.421  13.871
57363W        W16657  43.368   5.376   4.298
57364W        W16658   5.794  17.794  11.585
57365W        W16659  33.882  39.331  11.410
57366W        W16660   1.835  20.057  10.574
57367W        W16661  41.392  26.128  14.945
57368W        W16662  41.512  36.901  14.830
57369W        W16663  26.688  36.592  11.072
57370W        W16664   4.866   3.814  12.913
57371W        W16665  18.707  16.789  14.326
57372W        W16666  25.610  40.464   0.761
57373W        W16667   1.762  17.172   1.845
57374W        W16668  44.466   4.904  12.082
57375W        W16669  30.486   4.222  12.412
57376W        W16670   3.929  37.975   3.209
57377W        W16671  34.969  28.651  12.392
57378W        W16672   0.467  22.554  12.441
57379W        W16673  12.290  32.957  13.524
57380W        W16674   3.899   9.391  14.383
57381W        W16675  38.454  27.071   1.822
57382W        W16676   4.303   0.985   1.373
57383W        W16677   4.746   6.894  14.013
57384W        W16678  15.083  23.188  11.871
57385W        W16679  43.765  11.312  11.424
57386W        W16680  17.685  13.663   2.852
57387W        W16681   8.712  29.925  12.079
57388W        W16682  24.514  39.326   0.875
57389W        W16683  19.549   8.828  14.963
57390W        W16684  24.627  25.624   3.332
57391W        W16685  41.321  20.152  10.429
57392W        W16686   6.738  24.007   0.287
57393W        W16687  25.072  26.957   2.203
57394W        W16688   2.235  21.038  11.454
57395W        W16689  41.851   2.313   0.961
57396W        W16690  15.823  42.833   1.268
57397W        W16691  34.869  27.053  13.867
57398W        W16692  43.271  30.152   4.300
57399W        W16693  42.398  28.997  13.363
57400W        W16694  33.474   6.916  12.955
57401W        W16695  25.101  29.979   0.426
57402W        W16696  20.044   8.778  13.524
57403W        W16697  16.265  20.254  14.937
57404W        W16698  36.497  22.187   2.686
57405W        W16699  32.576   1.829  12.435
57406W        W16700  40.937  25.080   4.174
57407W        W16701  23.658  37.037  13.872
57408W        W16702   0.263   6.384   4.738
57409W        W16703  10.815  11.647  12.832
57410W        W16704  33.603  24.622   4.187
57411W        W16705  32.072  20.642  10.002
57412W        W16706   1.481  37.022   0.435
57413W        W16707   9.353  29.664  12.045
57414W        W16708  32.603   1.387  13.465
57415W        W16709  18.289  11.355  13.478
57416W        W16710  20.579  40.881  12.424
57417W        W16711  12.221   0.256  14.950
57418W        W16712  35.053  32.119   0.818
57419W        W16713  23.705  29.023   4.782
57420W        W16714  27.019  10.729   0.935
57421W        W16715  39.537  31.562   0.424
57422W        W16716   5.845  36.957   1.304
57423W        W16717  44.266  26.975  13.828
57424W        W16718  22.139  34.971   0.912
57425W        W16719  44.445  11.781   0.923
57426W        W16720   8.336  15.274   2.892
57427W        W16721  39.469  40.893   4.114
57428W        W16722   1.834  15.670   0.760
57429W        W16723  16.186  30.110   0.340
57430W        W16724   4.715  42.491   0.470
57431W        W16725  42.428  36.892  13.822
57432W        W16726  21.630  32.616  11.964
57433W        W16727  12.226  42.810  11.040
57434W        W16728   7.756  22.690   4.320
57435W        W16729  32.921  20.058   2.805
57436W        W16730  17.601  12.843   2.833
57437W        W16731  39.386  33.546  13.879
57438W        W16732  21.085  19.560  14.499
57439W        W16733  23.731   7.304   3.229
57440W        W16734  25.499  38.066  14.870
57441W        W16735  42.801  20.640   4.344
57442W        W16736  33.599  10.752  11.500
57443W        W16737  25.686  26.621   4.716
57444W        W16738  10.306  39.523   2.696
57445W        W16739   4.289  10.848  11.025
57446W        W16740  18.680  40.856  13.849
57447W        W16741  32.452  22.222  12.966
57448W        W16742  31.410  15.602   3.868
57449W        W16743  42.979   6.793  13.875
57450W        W16744   4.902   7.287   3.183
57451W        W16745  29.049  38.921  13.951
57452W        W16746  12.726  22.155  14.350
57453W        W16747  26.163  38.355  10.613
57454W        W16748  32.566   8.722  14.388
57455W        W16749  39.471  21.046   3.654
57456W        W16750   2.911   6.420   2.315
57457W        W16751  26.093  22.612   1.370
57458W        W16752  38.932  16.612   0.905
57459W        W16753  15.306   9.351  11.534
57460W        W16754  39.998  16.697   4.174
57461W        W16755  11.150   0.916   2.186
57462W        W16756  14.311  30.992   4.820
57463W        W16757   8.385  36.975   4.838
57464W        W16758   0.827  22.606   4.651
57465W        W16759  34.032  17.188  10.517
57466W        W16760  13.208  21.115  13.501
57467W        W16761  43.389   6.369   4.156
57468W        W16762  11.838  14.258  10.058
57469W        W16763   8.324  35.923  10.929
57470W        W16764   3.223   4.849   0.407
57471W        W16765  39.963  30.566   2.817
57472W        W16766   6.420  27.562  13.487
57473W        W16767  25.646   5.712  14.503
57474W        W16768  12.676  31.020   1.731
57475W        W16769  43.808  37.392   1.914
57476W        W16770   3.290   7.257   2.215
57477W        W16771  12.132  22.075   4.158
57478W        W16772  33.524  20.171   1.349
57479W        W16773  40.800  23.182   2.831
57480W        W16774  28.173   8.696   0.895
57481W        W16775  35.375  22.237  12.087
57482W        W16776  44.286  29.010   1.239
57483W        W16777  13.725  21.513   1.817
57484W        W16778  27.175  24.078   4.300
57485W        W16779  24.989  20.102  11.522
57486W        W16780  23.129  24.525  11.043
57487W        W16781   0.439  21.089   1.347
57488W        W16782  33.094  16.637   0.751
57489W        W16783  37.062  13.781   3.640
57490W        W16784   2.840   1.898   1.391
57491W        W16785  22.621  26.692   3.660
57492W        W16786  40.013  15.731   1.786
57493W        W16787  20.667  30.964   1.925
57494W        W16788  16.590  28.533   0.438
57495W        W16789  21.035  39.022  10.543
57496W        W16790   9.156  21.562   9.921
57497W        W16791  27.055   8.166  10.892
57498W        W16792  12.770  10.668  13.891
57499W        W16793  12.856  17.565  14.284
57500W        W16794  31.069  36.517   4.149
57501W        W16795  15.289  20.095   2.670
57502W        W16796  32.432   3.324  11.500
57503W        W16797  42.464  13.350  13.386
57504W        W16798   7.268  26.463   0.828
57505W        W16799  40.005   7.402   4.792
57506W        W16800  15.254  16.569   2.662
57507W        W16801  40.992  33.455  13.325
57508W        W16802   2.329  20.094   4.163
57509W        W16803  30.586  21.668   3.223
57510W        W16804  34.111  30.492   4.627
57511W        W16805  16.150  12.696   4.315
57512W        W16806  11.243  43.950   3.674
57513W        W16807  23.989   9.200   2.356
57514W        W16808   9.796  37.543  12.875
57515W        W16809  23.621  31.004   3.670
57516W        W16810  37.962  17.682   0.250
57517W        W16811  35.476   1.426  10.573
57518W        W16812  40.928  44.440   0.279
57519W        W16813   7.325  29.510  11.373
57520W        W16814  20.684  28.083  12.860
57521W        W16815  21.228  11.824  10.448
57522W        W16816  31.971  13.220  12.407
57523W        W16817   5.227  31.073   0.801
57524W        W16818   0.334  23.501   0.324
57525W        W16819  34.068  42.320  13.016
57526W        W16820  28.660  23.089  14.287
57527W        W16821   5.284  15.242  14.338
57528W        W16822  24.490   1.977  11.054
57529W        W16823  14.299  17.239   3.254
57530W        W16824  44.755  27.449   0.812
57531W        W16825   0.379  13.207   3.370
57532W        W16826  42.871  29.528  14.032
57533W        W16827   2.381   8.722   5.174
57534W        W16828   4.402  42.429  11.433
57535W        W16829  37.370   3.738  14.462
57536W        W16830   7.818  11.182  11.562
57537W        W16831  41.017  38.927  12.049
57538W        W16832   3.255  13.711  11.421
57539W        W16833  15.728  20.736  12.825
57540W        W16834  32.526   7.309   3.834
57541W        W16835  11.680  43.491  13.467
57542W        W16836  18.180  41.017  13.822
57543W        W16837  44.797  44.991  10.615
57544W        W16838  37.422  38.964   1.755
57545W        W16839   5.325  19.043  12.373
57546W        W16840   4.320   9.222  14.969
57547W        W16841  17.563  42.465   2.875
57548W        W16842  18.099   5.814  13.061
57549W        W16843   0.494  40.544   3.674
57550W        W16844  14.158  34.939   3.363
57551W        W16845  19.211   1.783   0.829
57552W        W16846  19.075  42.425  14.800
57553W        W16847  18.237  31.035  10.555
57554W        W16848  30.577  26.602  13.464
57555W        W16849  20.539  27.195  11.877
57556W        W16850  30.555  43.789   2.887
57557W        W16851   2.429  31.464   2.237
57558W        W16852  21.678   0.345   1.814
57559W        W16853  32.565  42.023  13.035
57560W        W16854  11.757   5.901  13.981
57561W        W16855  26.650  17.303  11.926
57562W        W16856  20.166  25.714  10.497
57563W        W16857  34.504  43.020  14.300
57564W        W16858  31.571  20.250   3.197
57565W        W16859   9.271  43.891   1.393
57566W        W16860  37.503  41.835   0.426
57567W        W16861  36.465   3.274  13.795
57568W        W16862  41.396  32.509  14.882
57569W        W16863  33.568  23.033   2.776
57570W        W16864  11.281   3.791   4.786
57571W        W16865  15.686   8.897   1.423
57572W        W16866  20.552  39.516  10.461
57573W        W16867  15.172  44.985  14.793
57574W        W16868  26.551  30.477   3.295
57575W        W16869  16.244   3.795  13.477
57576W        W16870   0.774  40.518  14.775
57577W        W16871   9.183  32.482   5.240
57578W        W16872  14.766  43.890  11.091
57579W        W16873   8.768  21.218  13.922
57580W        W16874  16.636  38.489   0.483
57581W        W16875  29.611  42.803  11.483
57582W        W16876  20.210  36.472   0.286
57583W        W16877  35.572  17.732  11.013
57584W        W16878  37.926   4.209  14.355
57585W        W16879  42.342   6.909  12.965
57586W        W16880  15.634  40.946   0.881
57587W        W16881   7.227   2.819   1.788
57588W        W16882  34.518  27.559  11.488
57589W        W16883  37.900  30.952   4.783
57590W        W16884   4.876   5.753  13.325
57591W        W16885  15.158  17.709  12.352
57592W        W16886  17.279  15.771   0.877
57593W        W16887  17.215  26.025   4.617
57594W        W16888  27.515  41.528   3.727
57595W        W16889  32.951  24.104  11.402
57596W        W16890  17.085  40.020  10.011
57597W        W16891  15.729  27.951   3.175
57598W        W16892  16.178  18.137   1.781
57599W        W16893  13.837  24.121   0.965
57600W        W16894   5.243  27.011   0.780
57601W        W16895  33.017  17.572  11.971
57602W        W16896  32.401  37.889   9.590
57603W        W16897  21.111  38.886   4.133
57604W        W16898   9.356  22.059  11.383
57605W        W16899  21.620  31.424   1.212
57606W        W16900   3.775  44.878  12.414
57607W        W16901   8.318  37.040  13.413
57608W        W16902  43.800  33.116  12.494
57609W        W16903  18.092   3.851  11.881
57610W        W16904  20.038  42.485   3.299
57611W        W16905  31.634  35.046   2.328
57612W        W16906  23.693   8.769   3.743
57613W        W16907   2.384  34.069   0.745
57614W        W16908  41.934  43.375  10.914
57615W        W16909  36.034  30.945  13.457
57616W        W16910  18.252  42.430   3.797
57617W        W16911  13.182  19.093   0.746
57618W        W16912  37.459  34.560   0.398
57619W        W16913  40.029  25.991   3.718
57620W        W16914  27.022  12.829  12.948
57621W        W16915   3.827  17.700   3.836
57622W        W16916   2.376  11.359  14.297
57623W        W16917  35.018  43.799   2.184
57624W        W16918   6.881   5.928  14.363
57625W        W16919  37.968   7.363  14.948
57626W        W16920  23.026  14.774  13.309
57627W        W16921  11.632  37.340  14.812
57628W        W16922   6.202  20.560   1.899
57629W        W16923   0.852  29.924   3.658
57630W        W16924  42.317  14.733   3.843
57631W        W16925  39.921  12.669   3.310
57632W        W16926  37.937  10.238  12.448
57633W        W16927  34.453  15.797   0.900
57634W        W16928  42.521   8.683  13.415
57635W        W16929   2.830  20.599   3.323
57636W        W16930   3.320  41.819   5.267
57637W        W16931   9.887   9.189  10.575
57638W        W16932   6.221   3.274  13.872
57639W        W16933  43.449  11.642  10.160
57640W        W16934   1.778   3.301   1.291
57641W        W16935   7.736  38.399   1.259
57642W        W16936   5.702   9.856   3.148
57643W        W16937  10.791   4.210  11.414
57644W        W16938  42.808  41.867  10.592
57645W        W16939   7.890  31.531   2.333
57646W        W16940   6.828  42.842  10.092
57647W        W16941  10.858  10.766  11.877
57648W        W16942  36.580  25.993   3.667
57649W        W16943  17.575   9.317  13.892
57650W        W16944  39.852  13.818   2.815
57651W        W16945   7.386  40.905   2.786
57652W        W16946  15.669  11.284   9.456
57653W        W16947  27.603  39.809   0.787
57654W        W16948  34.116  14.097  11.023
57655W        W16949   7.756  23.562   3.225
57656W        W16950   2.966  16.250  12.997
57657W        W16951  19.069  27.000   2.699
57658W        W16952  33.405  12.805   2.836
57659W        W16953  25.151  17.797  12.070
57660W        W16954  20.192  22.144   1.703
57661W        W16955   4.856  39.029   5.273
57662W        W16956  30.926  12.783   0.334
57663W        W16957  36.584   7.191   1.411
57664W        W16958   7.409  17.556  12.972
57665W        W16959  41.355  22.549  11.025
57666W        W16960  21.730  18.713  10.481
57667W        W16961   7.233  43.873   5.094
57668W        W16962  26.611   9.680   0.455
57669W        W16963  18.157  25.476  11.862
57670W        W16964  33.990  11.832  13.013
57671W        W16965  36.999  33.395  14.305
57672W        W16966  15.179  12.334   2.206
57673W        W16967  34.567  11.801   2.770
57674W        W16968  16.152  19.633   3.253
57675W        W16969  13.302  38.463  12.044
57676W        W16970  33.030  33.584  14.896
57677W        W16971   4.733  14.748   2.395
57678W        W16972  17.742  14.635  14.293
57679W        W16973   0.413  24.011  11.905
57680W        W16974  25.967  44.941   2.769
57681W        W16975   4.902  13.673   3.152
57682W        W16976  44.457  31.602  14.895
57683W        W16977   6.832  19.547  11.557
57684W        W16978   5.408   6.856  13.482
57685W        W16979  25.708  26.677  12.051
57686W        W16980  17.732  16.226  10.639
57687W        W16981   2.280  38.428   2.327
57688W        W16982  40.824  12.807  14.017
57689W        W16983   4.876   1.392  14.863
57690W        W16984  11.868  15.778   1.374
57691W        W16985  37.939   1.881   1.226
57692W        W16986  30.040  37.942  12.438
57693W        W16987  10.314  17.232  12.571
57694W        W16988  30.085   0.480   0.401
57695W        W16989  17.637  38.432   0.838
57696W        W16990  43.780  21.171  10.630
57697W        W16991  17.164  43.331  14.858
57698W        W16992  34.396   0.804   0.936
57699W        W16993  31.149  23.191  10.637
57700W        W16994  12.224  12.194  13.895
57701W        W16995   9.220  24.700   0.462
57702W        W16996  36.053  30.947   4.686
57703W        W16997  15.199  15.193   1.856
57704W        W16998  18.716  11.128  11.966
57705W        W16999  29.155   1.976   2.902
57706W        W17000  39.933  35.381   5.136
57707W        W17001  42.305   4.276   0.848
57708W        W17002   0.433  38.423  12.993
57709W        W17003  23.015  17.705   2.360
57710W        W17004   9.385   5.301  12.413
57711W        W17005  33.515  31.113  14.839
57712W        W17006  31.525  30.508   2.811
57713W        W17007   5.312  28.145   0.358
57714W        W17008   1.337   6.219   0.471
57715W        W17009   6.806   7.355   0.282
57716W        W17010  20.613  12.124  10.596
57717W        W17011   6.786  40.331   4.130
57718W        W17012   8.863   3.413  13.869
57719W        W17013  19.195  23.597  12.917
57720W        W17014  25.179  12.143   5.156
57721W        W17015  10.302  15.641   1.722
57722W        W17016   2.818   1.305   1.898
57723W        W17017   3.284  23.607   0.274
57724W        W17018  29.116  19.615   4.132
57725W        W17019  13.760  32.107   3.652
57726W        W17020  10.641  22.134   1.915
57727W        W17021  29.464  13.280   4.696
57728W        W17022  43.475  35.096   0.790
57729W        W17023  31.061  40.503  13.907
57730W        W17024  19.158  41.395   0.792
57731W        W17025  20.167  31.596  12.003
57732W        W17026   7.281  13.739   4.670
57733W        W17027  30.601  29.612  14.310
57734W        W17028  12.283  21.621  13.384
57735W        W17029  34.980  18.210   2.751
57736W        W17030  16.747  41.468   2.332
57737W        W17031  28.138   7.877   3.197
57738W        W17032   1.829  28.087   2.270
57739W        W17033  20.084  22.094   5.719
57740W        W17034  32.022  35.051  10.523
57741W        W17035  32.519  41.342   2.763
57742W        W17036  27.645  11.281   4.270
57743W        W17037  37.448  29.589   3.825
57744W        W17038  13.289  34.451  14.982
57745W        W17039  15.627  37.060   1.285
57746W        W17040  34.944  38.441   1.744
57747W        W17041  44.446  37.554  14.338
57748W        W17042  31.439  27.139  11.957
57749W        W17043  20.187  15.795   0.286
57750W        W17044  44.314  20.767  12.540
57751W        W17045   9.657   7.788   1.282
57752W        W17046  29.033  24.698  14.893
57753W        W17047   1.815  14.708   2.776
57754W        W17048   5.882  44.505  10.940
57755W        W17049   1.266   8.223   4.194
57756W        W17050  36.920   0.248   4.114
57757W        W17051  21.085  37.014  10.586
57758W        W17052  28.490  23.129  10.449
57759W        W17053  24.712  26.534  14.032
57760W        W17054  32.447   9.729   1.447
57761W        W17055  17.584  30.473  13.307
57762W        W17056  25.570   5.255  14.387
57763W        W17057  34.472   5.903  14.509
57764W        W17058  32.999   1.959  12.824
57765W        W17059  27.169   1.949   4.234
57766W        W17060  22.249  27.505  11.491
57767W        W17061   2.301  36.847   4.184
57768W        W17062  17.614   3.717   0.898
57769W        W17063  36.376   0.907  11.882
57770W        W17064  20.206  31.128   4.311
57771W        W17065  33.547   5.315  14.006
57772W        W17066  28.515  10.286  12.832
57773W        W17067  40.360  31.986  11.921
57774W        W17068  21.254   2.321  14.359
57775W        W17069   9.253  19.160  11.868
57776W        W17070  18.102  15.325   2.874
57777W        W17071  33.081  11.221  11.441
57778W        W17072  14.151  32.579   4.145
57779W        W17073  11.141  13.725  14.861
57780W        W17074   4.829   4.876   4.200
57781W        W17075  28.125  32.091  10.001
57782W        W17076  38.993  28.449   3.387
57783W        W17077  11.358  41.890   2.814
57784W        W17078  32.994  41.452   4.308
57785W        W17079  18.242  22.006  13.835
57786W        W17080  17.288  21.644   4.215
57787W        W17081  17.281  14.625   0.397
57788W        W17082  32.594   9.182  14.001
57789W        W17083  36.917  24.631   4.838
57790W        W17084  35.909   1.458   3.288
57791W        W17085  17.067   6.306   5.113
57792W        W17086  43.016  39.011   2.247
57793W        W17087  13.623  11.682  12.041
57794W        W17088  26.116  26.205   0.417
57795W        W17089  11.752  20.526   2.732
57796W        W17090   4.405   5.749   3.747
57797W        W17091   0.459  36.040  13.493
57798W        W17092  18.077   0.340   3.352
57799W        W17093   0.860   5.274   1.356
57800W        W17094  37.900  37.870  14.466
57801W        W17095  28.172  40.514   9.997
57802W        W17096  22.625  23.210  11.605
57803W        W17097  17.623  10.291  14.958
57804W        W17098  19.652  31.986  14.987
57805W        W17099  29.132  22.037   4.819
57806W        W17100  28.675  38.049   2.823
57807W        W17101  29.161  16.114  10.930
57808W        W17102   7.346   5.296   0.732
57809W        W17103  17.230  10.344  12.480
57810W        W17104  11.688  43.890   4.184
57811W        W17105  18.588   5.404  12.053
57812W        W17106  27.642   9.700  13.880
57813W        W17107  31.533  37.425  13.392
57814W        W17108  28.639  21.252  12.484
57815W        W17109  30.625  13.251   4.673
57816W        W17110   0.814  13.635  13.315
57817W        W17111  10.373  41.532   4.231
57818W        W17112  42.779  16.697  11.089
57819W        W17113  14.260  42.395   0.909
57820W        W17114  44.422  35.109  12.530
57821W        W17115  36.873  39.547   1.439
57822W        W17116  18.778  17.133   4.726
57823W        W17117  23.531  33.960   4.276
57824W        W17118   6.804  24.725  12.070
57825W        W17119  32.455  20.678  11.396
57826W        W17120  23.015  32.507   4.225
57827W        W17121  17.146   5.777  14.948
57828W        W17122  33.004  27.623   2.780
57829W        W17123   2.229  13.763   1.397
57830W        W17124  31.898  32.488  12.023
57831W        W17125  11.275  16.112  14.027
57832W        W17126   1.394  25.603  12.554
57833W        W17127  14.827   9.876  12.037
57834W        W17128  34.883   6.777  14.818
57835W        W17129  32.068  24.583   2.198
57836W        W17130  41.331  23.083  11.504
57837W        W17131   1.441   8.692  12.418
57838W        W17132  32.124  25.668   1.933
57839W        W17133   7.803  35.558  11.933
57840W        W17134  31.564   7.398   0.283
57841W        W17135   5.894  34.930   2.691
57842W        W17136  13.825   5.336   3.706
57843W        W17137  11.760  11.176   3.216
57844W        W17138  38.491  26.092  11.563
57845W        W17139   6.777   8.248   4.145
57846W        W17140  10.644  16.598   2.415
57847W        W17141  32.135  31.104   3.291
57848W        W17142  39.903  23.539   0.276
57849W        W17143  14.797  22.615   9.617
57850W        W17144  33.478  40.849  14.353
57851W        W17145  24.674  17.286   4.235
57852W        W17146  40.935  27.630  14.838
57853W        W17147  28.567  38.921   4.772
57854W        W17148  26.031   6.270  13.949
57855W        W17149  31.090  35.364   1.721
57856W        W17150   6.846  31.008  12.951
57857W        W17151  23.187  40.830   3.830
57858W        W17152  28.575  17.602   0.256
57859W        W17153  10.809  20.171  14.353
57860W        W17154  16.720   3.831  13.044
57861W        W17155  27.620  32.598  11.921
57862W        W17156  18.655  38.557  12.045
57863W        W17157   8.737  14.265  10.409
57864W        W17158  12.188  40.853   4.641
57865W        W17159  12.772  35.965   3.735
57866W        W17160  21.713   4.262   2.663
57867W        W17161  34.555  30.617   4.227
57868W        W17162  32.966  30.655  14.443
57869W        W17163  28.575  36.937   2.871
57870W        W17164  28.107  21.178   2.297
57871W        W17165  30.426  18.079   1.761
57872W        W17166   7.375  20.691  13.049
57873W        W17167  11.686  30.480   3.236
57874W        W17168  27.488  10.249  13.881
57875W        W17169   1.832  16.190  12.990
57876W        W17170  43.353  32.914  12.835
57877W        W17171  16.658  27.468  10.596
57878W        W17172  36.850  31.446  14.945
57879W        W17173  18.246   8.738  12.413
57880W        W17174  12.290  36.586  14.278
57881W        W17175   9.765  19.745   2.707
57882W        W17176  30.651   0.988  11.858
57883W        W17177  23.139   8.771   2.328
57884W        W17178  19.213   2.376   3.692
57885W        W17179  42.887  44.849   1.834
57886W        W17180  28.449  37.522  11.490
57887W        W17181  20.109  18.158   4.608
57888W        W17182  27.487   9.319  10.933
57889W        W17183  17.617  23.138   0.836
57890W        W17184  37.077   2.465  10.899
57891W        W17185  31.467  15.239   0.835
57892W        W17186  25.526  22.192  11.405
57893W        W17187  27.055  18.143   2.893
57894W        W17188  35.361  31.435  12.838
57895W        W17189  24.999  11.170   4.333
57896W        W17190   7.327  44.912   2.842
57897W        W17191  20.036  23.185   2.693
57898W        W17192  42.288  37.955  10.968
57899W        W17193  31.503  44.953  11.938
57900W        W17194  13.111  43.869   4.758
57901W        W17195  34.595  36.962   1.931
57902W        W17196  14.168  33.125  10.452
57903W        W17197  17.123   8.384  13.397
57904W        W17198  22.015   1.745  13.944
57905W        W17199  18.573   9.839  13.443
57906W        W17200  27.941   3.826  14.779
57907W        W17201  27.488  18.217  12.922
57908W        W17202  44.385   7.875  13.384
57909W        W17203   2.325  14.708   3.669
57910W        W17204   5.765  14.810  14.455
57911W        W17205   1.874   1.797  10.634
57912W        W17206   1.895  29.670  12.513
57913W        W17207  30.640  30.546   2.738
57914W        W17208  34.005  19.565   2.282
57915W        W17209  31.132  12.801  11.050
57916W        W17210  13.625  40.503  13.490
57917W        W17211  26.641   8.186  14.759
57918W        W17212  15.782  40.000   2.852
57919W        W17213  15.731  25.977   1.441
57920W        W17214  12.297  12.273   3.218
57921W        W17215  33.516   6.875  10.967
57922W        W17216  20.549  19.145  14.353
57923W        W17217   8.701  40.404  12.846
57924W        W17218  44.913  24.984  14.971
57925W        W17219  15.223   5.324   0.897
57926W        W17220  36.358   3.397   0.928
57927W        W17221   1.447  32.947   4.690
57928W        W17222  19.700   1.466  12.901
57929W        W17223  44.455  12.664  14.325
57930W        W17224  34.949  37.558  13.857
57931W        W17225   0.949  14.121  11.990
57932W        W17226  42.387  43.467   2.688
57933W        W17227   0.432  15.185  13.428
57934W        W17228  28.027  36.071   2.700
57935W        W17229  12.737  24.206   3.856
57936W        W17230  35.949  34.069  10.897
57937W        W17231  26.472   8.726  12.359
57938W        W17232  36.526  22.604   2.348
57939W        W17233  15.592  43.008  12.907
57940W        W17234  23.577  44.862  12.020
57941W        W17235  11.349  32.571   2.762
57942W        W17236  40.882  36.431   0.278
57943W        W17237  28.084   8.326  12.456
57944W        W17238  28.994   6.232  12.003
57945W        W17239  40.981   8.660   0.834
57946W        W17240   5.338   9.253  13.041
57947W        W17241  18.098  42.307   3.199
57948W        W17242  11.330   3.729   1.709
57949W        W17243  11.859   6.699  11.959
57950W        W17244  38.388  18.711  13.459
57951W        W17245  23.217  17.085  12.577
57952W        W17246  21.718   1.748  13.933
57953W        W17247  17.143  41.325   1.211
57954W        W17248  29.085  31.115  13.373
57955W        W17249  30.968  33.430  11.995
57956W        W17250  12.669   4.905  14.411
57957W        W17251  37.853   8.813   0.911
57958W        W17252  29.170   2.231  10.569
57959W        W17253  34.971  40.419   9.977
57960W        W17254  43.964  19.778   4.165
57961W        W17255  38.822   3.459   5.272
57962W        W17256  15.272   6.190  10.406
57963W        W17257  25.523  19.705   4.665
57964W        W17258  28.936  36.482   4.230
57965W        W17259  38.046  41.878  10.530
57966W        W17260  34.375  36.371  11.104
57967W        W17261  25.591  16.073   3.711
57968W        W17262  25.701  18.152   1.226
57969W        W17263  17.299  28.145   2.311
57970W        W17264   0.801   8.760  11.010
57971W        W17265  14.134  27.192  13.351
57972W        W17266  10.172   3.775  12.513
57973W        W17267  16.110   2.724  10.494
57974W        W17268  17.231  34.882   2.255
57975W        W17269   5.732  42.467  14.955
57976W        W17270  40.819  24.547   0.467
57977W        W17271  29.552  38.987   2.711
57978W        W17272  41.296  18.140   0.369
57979W        W17273  29.612  10.290   2.329
57980W        W17274  18.573   3.741   3.265
57981W        W17275  44.393  34.467   2.800
57982W        W17276  11.278  15.614  11.401
57983W        W17277  22.573  38.067  12.488
57984W        W17278  22.031  13.670   0.834
57985W        W17279  31.505  43.362  11.022
57986W        W17280   8.710  15.804   4.816
57987W        W17281  42.817  33.104   1.817
57988W        W17282   7.850  34.583  13.030
57989W        W17283  32.465   0.836   0.797
57990W        W17284  32.082   9.726  11.984
57991W        W17285  39.426  19.153  14.393
57992W        W17286  17.670  17.146   2.268
57993W        W17287  29.013  16.248  14.280
57994W        W17288  37.508  44.486   5.235
57995W        W17289  19.624   9.179  13.850
57996W        W17290  14.266  27.531  10.469
57997W        W17291  39.338  13.600   2.345
57998W        W17292  32.139  25.019  11.080
57999W        W17293  33.579  41.815  14.000
58000W        W17294  37.857  30.116  13.402
58001W        W17295   7.253  27.508  14.984
58002W        W17296  14.120   4.914  11.012
58003W        W17297   4.921  29.008  14.490
58004W        W17298  32.015  15.227  13.434
58005W        W17299   5.701   6.239   4.626
58006W        W17300  10.145   1.357  11.959
58007W        W17301  13.775  22.006  10.643
58008W        W17302  15.102  29.000  10.632
58009W        W17303   2.282  17.695  11.462
58010W        W17304  18.190  11.678   1.393
58011W        W17305   1.957   0.369  10.447
58012W        W17306   9.357  28.580  12.874
58013W        W17307  40.827  35.999  13.378
58014W        W17308  10.676  28.055   0.907
58015W        W17309  44.911  25.552   3.759
58016W        W17310  30.642  38.026   0.852
58017W        W17311  12.177  40.384   1.334
58018W        W17312  14.734   5.922  13.467
58019W        W17313  25.628  42.483   9.948
58020W        W17314  26.629  26.105  14.871
58021W        W17315  38.903  33.436   4.321
58022W        W17316  40.931  20.239  13.792
58023W        W17317  43.450  40.408  14.507
58024W        W17318  15.220  32.041   3.790
58025W        W17319  18.703  32.433  14.940
58026W        W17320  30.952  13.676  14.963
58027W        W17321  41.895  26.468  13.504
58028W        W17322   1.938  20.573  11.991
58029W        W17323  21.607  37.572   0.860
58030W        W17324   1.891  21.528  12.540
58031W        W17325  41.981  34.557  13.868
58032W        W17326  44.342  27.193  10.953
58033W        W17327  43.392  20.666   2.239
58034W        W17328  24.613  30.004   4.750
58035W        W17329  29.657  12.246  14.803
58036W        W17330   4.268  25.188  11.473
58037W        W17331  20.575  42.806   2.371
58038W        W17332   0.278  36.981   1.442
58039W        W17333  24.483  42.321   4.781
58040W        W17334  34.112   0.814  12.874
58041W        W17335  22.224  27.461  10.528
58042W        W17336  19.248  26.665  14.315
58043W        W17337  36.538  22.149   0.802
58044W        W17338  41.415  24.590  11.459
58045W        W17339  19.276  20.533  11.934
58046W        W17340  15.632  34.425   0.964
58047W        W17341  39.011  38.074   1.376
58048W        W17342   3.883  17.580  12.941
58049W        W17343  13.750  39.390   2.263
58050W        W17344   7.348  13.223   0.788
58051W        W17345  27.454  28.032   3.762
58052W        W17346  28.995  40.985   4.803
58053W        W17347  26.549  23.489   1.915
58054W        W17348  43.851  20.029   4.814
58055W        W17349  11.303  13.684  13.878
58056W        W17350  42.860  26.189   0.341
58057W        W17351  29.079  30.533  10.946
58058W        W17352  33.074   2.744   3.686
58059W        W17353  23.660  39.385   3.744
58060W        W17354   9.168  10.138   4.300
58061W        W17355  34.062  18.605  10.559
58062W        W17356  12.158  18.581  11.474
58063W        W17357   8.881  41.945  13.345
58064W        W17358  42.864  35.960  11.037
58065W        W17359  17.077  26.587   4.781
58066W        W17360  31.051  37.949  12.580
58067W        W17361  34.581   2.253   0.949
58068W        W17362   3.762  16.813  14.807
58069W        W17363  13.252  18.606  10.463
58070W        W17364   6.290  44.434  14.506
58071W        W17365  11.640  13.663  10.126
58072W        W17366  20.692  24.652   2.774
58073W        W17367  23.634  10.375   4.310
58074W        W17368  11.719   9.161  12.862
58075W        W17369   2.846  30.522  13.953
58076W        W17370  17.639  11.172   5.296
58077W        W17371  20.595   1.291   3.292
58078W        W17372  31.152  17.705   4.283
58079W        W17373  25.134  20.606  12.080
58080W        W17374  43.348  26.180   0.794
58081W        W17375  35.512  25.640  10.927
58082W        W17376  18.080  27.000  10.599
58083W        W17377  13.722  34.076  14.022
58084W        W17378  12.839  31.936  13.927
58085W        W17379  23.530  18.590   0.795
58086W        W17380  32.132  20.161   2.753
58087W        W17381  13.729  31.936   2.284
58088W        W17382  17.599  39.539  14.407
58089W        W17383   4.777   0.273   2.857
58090W        W17384  29.479  33.588   5.239
58091W        W17385   1.411  36.448  11.043
58092W        W17386  26.042  12.345   4.159
58093W        W17387  23.585  42.997  12.902
58094W        W17388  34.605   1.886   1.228
58095W        W17389  33.461  39.335  14.494
58096W        W17390  21.140  18.251  13.452
58097W        W17391  15.114  11.153  10.487
58098W        W17392   7.354  36.496   0.957
58099W        W17393  12.689  22.155  11.013
58100W        W17394  39.958  32.409  13.817
58101W        W17395  22.594  11.753  12.462
58102W        W17396  41.386   3.217   0.905
58103W        W17397   2.345  17.214  13.957
58104W        W17398  29.017  36.484   2.894
58105W        W17399   0.419  12.736   1.388
58106W        W17400  30.915   9.228   4.749
58107W        W17401  33.609  27.140  10.614
58108W        W17402  43.891  29.604  10.549
58109W        W17403  39.951  39.893   2.817
58110W        W17404   4.802  24.027  14.279
58111W        W17405  11.724  26.091  10.930
58112W        W17406  16.809   4.442  13.318
58113W        W17407  36.569  37.543   3.382
58114W        W17408   2.864  32.533  13.335
58115W        W17409  42.321  43.476  13.514
58116W        W17410  25.995   2.463   0.406
58117W        W17411   4.756  26.981  14.021
58118W        W17412  16.589  26.971  10.435
58119W        W17413  13.251  12.217   0.880
58120W        W17414  36.475  23.534  14.847
58121W        W17415  33.393  21.703   3.306
58122W        W17416  32.496  33.994  11.606
58123W        W17417  40.886  28.491  12.893
58124W        W17418  19.753  27.597   0.374
58125W        W17419  42.497  33.013  14.417
58126W        W17420  27.971  11.260   3.760
58127W        W17421  40.030   4.298  14.929
58128W        W17422  17.107  38.848  10.014
58129W        W17423  30.605  43.375  11.387
58130W        W17424   3.710  28.052   1.379
58131W        W17425  41.386  28.470   1.414
58132W        W17426  37.369  35.903  13.343
58133W        W17427   3.441  23.241  13.382
58134W        W17428   2.262  42.310   0.858
58135W        W17429  39.979  18.669   2.386
58136W        W17430   1.324  24.187  10.566
58137W        W17431  14.682   3.827  12.438
58138W        W17432  32.130  21.525   0.460
58139W        W17433  17.784  18.150  11.855
58140W        W17434  36.904  21.745   1.281
58141W        W17435   1.971  36.974   2.828
58142W        W17436  32.522  14.800   0.351
58143W        W17437  30.009  43.806   1.438
58144W        W17438  44.380  37.511   4.340
58145W        W17439  28.076  36.471   5.137
58146W        W17440   2.732  25.074  10.978
58147W        W17441   1.354  20.705  13.442
58148W        W17442   3.406  29.959   0.410
58149W        W17443   7.379  33.944   3.648
58150W        W17444  29.424  26.628  14.383
58151W        W17445   0.918   3.387   3.218
58152W        W17446  34.869  25.132  10.985
58153W        W17447  22.240  27.998  11.878
58154W        W17448  26.605  42.464   4.266
58155W        W17449   2.446  11.347  12.853
58156W        W17450  44.423   5.812   1.806
58157W        W17451  22.589   4.871  14.798
58158W        W17452   2.935  16.695  13.843
58159W        W17453   9.797  26.622  13.396
58160W        W17454   0.271  24.063   4.824
58161W        W17455   9.725  39.397   1.866
58162W        W17456  32.102  34.495  14.386
58163W        W17457   8.289  16.114  10.406
58164W        W17458  29.654  28.634  13.816
58165W        W17459  16.750  22.528  12.053
58166W        W17460   2.366  14.187  13.427
58167W        W17461  16.309   2.363   3.266
58168W        W17462  17.578   8.376   2.306
58169W        W17463  11.295  13.747  11.509
58170W        W17464  19.257   6.810   1.912
58171W        W17465  34.461  15.730   1.410
58172W        W17466  42.482  24.526   2.700
58173W        W17467  22.133  27.015   3.677
58174W        W17468  43.770   9.183   4.822
58175W        W17469   9.869  20.636  11.910
58176W        W17470  25.202  38.477   0.300
58177W        W17471  39.931   0.814   3.728
58178W        W17472  25.544   8.819  12.004
58179W        W17473  35.495  14.764   1.449
58180W        W17474   7.335   7.381   0.902
58181W        W17475  39.416  28.963   4.637
58182W        W17476  12.158  43.443   4.256
58183W        W17477  23.040  38.884  10.988
58184W        W17478  42.911  43.332   2.785
58185W        W17479  30.538  38.342  11.123
58186W        W17480  41.871  16.582   2.762
58187W        W17481  18.709  24.551   3.646
58188W        W17482  16.185   7.219  10.622
58189W        W17483  13.169   2.235  12.967
58190W        W17484  44.460  26.184   4.823
58191W        W17485  31.517   3.820  10.581
58192W        W17486   5.266  18.105   3.215
58193W        W17487  37.061  13.340  12.384
58194W        W17488  42.993  37.357   2.835
58195W        W17489  37.436   3.227  13.889
58196W        W17490  44.408  35.442   0.784
58197W        W17491  37.494  39.937  11.005
58198W        W17492  15.681  14.221   5.171
58199W        W17493  12.252  12.745  14.295
58200W        W17494  13.684  36.869   3.778
58201W        W17495  16.241  43.806  13.822
58202W        W17496  35.911  41.961   1.778
58203W        W17497  39.473  41.384  11.377
58204W        W17498   4.339  41.880   3.752
58205W        W17499  43.811   7.691   3.721
58206W        W17500  29.161  42.478   0.824
58207W        W17501  31.468   9.883   0.390
58208W        W17502   1.831  14.106  12.024
58209W        W17503  29.145  18.615  12.354
58210W        W17504  44.899  33.130  13.029
58211W        W17505  24.172  39.924  11.612
58212W        W17506  38.010  26.550   0.286
58213W        W17507   1.787  16.770   4.788
58214W        W17508   5.308  35.360  10.428
58215W        W17509  23.177  30.478   0.819
58216W        W17510   0.914  40.315  14.316
58217W        W17511   8.397   4.205   2.252
58218W        W17512   5.921  42.933   3.380
58219W        W17513   6.341  36.445   0.876
58220W        W17514  17.766  42.315  11.512
58221W        W17515   1.438  43.824  11.489
58222W        W17516   3.827  40.882  10.454
58223W        W17517  26.121  38.972   1.935
58224W        W17518  16.674  25.105   1.768
58225W        W17519  30.460  44.897   4.275
58226W        W17520  16.239  36.548   3.322
58227W        W17521  27.627  32.525  10.907
58228W        W17522  20.077   5.204  13.423
58229W        W17523  16.166  29.610  10.632
58230W        W17524  23.076  24.101  11.092
58231W        W17525  24.216   8.270  12.538
58232W        W17526  27.500   2.339   4.730
58233W        W17527  38.363   5.291   1.722
58234W        W17528  36.040  26.481   0.440
58235W        W17529  13.663  33.444   1.919
58236W        W17530  29.000  34.081  14.365
58237W        W17531  40.877  29.643   2.374
58238W        W17532  24.989  23.092  11.075
58239W        W17533  11.640  23.663  10.602
58240W        W17534  15.731  43.446  11.487
58241W        W17535  12.750  24.639   1.247
58242W        W17536  18.620  39.417  10.608
58243W        W17537  21.188  27.676  13.020
58244W        W17538  27.056   6.288  12.096
58245W        W17539   7.716  16.805  11.001
58246W        W17540   0.756  33.566   4.189
58247W        W17541  25.110   5.785  11.519
58248W        W17542  18.769  31.596  14.917
58249W        W17543  26.170   6.717  11.053
58250W        W17544  39.010  31.646   3.835
58251W        W17545   4.420   6.309   2.207
58252W        W17546  29.508  33.024  11.893
58253W        W17547  11.658  14.239   2.386
58254W        W17548  21.121  41.463  11.917
58255W        W17549   4.425  36.070  13.503
58256W        W17550   0.423  38.940  14.926
58257W        W17551  29.589  31.131  12.020
58258W        W17552   5.331  19.212   0.936
58259W        W17553  37.965  29.627   3.324
58260W        W17554  14.296  41.318   0.797
58261W        W17555   0.973  38.420  11.021
58262W        W17556  25.686   1.810  13.440
58263W        W17557  13.345   5.411  14.470
58264W        W17558   3.930  38.335   3.869
58265W        W17559   9.756  18.204  11.387
58266W        W17560  44.460  11.211  14.911
58267W        W17561  38.894   0.989  14.014
58268W        W17562  34.434   6.706  12.849
58269W        W17563  42.405  21.057  12.571
58270W        W17564  44.887  24.023  14.392
58271W        W17565  38.468  43.948  11.974
58272W        W17566   7.755  26.535   0.367
58273W        W17567  13.757  29.590  12.501
58274W        W17568  29.999  29.600  10.644
58275W        W17569  36.045  28.130   3.179
58276W        W17570  36.869  11.818  12.520
58277W        W17571  21.189  28.177   2.724
58278W        W17572  10.637  42.521   2.891
58279W        W17573  29.026   6.750  13.525
58280W        W17574  19.095  35.570  10.966
58281W        W17575  12.135  35.047  12.353
58282W        W17576  43.940  44.992  10.894
58283W        W17577  34.991  27.478  14.971
58284W        W17578  33.875  38.019   0.351
58285W        W17579  39.401  29.517  12.412
58286W        W17580  22.164  41.983  14.290
58287W        W17581  33.886  15.766  12.555
58288W        W17582  22.589  27.032   1.905
58289W        W17583  26.669   5.731   0.337
58290W        W17584  35.039  33.026  11.407
58291W        W17585  29.493   7.388   1.360
58292W        W17586  41.921   1.384  14.355
58293W        W17587  13.670  26.674   2.369
58294W        W17588   8.349  20.164   0.777
58295W        W17589  33.622  39.820  13.433
58296W        W17590  12.285  43.806  10.586
58297W        W17591  42.306  18.728   1.694
58298W        W17592  30.054  10.877  10.949
58299W        W17593  37.427   5.749  14.926
58300W        W17594  15.147  33.609   0.758
58301W        W17595  41.940  37.498   2.365
58302W        W17596  22.692  24.722  11.007
58303W        W17597  44.366  16.746   0.917
58304W        W17598  16.074   5.773  11.604
58305W        W17599  34.909  41.457   3.333
58306W        W17600  22.576  44.818  14.380
58307W        W17601  29.627  37.427  13.832
58308W        W17602   4.776  39.546  13.888
58309W        W17603  32.078   6.372  11.381
58310W        W17604  21.065  31.062  13.853
58311W        W17605  44.375  20.745   2.715
58312W        W17606   2.778  23.520   0.744
58313W        W17607  29.017  23.241  14.443
58314W        W17608  23.103  30.019   0.857
58315W        W17609  35.022  40.452   1.448
58316W        W17610  26.557   5.212   1.701
58317W        W17611  27.502  21.087   2.835
58318W        W17612  14.715  28.131   3.706
58319W        W17613   3.853  27.627   0.296
58320W        W17614  13.761  25.589   3.274
58321W        W17615   8.361  35.077   4.663
58322W        W17616  32.897  22.027   4.687
58323W        W17617  34.066  36.871   3.672
58324W        W17618   3.876   4.717  12.030
58325W        W17619  37.040  22.654  13.472
58326W        W17620  18.647   5.787  10.154
58327W        W17621  18.158  32.471  10.432
58328W        W17622  28.564  37.001  10.959
58329W        W17623   0.912   6.840   3.804
58330W        W17624  31.932  43.312   1.322
58331W        W17625  43.322  23.119  11.945
58332W        W17626  34.945  40.967  14.414
58333W        W17627  44.755   8.161  13.478
58334W        W17628  18.582   8.678  12.349
58335W        W17629  41.805  26.465   2.399
58336W        W17630   6.229  17.071  14.019
58337W        W17631  34.887  19.138   4.298
58338W        W17632  26.075  20.541   0.472
58339W        W17633  21.222  34.469   4.787
58340W        W17634  31.517   5.405   0.873
58341W        W17635  39.525  28.159   0.906
58342W        W17636  25.975  33.954  10.494
58343W        W17637  10.161  32.461   4.179
58344W        W17638   8.365  18.241   3.669
58345W        W17639  43.400  12.854  12.881
58346W        W17640  39.882  39.869  12.488
58347W        W17641   7.197   5.289  12.026
58348W        W17642  14.735  22.507   0.786
58349W        W17643  18.711   6.789   0.886
58350W        W17644  20.700   7.742  13.993
58351W        W17645  32.444  26.006   2.706
58352W        W17646  38.924  35.061   1.228
58353W        W17647  17.132   8.290  13.832
58354W        W17648  11.757  10.671  11.097
58355W        W17649   9.194  35.598  12.057
58356W        W17650   4.722   8.171   0.364
58357W        W17651  26.649  10.841  11.011
58358W        W17652  24.100  20.083   3.260
58359W        W17653  44.317  44.913  12.364
58360W        W17654  18.554   6.812  13.020
58361W        W17655  36.357  22.588   2.774
58362W        W17656  37.519  44.395   2.880
58363W        W17657   9.676  41.485  13.524
58364W        W17658  11.785  12.330  13.860
58365W        W17659  20.615  43.923   2.873
58366W        W17660  38.841  44.819  11.973
58367W        W17661   9.813  41.483  10.540
58368W        W17662  36.963  14.166  11.508
58369W        W17663   4.881  28.041  14.931
58370W        W17664  15.721  36.923  10.901
58371W        W17665  18.115  11.668  14.872
58372W        W17666  12.331  20.688  14.888
58373W        W17667   4.797   7.383   3.842
58374W        W17668  34.869   2.391   4.691
58375W        W17669  23.135  15.710   0.745
58376W        W17670  39.850  24.603  11.535
58377W        W17671  40.888  32.521  13.536
58378W        W17672   0.964  24.044  13.500
58379W        W17673  16.217   0.313  12.886
58380W        W17674  37.867   0.787  14.292
58381W        W17675  44.357  19.631   1.239
58382W        W17676  25.571  27.992   9.985
58383W        W17677  20.136  32.930  12.496
58384W        W17678  29.433  33.600  14.487
58385W        W17679  40.926  37.558  13.468
58386W        W17680  32.392  21.054   2.184
58387W        W17681   7.895  20.272  12.940
58388W        W17682  43.322  36.965  11.088
58389W        W17683  43.821  44.355  10.604
58390W        W17684   9.195  28.095   1.866
58391W        W17685  22.188  21.652  13.036
58392W        W17686  12.786   4.348  11.882
58393W        W17687  33.400  31.503   4.267
58394W        W17688  25.554  20.679  11.928
58395W        W17689  10.735   5.334   2.756
58396W        W17690  33.985  20.168   3.329
58397W        W17691  31.515  28.995  11.052
58398W        W17692   2.361  14.654   2.860
58399W        W17693  24.567   4.445  12.834
58400W        W17694   3.727  16.677   1.358
58401W        W17695   1.402  19.265   4.152
58402W        W17696   7.378  37.010   3.338
58403W        W17697  24.150  10.866  12.408
58404W        W17698  28.091  41.314  12.440
58405W        W17699  39.027  29.980  12.879
58406W        W17700   2.234  13.641  12.058
58407W        W17701  42.461  41.367  11.524
58408W        W17702  21.599  37.400  13.487
58409W        W17703  33.091  14.140   3.221
58410W        W17704  10.840  11.669   1.716
58411W        W17705  22.562  39.021   1.431
58412W        W17706  32.046  17.222   3.318
58413W        W17707  13.684   2.911   3.355
58414W        W17708   9.338  23.120   4.668
58415W        W17709  33.103  10.309   3.192
58416W        W17710  17.125  29.567   9.973
58417W        W17711   1.353  42.391  10.556
58418W        W17712   2.748   7.339  11.442
58419W        W17713  28.959  33.047   0.906
58420W        W17714  28.949  21.246  11.954
58421W        W17715  24.589  15.278  12.012
58422W        W17716   1.309  19.750   4.643
58423W        W17717  31.002   2.322   5.271
58424W        W17718  27.088  36.074  14.821
58425W        W17719  44.872   5.737   2.312
58426W        W17720  22.557  43.952   1.733
58427W        W17721  22.032  13.763  13.795
58428W        W17722  35.016  35.075  11.582
58429W        W17723   1.344   4.261  11.867
58430W        W17724   9.798   8.196  14.935
58431W        W17725  36.499   4.805  11.889
58432W        W17726  38.502   1.397  13.347
58433W        W17727   8.888  19.691  12.011
58434W        W17728  29.034  39.407  11.981
58435W        W17729  27.490   3.278   4.233
58436W        W17730  41.329  11.348   3.179
58437W        W17731  35.027   6.894   1.735
58438W        W17732  10.254  36.068   3.702
58439W        W17733  10.304  34.093   4.834
58440W        W17734  19.113  41.501  12.421
58441W        W17735  29.635  13.797  11.567
58442W        W17736   6.413  43.304   3.322
58443W        W17737  37.832  34.099   2.203
58444W        W17738  36.372  28.959   4.672
58445W        W17739  20.693  28.652   3.302
58446W        W17740   9.151  40.518  14.317
58447W        W17741   4.925  16.687  11.856
58448W        W17742  34.411  41.522   1.873
58449W        W17743  32.521  22.072   2.826
58450W        W17744   2.878  26.202   0.314
58451W        W17745  28.150  35.968   1.212
58452W        W17746  34.953  17.124  11.004
58453W        W17747  32.912   6.810  11.443
58454W        W17748  41.985  12.660   0.793
58455W        W17749  21.032  23.545  14.870
58456W        W17750   9.285  27.106  14.988
58457W        W17751  22.703  44.010  12.986
58458W        W17752  15.090  40.851  11.901
58459W        W17753  33.505  33.513  14.967
58460W        W17754   0.972  11.837  10.499
58461W        W17755   8.374  20.707   1.249
58462W        W17756  26.167   5.404  12.479
58463W        W17757  33.410   8.768   0.762
58464W        W17758  22.105   4.780   0.390
58465W        W17759  12.223   7.356  13.436
58466W        W17760  16.122  25.208   5.217
58467W        W17761   0.487   7.183   4.734
58468W        W17762  43.367  27.447  13.900
58469W        W17763  17.794  28.496   0.257
58470W        W17764  12.685  39.516   1.920
58471W        W17765  27.121  21.623   1.366
58472W        W17766  28.510  34.947  10.965
58473W        W17767  19.132  23.495   1.413
58474W        W17768  44.268  40.478  13.978
58475W        W17769  39.430   9.678   9.553
58476W        W17770  34.409  34.503   2.275
58477W        W17771   1.801   4.762  12.907
58478W        W17772  33.483   7.813   5.204
58479W        W17773   9.758  43.904  13.940
58480W        W17774  36.891  34.974  14.997
58481W        W17775  18.758  24.150  11.421
58482W        W17776  26.689  11.175   4.670
58483W        W17777  29.938  31.967   4.680
58484W        W17778  15.805  22.662   2.873
58485W        W17779  41.491  21.021   1.837
58486W        W17780  19.579  23.582  13.877
58487W        W17781  12.301   8.322   3.347
58488W        W17782  15.213  14.675  14.771
58489W        W17783  16.713  30.023  10.914
58490W        W17784  23.570  19.633   1.437
58491W        W17785  24.632  34.530   2.794
58492W        W17786  13.795  23.633   1.235
58493W        W17787  15.134  23.218   1.443
58494W        W17788  10.758  23.171  12.091
58495W        W17789  36.550  21.669   1.414
58496W        W17790   9.302  30.412   2.668
58497W        W17791  30.486  11.690  12.921
58498W        W17792  24.001  39.930   0.264
58499W        W17793  35.071  41.442  12.036
58500W        W17794   8.174  34.564  14.913
58501W        W17795  27.982   0.458   1.934
58502W        W17796  37.409   1.806   4.798
58503W        W17797  39.968  36.873   0.273
58504W        W17798  43.502  17.603  12.508
58505W        W17799  32.570  32.614  10.636
58506W        W17800  21.532  34.375   0.813
58507W        W17801  33.930   2.244  12.407
58508W        W17802  38.998  39.432   5.183
58509W        W17803  10.780  17.061  11.396
58510W        W17804  37.519  24.674   4.348
58511W        W17805  26.641  27.477  14.779
58512W        W17806   5.230  42.024   1.701
58513W        W17807  18.599  19.748   3.672
58514W        W17808  36.417  43.474   0.379
58515W        W17809   5.914  43.361   2.855
58516W        W17810  36.490  18.613   0.434
58517W        W17811  32.025  41.515   1.331
58518W        W17812  41.321  42.911   2.768
58519W        W17813   5.336  10.745  14.798
58520W        W17814  14.124  15.577  13.354
58521W        W17815  41.450  13.676   3.242
58522W        W17816  30.104   0.807  12.061
58523W        W17817   8.165   4.356   0.858
58524W        W17818   3.386   0.266   0.727
58525W        W17819  38.838   6.684   0.775
58526W        W17820  19.756   0.780   0.751
58527W        W17821   1.902  34.933   2.788
58528W        W17822  36.851  38.368   3.186
58529W        W17823  25.151   8.248   0.917
58530W        W17824  19.623   3.290   0.301
58531W        W17825   7.189   6.370  14.435
58532W        W17826  37.345  43.895  11.540
58533W        W17827  12.282  25.123   0.736
58534W        W17828  13.247  39.962  11.609
58535W        W17829  40.528  20.580  10.544
58536W        W17830  20.060   6.332  11.058
58537W        W17831  13.615   3.875  11.497
58538W        W17832  14.248  24.513   4.213
58539W        W17833  25.189  24.988   4.251
58540W        W17834  37.485  34.411  14.931
58541W        W17835  38.932   2.346   0.930
58542W        W17836  21.119   3.834   3.288
58543W        W17837  21.059  13.135  11.860
58544W        W17838  15.198  20.682  12.548
58545W        W17839  31.142   9.227   3.677
58546W        W17840  32.551  43.924  12.574
58547W        W17841   7.172  30.074  13.463
58548W        W17842  35.369  27.116  13.400
58549W        W17843  15.302  33.410   0.283
58550W        W17844  28.660  38.503   1.451
58551W        W17845  29.038   5.422  14.908
58552W        W17846  28.483   3.759  13.940
58553W        W17847  43.932  23.229   2.202
58554W        W17848  15.666  23.666  10.044
58555W        W17849  32.093   9.242   3.831
58556W        W17850  17.721  41.971   4.167
58557W        W17851  42.894  16.158  12.428
58558W        W17852  11.819  25.542   3.291
58559W        W17853   0.414  38.507   1.795
58560W        W17854  37.539  41.382  13.320
58561W        W17855   9.169  38.970  13.015
58562W        W17856  27.553   7.261   1.927
58563W        W17857  34.569  28.049   3.731
58564W        W17858  34.394  16.086  14.334
58565W        W17859  35.013  36.470   1.284
58566W        W17860  23.568  30.552  13.914
58567W        W17861  28.546  19.677   1.438
58568W        W17862   6.847  11.136  10.544
58569W        W17863  23.011  25.111   3.345
58570W        W17864  12.765   8.222  11.386
58571W        W17865  32.438  17.780  13.358
58572W        W17866   0.333  14.821  13.899
58573W        W17867   8.690  41.308  13.446
58574W        W17868  19.039  30.119   2.376
58575W        W17869  13.618  23.628   2.369
58576W        W17870  35.861  39.044   2.407
58577W        W17871   6.702  22.011   0.433
58578W        W17872   3.300  31.541  14.998
58579W        W17873  35.407   3.829   4.699
58580W        W17874  36.437  28.634  14.441
58581W        W17875  16.784   7.781   1.884
58582W        W17876  16.098  30.449   3.226
58583W        W17877  42.470  29.644   2.703
58584W        W17878  15.611  32.903   2.687
58585W        W17879  19.727   1.275   3.800
58586W        W17880  44.277  13.765  14.014
58587W        W17881  36.513  34.088   3.189
58588W        W17882  32.963  37.013   2.273
58589W        W17883  13.129  44.947   0.919
58590W        W17884  40.007  41.350  14.304
58591W        W17885  16.133  39.407  12.560
58592W        W17886  31.092   3.805  11.569
58593W        W17887  13.143   2.399  11.972
58594W        W17888  10.810  30.505  13.957
58595W        W17889   5.386  33.531   4.756
58596W        W17890  36.537  27.196  13.490
58597W        W17891  18.785  14.249   4.179
58598W        W17892  41.805  34.951   1.924
58599W        W17893   6.273  18.210   0.762
58600W        W17894  28.930  37.578  12.982
58601W        W17895  22.232  25.145  11.940
58602W        W17896  18.615  43.945  14.984
58603W        W17897  20.724  37.884   1.762
58604W        W17898  30.416  33.523   1.392
58605W        W17899   4.939   2.758   4.238
58606W        W17900  38.035   2.313  11.527
58607W        W17901  19.260   0.913  10.939
58608W        W17902  34.867  16.672  14.801
58609W        W17903  29.924   2.829   2.353
58610W        W17904   9.815  43.897  12.859
58611W        W17905   8.371  38.562  12.021
58612W        W17906   2.365  35.088   4.143
58613W        W17907  31.969  31.150  11.555
58614W        W17908  18.129  17.613   0.794
58615W        W17909  29.139  21.730   2.846
58616W        W17910  22.094  34.421   0.769
58617W        W17911  11.758  25.481  11.011
58618W        W17912   7.698  32.902   3.783
58619W        W17913   3.259   7.678   5.083
58620W        W17914  10.652  17.266  14.953
58621W        W17915  38.068  36.978   0.785
58622W        W17916  35.428  19.128   4.777
58623W        W17917   7.284  43.878  10.085
58624W        W17918  16.702  14.181  12.013
58625W        W17919  37.472   4.352  13.909
58626W        W17920   8.216  36.085  11.421
58627W        W17921   7.257  42.527   1.440
58628W        W17922   4.818  29.496   5.178
58629W        W17923  35.898  10.812  10.151
58630W        W17924  29.158   5.692   0.337
58631W        W17925  22.023  34.594   1.359
58632W        W17926  34.526  25.638   4.256
58633W        W17927  11.205  43.315   1.837
58634W        W17928   1.856   0.748  14.889
58635W        W17929  39.434  19.566  14.367
58636W        W17930  38.539  36.592   0.868
58637W        W17931   9.245  21.154   3.366
58638W        W17932  15.741  16.619   9.599
58639W        W17933  44.369  21.182   0.319
58640W        W17934  44.388  24.224  11.057
58641W        W17935  14.789  30.521   0.750
58642W        W17936  41.997  27.068   0.332
58643W        W17937   5.245   6.726  14.318
58644W        W17938  19.175   4.423  11.064
58645W        W17939   2.453  42.833   4.277
58646W        W17940  19.052  38.398   1.781
58647W        W17941  44.976  41.004   1.717
58648W        W17942  28.079  14.788   0.744
58649W        W17943  21.196   5.292  11.001
58650W        W17944  16.687  13.151  12.424
58651W        W17945  43.459  25.589   2.193
58652W        W17946  28.559  17.751  14.315
58653W        W17947  43.473   2.939  14.785
58654W        W17948  19.614  11.744   3.313
58655W        W17949  15.149   0.859   2.289
58656W        W17950   9.865  22.177  14.418
58657W        W17951  15.105  44.845  11.507
58658W        W17952   1.895  27.170   3.367
58659W        W17953  23.161  31.565  14.015
58660W        W17954  21.170   6.242   4.191
58661W        W17955  35.554  13.175  14.895
58662W        W17956  28.097   2.448  11.479
58663W        W17957   4.426  31.960  12.958
58664W        W17958  42.398   4.451   1.451
58665W        W17959  29.575  15.303  10.620
58666W        W17960  20.155  35.367   1.906
58667W        W17961  10.835  13.127  14.864
58668W        W17962  21.603  32.513   4.609
58669W        W17963  11.846  21.047  11.958
58670W        W17964   0.854  25.112  11.533
58671W        W17965  10.652  17.104  11.022
58672W        W17966  33.974  39.024  10.051
58673W        W17967  20.165  34.501   0.748
58674W        W17968  44.480  10.288   0.817
58675W        W17969  38.060  10.181   2.258
58676W        W17970   0.380  43.820  11.929
58677W        W17971  10.776  35.532   3.814
58678W        W17972   7.412  12.194   0.850
58679W        W17973  27.977  22.165   4.347
58680W        W17974  30.612   6.336   2.872
58681W        W17975  22.672   7.743  12.845
58682W        W17976   7.316  37.340   0.452
58683W        W17977  39.498  29.512   0.822
58684W        W17978  20.594   8.680   0.290
58685W        W17979  17.255   4.708  14.911
58686W        W17980  29.445  19.762  12.864
58687W        W17981  17.687   7.873   4.648
58688W        W17982  33.900   7.299   4.134
58689W        W17983  27.957   4.746   5.293
58690W        W17984   6.342  26.094  12.480
58691W        W17985  30.144  36.462  14.495
58692W        W17986  16.169  10.228  10.530
58693W        W17987  20.575  31.495  12.995
58694W        W17988   0.301   1.970   2.338
58695W        W17989  31.560  22.096   4.248
58696W        W17990  17.716   2.429   2.878
58697W        W17991  29.156  16.262  11.506
58698W        W17992  32.046   1.276   4.223
58699W        W17993   7.266   7.874   4.737
58700W        W17994  23.729  28.939   1.282
58701W        W17995  22.096  17.575   4.779
58702W        W17996  21.615  26.074   3.312
58703W        W17997  39.019  42.912   4.810
58704W        W17998   2.466   9.175  13.840
58705W        W17999  12.753  27.005  13.389
58706W        W18000  14.741  27.501   4.709
58707W        W18001  25.203  34.546   0.377
58708W        W18002  41.380  37.575   0.376
58709W        W18003  39.024  41.921   3.351
58710W        W18004  37.842  14.320   0.860
58711W        W18005   0.316  41.500   4.721
58712W        W18006   3.363  39.988  13.810
58713W        W18007  13.842  20.076   5.299
58714W        W18008  28.495   0.395   3.770
58715W        W18009  26.538  22.086   3.194
58716W        W18010  28.569  19.201  13.370
58717W        W18011  10.185  42.493   3.324
58718W        W18012  24.606   9.789  14.356
58719W        W18013  18.771   1.931  10.455
58720W        W18014  12.846  10.657  12.435
58721W        W18015  42.796   7.740   5.234
58722W        W18016  35.423  38.950  14.905
58723W        W18017  32.893  42.876   3.802
58724W        W18018  11.172  19.778   2.662
58725W        W18019  32.534   0.977  14.448
58726W        W18020  16.213  41.447  10.495
58727W        W18021  30.595  20.696   2.297
58728W        W18022  18.114   0.821   1.333
58729W        W18023  31.911  21.064  13.518
58730W        W18024   6.224  16.317  12.912
58731W        W18025  42.485   1.808   1.715
58732W        W18026  10.813   0.276  14.916
58733W        W18027  15.117  39.420  12.926
58734W        W18028  40.829  39.027  12.390
58735W        W18029  40.810  44.334  10.556
58736W        W18030   3.270  15.790   2.214
58737W        W18031  13.696   7.884   0.245
58738W        W18032  32.024  23.026   0.442
58739W        W18033  36.406  40.501  13.341
58740W        W18034  18.184  19.123   0.370
58741W        W18035   1.301   9.691  12.549
58742W        W18036  29.123  16.583  13.492
58743W        W18037  22.019  32.482  10.888
58744W        W18038  37.580  13.643   1.744
58745W        W18039  12.743  21.622  11.010
58746W        W18040  39.463  35.534  10.072
58747W        W18041  23.654   7.781   3.315
58748W        W18042  19.738  17.199  14.965
58749W        W18043  31.976  42.348   1.801
58750W        W18044   7.263  25.541  11.927
58751W        W18045  18.191  23.644   3.775
58752W        W18046   7.818  15.737  10.975
58753W        W18047   2.794   4.864   1.920
58754W        W18048   0.289  37.943   0.951
58755W        W18049  20.667  17.275   4.666
58756W        W18050  16.688  12.235  14.839
58757W        W18051  43.497  44.861  13.797
58758W        W18052  20.728   0.982  12.986
58759W        W18053  40.310  26.570  12.094
58760W        W18054  40.854  22.659  14.389
58761W        W18055  16.126   3.237  14.850
58762W        W18056  15.220  38.371   2.234
58763W        W18057  25.642   0.891   0.870
58764W        W18058   3.234   3.428  10.636
58765W        W18059  28.953  17.125  13.877
58766W        W18060  30.050  36.975   0.427
58767W        W18061  11.334  34.460  14.934
58768W        W18062   1.883  16.757   4.151
58769W        W18063  28.450  38.838  13.800
58770W        W18064  19.238  41.453  14.914
58771W        W18065   4.736  41.977  10.585
58772W        W18066  16.113  23.511  11.590
58773W        W18067  32.907  28.673  12.092
58774W        W18068  44.980  28.067  10.913
58775W        W18069  23.681  44.307  12.375
58776W        W18070  23.608  15.146   0.369
58777W        W18071  26.676  21.104  11.575
58778W        W18072  16.226   3.313   5.287
58779W        W18073  23.690  32.398  10.439
58780W        W18074  40.409  26.951  13.925
58781W        W18075  43.496  37.009   4.617
58782W        W18076  32.575   6.847   4.150
58783W        W18077   3.319  13.638   2.880
58784W        W18078   3.303   2.328   2.889
58785W        W18079   1.449  11.218  12.050
58786W        W18080  26.965  23.000   2.894
58787W        W18081   7.824  26.532   0.903
58788W        W18082  13.205   5.718   1.375
58789W        W18083  33.972   3.951  11.042
58790W        W18084  44.384  29.974  10.990
58791W        W18085  38.984  21.114  14.768
58792W        W18086  28.617  10.862   3.803
58793W        W18087   1.934  25.470  13.995
58794W        W18088  37.045  39.363  14.973
58795W        W18089  17.720  21.213  12.973
58796W        W18090  22.224  22.125  11.052
58797W        W18091  37.899  43.373  11.929
58798W        W18092  42.516  20.725   3.224
58799W        W18093   5.778  15.775  12.381
58800W        W18094   4.902  31.458   3.776
58801W        W18095  19.533  17.212  10.551
58802W        W18096  29.103  32.952  11.442
58803W        W18097  43.353  12.639   3.661
58804W        W18098   0.838  13.296  13.055
58805W        W18099  39.543  17.138  13.343
58806W        W18100  26.123  24.524   2.392
58807W        W18101  21.603   2.287   0.779
58808W        W18102  43.856   3.806  12.355
58809W        W18103   6.368  41.787   0.772
58810W        W18104  40.485   2.938  14.787
58811W        W18105  22.028  13.126   0.752
58812W        W18106  32.545  12.254  12.884
58813W        W18107  31.541  39.453   4.307
58814W        W18108  40.521  20.742   4.313
58815W        W18109  28.173  28.445   1.906
58816W        W18110  25.597  33.515  12.921
58817W        W18111  20.040   0.280   3.703
58818W        W18112  22.729  27.964   0.387
58819W        W18113  31.982  31.506  12.894
58820W        W18114  40.304  31.056   3.806
58821W        W18115  39.384  42.829   2.214
58822W        W18116  27.168  41.511  13.420
58823W        W18117  42.508  14.658  11.981
58824W        W18118  27.586  25.155   1.271
58825W        W18119  21.152  11.199  13.049
58826W        W18120  19.053  15.092  12.494
58827W        W18121  42.813  37.558   0.807
58828W        W18122  29.096  11.691   0.466
58829W        W18123  16.770   7.721   3.329
58830W        W18124  37.408   1.937   1.805
58831W        W18125  11.135   6.727  12.839
58832W        W18126  36.890  26.471   2.391
58833W        W18127  10.227   7.825  13.443
58834W        W18128  28.658  26.693   2.778
58835W        W18129   0.975  17.561  12.970
58836W        W18130  11.186  34.929   3.811
58837W        W18131  35.877  20.534  14.845
58838W        W18132  18.271   1.822   3.865
58839W        W18133   4.406   4.284  13.814
58840W        W18134  13.791  30.623   0.288
58841W        W18135  15.669  36.419  14.830
58842W        W18136   6.403   3.747  10.908
58843W        W18137  32.468  19.682   2.253
58844W        W18138   7.864  21.516   1.892
58845W        W18139   6.810  38.062   0.934
58846W        W18140  28.675  13.757   2.262
58847W        W18141  43.400  21.757   1.361
58848W        W18142   9.760  32.482  13.899
58849W        W18143  37.847  13.739  11.047
58850W        W18144  21.704  15.091  12.497
58851W        W18145  16.734   2.839   4.660
58852W        W18146  35.425  42.009  14.013
58853W        W18147  33.447  27.129  12.036
58854W        W18148   8.380  34.972  12.861
58855W        W18149   1.767  26.012   0.862
58856W        W18150  14.667  10.815   4.762
58857W        W18151  28.618  35.480  12.911
58858W        W18152   1.901  43.948  13.974
58859W        W18153  43.360  40.966   1.802
58860W        W18154  31.962  39.961   2.371
58861W        W18155  23.704  33.009  13.023
58862W        W18156  32.906  34.538  13.451
58863W        W18157  17.790  40.336   0.260
58864W        W18158  40.047  32.014   4.145
58865W        W18159  44.267  16.748   3.294
58866W        W18160  38.505   0.372   4.226
58867W        W18161  42.461  38.524  11.982
58868W        W18162  32.052   8.307  12.092
58869W        W18163   3.393   5.309   0.354
58870W        W18164  24.484   4.248   0.335
58871W        W18165   2.442  12.225   0.746
58872W        W18166   1.789  22.573  13.341
58873W        W18167  10.748  11.323  13.460
58874W        W18168  43.897  12.815   0.435
58875W        W18169  22.044  33.433   0.335
58876W        W18170  41.296   3.952  12.454
58877W        W18171  37.406   5.238  13.546
58878W        W18172  34.010  27.946   4.251
58879W        W18173  34.574  37.969   0.914
58880W        W18174   0.465  23.116   4.247
58881W        W18175  25.073  15.609   2.280
58882W        W18176  21.142  42.802  14.305
58883W        W18177  15.734   9.723   0.777
58884W        W18178  38.040  20.535  12.360
58885W        W18179  37.022  24.630  10.412
58886W        W18180  24.624   7.808   0.741
58887W        W18181  37.566  19.659  14.882
58888W        W18182   4.744  29.618  10.938
58889W        W18183   0.928   7.708  11.560
58890W        W18184   2.226  40.019   1.249
58891W        W18185   3.867  34.430   1.808
58892W        W18186  24.135  17.636   1.914
58893W        W18187  22.027  11.674  12.572
58894W        W18188  16.756  27.527   3.272
58895W        W18189  32.508   7.363  14.297
58896W        W18190  31.433  19.237  13.802
58897W        W18191   5.873  21.736  13.359
58898W        W18192  13.294  25.064   5.294
58899W        W18193  27.530  22.618  12.957
58900W        W18194  17.267   4.439  12.416
58901W        W18195  12.221   0.425   3.187
58902W        W18196  11.166  18.268   4.661
58903W        W18197  31.901  40.016   3.633
58904W        W18198  24.487  37.428  10.930
58905W        W18199  22.062  20.540  14.358
58906W        W18200   1.918  41.961  13.497
58907W        W18201  22.722  42.481   3.317
58908W        W18202  14.746  17.142  14.941
58909W        W18203   4.358   8.885  12.836
58910W        W18204  32.948  14.141   2.729
58911W        W18205  30.549  38.396  10.156
58912W        W18206  32.482  33.084  11.989
58913W        W18207  27.968  27.466   1.414
58914W        W18208  10.853  34.461   1.417
58915W        W18209  19.039   9.649  12.040
58916W        W18210  34.512  13.620  14.808
58917W        W18211  32.401  28.510  14.016
58918W        W18212  19.759  35.917   2.744
58919W        W18213  42.525  30.441  12.864
58920W        W18214  35.431   3.400  11.549
58921W        W18215  34.539  32.394   2.405
58922W        W18216  37.374  21.236   4.320
58923W        W18217  26.500  15.624   0.727
58924W        W18218  13.300   4.794  11.504
58925W        W18219   0.419  42.777   0.803
58926W        W18220  37.354  27.170  10.932
58927W        W18221  19.620   9.376  14.497
58928W        W18222  40.885  30.593  12.882
58929W        W18223  30.008  24.654   4.307
58930W        W18224  15.761  32.544   3.294
58931W        W18225  38.553  12.342  10.427
58932W        W18226   0.921  16.274  10.495
58933W        W18227  13.671  11.639  13.903
58934W        W18228   2.278  27.578   3.237
58935W        W18229  18.672  37.952   4.294
58936W        W18230   1.244   2.414   3.809
58937W        W18231  32.076   9.817  13.965
58938W        W18232  29.941   2.439  12.408
58939W        W18233  22.606  26.953  14.452
58940W        W18234  41.878  12.660   3.213
58941W        W18235  11.785  13.650  12.529
58942W        W18236  36.409  21.096   1.444
58943W        W18237  19.249  23.616   1.821
58944W        W18238   5.365  31.591  12.557
58945W        W18239  14.178  19.253  11.431
58946W        W18240   8.228  28.978   1.258
58947W        W18241   7.784  38.013  13.986
58948W        W18242  21.026  14.642  12.431
58949W        W18243   7.868  31.922  14.474
58950W        W18244  45.000   1.444   1.231
58951W        W18245  15.308   3.417  13.854
58952W        W18246   2.462  15.662   4.267
58953W        W18247  28.588  32.615  12.823
58954W        W18248   3.755   0.467  14.936
58955W        W18249  15.244  10.694   2.792
58956W        W18250  41.803   1.444   0.966
58957W        W18251   3.859  19.180   2.416
58958W        W18252  19.198   8.764   4.799
58959W        W18253  37.045  44.331   4.201
58960W        W18254  42.515  11.181  14.410
58961W        W18255  10.189  20.631   4.289
58962W        W18256  11.632  13.336  14.945
58963W        W18257  41.031   2.732  10.903
58964W        W18258   3.797  38.839   3.363
58965W        W18259  17.737  21.173  14.995
58966W        W18260  31.607  23.126   0.959
58967W        W18261  36.894  12.655  11.050
58968W        W18262  28.176  20.709  10.504
58969W        W18263  29.142  34.425  12.344
58970W        W18264  32.604  19.662   0.316
58971W        W18265  11.372   8.370  12.001
58972W        W18266  28.947   7.736  13.510
58973W        W18267   3.903  22.708   2.851
58974W        W18268  31.025  28.591  12.053
58975W        W18269  26.641   9.162   2.300
58976W        W18270  19.692  26.154   3.709
58977W        W18271   7.901  33.448   2.208
58978W        W18272  40.964   4.881   2.265
58979W        W18273  17.752  34.522   1.809
58980W        W18274  33.583  27.484   0.775
58981W        W18275  24.693   1.338  12.847
58982W        W18276  28.085  25.017   2.697
58983W        W18277  29.957   0.420  13.382
58984W        W18278  35.049  31.636  10.615
58985W        W18279  12.665   9.785  10.593
58986W        W18280   4.909  35.964  12.566
58987W        W18281   7.789   2.851   5.321
58988W        W18282  39.521  37.464  13.395
58989W        W18283  13.215  26.043  12.050
58990W        W18284  26.556  17.103   1.782
58991W        W18285  28.549  28.123   3.713
58992W        W18286  26.475  24.562   0.301
58993W        W18287  16.097   4.943  10.432
58994W        W18288  16.732  29.128   3.247
58995W        W18289  20.675  39.932   1.213
58996W        W18290  41.947  16.300   2.400
58997W        W18291   1.376  30.946   0.294
58998W        W18292  38.399  26.609  14.322
58999W        W18293  30.548  18.774   2.268
59000W        W18294  43.771  34.518  12.341
59001W        W18295  27.572  29.663   0.365
59002W        W18296  35.868   3.710   4.260
59003W        W18297  15.280  13.815   4.213
59004W        W18298  16.795   8.356  14.854
59005W        W18299   0.422  42.458  11.108
59006W        W18300   0.849  24.484   1.221
59007W        W18301  12.705  20.198  11.070
59008W        W18302   5.925   6.733   0.422
59009W        W18303   4.357  28.019  13.952
59010W        W18304  25.108   8.864   1.259
59011W        W18305   1.831  13.298  11.128
59012W        W18306  34.995   1.808   1.246
59013W        W18307  24.131  37.500   0.252
59014W        W18308  34.866  21.137  13.538
59015W        W18309  19.775   5.435   3.712
59016W        W18310  39.052  19.645   5.304
59017W        W18311   7.833  41.820   3.353
59018W        W18312  30.532  38.340   3.817
59019W        W18313  24.529  17.682  12.396
59020W        W18314  31.099  39.908   4.660
59021W        W18315  14.644  12.186   2.685
59022W        W18316  33.006   1.866  12.528
59023W        W18317  36.938  32.572   0.436
59024W        W18318  18.618  18.580   0.403
59025W        W18319  42.960  38.494   1.778
59026W        W18320  19.584  24.497  11.090
59027W        W18321  39.895  23.654   4.235
59028W        W18322   6.403   0.846  14.953
59029W        W18323  37.346  11.771   3.302
59030W        W18324  39.368  19.738   2.326
59031W        W18325  43.938  22.532   0.939
59032W        W18326   9.285  26.627  12.845
59033W        W18327  37.521  27.614  11.522
59034W        W18328  24.615  37.878  14.784
59035W        W18329  35.435  15.595  13.526
59036W        W18330  22.021  30.137  14.415
59037W        W18331  30.533  42.830   3.735
59038W        W18332  15.802   2.366   4.677
59039W        W18333   3.811  39.980   4.685
59040W        W18334  21.163  30.461   1.886
59041W        W18335  15.219  38.986  13.547
59042W        W18336   0.887   0.265  10.412
59043W        W18337  33.916  21.736  11.889
59044W        W18338  31.541  26.505   1.841
59045W        W18339  15.242  25.009  10.892
59046W        W18340  16.085  23.199  13.339
59047W        W18341  37.926  20.174  10.481
59048W        W18342   7.847  26.138   0.364
59049W        W18343   4.893   4.308   1.302
59050W        W18344  19.051   8.738   2.894
59051W        W18345  14.833   5.224  12.363
59052W        W18346   2.937  27.085  14.488
59053W        W18347   0.367   5.908  14.386
59054W        W18348  44.773   8.284  12.897
59055W        W18349  39.064  33.048   4.278
59056W        W18350   6.426  34.386   1.862
59057W        W18351  37.857  34.549  14.020
59058W        W18352   6.338  29.081   3.867
59059W        W18353  25.076  27.456   2.224
59060W        W18354   5.754  22.541   4.274
59061W        W18355  40.414  40.486  10.108
59062W        W18356   2.262  40.355   0.836
59063W        W18357   1.883  29.006   3.785
59064W        W18358  40.459  39.040  11.452
59065W        W18359   8.399  35.049  12.003
59066W        W18360  26.665   2.752   0.736
59067W        W18361  25.964  12.328  14.987
59068W        W18362  35.094  10.655   9.594
59069W        W18363   0.361  33.427  12.376
59070W        W18364  13.142   9.298   3.240
59071W        W18365  41.417   0.771  13.883
59072W        W18366  31.042   9.260   1.748
59073W        W18367   3.753   9.354   4.613
59074W        W18368  27.580  18.682  14.413
59075W        W18369  37.406   9.246  10.937
59076W        W18370  20.740  19.083   0.915
59077W        W18371  32.443   1.258  11.893
59078W        W18372  18.774   3.370  10.077
59079W        W18373  36.985  38.836   0.761
59080W        W18374  42.287  39.000  13.413
59081W        W18375   8.198  13.645  12.479
59082W        W18376  17.571  11.185  10.562
59083W        W18377   1.310   4.314   2.743
59084W        W18378  13.700   8.350  13.530
59085W        W18379  31.551  27.594   3.192
59086W        W18380   6.289  11.219   3.768
59087W        W18381  19.054  23.126   9.952
59088W        W18382  39.520  12.252   2.354
59089W        W18383   1.871  13.121  10.555
59090W        W18384  40.808  37.361   1.724
59091W        W18385  13.772  29.542   1.785
59092W        W18386  26.984  30.090   2.684
59093W        W18387  21.714  40.825  14.412
59094W        W18388  15.213  35.409  11.117
59095W        W18389  39.049  41.026   2.297
59096W        W18390  18.256   7.837  13.363
59097W        W18391  17.715   3.216   4.746
59098W        W18392  26.976   3.921  14.322
59099W        W18393  13.238  31.461  13.797
59100W        W18394  18.683  37.536   0.427
59101W        W18395  43.881  23.175   2.765
59102W        W18396  39.539   2.860   1.357
59103W        W18397   4.328  32.495   1.750
59104W        W18398   3.259   4.730  14.396
59105W        W18399  40.358  10.242  10.430
59106W        W18400  33.397  25.165   1.727
59107W        W18401  27.116  41.473  14.330
59108W        W18402  29.003  21.231   1.297
59109W        W18403  37.406  32.999   1.851
59110W        W18404  32.555  34.437  12.064
59111W        W18405  17.608  19.050   4.769
59112W        W18406  20.143  22.186   4.825
59113W        W18407  16.205  38.902   3.870
59114W        W18408  13.350  20.648   1.283
59115W        W18409  20.732  21.243  11.034
59116W        W18410  27.977  43.886   3.226
59117W        W18411  27.518  28.045  13.915
59118W        W18412  24.137  18.256   3.739
59119W        W18413  15.602  15.161  11.049
59120W        W18414   2.467  39.857   3.770
59121W        W18415  35.462  32.578  10.423
59122W        W18416  36.863   6.210   3.365
59123W        W18417  31.962   7.716   3.650
59124W        W18418  23.176   0.334   0.293
59125W        W18419  20.102  19.588   1.374
59126W        W18420  18.698   8.812  14.862
59127W        W18421   8.180  44.927   0.829
59128W        W18422  21.166  43.500  12.402
59129W        W18423   2.875  30.154  11.394
59130W        W18424  18.737   7.308  11.978
59131W        W18425  20.065  20.170   4.242
59132W        W18426  41.323  33.088   0.736
59133W        W18427   3.416   5.690  12.018
59134W        W18428  17.125  34.898   5.315
59135W        W18429  17.747  42.938  12.939
59136W        W18430  10.333  23.543   2.817
59137W        W18431  37.509  10.695   2.668
59138W        W18432   2.430  11.746   3.317
59139W        W18433  35.371  37.927   3.205
59140W        W18434  41.876   5.200   4.227
59141W        W18435   1.748  14.128   3.379
59142W        W18436  17.144  30.104   4.808
59143W        W18437   9.312  17.220  13.024
59144W        W18438  20.242  30.639   5.187
59145W        W18439  30.035  35.383  12.375
59146W        W18440   1.928  37.083  11.123
59147W        W18441  42.944  15.738  11.054
59148W        W18442  42.339  42.016  10.991
59149W        W18443  27.561  39.987   9.620
59150W        W18444  12.150  18.663   1.806
59151W        W18445  18.632  31.547  11.499
59152W        W18446  42.838  42.987  12.090
59153W        W18447  25.191   1.265   4.648
59154W        W18448  10.313  26.953  11.908
59155W        W18449  36.960   9.333  13.845
59156W        W18450   6.228  35.392  11.454
59157W        W18451  16.287  27.650  11.987
59158W        W18452   0.264  38.960  11.899
59159W        W18453  14.105  15.667   3.363
59160W        W18454  20.224  10.749  11.897
59161W        W18455  28.151   0.765  14.484
59162W        W18456   4.829   3.780   4.730
59163W        W18457  15.224  32.445  14.788
59164W        W18458  18.127   6.788  11.919
59165W        W18459   9.728  33.457   1.804
59166W        W18460   0.346  35.573   4.739
59167W        W18461  11.212   7.178   0.956
59168W        W18462  13.212   9.190   2.356
59169W        W18463  22.139   1.823  12.972
59170W        W18464  29.152  34.393  14.402
59171W        W18465  21.168  37.352  10.592
59172W        W18466  15.783  10.274   5.693
59173W        W18467  15.722  22.100  12.096
59174W        W18468  28.080   8.280   4.635
59175W        W18469  34.499   8.764   0.421
59176W        W18470  11.298   6.818  12.441
59177W        W18471  20.249  18.265  11.928
59178W        W18472  22.214   5.418  10.417
59179W        W18473  20.219  12.171  11.068
59180W        W18474  15.617  37.858  11.949
59181W        W18475  31.647   9.738   2.780
59182W        W18476  28.653  37.958  10.070
59183W        W18477  20.191  43.932  11.938
59184W        W18478  24.218   0.473   0.800
59185W        W18479  39.338   4.797   2.677
59186W        W18480  13.209  12.179   5.130
59187W        W18481  18.115  43.021   1.875
59188W        W18482   5.901   2.811  11.009
59189W        W18483  10.672   3.843   2.400
59190W        W18484  14.778  32.910  14.861
59191W        W18485  24.171   2.806  14.781
59192W        W18486   5.295  37.417  14.477
59193W        W18487  32.953  33.381  12.033
59194W        W18488  38.846  19.275   3.155
59195W        W18489  29.662  32.613  13.546
59196W        W18490  26.097   5.850   0.863
59197W        W18491  20.650  39.035   2.695
59198W        W18492  33.066  37.363   3.668
59199W        W18493  11.738  16.097   3.207
59200W        W18494  43.955  19.201  14.984
59201W        W18495   7.689  33.118  13.356
59202W        W18496  43.506  33.399  14.455
59203W        W18497  17.692  20.677   1.410
59204W        W18498  43.810  18.168  12.095
59205W        W18499  32.400   3.217   3.215
59206W        W18500  12.649  40.549  13.478
59207W        W18501  28.511  43.918  10.467
59208W        W18502  14.242   7.204  13.013
59209W        W18503  38.855  19.091   0.961
59210W        W18504  22.170  37.062  13.904
59211W        W18505   9.309  10.181   2.184
59212W        W18506  10.715  40.823  11.114
59213W        W18507  24.713  14.617   0.336
59214W        W18508   6.782   9.223  14.490
59215W        W18509  43.883  33.029   1.435
59216W        W18510  22.041   0.412   4.208
59217W        W18511  23.081  19.088   0.800
59218W        W18512  28.132  20.127  14.952
59219W        W18513  38.554  16.702   0.907
59220W        W18514  21.532  21.142   3.322
59221W        W18515  41.864  10.877   1.318
59222W        W18516  43.865  39.389   1.930
59223W        W18517  19.628  38.940   0.865
59224W        W18518  37.487  28.082   4.163
59225W        W18519  20.058  24.559   1.806
59226W        W18520  19.170  27.547  14.825
59227W        W18521  13.199  33.909   1.898
59228W        W18522  42.407   4.224  11.529
59229W        W18523  37.952  27.974  10.136
59230W        W18524  39.864  21.167   2.774
59231W        W18525  16.793   7.328   3.177
59232W        W18526  40.333  28.180   3.783
59233W        W18527  35.509  19.742  12.022
59234W        W18528  41.808   7.241  13.904
59235W        W18529  44.990  20.593   3.174
59236W        W18530  43.961  28.001   2.734
59237W        W18531  24.502  38.935  13.509
59238W        W18532  14.133  25.640   5.086
59239W        W18533  10.142  36.518  14.380
59240W        W18534  17.275  22.190  12.983
59241W        W18535  20.034  23.615   3.685
59242W        W18536  41.348  19.281  10.586
59243W        W18537  42.317  40.896  14.436
59244W        W18538  22.161  31.547  13.509
59245W        W18539   9.228  30.006   5.566
59246W        W18540  22.022  14.822   3.345
59247W        W18541  31.076   7.253   2.253
59248W        W18542  15.196  18.645  12.051
59249W        W18543  32.051  17.274  11.417
59250W        W18544  25.211  38.047  12.048
59251W        W18545  25.667  30.042  11.533
59252W        W18546  34.434   0.377   1.393
59253W        W18547  12.719  40.455  12.904
59254W        W18548  17.664  23.992  11.488
59255W        W18549   5.785  16.808   4.765
59256W        W18550  24.148  33.541  10.625
59257W        W18551  15.169  42.381  14.868
59258W        W18552  30.575   9.647  13.318
59259W        W18553  40.985  28.628  11.874
59260W        W18554  21.219  11.862  10.912
59261W        W18555  22.102   4.749  12.417
59262W        W18556  21.112  26.697  12.968
59263W        W18557  19.251  29.596   0.732
59264W        W18558   6.188   6.678  12.389
59265W        W18559   5.438  25.473   4.673
59266W        W18560   6.284  12.347   1.424
59267W        W18561   9.269  27.529   4.747
59268W        W18562  41.948  23.717   9.951
59269W        W18563  40.004  37.928  12.865
59270W        W18564  15.612  32.966   3.190
59271W        W18565   6.276  21.679  12.021
59272W        W18566  33.895   0.816  13.898
59273W        W18567  30.972  43.380   4.804
59274W        W18568  11.245  18.755  10.977
59275W        W18569  31.567  15.163   4.750
59276W        W18570   5.757  13.233  11.608
59277W        W18571   9.174  18.789  13.847
59278W        W18572  30.590  28.635   1.360
59279W        W18573  39.935  21.589   2.813
59280W        W18574  44.384  12.295   3.211
59281W        W18575  20.053   3.385   1.326
59282W        W18576  28.638  28.510  11.022
59283W        W18577  29.533  10.353  10.905
59284W        W18578  33.121  39.008  11.029
59285W        W18579  16.813  24.137  11.449
59286W        W18580  37.857   4.820   3.629
59287W        W18581  30.634  38.328  13.455
59288W        W18582  13.803   4.333  13.362
59289W        W18583   0.457  20.753  12.994
59290W        W18584  29.610  16.091   1.350
59291W        W18585  14.720  39.490   2.189
59292W        W18586  19.572  31.409   1.866
59293W        W18587  36.849  25.169  10.552
59294W        W18588  14.774  10.162   1.896
59295W        W18589  13.285  31.110  11.489
59296W        W18590  33.070   1.896   4.212
59297W        W18591  26.538  44.459  10.625
59298W        W18592  10.346  32.421  14.937
59299W        W18593  17.066   1.243   0.336
59300W        W18594  22.505  23.227  12.897
59301W        W18595  30.943   3.439   5.159
59302W        W18596   4.881  26.177  14.786
59303W        W18597  10.330  29.928   0.299
59304W        W18598  27.088  24.000   3.655
59305W        W18599  19.697  14.777  14.286
59306W        W18600   3.431  35.029  14.845
59307W        W18601  27.613  29.050   4.767
59308W        W18602  30.148  23.683   1.444
59309W        W18603  32.892  13.154  10.946
59310W        W18604   0.771  41.293  10.449
59311W        W18605  14.797  19.179  13.483
59312W        W18606  33.073  34.991  13.949
59313W        W18607  32.961   1.882   1.396
59314W        W18608   4.378  34.880  11.013
59315W        W18609  38.421  27.548   0.447
59316W        W18610  44.296  15.773  12.967
59317W        W18611  16.644  24.691  11.986
59318W        W18612   4.859   1.737   2.797
59319W        W18613   1.483  23.561  12.567
59320W        W18614   0.839  12.189   2.397
59321W        W18615  34.973  17.592   0.831
59322W        W18616  33.441  19.240   0.365
59323W        W18617   7.372  23.197  12.519
59324W        W18618  38.984  22.705   2.206
59325W        W18619  43.500   0.918   2.327
59326W        W18620  25.076   3.410   1.391
59327W        W18621  17.669  18.723  11.520
59328W        W18622  30.165  37.895  10.935
59329W        W18623  43.963  10.818   0.345
59330W        W18624  34.892  14.113   2.779
59331W        W18625  29.938  22.584   4.603
59332W        W18626  41.859  32.066   1.314
59333W        W18627  18.723  31.613  13.379
59334W        W18628   5.367  36.532   2.251
59335W        W18629   7.899  39.017  12.892
59336W        W18630  30.460  27.957  11.022
59337W        W18631   3.339   3.304   0.937
59338W        W18632  17.620   9.880   2.354
59339W        W18633   3.727  35.484  13.053
59340W        W18634  12.151  23.504   0.767
59341W        W18635  39.395  36.903   2.845
59342W        W18636   7.237  30.471   1.243
59343W        W18637   3.732  18.254   1.737
59344W        W18638  43.817   7.720   2.359
59345W        W18639   8.829  38.069   3.715
59346W        W18640  27.102  29.115   5.197
59347W        W18641  39.473  39.403  12.994
59348W        W18642   6.868   0.911  11.603
59349W        W18643  14.763   9.179   2.405
59350W        W18644   5.223  11.161   1.704
59351W        W18645  29.982   7.769   0.795
59352W        W18646  34.974  26.181  10.943
59353W        W18647  32.546  33.555   1.695
59354W        W18648  11.750   3.352   0.414
59355W        W18649   2.773  33.108   0.814
59356W        W18650   9.682   6.319  13.037
59357W        W18651  21.621   3.781  13.950
59358W        W18652  36.533  20.098  11.858
59359W        W18653  17.708   3.347   3.189
59360W        W18654  29.092   0.349  10.959
59361W        W18655  38.967  38.019  13.503
59362W        W18656  24.134  19.172  12.038
59363W        W18657  26.465  22.018   9.958
59364W        W18658  24.725  10.190  12.479
59365W        W18659  24.489  17.721   1.845
59366W        W18660  20.095  25.545   3.351
59367W        W18661  15.158  11.192  11.903
59368W        W18662  30.634  38.981  14.411
59369W        W18663  16.690  39.490  14.921
59370W        W18664  16.313  17.631  10.540
59371W        W18665  33.443  16.696   0.380
59372W        W18666   4.839  39.365   0.247
59373W        W18667  34.869  19.756   5.207
59374W        W18668   0.849  22.167   1.359
59375W        W18669  12.296  11.317  14.368
59376W        W18670   1.758   6.265  13.313
59377W        W18671  23.123  34.528   3.645
59378W        W18672  37.365  32.107   5.186
59379W        W18673  10.367  26.071   3.206
59380W        W18674   7.848  17.079  11.475
59381W        W18675  41.926  12.780  13.007
59382W        W18676  13.656  37.461  12.961
59383W        W18677  16.669  41.394  12.956
59384W        W18678  27.497   4.206   2.206
59385W        W18679  33.423   5.328   4.764
59386W        W18680  43.875  21.742   2.760
59387W        W18681   5.195  27.682   3.354
59388W        W18682  22.029  31.011   2.292
59389W        W18683  22.112  15.269   1.327
59390W        W18684  20.096   2.901  13.492
59391W        W18685  40.431  32.989   4.802
59392W        W18686   2.936  35.381  12.925
59393W        W18687  10.702  42.953   0.906
59394W        W18688  19.110  27.566   3.794
59395W        W18689   4.828  23.022   4.186
59396W        W18690   4.291  14.597   4.210
59397W        W18691  30.102  30.087  10.470
59398W        W18692  14.336   9.661   0.454
59399W        W18693  31.966  17.780  14.341
59400W        W18694  35.874  43.339  13.345
59401W        W18695  16.628  44.262  12.466
59402W        W18696  35.548  34.372  13.913
59403W        W18697  39.011  24.115   1.364
59404W        W18698   8.737   2.289   3.202
59405W        W18699  43.296  44.344   5.804
59406W        W18700  42.789  35.910   3.292
59407W        W18701  30.438   6.317   3.835
59408W        W18702  11.830   8.298  12.484
59409W        W18703  10.230  36.462   2.400
59410W        W18704  38.453  21.598  13.055
59411W        W18705  38.559   7.304  14.815
59412W        W18706  16.643  37.357  13.491
59413W        W18707  19.718  16.764  12.054
59414W        W18708  11.791   8.363   1.300
59415W        W18709  31.002  36.537   1.788
59416W        W18710  23.628  42.472   4.245
59417W        W18711  20.523  13.348  12.097
59418W        W18712  15.735  19.737   5.686
59419W        W18713  32.508  29.503   0.960
59420W        W18714  20.232   4.285  10.605
59421W        W18715  30.132  19.195  12.013
59422W        W18716  17.244   1.432   1.849
59423W        W18717   2.770  39.404   1.723
59424W        W18718  31.634  33.399  10.603
59425W        W18719  17.210  23.541  11.052
59426W        W18720  11.816  28.941   4.601
59427W        W18721  35.074  44.820  13.347
59428W        W18722  10.178   5.338  12.579
59429W        W18723  42.427  30.035  10.896
59430W        W18724  20.658   6.424  10.417
59431W        W18725  39.829   8.352  11.594
59432W        W18726   1.869  23.102   2.767
59433W        W18727  24.085  37.365  12.918
59434W        W18728  16.305  15.090   3.318
59435W        W18729  16.275  41.439   3.295
59436W        W18730   9.646  39.047  13.831
59437W        W18731  36.349  26.680  10.434
59438W        W18732  35.397   8.213   0.445
59439W        W18733  26.123  10.706   2.345
59440W        W18734   2.874  30.153  13.813
59441W        W18735   0.362  23.088  13.846
59442W        W18736   9.373  24.511   4.217
59443W        W18737   5.709  16.206   4.615
59444W        W18738  25.046  35.874  12.927
59445W        W18739   7.894  42.364  12.339
59446W        W18740  10.674   7.274   1.777
59447W        W18741  34.895  35.496   3.357
59448W        W18742  15.741  36.049  11.582
59449W        W18743  36.989  19.725   2.278
59450W        W18744  28.059   3.846  11.483
59451W        W18745  28.669  39.991   3.276
59452W        W18746   6.381  15.711  13.051
59453W        W18747  19.166  33.444  13.792
59454W        W18748  18.640   6.770   3.731
59455W        W18749  22.531  22.171   1.258
59456W        W18750  22.017  37.952   4.324
59457W        W18751  35.067   5.321  11.947
59458W        W18752  41.031  42.027  13.979
59459W        W18753  15.701  10.234   0.287
59460W        W18754  35.595   3.446   1.752
59461W        W18755  26.575  37.370  11.406
59462W        W18756  31.521   8.779   0.822
59463W        W18757   4.450  36.089   1.826
59464W        W18758   9.374   1.837  14.293
59465W        W18759  15.776   1.879   0.419
59466W        W18760  17.605  41.455  14.468
59467W        W18761  34.517   9.299  14.812
59468W        W18762   1.372  11.804   4.246
59469W        W18763  12.760  28.084   1.895
59470W        W18764   3.745  32.526  11.036
59471W        W18765  43.294   1.778  12.374
59472W        W18766   5.696   3.921   0.280
59473W        W18767  44.907   9.685  12.509
59474W        W18768  17.169  43.516  10.991
59475W        W18769  16.740  18.224  13.937
59476W        W18770  31.465   5.877   0.862
59477W        W18771   1.421   0.361  10.519
59478W        W18772   7.824  29.604   2.844
59479W        W18773  16.604  23.048  14.956
59480W        W18774  29.619  30.910  10.960
59481W        W18775  12.194  37.432  13.831
59482W        W18776  11.742  21.025   1.249
59483W        W18777   5.729   5.429  14.816
59484W        W18778  44.301  36.927   4.825
59485W        W18779  43.872  12.188   1.364
59486W        W18780  30.608  24.590  12.014
59487W        W18781  11.224  41.490   1.433
59488W        W18782  13.208  16.733   4.275
59489W        W18783  42.783  21.571   0.256
59490W        W18784  17.281  37.457  10.899
59491W        W18785  29.954  23.190   2.291
59492W        W18786  34.953  19.639  14.510
59493W        W18787  11.224  32.085   1.738
59494W        W18788  36.066   0.849  10.496
59495W        W18789  29.644  13.182  14.923
59496W        W18790  43.338  12.170  11.443
59497W        W18791  38.007   6.324  14.436
59498W        W18792  20.644  11.162  10.021
59499W        W18793  26.503  35.473   3.245
59500W        W18794  44.921  23.672   4.767
59501W        W18795   1.323  15.695   5.306
59502W        W18796  16.284  35.982   1.388
59503W        W18797   9.167  31.464  14.008
59504W        W18798  44.376  42.974  11.538
59505W        W18799   5.841   7.778   1.710
59506W        W18800  24.611  38.859  13.979
59507W        W18801   6.197  43.928   1.410
59508W        W18802  17.602  24.618  13.988
59509W        W18803  26.600  15.768   3.279
59510W        W18804   7.680  32.090  11.602
59511W        W18805   7.389  33.496   0.472
59512W        W18806  13.693   2.227  10.481
59513W        W18807  42.020  42.944  10.933
59514W        W18808  34.509  11.626  14.281
59515W        W18809  15.087   8.654  13.796
59516W        W18810  33.397  32.593   4.776
59517W        W18811  42.488   5.829   1.375
59518W        W18812  44.503  16.809  11.416
59519W        W18813   8.167   3.322  11.467
59520W        W18814  31.608  10.299   9.978
59521W        W18815  32.423  42.875  11.589
59522W        W18816  11.268  29.621   4.214
59523W        W18817  12.331  22.696   1.928
59524W        W18818  16.682  33.004  14.856
59525W        W18819  25.965  28.117   1.711
59526W        W18820  22.131  38.982   0.444
59527W        W18821   8.726  35.362   1.804
59528W        W18822   2.721  36.356  13.519
59529W        W18823  21.178   3.847   0.849
59530W        W18824  11.344  24.516   1.394
59531W        W18825  16.604   6.909  12.096
59532W        W18826  24.681  29.530  11.006
59533W        W18827  35.855   0.977   5.147
59534W        W18828  40.413   9.667  13.503
59535W        W18829   0.984  25.158  14.442
59536W        W18830  33.886  22.713  14.442
59537W        W18831   1.861  23.720   4.323
59538W        W18832  31.020  43.806  12.076
59539W        W18833  10.715   2.431   3.199
59540W        W18834  37.551  34.084  14.855
59541W        W18835  12.136  35.439  10.568
59542W        W18836  17.146  41.329   9.977
59543W        W18837  16.161   4.827   4.727
59544W        W18838  25.669  40.352  10.440
59545W        W18839  15.299  36.993  12.500
59546W        W18840  33.402  24.557  12.842
59547W        W18841  16.158   5.913  13.836
59548W        W18842  10.686   4.811  13.476
59549W        W18843  31.113  14.704   4.658
59550W        W18844  28.494  28.931   2.382
59551W        W18845  43.975  11.135  12.843
59552W        W18846  36.863  14.315   4.659
59553W        W18847  33.605  38.943   5.126
59554W        W18848  11.200  16.294   2.732
59555W        W18849  29.103  38.022  13.507
59556W        W18850  36.847  43.011  13.463
59557W        W18851  35.375  25.189   4.288
59558W        W18852  21.609   5.295   2.273
59559W        W18853  18.610  42.406   4.773
59560W        W18854  33.608   5.259  10.914
59561W        W18855  24.071  13.681  14.765
59562W        W18856  25.121  20.158   5.273
59563W        W18857  31.104  36.920  14.349
59564W        W18858   6.914  27.024   4.691
59565W        W18859  16.283   9.364   0.844
59566W        W18860  42.318  11.283  11.912
59567W        W18861  28.006  11.784   1.797
59568W        W18862  21.075  39.344   3.822
59569W        W18863  20.181  42.299  14.872
59570W        W18864  12.245  41.520  11.084
59571W        W18865  23.093   1.385   3.331
59572W        W18866  44.498   6.399  13.322
59573W        W18867  38.980  41.021   1.313
59574W        W18868  17.299   4.730   2.808
59575W        W18869   5.729   3.875   3.742
59576W        W18870   6.787  14.262  11.932
59577W        W18871  32.927  23.081  10.517
59578W        W18872   4.359  33.605  13.931
59579W        W18873  23.198  12.652   4.192
59580W        W18874  30.507  36.535   2.767
59581W        W18875   7.891  37.959  12.018
59582W        W18876  23.622   5.272   1.314
59583W        W18877  22.227  43.780   3.830
59584W        W18878   2.465  11.649  13.494
59585W        W18879  16.284   4.236   0.467
59586W        W18880   6.285   9.819  10.622
59587W        W18881  38.530  42.464   4.345
59588W        W18882  15.807  40.413  12.538
59589W        W18883  15.710   8.397  11.449
59590W        W18884   6.362  40.885   2.407
59591W        W18885  19.100  24.226   1.710
59592W        W18886   8.758  23.549  10.074
59593W        W18887  41.391  14.182  13.988
59594W        W18888  43.812  40.330  10.477
59595W        W18889  35.099  16.102   4.767
59596W        W18890  29.592   8.349   1.934
59597W        W18891  11.746  19.161   1.350
59598W        W18892  29.979  18.171   4.677
59599W        W18893  21.729   6.221  11.128
59600W        W18894  24.659  38.483  14.451
59601W        W18895   9.288  16.775  14.946
59602W        W18896   7.809  21.690  14.967
59603W        W18897  19.227  17.223  12.434
59604W        W18898  13.318  40.322  14.915
59605W        W18899  20.763  30.991  12.393
59606W        W18900  44.893  34.112  11.993
59607W        W18901  21.536  25.130  14.402
59608W        W18902  39.999  32.078  12.913
59609W        W18903  27.507   4.345   3.839
59610W        W18904  19.598  35.414  10.968
59611W        W18905  29.571  24.014   1.418
59612W        W18906  23.562  14.811   3.148
59613W        W18907   5.247  34.984  13.520
59614W        W18908  37.050  36.995   4.290
59615W        W18909  33.546  39.531  13.049
59616W        W18910  13.237  43.965  13.369
59617W        W18911  19.595   5.871  11.001
59618W        W18912  29.622  27.562  12.569
59619W        W18913  38.026  18.705  14.007
59620W        W18914   8.667  32.015  11.997
59621W        W18915  31.598  44.430   0.430
59622W        W18916  41.831  37.927  12.358
59623W        W18917  23.631  39.836  12.343
59624W        W18918  18.237   8.250  11.403
59625W        W18919  15.203   9.280   0.381
59626W        W18920  21.199  32.046  14.467
59627W        W18921  20.179  31.013  14.480
59628W        W18922  17.140   6.719   0.375
59629W        W18923  41.908  10.383  14.972
59630W        W18924  44.998  14.668  11.607
59631W        W18925  43.480  40.026   0.415
59632W        W18926  15.321  41.438   4.115
59633W        W18927  43.923   2.323   1.758
59634W        W18928  35.058  29.667   1.285
59635W        W18929  34.072  27.073   3.687
59636W        W18930   4.391   2.377   5.133
59637W        W18931  21.660  16.085   2.263
59638W        W18932  38.904  39.040  14.793
59639W        W18933   8.853  10.317   3.708
59640W        W18934  43.835  36.057   3.783
59641W        W18935  27.662  37.063  12.915
59642W        W18936  22.602   3.405  12.516
59643W        W18937   3.752   4.879   9.984
59644W        W18938  22.606  20.036   3.281
59645W        W18939  26.574   8.835   2.280
59646W        W18940  41.533  34.977  11.912
59647W        W18941  37.486  41.529  13.898
59648W        W18942  40.534  32.023  12.837
59649W        W18943  40.844   2.728  11.954
59650W        W18944  29.662  32.390   3.849
59651W        W18945  18.064  16.126   0.873
59652W        W18946  42.867  14.316   2.199
59653W        W18947  37.043  40.855   2.298
59654W        W18948  32.900   3.450  11.410
59655W        W18949   7.375  27.040   2.371
59656W        W18950  11.274  22.058   1.700
59657W        W18951  35.397   6.914  10.584
59658W        W18952  27.582  40.881   1.700
59659W        W18953  29.535  14.214   5.244
59660W        W18954  40.800  14.198   3.777
59661W        W18955  24.229  21.026  11.856
59662W        W18956  27.626  24.182   4.733
59663W        W18957  13.124  10.796  14.954
59664W        W18958  22.233  10.670  11.949
59665W        W18959   9.239  39.419   2.357
59666W        W18960  18.637   4.248   4.290
59667W        W18961  28.158  15.240   2.772
59668W        W18962  42.881  44.259   0.927
59669W        W18963   1.435  13.240   3.818
59670W        W18964  35.934  38.031   4.749
59671W        W18965  40.812  27.031   4.740
59672W        W18966  35.915  24.036   4.138
59673W        W18967  11.702  43.479  12.446
59674W        W18968  43.484  11.758  11.129
59675W        W18969  38.470   7.197   2.179
59676W        W18970   5.829  18.292   3.847
59677W        W18971  26.623  23.670   0.300
59678W        W18972   0.945  40.493   0.289
59679W        W18973   0.308  28.006  12.572
59680W        W18974  41.433  17.558  11.604
59681W        W18975  20.184   2.923  14.029
59682W        W18976  27.943   0.829   4.341
59683W        W18977   4.315  34.938  12.071
59684W        W18978  24.567   5.907  14.349
59685W        W18979   7.680   4.932  11.383
59686W        W18980  38.358  14.715   1.412
59687W        W18981  31.525  37.940   3.297
59688W        W18982   6.681  18.777   5.307
59689W        W18983  38.412  26.647  11.856
59690W        W18984  43.769  37.493  12.029
59691W        W18985  11.664  14.172  10.528
59692W        W18986  23.506  28.044  12.040
59693W        W18987  24.692  10.674  10.020
59694W        W18988   6.803   6.201   2.708
59695W        W18989  42.025  38.569  14.361
59696W        W18990  34.494   3.323  10.921
59697W        W18991  12.775  31.058   5.279
59698W        W18992  33.035   0.888   0.398
59699W        W18993  26.694  44.361   3.836
59700W        W18994  34.101  40.026   4.307
59701W        W18995  35.392   5.376   4.769
59702W        W18996   5.719  35.933  12.832
59703W        W18997  40.518  25.502   4.677
59704W        W18998  27.625  31.624   0.747
59705W        W18999   2.350  11.171  11.473
59706W        W19000  14.168   9.212   4.338
59707W        W19001  20.548   3.720   0.911
59708W        W19002  26.661  37.502   0.464
59709W        W19003  24.053  20.170   1.237
59710W        W19004   3.951  38.891   2.762
59711W        W19005   8.806  41.497   1.400
59712W        W19006  10.257  43.271   2.758
59713W        W19007  18.752  18.636   3.797
59714W        W19008  25.113  11.363  14.445
59715W        W19009  17.792  30.125   0.385
59716W        W19010  20.619   5.904   0.801
59717W        W19011  30.057  28.008   4.346
59718W        W19012  14.784  18.603   0.428
59719W        W19013   1.837  15.685  13.401
59720W        W19014  17.167  30.635  12.838
59721W        W19015  17.207   3.904   3.246
59722W        W19016   6.368   9.829  14.842
59723W        W19017  12.309  30.648  13.539
59724W        W19018  17.247  32.529   4.615
59725W        W19019  19.281   5.821  10.411
59726W        W19020  18.653  29.955   0.302
59727W        W19021   6.386  15.323  14.999
59728W        W19022  26.130   1.824  14.769
59729W        W19023  24.998  26.532   0.948
59730W        W19024  28.574  31.415  13.338
59731W        W19025  43.990  24.659  13.373
59732W        W19026  33.068   8.315   4.616
59733W        W19027  28.941  19.707   2.245
59734W        W19028  33.050   6.276   1.915
59735W        W19029  25.671  15.218  12.853
59736W        W19030   3.380  29.110  14.018
59737W        W19031  36.018  14.210  12.014
59738W        W19032  27.086  13.109  12.029
59739W        W19033  34.405   8.741   0.939
59740W        W19034  25.580   1.282   4.308
59741W        W19035  41.998  14.144   0.742
59742W        W19036  20.164  32.128  11.961
59743W        W19037  15.764  39.514   2.838
59744W        W19038  37.395  39.535  13.982
59745W        W19039  37.552  28.604  11.428
59746W        W19040  33.489  38.934  14.915
59747W        W19041   1.737   7.185   2.895
59748W        W19042   9.214  35.530   1.406
59749W        W19043  15.188  23.591  12.347
59750W        W19044  36.495  23.554  12.504
59751W        W19045  22.733  35.978   2.686
59752W        W19046   7.669  29.535  12.483
59753W        W19047  21.097  30.525   3.384
59754W        W19048  33.430  42.939  13.799
59755W        W19049  30.000  19.194  10.986
59756W        W19050  38.471  13.108   2.746
59757W        W19051  41.454  24.177   1.326
59758W        W19052  21.643  26.020  12.931
59759W        W19053  36.572  18.180   2.850
59760W        W19054  17.794  10.839   3.814
59761W        W19055  31.089   1.972   2.763
59762W        W19056  14.760  10.351  14.987
59763W        W19057  43.873   2.945  11.879
59764W        W19058  39.917  37.562   0.958
59765W        W19059  37.885  29.971   3.771
59766W        W19060   1.966  16.788  13.477
59767W        W19061  40.403   4.430  14.326
59768W        W19062   1.953  15.818  13.962
59769W        W19063  41.824   4.922  12.009
59770W        W19064  11.713   5.914   4.673
59771W        W19065  14.337   9.373   4.724
59772W        W19066  38.354  38.900   3.241
59773W        W19067  38.505   1.878  11.451
59774W        W19068  10.370  35.891   0.250
59775W        W19069  24.090  38.565  11.392
59776W        W19070  44.410   5.801  12.390
59777W        W19071   1.483  22.684   0.787
59778W        W19072  20.190   8.702   0.388
59779W        W19073  19.729  20.115  12.996
59780W        W19074  11.750  28.040  14.325
59781W        W19075  32.964  43.339  10.942
59782W        W19076  15.306  24.168  14.764
59783W        W19077   5.774  15.158   0.284
59784W        W19078  19.775  35.416   2.807
59785W        W19079   8.784  25.520  11.905
59786W        W19080  35.405  27.691  13.809
59787W        W19081  21.071  25.653  12.419
59788W        W19082  19.566  13.106  14.841
59789W        W19083  24.184   4.375   4.618
59790W        W19084  35.500   1.767  12.871
59791W        W19085  32.933  30.078  11.063
59792W        W19086  38.427   0.318   0.420
59793W        W19087  36.047   6.745  10.632
59794W        W19088  33.927   9.170  14.390
59795W        W19089  21.181   0.750   0.326
59796W        W19090   4.731  11.160   1.785
59797W        W19091  32.951   9.231  13.002
59798W        W19092  31.438   1.856  14.980
59799W        W19093  21.732  29.451   0.883
59800W        W19094  32.035   3.241  10.083
59801W        W19095  27.619  16.118   1.896
59802W        W19096  19.661  38.491  14.940
59803W        W19097   6.901  36.350  13.992
59804W        W19098   9.678  12.283   1.245
59805W        W19099  24.974  25.548   3.328
59806W        W19100   9.231  33.607  13.841
59807W        W19101  12.307   4.851  13.029
59808W        W19102  27.119  41.320   1.806
59809W        W19103   2.916   5.242   4.636
59810W        W19104  16.680  34.380   0.281
59811W        W19105  18.215   4.880   1.785
59812W        W19106  42.500  33.504  12.844
59813W        W19107  37.347  15.281  13.856
59814W        W19108   6.918  24.523   3.649
59815W        W19109  34.003   7.258   2.726
59816W        W19110  43.837  41.003   0.474
59817W        W19111   1.349  32.967  13.891
59818W        W19112  35.857  22.208   0.373
59819W        W19113  32.041  17.776   0.265
59820W        W19114  19.650  21.047   4.265
59821W        W19115  13.249  15.299  12.908
59822W        W19116   3.735  43.445   4.296
59823W        W19117  27.022   5.253  14.373
59824W        W19118   8.832  23.736   4.818
59825W        W19119  41.299  19.739  12.026
59826W        W19120  21.558   7.694   3.278
59827W        W19121  15.719  42.481  11.588
59828W        W19122  41.350  39.430  11.448
59829W        W19123  17.082  15.673  12.854
59830W        W19124  24.040  30.155  13.331
59831W        W19125  16.597  14.675   3.775
59832W        W19126  29.612   7.289  10.952
59833W        W19127  22.241  16.307  14.775
59834W        W19128  23.067   0.879   0.355
59835W        W19129   8.364   5.861   3.705
59836W        W19130  38.029  23.062   4.177
59837W        W19131  11.222  22.575   3.339
59838W        W19132   1.386  24.650   4.314
59839W        W19133  28.007  26.001  14.025
59840W        W19134  22.683  26.555   2.762
59841W        W19135  28.969  30.963   0.385
59842W        W19136  44.900  38.452   1.909
59843W        W19137  32.918  14.111  12.957
59844W        W19138  10.193  42.837   1.378
59845W        W19139  12.138   4.750   4.309
59846W        W19140  40.491   3.818   2.242
59847W        W19141   1.796   2.323  14.800
59848W        W19142  14.175  44.884   1.853
59849W        W19143   1.296  35.493  14.013
59850W        W19144  41.836   9.214   1.311
59851W        W19145  14.099  13.777   4.764
59852W        W19146  17.624  43.878   1.742
59853W        W19147  10.313   8.774  12.870
59854W        W19148  35.535  42.990   4.701
59855W        W19149  42.883  23.680  12.993
59856W        W19150  19.276  42.332  12.471
59857W        W19151  17.066  25.971   0.317
59858W        W19152  30.917  40.344  10.625
59859W        W19153  25.997  15.260   3.316
59860W        W19154  13.797   4.206   4.679
59861W        W19155  31.582  33.976  13.922
59862W        W19156  16.278  12.829  14.346
59863W        W19157  15.668  43.323  12.566
59864W        W19158  27.039  20.622   2.269
59865W        W19159  36.518  43.472  12.577
59866W        W19160  33.112  34.029  11.472
59867W        W19161  30.439   4.725   3.212
59868W        W19162   8.245  17.657  12.073
59869W        W19163  13.700   1.885  13.384
59870W        W19164   6.268   8.765   3.250
59871W        W19165  15.674   3.349   5.241
59872W        W19166  44.803   1.847   2.413
59873W        W19167   0.253  33.069  12.831
59874W        W19168  15.601  13.311   5.766
59875W        W19169   6.731  39.391   2.701
59876W        W19170   9.156   9.754   4.130
59877W        W19171  41.949  42.854  11.374
59878W        W19172  44.261  21.208  14.869
59879W        W19173  10.748  16.167  12.441
59880W        W19174   3.815  43.858  12.532
59881W        W19175  24.524   5.264  10.503
59882W        W19176  13.136   9.385  12.946
59883W        W19177  13.843   7.302  12.054
59884W        W19178  31.573  31.986  12.567
59885W        W19179  13.200  38.536   1.402
59886W        W19180  22.234  38.479  14.377
59887W        W19181  32.087  26.039  13.323
59888W        W19182   6.700  15.240  10.538
59889W        W19183  44.410  21.098  14.350
59890W        W19184  37.987   5.399   1.852
59891W        W19185  32.543   7.349  12.468
59892W        W19186  16.708  37.378   3.249
59893W        W19187  30.952  19.636  11.054
59894W        W19188   2.301  33.414   4.231
59895W        W19189   3.359  10.813   0.730
59896W        W19190   1.740  42.296  10.580
59897W        W19191  34.910   7.236   0.922
59898W        W19192  36.580  28.571  12.475
59899W        W19193  32.558  28.049  11.027
59900W        W19194   9.329  24.195  10.067
59901W        W19195  29.468  19.772  11.423
59902W        W19196   7.847  26.594  10.977
59903W        W19197  14.748  24.991   3.792
59904W        W19198  20.708  14.296   0.458
59905W        W19199   6.834  33.574   3.313
59906W        W19200  15.127  24.608   0.747
59907W        W19201  15.743  41.395  11.859
59908W        W19202   2.736  15.126  11.497
59909W        W19203  31.998   1.272   1.925
59910W        W19204   9.818  37.886   2.227
59911W        W19205   5.385   2.467   3.236
59912W        W19206  34.411  34.988   9.955
59913W        W19207   0.381  22.525   3.384
59914W        W19208  37.536   9.664  13.964
59915W        W19209  14.754  39.940  11.566
59916W        W19210  10.771  34.537  14.030
59917W        W19211  19.548  39.013   1.414
59918W        W19212  42.299  19.286   0.884
59919W        W19213   8.715  25.081   1.223
59920W        W19214  13.206  20.640  13.819
59921W        W19215  16.652  34.539   3.369
59922W        W19216  26.506  36.397  12.414
59923W        W19217  35.099  33.499  10.542
59924W        W19218  37.908  28.037   3.250
59925W        W19219   2.241  17.193   4.802
59926W        W19220  33.894  24.571  12.911
59927W        W19221   2.914  15.583  11.567
59928W        W19222  20.717  41.970   4.710
59929W        W19223   8.832  12.224  10.597
59930W        W19224  33.446  13.281   1.410
59931W        W19225  17.592  34.578  13.458
59932W        W19226   9.337  15.753   1.344
59933W        W19227   2.236  23.177   4.247
59934W        W19228   3.402   5.812  14.820
59935W        W19229  41.983  31.550   0.461
59936W        W19230  42.853  42.527  14.389
59937W        W19231   4.818  10.767   0.844
59938W        W19232  22.087   0.884  11.558
59939W        W19233   7.678  40.468   2.801
59940W        W19234   4.211   6.202   2.796
59941W        W19235  40.392  36.580   4.197
59942W        W19236   5.249   3.372   0.771
59943W        W19237  14.134  39.954   2.202
59944W        W19238   4.365  23.658   4.312
59945W        W19239  22.177   2.440   0.804
59946W        W19240   3.796  25.659  14.817
59947W        W19241  27.078  42.847   2.180
59948W        W19242  39.968  29.547   0.912
59949W        W19243   1.385  32.897  14.351
59950W        W19244  39.936   3.411  14.492
59951W        W19245  33.592   2.775  11.612
59952W        W19246  42.938  11.165   1.697
59953W        W19247  20.265  10.138  12.073
59954W        W19248  13.614   9.246  13.863
59955W        W19249   8.782  39.405  13.000
59956W        W19250  41.037  44.490  14.324
59957W        W19251   6.872  14.596   4.700
59958W        W19252  36.011  18.736   1.774
59959W        W19253  12.677  29.118  12.002
59960W        W19254  22.558   7.309  13.479
59961W        W19255  11.330  16.777   3.771
59962W        W19256   5.867   1.260   0.325
59963W        W19257   1.807  35.441  11.014
59964W        W19258  25.651  14.774  13.517
59965W        W19259  34.534  44.489   0.339
59966W        W19260  17.209  33.382   0.893
59967W        W19261  10.647   2.380  14.796
59968W        W19262  31.434  29.939   3.832
59969W        W19263  11.202  13.715   1.381
59970W        W19264  27.053   1.374  12.883
59971W        W19265  20.228  19.144   2.751
59972W        W19266  12.255  28.607  12.943
59973W        W19267  25.484  33.098   1.708
59974W        W19268  17.688  41.428   3.219
59975W        W19269  10.260  27.946  10.475
59976W        W19270  35.484  22.652  10.420
59977W        W19271  42.790  23.150   2.854
59978W        W19272  17.726  43.021   3.726
59979W        W19273  42.812  20.649  13.992
59980W        W19274  26.077  15.614   2.396
59981W        W19275   1.411   9.305   3.243
59982W        W19276  22.116  28.621   0.923
59983W        W19277  24.658  42.354  10.984
59984W        W19278   6.259  44.834   0.352
59985W        W19279  17.282   2.369   3.643
59986W        W19280  43.899  41.456  10.486
59987W        W19281  30.598  34.097  11.944
59988W        W19282  21.022  40.458   2.208
59989W        W19283  18.717  13.617  14.005
59990W        W19284  13.255  28.092  11.084
59991W        W19285  28.040   2.452   4.247
59992W        W19286  14.723  25.145  13.358
59993W        W19287  25.691  44.917   0.438
59994W        W19288  34.954  23.593  12.875
59995W        W19289  38.565  12.616   0.804
59996W        W19290  21.117   0.441  11.967
59997W        W19291  26.558  15.731  12.511
59998W        W19292  16.222  14.826   2.662
59999W        W19293  30.096  32.548  11.610
60000W        W19294   6.386  11.305  14.798
60001W        W19295  26.100   5.352   1.395
60002W        W19296   4.247  17.247   0.827
60003W        W19297  36.428  43.285   4.702
60004W        W19298  41.292  25.697   4.251
60005W        W19299   4.765  17.637  13.517
60006W        W19300  11.694  27.603  10.490
60007W        W19301  28.120   4.935  14.290
60008W        W19302  32.099  22.535   3.709
60009W        W19303   9.811  24.083  13.508
60010W        W19304  22.098  40.521   3.702
60011W        W19305  23.192  31.954   9.971
60012W        W19306  20.270  41.505  13.799
60013W        W19307  31.026  11.291  14.475
60014W        W19308   5.380  37.484  10.566
60015W        W19309  43.455  17.801  11.577
60016W        W19310  34.516  21.715  13.512
60017W        W19311   5.864   9.227   3.184
60018W        W19312   9.709   8.745   1.240
60019W        W19313  17.124   3.757   3.754
60020W        W19314  34.046  39.926  10.984
60021W        W19315   3.741  32.591   0.849
60022W        W19316  41.961  23.019  10.425
60023W        W19317   9.735  36.418   3.176
60024W        W19318  26.547  20.079  10.568
60025W        W19319  37.881  24.687   1.757
60026W        W19320  18.554  14.157  14.376
60027W        W19321  19.125  20.637  13.880
60028W        W19322  25.030  12.775   3.232
60029W        W19323   0.815   8.663   0.262
60030W        W19324  24.633   5.207   3.332
60031W        W19325   7.262  16.219   3.192
60032W        W19326  37.943  44.472  10.512
60033W        W19327  13.763   5.325   2.661
60034W        W19328  42.984  33.542   4.765
60035W        W19329  29.055  24.112   3.379
60036W        W19330   7.824  44.814   4.181
60037W        W19331  13.221  10.730  12.059
60038W        W19332  38.915   1.752   4.606
60039W        W19333  11.151  17.243  10.534
60040W        W19334  21.617  23.550  13.416
60041W        W19335  44.934  12.614  10.964
60042W        W19336  42.790  13.108  14.889
60043W        W19337  38.832  19.708   0.965
60044W        W19338  26.561  22.051  11.385
60045W        W19339  29.482  27.119   1.806
60046W        W19340  22.553  43.767  10.018
60047W        W19341   7.857  15.599  14.827
60048W        W19342  17.654  16.264  12.996
60049W        W19343  18.737  33.952   1.700
60050W        W19344   4.376  10.787  14.972
60051W        W19345   1.787   3.782   9.611
60052W        W19346  12.183   0.862  14.769
60053W        W19347  28.472  11.134   1.879
60054W        W19348  34.471  38.977  11.418
60055W        W19349  14.621  36.434   3.660
60056W        W19350  43.485  23.681   0.827
60057W        W19351   7.340  30.050  12.049
60058W        W19352  12.695  17.079  11.575
60059W        W19353  41.534  33.130  10.061
60060W        W19354  15.713  22.106  13.345
60061W        W19355  31.916  29.635  11.003
60062W        W19356   9.685  12.121  14.450
60063W        W19357   7.378  39.531   0.874
60064W        W19358   0.901  23.171   4.782
60065W        W19359  16.672  31.120  10.929
60066W        W19360  31.034  20.707   3.215
60067W        W19361  12.173  10.848   9.501
60068W        W19362  26.483  14.649  14.503
60069W        W19363   1.300   0.456   5.199
60070W        W19364   4.207  28.438   2.216
60071W        W19365   8.270  21.623  11.463
60072W        W19366  35.604  16.714   3.334
60073W        W19367  24.718  42.327  10.431
60074W        W19368  36.474   5.406   2.283
60075W        W19369  19.742  17.183   1.814
60076W        W19370   6.899  41.350  12.501
60077W        W19371  27.973  43.922   3.750
60078W        W19372  38.332  31.527   4.193
60079W        W19373  14.638  33.626   2.267
60080W        W19374  40.445  16.204  10.409
60081W        W19375  14.638   0.903  14.793
60082W        W19376  33.437  21.057  10.914
60083W        W19377  27.018  29.435   4.220
60084W        W19378  13.293  25.018   3.854
60085W        W19379  20.648  19.607   1.767
60086W        W19380  11.700  32.974   0.842
60087W        W19381   5.806  43.397  14.436
60088W        W19382  36.073  36.539   3.253
60089W        W19383  33.535   2.732   4.823
60090W        W19384   0.821  11.278   3.299
60091W        W19385   9.856  27.007   1.805
60092W        W19386  28.073   9.727   5.154
60093W        W19387  23.110  22.109  10.498
60094W        W19388  34.933  34.095  10.553
60095W        W19389  34.615   4.875  14.013
60096W        W19390  33.946   5.274   3.681
60097W        W19391  38.987   3.824   3.227
60098W        W19392   5.434   6.390  14.429
60099W        W19393  29.466  36.439   9.974
60100W        W19394  31.941  33.428   2.347
60101W        W19395  32.636  35.971   2.203
60102W        W19396  33.990  10.180   3.224
60103W        W19397  10.271   3.792   4.630
60104W        W19398  37.476   6.842   1.398
60105W        W19399   1.756   7.199  12.037
60106W        W19400  25.083   3.765   2.227
60107W        W19401   5.271  24.160  10.911
60108W        W19402   1.974  17.629   3.681
60109W        W19403   2.255  21.585   0.279
60110W        W19404  25.573  26.153   4.136
60111W        W19405   9.326   5.347  13.929
60112W        W19406  31.636  28.090   2.376
60113W        W19407  27.473   9.767   3.259
60114W        W19408  33.975  35.360  11.019
60115W        W19409  30.454   6.766  14.011
60116W        W19410  29.127  40.031   2.834
60117W        W19411  31.074   5.281   3.175
60118W        W19412  11.246  42.005  12.876
60119W        W19413  13.176  31.526  12.885
60120W        W19414  36.061  43.907   4.652
60121W        W19415  10.829  28.171  10.529
60122W        W19416   4.229  12.676   1.701
60123W        W19417  10.213  44.873  12.924
60124W        W19418  30.089  13.269   1.395
60125W        W19419  37.927  16.596   0.938
60126W        W19420   1.792   9.872   3.659
60127W        W19421  17.211   1.429  14.428
60128W        W19422   9.707  24.054  13.857
60129W        W19423   8.787  11.217   3.801
60130W        W19424  23.235  33.583   3.201
60131W        W19425  14.752  27.660   2.397
60132W        W19426   4.908  12.155  12.522
60133W        W19427  15.136  33.611  11.001
60134W        W19428   4.773  18.559   0.775
60135W        W19429   9.852  20.552   0.892
60136W        W19430  35.889  34.972   1.845
60137W        W19431  23.677   8.174   3.212
60138W        W19432  21.175  41.952   4.236
60139W        W19433  18.596  12.672   2.189
60140W        W19434  43.444   1.871   0.250
60141W        W19435   6.230  26.616  11.556
60142W        W19436  37.579  15.256  10.464
60143W        W19437   2.378  22.006  12.372
60144W        W19438  18.278  23.593   4.614
60145W        W19439   9.725  33.917   0.274
60146W        W19440  26.541  39.024  14.829
60147W        W19441  44.936  25.609   1.232
60148W        W19442  21.150  27.086   2.279
60149W        W19443  43.863  16.569  13.820
60150W        W19444   3.375  12.753  13.491
60151W        W19445  37.867   7.731   0.770
60152W        W19446   6.715  15.191   1.860
60153W        W19447  38.560  31.929   0.263
60154W        W19448  23.695  37.979   1.725
60155W        W19449   7.414  36.369   4.264
60156W        W19450  26.061  28.998   0.292
60157W        W19451   1.393  35.018  13.427
60158W        W19452   4.867  26.636  10.405
60159W        W19453  12.359  42.021  10.994
60160W        W19454  13.301  29.588   4.239
60161W        W19455  26.521  15.264  13.055
60162W        W19456  27.644  28.929  13.508
60163W        W19457  10.823   9.230  13.948
60164W        W19458  27.040  23.106   3.851
60165W        W19459   0.925  19.700  10.629
60166W        W19460   9.822  20.258  10.070
60167W        W19461   2.787  14.293   1.394
60168W        W19462  37.896  23.029   1.242
60169W        W19463  41.846  18.738   4.745
60170W        W19464  39.496  12.293   4.700
60171W        W19465  32.138  39.328  13.862
60172W        W19466   6.689  34.982  10.420
60173W        W19467  19.064  12.173   0.834
60174W        W19468  38.822  20.737   2.759
60175W        W19469  22.218  25.077   1.213
60176W        W19470  33.411  41.948  12.085
60177W        W19471  29.045  26.075  13.527
60178W        W19472  30.550  44.335   1.238
60179W        W19473   7.788  39.448   1.776
60180W        W19474  32.036  17.705  13.893
60181W        W19475  17.686   7.245  14.458
60182W        W19476  12.631  41.517   2.212
60183W        W19477  12.259   1.840  13.429
60184W        W19478  25.051  18.730   3.364
60185W        W19479   6.415  21.026  14.025
60186W        W19480  14.757  38.435   4.168
60187W        W19481  19.134   6.821  10.508
60188W        W19482  39.491   9.769  13.877
60189W        W19483   6.806  38.549   2.216
60190W        W19484   0.379  29.956  12.486
60191W        W19485   7.901  44.990   2.375
60192W        W19486   9.335  36.372   1.891
60193W        W19487  26.697  32.112   3.708
60194W        W19488  35.564   6.846   0.454
60195W        W19489  16.240  32.995  11.408
60196W        W19490   9.757  38.863   0.810
60197W        W19491  12.770  41.433   4.203
60198W        W19492  39.920  34.973   9.564
60199W        W19493  38.383   0.265  13.910
60200W        W19494  11.361  19.656   4.677
60201W        W19495  42.356  42.875   1.374
60202W        W19496  44.777  10.878   0.871
60203W        W19497  32.129  39.424   3.336
60204W        W19498  42.922  43.836   3.693
60205W        W19499  36.509  40.942   1.302
60206W        W19500  36.891   5.759   3.382
60207W        W19501  32.454  16.257   3.257
60208W        W19502   0.333  33.995  11.061
60209W        W19503  43.870   2.371   0.912
60210W        W19504   4.856  32.009  14.312
60211W        W19505   7.284   5.692  10.976
60212W        W19506  37.927   5.806  12.550
60213W        W19507  29.133  16.144   0.464
60214W        W19508  15.606  31.026  11.971
60215W        W19509  35.025   7.794  13.814
60216W        W19510  22.654  10.181  12.993
60217W        W19511  44.853   9.774   1.798
60218W        W19512  30.527  34.384  12.504
60219W        W19513   1.911  20.717  13.798
60220W        W19514  44.798  19.238   0.304
60221W        W19515  18.726   5.702  10.509
60222W        W19516  30.618  24.687   4.749
60223W        W19517  40.973   7.175   4.194
60224W        W19518   5.792  16.789   0.825
60225W        W19519   0.339  23.991  12.416
60226W        W19520  30.156  17.636  14.888
60227W        W19521  19.285  10.874  10.942
60228W        W19522  26.565  21.139  12.021
60229W        W19523  25.137   0.905  11.391
60230W        W19524  13.332  39.375   0.448
60231W        W19525  21.514   2.324   1.249
60232W        W19526   2.749  16.704  13.507
60233W        W19527  36.431  21.524  14.902
60234W        W19528  41.026  38.042   1.310
60235W        W19529  22.731  15.281   1.347
60236W        W19530  44.800   4.845   0.473
60237W        W19531   2.891  16.191  14.026
60238W        W19532  30.059  25.054   3.220
60239W        W19533  14.291   6.358   2.233
60240W        W19534   5.720  10.197   0.776
60241W        W19535  41.796  15.632   5.204
60242W        W19536  38.876  11.688  12.430
60243W        W19537  30.054   1.900   3.212
60244W        W19538  43.822  33.561   1.925
60245W        W19539  17.609   4.767   4.674
60246W        W19540  41.412  25.034   0.370
60247W        W19541  13.314  33.002   3.675
60248W        W19542  32.570   0.357  11.500
60249W        W19543   2.846   5.195  14.989
60250W        W19544  20.525  26.572  13.962
60251W        W19545  39.885  24.113  14.438
60252W        W19546   3.713   1.907  13.336
60253W        W19547  37.840  38.374   1.775
60254W        W19548  34.474   6.275   0.375
60255W        W19549   3.939  26.655   0.734
60256W        W19550  18.139  37.864  10.437
60257W        W19551  24.507  23.212   0.843
60258W        W19552  29.998  39.958  12.070
60259W        W19553   7.397   5.846   2.743
60260W        W19554  22.502  22.611  13.863
60261W        W19555  20.616  32.899  11.887
60262W        W19556  43.387  33.512   2.724
60263W        W19557  43.423  22.246  13.326
60264W        W19558  28.052  42.882   1.259
60265W        W19559  11.205   2.322   4.296
60266W        W19560  18.196  13.811   1.825
60267W        W19561   8.790  14.606  14.426
60268W        W19562  10.282   3.833  10.082
60269W        W19563  21.617  11.284  10.634
60270W        W19564  32.133   2.795   2.203
60271W        W19565  22.009  44.928   3.845
60272W        W19566  40.405  23.208  11.533
60273W        W19567  16.790  38.475   4.796
60274W        W19568  24.192  22.584  12.920
60275W        W19569  33.516  14.789  12.376
60276W        W19570  20.668  17.246  10.443
60277W        W19571  17.571  43.494  10.502
60278W        W19572   0.778  21.046   1.833
60279W        W19573  17.779  29.993   1.879
60280W        W19574  29.047  22.606   4.740
60281W        W19575   7.769   8.848   3.281
60282W        W19576  21.251   1.328   2.900
60283W        W19577   7.264  23.654   2.306
60284W        W19578  16.201   3.763   1.350
60285W        W19579  22.725  44.768  10.474
60286W        W19580  15.815  44.480  13.933
60287W        W19581  28.477  10.728   0.466
60288W        W19582   9.278   1.258  12.489
60289W        W19583   3.900  32.913   3.219
60290W        W19584  11.824  35.911  14.412
60291W        W19585  20.227  32.951  14.487
60292W        W19586   6.413  27.504   3.844
60293W        W19587   7.911  14.758  11.920
60294W        W19588  27.524  35.414  10.573
60295W        W19589  41.497  18.132  11.039
60296W        W19590  31.901  34.016  14.302
60297W        W19591  19.063   9.717   4.704
60298W        W19592   5.225  17.264  13.430
60299W        W19593   0.956  42.900   0.402
60300W        W19594  29.484  19.170   2.274
60301W        W19595  29.942  33.985   1.280
60302W        W19596  25.662  14.320   3.670
60303W        W19597  34.436  39.967   1.348
60304W        W19598  21.213  22.163   4.801
60305W        W19599   9.720   2.926   1.412
60306W        W19600   4.902  43.486   1.433
60307W        W19601  38.860  10.311   2.320
60308W        W19602  24.706  16.769  12.439
60309W        W19603  13.766  17.171  12.454
60310W        W19604  14.662   4.746   2.362
60311W        W19605  30.930  16.115   1.897
60312W        W19606  34.964  25.061  13.430
60313W        W19607  39.925   2.868  12.360
60314W        W19608  44.782  14.234   3.180
60315W        W19609  21.038  30.088   2.671
60316W        W19610  13.294  20.252   1.723
60317W        W19611  23.735  27.681   0.331
60318W        W19612  28.161  16.650   4.801
60319W        W19613  27.540  37.951   5.247
60320W        W19614   2.900  44.757  13.053
60321W        W19615  23.505  37.084   0.470
60322W        W19616  37.850  31.098  13.975
60323W        W19617  44.982  26.653   1.234
60324W        W19618  10.813  35.453  11.013
60325W        W19619   6.396  35.023   1.251
60326W        W19620  21.262  39.847  12.011
60327W        W19621  40.798  11.653   1.923
60328W        W19622  40.856  22.502  12.420
60329W        W19623   2.255  33.949  13.870
60330W        W19624  35.910  27.580  14.985
60331W        W19625  11.200  33.875   3.350
60332W        W19626  10.730  14.267  10.543
60333W        W19627   0.279   1.291   0.382
60334W        W19628  28.587  26.024   3.850
60335W        W19629  20.069  44.837  11.465
60336W        W19630  15.197  34.490  11.599
60337W        W19631  21.721  44.780  14.914
60338W        W19632   9.801  23.192   0.256
60339W        W19633  29.539  34.105   0.883
60340W        W19634  21.193   3.269  14.278
60341W        W19635  12.786  26.528   2.801
60342W        W19636  10.271   1.960   4.281
60343W        W19637  33.390  31.493  11.386
60344W        W19638  44.825  18.741  13.426
60345W        W19639  11.709  15.232   3.721
60346W        W19640  19.277  42.845   2.195
60347W        W19641  22.562  11.306   0.832
60348W        W19642  40.432   3.427  14.804
60349W        W19643  11.146  20.746  11.524
60350W        W19644  15.266  43.330   3.376
60351W        W19645  31.906   9.799  10.439
60352W        W19646  44.811  14.647  12.048
60353W        W19647  20.551   6.341  12.477
60354W        W19648  13.117  17.108   0.398
60355W        W19649  31.940  32.980  11.480
60356W        W19650  32.486  37.486   4.608
60357W        W19651  34.978  24.660  12.994
60358W        W19652  37.052  12.715   1.758
60359W        W19653  43.929  34.093   0.276
60360W        W19654   0.746  30.597   5.132
60361W        W19655  24.991   0.787  12.092
60362W        W19656  10.708  44.757  13.454
60363W        W19657  41.867  24.059  10.446
60364W        W19658  38.878   8.726  12.943
60365W        W19659  23.553  38.363   1.854
60366W        W19660   7.807  14.593  13.854
60367W        W19661   5.438  41.375   1.283
60368W        W19662  14.816   4.415  12.000
60369W        W19663  17.241  15.143   1.762
60370W        W19664  43.348   9.320   1.933
60371W        W19665   9.286  22.520   0.424
60372W        W19666   0.493  35.506  14.514
60373W        W19667  10.333  12.843   4.802
60374W        W19668  41.368  30.069  13.516
60375W        W19669  19.214   7.687   1.767
60376W        W19670  17.583  31.078   4.753
60377W        W19671  26.144  31.118   3.647
60378W        W19672  27.463   1.893   2.188
60379W        W19673  19.699  23.688   1.745
60380W        W19674  33.555  18.697  10.519
60381W        W19675  38.423  31.113  11.866
60382W        W19676  32.536   2.319  10.954
60383W        W19677  39.820  14.119  14.285
60384W        W19678   8.175  27.031   1.825
60385W        W19679  16.264  30.987  14.984
60386W        W19680   4.856  35.554   3.754
60387W        W19681  30.935  24.696   3.759
60388W        W19682  11.690  22.668   1.697
60389W        W19683  43.505  14.322  11.060
60390W        W19684   0.761  21.703   1.375
60391W        W19685  11.685  25.080  10.556
60392W        W19686  36.025  20.036   4.135
60393W        W19687  44.367   7.318  10.440
60394W        W19688  36.086  28.617  14.306
60395W        W19689  37.338  24.220   4.671
60396W        W19690   0.383  22.056  12.577
60397W        W19691   8.755   7.210  11.977
60398W        W19692  33.607  13.653  10.914
60399W        W19693  15.210  16.107  10.064
60400W        W19694  23.071  14.808   1.922
60401W        W19695  23.988   2.812  13.368
60402W        W19696  28.472  44.793  14.018
60403W        W19697  23.007  16.124  11.480
60404W        W19698  11.142  35.026  12.370
60405W        W19699  29.453   3.248  14.024
60406W        W19700  39.414  22.742  13.882
60407W        W19701  38.836  26.460   3.691
60408W        W19702  13.629  14.275  14.308
60409W        W19703  25.137  16.082   0.244
60410W        W19704  29.094  41.988  13.402
60411W        W19705  15.309   7.317   2.318
60412W        W19706  34.594  10.260  12.888
60413W        W19707   5.709  36.933   4.797
60414W        W19708  22.625  31.454  12.418
60415W        W19709   3.868   8.196   2.333
60416W        W19710  41.499  26.632  13.879
60417W        W19711  17.301   6.340   9.941
60418W        W19712  16.574  12.770  14.853
60419W        W19713  19.683  11.155  10.538
60420W        W19714  33.892  12.169   0.264
60421W        W19715  23.091  13.139   4.346
60422W        W19716  16.259   6.404  12.976
60423W        W19717  41.800  40.981  14.858
60424W        W19718   3.747  21.705  10.559
60425W        W19719  28.543   8.204  10.438
60426W        W19720  42.386  38.329  13.363
60427W        W19721   0.890   9.859   2.744
60428W        W19722  44.342   1.941  10.456
60429W        W19723   6.257  33.894   3.674
60430W        W19724   6.333  32.904  13.518
60431W        W19725  34.935  24.700   0.899
60432W        W19726  39.450  24.142   3.800
60433W        W19727  31.542  30.448   1.698
60434W        W19728  42.828  43.411  11.955
60435W        W19729  29.968  30.485  12.973
60436W        W19730  29.649   8.206  11.875
60437W        W19731   7.902  38.028   4.734
60438W        W19732  15.289   3.254  13.369
60439W        W19733  27.073  32.056   4.828
60440W        W19734   1.802  16.629   1.296
60441W        W19735   0.843   7.864  10.547
60442W        W19736  44.323  32.988   3.340
60443W        W19737   6.754  16.602   2.212
60444W        W19738  43.338  34.394  10.050
60445W        W19739  35.503   7.835  11.975
60446W        W19740  25.196   4.931  10.416
60447W        W19741  17.676  34.562   0.938
60448W        W19742  18.082  16.152  14.494
60449W        W19743  32.623  10.379  12.079
60450W        W19744  30.991   8.694   2.745
60451W        W19745  41.878  11.306  14.395
60452W        W19746  33.910  36.398  11.586
60453W        W19747  17.721  35.514   3.681
60454W        W19748  13.212  38.457  13.329
60455W        W19749  23.541  33.015  11.569
60456W        W19750  17.668  44.330  14.423
60457W        W19751   1.813  44.373  12.419
60458W        W19752   5.377  44.962   2.193
60459W        W19753  20.630  23.602  10.516
60460W        W19754  17.200  37.066  11.108
60461W        W19755  22.508  40.452  14.801
60462W        W19756   4.902  26.157   0.905
60463W        W19757  40.999   3.919  13.358
60464W        W19758   7.249   0.450   1.401
60465W        W19759  35.980  15.790  14.506
60466W        W19760  38.340  35.563   4.336
60467W        W19761  23.604  14.235  14.790
60468W        W19762   2.725   9.652  11.587
60469W        W19763  32.421  29.660  10.081
60470W        W19764  27.466  38.859  12.452
60471W        W19765  21.215  15.092   4.240
60472W        W19766  17.107  20.266   3.343
60473W        W19767  19.608   4.815   3.344
60474W        W19768   7.381  12.771  11.114
60475W        W19769   3.218  13.650   1.721
60476W        W19770  29.168  30.949   3.244
60477W        W19771  40.816   0.379  14.982
60478W        W19772  39.044  21.644   1.234
60479W        W19773  34.495  34.404  12.913
60480W        W19774  29.667  39.377  10.009
60481W        W19775  41.370  15.795   1.917
60482W        W19776   9.677  34.885  14.761
60483W        W19777  10.692  40.540  13.015
60484W        W19778   6.344  42.379  14.982
60485W        W19779  30.107  25.516  14.835
60486W        W19780  40.835   6.372  12.943
60487W        W19781  12.322  18.567  13.912
60488W        W19782  20.181   1.264  14.820
60489W        W19783  24.051  26.983   1.800
60490W        W19784  19.199  31.115  11.611
60491W        W19785  43.869  24.495   4.627
60492W        W19786   6.342  16.145  12.063
60493W        W19787  24.156  43.819   3.744
60494W        W19788  21.209  21.527   3.168
60495W        W19789  28.640   1.747   3.371
60496W        W19790  38.525   9.260   9.533
60497W        W19791  33.960   9.241  11.946
60498W        W19792  35.882  16.751  12.932
60499W        W19793   6.922  21.242   4.250
60500W        W19794   6.379  27.951  11.583
60501W        W19795  21.224  21.156  12.392
60502W        W19796  11.860   1.854  12.084
60503W        W19797   3.432  28.502  12.460
60504W        W19798  23.006  15.762   2.395
60505W        W19799  11.717   4.356  13.350
60506W        W19800  11.733  41.462   5.256
60507W        W19801  19.650  33.520   3.216
60508W        W19802  13.347  11.678  12.887
60509W        W19803  26.573   1.353  12.044
60510W        W19804  42.285  44.835  10.037
60511W        W19805  14.794   7.672  12.397
60512W        W19806   9.295  26.463   1.864
60513W        W19807   5.822  23.581   1.311
60514W        W19808  38.467  14.256   1.741
60515W        W19809  27.045   7.298   2.849
60516W        W19810  11.243  32.406  13.806
60517W        W19811  27.091  35.569   1.419
60518W        W19812   4.817  44.852  11.958
60519W        W19813  27.182   1.820   5.238
60520W        W19814  25.477  43.274  11.503
60521W        W19815  20.564  36.980  14.973
60522W        W19816  36.396  39.469   1.445
60523W        W19817  33.014   1.929   2.666
60524W        W19818  33.937  38.829   1.418
60525W        W19819  40.809  33.542   2.344
60526W        W19820  35.901  42.841  10.625
60527W        W19821  32.987  42.413   3.746
60528W        W19822  23.731  35.015  11.525
60529W        W19823   5.395  12.269  13.492
60530W        W19824  19.147  25.699   3.380
60531W        W19825  34.517  25.054   0.959
60532W        W19826   4.360  39.048  12.040
60533W        W19827  38.370  36.357   5.092
60534W        W19828  19.229  44.773   1.740
60535W        W19829  21.141   6.341  14.457
60536W        W19830  10.305  18.246  13.356
60537W        W19831  13.330  24.581  13.467
60538W        W19832  23.691   5.820  11.127
60539W        W19833   3.763  21.577   2.195
60540W        W19834   8.763   8.376  10.902
60541W        W19835  22.194  22.155  14.410
60542W        W19836   9.352  39.478   0.296
60543W        W19837  29.123  32.544  11.603
60544W        W19838   6.805   5.846   4.764
60545W        W19839  11.216   0.760  12.391
60546W        W19840  26.646  33.535   4.143
60547W        W19841  24.131  43.931  13.445
60548W        W19842  30.529   0.347  14.006
60549W        W19843  40.508  19.596   0.313
60550W        W19844   6.900  31.452  13.885
60551W        W19845  25.111  10.266   1.859
60552W        W19846  24.510  38.544  11.090
60553W        W19847  17.300  33.619   0.269
60554W        W19848   2.859  24.165   4.233
60555W        W19849  15.656  33.903   3.152
60556W        W19850  35.490   1.247   0.946
60557W        W19851   8.827  43.501  14.873
60558W        W19852  34.048  19.757   3.294
60559W        W19853  38.336  35.068  12.904
60560W        W19854   9.854  24.646   4.318
60561W        W19855  20.595  25.479  12.066
60562W        W19856  20.244  21.165   2.396
60563W        W19857  12.720   5.687  10.932
60564W        W19858  16.604  40.394   0.821
60565W        W19859  21.064  38.893   0.868
60566W        W19860  21.577   2.759   0.439
60567W        W19861  39.892  21.183   4.132
60568W        W19862  19.264   3.830  13.927
60569W        W19863  22.651  41.788   4.298
60570W        W19864  12.632  36.440   4.324
60571W        W19865  20.218  16.619  12.389
60572W        W19866  20.523   6.236   1.715
60573W        W19867   2.782  20.723  13.334
60574W        W19868   1.344  35.040   3.223
60575W        W19869   4.283  44.465   4.288
60576W        W19870  29.432  31.434  10.414
60577W        W19871  13.117  26.135   3.340
60578W        W19872  32.087  25.156   0.341
60579W        W19873  30.423  36.046   4.768
60580W        W19874   6.294  14.228   1.234
60581W        W19875  38.493  37.875  13.516
60582W        W19876  23.007  10.853   3.774
60583W        W19877  24.048  42.445  11.876
60584W        W19878  34.606  37.500  12.056
60585W        W19879  31.979  32.980  14.344
60586W        W19880  14.665  40.900  12.345
60587W        W19881  30.627   4.258   4.130
60588W        W19882  39.355  18.559   3.237
60589W        W19883  36.039  33.049  14.824
60590W        W19884  13.807  11.865   3.307
60591W        W19885  22.159  37.521   4.331
60592W        W19886  27.064  41.019   0.875
60593W        W19887  31.996  42.351   0.946
60594W        W19888  32.470   3.841  13.043
60595W        W19889  18.650  21.565   4.330
60596W        W19890  41.808  24.169   1.864
60597W        W19891  32.432  28.147   4.159
60598W        W19892  23.568  23.098  12.017
60599W        W19893  24.587  27.949   0.315
60600W        W19894  34.902   7.339  13.012
60601W        W19895  27.499  22.547   2.848
60602W        W19896  25.114   0.346   3.820
60603W        W19897  23.211  11.285   3.839
60604W        W19898   8.187  25.704   3.262
60605W        W19899  25.214  27.029  14.465
60606W        W19900  30.950  24.526  10.589
60607W        W19901  21.639  38.073  14.317
60608W        W19902  10.785  30.922  13.427
60609W        W19903   4.776  39.837   3.712
60610W        W19904  38.038  26.085   1.245
60611W        W19905   7.799  44.934   2.809
60612W        W19906  25.639  23.611  14.789
60613W        W19907  20.044  21.096  11.598
60614W        W19908  14.786  28.608   4.342
60615W        W19909  32.926   1.270   2.835
60616W        W19910  40.918  38.330  12.051
60617W        W19911  43.399  30.585  14.802
60618W        W19912  25.696  29.920  10.498
60619W        W19913  18.636  35.471  13.796
60620W        W19914  21.113  19.583  11.027
60621W        W19915  26.971   1.444   2.719
60622W        W19916  24.558  42.456   1.906
60623W        W19917  14.203  38.554   3.276
60624W        W19918  43.393  26.955  12.345
60625W        W19919  14.778   0.876   3.232
60626W        W19920  15.135  19.137   2.901
60627W        W19921  38.983  33.384  10.548
60628W        W19922  38.436  12.258   1.775
60629W        W19923  35.054  25.100   3.302
60630W        W19924  13.347  41.855  11.063
60631W        W19925  17.638  29.655  14.871
60632W        W19926  41.509  32.408  12.973
60633W        W19927   9.369  40.813   0.333
60634W        W19928  28.154  20.088   0.385
60635W        W19929   7.406  16.572  14.346
60636W        W19930  37.834  44.907  13.492
60637W        W19931   4.763   7.745  12.421
60638W        W19932  13.639  28.569   1.883
60639W        W19933  10.167  19.114  11.050
60640W        W19934  30.948  44.501   1.247
60641W        W19935   6.240  20.657  10.942
60642W        W19936  39.503  41.007  11.927
60643W        W19937  41.477   7.275  12.349
60644W        W19938  20.547   7.323  10.145
60645W        W19939   1.300   0.884   2.721
60646W        W19940  40.846   1.479  12.003
60647W        W19941  37.470  25.641   5.184
60648W        W19942  11.177   6.380  12.093
60649W        W19943  17.166  33.119   0.326
60650W        W19944  16.144  10.189   5.678
60651W        W19945  32.115   9.796   9.623
60652W        W19946  38.429  34.965   9.947
60653W        W19947  38.329  35.420   2.358
60654W        W19948  21.731  30.528   0.372
60655W        W19949  13.752  20.685   2.815
60656W        W19950  31.144  23.699   3.358
60657W        W19951  22.132  44.793   2.352
60658W        W19952   0.941  21.203  14.847
60659W        W19953  19.668   7.668   1.875
60660W        W19954   3.334  26.124  11.568
60661W        W19955   8.218  15.656   2.768
60662W        W19956   5.839  16.618   3.380
60663W        W19957  23.006   5.918   9.502
60664W        W19958  19.607  12.665   1.346
60665W        W19959  11.809  35.366   3.245
60666W        W19960   2.348   1.451  10.465
60667W        W19961  18.232  38.434  11.959
60668W        W19962  38.335   4.305   2.876
60669W        W19963  42.497   1.298  13.043
60670W        W19964  36.469  31.914  12.427
60671W        W19965  19.734  29.966   1.737
60672W        W19966   8.399   3.717  11.522
60673W        W19967  20.064  15.602   3.827
60674W        W19968  10.670  30.062  11.970
60675W        W19969   2.882   9.828   3.771
60676W        W19970   6.350  10.306   1.347
60677W        W19971  21.580  23.207  13.484
60678W        W19972   4.213  18.761   0.821
60679W        W19973  36.979  32.540  13.533
60680W        W19974  11.202  37.936  13.024
60681W        W19975  10.152  26.615  10.450
60682W        W19976  35.103  33.458  12.933
60683W        W19977  40.483  40.492   1.417
60684W        W19978   0.407   2.966   2.832
60685W        W19979   9.171   6.347  11.113
60686W        W19980  39.378  35.509   5.081
60687W        W19981  11.866  40.023   3.815
60688W        W19982  11.359   9.209  10.960
60689W        W19983  22.233  33.029   2.858
60690W        W19984  22.746  37.899   2.300
60691W        W19985  27.652  18.289   3.695
60692W        W19986  15.090  44.447   4.803
60693W        W19987  40.927  36.932   4.290
60694W        W19988   7.805  41.999  14.809
60695W        W19989  32.488  22.592  12.502
60696W        W19990  41.924  32.952  11.581
60697W        W19991  25.707  27.478   4.228
60698W        W19992  19.694  16.151   1.723
60699W        W19993  15.132  39.828   4.316
60700W        W19994  29.008   6.760   4.613
60701W        W19995  16.119  39.967   3.309
60702W        W19996  44.772  28.117   3.753
60703W        W19997   5.766  37.404   2.775
60704W        W19998  28.958  12.782   3.703
60705W        W19999  13.643  42.393  13.056
60706W        W20000  14.105  18.755   1.797
60707W        W20001   8.160  21.248   0.433
60708W        W20002  30.038  11.728  10.598
60709W        W20003  26.494  17.068  11.073
60710W        W20004  32.542  39.379   4.263
60711W        W20005   0.492  38.349  13.844
60712W        W20006   0.943   2.954   3.168
60713W        W20007   5.818   0.276  14.460
60714W        W20008   6.711   4.222  14.411
60715W        W20009  12.781  37.445   2.713
60716W        W20010  39.850  18.691  12.440
60717W        W20011  21.229  12.201  10.594
60718W        W20012  20.130  35.943   4.831
60719W        W20013  32.527  37.572  10.927
60720W        W20014  38.895  25.676   5.205
60721W        W20015  33.491  34.424  10.422
60722W        W20016   1.438  29.947  12.059
60723W        W20017  35.971  43.800  13.486
60724W        W20018  36.006  23.213   2.862
60725W        W20019  44.486   9.728  14.762
60726W        W20020  26.465  26.166  12.054
60727W        W20021   7.333  21.669   0.413
60728W        W20022  33.025  31.482   4.634
60729W        W20023   6.893   1.287   2.342
60730W        W20024  23.075  17.737  10.576
60731W        W20025  29.080  13.279   2.256
60732W        W20026   2.352  29.997   0.945
60733W        W20027   0.763  34.083   4.250
60734W        W20028  39.923  27.968  12.425
60735W        W20029   1.410  35.069  12.403
60736W        W20030  26.699   4.373   1.398
60737W        W20031   3.773  31.997   2.818
60738W        W20032  34.012   7.729  10.643
60739W        W20033  26.207  20.769  14.795
60740W        W20034  35.854  28.139   3.630
60741W        W20035  38.892  32.945  14.814
60742W        W20036  41.417  34.086  12.429
60743W        W20037   1.288  44.269  11.518
60744W        W20038  14.691  44.898   3.763
60745W        W20039  39.970  27.540   0.775
60746W        W20040  38.490  41.358  10.944
60747W        W20041  27.613  18.704   2.841
60748W        W20042   6.232   0.841   0.278
60749W        W20043  21.154  10.206  12.525
60750W        W20044  11.343  20.123   1.791
60751W        W20045   9.195  19.540   0.301
60752W        W20046  15.310  39.364  14.021
60753W        W20047  40.331  20.713  14.428
60754W        W20048  36.406   3.238   3.832
60755W        W20049  25.027  10.162  13.311
60756W        W20050  42.520  22.098  12.916
60757W        W20051  22.693  36.077   2.386
60758W        W20052  16.771  13.676  13.042
60759W        W20053  32.585   4.834  11.961
60760W        W20054  22.088  32.111   2.179
60761W        W20055  42.904  21.741  14.823
60762W        W20056   5.358  39.558  13.845
60763W        W20057  44.292   5.394   5.768
60764W        W20058  28.030   3.942   4.251
60765W        W20059  42.839  22.228  11.578
60766W        W20060  43.874   4.354  12.058
60767W        W20061   9.823  17.117   4.787
60768W        W20062  28.657  10.146   3.354
60769W        W20063   6.355  26.148   2.397
60770W        W20064  15.617  32.545   3.810
60771W        W20065  15.641  22.671   0.336
60772W        W20066  24.230  17.077  11.939
60773W        W20067   1.319   0.339  13.452
60774W        W20068  11.813  18.665   3.805
60775W        W20069  44.371  13.152  11.066
60776W        W20070  32.616  30.128  11.024
60777W        W20071  39.914  27.146   0.256
60778W        W20072   3.423  25.205   3.647
60779W        W20073  19.767  39.464  11.524
60780W        W20074  41.888  42.472   1.226
60781W        W20075  26.065  13.769   2.667
60782W        W20076   0.979  31.618  12.438
60783W        W20077  34.074  16.158   2.386
60784W        W20078  44.424  15.791  10.977
60785W        W20079  34.397  38.451  12.932
60786W        W20080  32.426  28.992   3.691
60787W        W20081   3.359  34.614  14.355
60788W        W20082   7.334   7.302   3.369
60789W        W20083  24.119   1.329  12.866
60790W        W20084  39.560   9.302  13.812
60791W        W20085  37.380  25.177  11.906
60792W        W20086  29.164  43.766  14.360
60793W        W20087  11.663  34.963  10.417
60794W        W20088  43.816   3.306  11.612
60795W        W20089  41.969  28.116   4.814
60796W        W20090  34.605  15.203   4.656
60797W        W20091  32.961  26.586   3.204
60798W        W20092  44.990  40.398  13.467
60799W        W20093  14.094  10.783   2.751
60800W        W20094  15.099  15.201   2.887
60801W        W20095   2.726  26.091  10.645
60802W        W20096  26.206  30.011  13.793
60803W        W20097  29.562  35.597   4.749
60804W        W20098   4.925  29.048  13.894
60805W        W20099  40.955  25.022   2.409
60806W        W20100  41.959  36.534   2.287
60807W        W20101  27.092  30.941   4.647
60808W        W20102  20.578  40.493   1.931
60809W        W20103  29.097  37.015  13.534
60810W        W20104  33.524  36.002   2.716
60811W        W20105  42.477  11.171   2.313
60812W        W20106  22.044  26.023  12.922
60813W        W20107  11.299  20.144   2.304
60814W        W20108   8.265  42.328  14.443
60815W        W20109  41.340   4.732   1.364
60816W        W20110   4.931  44.344  14.421
60817W        W20111  34.106  10.339  12.013
60818W        W20112  35.108   5.428   1.450
60819W        W20113  35.423  28.601  14.794
60820W        W20114  14.616  15.124   4.340
60821W        W20115   9.202  20.759  12.510
60822W        W20116  42.468  12.194  13.450
60823W        W20117  17.575  15.232  14.403
60824W        W20118  24.584  22.658   3.675
60825W        W20119  38.478  10.782   4.129
60826W        W20120  41.798  34.091   4.204
60827W        W20121  41.930  31.021  12.384
60828W        W20122  32.053  40.942   2.770
60829W        W20123  32.466  40.340   3.255
60830W        W20124   4.445  35.496   2.219
60831W        W20125   7.817  19.628  14.442
60832W        W20126   1.831  38.950   2.892
60833W        W20127  25.112   9.304  13.419
60834W        W20128  36.557  35.556  13.362
60835W        W20129   9.877  44.967   0.828
60836W        W20130  10.356  37.566   4.719
60837W        W20131  36.931  25.201  12.512
60838W        W20132  16.290   0.946   3.223
60839W        W20133  29.117  40.958  12.863
60840W        W20134   4.793  42.358  14.497
60841W        W20135   8.286  22.059   0.841
60842W        W20136   0.829  13.767   4.791
60843W        W20137  20.154   3.809  12.415
60844W        W20138  44.325  28.990   4.256
60845W        W20139   9.388  11.316  13.905
60846W        W20140  39.049  20.746  11.870
60847W        W20141  27.948   9.822   4.175
60848W        W20142  43.903  44.886  14.866
60849W        W20143  22.584  19.051   1.432
60850W        W20144  13.184  22.997   0.929
60851W        W20145  36.959  42.796   2.236
60852W        W20146  36.586   1.815  14.953
60853W        W20147   3.230  23.695  14.951
60854W        W20148  10.207  32.392   0.943
60855W        W20149  24.644  25.522  10.999
60856W        W20150   9.812  23.543   1.914
60857W        W20151  36.361  40.809   1.858
60858W        W20152   4.316  43.850   2.751
60859W        W20153   2.468  34.908  11.470
60860W        W20154   4.335  41.871  10.915
60861W        W20155  33.079  18.648   4.334
60862W        W20156  11.816  32.617   0.911
60863W        W20157  18.211  22.098  11.479
60864W        W20158  20.554  12.246  14.892
60865W        W20159  24.717   5.729  10.537
60866W        W20160  32.061  31.097  14.498
60867W        W20161   5.267   1.774   4.340
60868W        W20162  44.766  19.626   5.134
60869W        W20163  35.877  19.169  10.446
60870W        W20164  41.390  23.643   4.124
60871W        W20165  39.049   8.881  10.578
60872W        W20166  44.847   3.378  13.507
60873W        W20167  16.578  19.121  10.609
60874W        W20168  40.411   5.215   3.236
60875W        W20169  39.447   6.858   3.343
60876W        W20170  18.183  38.986  10.931
60877W        W20171  31.057  22.622  10.487
60878W        W20172  12.657  31.424   3.181
60879W        W20173   2.878  18.640   1.285
60880W        W20174  39.318  20.089  12.882
60881W        W20175  42.928  28.676   1.223
60882W        W20176  29.065  19.054  10.475
60883W        W20177  20.227  18.267  14.390
60884W        W20178  12.651  41.291   1.890
60885W        W20179  20.079  13.141   1.399
60886W        W20180  17.249  15.769  13.485
60887W        W20181  27.447  39.354  13.389
60888W        W20182  42.459  23.089  10.934
60889W        W20183   0.921  20.073  10.536
60890W        W20184  42.322  11.642  13.419
60891W        W20185  27.500  14.095   4.245
60892W        W20186   8.222  44.377  11.878
60893W        W20187  19.716  19.213  10.975
60894W        W20188  12.696   9.149   3.740
60895W        W20189  16.762  40.364  14.888
60896W        W20190  27.484  13.717   2.282
60897W        W20191  13.242  43.938   0.938
60898W        W20192   9.804  40.862  14.338
60899W        W20193   3.901  31.918   0.788
60900W        W20194   9.685  24.014   3.791
60901W        W20195  42.505  31.542   4.736
60902W        W20196   7.884   2.868   1.893
60903W        W20197  33.565  30.006  11.470
60904W        W20198  40.960  37.426  13.816
60905W        W20199  40.362   4.441   4.291
60906W        W20200   6.895  42.500  14.276
60907W        W20201  41.425  10.190   3.182
60908W        W20202   6.692   3.397  12.474
60909W        W20203   0.461   9.344   3.322
60910W        W20204  14.788   1.733   3.233
60911W        W20205  38.011  31.402  11.535
60912W        W20206   7.716  12.802  11.040
60913W        W20207  26.065  30.531  12.043
60914W        W20208   8.352   2.909   0.414
60915W        W20209  23.508  40.807   4.229
60916W        W20210  44.768  34.970  11.881
60917W        W20211  15.608   8.247  14.452
60918W        W20212  36.943  12.353   3.362
60919W        W20213  26.003  37.059   1.796
60920W        W20214  11.179   6.896   4.181
60921W        W20215  34.108  26.018  14.367
60922W        W20216  36.021  33.040  12.934
60923W        W20217  13.244   5.337  12.534
60924W        W20218  13.271  12.192   5.631
60925W        W20219   9.868  33.603   3.315
60926W        W20220   6.835  21.584  14.374
60927W        W20221  19.128  30.579   3.633
60928W        W20222  12.805   1.321   3.216
60929W        W20223  31.596  33.598   0.933
60930W        W20224  34.018  35.565   2.850
60931W        W20225   8.320   3.285   1.450
60932W        W20226  16.776   6.790  12.470
60933W        W20227  33.033  31.628   1.926
60934W        W20228  44.842  36.092   2.827
60935W        W20229  14.290  14.167   0.776
60936W        W20230  20.172  23.570  14.851
60937W        W20231  39.912  40.972  14.916
60938W        W20232  29.052  42.933  13.429
60939W        W20233  29.946  11.790   1.395
60940W        W20234  22.238  23.156   4.120
60941W        W20235  43.938  34.492   2.862
60942W        W20236  10.289  18.102  11.547
60943W        W20237  32.631  41.399  12.931
60944W        W20238  37.083  17.296   1.281
60945W        W20239  17.222   5.904   4.819
60946W        W20240  31.999  29.959   2.305
60947W        W20241   9.880   2.343  10.496
60948W        W20242   9.779  10.873   0.427
60949W        W20243  40.308   6.231   1.343
60950W        W20244  26.523  32.056  12.571
60951W        W20245  28.607  28.543   3.839
60952W        W20246  42.377  18.178  13.475
60953W        W20247  23.708  44.411  13.989
60954W        W20248  43.827  20.633  14.457
60955W        W20249  27.095  13.337   0.432
60956W        W20250   6.343  19.169   0.362
60957W        W20251  22.508   6.199  10.405
60958W        W20252   1.300  20.268   0.268
60959W        W20253  13.309  43.851   4.226
60960W        W20254   9.293  17.110   3.249
60961W        W20255  44.766  37.562  11.444
60962W        W20256  36.429  21.229   2.216
60963W        W20257   9.693  12.825  13.364
60964W        W20258  22.657  33.624   0.381
60965W        W20259  13.818  13.616   4.655
60966W        W20260  44.998  39.854   0.296
60967W        W20261  41.428  28.107  11.612
60968W        W20262  17.568  27.057  13.396
60969W        W20263  12.670  19.629  12.904
60970W        W20264   1.380  31.107   1.388
60971W        W20265   0.956   9.799   3.646
60972W        W20266  10.370  34.586  14.847
60973W        W20267  31.071  14.151   3.207
60974W        W20268  32.593   0.785  12.547
60975W        W20269  36.044  12.682  14.483
60976W        W20270  33.046  22.141   3.716
60977W        W20271   3.813  40.309  12.023
60978W        W20272  41.894  30.458  12.955
60979W        W20273  31.469  25.114  10.541
60980W        W20274  24.196  21.710  14.008
60981W        W20275  24.000   5.815  14.465
60982W        W20276  21.747  33.412  12.374
60983W        W20277  35.978  34.489   9.633
60984W        W20278  36.922  15.201   0.822
60985W        W20279   8.273  32.909   3.733
60986W        W20280  27.599   6.264   2.877
60987W        W20281  33.586   3.376  13.836
60988W        W20282   2.871  32.994   4.264
60989W        W20283  15.203   2.916   1.253
60990W        W20284  32.585  41.358  14.908
60991W        W20285  11.823  20.232  12.344
60992W        W20286   7.686  36.912   4.699
60993W        W20287  41.986  24.060  12.966
60994W        W20288  42.883   8.295  13.420
60995W        W20289   0.454  28.505   2.342
60996W        W20290  31.023  31.474  13.850
60997W        W20291  32.009  35.603  14.338
60998W        W20292  22.149  23.697   1.701
60999W        W20293   1.395  43.871   2.845
61000W        W20294  32.956   8.389   1.327
61001W        W20295  24.146   3.356   4.320
61002W        W20296   2.257  35.594   3.736
61003W        W20297  26.551   9.275   2.879
61004W        W20298   1.761  38.851  14.781
61005W        W20299  17.590  18.790  13.055
61006W        W20300  10.338   8.751  10.464
61007W        W20301  25.478  26.648   5.144
61008W        W20302  36.359  22.569  11.437
61009W        W20303  18.670   7.249   1.877
61010W        W20304   9.767  31.032   1.739
61011W        W20305  36.381  25.070  14.938
61012W        W20306   4.291  40.476   4.686
61013W        W20307   1.379  44.007   4.328
61014W        W20308  10.267  43.449   9.924
61015W        W20309  11.711   6.816  10.411
61016W        W20310  30.911  40.507  12.366
61017W        W20311  40.525   0.374   1.338
61018W        W20312  15.644  37.388   3.184
61019W        W20313   9.205  37.910   2.749
61020W        W20314  37.509   7.221   5.180
61021W        W20315  44.464  13.829  11.488
61022W        W20316  15.244  17.118   5.169
61023W        W20317   9.870   0.301  11.961
61024W        W20318  40.944  31.904   4.755
61025W        W20319  29.510  17.220   0.862
61026W        W20320  23.005  20.546  13.930
61027W        W20321   8.714  42.941  11.389
61028W        W20322  25.562  13.630   1.714
61029W        W20323  44.334  10.158  12.934
61030W        W20324   2.934  25.662  12.407
61031W        W20325  34.944  34.462   2.835
61032W        W20326   9.304   1.777  14.773
61033W        W20327  32.568  23.040   1.928
61034W        W20328  21.521  23.590   0.818
61035W        W20329  29.537  28.052   5.247
61036W        W20330  26.546  38.394   5.293
61037W        W20331  42.950  34.086   2.327
61038W        W20332  24.117  37.548  10.034
61039W        W20333  38.349  23.104  10.960
61040W        W20334  24.657  37.865   1.344
61041W        W20335  33.968  11.675  14.855
61042W        W20336  21.572  25.553  14.798
61043W        W20337  34.384  33.022   3.290
61044W        W20338   8.286  31.516  11.876
61045W        W20339  37.550  18.141   2.712
61046W        W20340  37.442  14.598   4.175
61047W        W20341  23.183  27.011   4.313
61048W        W20342  41.997   8.353  13.313
61049W        W20343  27.963  43.304   2.724
61050W        W20344  42.992  36.847   4.343
61051W        W20345  25.544   1.289  13.320
61052W        W20346  44.341  16.687   1.922
61053W        W20347  13.209  36.016   0.393
61054W        W20348   9.290   6.783   4.180
61055W        W20349  21.226  39.317  10.953
61056W        W20350  31.031   7.722   4.684
61057W        W20351  19.542  24.136   1.741
61058W        W20352   5.780  35.521   4.266
61059W        W20353  24.101  36.841   4.251
61060W        W20354  28.654  34.513   4.236
61061W        W20355  43.896   9.305   3.766
61062W        W20356  41.458  44.757   2.718
61063W        W20357  42.355  36.048  11.606
61064W        W20358   9.759  29.940   3.729
61065W        W20359  18.627  35.467   0.755
61066W        W20360  38.992  43.807  13.922
61067W        W20361  33.127   9.849  12.022
61068W        W20362  16.602  15.170   1.831
61069W        W20363  12.708   0.938  14.470
61070W        W20364  37.075   2.763   2.823
61071W        W20365  36.478  41.845  11.479
61072W        W20366  15.206  25.710   4.353
61073W        W20367   3.949  40.319  13.516
61074W        W20368  24.566  36.466  14.860
61075W        W20369  44.371  36.994   0.768
61076W        W20370  35.028  20.636   2.308
61077W        W20371  36.989  38.954  10.429
61078W        W20372  23.180  10.315   1.232
61079W        W20373  29.140   6.338  11.579
61080W        W20374  11.193  26.990   3.781
61081W        W20375  44.914  44.338   1.313
61082W        W20376  42.876   5.762   4.693
61083W        W20377  39.051  17.764  12.345
61084W        W20378   0.291  23.040  11.475
61085W        W20379  23.605   5.720   1.740
61086W        W20380  32.412   8.328   1.367
61087W        W20381   3.943  13.132   4.299
61088W        W20382  27.190   5.273  12.383
61089W        W20383  13.603   4.376  14.815
61090W        W20384   7.417   2.890   1.304
61091W        W20385  42.797  21.672  12.463
61092W        W20386  38.900  30.483  12.574
61093W        W20387  28.967  23.085  10.612
61094W        W20388  41.947   1.814   2.286
61095W        W20389  16.686  16.605  14.491
61096W        W20390  34.971  28.517   1.271
61097W        W20391  27.185   6.676  13.503
61098W        W20392  22.211  37.915  13.463
61099W        W20393  35.390  26.506  10.608
61100W        W20394  15.259  21.654   0.846
61101W        W20395   9.724  20.616  10.905
61102W        W20396  33.427  26.516  11.125
61103W        W20397  10.730  35.524  13.913
61104W        W20398  25.564  15.092   0.317
61105W        W20399  21.172   6.373  11.430
61106W        W20400  21.039  28.060  11.493
61107W        W20401  15.326   1.442  12.418
61108W        W20402  12.182  39.866  13.449
61109W        W20403  43.389   2.290   0.775
61110W        W20404  36.938   7.407  14.934
61111W        W20405  15.208  15.322  13.377
61112W        W20406  16.156  36.051   2.666
61113W        W20407  10.222  35.451   2.238
61114W        W20408  44.293  29.498   3.836
61115W        W20409  16.571  37.951  13.907
61116W        W20410  41.924  34.544   3.637
61117W        W20411   2.256  38.919  12.078
61118W        W20412  41.927  43.470  12.838
61119W        W20413  42.307  43.782  14.450
61120W        W20414   5.722  13.135  10.575
61121W        W20415  18.729  18.086   3.686
61122W        W20416  38.496  23.672   0.950
61123W        W20417  30.137  29.538  13.862
61124W        W20418   2.374  16.238   2.842
61125W        W20419  10.371  44.811  11.445
61126W        W20420  10.753  22.561   2.877
61127W        W20421   5.722  37.422  14.415
61128W        W20422  31.076  18.244  14.820
61129W        W20423  44.860  22.024  14.356
61130W        W20424  35.094  32.634  14.437
61131W        W20425  33.935  24.137   3.223
61132W        W20426  20.568  12.345   2.407
61133W        W20427   0.306  25.692   0.268
61134W        W20428  19.193   3.956  11.111
61135W        W20429   6.778  41.377  13.815
61136W        W20430  15.297  10.740  14.382
61137W        W20431  35.557  28.046  12.492
61138W        W20432  30.613  38.011   2.256
61139W        W20433  30.144   4.828   3.315
61140W        W20434  21.045  19.151  10.570
61141W        W20435  22.617   0.326   2.878
61142W        W20436  10.822   5.270   3.148
61143W        W20437  13.121  42.392   3.665
61144W        W20438   8.803  11.245  14.822
61145W        W20439  36.877  20.193   0.750
61146W        W20440  35.539  38.327  13.381
61147W        W20441   6.314  10.751  10.641
61148W        W20442   9.237  40.527   3.377
61149W        W20443  41.399   3.895  10.531
61150W        W20444  38.530  40.987  10.520
61151W        W20445  13.164  39.883   0.849
61152W        W20446   5.755   0.259  11.525
61153W        W20447  38.493  34.451   3.694
61154W        W20448  42.478  37.026   0.782
61155W        W20449  10.753  14.098  12.092
61156W        W20450   9.759  32.032   3.829
61157W        W20451   4.309  35.419  12.346
61158W        W20452  26.692  42.504   0.867
61159W        W20453  32.523  12.679  12.525
61160W        W20454   2.460  22.019   3.650
61161W        W20455  39.448  22.222   1.819
61162W        W20456  19.125  38.472   4.199
61163W        W20457  31.580   7.773  11.907
61164W        W20458   7.407   0.918   3.784
61165W        W20459  20.759  22.068   1.367
61166W        W20460  14.652  42.787  13.474
61167W        W20461   6.271  34.506   3.677
61168W        W20462  20.079  20.201  11.000
61169W        W20463   8.279  13.813   1.717
61170W        W20464  18.778  13.161   0.944
61171W        W20465  43.503   8.887   0.854
61172W        W20466  14.727   0.435   3.198
61173W        W20467  14.267  10.685   2.362
61174W        W20468  37.890  37.879   4.678
61175W        W20469  12.153  22.503   1.270
61176W        W20470  32.137  22.165   1.254
61177W        W20471  30.494  19.729  13.482
61178W        W20472  44.010  14.810   2.842
61179W        W20473  42.863  38.355  10.942
61180W        W20474  40.852  36.514   3.705
61181W        W20475  27.545  35.425  14.494
61182W        W20476  39.907   0.417  11.001
61183W        W20477  30.546   7.234  13.420
61184W        W20478   9.327  21.243   9.941
61185W        W20479  43.853  26.575   4.209
61186W        W20480  11.849   3.912  11.596
61187W        W20481  33.599  43.797   1.754
61188W        W20482   2.430  27.033   3.219
61189W        W20483  36.086  38.420   4.808
61190W        W20484  39.890  10.680  12.349
61191W        W20485  39.888  32.458   2.285
61192W        W20486  41.971  35.970   0.377
61193W        W20487  29.002  32.458  14.887
61194W        W20488  25.626  34.928  10.963
61195W        W20489  40.424  13.646   4.285
61196W        W20490  19.692  24.722  12.912
61197W        W20491  38.009  16.174   3.671
61198W        W20492   2.967  44.801  14.002
61199W        W20493  24.130  24.541  10.438
61200W        W20494  14.337   5.721  10.490
61201W        W20495  29.084  42.324  11.970
61202W        W20496   7.354  22.598  11.991
61203W        W20497   9.382  16.691   3.345
61204W        W20498  25.482   4.282   0.868
61205W        W20499  14.279  13.823   1.882
61206W        W20500  43.939  25.495  14.461
61207W        W20501   4.925  38.453   3.724
61208W        W20502  27.167   7.347  13.467
61209W        W20503  15.127  24.588  14.356
61210W        W20504  17.735  13.609  12.385
61211W        W20505  10.320  18.722  12.376
61212W        W20506  28.056   7.299  14.957
61213W        W20507   1.757  17.062   3.683
61214W        W20508   3.443   6.182   1.802
61215W        W20509  21.162   7.357  10.948
61216W        W20510  35.081  29.577   4.760
61217W        W20511  36.976   5.910  11.091
61218W        W20512  16.158   6.825  10.589
61219W        W20513  44.306  22.593   1.432
61220W        W20514  11.805  28.061   3.186
61221W        W20515  18.085  32.088  12.409
61222W        W20516   3.951  22.610   2.283
61223W        W20517  11.851  37.033   3.357
61224W        W20518  16.587   9.646  10.601
61225W        W20519  37.386  13.630   3.194
61226W        W20520  38.480  41.980   3.749
61227W        W20521  35.565  23.640   3.354
61228W        W20522  41.504   5.263   3.704
61229W        W20523  24.155   8.794   0.474
61230W        W20524  30.426   8.264  10.604
61231W        W20525  11.688  10.325  10.972
61232W        W20526  29.563  20.256  13.793
61233W        W20527   2.757   2.932   1.797
61234W        W20528  11.825  34.540   2.701
61235W        W20529  37.437  12.261  13.477
61236W        W20530  36.413  23.156  13.813
61237W        W20531  11.147   0.936  10.912
61238W        W20532  40.459  35.968  12.436
61239W        W20533  17.675  26.518   4.714
61240W        W20534   7.905  33.071  10.618
61241W        W20535  29.067  32.993   3.180
61242W        W20536   9.272  37.055   2.185
61243W        W20537  39.902  38.906  12.529
61244W        W20538  26.084  38.500  11.390
61245W        W20539  18.737  16.609   1.417
61246W        W20540  28.938  10.751   3.636
61247W        W20541  28.107  37.483   0.349
61248W        W20542  31.521  20.587  13.036
61249W        W20543  30.035  13.745   2.770
61250W        W20544  14.625  27.145   0.334
61251W        W20545  35.422  25.058  14.772
61252W        W20546  43.864  16.687   1.825
61253W        W20547   9.877  23.185   1.298
61254W        W20548  31.633  25.672  13.373
61255W        W20549  36.098   7.726  14.905
61256W        W20550   2.859  22.044  14.901
61257W        W20551  17.256   8.708  12.528
61258W        W20552  35.430  13.143  12.541
61259W        W20553  35.562  15.692  10.551
61260W        W20554  18.203  17.194   3.215
61261W        W20555  41.320  22.649   2.708
61262W        W20556  24.677  33.433  10.414
61263W        W20557  32.572  36.971   4.296
61264W        W20558  33.902  34.012   0.266
61265W        W20559  37.407   6.302  11.483
61266W        W20560  29.024  40.812   3.728
61267W        W20561  27.001  18.638   1.294
61268W        W20562  23.125  35.858   2.846
61269W        W20563  35.509   0.841  12.882
61270W        W20564  13.181  33.943   0.758
61271W        W20565  18.172   1.856  11.916
61272W        W20566  25.707  29.526   0.370
61273W        W20567   8.373   4.858   5.183
61274W        W20568  44.396  25.020   2.667
61275W        W20569  31.979  21.245  14.304
61276W        W20570  36.913  14.635   3.235
61277W        W20571   0.760  15.192   3.732
61278W        W20572   3.313  20.699  12.435
61279W        W20573  37.491   3.358  10.061
61280W        W20574  36.425  12.172  11.882
61281W        W20575  31.570  39.344   0.337
61282W        W20576  41.308  12.622  12.981
61283W        W20577  23.705  33.126  13.413
61284W        W20578  23.146  31.012  13.063
61285W        W20579  27.981  30.453   1.243
61286W        W20580  40.879  35.035  14.809
61287W        W20581  20.052   2.376  13.011
61288W        W20582  20.601  39.406   2.244
61289W        W20583   4.942  29.644  12.902
61290W        W20584   3.887  31.596  12.470
61291W        W20585  26.020  35.895   2.843
61292W        W20586   4.416  44.790   3.835
61293W        W20587  24.601  29.577  13.343
61294W        W20588   9.325  20.625   2.678
61295W        W20589  31.149  17.200   9.921
61296W        W20590  25.707  42.417  10.893
61297W        W20591  12.663  32.431   2.880
61298W        W20592  24.979  44.282  13.941
61299W        W20593  35.575  25.662  12.874
61300W        W20594  40.507  36.998  10.438
61301W        W20595  12.285  41.511  12.019
61302W        W20596  42.519  23.990  12.556
61303W        W20597   1.257  37.921   4.349
61304W        W20598  41.834  27.602  14.874
61305W        W20599  21.618   0.405   0.341
61306W        W20600  12.616  39.915  13.792
61307W        W20601  30.494   4.838   3.850
61308W        W20602   6.752  31.990   3.639
61309W        W20603   6.699  21.175  12.340
61310W        W20604  33.502  29.581   2.713
61311W        W20605   6.695  32.001   1.433
61312W        W20606  31.438  32.416   3.356
61313W        W20607  15.326  34.960  11.985
61314W        W20608  28.141   9.178   3.679
61315W        W20609  34.523   8.166  13.796
61316W        W20610  25.561   9.676  12.879
61317W        W20611  35.587  31.453  14.334
61318W        W20612  12.843  25.572  13.498
61319W        W20613  26.075   9.870   4.693
61320W        W20614  34.459  11.249  12.927
61321W        W20615   3.330  24.177   3.384
61322W        W20616  10.815  15.816   0.865
61323W        W20617   7.896  24.575   0.354
61324W        W20618  39.349   1.978   2.356
61325W        W20619  42.383  43.899  11.574
61326W        W20620  20.564  34.436  11.939
61327W        W20621   5.733  40.479  10.606
61328W        W20622   8.302  27.139   0.328
61329W        W20623  18.212   9.699  12.418
61330W        W20624   7.250  43.318  11.020
61331W        W20625  15.135  30.529   1.872
61332W        W20626   6.391  28.589   1.852
61333W        W20627  41.451  14.128  14.896
61334W        W20628  25.672  43.504  13.831
61335W        W20629  22.622  17.148   1.263
61336W        W20630  19.103  25.590  13.904
61337W        W20631  41.945  10.327   4.140
61338W        W20632  24.078   9.155  13.350
61339W        W20633  12.362  32.558   3.863
61340W        W20634  25.046  41.342  10.574
61341W        W20635   4.717   6.808  12.466
61342W        W20636  36.957  43.903   1.911
61343W        W20637  17.091  21.029  10.950
61344W        W20638  35.378  32.464   4.643
61345W        W20639  12.355  14.267  11.895
61346W        W20640  36.421  10.152  13.969
61347W        W20641  24.599  26.625  12.368
61348W        W20642  34.394  36.883  14.023
61349W        W20643  16.110   8.219  12.857
61350W        W20644  21.232  14.198  12.512
61351W        W20645  18.545  36.485  11.937
61352W        W20646  40.415   0.471   0.960
61353W        W20647  28.966   3.310   0.448
61354W        W20648  30.461  17.281  14.405
61355W        W20649  10.659  19.052  10.905
61356W        W20650  42.816  17.610  12.348
61357W        W20651  17.610   8.896   2.199
61358W        W20652  30.439   1.254   4.673
61359W        W20653  15.734  32.932  14.813
61360W        W20654  41.359  32.889  13.546
61361W        W20655   5.761  27.104  13.824
61362W        W20656  14.197   7.729   5.173
61363W        W20657  36.518  23.148  13.519
61364W        W20658  20.531   3.376   5.274
61365W        W20659  35.569  44.383   3.676
61366W        W20660   1.356  10.767  10.901
61367W        W20661   3.357  13.116  11.024
61368W        W20662  43.345   0.283   0.269
61369W        W20663  19.779  26.589  14.951
61370W        W20664   9.779  19.160  13.377
61371W        W20665  10.233   7.246  11.516
61372W        W20666   4.827   4.816  13.947
61373W        W20667   1.973   4.875  14.839
61374W        W20668  23.240  12.216   4.269
61375W        W20669  43.828  41.921   4.718
61376W        W20670  18.605  41.981  10.522
61377W        W20671  40.959  33.572  14.318
61378W        W20672  36.547  38.061  13.922
61379W        W20673  42.287   4.779   1.738
61380W        W20674  19.231  12.836  14.337
61381W        W20675   2.734  13.650  14.385
61382W        W20676  39.880  10.752   2.336
61383W        W20677   3.289   3.325   1.909
61384W        W20678  15.725  30.547   1.778
61385W        W20679   8.202   0.900  13.374
61386W        W20680  25.472  20.555  14.450
61387W        W20681  12.734  22.022   3.309
61388W        W20682  36.955  19.740   4.792
61389W        W20683  32.441  42.506  13.860
61390W        W20684   5.751  43.853   1.247
61391W        W20685  17.242  25.129  11.404
61392W        W20686  29.041   8.814   3.773
61393W        W20687  23.679   2.825  10.474
61394W        W20688  27.471   7.367  10.955
61395W        W20689  26.458  32.112   3.228
61396W        W20690  16.183  11.190   3.863
61397W        W20691  33.958  39.460  12.950
61398W        W20692   7.196  42.401   0.828
61399W        W20693  26.637  29.025  12.497
61400W        W20694  12.230  27.979   1.913
61401W        W20695   5.905  40.020  11.426
61402W        W20696   1.421  28.520   3.238
61403W        W20697  42.400  12.668  14.326
61404W        W20698  21.168  31.419   0.740
61405W        W20699  41.365  39.399  13.482
61406W        W20700  26.587  20.035  14.021
61407W        W20701  12.815   7.729  10.897
61408W        W20702   5.375  38.429   3.689
61409W        W20703  44.435   6.829  13.914
61410W        W20704  29.023  27.493  11.959
61411W        W20705  24.008  19.251   1.917
61412W        W20706   7.277   3.741   1.381
61413W        W20707   0.283   5.846   4.130
61414W        W20708   2.409  41.017   4.174
61415W        W20709  16.664  41.841  13.910
61416W        W20710  16.255   9.696   0.379
61417W        W20711   1.245  35.384   2.727
61418W        W20712  30.656  43.423   2.310
61419W        W20713  32.011  31.102  10.519
61420W        W20714  28.532  40.883   1.840
61421W        W20715   6.229   7.256   3.652
61422W        W20716   2.316  23.051  10.906
61423W        W20717  35.536  34.037  12.887
61424W        W20718  24.228  33.599  11.425
61425W        W20719   0.973  16.626   2.761
61426W        W20720  13.610  15.242  13.035
61427W        W20721  35.946  11.219   0.433
61428W        W20722  11.327  27.123   0.846
61429W        W20723  18.708  17.756  10.562
61430W        W20724  27.154  35.497   0.376
61431W        W20725  10.368   9.713  14.795
61432W        W20726  11.298   1.396  13.935
61433W        W20727  21.018  10.149  13.509
61434W        W20728  25.155  13.767   2.874
61435W        W20729   6.197  13.291   1.299
61436W        W20730  20.658  13.296   3.247
61437W        W20731  37.509  36.443   4.674
61438W        W20732  34.999  40.845  10.528
61439W        W20733  25.102   3.903   1.255
61440W        W20734  17.654  41.444  11.911
61441W        W20735  12.849  37.536   4.792
61442W        W20736  37.074   7.399   1.892
61443W        W20737   3.276   9.712  12.493
61444W        W20738   9.340  36.928   4.692
61445W        W20739  24.008  19.629   2.732
61446W        W20740  28.480  44.816  12.961
61447W        W20741   7.404  38.942  14.863
61448W        W20742   4.835  34.578   3.170
61449W        W20743   6.842  24.087  13.445
61450W        W20744  19.148  39.912  11.561
61451W        W20745  15.790  13.758   4.611
61452W        W20746  31.099   0.462   2.315
61453W        W20747  24.994   5.231   1.808
61454W        W20748  44.797  28.604   3.679
61455W        W20749  33.429  23.986  11.104
61456W        W20750  21.690   5.286  11.123
61457W        W20751  34.079  27.631  12.026
61458W        W20752  27.487  19.535  12.530
61459W        W20753  42.493  21.678  13.816
61460W        W20754  10.146  15.318  10.627
61461W        W20755  43.022  30.475   1.709
61462W        W20756  34.084  21.048   4.837
61463W        W20757  25.166   8.770   0.822
61464W        W20758  28.589   0.780   0.317
61465W        W20759  35.580  28.109  10.580
61466W        W20760   0.858   7.405   3.725
61467W        W20761  16.121  12.178  10.416
61468W        W20762  19.714  15.310   0.415
61469W        W20763  24.488  33.483   3.642
61470W        W20764  38.419  20.742   0.247
61471W        W20765  34.106  42.886  13.988
61472W        W20766  10.686  33.119   4.729
61473W        W20767  15.138   3.433  14.913
61474W        W20768  18.553  42.345  10.495
61475W        W20769  39.868   4.369   0.294
61476W        W20770  39.900  33.502  12.015
61477W        W20771  19.682  21.174   4.813
61478W        W20772  24.577   2.823   4.640
61479W        W20773  40.411  34.065  14.497
61480W        W20774  41.949  21.724  11.859
61481W        W20775  10.291  39.919  14.862
61482W        W20776  24.523  11.319   0.250
61483W        W20777  24.212  29.999   2.736
61484W        W20778  22.549  17.577  13.385
61485W        W20779   1.896  37.988  13.506
61486W        W20780  32.486  25.505  11.077
61487W        W20781  37.047  25.582  13.958
61488W        W20782  20.612  19.102  13.357
61489W        W20783   6.359  39.036  13.546
61490W        W20784  34.863   4.878   0.440
61491W        W20785  24.604   7.278  10.645
61492W        W20786   1.283  27.070   0.382
61493W        W20787  17.734   5.402   4.684
61494W        W20788  28.975  17.653  11.461
61495W        W20789  40.518  23.612   5.124
61496W        W20790  34.573  42.029  10.571
61497W        W20791  24.563  39.405  12.019
61498W        W20792  22.606  33.983  10.943
61499W        W20793  27.100  25.083  10.000
61500W        W20794  33.907  32.412  11.944
61501W        W20795  26.151   4.332   3.298
61502W        W20796  15.180  34.121   1.222
61503W        W20797   9.757  11.243  14.988
61504W        W20798   0.840  16.269  11.514
61505W        W20799  18.244  13.748  11.611
61506W        W20800  43.971  18.238  10.898
61507W        W20801  30.055   2.412  11.122
61508W        W20802  10.257  38.512  11.939
61509W        W20803  33.897   0.429   1.925
61510W        W20804  41.507  14.591   3.168
61511W        W20805   5.282  14.680   0.794
61512W        W20806  25.090   4.333   4.214
61513W        W20807  36.950   1.421   3.743
61514W        W20808  27.606   6.420  14.452
61515W        W20809   6.723  20.170   2.285
61516W        W20810  26.956  30.620   0.932
61517W        W20811  24.227  18.659  13.011
61518W        W20812  12.813  17.239  12.459
61519W        W20813   0.751  18.100   3.636
61520W        W20814   6.378   9.155  14.338
61521W        W20815  40.408  42.377  11.445
61522W        W20816  15.184  14.141   1.248
61523W        W20817  44.763  21.071  13.361
61524W        W20818  21.065  37.031   3.853
61525W        W20819  38.334  32.620   1.419
61526W        W20820  42.838   9.347  14.787
61527W        W20821  38.443  17.307  12.840
61528W        W20822  35.598   5.780  10.440
61529W        W20823  11.713  39.952   2.827
61530W        W20824  37.014   0.865  12.061
61531W        W20825   5.260   4.753   2.249
61532W        W20826  25.583   2.265  13.524
61533W        W20827  37.529  28.058   3.229
61534W        W20828   6.883  13.660  12.959
61535W        W20829  28.579   1.255   3.844
61536W        W20830   3.862  23.683  15.000
61537W        W20831  38.330  21.544   3.754
61538W        W20832   5.844  30.639  12.086
61539W        W20833  37.439  12.308   0.380
61540W        W20834  27.061  35.926   3.760
61541W        W20835  19.631  37.378  11.993
61542W        W20836  27.586   4.381  14.352
61543W        W20837   8.279  34.964   4.306
61544W        W20838   1.283  16.663  12.419
61545W        W20839  23.660   4.744  14.477
61546W        W20840  19.252  19.739  11.512
61547W        W20841  32.424   9.736  14.878
61548W        W20842  17.097  28.140  13.807
61549W        W20843   4.862  31.567  14.938
61550W        W20844  40.503  24.173  14.907
61551W        W20845   0.382  20.041  13.897
61552W        W20846  11.832  23.554   2.823
61553W        W20847  39.520  32.021   3.181
61554W        W20848  44.400  14.273   2.238
61555W        W20849   8.819   1.381   3.188
61556W        W20850  10.650  10.686  11.458
61557W        W20851  37.406  37.355   5.217
61558W        W20852  42.430   5.823   0.763
61559W        W20853   7.818  21.190   0.790
61560W        W20854  29.656  24.504   4.692
61561W        W20855  14.311  25.007   3.789
61562W        W20856  35.094  40.995  13.352
61563W        W20857  44.298  20.266  10.970
61564W        W20858  10.238  13.793   5.115
61565W        W20859  30.058   8.314   0.265
61566W        W20860  40.314  40.980   4.792
61567W        W20861   9.801  24.676  12.070
61568W        W20862  44.903  20.534  14.999
61569W        W20863  23.207  21.161   1.417
61570W        W20864  11.365  31.983  12.853
61571W        W20865   6.923  40.484  11.952
61572W        W20866  44.960  34.551   4.337
61573W        W20867  20.762   4.918  10.949
61574W        W20868   3.431  27.615  13.011
61575W        W20869  21.034  38.350  11.535
61576W        W20870   0.366  36.470  13.430
61577W        W20871  33.096  28.078  14.808
61578W        W20872  41.805   9.796  11.998
61579W        W20873  16.690  24.063  13.050
61580W        W20874  31.597  10.795  10.418
61581W        W20875   7.295   1.886   2.785
61582W        W20876  25.471  33.619  13.869
61583W        W20877   0.348  38.364   2.903
61584W        W20878   9.387  37.835   3.784
61585W        W20879  32.114  35.451  14.819
61586W        W20880   3.265  24.530   4.286
61587W        W20881  25.494  42.989   2.197
61588W        W20882  33.474  20.158  14.011
61589W        W20883  16.138  16.126   4.683
61590W        W20884  42.377  44.470   0.729
61591W        W20885  32.066  33.608  14.978
61592W        W20886  18.063  34.515   3.366
61593W        W20887  27.128  32.040   3.172
61594W        W20888  30.471  23.177  12.382
61595W        W20889  18.106  23.074   4.287
61596W        W20890   6.822  21.616   2.231
61597W        W20891  24.045  31.981   4.654
61598W        W20892   2.281   2.742   9.960
61599W        W20893  43.330  33.046   2.779
61600W        W20894  18.561  29.572  12.031
61601W        W20895   2.894   9.235  13.980
61602W        W20896   8.192  29.645   3.236
61603W        W20897  32.462   7.837   1.375
61604W        W20898  14.283  31.479   1.231
61605W        W20899  38.520  39.874  12.852
61606W        W20900  26.992  22.247  11.091
61607W        W20901  14.139   1.782   1.758
61608W        W20902  33.524  18.164   0.441
61609W        W20903  11.307  21.091  11.592
61610W        W20904  44.411   8.757   0.864
61611W        W20905  37.505  24.151  13.911
61612W        W20906   9.231  37.009  14.300
61613W        W20907  20.187  44.498   0.269
61614W        W20908  20.527  23.092   2.345
61615W        W20909   7.875  14.610  10.955
61616W        W20910  44.437   8.879  12.031
61617W        W20911  38.368  11.184  14.435
61618W        W20912  31.476  35.358   0.939
61619W        W20913  11.296  17.162  12.369
61620W        W20914  19.148  23.014   2.365
61621W        W20915  38.562  16.162   1.859
61622W        W20916   1.777  44.471  13.323
61623W        W20917  24.575  39.373  10.945
61624W        W20918  23.128  23.131  11.114
61625W        W20919  34.427  41.885  13.052
61626W        W20920  20.678  38.331  14.288
61627W        W20921   5.413  10.267   0.749
61628W        W20922   5.808   3.221   1.799
61629W        W20923  29.930  29.557  12.500
61630W        W20924  12.228   5.369   0.382
61631W        W20925  19.147  25.482  10.923
61632W        W20926  25.126  20.080  10.441
61633W        W20927   9.252  40.529  10.040
61634W        W20928   2.797  43.412  10.905
61635W        W20929  24.153  42.320  13.355
61636W        W20930  34.402  36.945   4.178
61637W        W20931  26.044   3.899  13.385
61638W        W20932  20.681   3.872  11.563
61639W        W20933  25.488  43.416   2.256
61640W        W20934  37.434  36.365  14.945
61641W        W20935  28.662   3.319  14.985
61642W        W20936   8.160   0.284  12.999
61643W        W20937  26.088  35.883   3.182
61644W        W20938  32.979  11.241   5.137
61645W        W20939  41.905  13.820   1.922
61646W        W20940  29.999  10.319   1.280
61647W        W20941  40.426  36.865  13.369
61648W        W20942  40.333   6.408   3.771
61649W        W20943   5.893  42.320   3.336
61650W        W20944  16.110  33.382   2.282
61651W        W20945   7.840   5.238  14.355
61652W        W20946  13.788  30.950   0.783
61653W        W20947  15.096   5.791   2.861
61654W        W20948  17.768  23.550  13.038
61655W        W20949  24.513   7.235   3.717
61656W        W20950  15.284   1.817  13.431
61657W        W20951  10.167  36.962  11.554
61658W        W20952  12.171  17.281   4.252
61659W        W20953   6.854  13.764   0.459
61660W        W20954  44.267   2.408   4.285
61661W        W20955  28.495  19.566  14.353
61662W        W20956  21.727  13.744   2.843
61663W        W20957  39.977  22.512   4.206
61664W        W20958  16.205  28.013   9.928
61665W        W20959   9.342  26.566  12.547
61666W        W20960  16.162  28.534  13.410
61667W        W20961   7.804  17.184  12.067
61668W        W20962  25.211  10.265  13.898
61669W        W20963  34.477  10.656   4.335
61670W        W20964  12.121  36.031  14.895
61671W        W20965   9.151  36.964   0.963
61672W        W20966  42.837  39.882   1.798
61673W        W20967  21.654  22.700  12.928
61674W        W20968  26.647   0.879   1.445
61675W        W20969   9.316   4.359  10.943
61676W        W20970  43.842   4.276  11.025
61677W        W20971   5.707  42.516  14.489
61678W        W20972  15.803  39.997   2.303
61679W        W20973   3.412  14.605   4.251
61680W        W20974  29.119   5.855  12.405
61681W        W20975  38.873   2.740  12.347
61682W        W20976   1.958   1.883   1.848
61683W        W20977  32.465  25.100  13.945
61684W        W20978   7.804  31.597   1.264
61685W        W20979  16.584   3.912   2.193
61686W        W20980   2.946  25.109  11.515
61687W        W20981   0.964  18.636   0.352
61688W        W20982  27.957  42.520  13.894
61689W        W20983  23.188  36.008  10.994
61690W        W20984  25.480   2.376  14.789
61691W        W20985   7.338  41.319  14.795
61692W        W20986  28.068  43.021  13.843
61693W        W20987  33.387   7.813  13.960
61694W        W20988   7.415  19.699  10.585
61695W        W20989   1.450  31.982  12.019
61696W        W20990  30.030  34.949   0.259
61697W        W20991  26.155  10.212   1.286
61698W        W20992  22.671  14.688   3.822
61699W        W20993  39.442  21.165  13.440
61700W        W20994  13.608  16.221   1.265
61701W        W20995  19.162  28.586   1.696
61702W        W20996   7.334   8.760   2.671
61703W        W20997  19.160  30.642  14.856
61704W        W20998   1.887  12.130   2.752
61705W        W20999  32.931  20.078  10.587
61706W        W21000  30.535  26.700   1.353
61707W        W21001  27.655  37.972   0.917
61708W        W21002   1.830  13.168  14.843
61709W        W21003   0.422  43.314   2.392
61710W        W21004  25.204   9.382  14.279
61711W        W21005  16.096  18.168   4.671
61712W        W21006  15.187   1.816   3.271
61713W        W21007   3.413  24.048  13.400
61714W        W21008  20.172  12.823   3.760
61715W        W21009   1.737  43.937   4.248
61716W        W21010   7.346  23.166   1.423
61717W        W21011  21.560  42.967   4.667
61718W        W21012  41.501  12.626   4.651
61719W        W21013  35.012  23.010  12.039
61720W        W21014  21.241  43.877   4.133
61721W        W21015   8.331   3.866   4.805
61722W        W21016  34.932   3.935  13.450
61723W        W21017  17.094   5.225  10.631
61724W        W21018   8.401  33.887  13.004
61725W        W21019  30.650  12.774   1.445
61726W        W21020  36.403   0.820  10.098
61727W        W21021  33.896  30.101  11.491
61728W        W21022  14.630  40.370   2.252
61729W        W21023  39.372   8.813   2.709
61730W        W21024   7.675  28.562   4.331
61731W        W21025  27.454  35.067   0.323
61732W        W21026  26.477  16.303  12.087
61733W        W21027  39.943  33.108   2.791
61734W        W21028  29.563   0.801  10.547
61735W        W21029  17.150  15.228   3.379
61736W        W21030  36.392  38.473   0.259
61737W        W21031   6.807   5.785  12.841
61738W        W21032  34.392  27.054   0.451
61739W        W21033  43.396  28.086   2.259
61740W        W21034  29.047  37.960   3.337
61741W        W21035  30.060  42.472  14.391
61742W        W21036  19.699  14.637  10.571
61743W        W21037  19.218  39.526   1.217
61744W        W21038   2.439  40.898  14.834
61745W        W21039  27.992  19.131   3.650
61746W        W21040   8.708  35.377   2.671
61747W        W21041   9.868   8.813  12.051
61748W        W21042  19.082  36.911  13.819
61749W        W21043  21.203  33.996  12.368
61750W        W21044  25.010   9.688  14.474
61751W        W21045  37.558  16.709  12.855
61752W        W21046  32.415  29.650   2.249
61753W        W21047  21.114  40.027   1.450
61754W        W21048   0.452  27.112  12.371
61755W        W21049  38.930  34.414   2.409
61756W        W21050  36.854  39.824   1.861
61757W        W21051  30.606  20.076  14.455
61758W        W21052  41.321  10.722   0.756
61759W        W21053  17.137  27.579  12.005
61760W        W21054  36.048  26.614  12.464
61761W        W21055  12.661   5.813  13.992
61762W        W21056  30.601  25.979   0.957
61763W        W21057  37.999   5.366  11.611
61764W        W21058  20.578  38.346   3.686
61765W        W21059  16.149  38.960  10.453
61766W        W21060  44.787  23.642   3.257
61767W        W21061  37.965   3.805  11.585
61768W        W21062  26.559  12.235   0.447
61769W        W21063  34.585   0.444   0.926
61770W        W21064  44.892  40.544   4.201
61771W        W21065  35.881  43.293  10.541
61772W        W21066   1.305  30.656  10.564
61773W        W21067  22.704  15.190  13.493
61774W        W21068   4.769  23.673  14.020
61775W        W21069  17.065  31.463   2.295
61776W        W21070  37.880   5.749  12.040
61777W        W21071  31.512  13.810   3.147
61778W        W21072  40.888  34.489  13.525
61779W        W21073  41.323  35.028  12.418
61780W        W21074  18.111   6.267   2.772
61781W        W21075   6.218  11.639  11.956
61782W        W21076   2.859  39.038  14.507
61783W        W21077  12.266  19.163  10.540
61784W        W21078  34.590  32.025   2.250
61785W        W21079  29.135  31.932   3.858
61786W        W21080   6.906  20.723   2.878
61787W        W21081  30.640   2.293   1.789
61788W        W21082  42.969  15.184  13.949
61789W        W21083  37.047  15.633  14.493
61790W        W21084  17.179  14.132   2.362
61791W        W21085  38.344  18.058  12.940
61792W        W21086  39.834  13.676   4.693
61793W        W21087   9.753  42.987  10.419
61794W        W21088  31.924  44.331  14.839
61795W        W21089  18.742  15.582  10.539
61796W        W21090  25.497  41.381   3.244
61797W        W21091  43.413   2.449  12.531
61798W        W21092  36.494  35.425  10.977
61799W        W21093  28.018  30.526  14.915
61800W        W21094  25.636  34.581   0.400
61801W        W21095   6.427  30.969  13.358
61802W        W21096  27.968  18.691   2.204
61803W        W21097  19.239  17.795  13.038
61804W        W21098  41.519  24.513   0.393
61805W        W21099  17.603  40.824   3.805
61806W        W21100  43.828  19.562  11.083
61807W        W21101  21.060  38.435   0.463
61808W        W21102  31.460  35.977   4.355
61809W        W21103  29.492  37.954  13.414
61810W        W21104  15.694  32.043  13.046
61811W        W21105  43.833   9.213  13.860
61812W        W21106  24.542  38.380  12.921
61813W        W21107  35.090  35.035   1.417
61814W        W21108  17.657  27.512   0.408
61815W        W21109  40.850  32.112   4.309
61816W        W21110   0.776   3.405  12.998
61817W        W21111  14.663  30.989  12.857
61818W        W21112  13.691  25.645  13.420
61819W        W21113  22.169  38.467  13.805
61820W        W21114  27.043  34.045  11.014
61821W        W21115   2.249  10.803  14.444
61822W        W21116  44.887   2.262  12.473
61823W        W21117  10.255  10.351  13.927
61824W        W21118  15.250  37.424  14.338
61825W        W21119   7.341  37.984   2.260
61826W        W21120  40.985  41.817   2.868
61827W        W21121  25.181  16.089  13.413
61828W        W21122  11.839  27.157  13.405
61829W        W21123  29.632  35.944   3.282
61830W        W21124  41.002  32.995   3.758
61831W        W21125  18.547  32.061  11.042
61832W        W21126  18.184  21.517  12.851
61833W        W21127  31.578  43.415  13.938
61834W        W21128   6.834   8.195   0.443
61835W        W21129  28.563  31.589  14.465
61836W        W21130  15.822  26.988  14.506
61837W        W21131  31.446  19.235  11.482
61838W        W21132   3.423  12.629  10.615
61839W        W21133  16.753  12.716   0.327
61840W        W21134  22.157  23.556  10.594
61841W        W21135  41.821   0.431   1.846
61842W        W21136  26.059  33.886   2.269
61843W        W21137  12.775  35.970   1.707
61844W        W21138  30.577  11.205   0.833
61845W        W21139  37.925  39.366   5.143
61846W        W21140   8.728  35.376  10.110
61847W        W21141  43.018  26.564  13.864
61848W        W21142  28.438   8.680   1.798
61849W        W21143  21.246   6.848   3.760
61850W        W21144  29.118  20.074   1.417
61851W        W21145  18.059   3.266   5.159
61852W        W21146   0.929  35.109  13.838
61853W        W21147  28.505  23.553  14.893
61854W        W21148  28.010  12.149  11.495
61855W        W21149  23.101  21.590   0.908
61856W        W21150  40.023  26.037   2.836
61857W        W21151  43.841  26.553   1.852
61858W        W21152  18.227  32.478  10.903
61859W        W21153  42.813  16.152  14.788
61860W        W21154  33.623  35.959   0.317
61861W        W21155  15.693  40.955  10.592
61862W        W21156   6.837  14.736   1.704
61863W        W21157  23.558  38.486   2.327
61864W        W21158  19.172  35.568   4.651
61865W        W21159  12.816   7.336  12.511
61866W        W21160  21.088  39.012  14.836
61867W        W21161   9.788  23.156  13.513
61868W        W21162   7.408  43.921   0.452
61869W        W21163  43.840  43.795  10.147
61870W        W21164   5.422  41.308  13.493
61871W        W21165  36.965  10.671  11.873
61872W        W21166   8.758  22.019  13.995
61873W        W21167  28.160  20.616   2.305
61874W        W21168  24.999   3.336   2.181
61875W        W21169   0.349  37.382   0.359
61876W        W21170   1.483   4.932  12.966
61877W        W21171  27.133  21.065   3.714
61878W        W21172  11.653  26.646  13.064
61879W        W21173  29.603  31.993  10.979
61880W        W21174  30.971   2.823  12.526
61881W        W21175  20.749  35.362   0.806
61882W        W21176  14.295   9.204   1.428
61883W        W21177   0.836  26.652  11.513
61884W        W21178  12.215  32.629  14.290
61885W        W21179   4.700   3.436  11.060
61886W        W21180  10.242  14.227  11.590
61887W        W21181  15.802   6.316   0.362
61888W        W21182  39.881  26.499   0.866
61889W        W21183   4.744   1.814  13.452
61890W        W21184  32.110  40.950   1.428
61891W        W21185  43.293  12.665   2.831
61892W        W21186  16.209  14.714  10.587
61893W        W21187  30.479  27.664   0.772
61894W        W21188   0.941  36.591   3.656
61895W        W21189  28.186  25.013   9.997
61896W        W21190  12.155  42.324   3.209
61897W        W21191   5.901  31.120  14.424
61898W        W21192  34.982  17.575  11.012
61899W        W21193  12.324  12.748   1.759
61900W        W21194  36.586   4.369   2.798
61901W        W21195  25.713  24.199   1.359
61902W        W21196  36.439   3.432  10.114
61903W        W21197  12.361  30.119  11.968
61904W        W21198   4.892   5.854  14.393
61905W        W21199  25.204   5.417   4.258
61906W        W21200  22.150  31.537   4.767
61907W        W21201  24.998  33.930  14.025
61908W        W21202  35.363  27.661   4.632
61909W        W21203  35.934  31.602  11.426
61910W        W21204   5.326  43.371   2.893
61911W        W21205   4.365  24.553  14.324
61912W        W21206  28.157  41.810   3.348
61913W        W21207  24.664  19.730  10.418
61914W        W21208  17.708  36.372   0.483
61915W        W21209   2.900  24.198   3.175
61916W        W21210  21.645  41.881   0.334
61917W        W21211  29.951  14.148   1.335
61918W        W21212  10.660  15.624  13.850
61919W        W21213   1.282  42.873  14.931
61920W        W21214   0.798  40.452  11.580
61921W        W21215   1.901  31.924   1.269
61922W        W21216   0.396   6.389  10.643
61923W        W21217  14.144   0.891  10.570
61924W        W21218  19.165   9.786  14.846
61925W        W21219   6.363  34.591  12.442
61926W        W21220   8.224  14.281   1.223
61927W        W21221  19.121  26.146  11.051
61928W        W21222  43.948  40.319   1.802
61929W        W21223  11.815   8.264  11.914
61930W        W21224  26.009  44.860  10.970
61931W        W21225  15.171   3.755  13.401
61932W        W21226   7.344   7.224  13.365
61933W        W21227   1.909   5.696   3.174
61934W        W21228  13.799  35.958   1.359
61935W        W21229  44.313  20.250   1.347
61936W        W21230  37.559  21.142  12.914
61937W        W21231   2.941  22.702  10.062
61938W        W21232  35.061   2.876   0.444
61939W        W21233  43.915  44.433   9.982
61940W        W21234   7.831   3.441  11.122
61941W        W21235  28.034   0.832  13.904
61942W        W21236  15.769  42.500  10.503
61943W        W21237  28.082   6.408   3.254
61944W        W21238  20.762  43.285   3.161
61945W        W21239  30.099  38.943  12.440
61946W        W21240  11.765  12.269   1.852
61947W        W21241  20.604  43.902   3.189
61948W        W21242  14.223   6.232   3.807
61949W        W21243  30.135  35.006   1.796
61950W        W21244  39.938  39.351   4.252
61951W        W21245  36.428   4.786  10.623
61952W        W21246  37.362  18.170  12.465
61953W        W21247  43.808  26.001  14.915
61954W        W21248  14.194  44.002   1.241
61955W        W21249  41.950  10.314  11.897
61956W        W21250  25.019  21.081   2.673
61957W        W21251  18.206  15.326  11.432
61958W        W21252  34.398  12.837   3.171
61959W        W21253  29.100  41.858   3.386
61960W        W21254  42.886  12.253  10.559
61961W        W21255  37.960   3.898   4.764
61962W        W21256  10.716  38.861   3.370
61963W        W21257  29.146  40.801  14.438
61964W        W21258  20.176  32.512  14.977
61965W        W21259   6.304  25.653  11.093
61966W        W21260  32.574  36.496   1.828
61967W        W21261  44.378  11.301   1.414
61968W        W21262  10.713  14.739  12.573
61969W        W21263   0.264  37.384   2.775
61970W        W21264  21.083  26.655   4.176
61971W        W21265  24.001   9.190  10.584
61972W        W21266   1.307  44.913   0.823
61973W        W21267  36.918  24.215   0.392
61974W        W21268  24.546   9.836  12.868
61975W        W21269  37.453  14.297  13.945
61976W        W21270  33.498  13.216  12.823
61977W        W21271  36.047   6.297   3.300
61978W        W21272  12.249  28.066  12.574
61979W        W21273   1.301  36.353  13.472
61980W        W21274  14.160  24.700   1.777
61981W        W21275  30.036   0.773   0.956
61982W        W21276   2.870  13.718  11.473
61983W        W21277   4.381  35.437  13.944
61984W        W21278   9.801   3.361   0.842
61985W        W21279  31.930  19.553  10.919
61986W        W21280  22.192  36.091   0.876
61987W        W21281  16.712   2.446  12.488
61988W        W21282  40.340  25.214   4.187
61989W        W21283  20.160  29.941  13.535
61990W        W21284  39.047  41.313  12.905
61991W        W21285  40.319   4.919  12.945
61992W        W21286  35.900  11.309  11.926
61993W        W21287   8.298  43.858   4.656
61994W        W21288  37.353   7.281  14.917
61995W        W21289  22.570   5.260  10.928
61996W        W21290  27.500   1.959  12.387
61997W        W21291  19.734   6.817  14.845
61998W        W21292  15.774  19.165   5.178
61999W        W21293  41.444  10.239   1.399
62000W        W21294  18.197  32.478   3.660
62001W        W21295   1.793  42.508   2.689
62002W        W21296  42.296  38.486   0.406
62003W        W21297   9.188   7.240   0.480
62004W        W21298   4.405  19.267  13.849
62005W        W21299  33.572  35.855   4.756
62006W        W21300   6.834  34.090   0.442
62007W        W21301   4.728  13.331   1.709
62008W        W21302   8.376  37.516  11.878
62009W        W21303  27.045  18.250  14.357
62010W        W21304  19.599  40.547  12.510
62011W        W21305  28.543   6.200   0.335
62012W        W21306  22.558  16.206  10.917
62013W        W21307  25.083  31.554  12.374
62014W        W21308   9.325  14.150  12.006
62015W        W21309  25.075  41.456   3.719
62016W        W21310  35.870   0.781   0.300
62017W        W21311  32.418  29.003  10.522
62018W        W21312  42.777  40.303   0.842
62019W        W21313  29.443   1.939  13.034
62020W        W21314  20.062  18.628  14.766
62021W        W21315  38.979  42.520  11.091
62022W        W21316  38.920  24.028   2.853
62023W        W21317  41.467   0.777   3.229
62024W        W21318   8.893  31.017   0.314
62025W        W21319   6.377   9.877  12.967
62026W        W21320   1.348  29.020  11.984
62027W        W21321  15.631   5.900   9.931
62028W        W21322  29.439  31.489   0.820
62029W        W21323   3.350  18.608  13.546
62030W        W21324  14.599  30.102  12.869
62031W        W21325   0.756   9.758  11.088
62032W        W21326  40.371  35.923   1.266
62033W        W21327  11.851  33.961  14.390
62034W        W21328  40.338  10.856  10.981
62035W        W21329  26.179  42.958  13.881
62036W        W21330   2.786  10.155   1.732
62037W        W21331   1.957  35.100  14.031
62038W        W21332  33.936  42.484   1.803
62039W        W21333  23.094  11.641   1.308
62040W        W21334  41.899  38.037  11.521
62041W        W21335  34.389  34.409   2.724
62042W        W21336  31.992  36.029  14.841
62043W        W21337  43.778  40.869   4.219
62044W        W21338   7.416  16.265  12.526
62045W        W21339  40.459  33.070   1.885
62046W        W21340  12.179  38.526  10.641
62047W        W21341  12.198  16.604   2.223
62048W        W21342   1.364  10.325   1.871
62049W        W21343  16.190   6.848   4.308
62050W        W21344   2.780  35.917   3.673
62051W        W21345  26.660  16.219  12.925
62052W        W21346  29.137   4.436  11.022
62053W        W21347  23.184   9.865  12.044
62054W        W21348  12.129  22.691   0.453
62055W        W21349  30.530  43.949   2.346
62056W        W21350   9.795  24.687   3.242
62057W        W21351  30.440  26.016  13.803
62058W        W21352  43.296   9.174  13.904
62059W        W21353  13.811  14.830   1.754
62060W        W21354  28.620   3.732  10.574
62061W        W21355  44.283  16.623  12.039
62062W        W21356  27.671   0.926   2.356
62063W        W21357   1.249  21.598   2.225
62064W        W21358   3.953   2.808  10.494
62065W        W21359  39.467  22.184  13.464
62066W        W21360  33.402  43.362   2.278
62067W        W21361   4.888  27.192   1.894
62068W        W21362  20.724  42.998  11.545
62069W        W21363   3.812   9.824   0.359
62070W        W21364  20.100  33.941   1.427
62071W        W21365  17.166  32.050   1.738
62072W        W21366   8.810  27.669   2.676
62073W        W21367   5.733  23.013   0.439
62074W        W21368   3.763  41.447   5.238
62075W        W21369  38.478  27.583   3.302
62076W        W21370  15.771   3.266   2.389
62077W        W21371  44.364  16.133  10.437
62078W        W21372   6.702  37.052   4.315
62079W        W21373  23.009  22.029   4.124
62080W        W21374   1.379  32.078   1.918
62081W        W21375   2.227  31.929   2.711
62082W        W21376   9.151   0.458   5.719
62083W        W21377  31.615   8.719   1.714
62084W        W21378  24.604  14.277  11.984
62085W        W21379  10.250  20.166  13.515
62086W        W21380  37.446  16.706   1.739
62087W        W21381  43.972   6.844   4.640
62088W        W21382   1.401  33.973   1.274
62089W        W21383   0.305   1.831  13.994
62090W        W21384  35.363  34.486   5.565
62091W        W21385  33.395  22.222   0.332
62092W        W21386  27.947   4.863   4.786
62093W        W21387   2.863  23.218  14.975
62094W        W21388   8.235  44.844   3.278
62095W        W21389  38.011   1.277   3.858
62096W        W21390  26.016  17.571   1.424
62097W        W21391  36.080  39.838   2.259
62098W        W21392  26.067  27.664  11.930
62099W        W21393  32.009  40.538   2.776
62100W        W21394  24.545  31.531   0.341
62101W        W21395   6.708  33.542  11.996
62102W        W21396  42.916   6.723  11.916
62103W        W21397  38.991  10.155   2.668
62104W        W21398   9.786  20.191   5.264
62105W        W21399   4.283  44.911  10.099
62106W        W21400   8.815  28.051   4.637
62107W        W21401  39.982  15.319  12.830
62108W        W21402   9.157  15.315  13.981
62109W        W21403  36.460  22.032   2.361
62110W        W21404  30.653  16.132  12.987
62111W        W21405  13.308  43.513   2.282
62112W        W21406  44.269  28.044  13.820
62113W        W21407  43.919   8.402  10.629
62114W        W21408  37.073  11.364   2.738
62115W        W21409  21.154  11.276   0.419
62116W        W21410  23.530  42.363  13.533
62117W        W21411   3.369  12.260  13.052
62118W        W21412   4.918  28.582  10.624
62119W        W21413   0.807   2.253   4.774
62120W        W21414  10.689  28.631   0.290
62121W        W21415   3.795   8.321  12.556
62122W        W21416  16.088  36.578  10.549
62123W        W21417  19.542  14.163   1.711
62124W        W21418   4.272  13.262   0.808
62125W        W21419  10.758  40.907  11.492
62126W        W21420  10.361  21.605  10.563
62127W        W21421  27.113  19.238  14.023
62128W        W21422  11.842  36.442   3.300
62129W        W21423   6.409  38.933  14.371
62130W        W21424   6.328  29.503  11.939
62131W        W21425  30.924  42.993   4.722
62132W        W21426  15.806  37.343  14.992
62133W        W21427  12.198  36.468   1.304
62134W        W21428   5.426  15.654  12.987
62135W        W21429  29.545  44.466  10.073
62136W        W21430  17.091  42.374   1.323
62137W        W21431  11.739  18.122  13.473
62138W        W21432  13.603  23.997  12.499
62139W        W21433  17.717   1.440   3.267
62140W        W21434  14.179  28.933   1.343
62141W        W21435  21.116  44.865  13.374
62142W        W21436  27.150  37.544   2.224
62143W        W21437  25.203  19.614   4.692
62144W        W21438  38.025  29.007   1.832
62145W        W21439  12.311  39.327   4.826
62146W        W21440  33.999   3.452  14.508
62147W        W21441  12.735  21.608  14.816
62148W        W21442   9.221  11.363  14.333
62149W        W21443  29.575  38.377   0.855
62150W        W21444   2.818  28.646  13.814
62151W        W21445  36.491   9.760   0.728
62152W        W21446  44.341  11.132   4.788
62153W        W21447  24.172   1.858  11.077
62154W        W21448   9.841  39.377   0.411
62155W        W21449  27.590  38.441   1.854
62156W        W21450  30.153  21.214  12.900
62157W        W21451   3.330   9.207   1.403
62158W        W21452   3.376  18.245   3.744
62159W        W21453   3.376  31.949  13.952
62160W        W21454  20.763  36.386   2.347
62161W        W21455   2.798   0.748  12.528
62162W        W21456   9.683  28.556   3.651
62163W        W21457  42.959  37.049   3.222
62164W        W21458  36.020  21.037   0.271
62165W        W21459  44.776  11.814   4.779
62166W        W21460  29.043   2.940   1.268
62167W        W21461   9.388  12.767   0.264
62168W        W21462  43.457  39.420   4.156
62169W        W21463   7.730   2.955   3.646
62170W        W21464  31.076  15.325  10.891
62171W        W21465   1.939  33.401   0.353
62172W        W21466  27.976   6.259   3.648
62173W        W21467  28.475  26.617   4.332
62174W        W21468  27.579  43.830   1.227
62175W        W21469   6.396  20.713  14.793
62176W        W21470  39.432   4.895  11.577
62177W        W21471  34.607  20.605  14.857
62178W        W21472  28.590  20.032   2.284
62179W        W21473   7.842  37.354   0.400
62180W        W21474  11.774  12.629  11.949
62181W        W21475   1.856  15.675   4.761
62182W        W21476  20.062  26.989   2.686
62183W        W21477  31.549  23.011  10.460
62184W        W21478  41.311  21.121  13.991
62185W        W21479   2.415  19.090   3.329
62186W        W21480   6.747   2.446   1.443
62187W        W21481  23.078  42.335  11.970
62188W        W21482   3.869  25.203  11.106
62189W        W21483  30.118   8.274  10.412
62190W        W21484  29.502  29.143  14.966
62191W        W21485  16.610   4.306  12.086
62192W        W21486  20.261   8.678  13.059
62193W        W21487  39.482   6.830  13.436
62194W        W21488  30.440   5.882   2.304
62195W        W21489  35.079  38.045   4.113
62196W        W21490  21.531  40.330  13.981
62197W        W21491   4.852  15.585   2.851
62198W        W21492  19.623  15.118   4.132
62199W        W21493   8.201   2.470  12.055
62200W        W21494  19.775   9.808  11.607
62201W        W21495  28.447  11.640  11.062
62202W        W21496  41.478  11.857  12.452
62203W        W21497  19.084   2.250  13.350
62204W        W21498  36.013  26.047  11.463
62205W        W21499  23.728  26.637  14.294
62206W        W21500  19.251  22.644   3.167
62207W        W21501  29.533  18.729   0.957
62208W        W21502  13.633   8.881  14.999
62209W        W21503  40.818  38.834  13.487
62210W        W21504  17.601  42.944   0.942
62211W        W21505  13.797  30.422  13.483
62212W        W21506  10.205  43.844  14.987
62213W        W21507   4.744  22.165   0.437
62214W        W21508   7.344  38.989  13.799
62215W        W21509   9.733   5.920  12.937
62216W        W21510  41.869  33.488   1.286
62217W        W21511  42.378  41.370  10.645
62218W        W21512  39.452  27.044  10.604
62219W        W21513   1.426  10.697  14.939
62220W        W21514   9.729  29.496   0.428
62221W        W21515  28.672   0.340   1.874
62222W        W21516  13.304  13.336   3.696
62223W        W21517   4.886   5.362   4.824
62224W        W21518  31.134  14.791   2.698
62225W        W21519  39.856   2.423   2.230
62226W        W21520  33.102  17.288   4.637
62227W        W21521  19.167   7.842  10.429
62228W        W21522  14.254  32.472   2.761
62229W        W21523  36.377  32.432   4.125
62230W        W21524  15.191  44.438   0.399
62231W        W21525   5.786   5.898   2.843
62232W        W21526  19.751  25.492   1.753
62233W        W21527  29.115  35.582  11.023
62234W        W21528  37.846  20.599  14.938
62235W        W21529  23.514  22.631  11.974
62236W        W21530  25.662  12.358   4.623
62237W        W21531  27.014  27.615   2.681
62238W        W21532   7.209  39.364   1.769
62239W        W21533   8.217  31.502   3.281
62240W        W21534  15.766   5.733   3.841
62241W        W21535  20.696  16.134   3.668
62242W        W21536   3.931  38.352  12.090
62243W        W21537   0.279  36.537   0.892
62244W        W21538   3.300  40.409  12.859
62245W        W21539  21.161  14.812  13.901
62246W        W21540  12.214  15.287  14.952
62247W        W21541  35.108  28.969  11.026
62248W        W21542   0.492   9.811  11.012
62249W        W21543  15.253  12.261   0.427
62250W        W21544  39.454   5.778  10.890
62251W        W21545  22.094  33.883   1.709
62252W        W21546   2.229  43.377   0.813
62253W        W21547  21.645  24.719   0.262
62254W        W21548   8.198  18.712   0.379
62255W        W21549   4.823  10.290  11.609
62256W        W21550   9.181  29.098   1.441
62257W        W21551   6.913  24.023  13.006
62258W        W21552  27.077   7.828  13.954
62259W        W21553  24.575  35.519  13.829
62260W        W21554  12.172  18.589   2.262
62261W        W21555  33.903  29.171  10.435
62262W        W21556  22.182   8.361  10.408
62263W        W21557  38.959  13.253  11.549
62264W        W21558  27.060  22.517   2.210
62265W        W21559   4.851   2.415  12.429
62266W        W21560  31.135  29.078  13.469
62267W        W21561  23.649  33.078   1.755
62268W        W21562  17.618  30.418  14.379
62269W        W21563   4.717  14.591  12.387
62270W        W21564  10.803   8.318  11.128
62271W        W21565  13.206  38.567   0.324
62272W        W21566   1.878  16.263   1.842
62273W        W21567  42.002   6.309   3.734
62274W        W21568   7.212  38.878  11.443
62275W        W21569  22.081  20.242   0.335
62276W        W21570  41.860  30.165  13.547
62277W        W21571   0.471  23.689   1.326
62278W        W21572  40.970  40.021  13.532
62279W        W21573  30.517  22.240  11.935
62280W        W21574  27.169  37.536  13.850
62281W        W21575  30.984  18.296   1.821
62282W        W21576  19.168  22.507  13.314
62283W        W21577  26.129  24.515   1.394
62284W        W21578  20.275  29.458  13.975
62285W        W21579  41.819  21.030   0.734
62286W        W21580   9.821  12.331  12.577
62287W        W21581   3.353  40.891  13.349
62288W        W21582  33.054  20.602   2.884
62289W        W21583  18.186  41.960   4.126
62290W        W21584  44.498  24.530  14.012
62291W        W21585  27.482   8.384   0.910
62292W        W21586   8.177   3.428   0.743
62293W        W21587  13.609  20.244   4.323
62294W        W21588  11.350  34.436  13.017
62295W        W21589  27.163  22.130   3.149
62296W        W21590  33.405  16.277  11.461
62297W        W21591  11.295  42.978   0.760
62298W        W21592  18.077  40.373  13.308
62299W        W21593  34.562  22.138  12.387
62300W        W21594  17.145  27.617  12.890
62301W        W21595  25.582  21.716  14.298
62302W        W21596  19.640   1.845  10.947
62303W        W21597   2.387  36.955  11.875
62304W        W21598  37.513  26.662   4.246
62305W        W21599   5.856  42.937   1.417
62306W        W21600   6.816  25.158   1.243
62307W        W21601   2.237  30.949  12.017
62308W        W21602  37.897  37.887   4.327
62309W        W21603  18.073   3.267   3.246
62310W        W21604  11.150  12.674  11.020
62311W        W21605  27.008  13.641   4.153
62312W        W21606  40.931  27.670   3.374
62313W        W21607   4.341  43.463  12.469
62314W        W21608  30.010   9.345  13.059
62315W        W21609  44.498   7.201   5.280
62316W        W21610  39.999  17.126  13.813
62317W        W21611  27.057  11.176   0.277
62318W        W21612   9.151  37.957  13.536
62319W        W21613  36.860  31.947  13.828
62320W        W21614   9.326  34.562  13.012
62321W        W21615  15.269   9.712   1.422
62322W        W21616  41.346  19.723   2.851
62323W        W21617   3.763  24.137   4.657
62324W        W21618  12.814   3.281   1.870
62325W        W21619  28.669  28.596  13.914
62326W        W21620   4.444  15.134   1.407
62327W        W21621  19.578  24.975  13.054
62328W        W21622  16.592  35.380   2.686
62329W        W21623  30.416  20.065   2.219
62330W        W21624   2.952   9.377  12.832
62331W        W21625  22.599   4.241  12.466
62332W        W21626  17.725  27.970  13.050
62333W        W21627  25.552   9.314  12.061
62334W        W21628  25.207  35.078   3.719
62335W        W21629  30.048  20.087  10.485
62336W        W21630  21.582   9.344   5.191
62337W        W21631   7.868  25.542   2.795
62338W        W21632  30.596  32.413  10.979
62339W        W21633  29.987  25.521   1.290
62340W        W21634  12.826   0.881   1.716
62341W        W21635  32.960  16.145   0.473
62342W        W21636  41.372   3.364  14.898
62343W        W21637  20.760   4.377   4.663
62344W        W21638   0.843  15.622  13.806
62345W        W21639  20.602   1.260   3.737
62346W        W21640   0.943   5.783  13.503
62347W        W21641  43.431  26.040   1.923
62348W        W21642  13.716   3.908  13.053
62349W        W21643  25.057   2.430  10.634
62350W        W21644   2.888   9.298  13.527
62351W        W21645   4.935  35.455   1.853
62352W        W21646  43.379   4.449  13.381
62353W        W21647  11.740  23.517  12.827
62354W        W21648   0.964  15.270  12.489
62355W        W21649  34.083  35.061   4.179
62356W        W21650  26.515  28.507   0.472
62357W        W21651   6.359   6.322  12.438
62358W        W21652  17.257   0.831   5.130
62359W        W21653  29.441  10.874  10.473
62360W        W21654  43.805  33.440   1.326
62361W        W21655  40.816  32.127  14.496
62362W        W21656  42.990  15.675   1.929
62363W        W21657  22.682  11.850  13.034
62364W        W21658   3.361  32.503  11.523
62365W        W21659   3.355  32.527  12.399
62366W        W21660  43.921   0.276   0.925
62367W        W21661   3.952   7.270  11.444
62368W        W21662  35.524  37.387  14.421
62369W        W21663  23.655  32.995  14.936
62370W        W21664  21.554  26.677  12.946
62371W        W21665   6.854  33.613   1.385
62372W        W21666   1.315  31.999   0.342
62373W        W21667  30.649  26.650   0.428
62374W        W21668  22.146  23.519  10.895
62375W        W21669  11.335  29.449  11.066
62376W        W21670   4.804  38.844   0.841
62377W        W21671  15.685  21.231   1.448
62378W        W21672  44.835   4.811  14.421
62379W        W21673  41.984  27.004   1.411
62380W        W21674  16.576  10.160  12.834
62381W        W21675  17.224  15.686  11.026
62382W        W21676  37.939  25.142   0.961
62383W        W21677   6.369  11.147   0.780
62384W        W21678  12.291  44.343   4.133
62385W        W21679  10.243  36.356  10.519
62386W        W21680  25.192  32.446   0.334
62387W        W21681  19.613  15.680  10.480
62388W        W21682   8.332  17.734   3.807
62389W        W21683  36.094  20.757   1.888
62390W        W21684  21.186  21.697  12.838
62391W        W21685   0.250  36.939   0.733
62392W        W21686  27.682  30.467  11.008
62393W        W21687  22.108  22.693   0.743
62394W        W21688  22.738  38.374   4.617
62395W        W21689  30.164  16.630   2.341
62396W        W21690  25.578  42.837  12.924
62397W        W21691  28.486  15.151  11.984
62398W        W21692  36.066   1.951  10.907
62399W        W21693  20.765  14.277   3.680
62400W        W21694  42.438   2.779   4.229
62401W        W21695  41.811  16.786   4.702
62402W        W21696  20.558  34.874  12.387
62403W        W21697   4.425  31.086  12.536
62404W        W21698   2.347  24.553   2.214
62405W        W21699  18.776   6.923  10.893
62406W        W21700  21.109  36.039  11.392
62407W        W21701  22.576   9.361  13.803
62408W        W21702  42.855  40.537  12.388
62409W        W21703   9.813  11.700   2.406
62410W        W21704  26.993  26.199  13.469
62411W        W21705  41.952   6.311  10.582
62412W        W21706  34.432  24.507  13.795
62413W        W21707  31.908  27.457   2.876
62414W        W21708  24.613   2.333   1.797
62415W        W21709   2.890  12.191  11.106
62416W        W21710  22.145  29.454  14.852
62417W        W21711   3.783  32.623   1.395
62418W        W21712  36.948  41.826   1.827
62419W        W21713  44.341  18.576   1.749
62420W        W21714  29.632  37.950   3.660
62421W        W21715  28.155  12.272   3.701
62422W        W21716  19.268  28.043   4.603
62423W        W21717  39.924   0.362  12.344
62424W        W21718  11.162  14.701   2.892
62425W        W21719  37.556  37.850  12.568
62426W        W21720  41.834   6.338   1.796
62427W        W21721   0.978  10.655  10.645
62428W        W21722  27.013  24.551   0.754
62429W        W21723  32.445  19.059  12.919
62430W        W21724  22.227  34.502   4.316
62431W        W21725  34.979  38.505  12.487
62432W        W21726  39.419  25.478   1.759
62433W        W21727   3.931  34.028  13.923
62434W        W21728   9.209  34.519   4.738
62435W        W21729  40.414  14.711   4.626
62436W        W21730  22.243  35.390   3.298
62437W        W21731  34.863  29.529   2.712
62438W        W21732  24.501  41.314  12.013
62439W        W21733  16.180  29.111   4.301
62440W        W21734  40.945  26.084   0.737
62441W        W21735  36.071  42.981  13.928
62442W        W21736  39.429  39.027   1.221
62443W        W21737  40.811   5.687  12.995
62444W        W21738  43.359  37.407   0.265
62445W        W21739  29.116  40.500   5.175
62446W        W21740  17.307   1.940  14.346
62447W        W21741   2.952  25.025   3.302
62448W        W21742  30.937  37.566  10.423
62449W        W21743   1.400  16.731  10.963
62450W        W21744  38.842  18.103   0.752
62451W        W21745  43.860  10.213   1.364
62452W        W21746   4.360  42.323   0.882
62453W        W21747   3.223  30.060  13.471
62454W        W21748  36.002  20.711   1.388
62455W        W21749  20.627  30.100   3.203
62456W        W21750  15.611  16.302   1.436
62457W        W21751   1.281   1.887  10.536
62458W        W21752  25.580  29.939  14.759
62459W        W21753  16.773  26.555   3.802
62460W        W21754   7.304   8.182   3.753
62461W        W21755  12.782  36.949  13.019
62462W        W21756  16.566  35.885   1.220
62463W        W21757  23.156  21.168  10.993
62464W        W21758  16.647   0.778  12.036
62465W        W21759  31.106  20.237  13.374
62466W        W21760  17.611   7.308  13.516
62467W        W21761  17.631   8.272   3.778
62468W        W21762  20.647  27.010   1.921
62469W        W21763   8.197  17.282  13.877
62470W        W21764  24.092  31.905   1.328
62471W        W21765   4.823  40.047  10.113
62472W        W21766   7.703   0.865  10.535
62473W        W21767   7.839  36.982  14.321
62474W        W21768  31.549   6.867   1.918
62475W        W21769  18.773  29.051  14.476
62476W        W21770   2.930  19.244  11.575
62477W        W21771  19.621  19.749   3.842
62478W        W21772  41.942  42.345  12.045
62479W        W21773  36.096  20.168  10.617
62480W        W21774   8.404  17.755  12.959
62481W        W21775  22.599  26.560   4.717
62482W        W21776  26.179  28.093   0.319
62483W        W21777  30.574   1.913  14.939
62484W        W21778  40.449  11.183   2.841
62485W        W21779  32.606  25.113   1.714
62486W        W21780  13.137  43.429   3.166
62487W        W21781  15.591   3.877   3.207
62488W        W21782  39.852  35.993  10.519
62489W        W21783  42.967  10.815  14.853
62490W        W21784   7.674   0.438   0.798
62491W        W21785   1.422   0.291  14.294
62492W        W21786  41.930  26.030  13.886
62493W        W21787  22.679  16.668  10.948
62494W        W21788  15.599  27.982   5.123
62495W        W21789   4.775  34.454  14.019
62496W        W21790  32.121  10.209  10.137
62497W        W21791  16.785  23.535   1.886
62498W        W21792  21.732  19.779  13.334
62499W        W21793  34.019  44.002  13.314
62500W        W21794  32.057   3.326  13.818
62501W        W21795  12.760   6.239   0.867
62502W        W21796  37.933  36.525  12.845
62503W        W21797   7.266   4.884  11.973
62504W        W21798  42.520  15.094  13.865
62505W        W21799   3.937   9.888  14.295
62506W        W21800  10.678  26.205   3.716
62507W        W21801  11.687  16.155   0.378
62508W        W21802  22.217  10.333  13.901
62509W        W21803  29.979  29.012   0.741
62510W        W21804  41.335  41.382  11.538
62511W        W21805  35.425  27.544  11.861
62512W        W21806  10.772  25.001  13.888
62513W        W21807  40.028  28.997   3.701
62514W        W21808   6.338  25.103   0.320
62515W        W21809  26.181   3.375   0.773
62516W        W21810  19.092  40.493   1.244
62517W        W21811  40.815  20.107   0.404
62518W        W21812  21.597  18.637  13.983
62519W        W21813   5.207  41.387  13.884
62520W        W21814   7.881  13.700   3.322
62521W        W21815   5.836  38.481   1.816
62522W        W21816  10.337  15.759   4.140
62523W        W21817   0.871  26.136   1.876
62524W        W21818   3.801   6.746  14.864
62525W        W21819   2.916  38.055  12.835
62526W        W21820  10.324  19.723   0.442
62527W        W21821  42.432  18.625  13.450
62528W        W21822   2.867   9.811  12.498
62529W        W21823   4.780   6.762  11.111
62530W        W21824  13.219  37.486  12.445
62531W        W21825  39.810  42.416  10.908
62532W        W21826  43.378  12.791   1.829
62533W        W21827  24.204  15.329   4.121
62534W        W21828  32.953  40.339   4.237
62535W        W21829  24.992  26.600  14.959
62536W        W21830  34.559   5.433   3.355
62537W        W21831   6.384   3.232   3.818
62538W        W21832  24.591  24.510  13.416
62539W        W21833  42.421  36.530  13.878
62540W        W21834  14.180  35.530   4.623
62541W        W21835   6.403  37.928   0.339
62542W        W21836  42.970  20.712   0.864
62543W        W21837   3.804   9.348  10.643
62544W        W21838  25.016  14.675  11.111
62545W        W21839  26.679   6.831   4.239
62546W        W21840  32.077  34.538  11.059
62547W        W21841  34.523   8.872  11.911
62548W        W21842   9.847  31.964  14.908
62549W        W21843  40.987  30.916   4.319
62550W        W21844  13.826  42.961   0.361
62551W        W21845  28.593  34.532  11.559
62552W        W21846  22.701  30.017  14.284
62553W        W21847  16.156  18.587  14.785
62554W        W21848  36.952   6.877  14.278
62555W        W21849  26.618   1.843  14.335
62556W        W21850   8.199  32.966   0.935
62557W        W21851  22.137  26.570  11.902
62558W        W21852  30.491  34.002  11.398
62559W        W21853  43.425  24.519   1.886
62560W        W21854  26.135  26.141   1.926
62561W        W21855  17.188  11.648   1.356
62562W        W21856  15.736  34.501   0.383
62563W        W21857   2.913   2.274   2.890
62564W        W21858  27.535  16.732   3.699
62565W        W21859  21.194  34.400   0.929
62566W        W21860  38.037   8.845   2.218
62567W        W21861  21.092  38.426   4.633
62568W        W21862  35.425  27.069  11.991
62569W        W21863  17.577   2.865   3.284
62570W        W21864   6.812   3.903   3.659
62571W        W21865  40.333  23.691  12.389
62572W        W21866  21.567  12.162  11.609
62573W        W21867  39.840  12.176   2.401
62574W        W21868  41.498  30.156   4.623
62575W        W21869  12.310   8.183   2.829
62576W        W21870  33.444  15.778  11.970
62577W        W21871  16.744  24.210   0.244
62578W        W21872  11.645  43.817  12.960
62579W        W21873   6.192  34.552  11.119
62580W        W21874   9.160   7.691   0.943
62581W        W21875  41.841  24.210  12.087
62582W        W21876  33.577  39.022  11.589
62583W        W21877   5.323  36.993   0.426
62584W        W21878   4.779   1.957  13.830
62585W        W21879  27.145   9.853  14.319
62586W        W21880  10.636  10.786  13.925
62587W        W21881  38.478  19.668   1.270
62588W        W21882  30.443  15.164  10.973
62589W        W21883   9.217   7.248  11.553
62590W        W21884  25.596  29.514  10.537
62591W        W21885   6.342   2.335   4.126
62592W        W21886  19.222  33.505   0.927
62593W        W21887  31.514  41.357   0.331
62594W        W21888  44.960  32.128  12.930
62595W        W21889  17.592  26.525   0.754
62596W        W21890  12.701  12.724  12.929
62597W        W21891  17.738  24.029  12.512
62598W        W21892  28.605  42.789   4.715
62599W        W21893  16.693   8.869  12.496
62600W        W21894  10.822  37.424  11.410
62601W        W21895  35.358  35.393  10.923
62602W        W21896   7.177   8.278  12.966
62603W        W21897   1.970  15.229  14.471
62604W        W21898  41.029   2.267  14.916
62605W        W21899  24.653  30.132   4.301
62606W        W21900  37.083  33.586  12.363
62607W        W21901   9.845  43.896   2.821
62608W        W21902  39.051  25.701   1.419
62609W        W21903  41.450   5.231  13.880
62610W        W21904  11.349  11.297  14.447
62611W        W21905  42.285  26.028   0.419
62612W        W21906   0.477  38.332  13.503
62613W        W21907  20.595  12.204  12.367
62614W        W21908   1.278   4.753   0.961
62615W        W21909  13.723  38.992  12.025
62616W        W21910  16.234   1.478   0.902
62617W        W21911  43.303  34.398  11.503
62618W        W21912  17.785  19.075   4.271
62619W        W21913  23.232   1.806  13.003
62620W        W21914  19.618  34.983   2.752
62621W        W21915  19.677  37.549  11.479
62622W        W21916  26.028  10.798  11.532
62623W        W21917  14.704  13.693   0.438
62624W        W21918  14.245  29.094   4.788
62625W        W21919  23.519  29.488  12.557
62626W        W21920  24.136  42.463   2.379
62627W        W21921  37.347  44.264  10.516
62628W        W21922  34.373  33.395   0.398
62629W        W21923  24.656  35.403   2.739
62630W        W21924  25.190  20.614   4.138
62631W        W21925  39.917   1.267   3.260
62632W        W21926  12.338  39.510  10.933
62633W        W21927   3.406  12.845   1.333
62634W        W21928  13.245  17.200  13.360
62635W        W21929   3.280  24.500   2.223
62636W        W21930  29.978  39.392   3.260
62637W        W21931  32.132  34.430  14.933
62638W        W21932  44.840  22.584  14.024
62639W        W21933   8.225  32.034  14.338
62640W        W21934  36.853  44.459  14.384
62641W        W21935  33.434  41.420   4.807
62642W        W21936  21.593  33.539  12.923
62643W        W21937  29.518  33.969   3.170
62644W        W21938  19.270  31.613   3.254
62645W        W21939   0.275  43.797  11.378
62646W        W21940  23.203  19.750   2.291
62647W        W21941  20.131  33.054  10.903
62648W        W21942  35.396   9.287  11.561
62649W        W21943   1.447  26.646  12.467
62650W        W21944   2.391  20.133  11.931
62651W        W21945  12.154   1.779  10.960
62652W        W21946  20.523  15.238   0.311
62653W        W21947  10.709  31.439  13.947
62654W        W21948   0.857  26.108   0.741
62655W        W21949  12.764   0.979  13.054
62656W        W21950  24.522  44.296   0.738
62657W        W21951  30.594   5.755  11.514
62658W        W21952  32.558  44.982  14.955
62659W        W21953  24.997  40.008   1.854
62660W        W21954  39.971  15.297   1.214
62661W        W21955  44.788  38.958   4.230
62662W        W21956  30.972  26.597   2.271
62663W        W21957   5.206  27.492  14.805
62664W        W21958  35.961  12.636   4.113
62665W        W21959  19.722   6.248   0.736
62666W        W21960  30.521  16.582   4.740
62667W        W21961  41.317  22.019  14.476
62668W        W21962  18.267  10.725  10.986
62669W        W21963  15.255  34.908   4.643
62670W        W21964  26.028  41.959  14.994
62671W        W21965   6.322  37.529  10.613
62672W        W21966  29.521  17.627   3.230
62673W        W21967  13.257  17.092  10.054
62674W        W21968  23.722   5.207   1.822
62675W        W21969  29.621  11.683   4.352
62676W        W21970  28.998  40.367   3.161
62677W        W21971  12.854  27.479  11.927
62678W        W21972  10.300   5.751  12.490
62679W        W21973  44.766  33.456  14.439
62680W        W21974   3.352   6.263  12.054
62681W        W21975  28.674  14.259   0.345
62682W        W21976   1.941  36.959   0.859
62683W        W21977  16.671  26.074  10.900
62684W        W21978   6.694  15.660   1.361
62685W        W21979  42.908  33.003   4.278
62686W        W21980   0.887  27.512   1.862
62687W        W21981  14.316  42.393   2.288
62688W        W21982  32.493  26.154  12.020
62689W        W21983  18.097   4.421   4.625
62690W        W21984  37.490  13.796  13.955
62691W        W21985  24.180  16.262  11.902
62692W        W21986  43.982  42.318   4.762
62693W        W21987   3.927  37.543   0.285
62694W        W21988  15.755  20.707  11.871
62695W        W21989  42.325  31.636  11.581
62696W        W21990   2.725  27.127   4.662
62697W        W21991   7.760   2.383   2.811
62698W        W21992  21.263  36.904   3.147
62699W        W21993  43.903  37.952  13.318
62700W        W21994  39.404  22.239   2.856
62701W        W21995  37.042  31.129  14.494
62702W        W21996  42.822   4.882  12.936
62703W        W21997   8.196  11.694   0.438
62704W        W21998  31.591  43.332  10.635
62705W        W21999  37.541   3.360  14.993
62706W        W22000  42.462  20.079   0.473
62707W        W22001  34.520  19.767   2.899
62708W        W22002  34.092  14.610  12.057
62709W        W22003  23.531   2.241  13.508
62710W        W22004  27.562  42.004   4.295
62711W        W22005  24.604   4.930   4.764
62712W        W22006  33.934  19.710  13.020
62713W        W22007  19.171   5.827  13.443
62714W        W22008  17.793   0.411  13.033
62715W        W22009  21.192  17.134  13.934
62716W        W22010  29.434  19.699   0.280
62717W        W22011   7.749  43.433  13.911
62718W        W22012  11.313  23.725  10.573
62719W        W22013  44.928  28.527   1.835
62720W        W22014  37.371  43.324   1.298
62721W        W22015   4.899  37.514  14.282
62722W        W22016  10.272  40.802  10.422
62723W        W22017  21.677  22.699   2.311
62724W        W22018  41.976  33.074  11.935
62725W        W22019  36.449  16.618   1.809
62726W        W22020  19.234  40.462  12.875
62727W        W22021  22.502  15.210   2.305
62728W        W22022  13.182   1.945  12.018
62729W        W22023   0.378  23.732  12.045
62730W        W22024   5.379  16.670  14.322
62731W        W22025  38.986   3.352  12.906
62732W        W22026   9.728  28.627   1.842
62733W        W22027  17.163   4.389   0.848
62734W        W22028  10.763   3.255  10.541
62735W        W22029   2.932  32.405   2.271
62736W        W22030  26.597  40.340   1.837
62737W        W22031  24.079  20.524   1.852
62738W        W22032   6.853  24.498  14.348
62739W        W22033  40.388  15.648   5.184
62740W        W22034  26.520  33.878  11.439
62741W        W22035  30.648  15.665   2.349
62742W        W22036  44.868  33.582  10.407
62743W        W22037  42.361   0.845   3.339
62744W        W22038  18.276   5.765   3.818
62745W        W22039  23.519  36.048  14.775
62746W        W22040  33.392  27.469  10.065
62747W        W22041  18.244  31.034  10.941
62748W        W22042   3.811  13.702  12.936
62749W        W22043  29.929  22.523   0.446
62750W        W22044  44.826  25.121   1.273
62751W        W22045  28.065  14.652  11.444
62752W        W22046   4.785  25.100  10.093
62753W        W22047  24.482  22.201   4.656
62754W        W22048  38.037  14.331  12.830
62755W        W22049   8.381  25.040   1.350
62756W        W22050  34.992  38.949   1.221
62757W        W22051   2.463  38.408  10.429
62758W        W22052  35.997   6.808  10.103
62759W        W22053  30.631   2.312   0.299
62760W        W22054  11.189   8.219   3.769
62761W        W22055  28.635  39.350   0.403
62762W        W22056   8.391  42.479   1.764
62763W        W22057  15.661  40.460   2.391
62764W        W22058   8.760  11.717  13.311
62765W        W22059  41.523  10.229  10.633
62766W        W22060  17.276  20.763  10.447
62767W        W22061  25.531   4.429  12.443
62768W        W22062  33.938  39.998  11.994
62769W        W22063  41.411  40.385   4.659
62770W        W22064  13.177  36.992   2.364
62771W        W22065  32.551  28.525  11.592
62772W        W22066   1.910  42.947  10.512
62773W        W22067  33.435  12.333  10.543
62774W        W22068   7.244  39.335  12.455
62775W        W22069   1.951  16.108   3.782
62776W        W22070  23.659   3.383   1.934
62777W        W22071  37.938  21.528  14.901
62778W        W22072  32.574   1.974   1.931
62779W        W22073  36.508  18.211  10.617
62780W        W22074  37.562   8.686  12.473
62781W        W22075  43.792  42.517   0.887
62782W        W22076  28.626  21.670   0.356
62783W        W22077   0.287  35.604   4.314
62784W        W22078  11.798  15.149   0.368
62785W        W22079   0.969  32.974   1.863
62786W        W22080   7.255  38.375  14.277
62787W        W22081  33.573  33.972   3.783
62788W        W22082   5.812   8.724   0.782
62789W        W22083   9.164  21.729   9.536
62790W        W22084   8.395  21.591   3.334
62791W        W22085  23.626  33.622  13.017
62792W        W22086  26.191  38.037  14.947
62793W        W22087  10.280  37.564  13.352
62794W        W22088  31.074  21.666  12.089
62795W        W22089  37.348  28.986  10.965
62796W        W22090  30.959   4.792   2.702
62797W        W22091   9.269  23.505  13.991
62798W        W22092  42.816   6.757   1.441
62799W        W22093  20.130  15.809  13.394
62800W        W22094  37.057   5.799   0.256
62801W        W22095  23.167   4.443  13.365
62802W        W22096  24.080  27.571   0.944
62803W        W22097  25.003  13.620   4.331
62804W        W22098  33.089   8.288  13.473
62805W        W22099  15.643   1.825  11.872
62806W        W22100  29.513  32.073   3.208
62807W        W22101   5.799   4.343   0.827
62808W        W22102  20.565  40.026   0.297
62809W        W22103   3.779  13.236   3.698
62810W        W22104   8.357  40.878   2.767
62811W        W22105  20.066  36.477  14.516
62812W        W22106  29.986   4.806   0.291
62813W        W22107  29.175   1.816  10.489
62814W        W22108  18.289  14.712  14.332
62815W        W22109  35.558   0.952  12.054
62816W        W22110  29.606  28.026   2.764
62817W        W22111  15.731  41.875  14.911
62818W        W22112  20.063  22.109  10.605
62819W        W22113  10.305  20.213   3.288
62820W        W22114  43.324  32.917   4.730
62821W        W22115  15.260  13.784  12.035
62822W        W22116   3.347  34.509  13.364
62823W        W22117  11.288  41.853   0.866
62824W        W22118  26.457  42.349   0.388
62825W        W22119  14.282   0.355   2.789
62826W        W22120  30.507  19.571  12.551
62827W        W22121  30.430  37.890   1.889
62828W        W22122  14.300  42.994   0.422
62829W        W22123  42.433  44.305  13.313
62830W        W22124  30.541   8.768  12.935
62831W        W22125  27.983   9.656   1.825
62832W        W22126  35.556  28.453   3.674
62833W        W22127  31.969  31.988  12.915
62834W        W22128   4.915  23.557  12.959
62835W        W22129  39.893   6.736  12.887
62836W        W22130   4.713  38.483  12.557
62837W        W22131  16.225   2.330  11.902
62838W        W22132  38.031  26.458   1.859
62839W        W22133  38.039  14.613  14.516
62840W        W22134  40.958  28.501  10.898
62841W        W22135  26.064  20.547   1.697
62842W        W22136  15.259   7.240  13.791
62843W        W22137  43.847  38.481  13.381
62844W        W22138  23.009   1.901  13.471
62845W        W22139  25.620   6.319   2.665
62846W        W22140  38.021  22.605  13.975
62847W        W22141  38.507  18.733  11.551
62848W        W22142  32.457  40.898   5.569
62849W        W22143  31.532  42.357  12.368
62850W        W22144   9.237  33.095  12.377
62851W        W22145  16.296   2.281   0.322
62852W        W22146   2.450  44.819   2.345
62853W        W22147   9.793  22.664  13.057
62854W        W22148  29.137  21.042  14.339
62855W        W22149  30.031  40.402   3.361
62856W        W22150  21.233  19.628  14.813
62857W        W22151   2.338   8.865   4.171
62858W        W22152  40.836  42.867  14.819
62859W        W22153  17.801   1.975   3.170
62860W        W22154  42.280  21.030  14.852
62861W        W22155  19.130  16.313  14.982
62862W        W22156  13.312  41.360   0.930
62863W        W22157  37.388  26.498  13.790
62864W        W22158  17.266   3.864  11.939
62865W        W22159  35.021  12.839  11.601
62866W        W22160   6.720  24.719  12.380
62867W        W22161   3.313  14.653  13.039
62868W        W22162  22.659  33.013   4.654
62869W        W22163  10.819   3.753   0.827
62870W        W22164   6.733  19.698   3.792
62871W        W22165   8.291  29.503  11.435
62872W        W22166  16.251  38.040  14.392
62873W        W22167  35.518  41.040  11.582
62874W        W22168  25.122   1.468  12.823
62875W        W22169  32.589  42.381   4.269
62876W        W22170   6.792   2.847  14.828
62877W        W22171  37.926  19.644   5.123
62878W        W22172   5.797  31.587  10.582
62879W        W22173  11.689   7.171   4.781
62880W        W22174   0.434  41.488  12.825
62881W        W22175   1.895  22.211  13.879
62882W        W22176  10.143  27.048  14.516
62883W        W22177  28.076  38.045  13.438
62884W        W22178  19.612  19.692   1.387
62885W        W22179   8.667  10.335  14.017
62886W        W22180   5.701  29.630  10.540
62887W        W22181   7.723   9.283  14.848
62888W        W22182  22.530  23.609   3.786
62889W        W22183   0.363  19.592   2.825
62890W        W22184  39.836  31.920  13.984
62891W        W22185  36.462  40.947  10.561
62892W        W22186  42.980  40.852   0.446
62893W        W22187  16.128   1.830  14.341
62894W        W22188  11.712  10.738   0.341
62895W        W22189   0.341  30.993  13.860
62896W        W22190  41.999  20.656  12.957
62897W        W22191  27.026  31.988  11.442
62898W        W22192  29.587  40.314   1.411
62899W        W22193  15.735  26.148   2.867
62900W        W22194  33.520   3.772   2.381
62901W        W22195  14.251  22.714   1.417
62902W        W22196  40.313  22.531   2.314
62903W        W22197   5.378  28.478  12.884
62904W        W22198  27.579   2.743   0.875
62905W        W22199  13.841  21.086   2.321
62906W        W22200  25.006  32.450   1.302
62907W        W22201  19.643  27.122   2.195
62908W        W22202  37.895  31.950  14.968
62909W        W22203   8.882   1.844   2.864
62910W        W22204  12.656  33.441  13.483
62911W        W22205  24.990  30.118  14.983
62912W        W22206   7.311  25.143  10.090
62913W        W22207  18.145  24.108   1.767
62914W        W22208   7.338  39.024   0.383
62915W        W22209  32.983  41.896   4.123
62916W        W22210   1.876  11.707   2.246
62917W        W22211  35.408  12.766   0.805
62918W        W22212  33.113  37.578  12.408
62919W        W22213  36.391  12.275   1.731
62920W        W22214  19.055  25.198   1.804
62921W        W22215  44.449   9.860  10.972
62922W        W22216  28.594  20.565  13.482
62923W        W22217  14.641  32.096   0.917
62924W        W22218  24.571  30.155   3.363
62925W        W22219  31.579  39.060  12.356
62926W        W22220  14.338  22.238   3.322
62927W        W22221   3.797  19.726   1.231
62928W        W22222  33.537  11.172   1.728
62929W        W22223  24.179  10.754   4.154
62930W        W22224  21.651  10.814   1.417
62931W        W22225  18.695  14.296   3.220
62932W        W22226  33.938  17.112  11.505
62933W        W22227  44.888  20.651   0.425
62934W        W22228  21.256  22.511  12.487
62935W        W22229  29.665  11.855  10.644
62936W        W22230  10.361  18.574  10.425
62937W        W22231   7.895  41.818   0.950
62938W        W22232   5.837  37.400   0.351
62939W        W22233  20.158  13.631   0.445
62940W        W22234   6.300  33.402   0.331
62941W        W22235   8.176  33.408  14.297
62942W        W22236  35.057  20.220  10.589
62943W        W22237  20.602  26.019  10.503
62944W        W22238  27.169  30.506  10.559
62945W        W22239  37.369   3.359  14.346
62946W        W22240   8.330   4.377   0.354
62947W        W22241  43.925  40.958   3.680
62948W        W22242  16.722   0.901   1.232
62949W        W22243  16.728  19.184  13.328
62950W        W22244  13.338  40.984  12.006
62951W        W22245   1.439  21.642  14.991
62952W        W22246  25.509  29.014  12.572
62953W        W22247   5.776  24.031  10.484
62954W        W22248  22.146  15.088  14.459
62955W        W22249  39.348  32.583  14.288
62956W        W22250   4.831  15.221  10.152
62957W        W22251   8.721  25.103   3.730
62958W        W22252  16.594  30.453   4.218
62959W        W22253  15.252   0.399   0.395
62960W        W22254  21.179  30.531   2.346
62961W        W22255  35.906  32.473   1.368
62962W        W22256  43.500  37.349   2.733
62963W        W22257  29.507  34.598   0.456
62964W        W22258  33.085  25.713  14.352
62965W        W22259  25.968  32.965   4.313
62966W        W22260  11.722   5.871  12.512
62967W        W22261  40.917   1.742  14.475
62968W        W22262  22.217   0.982  13.384
62969W        W22263  27.563  29.635  14.418
62970W        W22264  15.299   9.340  13.500
62971W        W22265   4.282  13.626   2.758
62972W        W22266  15.084  23.601   2.411
62973W        W22267   4.411   2.462   1.825
62974W        W22268   4.834  16.243   2.670
62975W        W22269  10.249   1.293  14.279
62976W        W22270  26.556  21.196  13.925
62977W        W22271  31.606   2.727   1.321
62978W        W22272   4.912  43.343  11.061
62979W        W22273  39.515   1.849   2.858
62980W        W22274   5.281  28.160  12.975
62981W        W22275  40.548  10.232  14.029
62982W        W22276  33.418  24.486   0.847
62983W        W22277  35.898  33.480   4.192
62984W        W22278  11.622  24.166  13.343
62985W        W22279   0.847  20.647  11.930
62986W        W22280  25.049  12.145   4.651
62987W        W22281  15.176   0.468  10.455
62988W        W22282   0.312   4.848  10.423
62989W        W22283  29.113  27.048  10.507
62990W        W22284  37.989   7.357   2.897
62991W        W22285  35.499  33.004   5.321
62992W        W22286  39.054   5.867  11.461
62993W        W22287  20.109   7.306  12.970
62994W        W22288  13.112  24.632   2.247
62995W        W22289   4.829  32.085  14.759
62996W        W22290   5.428   5.768   0.424
62997W        W22291  11.142  34.575  14.295
62998W        W22292  11.714  20.081   2.334
62999W        W22293  28.654   8.722  11.425
63000W        W22294  31.515   8.802  13.821
63001W        W22295   1.735  30.985  10.490
63002W        W22296   5.873  27.029   2.268
63003W        W22297  37.382  11.761  13.323
63004W        W22298   8.364   0.768  14.906
63005W        W22299  38.339  44.912   1.748
63006W        W22300  23.035  28.536   0.826
63007W        W22301  27.567  23.681   0.935
63008W        W22302   8.666  16.572   0.397
63009W        W22303  17.783  33.988   1.324
63010W        W22304  28.464  14.591   4.239
63011W        W22305  38.535  44.439   3.659
63012W        W22306  13.755  43.955   2.218
63013W        W22307   4.350  17.620   0.325
63014W        W22308   1.942  34.570  11.399
63015W        W22309  21.736   0.324   4.754
63016W        W22310  30.590  39.829   3.650
63017W        W22311  21.516   0.361  12.353
63018W        W22312  12.297   5.435   1.245
63019W        W22313  14.623  10.177   4.226
63020W        W22314   1.929  21.181   2.295
63021W        W22315  37.953  14.693   0.923
63022W        W22316  17.243  44.009   2.230
63023W        W22317  43.813  33.989  13.943
63024W        W22318  25.679  30.435   2.212
63025W        W22319  33.966   8.230  12.478
63026W        W22320   8.297  41.033   3.156
63027W        W22321   9.852  27.473   5.769
63028W        W22322   5.836  44.837   5.624
63029W        W22323  20.617  17.581  14.962
63030W        W22324  25.694  33.964   1.280
63031W        W22325  43.320  40.478   3.284
63032W        W22326  10.643  33.081  14.806
63033W        W22327  32.954   8.212  12.028
63034W        W22328   4.729  12.788   3.253
63035W        W22329   6.369  32.426   0.864
63036W        W22330  16.144  43.509  14.770
63037W        W22331  36.986  10.655  11.388
63038W        W22332  43.936  24.709  11.574
63039W        W22333  21.193  20.148  13.466
63040W        W22334   7.874  29.514  11.439
63041W        W22335   9.666   1.909   5.103
63042W        W22336   1.297   0.946   0.787
63043W        W22337  18.092  36.504   3.361
63044W        W22338  21.659  39.407   4.804
63045W        W22339  16.258  11.790  13.464
63046W        W22340  37.849  34.118  11.098
63047W        W22341   8.657  39.871  14.337
63048W        W22342   1.370  23.509   0.737
63049W        W22343  29.652  40.852   5.167
63050W        W22344  34.938  44.805   1.213
63051W        W22345   0.858  20.197   2.404
63052W        W22346  33.524  29.071   2.183
63053W        W22347  36.089   2.920   3.865
63054W        W22348   8.852   6.302  14.472
63055W        W22349   1.839  40.517  10.612
63056W        W22350  28.573  42.384   3.199
63057W        W22351  33.001  42.964  11.466
63058W        W22352  39.961  38.327  11.503
63059W        W22353  15.759   4.333   1.293
63060W        W22354  39.986  19.055  12.983
63061W        W22355   7.404  37.008   4.672
63062W        W22356   7.361   4.875  13.804
63063W        W22357  17.272  25.140  14.024
63064W        W22358  43.875  25.599  10.454
63065W        W22359  42.987   2.938   0.316
63066W        W22360  25.612  24.658  12.545
63067W        W22361  13.277  30.506   4.810
63068W        W22362   9.171  30.092   1.249
63069W        W22363  22.213  39.427  10.977
63070W        W22364  35.965  39.054  14.352
63071W        W22365  33.604  37.078   3.785
63072W        W22366  35.546  36.534  11.874
63073W        W22367  11.784  35.052   1.435
63074W        W22368  18.058   6.200   4.320
63075W        W22369   5.202  18.647  11.030
63076W        W22370   2.276  14.670  11.932
63077W        W22371  24.089  43.771   1.404
63078W        W22372  12.643  21.189   4.686
63079W        W22373  17.663  33.406  14.940
63080W        W22374  27.671  15.152  11.904
63081W        W22375  32.047   1.797   4.124
63082W        W22376  12.329   2.243  10.475
63083W        W22377  14.791  36.081   4.304
63084W        W22378  36.569  36.504  14.946
63085W        W22379  12.234  21.632   3.146
63086W        W22380  33.425  18.179   0.884
63087W        W22381  29.515  16.652   2.685
63088W        W22382  38.535  23.661  12.985
63089W        W22383   0.416  31.907   4.328
63090W        W22384   8.820  21.206   2.749
63091W        W22385  34.399   3.763  12.983
63092W        W22386   3.253  42.848  14.398
63093W        W22387  32.966   1.355   0.789
63094W        W22388  23.008  25.560  13.882
63095W        W22389   8.736  13.781  11.991
63096W        W22390  32.933  33.433  12.382
63097W        W22391  31.490  41.470   3.869
63098W        W22392  21.244   8.291   4.658
63099W        W22393  10.830  39.323  12.059
63100W        W22394  20.535  12.838  10.521
63101W        W22395  21.219  26.583  10.061
63102W        W22396  42.999  17.255  11.066
63103W        W22397  35.047  36.049   4.782
63104W        W22398   8.876   3.222  12.541
63105W        W22399  31.129  37.847  14.448
63106W        W22400   9.782  13.169  10.409
63107W        W22401  24.647  15.129   2.670
63108W        W22402  25.538  29.133  14.508
63109W        W22403  26.685   7.396   4.133
63110W        W22404   3.267   4.308  11.016
63111W        W22405  35.991  12.360  12.386
63112W        W22406  37.880   2.946  11.521
63113W        W22407  36.024   1.286   2.812
63114W        W22408  35.073  41.877  11.121
63115W        W22409  43.789  25.120   2.823
63116W        W22410   6.309   3.877   3.691
63117W        W22411  32.613  28.456   4.260
63118W        W22412  36.446   0.363  14.970
63119W        W22413  39.448  14.807   4.150
63120W        W22414   3.461   9.292   3.670
63121W        W22415  19.718  37.408  14.930
63122W        W22416  27.611   8.727  13.443
63123W        W22417  32.898  36.428  13.378
63124W        W22418  11.271  37.995  11.590
63125W        W22419  37.903  32.397   3.300
63126W        W22420  32.889  17.075  14.024
63127W        W22421  29.085  25.007   4.287
63128W        W22422  35.058   5.794  10.523
63129W        W22423  39.413   0.455  10.642
63130W        W22424  13.692  25.074  14.024
63131W        W22425  18.209  34.096   0.420
63132W        W22426   4.912  33.571   5.188
63133W        W22427  16.198  15.800   4.301
63134W        W22428  29.024  34.029   1.233
63135W        W22429  38.550  22.618   2.383
63136W        W22430  36.365   6.297   2.851
63137W        W22431  21.028  40.821   4.827
63138W        W22432  40.548  32.964  14.852
63139W        W22433  39.886   0.450  13.992
63140W        W22434  11.706  35.069   4.701
63141W        W22435  30.065  14.800  12.364
63142W        W22436  43.008  27.177  12.037
63143W        W22437  32.082  30.458  14.912
63144W        W22438  18.123  22.185  14.429
63145W        W22439   6.340  42.789  10.628
63146W        W22440  15.723  22.151   4.343
63147W        W22441  31.580  16.600   3.801
63148W        W22442  35.546  10.329  13.415
63149W        W22443  38.041  25.964   0.843
63150W        W22444  21.624  23.226  10.602
63151W        W22445  43.869  14.774   1.913
63152W        W22446  32.892  33.016  13.820
63153W        W22447  39.028   6.363   5.298
63154W        W22448  44.460  38.860  11.455
63155W        W22449  16.088  38.520   0.876
63156W        W22450  10.291  39.037  14.881
63157W        W22451  32.050   8.696  11.473
63158W        W22452   7.886  26.008  12.562
63159W        W22453   1.424  42.809  13.329
63160W        W22454  27.652  20.666  13.793
63161W        W22455  27.642  23.665   1.881
63162W        W22456  14.229  42.491  11.611
63163W        W22457  38.541  44.317   4.780
63164W        W22458  36.977  43.309  13.852
63165W        W22459  24.628  16.695  11.053
63166W        W22460  34.946  14.219  10.510
63167W        W22461  20.599  31.123   2.902
63168W        W22462   2.279  15.739  10.091
63169W        W22463   8.369  36.581  13.030
63170W        W22464  42.893  22.516   3.676
63171W        W22465  26.643  26.487  11.524
63172W        W22466  37.881  26.126   2.202
63173W        W22467   8.188   3.403   2.724
63174W        W22468  13.674  20.747   0.440
63175W        W22469  37.860  41.485  11.990
63176W        W22470  31.124  15.590  12.481
63177W        W22471  41.852  19.221   1.299
63178W        W22472  38.399   5.798  10.924
63179W        W22473  42.474   2.725  14.341
63180W        W22474  19.699  29.564  13.450
63181W        W22475  14.795   3.394  10.977
63182W        W22476   3.340  10.237   2.749
63183W        W22477   1.938  42.997   0.434
63184W        W22478  24.070  31.995  13.967
63185W        W22479  34.391  22.547  11.394
63186W        W22480  32.013  13.719  10.605
63187W        W22481  31.429  40.947  13.890
63188W        W22482   7.253   9.217   4.632
63189W        W22483  21.584  12.806   0.350
63190W        W22484  30.153  31.638  14.945
63191W        W22485  38.977  17.255  14.918
63192W        W22486  44.862   4.390   1.390
63193W        W22487  17.592  15.669   0.379
63194W        W22488  29.621  18.649   2.737
63195W        W22489  26.536  25.993  11.439
63196W        W22490  12.279  19.201  11.477
63197W        W22491   3.863   8.175   0.774
63198W        W22492  39.388  32.918  11.467
63199W        W22493  26.975  30.044  13.468
63200W        W22494  41.525   4.858  11.991
63201W        W22495  20.742  31.902   2.325
63202W        W22496   6.252  21.675  12.510
63203W        W22497  40.014   9.782  12.981
63204W        W22498  16.141  27.140  11.414
63205W        W22499  29.051  34.986   0.278
63206W        W22500  22.508   6.209   2.890
63207W        W22501  40.885  24.064   0.863
63208W        W22502  36.492  37.395  12.848
63209W        W22503  34.404  32.540  13.033
63210W        W22504  29.056  36.534   2.373
63211W        W22505  21.556  11.696   4.285
63212W        W22506  28.103  18.623   4.325
63213W        W22507  37.832   4.737   1.320
63214W        W22508   0.303  25.651  11.030
63215W        W22509   1.737  18.211  13.426
63216W        W22510  26.976  27.075   1.400
63217W        W22511  13.264  19.710   2.903
63218W        W22512  14.759   9.711  10.444
63219W        W22513  28.964   9.738  13.969
63220W        W22514  14.659   1.940  12.503
63221W        W22515  36.517  26.992   1.391
63222W        W22516  39.873  27.472   4.350
63223W        W22517  26.980  16.313  12.485
63224W        W22518  34.590   8.662  12.433
63225W        W22519  16.779  10.349  10.513
63226W        W22520  35.490  10.768   3.757
63227W        W22521  24.013  37.347   1.743
63228W        W22522   3.364   3.884  13.922
63229W        W22523  15.645  38.407  11.541
63230W        W22524  41.332  27.003  10.618
63231W        W22525  28.114  42.472  14.348
63232W        W22526   5.300  42.005   3.219
63233W        W22527  43.869  29.601   3.845
63234W        W22528  26.576   4.860   1.841
63235W        W22529  43.307  33.092  14.817
63236W        W22530  18.079  13.677  12.968
63237W        W22531  29.571  34.421  10.008
63238W        W22532  30.610  26.980  13.026
63239W        W22533  28.571  37.421   1.214
63240W        W22534  24.551   4.424  11.456
63241W        W22535  21.666  42.408  13.353
63242W        W22536  43.982  17.115   3.330
63243W        W22537   8.896   9.728  14.011
63244W        W22538  24.651   1.949   0.922
63245W        W22539   0.451   0.485   4.689
63246W        W22540  43.937  13.743  11.394
63247W        W22541  26.023  33.555  13.813
63248W        W22542  44.906   3.756   4.285
63249W        W22543  26.507   8.179   3.313
63250W        W22544  26.104  19.595  13.397
63251W        W22545  26.134  20.130  10.477
63252W        W22546   6.332  23.101   5.179
63253W        W22547  12.760  33.914   4.628
63254W        W22548  12.235  24.657  13.367
63255W        W22549  16.264   0.419   1.762
63256W        W22550  18.778  32.959   2.696
63257W        W22551  18.289   4.767  13.434
63258W        W22552  32.526  29.094  14.813
63259W        W22553   0.773  35.358   1.339
63260W        W22554  11.636  38.076   0.728
63261W        W22555  41.322  36.908   1.299
63262W        W22556  14.278   0.800  14.804
63263W        W22557  40.487  14.253  10.625
63264W        W22558  19.229  21.107   2.413
63265W        W22559  33.033  15.114   3.746
63266W        W22560  33.587  20.671   1.791
63267W        W22561  19.248  29.429   2.382
63268W        W22562  12.246  11.273   3.194
63269W        W22563  19.709   0.451  11.104
63270W        W22564  30.130  23.184  11.466
63271W        W22565  43.845  11.313  12.049
63272W        W22566   2.427  27.951  12.881
63273W        W22567  30.571  16.088  14.008
63274W        W22568  23.116   3.333  13.884
63275W        W22569  32.061  22.053  13.003
63276W        W22570  28.588  10.236   2.829
63277W        W22571  26.097   4.750   0.922
63278W        W22572  15.660  15.305   5.224
63279W        W22573   7.739  13.712  12.838
63280W        W22574  44.875  29.455  13.802
63281W        W22575  13.153   0.314   3.837
63282W        W22576   0.872  18.095   4.788
63283W        W22577   4.721   6.212  13.042
63284W        W22578  34.110   9.722  12.882
63285W        W22579  24.183  25.196   5.271
63286W        W22580  31.600  27.491  10.936
63287W        W22581   8.211  26.958  11.886
63288W        W22582  20.209  22.530   3.294
63289W        W22583  33.520  34.881  14.352
63290W        W22584  37.462   1.405  14.284
63291W        W22585  32.507  28.948  11.540
63292W        W22586  16.247  31.460  10.945
63293W        W22587  44.417  34.093  12.966
63294W        W22588   3.279  39.490   1.250
63295W        W22589   2.819   2.289  12.059
63296W        W22590  17.193  13.248   5.150
63297W        W22591  33.072   8.267  12.840
63298W        W22592  16.295  19.152   1.219
63299W        W22593  39.848  24.644   4.837
63300W        W22594  14.297  37.410  10.005
63301W        W22595  38.496  10.149   3.332
63302W        W22596  28.650  21.190  13.314
63303W        W22597   2.734  24.043   0.799
63304W        W22598  33.556   1.953  10.048
63305W        W22599   7.887  22.147   0.459
63306W        W22600  13.705  29.005  10.892
63307W        W22601  38.053  26.568   4.167
63308W        W22602  15.229  18.099  12.383
63309W        W22603  43.940  28.164   0.916
63310W        W22604  35.053  29.470  12.949
63311W        W22605  41.473  34.995   5.286
63312W        W22606  12.702  18.154   1.910
63313W        W22607  35.011  13.151   0.854
63314W        W22608  24.115  34.469   1.911
63315W        W22609   4.820  11.220  11.947
63316W        W22610   2.888  17.650  12.469
63317W        W22611  26.998   7.329  14.931
63318W        W22612  36.543  17.131   2.727
63319W        W22613  14.318  41.364   4.811
63320W        W22614  23.057  23.132   4.302
63321W        W22615  15.814  44.331   2.357
63322W        W22616   3.843   5.790   4.119
63323W        W22617  23.021   3.788   4.600
63324W        W22618  16.643  22.126   3.335
63325W        W22619  18.663  15.634  14.514
63326W        W22620  41.948  22.184  11.420
63327W        W22621  14.252  20.620  10.912
63328W        W22622  25.539  14.250   5.103
63329W        W22623  35.540   8.205  10.476
63330W        W22624  35.481  33.424  12.509
63331W        W22625  27.636  42.326   2.384
63332W        W22626  33.501  21.205   0.841
63333W        W22627  43.318  31.495   2.230
63334W        W22628  35.402   1.419  11.064
63335W        W22629  25.526  10.817  12.025
63336W        W22630  40.893  22.114   4.689
63337W        W22631  36.518   4.806  12.401
63338W        W22632   7.409   0.412   0.344
63339W        W22633   0.961  31.922   1.275
63340W        W22634   5.776  30.975   0.330
63341W        W22635  22.735  26.094  12.439
63342W        W22636  23.163   6.342   2.856
63343W        W22637  19.686  22.657  11.937
63344W        W22638  26.093  40.527  14.858
63345W        W22639  36.991  23.183  14.345
63346W        W22640  23.697  40.541  13.373
63347W        W22641  11.757  28.069   0.288
63348W        W22642  20.149  36.410  10.489
63349W        W22643  14.095   8.282   0.300
63350W        W22644  31.980  24.589  14.872
63351W        W22645  22.710  43.510  11.886
63352W        W22646  28.934  20.674  10.583
63353W        W22647  29.020  34.083  10.420
63354W        W22648   2.337  15.328   3.735
63355W        W22649   4.393  33.970  14.494
63356W        W22650  38.370   4.276   0.879
63357W        W22651   1.265  22.092   0.844
63358W        W22652  22.600  44.496   0.798
63359W        W22653  22.216  28.526  12.823
63360W        W22654  44.812  14.196  13.987
63361W        W22655   4.437  25.592   3.305
63362W        W22656   9.291  31.962  10.467
63363W        W22657   9.295  41.988  13.464
63364W        W22658  15.313  32.082   1.360
63365W        W22659  21.687  14.770  14.980
63366W        W22660   6.706  23.710   3.813
63367W        W22661  12.743  28.979  12.876
63368W        W22662   3.416  29.483  11.977
63369W        W22663  27.470  39.317  12.539
63370W        W22664   8.327  37.839  12.974
63371W        W22665  38.424   2.912   4.203
63372W        W22666  23.512  33.575   4.752
63373W        W22667  43.441  17.162  11.948
63374W        W22668   7.751   7.183   2.376
63375W        W22669  13.678   5.225  10.908
63376W        W22670   7.885   4.873  12.984
63377W        W22671  44.988   6.720  14.390
63378W        W22672  23.133  18.774  10.447
63379W        W22673  31.006  22.205   0.479
63380W        W22674   7.279   5.398  14.316
63381W        W22675  26.173  42.801   2.698
63382W        W22676  33.986  29.490   4.658
63383W        W22677   1.384  34.939   4.747
63384W        W22678  31.458  28.053  11.940
63385W        W22679  38.428  15.282  12.503
63386W        W22680   5.824  10.655   2.770
63387W        W22681  27.145  23.727   4.310
63388W        W22682   2.249   3.758   3.738
63389W        W22683  17.589  16.112  14.887
63390W        W22684   0.400   6.690  12.443
63391W        W22685  36.460  31.056  13.004
63392W        W22686  16.795   0.283   4.136
63393W        W22687  24.524  40.522   1.239
63394W        W22688  28.680  40.841  14.332
63395W        W22689   9.720  27.956   3.236
63396W        W22690  36.556  13.734   2.683
63397W        W22691   6.293  41.894  12.994
63398W        W22692  44.807  10.762  12.059
63399W        W22693  24.111  37.405   4.343
63400W        W22694   7.793  10.185  10.529
63401W        W22695  39.902  21.057   0.365
63402W        W22696   3.724  33.380   0.375
63403W        W22697   4.855  36.538   1.224
63404W        W22698  25.468  37.960  11.871
63405W        W22699   6.896  17.587   5.578
63406W        W22700  39.828  14.681  14.502
63407W        W22701   7.399  26.524  12.923
63408W        W22702   6.908  36.080  11.610
63409W        W22703   7.179  14.228  10.473
63410W        W22704  11.687  42.992  12.846
63411W        W22705  38.949   6.419   0.301
63412W        W22706  21.533  27.950   0.289
63413W        W22707  19.624  10.676   1.322
63414W        W22708   1.802  23.490  13.317
63415W        W22709  31.107  34.389  14.980
63416W        W22710   7.793  18.277   4.663
63417W        W22711  40.336  27.143   1.380
63418W        W22712  15.105  43.436   2.753
63419W        W22713  40.476  40.307  11.556
63420W        W22714   3.886   0.987   3.750
63421W        W22715  10.348  12.172  14.797
63422W        W22716   3.713   3.299  14.975
63423W        W22717  23.676   6.224   4.326
63424W        W22718  40.020  11.174  11.448
63425W        W22719   3.409  24.688  12.907
63426W        W22720   0.831  43.275  11.896
63427W        W22721  31.419  18.139   3.329
63428W        W22722  35.513  20.701  13.031
63429W        W22723  39.374  38.868  10.030
63430W        W22724  16.806  36.532  13.400
63431W        W22725  42.298  38.071   2.308
63432W        W22726  16.165  14.206  14.387
63433W        W22727  11.624  29.662  12.350
63434W        W22728  24.679  19.149  14.868
63435W        W22729  38.414  10.274   1.701
63436W        W22730  39.356  24.599  13.374
63437W        W22731  26.068  17.255   1.904
63438W        W22732  39.858  13.622  12.027
63439W        W22733   6.775   5.427  11.105
63440W        W22734  33.968  41.906   4.343
63441W        W22735  11.332  33.480   1.892
63442W        W22736  26.512  12.684   0.794
63443W        W22737  12.309  11.315   3.746
63444W        W22738  30.012  14.174  14.388
63445W        W22739  38.519  35.998   1.832
63446W        W22740   5.231   1.771   1.894
63447W        W22741   5.711  10.722  10.425
63448W        W22742   6.278  15.164  12.437
63449W        W22743  39.551   2.257   0.961
63450W        W22744  26.009  40.503   0.317
63451W        W22745   0.788  23.600  11.940
63452W        W22746  30.555  13.258  13.338
63453W        W22747  23.610   7.369  11.513
63454W        W22748  28.451  21.150  13.921
63455W        W22749   5.752  14.287   3.850
63456W        W22750  41.032  25.977  10.604
63457W        W22751  36.983  24.230  13.938
63458W        W22752  35.034  22.746   3.346
63459W        W22753   6.275   7.819   2.849
63460W        W22754   5.890  41.026   1.300
63461W        W22755  29.127  40.049  14.392
63462W        W22756  13.683  29.667  11.567
63463W        W22757  17.793   3.423  13.389
63464W        W22758   4.715  25.489  13.354
63465W        W22759   2.285  10.796   2.851
63466W        W22760  29.976  23.718   4.635
63467W        W22761  15.196  29.919   1.233
63468W        W22762  27.066  11.744  12.446
63469W        W22763  32.011  35.602   3.711
63470W        W22764  43.810  33.069  13.427
63471W        W22765   4.448  19.060   2.766
63472W        W22766  30.588  38.984  12.467
63473W        W22767  25.167  29.447  12.985
63474W        W22768  14.589  25.006   2.886
63475W        W22769  35.491  32.432   0.403
63476W        W22770   1.265   7.187  14.341
63477W        W22771  19.188  30.468  13.016
63478W        W22772  10.149  37.377  10.640
63479W        W22773  40.991  20.669   0.460
63480W        W22774   5.403  42.524  14.020
63481W        W22775  22.090   7.744  13.054
63482W        W22776  36.034  17.729  11.601
63483W        W22777  30.155  36.356   1.217
63484W        W22778  39.889  25.698  11.074
63485W        W22779  20.166  42.481   0.313
63486W        W22780  13.801  11.671  12.506
63487W        W22781   8.672   6.816  10.472
63488W        W22782  34.937   9.733   1.365
63489W        W22783  18.154  40.897   2.867
63490W        W22784  12.782  33.054  14.318
63491W        W22785  28.449   7.800   1.307
63492W        W22786  17.242  40.436   4.339
63493W        W22787  40.950  10.740   0.317
63494W        W22788  42.969  31.515   4.659
63495W        W22789  28.077  20.668   0.256
63496W        W22790  38.919   2.346  11.434
63497W        W22791  44.475   1.327  13.861
63498W        W22792  29.128  42.465  14.330
63499W        W22793  26.002   7.744   4.328
63500W        W22794  38.329  34.870  11.506
63501W        W22795  25.607  34.530   4.159
63502W        W22796  10.772  41.537   1.377
63503W        W22797  36.981  40.518  14.466
63504W        W22798  18.545  17.090   3.261
63505W        W22799  27.666  12.342   4.661
63506W        W22800  24.690  17.783   1.451
63507W        W22801  21.590  18.294  13.511
63508W        W22802  18.195  30.561   3.676
63509W        W22803   0.289  10.263   1.378
63510W        W22804  32.058   8.240   3.167
63511W        W22805  31.557  12.671  12.398
63512W        W22806  19.235  26.019   2.707
63513W        W22807  32.546   0.746  10.443
63514W        W22808  15.720  14.707   0.471
63515W        W22809  16.789  31.985   0.461
63516W        W22810   2.808  44.007  12.563
63517W        W22811  19.049  37.458  11.995
63518W        W22812  32.509   2.245   0.940
63519W        W22813  24.547  43.773  11.596
63520W        W22814  33.906   5.388  10.631
63521W        W22815   4.338   1.302   3.182
63522W        W22816   0.780   9.369   3.150
63523W        W22817  43.820  25.611  13.548
63524W        W22818  25.003  27.955   3.748
63525W        W22819  17.081  30.998  14.801
63526W        W22820  15.302  21.620   3.636
63527W        W22821   9.656  30.006   2.811
63528W        W22822  33.877  41.913   3.861
63529W        W22823   7.257  44.849   3.307
63530W        W22824   5.256  34.008  12.374
63531W        W22825  26.512  30.138  11.033
63532W        W22826   4.852   9.278  14.915
63533W        W22827  39.873  15.162   0.734
63534W        W22828  43.443  20.136  10.513
63535W        W22829   5.748  12.358   1.222
63536W        W22830  35.090  33.542   3.307
63537W        W22831  26.598  20.726  13.979
63538W        W22832  12.266  42.381  12.459
63539W        W22833  35.995  23.182   3.307
63540W        W22834   7.863  41.474  14.860
63541W        W22835  35.407   1.445  14.324
63542W        W22836  39.909   4.246   4.814
63543W        W22837   5.692  44.327  14.765
63544W        W22838  38.407  42.369   4.692
63545W        W22839   2.315  37.958   0.365
63546W        W22840  29.925  22.193   4.625
63547W        W22841  43.452  36.901   3.312
63548W        W22842  11.162   1.360   1.802
63549W        W22843  27.950  23.222  14.946
63550W        W22844  10.213  40.927   0.965
63551W        W22845   0.487  39.985  13.914
63552W        W22846  14.096  28.632  11.477
63553W        W22847  31.000  18.207  13.948
63554W        W22848  33.956  17.605  11.017
63555W        W22849   6.684  19.245   5.215
63556W        W22850   4.726  41.902  14.429
63557W        W22851  22.715  30.907  11.543
63558W        W22852   6.860  21.132  13.429
63559W        W22853  20.032   6.316  13.955
63560W        W22854   9.699   0.825   3.188
63561W        W22855  10.727  15.253  11.015
63562W        W22856  32.531  16.810   2.377
63563W        W22857  42.439  25.485   2.390
63564W        W22858  28.542  11.305   1.238
63565W        W22859  34.055  14.627  13.385
63566W        W22860  10.653  15.128   1.930
63567W        W22861  19.590   8.699  11.566
63568W        W22862  37.403   6.821   0.954
63569W        W22863  30.146  11.633   4.259
63570W        W22864  37.509  35.450   2.282
63571W        W22865  17.567   7.391   3.747
63572W        W22866   6.811  32.087  12.394
63573W        W22867  36.956  14.758   3.864
63574W        W22868  20.226  40.805   1.405
63575W        W22869  36.554  42.952  13.870
63576W        W22870   9.244  32.919  10.452
63577W        W22871  37.548  20.229  14.802
63578W        W22872  18.544  43.331  14.855
63579W        W22873  25.129   0.275  10.558
63580W        W22874  20.661  30.088  11.513
63581W        W22875  20.574  38.515   1.296
63582W        W22876  18.595  17.104  12.449
63583W        W22877  44.893  14.174   3.741
63584W        W22878  24.140  40.036  13.346
63585W        W22879  28.968  22.150   4.145
63586W        W22880  12.360   7.272  11.422
63587W        W22881   3.806  35.091   1.866
63588W        W22882  44.360   4.916  10.892
63589W        W22883  25.025  31.936  14.998
63590W        W22884  29.498  28.510   0.931
63591W        W22885  10.811  22.106  13.847
63592W        W22886  24.520  12.326   0.401
63593W        W22887  28.157   2.946  11.467
63594W        W22888   1.880   1.951   0.755
63595W        W22889   4.288  44.764  12.986
63596W        W22890  14.622  20.612   9.991
63597W        W22891  43.974  31.462  11.947
63598W        W22892  42.425  26.521  10.963
63599W        W22893  27.099  36.052   0.330
63600W        W22894  24.606  25.602   1.253
63601W        W22895  30.021  44.390   0.882
63602W        W22896  12.798  32.940  10.583
63603W        W22897   6.212  28.097   5.089
63604W        W22898  43.417  43.502   2.803
63605W        W22899   6.891  28.186   0.438
63606W        W22900  23.188   3.722   1.933
63607W        W22901  40.944  41.340   2.834
63608W        W22902  31.072  39.882  10.058
63609W        W22903  30.623  29.591   4.188
63610W        W22904  18.632  20.574   0.480
63611W        W22905   7.335  14.313  13.984
63612W        W22906  40.547  35.987   4.313
63613W        W22907  12.343  32.633  11.396
63614W        W22908  24.002  40.521  11.430
63615W        W22909  37.843  39.824  12.962
63616W        W22910  26.018  40.541   1.877
63617W        W22911  42.903  15.581   2.333
63618W        W22912  26.505   3.320  14.975
63619W        W22913  36.880  22.537   0.796
63620W        W22914  37.567  44.497  12.972
63621W        W22915  18.191   6.368  12.952
63622W        W22916  20.259   2.377   2.380
63623W        W22917  24.716  39.927   1.704
63624W        W22918  42.441  31.508  14.422
63625W        W22919  37.851   9.663   4.261
63626W        W22920  33.071  20.100   0.281
63627W        W22921  39.475  35.598   2.188
63628W        W22922  22.583   8.673  12.041
63629W        W22923  24.222   8.391  14.293
63630W        W22924  28.487   0.928  12.511
63631W        W22925  26.013  11.674   1.905
63632W        W22926  30.576  11.749   1.756
63633W        W22927  16.574  36.559   2.725
63634W        W22928   9.768  22.534   3.867
63635W        W22929  22.710  25.007  10.158
63636W        W22930  35.873   3.903   2.400
63637W        W22931  31.484   1.283  10.493
63638W        W22932  17.673  15.157   0.250
63639W        W22933  16.074  37.424   0.317
63640W        W22934  35.453  22.548   1.269
63641W        W22935  30.596  29.140  11.870
63642W        W22936  19.773  14.183  13.868
63643W        W22937  44.369  17.793   3.690
63644W        W22938  11.265  35.937  14.853
63645W        W22939   6.348  17.728   4.806
63646W        W22940   4.848  12.637  12.075
63647W        W22941  26.984  23.993  10.574
63648W        W22942  37.450  44.010   3.159
63649W        W22943   9.769  15.153   4.289
63650W        W22944  12.622  17.593  13.880
63651W        W22945  26.697   7.705   2.695
63652W        W22946  41.030  34.606   3.667
63653W        W22947  24.112  16.272  10.991
63654W        W22948  22.618  14.725   2.786
63655W        W22949  31.610  20.542  14.380
63656W        W22950  35.884   8.848  10.427
63657W        W22951  13.601  13.341   4.826
63658W        W22952  32.619  28.450   1.859
63659W        W22953   6.827  17.718   2.214
63660W        W22954   5.438  23.566  13.378
63661W        W22955  19.712  13.842  12.350
63662W        W22956  32.397   6.738   4.700
63663W        W22957   3.367   3.732  12.383
63664W        W22958  32.556   4.909   2.772
63665W        W22959  26.191  21.121   3.272
63666W        W22960   7.378  14.186   2.338
63667W        W22961   1.288  42.820   3.343
63668W        W22962  28.976  37.372  11.478
63669W        W22963  21.227   3.413   1.364
63670W        W22964  35.004  22.112  14.764
63671W        W22965  42.884   2.940   4.177
63672W        W22966  23.704   7.860  12.072
63673W        W22967  20.740   7.667  14.492
63674W        W22968  19.267  31.574   1.893
63675W        W22969   7.907   3.331  14.888
63676W        W22970  37.483  38.986   0.824
63677W        W22971  17.575  19.268  14.315
63678W        W22972  12.808   2.409   4.146
63679W        W22973  36.441   5.694   2.299
63680W        W22974  42.908   9.311  12.424
63681W        W22975   4.834  40.491  10.953
63682W        W22976  35.495  44.323  14.827
63683W        W22977   7.282  24.623  10.638
63684W        W22978   0.744  34.402   4.634
63685W        W22979  23.129  36.988   4.195
63686W        W22980  12.149  33.027  14.340
63687W        W22981  14.167  37.923   4.729
63688W        W22982  26.479   6.856   3.219
63689W        W22983  23.994   7.809   0.735
63690W        W22984  44.935  12.239  12.389
63691W        W22985  30.533  10.140  12.061
63692W        W22986  15.671  18.193  10.515
63693W        W22987  40.008  22.610   2.750
63694W        W22988  26.987  26.478   1.784
63695W        W22989  30.926   2.796   2.181
63696W        W22990  33.106  25.071   1.250
63697W        W22991  35.538  11.792  10.407
63698W        W22992   3.774  21.647  13.806
63699W        W22993  31.438  32.497  14.920
63700W        W22994  40.936  10.821   4.219
63701W        W22995  39.557  13.688  12.496
63702W        W22996  44.339  17.655  11.018
63703W        W22997  14.820   9.150   0.421
63704W        W22998  44.899  44.427  14.512
63705W        W22999  29.024  39.060  13.378
63706W        W23000   6.222  22.209  11.925
63707W        W23001  15.147  42.401  13.056
63708W        W23002  38.863  23.214   2.322
63709W        W23003  24.993  26.674  12.972
63710W        W23004  20.128  36.058   0.872
63711W        W23005  24.685   2.775  14.790
63712W        W23006  15.155  16.301   3.247
63713W        W23007  40.939   0.273   1.232
63714W        W23008   4.748  20.144   0.954
63715W        W23009   6.185  12.291  10.435
63716W        W23010  41.514  17.778  10.621
63717W        W23011   6.789  31.086  13.962
63718W        W23012  30.608  37.375   1.794
63719W        W23013  13.167  30.624  10.066
63720W        W23014  17.677  28.541   1.380
63721W        W23015  29.174  23.546  14.339
63722W        W23016   9.667   0.938  14.310
63723W        W23017  24.200   7.848   3.724
63724W        W23018  42.908  13.171  12.508
63725W        W23019  15.089  37.463   3.229
63726W        W23020  40.860  24.080  14.403
63727W        W23021  38.950  36.916  11.027
63728W        W23022  19.665   3.744  12.025
63729W        W23023  20.675   6.707   3.171
63730W        W23024  37.960   4.274  12.942
63731W        W23025  43.927  31.516  10.904
63732W        W23026   6.307  27.022  10.942
63733W        W23027  25.611  25.605  14.488
63734W        W23028   4.845  43.834   0.443
63735W        W23029  15.151  40.476   1.845
63736W        W23030  31.038  10.872   3.658
63737W        W23031  37.865  17.170   2.414
63738W        W23032   9.886  40.971  12.946
63739W        W23033   6.288  14.251  13.452
63740W        W23034  27.489  37.386   1.849
63741W        W23035   5.867  39.000  10.607
63742W        W23036  38.542  10.736  12.930
63743W        W23037  35.537  34.116  11.958
63744W        W23038  10.758  34.465   4.215
63745W        W23039  30.639   7.686  13.317
63746W        W23040   0.758  44.756  14.870
63747W        W23041  19.562  38.929  13.920
63748W        W23042  37.532  12.739  12.362
63749W        W23043  41.958  14.261  14.004
63750W        W23044   6.304  34.089   4.615
63751W        W23045  41.041   8.368   0.393
63752W        W23046  42.361  41.330  10.921
63753W        W23047  41.996  19.099  10.572
63754W        W23048   7.838  12.719  13.036
63755W        W23049  16.716  30.503  13.362
63756W        W23050   0.356   1.758   1.343
63757W        W23051  16.186  34.019  11.400
63758W        W23052  27.176  32.505  12.481
63759W        W23053  33.484  40.378  12.031
63760W        W23054  40.878  27.942   4.248
63761W        W23055  15.284   5.330  12.552
63762W        W23056  12.300  20.089  13.377
63763W        W23057  42.304  19.578   4.281
63764W        W23058  15.591  10.776  10.097
63765W        W23059  42.942  34.055   1.776
63766W        W23060  18.224  16.190   4.164
63767W        W23061  20.128  23.651   2.685
63768W        W23062   1.251  34.487  10.498
63769W        W23063   6.715  34.957   3.241
63770W        W23064  31.601   5.811  14.916
63771W        W23065   3.373  20.761   5.729
63772W        W23066   3.907  44.421  10.562
63773W        W23067  43.849  36.857  11.059
63774W        W23068  15.212  19.247   2.212
63775W        W23069  25.524  44.350   1.818
63776W        W23070  34.573  11.213  13.986
63777W        W23071  23.557  39.836   0.864
63778W        W23072  35.867   4.806  14.383
63779W        W23073  40.450  14.211  12.474
63780W        W23074   0.779  42.886  14.017
63781W        W23075  42.969  30.489  12.088
63782W        W23076  39.457  15.757  13.536
63783W        W23077   2.288  28.972  12.029
63784W        W23078  19.770  42.806   3.200
63785W        W23079   2.433  18.728  14.354
63786W        W23080  26.146  13.253   3.865
63787W        W23081  36.977  21.201   4.773
63788W        W23082   4.441   0.836  13.058
63789W        W23083   0.292  26.481  11.568
63790W        W23084  29.608  24.649   3.632
63791W        W23085  38.073  36.025  14.507
63792W        W23086  15.672  44.820   3.158
63793W        W23087  16.609  19.634  13.413
63794W        W23088   5.857   7.289   3.328
63795W        W23089  34.504   2.966   4.310
63796W        W23090  41.515  31.537  13.857
63797W        W23091  28.151  22.531   5.207
63798W        W23092  36.030  39.518  14.827
63799W        W23093  27.624  33.940  12.519
63800W        W23094  23.584  30.564   2.416
63801W        W23095  10.708   6.196   3.214
63802W        W23096  40.424  41.437  10.523
63803W        W23097  33.087  26.111   3.355
63804W        W23098  44.846  43.272   3.755
63805W        W23099  25.522  41.959  12.488
63806W        W23100  37.059  27.534  11.390
63807W        W23101   6.261  19.631   1.215
63808W        W23102   8.361  35.385   0.428
63809W        W23103  15.695  32.142  13.495
63810W        W23104  36.096  37.029  12.432
63811W        W23105  18.563  21.701  12.087
63812W        W23106  15.218   4.859  10.558
63813W        W23107  36.497  20.559   2.298
63814W        W23108   6.210  43.909  13.995
63815W        W23109  15.676  26.139  14.929
63816W        W23110  33.874  10.876  12.391
63817W        W23111  38.470  30.548  12.936
63818W        W23112  13.108  27.547   1.934
63819W        W23113   4.795  34.018   3.181
63820W        W23114  24.526   9.213  14.906
63821W        W23115  39.826   7.811   1.814
63822W        W23116   4.208  37.834   1.360
63823W        W23117   4.906  24.691  12.486
63824W        W23118  28.158   3.456  13.037
63825W        W23119  32.027  22.603   3.332
63826W        W23120  34.923  29.009  12.468
63827W        W23121   2.827  25.477   4.611
63828W        W23122  31.437  16.799   1.927
63829W        W23123  30.565  13.837  11.056
63830W        W23124   7.813  25.601  12.081
63831W        W23125   4.313  28.610  12.971
63832W        W23126   1.887  21.095   1.287
63833W        W23127  32.543  32.142  10.511
63834W        W23128  10.293  34.941   3.762
63835W        W23129  22.012   7.881   2.793
63836W        W23130  17.307  26.558   4.279
63837W        W23131  27.473  23.049   1.819
63838W        W23132  37.877   5.265  12.030
63839W        W23133  42.322  17.234   4.798
63840W        W23134  32.001  17.204  12.087
63841W        W23135  42.783   4.730  12.539
63842W        W23136  24.200  16.182  14.443
63843W        W23137  44.928  32.101  11.591
63844W        W23138  44.009   1.913   0.787
63845W        W23139  29.965  15.681   0.752
63846W        W23140  11.261  43.951  12.421
63847W        W23141  39.937  35.059   3.372
63848W        W23142   9.716  10.210  12.474
63849W        W23143   9.766   6.916   0.325
63850W        W23144  13.320  10.299   5.208
63851W        W23145  37.048  16.075  14.786
63852W        W23146   8.259  43.275   2.786
63853W        W23147   0.786  40.509   1.727
63854W        W23148  35.455  20.743   3.361
63855W        W23149  41.011  41.822  10.585
63856W        W23150  16.174  22.130   1.300
63857W        W23151   0.747  39.442   2.874
63858W        W23152   4.847  44.866  10.512
63859W        W23153   8.896  17.140   1.322
63860W        W23154  16.241  29.528  11.030
63861W        W23155  38.543   2.911  11.920
63862W        W23156  20.608  30.435  13.489
63863W        W23157  26.696  25.973   2.903
63864W        W23158  43.457  11.773   0.778
63865W        W23159  39.490   1.771   0.919
63866W        W23160   7.843  39.487  13.896
63867W        W23161   0.407  32.612   1.738
63868W        W23162  34.534  35.432   3.688
63869W        W23163  37.442  30.082  11.582
63870W        W23164  42.791   8.812   1.844
63871W        W23165  35.503  30.014  10.556
63872W        W23166  11.320  12.649  10.556
63873W        W23167  40.048  41.923  14.808
63874W        W23168  44.881  34.506  12.430
63875W        W23169  27.657   2.346   3.377
63876W        W23170   1.950   7.676  14.019
63877W        W23171  16.220   2.882   3.203
63878W        W23172  36.882  12.854  10.449
63879W        W23173  14.751   7.681  13.933
63880W        W23174  40.480  11.746  13.962
63881W        W23175  22.688  41.953   1.845
63882W        W23176  39.003  38.396  11.526
63883W        W23177  32.917   0.798   3.848
63884W        W23178   9.762  11.360   1.845
63885W        W23179  33.049  21.613  14.782
63886W        W23180  13.251  10.771   3.297
63887W        W23181  23.071  13.770   4.696
63888W        W23182   4.894   6.416  10.509
63889W        W23183  16.087  38.448   2.710
63890W        W23184  43.341  30.444   0.307
63891W        W23185   2.943  13.640   4.239
63892W        W23186  11.328  30.442  14.905
63893W        W23187   0.952  40.372  13.414
63894W        W23188   7.752  39.980  13.548
63895W        W23189  44.505   9.187  13.418
63896W        W23190  39.868   9.240   1.877
63897W        W23191  33.501  40.907   1.809
63898W        W23192  27.117   1.892   4.698
63899W        W23193  17.215  32.477   1.884
63900W        W23194  26.980  21.594  14.760
63901W        W23195  24.486  36.090   3.810
63902W        W23196  44.503  24.153  11.950
63903W        W23197  39.498   6.341   3.384
63904W        W23198   4.427  32.935   3.308
63905W        W23199   5.373   9.742   1.839
63906W        W23200  27.997  16.787  13.328
63907W        W23201   7.687  10.260   4.305
63908W        W23202  23.993  21.726   3.867
63909W        W23203   9.792  36.901  12.527
63910W        W23204   3.392   4.375   2.182
63911W        W23205  31.577  11.817  13.858
63912W        W23206  34.419  17.274  12.572
63913W        W23207  14.117  39.864   2.771
63914W        W23208  21.569  37.930   3.327
63915W        W23209  14.622  27.620  14.779
63916W        W23210   3.229  36.498  10.627
63917W        W23211  27.533   9.749  11.955
63918W        W23212  15.284  20.080   1.389
63919W        W23213  13.340  12.755   1.335
63920W        W23214  40.461  31.030   0.363
63921W        W23215  19.284  10.847   9.495
63922W        W23216  26.594  40.317   2.249
63923W        W23217  43.868  22.205  12.884
63924W        W23218  28.186  10.274  14.821
63925W        W23219   2.333  30.919   4.354
63926W        W23220  25.499  23.525   0.733
63927W        W23221  26.018  12.738   0.864
63928W        W23222   6.774  27.487   3.735
63929W        W23223  26.662  23.165   1.331
63930W        W23224   2.763  37.885  13.827
63931W        W23225  34.478  38.981  10.914
63932W        W23226  15.624  24.199  14.371
63933W        W23227  11.754  32.494  11.014
63934W        W23228  24.609  24.220   4.305
63935W        W23229  25.143  19.059  13.963
63936W        W23230  40.361  22.121   0.331
63937W        W23231  25.628  30.065  13.853
63938W        W23232   3.281  11.276  12.964
63939W        W23233   9.315  14.210   2.800
63940W        W23234  12.674  22.698  11.566
63941W        W23235  24.230  39.984   4.638
63942W        W23236  12.171  29.447   3.851
63943W        W23237   5.747   5.405   1.850
63944W        W23238  31.140  23.623   2.816
63945W        W23239  19.274  24.712  14.461
63946W        W23240  11.130  37.003   1.227
63947W        W23241  28.545  21.589  10.523
63948W        W23242  28.657  21.556   0.744
63949W        W23243  36.979  36.983   3.287
63950W        W23244   7.389  15.141   4.134
63951W        W23245  33.038   0.471   4.600
63952W        W23246   3.882  23.061   3.717
63953W        W23247   8.187  12.850  11.897
63954W        W23248   1.396   6.773  10.620
63955W        W23249  24.215  32.060   1.783
63956W        W23250  43.832  22.738  10.513
63957W        W23251  37.028  35.495   3.245
63958W        W23252  36.456  36.874  12.547
63959W        W23253  35.093  34.425   0.422
63960W        W23254  28.991  36.430   3.789
63961W        W23255  42.397   3.765   3.759
63962W        W23256   7.406  13.164   3.770
63963W        W23257  41.304  22.547  14.844
63964W        W23258  22.083  35.106   4.757
63965W        W23259  44.488   1.851  12.992
63966W        W23260   5.800   3.421  13.356
63967W        W23261   7.363  44.316  13.929
63968W        W23262  24.109  26.583   3.705
63969W        W23263  35.375  27.617   1.695
63970W        W23264  31.903  28.567   3.155
63971W        W23265   6.920  38.898   4.291
63972W        W23266  31.085  38.494   1.763
63973W        W23267   9.276  32.929  10.098
63974W        W23268  21.159   3.844   2.276
63975W        W23269   3.406  29.615   1.232
63976W        W23270  44.923  35.464   2.277
63977W        W23271  25.616  41.817  10.605
63978W        W23272  21.680  39.934  10.557
63979W        W23273   8.832  41.895   0.361
63980W        W23274  36.515   2.928  12.515
63981W        W23275  38.347   4.741  13.871
63982W        W23276  41.816  28.580   4.768
63983W        W23277  44.871  12.763   0.339
63984W        W23278  36.019   8.390   3.694
63985W        W23279  39.346  40.474   0.749
63986W        W23280  41.044  21.530  11.551
63987W        W23281   8.770  34.438  13.814
63988W        W23282  25.175  39.336   4.164
63989W        W23283  41.311  18.557  12.889
63990W        W23284   2.920   4.246  11.526
63991W        W23285  41.939  12.143  14.403
63992W        W23286   9.192  35.530   0.359
63993W        W23287   2.353  27.039  14.480
63994W        W23288   1.367  43.320   4.770
63995W        W23289   0.472  14.824  14.910
63996W        W23290  26.202   9.207   3.679
63997W        W23291  37.937  25.616   2.261
63998W        W23292  30.127  13.789   1.292
63999W        W23293   6.185  38.949   0.245
64000W        W23294  27.999   8.748   5.180
64001W        W23295  21.112   2.291   5.170
64002W        W23296   0.856  38.952   4.258
64003W        W23297  20.766  21.245   3.696
64004W        W23298   0.798  17.219  14.789
64005W        W23299   8.381  18.278  12.368
64006W        W23300  32.504   2.925   3.786
64007W        W23301   4.421  34.548  12.995
64008W        W23302  29.462  30.460  10.092
64009W        W23303   6.289   8.230  11.031
64010W        W23304  14.606  29.458   3.168
64011W        W23305   7.882  44.903   3.669
64012W        W23306  39.023  16.797  13.821
64013W        W23307   8.663  30.617   0.277
64014W        W23308   4.253  32.080   2.683
64015W        W23309  36.860  33.427   3.720
64016W        W23310  37.553  29.550   4.265
64017W        W23311  23.613  36.381   1.268
64018W        W23312  13.131  28.541  11.538
64019W        W23313  14.185   8.214  13.356
64020W        W23314  43.409  20.099  12.823
64021W        W23315  32.894  24.090  13.523
64022W        W23316  27.621  36.471  10.946
64023W        W23317  18.265  27.567   2.301
64024W        W23318   4.348  40.834  14.956
64025W        W23319  43.411   9.246  12.095
64026W        W23320  33.541  35.894  10.033
64027W        W23321   7.341  31.146  13.002
64028W        W23322  12.619  43.935  13.917
64029W        W23323  24.007  43.785  11.595
64030W        W23324  13.334  15.705   4.807
64031W        W23325  17.727   5.880  10.589
64032W        W23326   9.649  31.931  11.464
64033W        W23327  17.570  10.666   1.832
64034W        W23328  29.526  23.547   9.990
64035W        W23329  40.376  21.514   3.252
64036W        W23330  20.613  21.183  14.496
64037W        W23331  34.928  37.455  14.311
64038W        W23332  37.457   9.285   3.800
64039W        W23333  10.754   5.331  12.864
64040W        W23334   0.885  38.980   3.187
64041W        W23335   2.368  21.038  13.937
64042W        W23336  30.562   0.477   3.169
64043W        W23337  33.072  25.574   2.853
64044W        W23338  19.699   8.782   1.446
64045W        W23339  18.270   2.776   2.698
64046W        W23340  33.560  10.268   2.852
64047W        W23341  36.533  30.473  11.892
64048W        W23342  41.999   4.327  13.813
64049W        W23343  16.772  40.848   0.907
64050W        W23344  41.970  34.091  13.488
64051W        W23345  34.523   9.820  12.055
64052W        W23346  31.476  27.452   2.815
64053W        W23347   2.871  35.852   1.770
64054W        W23348  25.977  29.096  10.609
64055W        W23349  18.578  32.040   2.844
64056W        W23350   9.723  15.674  12.520
64057W        W23351  20.194  20.173   2.840
64058W        W23352  22.172  35.490   0.867
64059W        W23353  41.301  20.216  11.568
64060W        W23354  42.837   0.443   1.917
64061W        W23355  30.629  20.720   4.632
64062W        W23356  31.464   0.371  14.765
64063W        W23357  17.085   6.394  13.350
64064W        W23358  30.083   4.888  12.989
64065W        W23359  43.000  13.350   5.162
64066W        W23360  38.986  27.147   2.305
64067W        W23361   4.369   2.243  10.523
64068W        W23362  41.954  23.539  11.063
64069W        W23363  43.933   1.746  11.053
64070W        W23364   0.466   7.336  11.957
64071W        W23365   5.907  15.771   3.775
64072W        W23366  12.690  21.212   5.274
64073W        W23367   1.866  24.596  12.516
64074W        W23368  27.564  25.004   0.752
64075W        W23369  30.111  39.982  14.903
64076W        W23370  28.115  17.722   1.393
64077W        W23371  33.475  42.355   2.837
64078W        W23372   4.774  39.969  12.341
64079W        W23373   3.926  44.946   4.191
64080W        W23374   2.301  37.506   1.826
64081W        W23375  25.999  34.915  12.409
64082W        W23376   7.372  22.166   5.139
64083W        W23377  32.594  37.419  12.529
64084W        W23378  32.391  34.095  13.922
64085W        W23379  29.113  41.802  11.968
64086W        W23380  41.442  10.342  13.405
64087W        W23381  30.519  16.664   2.262
64088W        W23382  14.188  30.412   3.257
64089W        W23383   4.824  27.524   9.938
64090W        W23384  36.856  26.611   4.708
64091W        W23385  35.962  17.171  13.047
64092W        W23386  34.093  23.213   2.887
64093W        W23387  11.353  25.969  11.103
64094W        W23388  13.159  14.156  11.126
64095W        W23389  15.688   6.823  14.769
64096W        W23390  44.897  35.865  14.288
64097W        W23391  10.374  29.143   2.229
64098W        W23392  19.757  25.659   2.735
64099W        W23393   6.209  37.968  14.406
64100W        W23394  25.997  15.741  14.023
64101W        W23395  19.238  37.990  12.857
64102W        W23396  30.581  30.079   4.170
64103W        W23397  28.996  27.606  10.598
64104W        W23398  31.046  22.720   3.766
64105W        W23399  36.903  23.501   2.777
64106W        W23400  32.101  15.193  10.455
64107W        W23401  10.264   2.746   1.874
64108W        W23402  23.126  34.478   3.256
64109W        W23403  19.240  42.316   3.847
64110W        W23404  28.565  36.995  14.866
64111W        W23405  29.043  30.443  11.520
64112W        W23406  30.609  40.889  13.792
64113W        W23407  14.819   2.871  12.395
64114W        W23408   9.226   3.854  11.522
64115W        W23409  13.769   6.838  14.002
64116W        W23410  43.466   6.380  11.590
64117W        W23411   5.299   8.319   2.821
64118W        W23412  25.497   5.773   4.257
64119W        W23413  26.113  23.711   0.428
64120W        W23414  20.710   3.906  14.379
64121W        W23415  19.596   1.426  11.903
64122W        W23416  30.071  20.581  13.463
64123W        W23417   2.229  28.542  11.858
64124W        W23418  40.803  41.043   3.243
64125W        W23419  14.829  31.115  11.435
64126W        W23420  16.597   5.352  10.612
64127W        W23421  19.772  41.977   0.954
64128W        W23422   1.837   3.356  12.475
64129W        W23423   6.389   1.774   0.767
64130W        W23424  16.106   3.807   0.790
64131W        W23425  17.177  41.898   2.327
64132W        W23426  15.213  37.378   0.398
64133W        W23427  18.587  37.384  12.074
64134W        W23428   2.836   8.366  11.571
64135W        W23429  17.094  29.174   3.249
64136W        W23430  27.633  34.067  11.109
64137W        W23431  24.646  15.584  14.339
64138W        W23432  14.252  23.044  11.052
64139W        W23433  42.922  20.575  14.967
64140W        W23434  15.178  10.715   1.352
64141W        W23435  32.947  39.549   4.233
64142W        W23436  31.061   5.279   2.300
64143W        W23437   3.817  37.495   5.130
64144W        W23438   3.257  38.994  12.531
64145W        W23439  38.389  18.145  10.533
64146W        W23440  15.739  32.032   3.686
64147W        W23441   2.914  17.727   1.297
64148W        W23442  37.531  33.466   0.350
64149W        W23443  40.905   5.922  11.017
64150W        W23444  43.498  20.685  14.838
64151W        W23445  17.261  20.203   1.716
64152W        W23446  37.077  24.499  13.052
64153W        W23447   0.335  41.787  13.045
64154W        W23448  43.471  31.110  12.384
64155W        W23449  25.575  19.745   1.853
64156W        W23450   4.294  33.917  10.547
64157W        W23451  20.221   8.844   3.230
64158W        W23452   0.846  19.576   1.807
64159W        W23453  21.104  43.797  13.533
64160W        W23454  21.100  29.986  13.435
64161W        W23455  31.492  11.744  14.420
64162W        W23456  18.673  29.134  11.061
64163W        W23457  44.939  16.075  13.874
64164W        W23458  30.140  28.625   2.830
64165W        W23459  17.726   4.386   0.440
64166W        W23460  36.585  36.061  12.464
64167W        W23461  16.575  37.856  13.520
64168W        W23462  26.584  40.806   2.350
64169W        W23463  30.139   2.808  11.924
64170W        W23464  30.020  22.186   3.632
64171W        W23465  18.261  32.612   2.389
64172W        W23466  29.977  13.729   3.336
64173W        W23467  35.941  17.689  12.996
64174W        W23468   8.337  43.320  10.417
64175W        W23469  12.214  15.719   0.918
64176W        W23470  15.749   2.924   1.392
64177W        W23471   0.288  17.560  13.432
64178W        W23472  24.521  12.210  12.553
64179W        W23473  31.909  16.184  12.543
64180W        W23474   2.885  16.575   2.890
64181W        W23475  11.254  10.656   1.724
64182W        W23476  43.795  35.534  12.950
64183W        W23477  29.003  36.435   0.247
64184W        W23478  27.675  16.188   0.384
64185W        W23479   7.238  33.974   1.306
64186W        W23480  19.072  21.127  11.527
64187W        W23481  38.525  21.179   4.633
64188W        W23482  11.731  32.465  14.468
64189W        W23483   2.231  36.385  11.430
64190W        W23484   2.782  14.788   3.356
64191W        W23485  35.580  16.800  11.439
64192W        W23486  27.984  42.899  11.986
64193W        W23487  44.913  44.766  10.148
64194W        W23488  19.078  32.013  13.494
64195W        W23489   8.871  25.169  12.538
64196W        W23490   0.917   8.399   0.281
64197W        W23491  33.512  31.473  13.020
64198W        W23492  22.711  40.886  10.503
64199W        W23493  22.740  17.692  14.494
64200W        W23494  18.118  32.400   3.150
64201W        W23495  24.660  19.703   4.302
64202W        W23496   5.698  32.557   5.684
64203W        W23497  35.591  14.615   1.825
64204W        W23498  30.022  42.001  11.998
64205W        W23499  12.200  25.135   0.278
64206W        W23500   4.867  38.901   3.356
64207W        W23501   4.383  33.941   2.715
64208W        W23502  30.153  11.159  13.498
64209W        W23503   1.753  24.580  12.912
64210W        W23504  27.093  14.185  14.821
64211W        W23505  27.009  20.586  13.321
64212W        W23506  16.584  34.584  13.399
64213W        W23507  16.121  30.099  12.960
64214W        W23508  43.793  43.856  10.521
64215W        W23509   1.248  29.424   0.855
64216W        W23510   9.240  44.830   0.752
64217W        W23511  25.135   9.193  11.910
64218W        W23512   9.270   5.707  13.922
64219W        W23513  24.584  42.783  10.438
64220W        W23514  43.362  26.514  11.383
64221W        W23515   8.823  13.786   1.396
64222W        W23516  44.487   3.724  11.428
64223W        W23517  32.424  37.946   1.913
64224W        W23518  21.623  26.592   1.803
64225W        W23519  11.206  24.549  12.928
64226W        W23520  40.866  25.588   0.298
64227W        W23521   6.829   6.751  10.590
64228W        W23522   6.254  26.639   9.922
64229W        W23523  29.945   3.780  13.804
64230W        W23524  24.710  15.742  10.064
64231W        W23525   2.721  29.461  11.903
64232W        W23526  16.750  26.628   2.799
64233W        W23527  10.777  24.226  11.084
64234W        W23528   6.773  11.691   2.316
64235W        W23529  43.460  34.608  13.057
64236W        W23530  27.642  17.280  14.030
64237W        W23531   0.375  23.176   0.922
64238W        W23532  38.928  18.092   2.380
64239W        W23533  24.147  13.658   1.391
64240W        W23534   9.230  10.814   0.932
64241W        W23535  26.201  25.692  12.487
64242W        W23536  15.097  43.288   4.137
64243W        W23537  24.703  21.155  11.993
64244W        W23538  11.774  37.938  11.888
64245W        W23539   3.735  37.009  14.314
64246W        W23540   7.889  24.170   4.747
64247W        W23541  31.521  38.459  12.479
64248W        W23542  28.462   7.675  11.446
64249W        W23543  17.064  15.688   1.213
64250W        W23544  20.570  32.114   4.631
64251W        W23545  38.077  13.305   0.961
64252W        W23546  38.424  15.322  13.827
64253W        W23547   3.432  38.389  11.019
64254W        W23548  31.944  21.557   3.715
64255W        W23549  40.443   1.942  13.900
64256W        W23550  12.811  37.350   2.182
64257W        W23551  14.143  38.002  14.930
64258W        W23552  11.771  17.589   2.830
64259W        W23553  15.591  34.896  12.558
64260W        W23554  16.112  27.451  11.608
64261W        W23555   4.726   3.317  14.790
64262W        W23556  38.884  41.295  12.513
64263W        W23557  22.584  40.911   2.689
64264W        W23558  25.968  10.196   0.944
64265W        W23559  36.016   6.690   0.280
64266W        W23560  43.934  40.406   3.213
64267W        W23561  14.675  10.285   5.568
64268W        W23562   4.767  11.647   0.941
64269W        W23563   6.847  18.254  12.032
64270W        W23564  32.091  11.173  11.580
64271W        W23565   8.772  37.366  14.820
64272W        W23566  44.889  11.240  12.471
64273W        W23567  26.140  27.090   3.325
64274W        W23568  42.831  10.348   1.703
64275W        W23569  36.043   4.841  13.522
64276W        W23570  31.081   7.417   0.742
64277W        W23571  25.701  44.471  11.931
64278W        W23572  40.879  21.259   1.923
64279W        W23573   7.832  13.701  11.979
64280W        W23574  19.654   1.949  14.444
64281W        W23575  15.815   4.828  11.882
64282W        W23576  22.721  35.383  10.999
64283W        W23577  29.518  41.855  10.086
64284W        W23578   1.831  34.046  10.503
64285W        W23579  32.513  33.414   1.245
64286W        W23580  38.396  14.765  13.528
64287W        W23581  37.509   1.295  11.612
64288W        W23582  34.541  30.449   4.690
64289W        W23583  37.069  16.711  11.583
64290W        W23584   3.272  16.763  13.425
64291W        W23585  15.776  15.757  10.533
64292W        W23586  23.602  34.466  14.498
64293W        W23587  29.479  42.905   1.697
64294W        W23588  25.548   0.483   0.472
64295W        W23589  32.391  44.829  11.961
64296W        W23590  39.347   0.881   4.183
64297W        W23591  32.010   8.692   2.796
64298W        W23592   7.240  19.696  11.480
64299W        W23593   3.289   8.263  11.997
64300W        W23594  29.531  15.251   0.297
64301W        W23595   3.406  20.706   4.323
64302W        W23596  22.019  39.813   0.939
64303W        W23597  41.853  28.985  13.493
64304W        W23598  24.988  21.636   4.597
64305W        W23599  11.355  42.974   2.391
64306W        W23600  39.370  24.575   2.761
64307W        W23601  17.078   5.270   3.656
64308W        W23602  17.654  35.967  12.984
64309W        W23603  38.879  37.022  14.998
64310W        W23604  13.762  38.942   4.664
64311W        W23605  15.184  24.211   1.372
64312W        W23606  41.906  16.254   1.263
64313W        W23607   0.948  23.670  14.812
64314W        W23608  35.408  25.055   0.276
64315W        W23609  26.550  39.005   2.384
64316W        W23610  32.510  19.217  11.526
64317W        W23611  20.153   8.292   9.620
64318W        W23612  37.879   7.231   3.240
64319W        W23613  37.881  24.169   0.959
64320W        W23614  20.604  37.565   0.387
64321W        W23615  28.026  42.519   2.356
64322W        W23616   8.262  12.843  14.488
64323W        W23617  24.050   1.433   0.936
64324W        W23618  43.336  23.507  12.519
64325W        W23619  28.071   7.878   4.728
64326W        W23620  37.448  26.518   5.225
64327W        W23621  26.952  24.709  13.370
64328W        W23622  40.863  35.540  11.103
64329W        W23623  26.643  13.237  13.969
64330W        W23624  32.498   7.675  11.916
64331W        W23625  44.417  44.983   1.742
64332W        W23626  11.827  22.248   3.632
64333W        W23627  39.347   9.329  11.903
64334W        W23628  30.061  44.262   1.850
64335W        W23629  10.368  28.993  12.404
64336W        W23630  13.722  30.065  13.378
64337W        W23631  36.047   6.898   3.259
64338W        W23632  18.171  23.224  13.992
64339W        W23633   7.769  10.330  10.957
64340W        W23634   1.421  39.383   0.777
64341W        W23635  31.554  42.804  11.457
64342W        W23636  42.435  11.773  13.796
64343W        W23637   1.289   1.827  11.009
64344W        W23638  28.660  20.549   2.399
64345W        W23639  19.661  42.982   4.825
64346W        W23640  36.531  23.086   3.297
64347W        W23641  37.447  16.283   0.965
64348W        W23642  26.097  31.434  14.778
64349W        W23643  31.968  13.667  14.343
64350W        W23644   9.852  39.487   0.735
64351W        W23645  13.196  36.914   3.286
64352W        W23646  34.374  29.447  11.960
64353W        W23647  17.785  41.336  13.437
64354W        W23648  14.681  32.009  12.466
64355W        W23649  21.550   2.938   3.276
64356W        W23650  43.409  41.314  14.285
64357W        W23651   9.331  43.993   1.746
64358W        W23652  20.154  42.887   1.377
64359W        W23653  43.387  12.211  14.487
64360W        W23654  10.734  43.882   0.338
64361W        W23655  13.708  16.672  10.904
64362W        W23656  18.060  28.647  11.594
64363W        W23657  41.375  33.385   2.189
64364W        W23658  23.700   0.452   0.304
64365W        W23659  15.725  31.029  12.895
64366W        W23660  44.314  42.388   4.347
64367W        W23661  22.243  10.337  11.869
64368W        W23662  35.400  23.168   3.229
64369W        W23663  31.514  10.196   0.376
64370W        W23664  15.700  31.061   3.276
64371W        W23665  41.968  20.744  12.411
64372W        W23666  15.153   2.818   4.179
64373W        W23667  21.094  32.950  13.908
64374W        W23668   5.429  19.128   1.258
64375W        W23669   9.880  28.597  10.486
64376W        W23670   7.382  14.755   0.946
64377W        W23671  23.572  38.414   0.963
64378W        W23672   8.844   1.915   5.159
64379W        W23673  41.792  10.797   3.869
64380W        W23674   9.743  18.684  11.946
64381W        W23675   9.259  36.055  10.988
64382W        W23676   9.730  39.019  14.463
64383W        W23677  37.581  43.293  11.609
64384W        W23678   8.240  30.047  14.381
64385W        W23679  28.186   6.251  11.948
64386W        W23680  13.197  14.198   4.141
64387W        W23681  17.098  29.022  11.888
64388W        W23682  13.154  36.901   2.838
64389W        W23683  41.451   2.736  11.465
64390W        W23684   1.948  27.581   3.835
64391W        W23685  43.496  28.660   4.795
64392W        W23686  28.019  20.048  10.067
64393W        W23687  11.294   6.313  13.403
64394W        W23688  24.164  18.194  14.008
64395W        W23689  28.971   4.299  12.949
64396W        W23690  18.094   7.372   1.294
64397W        W23691  20.182  11.146  13.871
64398W        W23692  43.382   5.806   3.808
64399W        W23693  31.639  40.529  14.346
64400W        W23694  40.806  41.878   2.330
64401W        W23695  42.815  21.725   1.734
64402W        W23696  33.569  26.529   5.104
64403W        W23697  20.205  27.100   1.227
64404W        W23698  28.976  18.159   4.233
64405W        W23699  39.509   9.754   4.258
64406W        W23700  36.570  43.942  11.386
64407W        W23701  24.050  40.488   0.745
64408W        W23702   7.794   6.236  13.410
64409W        W23703   3.216  11.265  13.991
64410W        W23704  33.115   7.837   0.302
64411W        W23705  33.880   8.172   1.887
64412W        W23706   0.445   1.439  12.925
64413W        W23707  10.256   0.982  12.344
64414W        W23708  32.509  44.343   1.374
64415W        W23709  35.046  42.367  12.555
64416W        W23710  33.392  20.640  14.324
64417W        W23711   2.359  42.481   0.336
64418W        W23712  11.681   1.809  10.118
64419W        W23713  30.065   9.678   3.851
64420W        W23714  29.519  10.720   2.385
64421W        W23715  18.170   1.879   2.350
64422W        W23716  27.542  31.088  10.643
64423W        W23717  13.293   5.272  12.910
64424W        W23718  26.685  15.302  10.529
64425W        W23719  41.530   6.860   0.868
64426W        W23720  23.117  20.049  12.386
64427W        W23721  38.452  32.444   2.841
64428W        W23722  44.775  25.580   3.201
64429W        W23723  35.560  35.474  11.544
64430W        W23724  32.046   7.836   1.916
64431W        W23725  17.570  34.606   4.699
64432W        W23726  37.838   4.793  12.035
64433W        W23727  18.728   4.874   1.867
64434W        W23728  26.674  21.641   1.832
64435W        W23729   0.935  41.850  13.039
64436W        W23730   3.710  27.484  10.473
64437W        W23731   6.382  22.139  13.013
64438W        W23732  34.444  31.123   4.633
64439W        W23733  16.135   0.327  10.615
64440W        W23734   1.377  13.723  14.339
64441W        W23735   5.832   0.967   0.405
64442W        W23736  32.915   8.289  14.957
64443W        W23737  16.161  27.091  10.984
64444W        W23738  25.966  28.441  14.984
64445W        W23739  17.564   6.378   4.786
64446W        W23740   0.855   7.216  11.525
64447W        W23741  27.019  26.185   2.717
64448W        W23742   7.755  33.040  14.002
64449W        W23743   1.842  30.644   2.798
64450W        W23744  28.096  26.000   1.243
64451W        W23745  18.693  35.090  10.432
64452W        W23746  21.051   0.377   3.316
64453W        W23747  20.070   0.335   2.261
64454W        W23748  13.803  37.437   4.212
64455W        W23749  25.549  21.224  14.879
64456W        W23750  37.954  20.096   3.658
64457W        W23751   3.828   3.771  13.522
64458W        W23752  25.569   0.756  11.882
64459W        W23753  27.538  16.110  12.462
64460W        W23754  40.839  14.228  11.610
64461W        W23755  19.579  22.179  12.999
64462W        W23756  23.986   4.830   0.349
64463W        W23757  44.435  12.273  11.498
64464W        W23758  27.039  19.688  14.981
64465W        W23759  16.127  32.606  14.987
64466W        W23760  16.307   3.770   4.689
64467W        W23761  44.334  24.224  13.855
64468W        W23762  13.222  25.671  10.572
64469W        W23763  32.395  18.227   3.382
64470W        W23764  31.939  43.300   3.153
64471W        W23765  44.863  27.103   4.319
64472W        W23766  43.474  19.542  13.320
64473W        W23767  44.861   1.325  11.129
64474W        W23768  16.283  23.083   2.735
64475W        W23769   3.749  34.920   0.476
64476W        W23770  18.227  44.421   0.457
64477W        W23771  12.276   6.422   2.246
64478W        W23772  20.043  30.006   3.711
64479W        W23773   6.912   6.359   4.136
64480W        W23774  16.601   7.388  14.318
64481W        W23775  35.471  30.487   1.737
64482W        W23776  21.540  30.984   4.341
64483W        W23777  21.611   7.672  13.458
64484W        W23778   4.434  23.033   0.909
64485W        W23779   6.350  27.083  11.463
64486W        W23780  42.905  43.019  10.140
64487W        W23781  32.495  39.386   2.708
64488W        W23782  31.038  36.876   2.211
64489W        W23783  28.957  10.213  13.860
64490W        W23784  37.898  30.137   2.273
64491W        W23785   6.396  38.550  10.539
64492W        W23786  21.096  43.511  14.443
64493W        W23787  42.864  18.106   1.771
64494W        W23788  14.319  29.478   1.446
64495W        W23789  34.502  22.627   0.290
64496W        W23790   7.250  17.174  13.865
64497W        W23791  26.478  41.537  10.553
64498W        W23792  22.195  32.556   4.281
64499W        W23793  33.030  20.244   4.693
64500W        W23794  43.890  42.363   1.359
64501W        W23795  10.845  15.605   4.176
64502W        W23796  37.400  29.022  12.931
64503W        W23797   0.836  28.670  11.047
64504W        W23798   1.903   6.849  12.036
64505W        W23799  19.620   4.373   0.301
64506W        W23800  14.598  12.174   2.408
64507W        W23801  36.408   8.859   2.361
64508W        W23802  44.471   9.346   9.930
64509W        W23803  21.253  38.826  13.894
64510W        W23804  14.336  44.344  10.629
64511W        W23805  36.565  20.157  14.880
64512W        W23806  27.948  11.319   0.358
64513W        W23807  27.977  38.070  12.043
64514W        W23808  25.115  30.417  12.892
64515W        W23809  34.028  44.904   4.777
64516W        W23810  38.543   7.896  11.557
64517W        W23811  27.587  28.601  14.366
64518W        W23812  23.177  33.901   0.744
64519W        W23813  23.222  30.134  14.971
64520W        W23814  35.023   4.901   1.933
64521W        W23815  12.760  36.425   4.754
64522W        W23816   3.916  43.372  12.862
64523W        W23817  41.815  26.550   4.796
64524W        W23818  27.121  34.422   1.296
64525W        W23819   1.814   2.942   2.398
64526W        W23820  13.747  32.415   4.665
64527W        W23821  14.801  19.578  14.359
64528W        W23822  27.070   0.966  14.959
64529W        W23823  28.164   5.262  10.035
64530W        W23824  22.216  36.477   3.696
64531W        W23825  41.885   6.727   1.752
64532W        W23826   6.222  26.081   4.823
64533W        W23827  43.766  14.177   4.154
64534W        W23828  36.010  37.942   9.955
64535W        W23829  26.984  40.423   4.838
64536W        W23830  37.441  30.129   1.888
64537W        W23831  17.644   1.418  12.459
64538W        W23832  44.922  18.652  14.378
64539W        W23833   2.286  12.200   0.390
64540W        W23834  36.039  28.148  12.952
64541W        W23835  34.442  11.235   2.868
64542W        W23836  22.538   1.969  12.572
64543W        W23837  41.305  15.629  13.538
64544W        W23838  10.694   4.250   2.227
64545W        W23839  41.372   0.345   2.289
64546W        W23840  38.510  39.934  12.494
64547W        W23841  44.422  27.101   4.702
64548W        W23842   6.309   3.727   1.252
64549W        W23843  27.485  21.690   0.278
64550W        W23844  25.487  38.856   5.741
64551W        W23845  19.058  14.241  11.576
64552W        W23846  44.987  29.965   3.336
64553W        W23847   4.864  37.435  10.407
64554W        W23848  43.978  31.485  14.474
64555W        W23849  11.758  26.986  14.893
64556W        W23850  10.759  24.686   4.647
64557W        W23851  42.291  30.948  14.359
64558W        W23852  24.632   5.733   4.789
64559W        W23853  40.012  19.111   4.730
64560W        W23854   2.366  15.088   1.358
64561W        W23855  22.163   1.326   0.896
64562W        W23856  16.139  35.498   2.703
64563W        W23857  21.547   8.714   2.864
64564W        W23858   3.733  12.336   3.282
64565W        W23859  38.437  11.675   2.349
64566W        W23860  24.072  31.549  14.872
64567W        W23861  33.030  38.523   4.254
64568W        W23862  36.891   0.982   3.647
64569W        W23863  36.570  17.127   1.250
64570W        W23864  32.891  35.957  11.986
64571W        W23865  14.341   7.812   1.301
64572W        W23866  38.375  28.596   0.401
64573W        W23867  18.579  27.142   3.305
64574W        W23868  35.545  25.025  12.922
64575W        W23869  42.783  17.080  10.416
64576W        W23870  27.500  17.702  12.877
64577W        W23871  35.104   1.849  13.019
64578W        W23872  25.137   2.777   2.277
64579W        W23873  24.098  41.903   2.332
64580W        W23874  42.988  21.656  11.979
64581W        W23875   3.747  20.150  12.349
64582W        W23876  12.204  30.034   3.740
64583W        W23877  22.215  41.475   0.840
64584W        W23878  41.507  13.642   4.256
64585W        W23879  40.335  41.013  11.065
64586W        W23880   7.753  29.963  10.551
64587W        W23881  25.119   1.776   2.313
64588W        W23882  35.927   8.816   1.728
64589W        W23883  29.532   9.689  10.545
64590W        W23884   2.771   7.754   2.846
64591W        W23885  17.706  19.246   3.831
64592W        W23886  33.125   2.908   4.793
64593W        W23887  10.198   8.674  13.419
64594W        W23888  26.994  36.461  10.501
64595W        W23889  20.545  24.205  13.473
64596W        W23890   1.440  44.481   4.730
64597W        W23891  43.782   5.756  10.622
64598W        W23892  12.117  16.262  13.308
64599W        W23893  34.034   4.728   3.688
64600W        W23894  15.588  25.043  10.551
64601W        W23895   7.177  44.279  11.124
64602W        W23896  13.741  43.827   4.646
64603W        W23897  40.385  19.727  14.463
64604W        W23898  14.748  42.948  14.303
64605W        W23899  24.037  27.619   1.261
64606W        W23900  43.858  23.223   4.810
64607W        W23901  12.765  40.807   4.836
64608W        W23902  28.022   5.821  14.492
64609W        W23903  40.399  28.458  11.124
64610W        W23904  11.367  33.095  13.417
64611W        W23905   2.352  36.356   4.125
64612W        W23906  14.244  20.566  14.963
64613W        W23907  18.708  24.016  11.964
64614W        W23908  22.090   9.860   2.702
64615W        W23909  34.943   9.348  14.028
64616W        W23910  26.689  13.630  13.449
64617W        W23911  25.120  18.066  11.958
64618W        W23912  11.712  21.173  14.380
64619W        W23913  28.971  29.511  11.584
64620W        W23914  33.476  23.559   2.833
64621W        W23915  25.551  43.332  10.478
64622W        W23916  32.087  26.034  14.462
64623W        W23917  16.120  13.795  12.460
64624W        W23918   3.260   2.949   1.777
64625W        W23919  31.525  11.328  10.408
64626W        W23920  24.062  30.929  12.359
64627W        W23921  43.379  43.858  12.389
64628W        W23922  22.072  41.899   0.824
64629W        W23923   5.832   3.764  12.940
64630W        W23924  24.632  44.943  10.607
64631W        W23925  19.700   4.851  12.422
64632W        W23926   8.352  22.215  10.587
64633W        W23927  22.080   0.946   2.260
64634W        W23928  23.091  44.421  11.877
64635W        W23929  24.205   6.750   3.851
64636W        W23930  26.539  19.749  11.095
64637W        W23931   4.320   5.289  10.487
64638W        W23932  30.080   9.321  14.494
64639W        W23933  33.405  19.241  13.855
64640W        W23934  44.877  31.014   1.327
64641W        W23935   3.416  44.429  12.897
64642W        W23936  13.817  27.034  14.868
64643W        W23937  41.815   4.875   3.304
64644W        W23938  38.833  22.214  14.464
64645W        W23939  33.564  25.049   0.731
64646W        W23940  42.451  32.537   2.672
64647W        W23941  35.548  33.076  13.045
64648W        W23942  11.207  34.900  12.085
64649W        W23943  34.093  20.714   1.856
64650W        W23944   1.838  10.263   3.211
64651W        W23945  27.498  33.481  11.876
64652W        W23946  44.448  44.777  10.161
64653W        W23947  38.481  32.431   9.451
64654W        W23948  37.393  18.284  10.590
64655W        W23949  24.107  17.736  13.421
64656W        W23950  22.544  31.574  10.887
64657W        W23951  39.004  13.835   3.692
64658W        W23952  13.816   2.319   2.736
64659W        W23953  21.151  36.364  14.471
64660W        W23954  42.369   1.480   3.340
64661W        W23955  29.564   5.409   2.841
64662W        W23956  33.379  21.124   4.215
64663W        W23957  17.101  14.312  13.951
64664W        W23958   1.443   4.765  14.001
64665W        W23959  24.687  37.005   2.207
64666W        W23960  41.017  34.096  14.495
64667W        W23961  13.272  32.536  12.345
64668W        W23962   7.202  16.718  14.763
64669W        W23963  27.166  40.015  13.838
64670W        W23964  12.731  22.049  10.127
64671W        W23965  10.824  26.147   1.748
64672W        W23966   6.821  13.116  10.601
64673W        W23967  41.325  11.155  14.883
64674W        W23968  41.974  32.912   2.222
64675W        W23969  12.660  11.862   0.415
64676W        W23970   3.388  21.593  13.049
64677W        W23971  39.357  35.601   1.363
64678W        W23972  34.373  24.724  14.278
64679W        W23973   4.753  18.555   1.750
64680W        W23974  35.425  16.783   2.195
64681W        W23975  25.689  15.803   2.882
64682W        W23976   2.948   5.351  13.895
64683W        W23977   4.211  43.413  12.889
64684W        W23978  36.066   6.808   3.728
64685W        W23979   4.803  13.175   2.672
64686W        W23980  19.057  14.782  14.920
64687W        W23981   0.415   2.347   3.208
64688W        W23982  35.470   6.693   5.152
64689W        W23983  32.069  33.396   3.254
64690W        W23984  23.985  15.791   1.754
64691W        W23985  31.505  24.584   3.289
64692W        W23986  32.086  15.161  10.058
64693W        W23987   0.794  35.549   0.331
64694W        W23988  40.342  40.875   3.245
64695W        W23989  28.150   6.760  12.986
64696W        W23990   6.230  42.313   2.255
64697W        W23991  21.677  16.081   3.703
64698W        W23992  35.039  17.062  13.967
64699W        W23993   8.165   0.805  12.031
64700W        W23994  35.519   8.359  14.901
64701W        W23995   4.801   0.763   2.391
64702W        W23996  18.187  40.414  10.967
64703W        W23997  11.355  16.768   3.268
64704W        W23998  38.834  13.312  12.342
64705W        W23999  17.108   3.378   5.106
64706W        W24000   3.380  18.756  14.829
64707W        W24001  28.444  16.158  10.888
64708W        W24002  35.489  34.559   3.671
64709W        W24003  11.679  16.231  11.594
64710W        W24004  11.343   4.908   3.327
64711W        W24005  44.864  43.327   0.342
64712W        W24006  38.513   9.346  11.905
64713W        W24007  16.656  12.148  11.883
64714W        W24008  43.929  11.217   1.303
64715W        W24009  20.666  10.190   4.291
64716W        W24010  44.970  37.494  12.469
64717W        W24011  12.203  28.544  11.976
64718W        W24012   7.887  24.165  13.464
64719W        W24013  37.531  36.568   0.797
64720W        W24014  20.737  22.164   3.636
64721W        W24015  43.981  31.608   2.267
64722W        W24016  16.742  17.717   4.669
64723W        W24017   0.833  40.805   4.735
64724W        W24018   0.811   5.272   4.240
64725W        W24019  12.140   3.366  12.989
64726W        W24020  33.041  16.089  14.511
64727W        W24021  34.116  14.274   4.326
64728W        W24022   9.711  11.297  11.413
64729W        W24023  22.681  41.809   3.727
64730W        W24024  11.327  39.975   0.931
64731W        W24025  27.645  21.746  13.985
64732W        W24026   2.380  44.286  10.536
64733W        W24027  31.044  44.378  13.026
64734W        W24028  14.243  42.813   3.259
64735W        W24029  31.433  23.690   2.252
64736W        W24030  29.471  12.278   2.814
64737W        W24031   0.428  33.987  14.403
64738W        W24032  18.086  28.591  14.375
64739W        W24033  14.807  30.984  11.066
64740W        W24034  18.560   8.293   3.644
64741W        W24035  43.948  23.681   3.324
64742W        W24036  33.972   7.298  14.971
64743W        W24037  38.038  24.999   1.883
64744W        W24038  37.867  21.753   0.368
64745W        W24039  13.306  37.578   2.741
64746W        W24040   8.718  11.816  14.767
64747W        W24041  23.626  26.552   4.766
64748W        W24042  22.674  19.046  13.363
64749W        W24043  34.614  18.728   3.701
64750W        W24044   2.345   1.262   3.258
64751W        W24045   9.858  34.444   0.484
64752W        W24046  15.786  21.620  13.967
64753W        W24047  36.968   0.954   2.796
64754W        W24048  35.019  17.157   4.725
64755W        W24049  17.799   8.278   0.423
64756W        W24050  39.969  38.339  14.903
64757W        W24051  43.904  10.765   3.359
64758W        W24052  25.102  15.624  12.824
64759W        W24053   5.726  25.554   9.453
64760W        W24054  18.754  44.765   1.855
64761W        W24055  21.673  28.642   2.359
64762W        W24056  12.127  14.675   3.818
64763W        W24057  34.615  43.325   3.838
64764W        W24058  24.700  30.047  11.066
64765W        W24059  24.498   7.669  11.996
64766W        W24060  15.756  40.457  13.962
64767W        W24061  37.494  39.339   1.853
64768W        W24062  10.809   1.748   5.138
64769W        W24063  28.126   2.364   0.908
64770W        W24064  33.380  26.204  11.952
64771W        W24065  15.329  22.579   1.921
64772W        W24066  22.538  18.189  12.836
64773W        W24067  29.649   6.874  10.488
64774W        W24068  26.683  33.547  13.905
64775W        W24069   6.322  20.183   0.272
64776W        W24070  11.846   6.403  12.482
64777W        W24071   6.279   8.177  11.512
64778W        W24072  34.442  37.036  10.963
64779W        W24073  19.689   0.952   4.648
64780W        W24074  44.333   1.419  12.913
64781W        W24075  40.545  36.415   0.447
64782W        W24076  28.184  23.114  11.460
64783W        W24077  33.510  23.531   4.699
64784W        W24078  10.377   1.871   0.463
64785W        W24079   4.831  13.173   4.223
64786W        W24080  11.699  40.317  11.937
64787W        W24081   5.781  10.708  13.365
64788W        W24082  19.254   5.749   4.132
64789W        W24083  31.898  14.129  10.448
64790W        W24084  29.582  23.130   1.802
64791W        W24085  25.149  17.217   4.191
64792W        W24086  24.722  10.238   5.180
64793W        W24087  35.905   0.778   1.735
64794W        W24088  41.959  25.558   3.808
64795W        W24089  33.990   8.315   2.323
64796W        W24090  27.024   0.470  13.346
64797W        W24091  38.978  31.070   0.884
64798W        W24092  23.158  26.148   3.348
64799W        W24093  40.522   0.378  12.522
64800W        W24094  40.847  13.178  11.962
64801W        W24095  11.722   0.771  14.322
64802W        W24096  25.184  31.022  13.313
64803W        W24097  15.700  17.080   5.745
64804W        W24098  41.882  38.888   9.969
64805W        W24099  18.150  17.132   4.649
64806W        W24100  40.042  28.109   4.178
64807W        W24101  22.117  17.710   2.872
64808W        W24102  24.186  32.937   1.328
64809W        W24103  10.635   6.894  11.425
64810W        W24104  37.003  13.164  11.917
64811W        W24105   5.781  22.125  11.085
64812W        W24106  19.179  38.946   2.353
64813W        W24107  19.043  42.296   4.342
64814W        W24108  23.171  12.330  10.571
64815W        W24109   6.325  35.907   0.735
64816W        W24110  40.474  28.155  12.504
64817W        W24111  38.446  28.668  11.466
64818W        W24112   6.782  32.627   4.307
64819W        W24113  15.105   4.849  11.555
64820W        W24114  35.990   8.318  14.401
64821W        W24115   2.246  23.663   0.832
64822W        W24116  39.529  42.850   4.305
64823W        W24117   2.958  21.226  12.969
64824W        W24118   9.207  44.490   1.210
64825W        W24119  23.508  14.249   1.759
64826W        W24120   6.904  18.705  12.525
64827W        W24121  21.733  27.541   1.263
64828W        W24122  28.099   5.780  14.900
64829W        W24123  18.130  12.234  12.040
64830W        W24124  19.770  28.063   2.747
64831W        W24125  25.160  27.960  13.935
64832W        W24126  12.141  31.073   2.285
64833W        W24127   3.837   4.737   0.415
64834W        W24128   9.220  18.711   1.884
64835W        W24129  11.648   4.703   5.251
64836W        W24130  27.066  14.745  10.630
64837W        W24131  14.713   3.244   3.182
64838W        W24132  25.571  31.435  13.370
64839W        W24133  15.325  40.475   4.204
64840W        W24134  42.889  36.550   3.351
64841W        W24135   9.874  17.763  10.891
64842W        W24136   3.724  25.476   4.623
64843W        W24137  39.417  16.157   1.896
64844W        W24138  32.405  25.001   2.848
64845W        W24139  14.783  24.183  10.153
64846W        W24140   5.723  44.443   1.348
64847W        W24141  38.884  23.208  11.961
64848W        W24142  27.134   8.405   1.316
64849W        W24143  44.969   9.266  12.355
64850W        W24144  42.318  44.958   4.831
64851W        W24145  40.859  33.129   2.690
64852W        W24146  44.935  42.904  12.085
64853W        W24147  27.644  21.662  10.936
64854W        W24148   5.316   5.719  13.992
64855W        W24149  25.081  36.007   2.215
64856W        W24150  10.806  25.025   0.757
64857W        W24151  16.782  34.511  14.398
64858W        W24152  39.371  29.429   4.239
64859W        W24153  11.852  25.588   3.802
64860W        W24154  20.702  42.919  12.937
64861W        W24155   9.744  26.088   0.317
64862W        W24156   4.425  29.100   3.750
64863W        W24157   2.855  22.643   3.294
64864W        W24158  29.149  39.427   4.192
64865W        W24159  12.301   1.472   2.758
64866W        W24160  44.338  37.552  10.633
64867W        W24161  11.833  30.453   2.286
64868W        W24162  40.323   0.919   2.206
64869W        W24163  10.308   7.690  12.012
64870W        W24164  26.196   7.176   4.838
64871W        W24165  36.856   6.834   2.275
64872W        W24166  20.714  24.136   1.213
64873W        W24167  23.722   6.746  11.032
64874W        W24168  10.359  21.138   1.259
64875W        W24169   0.891  40.032   4.295
64876W        W24170   6.420  22.043   5.139
64877W        W24171  32.888   0.418   1.326
64878W        W24172  41.826  39.439   1.289
64879W        W24173  11.148   7.345   3.723
64880W        W24174  14.264   2.360   4.269
64881W        W24175  33.004   6.277  10.438
64882W        W24176  15.196  38.903   4.330
64883W        W24177  34.901  24.633  13.933
64884W        W24178  15.736   0.785   4.175
64885W        W24179  30.439  26.613  11.453
64886W        W24180   7.854   9.169   0.259
64887W        W24181  43.822  13.193   1.348
64888W        W24182  15.325  29.609  14.806
64889W        W24183  29.016  44.001   2.876
64890W        W24184  13.272   5.793  14.403
64891W        W24185   4.358  31.089   1.330
64892W        W24186   1.259  26.012  14.978
64893W        W24187   5.690  35.406   4.685
64894W        W24188  17.084  32.119   3.719
64895W        W24189   0.260  10.191  12.023
64896W        W24190  37.385   7.190   0.865
64897W        W24191  18.596  33.582   5.217
64898W        W24192  27.994  33.038   4.258
64899W        W24193  24.190   7.742  11.914
64900W        W24194  20.117   5.879   1.373
64901W        W24195  44.989   8.166   4.163
64902W        W24196  13.188  13.153   1.840
64903W        W24197  22.635  29.978   4.631
64904W        W24198  25.518  30.120  10.906
64905W        W24199   1.749  30.599  13.506
64906W        W24200  15.284  10.692  11.976
64907W        W24201  14.711   7.383   1.434
64908W        W24202  34.492   1.274   2.759
64909W        W24203   9.763  24.174  12.442
64910W        W24204  11.784   0.929  11.477
64911W        W24205  44.997  21.231   1.769
64912W        W24206  14.636   3.356   4.790
64913W        W24207  42.865  34.567  12.368
64914W        W24208  13.804  44.420   1.292
64915W        W24209  43.988  11.781   0.343
64916W        W24210  18.261  15.752   5.129
64917W        W24211  27.633  32.600  13.392
64918W        W24212   2.334   1.342   0.464
64919W        W24213  42.793  17.131   0.778
64920W        W24214  17.729  43.011   5.202
64921W        W24215  32.087   1.954  12.897
64922W        W24216   6.249  22.628   0.909
64923W        W24217  37.991  16.305  12.841
64924W        W24218  44.782  26.666   4.696
64925W        W24219   4.924  27.464  10.976
64926W        W24220   4.886   2.436   2.772
64927W        W24221  19.755  28.616   2.737
64928W        W24222  10.229  25.167  13.548
64929W        W24223  24.691  21.182   2.764
64930W        W24224  25.609   4.890  12.388
64931W        W24225  32.912  11.699  13.533
64932W        W24226  31.434  37.532   1.380
64933W        W24227  26.003  10.644   3.808
64934W        W24228  37.969  41.520  10.892
64935W        W24229  18.568   4.215  11.465
64936W        W24230   8.771   3.851   0.396
64937W        W24231   6.896  23.693  11.932
64938W        W24232  21.232   5.264  13.022
64939W        W24233  12.153  41.353  13.506
64940W        W24234   4.218  26.637  14.836
64941W        W24235  14.228  43.451   4.345
64942W        W24236  21.087  37.933   1.399
64943W        W24237   7.840  26.543  13.801
64944W        W24238  44.487  34.872  11.568
64945W        W24239  37.485  38.942   4.742
64946W        W24240  25.527  38.484   3.769
64947W        W24241  24.033  34.119  13.450
64948W        W24242  35.891   7.172  11.509
64949W        W24243  10.268  12.322   1.716
64950W        W24244  29.159   6.308  12.941
64951W        W24245  16.737  17.159  12.020
64952W        W24246   4.244   2.791   1.409
64953W        W24247   8.194  22.089  10.918
64954W        W24248   4.827   6.197  13.963
64955W        W24249   6.250  20.542  12.006
64956W        W24250  38.856   0.917   4.650
64957W        W24251  34.421   2.808   3.701
64958W        W24252  13.679  10.800  12.389
64959W        W24253   5.341   6.772   3.248
64960W        W24254  35.955   4.819   1.226
64961W        W24255  32.037  38.495  11.397
64962W        W24256  28.062  34.884  14.425
64963W        W24257  37.846   1.736  11.907
64964W        W24258  19.589   2.410  11.573
64965W        W24259  41.534   2.838  14.977
64966W        W24260   7.708  24.159  12.498
64967W        W24261  32.004   0.269   0.868
64968W        W24262  26.542  37.963  12.096
64969W        W24263  32.428  40.524   4.796
64970W        W24264   8.228  23.657  12.832
64971W        W24265  25.083  22.089   1.912
64972W        W24266  23.679  32.002  11.423
64973W        W24267  31.956   4.723   5.162
64974W        W24268  18.141  40.336   4.613
64975W        W24269  21.034   8.863  10.938
64976W        W24270  13.162  20.749   0.303
64977W        W24271  41.908  12.826   1.849
64978W        W24272  30.037  15.104  11.943
64979W        W24273   4.371  22.549   3.689
64980W        W24274  25.202   6.344   0.419
64981W        W24275  33.531  43.375   4.785
64982W        W24276   7.266  41.345  13.415
64983W        W24277  11.276  12.190  14.793
64984W        W24278  35.926  30.151   3.178
64985W        W24279  21.082   6.401  12.951
64986W        W24280  30.124  32.980  11.032
64987W        W24281  24.147  44.300   2.283
64988W        W24282  17.199  29.026   1.736
64989W        W24283  11.754  25.115  14.778
64990W        W24284   6.692   9.801  13.414
64991W        W24285   8.704  44.480  11.041
64992W        W24286  35.862  38.348   2.829
64993W        W24287   7.848  18.151  10.550
64994W        W24288   6.331  26.958  14.834
64995W        W24289   5.836   5.775   4.256
64996W        W24290  29.644  36.938  14.398
64997W        W24291   2.470  17.141  12.059
64998W        W24292  22.123  10.665  14.400
64999W        W24293  20.257  14.169   0.919
65000W        W24294   7.192  33.584  14.455
65001W        W24295  33.445  42.030  10.567
65002W        W24296  44.263  10.373  10.432
65003W        W24297   1.908   8.702  10.438
65004W        W24298  16.094  29.932   3.782
65005W        W24299  39.908   4.329   0.916
65006W        W24300  32.441   9.653  11.911
65007W        W24301   1.331  37.022   1.391
65008W        W24302  20.183  20.112   3.659
65009W        W24303  34.982  19.539   4.346
65010W        W24304  22.589  30.576   2.215
65011W        W24305   6.368  30.026  11.407
65012W        W24306  12.176  35.425  14.473
65013W        W24307   1.357  19.242   1.275
65014W        W24308   6.268  42.836   3.762
65015W        W24309  13.118  22.506   9.999
65016W        W24310  28.587  34.048   0.758
65017W        W24311  41.298  38.876   1.383
65018W        W24312  22.530  13.165   4.781
65019W        W24313  39.527   2.394  14.405
65020W        W24314  11.233  29.963  11.410
65021W        W24315  21.041  32.450  10.578
65022W        W24316  28.590  28.149  11.584
65023W        W24317  16.595   8.700  14.853
65024W        W24318  34.554   2.243  10.942
65025W        W24319  31.420  43.933   3.751
65026W        W24320   1.291  21.751   1.913
65027W        W24321   1.752   9.698  12.934
65028W        W24322  17.261   9.224  10.516
65029W        W24323  44.344   1.320   9.921
65030W        W24324  28.608  28.556   2.335
65031W        W24325  13.722  43.926  14.027
65032W        W24326  24.185  25.089   2.780
65033W        W24327  35.947  41.530   0.293
65034W        W24328  22.609  10.299  14.281
65035W        W24329  11.358  35.485  11.509
65036W        W24330   5.786  43.359   2.313
65037W        W24331  11.658  17.248  11.029
65038W        W24332  38.387  28.511   0.788
65039W        W24333  43.997  26.980   0.283
65040W        W24334   8.393   2.945   0.747
65041W        W24335  21.581  15.636   0.377
65042W        W24336  29.963  31.606  13.854
65043W        W24337   8.337  28.117  13.901
65044W        W24338  15.727  25.045  13.802
65045W        W24339  36.402  25.712  10.967
65046W        W24340  14.209   9.337  11.923
65047W        W24341  28.644  24.484   0.745
65048W        W24342   6.400  22.723   2.346
65049W        W24343  16.205  18.077  12.063
65050W        W24344  27.573  13.159  13.351
65051W        W24345  15.152  31.943  13.489
65052W        W24346  20.225  11.656   4.132
65053W        W24347  34.591  34.565  10.109
65054W        W24348  11.142   0.811  14.827
65055W        W24349   6.752  14.333   1.802
65056W        W24350  37.546  36.390  12.031
65057W        W24351  27.974   6.747   0.339
65058W        W24352  41.794  22.738   3.344
65059W        W24353  33.997  15.088  10.895
65060W        W24354  37.347  13.247   2.268
65061W        W24355  15.647   2.300  14.779
65062W        W24356  31.939  40.504  10.570
65063W        W24357  34.586  17.069   4.302
65064W        W24358  39.547  41.803   2.362
65065W        W24359  37.876  30.110  13.905
65066W        W24360  27.997   7.789  11.958
65067W        W24361  40.953  16.219  13.466
65068W        W24362  12.145  21.611   1.756
65069W        W24363   8.849   8.888   3.635
65070W        W24364  29.531  13.718   3.830
65071W        W24365   7.174  32.415  13.491
65072W        W24366  13.170  24.697   4.280
65073W        W24367  36.457  21.555   3.684
65074W        W24368  34.407   4.798  11.398
65075W        W24369   6.809  15.751  11.974
65076W        W24370   2.829  35.990   3.294
65077W        W24371  43.927  20.095  11.103
65078W        W24372  36.946  22.021   0.438
65079W        W24373  38.369  21.712   2.889
65080W        W24374   3.716  33.911   4.773
65081W        W24375  41.419  26.506   5.224
65082W        W24376  17.299  42.807   9.929
65083W        W24377   1.889  30.134  11.946
65084W        W24378   9.297  18.256  13.913
65085W        W24379  12.242  16.618   0.895
65086W        W24380  33.900  20.728  14.407
65087W        W24381  17.735  31.901  14.373
65088W        W24382  10.243  44.776   4.215
65089W        W24383   2.903  11.177  14.484
65090W        W24384   5.279  20.110  14.793
65091W        W24385  24.044   8.388   2.192
65092W        W24386   1.302  33.545   0.281
65093W        W24387   7.370  28.102   2.384
65094W        W24388  40.335  11.640  12.439
65095W        W24389  19.770  24.171  12.996
65096W        W24390  40.956  34.045  13.375
65097W        W24391  20.568   1.343   2.282
65098W        W24392  14.595   3.368   3.643
65099W        W24393  27.490  26.679   4.599
65100W        W24394  21.099  28.496   2.784
65101W        W24395   3.342  34.930   0.258
65102W        W24396   2.828  15.631   1.347
65103W        W24397  20.544  26.564  12.842
65104W        W24398  22.734  22.515  13.484
65105W        W24399  38.832   8.675   0.425
65106W        W24400  20.652  40.021  11.888
65107W        W24401  27.675  13.278   2.824
65108W        W24402  44.921  38.889  10.119
65109W        W24403  26.147  30.998  10.493
65110W        W24404  15.199  25.499   4.828
65111W        W24405   5.805  37.913  10.907
65112W        W24406  22.573  20.170  10.992
65113W        W24407  34.100  30.082  12.396
65114W        W24408  32.989  36.559  11.075
65115W        W24409  15.197  42.952   3.353
65116W        W24410   1.883   0.283   4.243
65117W        W24411  34.523  18.636  14.943
65118W        W24412  18.286  35.076   3.748
65119W        W24413  17.170  40.393   4.837
65120W        W24414  21.213  37.522  12.506
65121W        W24415  10.818  16.084  14.347
65122W        W24416  10.224  29.053   3.249
65123W        W24417  15.705  42.876   2.350
65124W        W24418  11.632   2.324   1.393
65125W        W24419  22.020   0.274   1.713
65126W        W24420  28.114  44.775  13.468
65127W        W24421   6.236  24.719  14.798
65128W        W24422  10.868  18.760   0.356
65129W        W24423  24.506   2.445  13.935
65130W        W24424  39.039  30.928  13.881
65131W        W24425  40.322  31.017  11.484
65132W        W24426  18.252  35.597  12.008
65133W        W24427  10.755  27.679  10.595
65134W        W24428   3.894  25.547   2.665
65135W        W24429  29.946  17.247  12.469
65136W        W24430  44.328  44.980  12.002
65137W        W24431  36.579  31.119  13.510
65138W        W24432  19.588  38.436   1.253
65139W        W24433  26.524  35.056  12.995
65140W        W24434  21.742  31.506  14.852
65141W        W24435  11.721  41.941  14.978
65142W        W24436  42.911  18.106  12.938
65143W        W24437  17.216  26.695  11.063
65144W        W24438  42.504  32.585   3.639
65145W        W24439   6.227  37.876   1.355
65146W        W24440  37.991  19.236  14.375
65147W        W24441  29.650  24.516   1.864
65148W        W24442  38.963   1.737  11.488
65149W        W24443  42.414  27.057   2.725
65150W        W24444  31.478  36.945  12.927
65151W        W24445   3.433  23.211   3.297
65152W        W24446  10.874   4.373   4.728
65153W        W24447  41.807  28.104  14.858
65154W        W24448  26.193  19.764   3.700
65155W        W24449  17.652  37.507  12.023
65156W        W24450   5.234  42.416   0.904
65157W        W24451  27.082  19.766  14.320
65158W        W24452  19.557  18.296  14.340
65159W        W24453  14.766   9.663  10.108
65160W        W24454  25.657  26.076  10.466
65161W        W24455  17.760   5.351  14.902
65162W        W24456  35.956  12.152   2.372
65163W        W24457  18.664  26.652  12.959
65164W        W24458  43.400  41.858   2.878
65165W        W24459  24.504   0.882  14.425
65166W        W24460  23.670  20.567   4.651
65167W        W24461  29.523   9.700  13.971
65168W        W24462  37.408  11.822   4.316
65169W        W24463   7.203  30.130   2.340
65170W        W24464  27.685  32.412  14.515
65171W        W24465  28.099  22.691  10.492
65172W        W24466  40.987   5.244  13.532
65173W        W24467  18.610  30.965  14.812
65174W        W24468  35.366  23.702   0.743
65175W        W24469  29.067  17.716  12.088
65176W        W24470  22.223  32.580  13.505
65177W        W24471  13.300  40.374   0.392
65178W        W24472   8.216  30.019  10.991
65179W        W24473   1.879  26.559   1.699
65180W        W24474  31.004   3.303   2.825
65181W        W24475  14.675  12.169  12.935
65182W        W24476  11.780  41.835  13.867
65183W        W24477  30.142  42.923  10.895
65184W        W24478   0.744  10.368   3.688
65185W        W24479  17.257  41.527   4.126
65186W        W24480  38.005  39.834  12.426
65187W        W24481   1.477  17.575  11.605
65188W        W24482  42.518  10.183  14.014
65189W        W24483  30.938  10.146  11.531
65190W        W24484   1.811   6.250  11.971
65191W        W24485  43.348  15.752   4.139
65192W        W24486  28.548  10.803  13.533
65193W        W24487  15.297  28.659  10.545
65194W        W24488   8.734  32.478   0.374
65195W        W24489  33.936  40.968   3.809
65196W        W24490  43.498  37.479   3.264
65197W        W24491  40.023  17.261   0.314
65198W        W24492  31.495   0.977   4.686
65199W        W24493  41.795  32.390  13.057
65200W        W24494   5.290  39.865   0.748
65201W        W24495  10.171  43.436  10.481
65202W        W24496  35.513   9.169   1.379
65203W        W24497  44.434   5.407   2.899
65204W        W24498  23.237   3.337   1.360
65205W        W24499  25.503   0.930   1.225
65206W        W24500  37.901  12.332  11.506
65207W        W24501  36.979  25.697  13.392
65208W        W24502  27.043  44.479  11.606
65209W        W24503  13.177  14.594   3.367
65210W        W24504  16.725  20.185  11.471
65211W        W24505  13.795   9.855   4.184
65212W        W24506  33.423  30.946   2.195
65213W        W24507   9.769  25.600  12.417
65214W        W24508  43.499  18.283   2.846
65215W        W24509  44.791  44.972   2.244
65216W        W24510  17.205  17.200  11.587
65217W        W24511  18.264  21.041   5.257
65218W        W24512  34.970   0.404   1.864
65219W        W24513  43.888  22.015   4.158
65220W        W24514  18.088  32.548  11.524
65221W        W24515  33.402  42.932   3.814
65222W        W24516  32.405  19.658  14.861
65223W        W24517  18.782  16.657  11.997
65224W        W24518  43.398  42.810   1.288
65225W        W24519   7.224  21.755   2.900
65226W        W24520  27.049  16.638  12.485
65227W        W24521  20.643   1.292   4.681
65228W        W24522  28.488  42.984  13.415
65229W        W24523   4.448   1.445  12.992
65230W        W24524  15.702  12.746   4.703
65231W        W24525   5.801  39.916   4.172
65232W        W24526  18.660  32.499   2.770
65233W        W24527  16.084   8.399  13.449
65234W        W24528   8.250  13.705   0.409
65235W        W24529  28.995  24.607   4.251
65236W        W24530   2.786  33.415   0.479
65237W        W24531  18.074  34.569  11.041
65238W        W24532  23.580  24.687  11.052
65239W        W24533   7.226  34.451   0.774
65240W        W24534  39.871  14.209   2.899
65241W        W24535  23.125  44.810   3.820
65242W        W24536  16.732  27.504   1.434
65243W        W24537  42.380   4.216  13.373
65244W        W24538  37.082  32.140  12.564
65245W        W24539  24.058  19.668  10.629
65246W        W24540  25.062  35.378   0.448
65247W        W24541  41.366  43.456   1.842
65248W        W24542  39.000   7.221   1.257
65249W        W24543  38.390  38.845   2.222
65250W        W24544  36.005  37.569   3.843
65251W        W24545  28.467   4.825   3.774
65252W        W24546  32.998  22.676  12.948
65253W        W24547  37.908  19.543   1.323
65254W        W24548  28.931  14.121  10.419
65255W        W24549   3.748  11.633  12.363
65256W        W24550  14.589  19.560   4.162
65257W        W24551  34.565  16.135   4.299
65258W        W24552  31.130  16.718   0.941
65259W        W24553  10.835   1.241   4.700
65260W        W24554  10.282  28.602   2.378
65261W        W24555   8.665   9.842  10.890
65262W        W24556   1.401  28.065   2.330
65263W        W24557  26.151  36.387   4.799
65264W        W24558  39.822  23.618  11.933
65265W        W24559  42.509  19.701   4.776
65266W        W24560  40.529   9.791  12.893
65267W        W24561  19.117  20.615   9.498
65268W        W24562  36.524  18.271  14.908
65269W        W24563  26.021   6.207   2.818
65270W        W24564  29.472  17.789  13.875
65271W        W24565  27.142  38.362  13.341
65272W        W24566  15.180  17.245  13.031
65273W        W24567   5.299  39.876   4.778
65274W        W24568  44.940   0.475   9.491
65275W        W24569  14.615  10.722   5.091
65276W        W24570  19.653  34.942   1.310
65277W        W24571  11.180  30.079   1.332
65278W        W24572  26.553  43.016   9.920
65279W        W24573  16.304   1.968   0.292
65280W        W24574  25.062  21.698   3.773
65281W        W24575   2.417  34.064   2.865
65282W        W24576   1.867  12.142   3.679
65283W        W24577  16.778  12.188  13.909
65284W        W24578  31.570  24.118   0.396
65285W        W24579  38.926   7.833   0.898
65286W        W24580  22.559  44.453   5.186
65287W        W24581  29.071   0.291  12.097
65288W        W24582  42.823  12.160   2.384
65289W        W24583  32.538  11.764   1.256
65290W        W24584  40.999  34.963  11.912
65291W        W24585  22.206  21.649   4.213
65292W        W24586  38.452  39.317   0.410
65293W        W24587   8.754   9.704   3.841
65294W        W24588  37.424   2.298   2.243
65295W        W24589   2.856  11.178   4.279
65296W        W24590  41.466  38.395  10.431
65297W        W24591  12.676  14.333  11.533
65298W        W24592  34.378  37.941  14.402
65299W        W24593  23.209  42.786   4.316
65300W        W24594  22.548  28.453   1.782
65301W        W24595   0.809  36.411   0.378
65302W        W24596   2.427   9.658  11.597
65303W        W24597  17.772   0.475   0.914
65304W        W24598   5.808  25.056  14.329
65305W        W24599  36.861  12.680   3.327
65306W        W24600  27.163  15.172   1.788
65307W        W24601  43.324  44.801   4.319
65308W        W24602  42.933   4.302   0.856
65309W        W24603  43.811  36.561  11.920
65310W        W24604  22.050   9.341  12.849
65311W        W24605  43.831  30.418  12.532
65312W        W24606  41.430  32.074   5.195
65313W        W24607   2.463  30.129   3.387
65314W        W24608  16.262  35.571   3.331
65315W        W24609  11.273   6.270   1.278
65316W        W24610  30.956  14.152   2.743
65317W        W24611  11.312  44.781   3.216
65318W        W24612  22.548   6.852   3.263
65319W        W24613  29.105  16.080   1.873
65320W        W24614  13.826   7.817  11.895
65321W        W24615   9.726  30.545  13.422
65322W        W24616  27.479  37.969   2.326
65323W        W24617  10.153  21.557  13.823
65324W        W24618  21.729  16.231  14.350
65325W        W24619  18.658  26.683   3.155
65326W        W24620  22.169  30.518  11.955
65327W        W24621  39.021  12.223   3.750
65328W        W24622   3.275  28.982  13.529
65329W        W24623  22.060   4.444  14.857
65330W        W24624   5.312  18.734   1.909
65331W        W24625  44.917  37.077   1.328
65332W        W24626   1.342  11.693   3.822
65333W        W24627   4.391  39.991  11.489
65334W        W24628   3.844  11.310   3.839
65335W        W24629  29.572  30.510  13.052
65336W        W24630  22.515  25.685   4.812
65337W        W24631  35.096  27.656   0.353
65338W        W24632  35.069   1.914  14.406
65339W        W24633  32.414  31.429  14.356
65340W        W24634   4.806   4.430  12.485
65341W        W24635  15.698  18.576   2.386
65342W        W24636  33.503  27.560  14.395
65343W        W24637  12.267  20.555   4.636
65344W        W24638  19.194  20.162   1.824
65345W        W24639  23.581  32.052  14.865
65346W        W24640  37.865   4.349   0.347
65347W        W24641  43.481  32.052   4.139
65348W        W24642  10.787   1.831  10.464
65349W        W24643  35.062  12.125   3.310
65350W        W24644  28.530  11.689   4.615
65351W        W24645  29.493  10.728  10.940
65352W        W24646  28.029  21.245  11.107
65353W        W24647  20.088  23.625  11.058
65354W        W24648  21.216  40.484  11.906
65355W        W24649  29.643   5.309   4.289
65356W        W24650  14.766  38.075   1.795
65357W        W24651  30.508   3.276  13.335
65358W        W24652  12.120   9.246  12.880
65359W        W24653   0.394   2.741   1.769
65360W        W24654  16.712  14.713  10.448
65361W        W24655  35.060  30.431  10.636
65362W        W24656  31.427  18.755  12.513
65363W        W24657  40.001  36.887  12.470
65364W        W24658  20.567  16.682   2.225
65365W        W24659  16.726  37.883   2.740
65366W        W24660  37.410  29.427  14.008
65367W        W24661  12.731  37.455   3.679
65368W        W24662  33.087   6.736   3.193
65369W        W24663  13.200  21.516  12.458
65370W        W24664   2.849  40.999   2.399
65371W        W24665  18.107  32.419  13.332
65372W        W24666  30.488   4.823   0.787
65373W        W24667  40.408  25.109   1.300
65374W        W24668   2.377  15.708  13.382
65375W        W24669  15.781  28.070  13.982
65376W        W24670  14.135  27.618   4.221
65377W        W24671  37.355  26.666   0.787
65378W        W24672  18.675   7.180   3.754
65379W        W24673   0.388   1.760   0.350
65380W        W24674  30.970  22.064   1.230
65381W        W24675  28.141  24.149   2.370
65382W        W24676  37.893  31.031  10.980
65383W        W24677  44.998  16.726  12.352
65384W        W24678   8.366  13.122   4.195
65385W        W24679   1.375   6.353  14.949
65386W        W24680   2.793  13.106  11.493
65387W        W24681  33.894  37.898   0.776
65388W        W24682   0.755  22.192  11.074
65389W        W24683  12.795  33.451   4.787
65390W        W24684  25.508  24.508  10.923
65391W        W24685  22.723   6.748   2.722
65392W        W24686  36.366   8.793  11.526
65393W        W24687   2.901  18.098   1.840
65394W        W24688  31.010   2.314  12.883
65395W        W24689  11.794  26.503   5.290
65396W        W24690  23.021  33.875  14.335
65397W        W24691   0.338  11.349   1.441
65398W        W24692  39.958  27.645  12.432
65399W        W24693   6.752  17.293   1.756
65400W        W24694  16.651  32.415  11.046
65401W        W24695  34.089  42.809  10.536
65402W        W24696  38.533  38.335  11.084
65403W        W24697   8.791   9.298   2.416
65404W        W24698  14.614   7.271   5.088
65405W        W24699  18.695   7.689   3.735
65406W        W24700  32.931  41.302   0.938
65407W        W24701   2.867  38.551   0.911
65408W        W24702  12.332  32.002   5.087
65409W        W24703   2.402  21.740  14.923
65410W        W24704  19.744   6.809   2.325
65411W        W24705  33.014   7.383   1.227
65412W        W24706   1.856  42.007  14.953
65413W        W24707  30.950  25.706   3.179
65414W        W24708  37.062  19.714   3.286
65415W        W24709  10.656   8.707   0.893
65416W        W24710   0.492  26.640  10.497
65417W        W24711  22.141  29.476  12.368
65418W        W24712  43.836  43.896   9.531
65419W        W24713  10.820  27.152  13.938
65420W        W24714  26.543  25.563  12.859
65421W        W24715   2.349   1.403  12.573
65422W        W24716  21.039  44.364  14.830
65423W        W24717  22.526  14.138  10.972
65424W        W24718  34.895  28.079   4.125
65425W        W24719   2.909  15.320  12.342
65426W        W24720  41.911  15.697  14.460
65427W        W24721  37.579   1.448   1.269
65428W        W24722  23.698  20.552   4.319
65429W        W24723  24.129  31.471   0.884
65430W        W24724  26.652  20.150   4.344
65431W        W24725  37.933  24.588  14.863
65432W        W24726  42.502  10.756   1.810
65433W        W24727  20.566  27.159  10.527
65434W        W24728  32.621   6.227  14.029
65435W        W24729  13.228  25.508  14.483
65436W        W24730  11.861   9.302  13.882
65437W        W24731  36.893  15.582   3.280
65438W        W24732   6.250  29.125  13.968
65439W        W24733  23.200  43.421  10.977
65440W        W24734  35.943  42.354  11.400
65441W        W24735  18.266   0.902   3.289
65442W        W24736  36.533   3.810   3.305
65443W        W24737  44.856  12.208   2.888
65444W        W24738  37.573   1.970   3.318
65445W        W24739  24.199   9.816   5.232
65446W        W24740  30.064  43.435   2.835
65447W        W24741  42.476   2.378  13.010
65448W        W24742  38.907   3.939  11.123
65449W        W24743  11.184   3.401   3.782
65450W        W24744  17.665  23.992   1.750
65451W        W24745  18.181  20.157   0.930
65452W        W24746  22.569  10.853   3.729
65453W        W24747  27.483  22.619  14.866
65454W        W24748  31.483  37.904   2.255
65455W        W24749  21.024  27.940  14.415
65456W        W24750  33.052   7.184  10.494
65457W        W24751   6.707  29.956   4.221
65458W        W24752  44.840  27.983   2.211
65459W        W24753  25.977  28.012  13.321
65460W        W24754   0.385  37.987  10.964
65461W        W24755   9.373  40.944  12.089
65462W        W24756   6.256  37.371   2.390
65463W        W24757  36.386  30.536  11.014
65464W        W24758  35.858  26.984  13.931
65465W        W24759  44.460  17.209   4.624
65466W        W24760  12.180  12.767   3.746
65467W        W24761   0.404   4.891   2.183
65468W        W24762  43.460  10.766  10.421
65469W        W24763  43.964  43.339   2.898
65470W        W24764  20.174  25.543   2.337
65471W        W24765  28.094   5.288   1.881
65472W        W24766  36.421  27.043   4.333
65473W        W24767  38.928   6.379  12.880
65474W        W24768  36.460  41.825  10.619
65475W        W24769  17.173  44.983  12.384
65476W        W24770  23.536  12.324   9.440
65477W        W24771   4.346  12.281   4.780
65478W        W24772   4.378  17.674  13.064
65479W        W24773  27.642  31.598  14.910
65480W        W24774  24.575   9.385   3.860
65481W        W24775  34.892  25.122  14.437
65482W        W24776  35.938   7.200  14.318
65483W        W24777  38.031  20.071   0.286
65484W        W24778  19.537  20.185  13.518
65485W        W24779  32.057  30.953  11.961
65486W        W24780   6.251  14.817  11.439
65487W        W24781  34.523  25.983  12.990
65488W        W24782   4.361  13.751   1.812
65489W        W24783  23.221  32.984   4.753
65490W        W24784  26.519  25.614  10.495
65491W        W24785   0.987  21.077  12.910
65492W        W24786  32.126  26.104   0.401
65493W        W24787  13.342   1.799   0.453
65494W        W24788  23.523  20.053   0.939
65495W        W24789   3.228  39.003   5.211
65496W        W24790  37.954  32.129  13.931
65497W        W24791   8.802  32.410  13.346
65498W        W24792  33.480   0.783  10.481
65499W        W24793  30.431  33.401   3.297
65500W        W24794  17.802  23.167   4.826
65501W        W24795   7.711  25.114  11.553
65502W        W24796  38.981  18.081  11.128
65503W        W24797  14.834   3.884   2.217
65504W        W24798   0.945  16.736  14.019
65505W        W24799  14.712  40.935   1.767
65506W        W24800  10.654  42.789   1.694
65507W        W24801  15.648   7.763  12.838
65508W        W24802  16.191  29.949   2.330
65509W        W24803  39.393  44.498   3.716
65510W        W24804  24.578  42.383   3.836
65511W        W24805  41.924  30.416  10.077
65512W        W24806  26.610  18.082  12.463
65513W        W24807  33.399   3.711   4.232
65514W        W24808   5.194  18.723  13.903
65515W        W24809  42.806  24.071  13.001
65516W        W24810  29.107   4.767   3.185
65517W        W24811  41.340  43.878  12.999
65518W        W24812   6.396   5.733  13.351
65519W        W24813   0.255  44.499   0.885
65520W        W24814  23.225  36.902  11.991
65521W        W24815  25.057  27.485   3.719
65522W        W24816  20.131  21.182  10.608
65523W        W24817  33.466  13.205  13.339
65524W        W24818  13.744  19.547  12.439
65525W        W24819  44.302  21.182   1.231
65526W        W24820   2.270  32.046   1.893
65527W        W24821  42.866  25.553   3.776
65528W        W24822   0.839  34.470  12.843
65529W        W24823  17.257  27.991  11.419
65530W        W24824  25.000  20.171   4.706
65531W        W24825  30.055   1.814   0.741
65532W        W24826  24.607  37.351  14.868
65533W        W24827  21.071   8.675  14.832
65534W        W24828  13.715   7.828  14.359
65535W        W24829  31.640  16.220   0.340
65536W        W24830   8.793  21.535  13.376
65537W        W24831  18.066  11.251  10.954
65538W        W24832  15.680   9.691  12.929
65539W        W24833  44.340  29.426  11.914
65540W        W24834   1.747  20.068  13.983
65541W        W24835  39.420  29.927  12.919
65542W        W24836  19.046  33.940  10.549
65543W        W24837   1.403  41.835   2.254
65544W        W24838  22.744  24.570  14.430
65545W        W24839  27.627  16.670  11.967
65546W        W24840  11.693  30.974   3.189
65547W        W24841   2.728  23.082   0.258
65548W        W24842  31.099   1.291  12.549
65549W        W24843  19.104  28.499  10.451
65550W        W24844  29.036  13.204  13.313
65551W        W24845  28.599  32.576   0.833
65552W        W24846  12.248  37.433  13.405
65553W        W24847  23.999   1.800  14.962
65554W        W24848   5.432   9.367   1.875
65555W        W24849   5.703  27.001   0.444
65556W        W24850  32.430  44.383   1.892
65557W        W24851   6.703   7.823   0.867
65558W        W24852   8.669  18.733  12.884
65559W        W24853   0.455  19.535  13.496
65560W        W24854  44.985  41.865   1.841
65561W        W24855   6.237  34.546  11.861
65562W        W24856  40.828  26.505   3.767
65563W        W24857  11.706  25.210  12.835
65564W        W24858   5.270  31.036  14.329
65565W        W24859  31.054  18.789  12.963
65566W        W24860   5.205  22.108  12.426
65567W        W24861  34.952  27.023  14.418
65568W        W24862   6.204  43.299  11.036
65569W        W24863  17.680  14.799   0.948
65570W        W24864   6.290   9.797   4.128
65571W        W24865  17.798  31.593  12.492
65572W        W24866  30.922  10.185  10.022
65573W        W24867   8.891   1.307   0.435
65574W        W24868  11.758   0.385  10.021
65575W        W24869  43.808  21.232   9.933
65576W        W24870   6.195  41.008   9.975
65577W        W24871  27.584  21.240  14.377
65578W        W24872  39.855  21.124   3.672
65579W        W24873  20.146  40.497   0.870
65580W        W24874  37.902   3.299  12.917
65581W        W24875  32.498  30.566  10.922
65582W        W24876   3.732   2.930  11.455
65583W        W24877  30.100  11.780  14.362
65584W        W24878  42.858  18.603  13.431
65585W        W24879  22.566   1.762  10.586
65586W        W24880   1.248  17.556   2.408
65587W        W24881  27.951  28.447   3.253
65588W        W24882  11.683  20.182  10.985
65589W        W24883   7.391   6.361  12.959
65590W        W24884  16.077  21.114   1.253
65591W        W24885   5.745   3.853  14.809
65592W        W24886  30.989  27.090  13.392
65593W        W24887  42.406   6.912   2.897
65594W        W24888  22.206  18.105   3.734
65595W        W24889   6.292  35.393  10.581
65596W        W24890  17.800   8.862  11.017
65597W        W24891  12.815  31.920   3.699
65598W        W24892  35.994  12.644  11.890
65599W        W24893  31.134  14.312  12.084
65600W        W24894  31.988   4.348   0.281
65601W        W24895   1.918  28.638   0.751
65602W        W24896   7.878  29.048   2.419
65603W        W24897  23.178  38.037   3.383
65604W        W24898   6.197   9.167   2.756
65605W        W24899  26.951   8.706  11.127
65606W        W24900  35.034  19.561   1.299
65607W        W24901  41.880   4.784  10.500
65608W        W24902   2.433   2.392   2.691
65609W        W24903  16.720  17.298   4.823
65610W        W24904  41.391  34.426   0.480
65611W        W24905  42.399   7.888   1.232
65612W        W24906   7.720  14.776  12.892
65613W        W24907   7.669   4.356   1.794
65614W        W24908  24.029  12.837  13.894
65615W        W24909  35.509  13.251  14.484
65616W        W24910  17.669  11.342  14.956
65617W        W24911  44.840  13.295   1.862
65618W        W24912  15.117  19.611   0.440
65619W        W24913  35.409  25.607   2.401
65620W        W24914  37.461  10.698   0.907
65621W        W24915  28.087   6.744  11.547
65622W        W24916   1.881   4.378   4.299
65623W        W24917  31.432  24.525   4.801
65624W        W24918  44.827  37.030   3.372
65625W        W24919  27.558  10.867   0.410
65626W        W24920  21.728   1.855   3.270
65627W        W24921  18.111  22.681   1.824
65628W        W24922  44.939  17.681   3.339
65629W        W24923  42.916   5.766  11.122
65630W        W24924  17.150  16.231   5.081
65631W        W24925  36.892  27.191   4.311
65632W        W24926   7.789   0.379  13.350
65633W        W24927  21.082   4.815  11.109
65634W        W24928  29.497  14.170   1.854
65635W        W24929  38.514   7.212  10.644
65636W        W24930  36.050  13.165   1.849
65637W        W24931  12.728  24.672   4.345
65638W        W24932  20.647  12.846  14.946
65639W        W24933  44.901  24.549   1.394
65640W        W24934   5.401  14.784  13.331
65641W        W24935  37.519  43.382   2.273
65642W        W24936  11.834   0.320  12.427
65643W        W24937  24.525  34.881   2.278
65644W        W24938  23.079  17.759  11.452
65645W        W24939  33.437  28.164   5.318
65646W        W24940  32.424  28.456  14.354
65647W        W24941  30.592  32.583   3.312
65648W        W24942  37.069  35.536   2.230
65649W        W24943  29.663  33.117   3.325
65650W        W24944  30.941  43.356  14.794
65651W        W24945  24.496   1.892  14.416
65652W        W24946   5.813  41.970  10.501
65653W        W24947  30.022  39.465   2.286
65654W        W24948  24.188  30.619   3.310
65655W        W24949  22.230  32.056   2.853
65656W        W24950  32.567   0.428  14.945
65657W        W24951   3.749  39.338   3.218
65658W        W24952  42.499  41.928   1.386
65659W        W24953  13.170  18.256  13.319
65660W        W24954  11.292  31.554   3.660
65661W        W24955  38.916  21.576  14.509
65662W        W24956   7.416  41.022   1.815
65663W        W24957  27.616  22.690   3.218
65664W        W24958  20.690  27.590  14.455
65665W        W24959  28.123   3.921   0.910
65666W        W24960  18.099  18.656  13.514
65667W        W24961   6.705   2.365   0.855
65668W        W24962   7.690  28.645   0.839
65669W        W24963  34.594  13.226  10.478
65670W        W24964  10.762  40.513  12.560
65671W        W24965  30.596   5.402   0.435
65672W        W24966  21.647  23.008   1.377
65673W        W24967  21.556  35.594  14.352
65674W        W24968  20.102  23.208  11.543
65675W        W24969  42.882  33.492  11.434
65676W        W24970  17.262   8.394  14.410
65677W        W24971  28.454  15.578  10.911
65678W        W24972  14.208  38.030   2.751
65679W        W24973  31.092   7.390  11.569
65680W        W24974  23.191  35.041   4.630
65681W        W24975  24.046   5.808   4.156
65682W        W24976  37.030  37.991   3.193
65683W        W24977  34.091  32.065  10.581
65684W        W24978  20.598  12.301   1.806
65685W        W24979  30.123   1.298   3.784
65686W        W24980  23.694  21.071  11.444
65687W        W24981  14.727  39.401   1.870
65688W        W24982   1.766  40.956  14.766
65689W        W24983  10.679  35.857   1.450
65690W        W24984  12.793   0.414   3.719
65691W        W24985  26.465  35.575   2.279
65692W        W24986  29.046  28.606  14.416
65693W        W24987  13.607  22.590  13.498
65694W        W24988   1.251   5.395   0.965
65695W        W24989   7.826   6.719  11.483
65696W        W24990   2.830  16.171   3.240
65697W        W24991  25.680  33.020   0.412
65698W        W24992  18.224  10.646   4.797
65699W        W24993  43.416   6.723  12.365
65700W        W24994  18.729  29.563  11.505
65701W        W24995   4.298   7.325   2.814
65702W        W24996  37.885  38.497   0.842
65703W        W24997  35.421  20.553  11.103
65704W        W24998  38.522  30.503  13.987
65705W        W24999  30.479  32.890   0.369
65706W        W25000  25.589  25.713   2.191
65707W        W25001   3.914  14.330  13.918
65708W        W25002  36.400  11.200  11.566
65709W        W25003   8.211  10.201   3.769
65710W        W25004  40.481  22.589  10.907
65711W        W25005  14.221  37.069  11.530
65712W        W25006   8.351   4.212   5.158
65713W        W25007  10.829  26.659  12.423
65714W        W25008  18.772  31.981  10.486
65715W        W25009  35.075  35.541  14.296
65716W        W25010  38.498  13.212  14.773
65717W        W25011  17.168   7.830   3.379
65718W        W25012  44.259   3.755  12.057
65719W        W25013  25.125   3.373  13.409
65720W        W25014  40.852  15.180   3.334
65721W        W25015  33.458   5.849  10.588
65722W        W25016  40.485   6.823   2.315
65723W        W25017  17.242  11.315  10.605
65724W        W25018   6.724   3.230   1.831
65725W        W25019  34.477  24.601   4.336
65726W        W25020  15.639  39.006   4.658
65727W        W25021  30.520  37.884   4.768
65728W        W25022   4.722   4.342  14.818
65729W        W25023   0.849  37.416   1.428
65730W        W25024  18.703  27.584   3.681
65731W        W25025  29.161  30.076  11.457
65732W        W25026  38.389   7.349   3.326
65733W        W25027  28.442  29.949   3.246
65734W        W25028  15.748   2.462   1.705
65735W        W25029  22.095   9.674   1.849
65736W        W25030  37.026  40.431  12.876
65737W        W25031  40.957   4.387   4.666
65738W        W25032   6.910  16.316  14.009
65739W        W25033  20.632  26.953  14.335
65740W        W25034  31.487  41.837  14.789
65741W        W25035  36.071  30.911   2.309
65742W        W25036  32.995  22.723  10.931
65743W        W25037  42.463  18.105  11.924
65744W        W25038  17.767   3.878  14.454
65745W        W25039  42.346  34.454  14.384
65746W        W25040  12.203  26.531   1.775
65747W        W25041  35.528  34.912   1.898
65748W        W25042  33.898  28.610   3.753
65749W        W25043  22.514  17.110   2.831
65750W        W25044  12.844  35.517  13.972
65751W        W25045  30.628  22.063  10.920
65752W        W25046  19.261  13.753   1.844
65753W        W25047   5.837  30.091  12.563
65754W        W25048  39.964  27.147   3.787
65755W        W25049  25.596  17.296   0.404
65756W        W25050  24.610  30.599   0.376
65757W        W25051  33.977  22.011  14.313
65758W        W25052  12.733   7.817  14.924
65759W        W25053   6.894   1.321  13.885
65760W        W25054  36.409   1.920   2.205
65761W        W25055  15.327  42.469   3.385
65762W        W25056  24.004  32.622  13.801
65763W        W25057  36.004  39.513  13.035
65764W        W25058  15.261  32.557  12.006
65765W        W25059  31.566  44.375  12.376
65766W        W25060  27.094  30.565   0.326
65767W        W25061  34.109  18.583  12.519
65768W        W25062   6.260  30.925   2.885
65769W        W25063  26.081  28.489   4.632
65770W        W25064  29.604  25.637   3.663
65771W        W25065  26.058  43.413  13.883
65772W        W25066  27.081   1.743   2.358
65773W        W25067  34.528  38.328  12.063
65774W        W25068  40.549  26.598  10.543
65775W        W25069  25.588   5.823   2.229
65776W        W25070   5.214  22.595  12.942
65777W        W25071  32.594  25.977  10.621
65778W        W25072   8.691  29.986   1.716
65779W        W25073  25.545  19.661   0.766
65780W        W25074  37.045  27.168  13.004
65781W        W25075  33.521  14.228  13.369
65782W        W25076  22.509  24.656   4.252
65783W        W25077  10.189  13.845   3.229
65784W        W25078  12.781  14.307   1.379
65785W        W25079  39.534  17.264   2.249
65786W        W25080   6.698  29.578   3.213
65787W        W25081  20.688  31.443  13.473
65788W        W25082  33.989  19.073   3.734
65789W        W25083  24.211  23.652   3.723
65790W        W25084   7.365  44.431   4.292
65791W        W25085   1.286   2.966   0.906
65792W        W25086  23.510   4.420   2.674
65793W        W25087  36.574  11.161  13.415
65794W        W25088  17.284  36.069   2.702
65795W        W25089   1.757  30.123   3.376
65796W        W25090  20.595   5.913   4.114
65797W        W25091   3.927   1.860   0.339
65798W        W25092  17.675   7.183  12.570
65799W        W25093  44.873  31.003   3.305
65800W        W25094  14.211  37.570  14.802
65801W        W25095  11.317   5.916  10.625
65802W        W25096   6.837   2.243  13.973
65803W        W25097  39.894   5.835  13.914
65804W        W25098  16.135   2.352   2.829
65805W        W25099  26.985  13.763   4.650
65806W        W25100   8.354  17.271   2.888
65807W        W25101  13.121  27.005  12.042
65808W        W25102  32.129  14.593   4.267
65809W        W25103  21.705  30.915  12.553
65810W        W25104   7.398  28.977  14.017
65811W        W25105  16.667   3.450  14.935
65812W        W25106   7.269  23.708  10.916
65813W        W25107  33.883  40.862   0.472
65814W        W25108   4.901  43.949  10.485
65815W        W25109  16.607  23.517   4.714
65816W        W25110  34.526  10.844  11.867
65817W        W25111   4.334  38.006  14.340
65818W        W25112  39.501  17.109   0.768
65819W        W25113  26.992  24.610  12.469
65820W        W25114  38.488  16.299   0.953
65821W        W25115  24.524   9.679  13.449
65822W        W25116  23.656   9.294  14.321
65823W        W25117  39.342  22.501  13.525
65824W        W25118  36.077   7.398   5.639
65825W        W25119  36.475  34.472  12.066
65826W        W25120  20.258  14.669  12.847
65827W        W25121  23.530  22.733  11.421
65828W        W25122  15.640  35.465   0.417
65829W        W25123  26.989  14.302   0.893
65830W        W25124  34.404   9.252  14.364
65831W        W25125  21.540  26.972  12.826
65832W        W25126  37.874  31.518  12.553
65833W        W25127   5.790  33.410  12.533
65834W        W25128  30.494  29.924   3.721
65835W        W25129  41.809  14.112   1.377
65836W        W25130  13.774  15.726   3.158
65837W        W25131  10.683  20.733   3.281
65838W        W25132  43.988   3.460  10.129
65839W        W25133  42.502  33.528   2.324
65840W        W25134  24.130   7.708   4.694
65841W        W25135  10.717  41.876   2.709
65842W        W25136  22.110  26.521  12.557
65843W        W25137   9.254   6.262  12.939
65844W        W25138  29.472  32.480  11.918
65845W        W25139  35.881  34.615   5.576
65846W        W25140  43.285  18.084   1.368
65847W        W25141  14.645  10.334  14.361
65848W        W25142   3.805  25.583   3.862
65849W        W25143  26.641  43.474  14.954
65850W        W25144   0.777  16.196  14.430
65851W        W25145   3.214   2.743   4.218
65852W        W25146  34.036  31.914   4.347
65853W        W25147   3.303  16.313   3.697
65854W        W25148  31.072   8.683   3.637
65855W        W25149  14.823  34.390  12.901
65856W        W25150  17.154  43.387   0.400
65857W        W25151   5.767   5.769   2.199
65858W        W25152  23.520  23.652  12.855
65859W        W25153   2.342  28.930   0.477
65860W        W25154   2.892  12.309   3.869
65861W        W25155  30.957  19.069  12.554
65862W        W25156   2.794   8.209  14.841
65863W        W25157  14.229  18.250  11.469
65864W        W25158  33.883  44.900   1.855
65865W        W25159   4.275  28.176   0.816
65866W        W25160  31.587  44.365  11.092
65867W        W25161   2.313  11.630  12.868
65868W        W25162  18.607  37.842   0.902
65869W        W25163  24.529   7.401   0.929
65870W        W25164  42.775  15.093  11.946
65871W        W25165  14.126  30.588  10.427
65872W        W25166  18.772  32.995  11.540
65873W        W25167  33.917  18.062  11.611
65874W        W25168  44.975  21.733  13.492
65875W        W25169  16.128  26.126  11.057
65876W        W25170  38.923   7.407  14.928
65877W        W25171   1.407  19.250   2.832
65878W        W25172  23.636  31.553   2.385
65879W        W25173  41.034   3.437   1.438
65880W        W25174  27.980  34.110  10.986
65881W        W25175  17.634   0.321  11.046
65882W        W25176  20.546  30.481  13.927
65883W        W25177   9.714  35.482   3.171
65884W        W25178  29.476   4.890  11.871
65885W        W25179  32.428  40.459   2.234
65886W        W25180  21.066  33.067   3.813
65887W        W25181  44.867  35.543   1.277
65888W        W25182  11.138   0.942   2.809
65889W        W25183  42.985  22.246   4.602
65890W        W25184  22.515  13.151  14.487
65891W        W25185  31.484  23.015  13.889
65892W        W25186  19.656   1.379   4.788
65893W        W25187  10.160  11.630   3.386
65894W        W25188  11.314  17.171   0.482
65895W        W25189  41.331  37.408   2.892
65896W        W25190  34.054  41.444   0.934
65897W        W25191  39.327   2.341  11.042
65898W        W25192  10.283  13.737  14.401
65899W        W25193  29.666  42.381  13.419
65900W        W25194  15.208   1.842  10.566
65901W        W25195  43.448  15.716   1.878
65902W        W25196   0.406  42.467  12.966
65903W        W25197  15.148  16.206   2.816
65904W        W25198  35.586  12.789  10.973
65905W        W25199  43.351  34.600  13.332
65906W        W25200   8.830  42.381   4.130
65907W        W25201   6.730  35.883  10.577
65908W        W25202  12.791  10.747   1.832
65909W        W25203  27.160  38.428   5.611
65910W        W25204  18.265  26.643   0.890
65911W        W25205  43.357  29.427  13.024
65912W        W25206  10.186  19.660  12.035
65913W        W25207  31.988  28.543  11.857
65914W        W25208  22.186  10.746  12.847
65915W        W25209  13.316  27.184   3.314
65916W        W25210   2.742  22.154  10.125
65917W        W25211  29.010  12.686  10.623
65918W        W25212   5.879  41.897   2.313
65919W        W25213  14.824  20.151   2.186
65920W        W25214  36.088  28.008  13.521
65921W        W25215  13.163  35.518   0.914
65922W        W25216   4.321   5.347  14.935
65923W        W25217  20.634   7.366  14.440
65924W        W25218   3.790  29.104   0.341
65925W        W25219  11.336  41.836   4.787
65926W        W25220  34.420  22.558   0.765
65927W        W25221  28.592  22.607  12.893
65928W        W25222  29.129  27.584  14.288
65929W        W25223  16.285  12.727   0.929
65930W        W25224  38.480  40.966   3.780
65931W        W25225  29.621  40.014  14.829
65932W        W25226  27.195  20.030   4.766
65933W        W25227  16.216  10.816  10.054
65934W        W25228   2.305  13.342  13.547
65935W        W25229  42.811   8.818  11.074
65936W        W25230  40.987  27.191  10.466
65937W        W25231  30.603   2.378  14.282
65938W        W25232  16.196  23.704   4.350
65939W        W25233   1.265  27.020   2.889
65940W        W25234  35.502  27.628   2.806
65941W        W25235  14.744  32.413  14.393
65942W        W25236  15.098   4.308   4.249
65943W        W25237  13.708  20.224  11.422
65944W        W25238  44.362  11.683  13.346
65945W        W25239  12.691  21.725   3.664
65946W        W25240   7.392  24.120   5.622
65947W        W25241  30.002  39.366  12.896
65948W        W25242  15.262   6.684  11.460
65949W        W25243  10.331  27.609   3.729
65950W        W25244  18.680  27.997   4.138
65951W        W25245  35.983  16.173   0.332
65952W        W25246  26.659   9.160   4.719
65953W        W25247  21.733  21.107  12.945
65954W        W25248   6.680  37.537  13.342
65955W        W25249  19.059  23.146   0.856
65956W        W25250   2.764  35.475   0.870
65957W        W25251   1.948  12.691   1.726
65958W        W25252   3.929  33.562   4.311
65959W        W25253  42.826   0.818  14.898
65960W        W25254  36.408  28.522  12.035
65961W        W25255  38.071   6.409   1.872
65962W        W25256  30.953  38.899  14.000
65963W        W25257  43.385  10.367  11.974
65964W        W25258  14.638  30.911  13.435
65965W        W25259   5.925  42.950   1.767
65966W        W25260  16.801  42.858   2.339
65967W        W25261  26.091  20.074  13.039
65968W        W25262  36.919  37.532  14.922
65969W        W25263  13.279  21.058   2.830
65970W        W25264   6.697  44.848   1.825
65971W        W25265  43.509  41.843  13.395
65972W        W25266  19.247  38.369   3.363
65973W        W25267  17.564  25.661  14.384
65974W        W25268  29.155  35.535  12.010
65975W        W25269   1.364  33.621   4.313
65976W        W25270  10.338  26.094   4.145
65977W        W25271  11.341   7.733   4.219
65978W        W25272  21.182  32.085   4.695
65979W        W25273  21.546  15.652   2.308
65980W        W25274  13.620  24.695   2.415
65981W        W25275   8.206   3.443   4.770
65982W        W25276   2.288  18.261   2.700
65983W        W25277  40.514   4.290   4.801
65984W        W25278  29.089   7.313   0.482
65985W        W25279  24.180   5.233   2.724
65986W        W25280  14.165  38.987  13.900
65987W        W25281  11.690   4.209  12.534
65988W        W25282  40.913  22.030  10.979
65989W        W25283   5.379   9.751   0.809
65990W        W25284  31.134  40.840  12.570
65991W        W25285  29.016  27.123   2.679
65992W        W25286  20.674  28.053   2.178
65993W        W25287  41.787  35.101   4.191
65994W        W25288  43.899  22.682  11.881
65995W        W25289   7.838   1.407  13.310
65996W        W25290  32.600   6.782  14.874
65997W        W25291  27.098  42.978  14.942
65998W        W25292  28.002  37.402   3.256
65999W        W25293  31.059   9.868   1.324
66000W        W25294   9.804  12.187  11.966
66001W        W25295  18.683  28.534   0.837
66002W        W25296  29.152  11.760   2.181
66003W        W25297  29.171  14.802   2.732
66004W        W25298  33.618   3.309   5.189
66005W        W25299  15.135  19.195  12.468
66006W        W25300  23.237   4.815   3.289
66007W        W25301  29.134   7.873  12.867
66008W        W25302  29.665  35.060   4.614
66009W        W25303   8.246  16.653   3.385
66010W        W25304  13.232  24.148   0.888
66011W        W25305  27.592  22.230  13.809
66012W        W25306  10.862  44.457   2.190
66013W        W25307   4.897  25.535  12.440
66014W        W25308  30.061  34.998  12.483
66015W        W25309   7.393   2.937   2.801
66016W        W25310   6.795   4.305   2.213
66017W        W25311  44.341   6.390  12.416
66018W        W25312  26.593  29.663  13.886
66019W        W25313  10.689  17.180   3.355
66020W        W25314  39.319   5.412   4.207
66021W        W25315  24.030  14.162   4.825
66022W        W25316   4.862  25.036  13.852
66023W        W25317  25.132  27.186  11.899
66024W        W25318  44.367  15.743   3.692
66025W        W25319  43.355  41.495  11.380
66026W        W25320  29.145  43.930   4.202
66027W        W25321  11.668  10.169  12.073
66028W        W25322  38.557  15.227  10.443
66029W        W25323  32.098  13.335  13.375
66030W        W25324  11.787  20.230   4.724
66031W        W25325   7.200  36.925  11.390
66032W        W25326  19.574  22.045   3.781
66033W        W25327  41.883  12.161  10.561
66034W        W25328  32.445   5.897  12.463
66035W        W25329  41.487  24.122  11.085
66036W        W25330  13.728   7.410   0.884
66037W        W25331  18.770  12.196   1.256
66038W        W25332  25.211   6.239  12.889
66039W        W25333  18.783   5.847   1.747
66040W        W25334   3.215  28.602  10.453
66041W        W25335  21.590  44.945  11.973
66042W        W25336  18.117   7.738  14.870
66043W        W25337  30.488  14.120  14.514
66044W        W25338   5.438  21.703   2.305
66045W        W25339   7.369  29.544   4.308
66046W        W25340   7.730  34.021   2.670
66047W        W25341   9.856  41.821   4.678
66048W        W25342  35.033   6.366   0.276
66049W        W25343  37.005  36.085   0.384
66050W        W25344  30.642  18.659  14.943
66051W        W25345   1.876  34.002   3.733
66052W        W25346  22.586  35.475   1.723
66053W        W25347  15.230   6.896   0.855
66054W        W25348  42.925  13.146  12.828
66055W        W25349  12.323  39.368  11.378
66056W        W25350   3.313  37.041   0.829
66057W        W25351  29.993   3.240  11.858
66058W        W25352  21.153  34.942   1.389
66059W        W25353  17.770  16.584  11.436
66060W        W25354  40.800  14.753  14.407
66061W        W25355  22.525  38.556   3.868
66062W        W25356   6.726  40.443   3.817
66063W        W25357  35.495  38.901   2.870
66064W        W25358  29.968   8.258  14.807
66065W        W25359  41.431   3.283  13.497
66066W        W25360  30.567  43.351   2.689
66067W        W25361  13.203  28.148   4.829
66068W        W25362   0.779  27.546  11.046
66069W        W25363   6.217  25.570   0.290
66070W        W25364  20.755  29.566   1.351
66071W        W25365  33.612   9.643   2.345
66072W        W25366  16.751  33.120   3.178
66073W        W25367  42.287   3.758   2.686
66074W        W25368  44.438  36.380  14.396
66075W        W25369  21.027  16.669   1.799
66076W        W25370  39.413   0.357   3.155
66077W        W25371  38.915  42.874  13.825
66078W        W25372  33.918  35.431  12.344
66079W        W25373  12.202  31.459  14.976
66080W        W25374   1.776  34.579   3.747
66081W        W25375  19.688   4.400   1.880
66082W        W25376  31.462  23.492  12.890
66083W        W25377   7.761  16.182  11.939
66084W        W25378  12.727  21.120  14.317
66085W        W25379  16.105  21.512  14.914
66086W        W25380  22.711  39.959   1.412
66087W        W25381  35.907  13.667   2.831
66088W        W25382  25.993  26.155  10.429
66089W        W25383  28.102  28.670   4.137
66090W        W25384  13.232  29.486   3.781
66091W        W25385  42.304   6.805  11.025
66092W        W25386  37.434   2.925   0.815
66093W        W25387  31.419  10.739  13.451
66094W        W25388  30.440  33.491  14.357
66095W        W25389  14.667  43.932  11.596
66096W        W25390  10.699  34.406   9.993
66097W        W25391  28.611  39.471  12.973
66098W        W25392  32.506  10.348   0.246
66099W        W25393  35.553  32.004  14.368
66100W        W25394  13.622  42.345  11.973
66101W        W25395  26.484  23.646   4.696
66102W        W25396  33.592  17.614  11.936
66103W        W25397  22.625  42.794  14.946
66104W        W25398  20.674   5.344   3.811
66105W        W25399  17.274  19.173   5.603
66106W        W25400  33.104   6.194   3.759
66107W        W25401  36.369   7.184   2.759
66108W        W25402  22.078  37.011  11.485
66109W        W25403  35.471  26.567   2.220
66110W        W25404   2.467  24.704   4.264
66111W        W25405  32.599  12.133   3.316
66112W        W25406  36.462   5.699   3.852
66113W        W25407  12.210  38.439   3.734
66114W        W25408  16.570  23.724   2.714
66115W        W25409  34.070   6.748   1.864
66116W        W25410   6.684  13.226  11.102
66117W        W25411  16.743  23.236  10.433
66118W        W25412  32.495   1.944   1.411
66119W        W25413  17.586  19.089   1.430
66120W        W25414   6.221  27.556  11.547
66121W        W25415  28.597   7.189   4.751
66122W        W25416  12.178  42.327   4.617
66123W        W25417  17.114   6.376  14.432
66124W        W25418   6.800  38.053   4.836
66125W        W25419  14.244  21.237  11.487
66126W        W25420  25.588   7.874   1.434
66127W        W25421  42.499  10.687   4.169
66128W        W25422  24.618  22.653  13.307
66129W        W25423  12.748  42.509   2.220
66130W        W25424   5.436  38.909   4.341
66131W        W25425  23.055  30.618   3.644
66132W        W25426  15.587  17.270   2.775
66133W        W25427  31.429   7.750  14.990
66134W        W25428  39.042  37.349   1.761
66135W        W25429  32.959  27.657   1.289
66136W        W25430  17.290   0.476  13.014
66137W        W25431  19.105  14.760  14.321
66138W        W25432  43.407  26.511  14.506
66139W        W25433  43.826  20.523  14.008
66140W        W25434   2.363  43.859   3.692
66141W        W25435  13.120  30.514  14.362
66142W        W25436   2.465  42.824   2.240
66143W        W25437  43.501  13.746  12.005
66144W        W25438  34.444  39.957   2.690
66145W        W25439  42.428  26.570  14.289
66146W        W25440  32.414  18.575   4.249
66147W        W25441  14.814  27.047  12.457
66148W        W25442  13.144  27.132  10.932
66149W        W25443  11.710  12.768  12.556
66150W        W25444   4.774   7.394  10.595
66151W        W25445  26.490  36.481   3.218
66152W        W25446  43.915   6.267   1.364
66153W        W25447   1.835  40.501  13.054
66154W        W25448  38.964  37.552   2.264
66155W        W25449  42.965  36.574  13.868
66156W        W25450  21.637  13.625  13.841
66157W        W25451   5.380  15.316   4.813
66158W        W25452  28.636  23.072   3.764
66159W        W25453   1.305  18.071   2.812
66160W        W25454  26.166   5.749  14.289
66161W        W25455  36.986  18.698   2.344
66162W        W25456  43.902  33.464   4.206
66163W        W25457  34.559  31.625   2.286
66164W        W25458  29.123  28.995   4.812
66165W        W25459  29.067  25.549  13.462
66166W        W25460  44.804  21.541   0.321
66167W        W25461  20.147   1.878   1.417
66168W        W25462  30.428  24.590  10.590
66169W        W25463  35.491   9.712   2.780
66170W        W25464   8.744  34.528  14.360
66171W        W25465  19.265  23.171  13.516
66172W        W25466  42.306  39.878   2.183
66173W        W25467  41.332  25.654  11.479
66174W        W25468  40.959  15.174   1.220
66175W        W25469   0.492  25.571   2.179
66176W        W25470   5.244  29.105   2.856
66177W        W25471  41.525   0.945   9.533
66178W        W25472  43.889  10.260   4.208
66179W        W25473  12.697   0.811  12.055
66180W        W25474  32.467  20.093   3.654
66181W        W25475  36.912  32.105   3.178
66182W        W25476  22.550  12.789   0.892
66183W        W25477  25.546  26.459   4.180
66184W        W25478  32.593  11.236   2.228
66185W        W25479  38.917  12.832  14.000
66186W        W25480  10.248  39.023  10.903
66187W        W25481  38.520  25.016   3.688
66188W        W25482  23.588   6.385  10.456
66189W        W25483  14.169  39.046   0.365
66190W        W25484   5.327   0.742   1.418
66191W        W25485  30.984  25.024  13.360
66192W        W25486  13.832  19.272   3.648
66193W        W25487  28.109   0.254   2.372
66194W        W25488  12.265  20.242  10.594
66195W        W25489  11.232  29.582  11.500
66196W        W25490  30.095  34.456  14.825
66197W        W25491  30.151  43.876   1.876
66198W        W25492  40.313  11.644   9.937
66199W        W25493  24.684  22.095   0.258
66200W        W25494  22.095  40.528   1.387
66201W        W25495  17.656  37.933  13.852
66202W        W25496  13.280  22.062   3.334
66203W        W25497  40.529  33.023  14.029
66204W        W25498  20.119  31.545   0.467
66205W        W25499  32.617  43.367  11.427
66206W        W25500  23.180  37.850   1.294
66207W        W25501   7.252  39.453  10.615
66208W        W25502  21.088  11.279   2.673
66209W        W25503  17.676   2.811  11.601
66210W        W25504  42.397   0.852   2.214
66211W        W25505   3.835   0.315   5.611
66212W        W25506  10.841  15.199   0.246
66213W        W25507  20.134  10.324  14.834
66214W        W25508  34.112  13.305   0.279
66215W        W25509  10.377   5.309  12.977
66216W        W25510   4.319   1.745  14.438
66217W        W25511  13.203   5.391   3.251
66218W        W25512  42.370  10.697   0.463
66219W        W25513  32.087  43.809  14.494
66220W        W25514   4.846  19.218  13.376
66221W        W25515  11.178   2.455  13.057
66222W        W25516  27.967  20.249   1.888
66223W        W25517  18.221  24.118   1.298
66224W        W25518  13.722  14.248  10.573
66225W        W25519  41.466   9.679   3.717
66226W        W25520  35.541  18.717  11.030
66227W        W25521  36.502  17.072  10.469
66228W        W25522  21.724   4.331   3.371
66229W        W25523  12.209  41.009  13.344
66230W        W25524  35.431  21.082   3.379
66231W        W25525  18.076  14.191   0.289
66232W        W25526  44.770  33.948  10.941
66233W        W25527  19.591   9.647  13.504
66234W        W25528  19.086  32.903  11.050
66235W        W25529  14.707   1.256   3.205
66236W        W25530  16.765  42.301   0.780
66237W        W25531  40.430  17.693   3.718
66238W        W25532   4.743  23.131  14.380
66239W        W25533  29.592  15.270   1.412
66240W        W25534   7.171  36.550  10.893
66241W        W25535  33.604  27.521  10.574
66242W        W25536  21.126  14.159   1.729
66243W        W25537   9.757  14.186  14.486
66244W        W25538  19.080  21.582   0.739
66245W        W25539  21.105  37.929  11.439
66246W        W25540  44.503   0.301   0.732
66247W        W25541   3.927  24.974   1.738
66248W        W25542   0.484  31.993   1.925
66249W        W25543   9.704  44.261  12.883
66250W        W25544  16.580  39.512   4.834
66251W        W25545  15.285  11.357   2.773
66252W        W25546   9.191  37.844   4.276
66253W        W25547   3.857  12.813  13.509
66254W        W25548   8.161  41.306  11.912
66255W        W25549  20.205  29.949  10.920
66256W        W25550  10.373  15.753  11.106
66257W        W25551   2.764  34.028  12.487
66258W        W25552  29.934  14.715   0.458
66259W        W25553  13.712  32.070  10.056
66260W        W25554  22.740  23.518  12.883
66261W        W25555  38.982  32.567  10.459
66262W        W25556  32.118  41.968   9.938
66263W        W25557  35.072  36.038  12.072
66264W        W25558   1.416   8.886   3.197
66265W        W25559  33.904  21.536   1.857
66266W        W25560   4.428  30.091   3.205
66267W        W25561  21.190  24.555   4.608
66268W        W25562  32.075  12.646   3.867
66269W        W25563  28.566  23.165   2.361
66270W        W25564   6.257  35.881   9.983
66271W        W25565  40.919  40.524   1.440
66272W        W25566  10.372  41.008   3.743
66273W        W25567   5.700  11.767  11.427
66274W        W25568  20.112  33.931   0.859
66275W        W25569  21.629  41.336  12.092
66276W        W25570  29.464  27.496  14.800
66277W        W25571  36.043  16.612   4.225
66278W        W25572  15.284  28.024  13.997
66279W        W25573  17.626  32.481   2.256
66280W        W25574  42.959   9.774  14.897
66281W        W25575  13.181  25.491  12.830
66282W        W25576  24.984  29.005  14.463
66283W        W25577  40.423   3.423   0.961
66284W        W25578   8.885  27.500   3.670
66285W        W25579  14.163  34.103  10.418
66286W        W25580  20.226   8.380   5.215
66287W        W25581   9.787  33.885   1.744
66288W        W25582  34.371  34.051  12.517
66289W        W25583  31.039  31.492   1.211
66290W        W25584  39.470   1.242  11.882
66291W        W25585  40.007  34.057   2.889
66292W        W25586  17.288  41.940   4.130
66293W        W25587  31.451  15.227   1.931
66294W        W25588  11.298  44.814   0.247
66295W        W25589   4.419  32.139  11.556
66296W        W25590  34.913   1.330  10.449
66297W        W25591  19.559  40.440  13.488
66298W        W25592  42.966  27.036  13.940
66299W        W25593  27.631  32.932   0.398
66300W        W25594  24.538   2.858   0.775
66301W        W25595  17.761  35.461  11.943
66302W        W25596   1.763  32.937   3.200
66303W        W25597  27.132  21.756  12.033
66304W        W25598  19.743  18.097  10.499
66305W        W25599  33.017   1.325   3.298
66306W        W25600  14.233  26.463  10.510
66307W        W25601  21.543  35.000  11.421
66308W        W25602   0.357  42.027  10.433
66309W        W25603   6.196  22.651  13.970
66310W        W25604  28.070  31.053  14.479
66311W        W25605  43.469  26.530  13.986
66312W        W25606  19.757   3.753  11.031
66313W        W25607  41.387  17.144  14.783
66314W        W25608  40.014  19.156  12.426
66315W        W25609  28.554   0.440   1.368
66316W        W25610   4.288   3.363  10.565
66317W        W25611   8.338  28.667   0.292
66318W        W25612  15.246  22.525   1.244
66319W        W25613  11.699  28.127  11.080
66320W        W25614  13.720   0.928  13.430
66321W        W25615  22.527   0.981  11.504
66322W        W25616  44.953  25.058   4.712
66323W        W25617  42.865  22.736  13.400
66324W        W25618   1.960  36.570   1.321
66325W        W25619  15.682   1.318   4.654
66326W        W25620   3.822  17.164  10.051
66327W        W25621  19.247  43.442  10.977
66328W        W25622  10.677  12.731   0.818
66329W        W25623  12.291  20.122   0.761
66330W        W25624  18.579  17.120   2.302
66331W        W25625  13.127  12.286  14.987
66332W        W25626  29.622   7.337   0.855
66333W        W25627  31.604  22.728   4.747
66334W        W25628  36.347  35.377   2.209
66335W        W25629   9.691  15.101  14.343
66336W        W25630   7.728  24.539  13.821
66337W        W25631  36.548  32.402  12.458
66338W        W25632   6.758  11.145   3.249
66339W        W25633  24.127  44.363  13.495
66340W        W25634  31.050  29.132   1.273
66341W        W25635  10.835  13.349  11.024
66342W        W25636   7.378   7.284  12.489
66343W        W25637  40.494  39.518   2.343
66344W        W25638  20.526  21.248   0.785
66345W        W25639  40.315  21.078  13.821
66346W        W25640  20.036  37.915  13.828
66347W        W25641  39.896  21.186  14.356
66348W        W25642  28.616  31.417  13.837
66349W        W25643  38.978  15.303  14.932
66350W        W25644   1.850  38.069  11.384
66351W        W25645   8.861  10.736   4.279
66352W        W25646  38.861  25.155  12.831
66353W        W25647  38.342  44.958   3.296
66354W        W25648  39.900  15.812  12.993
66355W        W25649  32.910  37.361   2.692
66356W        W25650  36.588  31.490   2.706
66357W        W25651   4.314   5.822   1.245
66358W        W25652   2.237   6.780   0.330
66359W        W25653  17.210  13.740   2.806
66360W        W25654   6.349  42.915   2.772
66361W        W25655  12.346  29.018   2.318
66362W        W25656   9.289   9.184   4.617
66363W        W25657   1.775  27.966  14.829
66364W        W25658  39.045   4.858   4.165
66365W        W25659  13.298  35.562   2.807
66366W        W25660  26.611  28.616   1.785
66367W        W25661  43.932   5.207   1.231
66368W        W25662  24.667  27.546  14.006
66369W        W25663   8.808  43.011  14.434
66370W        W25664   9.291  35.041  13.463
66371W        W25665   9.856  26.656  12.871
66372W        W25666  27.601  28.464   2.330
66373W        W25667  13.118  44.781   4.600
66374W        W25668   7.413  43.959  14.992
66375W        W25669  41.815   1.279   2.679
66376W        W25670  16.250  17.106  13.973
66377W        W25671  11.706   4.422   4.778
66378W        W25672  39.964   4.218   4.198
66379W        W25673  17.289  24.604   4.158
66380W        W25674   3.746  24.505   1.393
66381W        W25675  14.302  19.770   0.435
66382W        W25676   7.391  16.566   3.206
66383W        W25677  21.211  30.041   1.801
66384W        W25678  34.412  37.042   0.742
66385W        W25679  16.604   2.299  13.985
66386W        W25680  28.968  30.447   3.648
66387W        W25681   1.470  30.484  12.390
66388W        W25682  16.705  15.643   5.172
66389W        W25683  36.373   6.742  13.817
66390W        W25684  35.432  42.492  10.629
66391W        W25685  12.684  18.677  13.317
66392W        W25686  25.520   5.690   1.438
66393W        W25687  22.554  21.115  10.447
66394W        W25688  42.814  10.726   3.713
66395W        W25689  17.226   9.277   2.711
66396W        W25690  19.566  38.509   4.700
66397W        W25691  36.992  37.403  10.960
66398W        W25692   8.312  23.148   2.765
66399W        W25693  41.954   1.338  12.473
66400W        W25694  37.976  24.985   3.197
66401W        W25695  10.168  30.429   3.237
66402W        W25696   9.265  41.488  14.829
66403W        W25697  34.490  43.948   2.298
66404W        W25698   0.424  27.072  10.604
66405W        W25699  29.617   8.273  14.954
66406W        W25700  36.953  19.201  11.098
66407W        W25701  22.114   9.779  13.503
66408W        W25702  38.470  13.285  13.415
66409W        W25703  42.024  23.020  14.495
66410W        W25704  17.737  24.620   3.365
66411W        W25705  10.382  42.904   2.189
66412W        W25706   6.918  40.432   4.768
66413W        W25707  44.399   5.690  10.421
66414W        W25708  33.470   0.428  14.862
66415W        W25709  10.143  43.290  11.042
66416W        W25710  17.677  37.360   2.790
66417W        W25711  13.610  17.186   0.430
66418W        W25712  27.638  12.795   1.222
66419W        W25713  27.451  38.915   2.839
66420W        W25714  20.589  30.133   3.681
66421W        W25715  33.467  10.856   1.279
66422W        W25716  37.028  26.473   0.270
66423W        W25717  28.052  23.103   4.638
66424W        W25718   3.406  36.453  13.045
66425W        W25719  21.540   3.886   1.736
66426W        W25720  19.746  30.084  13.865
66427W        W25721  31.114  24.638   1.837
66428W        W25722  13.114   2.897   2.793
66429W        W25723  27.003   6.286   1.780
66430W        W25724  14.315  42.498  11.072
66431W        W25725  37.571  37.893   3.376
66432W        W25726  18.141  13.774   4.354
66433W        W25727  30.101  33.481  10.601
66434W        W25728   4.219   4.231   2.262
66435W        W25729  16.673  28.637   1.696
66436W        W25730  30.418  42.854   3.382
66437W        W25731  34.093  27.491   1.839
66438W        W25732  21.186  25.562   5.265
66439W        W25733   3.945  19.178   4.692
66440W        W25734  41.931  11.754   0.780
66441W        W25735  24.631  22.221   1.328
66442W        W25736  32.629   5.803   0.733
66443W        W25737  19.553  21.249   3.798
66444W        W25738  26.550  32.099  14.875
66445W        W25739  30.114  31.921  13.367
66446W        W25740  28.029  15.799  10.921
66447W        W25741  40.020  22.019  10.446
66448W        W25742  35.035  34.475   3.767
66449W        W25743  10.322  30.596   2.383
66450W        W25744  19.677   8.351  13.045
66451W        W25745  24.561  28.660   2.703
66452W        W25746  20.166   4.391   2.684
66453W        W25747  18.178  11.717   0.310
66454W        W25748  42.977  22.707   2.864
66455W        W25749  36.985   1.353  11.608
66456W        W25750   8.204   9.362   2.192
66457W        W25751  18.051  43.311  14.288
66458W        W25752   4.389  25.192  12.418
66459W        W25753  26.192  21.215   2.901
66460W        W25754   1.893  43.460   2.694
66461W        W25755  19.047  29.644  12.538
66462W        W25756  14.714  25.178  11.583
66463W        W25757   4.821  12.818   0.295
66464W        W25758  41.947  40.404  12.481
66465W        W25759  30.628  35.591  13.360
66466W        W25760  21.124  22.109  10.503
66467W        W25761  37.002   4.441   1.429
66468W        W25762  10.735  44.864  13.041
66469W        W25763  28.949  25.697   0.474
66470W        W25764  38.342  14.230   3.782
66471W        W25765  24.529  43.789   1.392
66472W        W25766  23.088  16.748  14.427
66473W        W25767  31.498   6.356   2.897
66474W        W25768  10.205  34.102   1.913
66475W        W25769  16.155  44.381  12.580
66476W        W25770  19.264   2.447   1.697
66477W        W25771  29.971  24.544  12.356
66478W        W25772  26.457  37.083   2.816
66479W        W25773   1.291   1.281   2.379
66480W        W25774  38.912   1.936  10.055
66481W        W25775   3.351   3.457   2.677
66482W        W25776  17.572  18.680   2.211
66483W        W25777  20.222   9.212  12.861
66484W        W25778  20.734  16.294   1.702
66485W        W25779  36.012  14.784  13.048
66486W        W25780  38.974  31.006   2.184
66487W        W25781  12.631  24.677   0.263
66488W        W25782   0.910  12.611   3.149
66489W        W25783  42.865   4.232   3.261
66490W        W25784  30.422  15.120   3.764
66491W        W25785  25.188   5.850   2.903
66492W        W25786   0.445   1.763  11.469
66493W        W25787  43.018  39.994  14.786
66494W        W25788  14.746   7.248  12.479
66495W        W25789  31.474  15.207   2.725
66496W        W25790  39.905   9.738   0.323
66497W        W25791  18.547  12.132   0.395
66498W        W25792  35.911  15.227  13.477
66499W        W25793  29.156  25.999   4.142
66500W        W25794  11.309  36.514   2.237
66501W        W25795  39.411  12.210   1.802
66502W        W25796  32.072  18.180  10.137
66503W        W25797  30.430  21.630  13.922
66504W        W25798  24.627   5.805   5.198
66505W        W25799  15.242  24.591   4.333
66506W        W25800  29.020   5.380  12.013
66507W        W25801  33.875  37.481  12.446
66508W        W25802  37.837  22.197   0.866
66509W        W25803  30.579  15.796   5.150
66510W        W25804  19.631  25.133   4.795
66511W        W25805  18.622   1.385   2.188
66512W        W25806  30.430  19.661  11.095
66513W        W25807  44.439   3.286   0.285
66514W        W25808  17.739  27.523  14.277
66515W        W25809  15.623  17.654   1.302
66516W        W25810  11.792  39.821   2.206
66517W        W25811  31.066  41.844  11.400
66518W        W25812  26.680  30.501  11.494
66519W        W25813  42.427   6.805   4.333
66520W        W25814  12.806   2.920   2.419
66521W        W25815   6.386   1.786  14.001
66522W        W25816  23.501  19.079  13.436
66523W        W25817  27.940   6.299   4.272
66524W        W25818  38.992  12.644  11.428
66525W        W25819  18.602  33.967   0.732
66526W        W25820  19.573  16.762   4.622
66527W        W25821  34.999   1.303  12.492
66528W        W25822  16.637  26.145  14.449
66529W        W25823  17.132  15.710   0.313
66530W        W25824  17.306   3.442  11.089
66531W        W25825  35.394   5.239   4.156
66532W        W25826  41.896  13.304  10.927
66533W        W25827  13.718  11.158   5.280
66534W        W25828   1.778  18.290  14.795
66535W        W25829  22.018  24.120  11.942
66536W        W25830  38.840  30.635  13.010
66537W        W25831  34.395   2.727   2.323
66538W        W25832   4.325  41.361  13.848
66539W        W25833  40.038   1.410   4.152
66540W        W25834  34.483  13.845  11.415
66541W        W25835  44.449  43.482   4.697
66542W        W25836  17.298   3.709  12.899
66543W        W25837   0.404   0.913   3.311
66544W        W25838  37.512  33.453  13.542
66545W        W25839   2.839  17.573   4.324
66546W        W25840  15.158  28.047  12.560
66547W        W25841  27.622   4.251  12.495
66548W        W25842  36.380   6.789   3.319
66549W        W25843   2.407   0.858  13.360
66550W        W25844  29.123   8.196  11.954
66551W        W25845   5.296  24.637  14.975
66552W        W25846  36.017  24.678   0.330
66553W        W25847   8.301  42.876  14.408
66554W        W25848  38.962  34.115   2.901
66555W        W25849  22.685   8.201   0.268
66556W        W25850  42.971  14.592  12.456
66557W        W25851  16.179  36.551  11.556
66558W        W25852   3.266  32.102  14.315
66559W        W25853  37.038  23.623   3.363
66560W        W25854   6.707   4.739   0.399
66561W        W25855  41.002  20.718  14.784
66562W        W25856  18.641  21.568  10.454
66563W        W25857  33.519   3.330   4.829
66564W        W25858   7.678  35.087   5.172
66565W        W25859  14.286  10.689  13.365
66566W        W25860   6.388   8.662  11.484
66567W        W25861  15.677  17.581   0.243
66568W        W25862  17.736  25.490   1.368
66569W        W25863   2.947  42.426   0.375
66570W        W25864  29.003   2.869  14.291
66571W        W25865   6.318   1.762  13.002
66572W        W25866  11.827  12.153   4.194
66573W        W25867  15.264   8.182  12.457
66574W        W25868   4.285  10.208  13.060
66575W        W25869  44.294  30.475  10.967
66576W        W25870  33.607  30.144   0.376
66577W        W25871  42.961  10.326  14.461
66578W        W25872   9.676  21.119  13.309
66579W        W25873  25.655  40.313  12.980
66580W        W25874  30.539  30.939  12.545
66581W        W25875  27.554  26.180   0.341
66582W        W25876  41.380  30.912  14.833
66583W        W25877  22.637  29.486  14.908
66584W        W25878   0.839  12.630   4.820
66585W        W25879  33.076   4.800  13.988
66586W        W25880  37.886   6.830  13.924
66587W        W25881   1.255  12.341   0.323
66588W        W25882   2.464  44.881   1.848
66589W        W25883   6.814  18.071  14.981
66590W        W25884  33.594  41.814   0.946
66591W        W25885  37.875  37.571  10.017
66592W        W25886   9.803  12.268   2.315
66593W        W25887  44.753  41.024   3.304
66594W        W25888  28.535   2.382   3.207
66595W        W25889  18.220  33.431  12.877
66596W        W25890   5.382  19.251  14.866
66597W        W25891   8.780  25.133  11.411
66598W        W25892   7.824  36.568  13.544
66599W        W25893  25.128   0.303   4.640
66600W        W25894  42.836  24.973   0.481
66601W        W25895  20.065  24.586  11.411
66602W        W25896  35.940  43.326  14.017
66603W        W25897   2.736  16.784   4.616
66604W        W25898  18.729  40.889  12.096
66605W        W25899  13.207  16.667   4.818
66606W        W25900  29.979  37.440   2.688
66607W        W25901  39.326  10.866   1.714
66608W        W25902  43.793   0.889  11.395
66609W        W25903  16.193   8.712  14.472
66610W        W25904  11.828   9.276  13.480
66611W        W25905   6.376  18.084   2.807
66612W        W25906  27.624  41.939  13.373
66613W        W25907  12.357  23.067   1.716
66614W        W25908  20.121  27.958  11.415
66615W        W25909  27.000  31.089   3.375
66616W        W25910  41.349   1.883   1.350
66617W        W25911  41.917  26.975   1.918
66618W        W25912  15.112  18.750   4.146
66619W        W25913  12.683  11.850   4.272
66620W        W25914  31.074   0.989   4.178
66621W        W25915  38.038   4.764  13.324
66622W        W25916   6.258   1.750   5.211
66623W        W25917  26.598  19.272   0.887
66624W        W25918   0.269  24.669   0.249
66625W        W25919  18.058  28.985  10.962
66626W        W25920   7.247  23.566  14.288
66627W        W25921  22.250  34.509   4.789
66628W        W25922  16.727  27.535   0.464
66629W        W25923  26.043  41.888  10.928
66630W        W25924  41.369  13.664  12.041
66631W        W25925  21.126   7.855  13.530
66632W        W25926  15.132  34.503  12.993
66633W        W25927  22.185   5.812   4.833
66634W        W25928  26.641  15.153  11.938
66635W        W25929   5.388  27.961  14.969
66636W        W25930  10.237  42.446  12.014
66637W        W25931  15.660   1.304   3.809
66638W        W25932  18.213  31.647   4.718
66639W        W25933  11.285  33.038  13.876
66640W        W25934  44.287   7.346  14.403
66641W        W25935  32.584  30.582   4.143
66642W        W25936  44.472  43.902   3.170
66643W        W25937  43.465  32.048  10.501
66644W        W25938  29.042  14.812   0.909
66645W        W25939   0.794  12.310  13.043
66646W        W25940  16.781  23.610   2.263
66647W        W25941  40.975  31.606  10.532
66648W        W25942  35.893  14.729   1.226
66649W        W25943  22.131  13.685   1.238
66650W        W25944  15.648  17.182   9.984
66651W        W25945  14.242  33.021  14.918
66652W        W25946   0.332  35.483   2.349
66653W        W25947  32.494  41.894   3.271
66654W        W25948  30.640  18.698  12.946
66655W        W25949  43.870   1.793   0.371
66656W        W25950  44.472  42.469  13.385
66657W        W25951  14.268  33.983   4.121
66658W        W25952  16.753  40.859   2.212
66659W        W25953  33.963  20.099   0.844
66660W        W25954  44.281   0.773   0.761
66661W        W25955  27.969   3.360   2.328
66662W        W25956  33.979  34.881   1.796
66663W        W25957  11.129  32.577   0.860
66664W        W25958  43.897   8.665   2.878
66665W        W25959   0.260  17.074  11.045
66666W        W25960  21.073  36.906   4.828
66667W        W25961  42.303  24.584   3.362
66668W        W25962   1.308  26.630  11.125
66669W        W25963  42.990  37.373  11.099
66670W        W25964  24.576  42.026   1.296
66671W        W25965  41.975  29.624   4.221
66672W        W25966  26.509  24.973   4.166
66673W        W25967  15.094  42.842  14.494
66674W        W25968  17.630  31.420   1.698
66675W        W25969  27.450  24.606  10.440
66676W        W25970  29.981  12.173  14.504
66677W        W25971  15.300  13.722   4.626
66678W        W25972  31.512  31.407   2.193
66679W        W25973  41.468  41.797   2.221
66680W        W25974  30.532   0.988  13.500
66681W        W25975   6.735   6.340  14.001
66682W        W25976  22.150  23.079  13.373
66683W        W25977  16.139  30.561   0.906
66684W        W25978  10.164  11.650  11.587
66685W        W25979  40.945  16.735  11.475
66686W        W25980  30.622  42.451  12.902
66687W        W25981  36.024   2.830   4.309
66688W        W25982  14.657  30.048  14.001
66689W        W25983  38.894   8.888  12.501
66690W        W25984  17.226  30.475  10.900
66691W        W25985  40.039  16.762  14.435
66692W        W25986  14.223   2.866   3.338
66693W        W25987  27.014  43.419   4.685
66694W        W25988   0.829   7.890   1.392
66695W        W25989  44.787  35.426  14.809
66696W        W25990   7.758  18.059   1.881
66697W        W25991  34.432  25.030   1.334
66698W        W25992  43.810   2.434  14.973
66699W        W25993   7.846  35.861  14.829
66700W        W25994  22.051   7.872  11.863
66701W        W25995  24.088  26.085  13.860
66702W        W25996  39.019   6.915  14.437
66703W        W25997   2.254   7.756   3.780
66704W        W25998  35.483  23.551   4.829
66705W        W25999  10.844  44.967   1.749
66706W        W26000  20.254  23.209  13.497
66707W        W26001  30.079   8.800   0.957
66708W        W26002  33.962  31.063   1.801
66709W        W26003  37.050  31.547   1.327
66710W        W26004  28.477  41.438   3.175
66711W        W26005  30.653  43.992   0.770
66712W        W26006  41.536  31.933  11.473
66713W        W26007  26.481  16.117   4.208
66714W        W26008  22.195   7.850   5.678
66715W        W26009  25.113   5.738   4.217
66716W        W26010  23.552  33.883   3.204
66717W        W26011   0.818  25.165   2.717
66718W        W26012   2.965   3.370  12.399
66719W        W26013  44.909   6.355   4.697
66720W        W26014  39.844  28.508   2.193
66721W        W26015  40.548  24.656  13.353
66722W        W26016  38.022  32.093   0.768
66723W        W26017  17.086  23.574   3.717
66724W        W26018   3.285   8.823  10.501
66725W        W26019  41.445   5.261  13.344
66726W        W26020  44.951  26.577  11.528
66727W        W26021  24.975  24.005  10.492
66728W        W26022  33.515   5.366  10.470
66729W        W26023   2.409  43.452  11.439
66730W        W26024  20.240  17.111  13.870
66731W        W26025  21.588  29.972  12.905
66732W        W26026  17.627  28.448  14.830
66733W        W26027  33.115   4.383   4.345
66734W        W26028  35.066  32.502  11.460
66735W        W26029  15.306  21.136  11.438
66736W        W26030   0.368  22.667   0.952
66737W        W26031   7.682  20.158   9.986
66738W        W26032  41.313   0.256  14.363
66739W        W26033   8.857  35.999  14.849
66740W        W26034  43.836   2.768   0.447
66741W        W26035  19.084  33.934  14.823
66742W        W26036  11.746   2.874  12.542
66743W        W26037  15.767  12.794  14.357
66744W        W26038  14.710   0.866  13.866
66745W        W26039   1.847   0.925  14.441
66746W        W26040  13.138  12.166   9.638
66747W        W26041  14.268   5.428  13.500
66748W        W26042  33.410  18.693   3.826
66749W        W26043  20.676  41.363   2.197
66750W        W26044   4.368  22.574  14.302
66751W        W26045  10.324  11.174   4.751
66752W        W26046  31.963  40.415   2.328
66753W        W26047  11.186   9.719  10.622
66754W        W26048   8.248  34.929  11.090
66755W        W26049   5.335  44.994  10.496
66756W        W26050   0.265  33.991   2.778
66757W        W26051  30.498  44.928  13.059
66758W        W26052  18.061  36.592   1.859
66759W        W26053   7.348   7.859   1.803
66760W        W26054  21.588  24.539   3.733
66761W        W26055  23.575   3.305   4.661
66762W        W26056  22.998   4.327  11.375
66763W        W26057  39.952   0.262   2.324
66764W        W26058  27.184  15.806   4.196
66765W        W26059  30.076  26.536  14.378
66766W        W26060  38.417   7.783  11.049
66767W        W26061  38.349   9.287   1.248
66768W        W26062  33.064  15.703  13.016
66769W        W26063  13.722  42.331  11.522
66770W        W26064  40.395   7.693   1.335
66771W        W26065  39.341  40.021   2.186
66772W        W26066  38.066  41.991   1.239
66773W        W26067  26.668  12.839   1.753
66774W        W26068  30.654  38.054   4.178
66775W        W26069  28.565  30.420   1.212
66776W        W26070   8.751  35.564  14.411
66777W        W26071  40.490   3.454   0.363
66778W        W26072   8.310   3.888  10.056
66779W        W26073  26.100   9.757  12.038
66780W        W26074  27.533   6.807   3.772
66781W        W26075  30.427  29.052   3.654
66782W        W26076   4.850   9.720   1.739
66783W        W26077   6.901   8.769   2.410
66784W        W26078  21.237  33.982  12.932
66785W        W26079  28.679  29.608   4.613
66786W        W26080   5.245  39.514  14.822
66787W        W26081  41.979   4.348  10.433
66788W        W26082  21.178  10.235   2.891
66789W        W26083  15.816  43.306  13.828
66790W        W26084  37.403  34.461   1.408
66791W        W26085   5.833  22.019   0.260
66792W        W26086  16.308   7.215  11.543
66793W        W26087  32.409  30.006  13.496
66794W        W26088  30.062   2.382  13.526
66795W        W26089  18.215  30.042  11.401
66796W        W26090  36.970   4.367   0.392
66797W        W26091  39.808   5.290  11.025
66798W        W26092  25.510  36.093  11.093
66799W        W26093  18.633   1.949  12.488
66800W        W26094  36.955  44.836  13.323
66801W        W26095  23.116  42.414  14.931
66802W        W26096  12.827  21.118  10.461
66803W        W26097  42.841  15.328   1.259
66804W        W26098  21.673   0.819   0.738
66805W        W26099  24.499  33.978  11.945
66806W        W26100   3.458  14.118  11.128
66807W        W26101  39.862  39.332   2.202
66808W        W26102  20.562   0.918  11.073
66809W        W26103  32.028  21.632  14.821
66810W        W26104  29.586  31.063  11.571
66811W        W26105  17.754  23.595  10.093
66812W        W26106  36.892  27.114   0.301
66813W        W26107  23.183   8.391   2.387
66814W        W26108  19.601  32.461   1.861
66815W        W26109  38.376  42.292   0.319
66816W        W26110  24.985   0.285  12.972
66817W        W26111  30.630  43.899   3.719
66818W        W26112  15.164  10.769  12.435
66819W        W26113  14.688  44.435  13.369
66820W        W26114  37.942  38.414   2.369
66821W        W26115  31.419  19.045   2.356
66822W        W26116   4.934  30.031  12.470
66823W        W26117  37.388  42.897  13.019
66824W        W26118  18.766  33.921   3.726
66825W        W26119  16.309  17.114   9.979
66826W        W26120  16.253   2.237   4.198
66827W        W26121   2.821   2.959  12.560
66828W        W26122  18.744  19.645  13.392
66829W        W26123  28.609   1.901  12.087
66830W        W26124  12.700  42.812   2.309
66831W        W26125   0.455  44.343   0.275
66832W        W26126  16.141   6.816   4.723
66833W        W26127   0.423  25.595  11.464
66834W        W26128  15.125  29.006   3.768
66835W        W26129  10.384  10.334   4.610
66836W        W26130  28.052  17.081  11.017
66837W        W26131  33.038  44.427   0.869
66838W        W26132  20.733  10.344   2.300
66839W        W26133  44.387  40.054   2.869
66840W        W26134  35.385  34.984   3.694
66841W        W26135  26.997  23.101   1.782
66842W        W26136  24.070   2.751  12.564
66843W        W26137  39.913   5.879   3.228
66844W        W26138  14.281  40.449   0.874
66845W        W26139  28.986  27.481  11.081
66846W        W26140  42.930   3.446  11.091
66847W        W26141  43.495  43.414   0.964
66848W        W26142   9.672   3.396   1.831
66849W        W26143  17.714   8.206   2.748
66850W        W26144  22.099  36.999   3.301
66851W        W26145   5.228   4.836   3.178
66852W        W26146  36.026  13.183   3.665
66853W        W26147  15.734  19.065   4.759
66854W        W26148   6.232   7.705  14.315
66855W        W26149  31.040  42.849   4.299
66856W        W26150  36.488  28.604   2.663
66857W        W26151  11.184  24.645  11.528
66858W        W26152  34.911  34.397  14.855
66859W        W26153   3.807  29.476   4.826
66860W        W26154  23.558   7.769  11.569
66861W        W26155  33.902   0.784   3.169
66862W        W26156   7.348  20.668   0.897
66863W        W26157  24.056  26.495   0.950
66864W        W26158  38.860  17.574   4.778
66865W        W26159  20.091  37.336  14.799
66866W        W26160   0.396  20.201  11.006
66867W        W26161   2.786   6.697  14.860
66868W        W26162  30.132  41.946   0.910
66869W        W26163   1.251  10.714   3.646
66870W        W26164  32.569  38.441  14.809
66871W        W26165   3.881   6.325   3.669
66872W        W26166  18.780  41.940   1.340
66873W        W26167  30.503   9.852   2.268
66874W        W26168  18.281  35.938   1.819
66875W        W26169  44.897  23.223  13.012
66876W        W26170  26.173   7.178   0.800
66877W        W26171  37.913  33.107  14.457
66878W        W26172  41.878   7.748  10.895
66879W        W26173  34.472  17.092  13.330
66880W        W26174  37.045  28.673  14.326
66881W        W26175   9.662  32.433   2.833
66882W        W26176  13.655   6.725   2.722
66883W        W26177  28.511  16.078   4.658
66884W        W26178  28.130  29.027  14.952
66885W        W26179  21.559   2.762   1.246
66886W        W26180  30.466   6.369  12.491
66887W        W26181  44.000  14.706  11.987
66888W        W26182  36.493  27.040  13.917
66889W        W26183  28.606   0.948  11.077
66890W        W26184   7.808  39.021   5.106
66891W        W26185  19.768   5.706   2.748
66892W        W26186  39.899  34.089  14.933
66893W        W26187  42.827  14.290  11.043
66894W        W26188  37.478  29.481  11.389
66895W        W26189  19.768  33.535   3.687
66896W        W26190  40.353  34.470  12.397
66897W        W26191  19.273  44.372  12.390
66898W        W26192  14.174  24.624  14.791
66899W        W26193  33.383   8.317   1.894
66900W        W26194  43.950   8.284  11.442
66901W        W26195  14.718   2.428  14.515
66902W        W26196  15.644  34.100   1.341
66903W        W26197  35.883  29.136  11.431
66904W        W26198  36.586   3.337  11.553
66905W        W26199  39.958   8.276  10.969
66906W        W26200   2.847   9.833   2.730
66907W        W26201  29.099  24.638  13.837
66908W        W26202  36.031   9.701   3.246
66909W        W26203   1.329   7.344   1.923
66910W        W26204  21.147  36.841   1.366
66911W        W26205   2.371   5.858   3.352
66912W        W26206  16.094  37.016   1.767
66913W        W26207  26.459  15.329   3.339
66914W        W26208  24.532  12.855  13.871
66915W        W26209  15.131   1.329  14.910
66916W        W26210  30.599  18.105   2.729
66917W        W26211   5.745  25.590   0.331
66918W        W26212  28.182  10.794  14.417
66919W        W26213  31.459  30.557   0.902
66920W        W26214   2.790  43.414   1.385
66921W        W26215  20.112  32.100   2.720
66922W        W26216  20.249  23.984   4.130
66923W        W26217  14.167  39.441   1.290
66924W        W26218   9.188   0.822  12.947
66925W        W26219  25.483  44.316   0.349
66926W        W26220   1.452  15.593  10.913
66927W        W26221  42.381  31.039   2.752
66928W        W26222  10.270  41.396  11.445
66929W        W26223  27.613  40.853   4.308
66930W        W26224  34.377  36.051   0.774
66931W        W26225  25.651  41.485   2.285
66932W        W26226  11.669  39.387  13.033
66933W        W26227  11.344  32.137   5.298
66934W        W26228  20.179   0.371  14.026
66935W        W26229  35.106  12.335  11.603
66936W        W26230   9.200  17.075   4.244
66937W        W26231  22.246  26.128   0.855
66938W        W26232  16.177  28.990   0.962
66939W        W26233  43.435   9.330   3.181
66940W        W26234   0.415  25.006  12.482
66941W        W26235  19.689  21.151   2.812
66942W        W26236  41.883  26.480   9.939
66943W        W26237  26.183  36.065   4.213
66944W        W26238  31.907  17.124   0.356
66945W        W26239   7.391  35.903  10.503
66946W        W26240  39.360   7.334  14.485
66947W        W26241  13.688  43.317  10.516
66948W        W26242  19.540  34.605  12.832
66949W        W26243  38.891  15.235  12.986
66950W        W26244  41.791  20.552   4.687
66951W        W26245   5.309  14.173  10.974
66952W        W26246  21.028   4.698  14.847
66953W        W26247  16.182  29.569   0.418
66954W        W26248  27.102  33.064  11.511
66955W        W26249  43.962  25.064   4.712
66956W        W26250  24.121  31.084  11.894
66957W        W26251  10.647  28.557  11.905
66958W        W26252   6.238  43.379  10.422
66959W        W26253   9.322  12.663   2.179
66960W        W26254  29.650  30.543   2.237
66961W        W26255  39.997  14.280  10.920
66962W        W26256  29.619  34.945  11.112
66963W        W26257   1.825  42.829   5.317
66964W        W26258  14.334  22.620   3.842
66965W        W26259  20.602  29.488  12.451
66966W        W26260  14.724  40.903  13.008
66967W        W26261   6.333  27.053  10.496
66968W        W26262   0.934  15.095  14.366
66969W        W26263  12.758  42.494   2.880
66970W        W26264   2.761   8.794   2.842
66971W        W26265  27.132  29.653  13.839
66972W        W26266  33.985  19.145  10.947
66973W        W26267   4.791  30.923  12.826
66974W        W26268  21.549  39.007   3.743
66975W        W26269   7.835  16.117  14.987
66976W        W26270  25.579  20.764   0.926
66977W        W26271  10.188  43.343   1.299
66978W        W26272  35.478  26.026  14.020
66979W        W26273  33.046   7.824  10.406
66980W        W26274  15.146  42.510   1.259
66981W        W26275  39.463  22.628   2.835
66982W        W26276  12.349   7.285  12.429
66983W        W26277  15.206  26.089  14.321
66984W        W26278  18.778  17.304  13.961
66985W        W26279   4.898  28.670  13.831
66986W        W26280  20.252  21.227  14.402
66987W        W26281   6.231  30.975   3.644
66988W        W26282  12.355  34.591  12.428
66989W        W26283  42.455  41.386   4.808
66990W        W26284   2.370  15.824  14.348
66991W        W26285  26.629  12.321   1.267
66992W        W26286   9.833  21.717   3.834
66993W        W26287  24.592   6.738   4.219
66994W        W26288   3.826  36.401   2.755
66995W        W26289  28.117   1.307  12.453
66996W        W26290   5.343  37.056  10.634
66997W        W26291  14.259  38.372  11.100
66998W        W26292   8.664   7.226   4.643
66999W        W26293  44.796  13.349  12.535
67000W        W26294  17.713  16.749   9.947
67001W        W26295  35.879  37.989   3.712
67002W        W26296  21.121  11.793   1.862
67003W        W26297  27.149   5.210  11.982
67004W        W26298   9.710  34.984   4.312
67005W        W26299   4.944  35.870   4.186
67006W        W26300   9.152  15.132  14.798
67007W        W26301  37.984  42.826   3.818
67008W        W26302  38.076  36.590   3.739
67009W        W26303  22.572   5.729   3.357
67010W        W26304  44.291  44.375  13.968
67011W        W26305   9.713   5.771  14.782
67012W        W26306  16.751   0.465  13.385
67013W        W26307  28.183  21.572  11.454
67014W        W26308  11.719  10.278   4.286
67015W        W26309  44.004  38.846  13.543
67016W        W26310   3.863  35.393   2.841
67017W        W26311   2.778  11.772  12.428
67018W        W26312  18.560  32.564   2.360
67019W        W26313  21.216  14.665   0.476
67020W        W26314  34.114  14.736   3.259
67021W        W26315  27.519   6.802   1.357
67022W        W26316   1.452  37.370  10.950
67023W        W26317  14.619  40.487  13.434
67024W        W26318  14.179   3.315   3.682
67025W        W26319  13.708   9.273   4.685
67026W        W26320   7.302  23.521  10.099
67027W        W26321   1.413  33.613   2.218
67028W        W26322  20.267  20.044   5.147
67029W        W26323  41.381  39.027   0.968
67030W        W26324  17.234  21.262   1.429
67031W        W26325  10.807   8.733   0.466
67032W        W26326  31.928  23.657   4.730
67033W        W26327  23.063  22.522   0.451
67034W        W26328  27.941  26.677  12.534
67035W        W26329  16.119  25.470   1.874
67036W        W26330   6.723  21.592  11.421
67037W        W26331  29.472  31.467  13.436
67038W        W26332  13.130  33.588  12.454
67039W        W26333  35.105  23.620  13.463
67040W        W26334  43.971  10.847  10.532
67041W        W26335   6.900  20.749   3.163
67042W        W26336  19.593  30.923   5.273
67043W        W26337  38.863  31.544  14.957
67044W        W26338  42.923  25.028  13.792
67045W        W26339  15.654  25.713   1.874
67046W        W26340  30.523  33.983  14.466
67047W        W26341  13.180  26.979  12.491
67048W        W26342  23.068  31.117   1.837
67049W        W26343   6.761  33.482  13.051
67050W        W26344  42.786  40.875   3.677
67051W        W26345  17.734   9.797  10.482
67052W        W26346  26.168  43.442  11.375
67053W        W26347   7.857  40.827  11.931
67054W        W26348  34.892  11.624  11.967
67055W        W26349  26.005   9.374  14.511
67056W        W26350  43.328   5.738   0.245
67057W        W26351  41.809  22.510  11.883
67058W        W26352  13.131  30.596   4.256
67059W        W26353  44.314   9.252   2.324
67060W        W26354  27.530  28.589  11.393
67061W        W26355  43.299  10.690   3.283
67062W        W26356  44.434  32.553  14.291
67063W        W26357  14.698  27.019  12.977
67064W        W26358  35.379   0.919  10.587
67065W        W26359   2.940  26.703  11.577
67066W        W26360   7.183  20.243   0.844
67067W        W26361  44.754  41.294   3.161
67068W        W26362  36.841   0.475   4.741
67069W        W26363  27.980   6.854   3.829
67070W        W26364  31.057  35.440   1.428
67071W        W26365   2.815  22.526   0.894
67072W        W26366  41.872  39.848   1.741
67073W        W26367  16.788   3.814   4.321
67074W        W26368   6.903  21.668   1.226
67075W        W26369   3.780  26.568  13.458
67076W        W26370  44.495  43.914  13.023
67077W        W26371  10.856  24.568   4.189
67078W        W26372  25.059  44.309  10.534
67079W        W26373   6.689  14.155   3.688
67080W        W26374  32.442  40.996   4.133
67081W        W26375  12.690   6.703  14.886
67082W        W26376  17.657   5.245   1.311
67083W        W26377  22.613  29.439   1.424
67084W        W26378   7.188  41.476   4.738
67085W        W26379   5.339  42.998   3.697
67086W        W26380  31.610  43.867  10.506
67087W        W26381   1.383   3.777   0.865
67088W        W26382  23.631  39.944   0.339
67089W        W26383  38.418  34.430  14.280
67090W        W26384  11.338  43.893   2.765
67091W        W26385  26.175  31.965  11.457
67092W        W26386  30.068  37.994   2.327
67093W        W26387  36.347  36.963  13.960
67094W        W26388  19.742  29.510   1.843
67095W        W26389  16.627   3.877  14.969
67096W        W26390  41.914  35.968  12.000
67097W        W26391  42.414  14.238  14.956
67098W        W26392   1.375  44.917   1.708
67099W        W26393  23.530  21.069  14.319
67100W        W26394  41.503  28.640  14.987
67101W        W26395  19.112  31.524  11.440
67102W        W26396  15.169   2.236  11.020
67103W        W26397  39.849  23.021   3.643
67104W        W26398  36.556  40.350  14.454
67105W        W26399   9.682   8.400   1.436
67106W        W26400   2.455   8.705   1.704
67107W        W26401  28.671  25.158   1.324
67108W        W26402  34.902  25.658   4.343
67109W        W26403   5.693  42.980   0.278
67110W        W26404   0.926   5.324   2.875
67111W        W26405   9.392  32.422  11.058
67112W        W26406  29.938  25.676  13.957
67113W        W26407  29.616  33.079  14.444
67114W        W26408  29.583  10.632   1.789
67115W        W26409  13.145  37.853  11.022
67116W        W26410   4.774  30.937  13.856
67117W        W26411   8.792  16.626   2.288
67118W        W26412  34.959   6.684   0.477
67119W        W26413  21.231  24.671   1.812
67120W        W26414   7.234  30.056   9.934
67121W        W26415  16.748  39.055   2.708
67122W        W26416  14.640  24.144   3.657
67123W        W26417  21.106  21.233  11.104
67124W        W26418  31.032  32.926   4.660
67125W        W26419  24.159  22.107  13.870
67126W        W26420   8.260  37.415   2.677
67127W        W26421  44.272  35.500  14.499
67128W        W26422   7.342  34.508   4.276
67129W        W26423  31.580  44.359  13.851
67130W        W26424  35.942  17.228   4.240
67131W        W26425  25.635  33.536   0.880
67132W        W26426  39.932  24.678  12.907
67133W        W26427   9.210  11.866  14.471
67134W        W26428   9.735   0.280  12.397
67135W        W26429  18.787  41.397  12.502
67136W        W26430  19.670  26.599   0.333
67137W        W26431  31.053  32.891  12.968
67138W        W26432   8.338  23.180   3.371
67139W        W26433   8.382  20.755  11.445
67140W        W26434  40.830  43.008  11.492
67141W        W26435  15.224  34.571   1.825
67142W        W26436  44.291  22.704  11.859
67143W        W26437   9.773  22.997   2.790
67144W        W26438   4.428  27.066   4.160
67145W        W26439  26.037  16.695  10.990
67146W        W26440   6.906  41.007   4.836
67147W        W26441  15.769   2.244  10.904
67148W        W26442  21.216  34.987  10.554
67149W        W26443  28.541   8.693  10.940
67150W        W26444  35.448  31.107  11.947
67151W        W26445   8.163  20.156   3.766
67152W        W26446  13.652  43.880   4.201
67153W        W26447  14.148  17.284  10.960
67154W        W26448   1.481   5.425  12.397
67155W        W26449  11.623  10.692   3.756
67156W        W26450  41.833  25.518  11.970
67157W        W26451  40.885  16.122  12.390
67158W        W26452   2.334  15.807  14.766
67159W        W26453  44.406  24.986   1.260
67160W        W26454  38.819  31.407  13.940
67161W        W26455   2.800  34.055  13.535
67162W        W26456   2.399  23.227  14.814
67163W        W26457  38.028   1.403  13.902
67164W        W26458  16.192  32.448  11.401
67165W        W26459  19.726  27.121  10.406
67166W        W26460   3.927  14.146  14.784
67167W        W26461  33.947   4.337  14.853
67168W        W26462  14.727   1.907  11.440
67169W        W26463  18.720  39.401  14.981
67170W        W26464   1.875   3.396  13.389
67171W        W26465   7.809  30.563  10.486
67172W        W26466  26.021  21.073   1.421
67173W        W26467  10.281  26.500   0.287
67174W        W26468  33.062  18.210  14.446
67175W        W26469  18.746  23.075   3.777
67176W        W26470  13.655  36.083  10.946
67177W        W26471  18.249  33.914  14.421
67178W        W26472   3.866  37.059   1.700
67179W        W26473  25.662   6.280  12.381
67180W        W26474   4.890   1.898   5.304
67181W        W26475  16.294  15.686  14.296
67182W        W26476   9.800  36.009  13.860
67183W        W26477  39.949  18.550  13.896
67184W        W26478   5.875  38.048  14.452
67185W        W26479  32.518   6.779   0.450
67186W        W26480  40.318  19.197  11.378
67187W        W26481   0.767  14.666   1.448
67188W        W26482  28.047  18.769  13.825
67189W        W26483  38.050  39.363  12.090
67190W        W26484  31.440   6.883  10.958
67191W        W26485   9.778  21.131  10.410
67192W        W26486  43.828  19.108   3.325
67193W        W26487  35.408  35.958   4.627
67194W        W26488  24.682  24.545  11.874
67195W        W26489  17.647  33.896  14.510
67196W        W26490  22.026  34.023  14.877
67197W        W26491  23.573   2.849   1.268
67198W        W26492   9.875  35.563  11.427
67199W        W26493  31.609  23.549   0.807
67200W        W26494  10.313  13.684  11.426
67201W        W26495  32.622  41.393  10.927
67202W        W26496  41.403  42.838  12.834
67203W        W26497  23.537  16.808  14.424
67204W        W26498  33.613  42.951   4.603
67205W        W26499  40.528   0.289  12.064
67206W        W26500  13.608  17.696  10.436
67207W        W26501  33.398   5.439  12.458
67208W        W26502  19.741   8.861  13.542
67209W        W26503  20.193  18.641  11.469
67210W        W26504  27.610  34.374   2.187
67211W        W26505  35.021  13.227  12.405
67212W        W26506  41.337  27.974   1.409
67213W        W26507  30.109  30.115   2.890
67214W        W26508  23.028  10.740  11.938
67215W        W26509  37.566  24.976   0.262
67216W        W26510  15.795  34.571   1.438
67217W        W26511   0.252  15.818   4.243
67218W        W26512  22.208   0.838   4.799
67219W        W26513  20.554  29.947   0.270
67220W        W26514  11.806  23.672   1.391
67221W        W26515  13.191   1.243   0.279
67222W        W26516  15.615  20.597  14.981
67223W        W26517  25.530  29.658   2.193
67224W        W26518  32.571  43.271  12.513
67225W        W26519  16.683  22.730  11.462
67226W        W26520  33.536  39.416  12.416
67227W        W26521   1.268  44.868  12.882
67228W        W26522  22.070  40.430  13.335
67229W        W26523  17.159  26.069  13.904
67230W        W26524  25.484  24.574   4.352
67231W        W26525  40.469  10.835  14.437
67232W        W26526  38.954   8.781  10.020
67233W        W26527   9.841   7.722  12.898
67234W        W26528  10.763  43.309  13.469
67235W        W26529   2.279   5.703   2.776
67236W        W26530  27.506  30.975  12.019
67237W        W26531  13.329  20.163   2.857
67238W        W26532  14.761   8.302   4.192
67239W        W26533  12.125   1.870   0.937
67240W        W26534   3.453   0.948   2.752
67241W        W26535  38.495  30.643  10.420
67242W        W26536   5.865  18.087   1.786
67243W        W26537   5.767   0.939  13.426
67244W        W26538  41.405   8.190   4.756
67245W        W26539  42.439  33.874   2.232
67246W        W26540   5.311   6.250  10.998
67247W        W26541   3.423   7.205  11.045
67248W        W26542  41.868  17.617  14.843
67249W        W26543  24.626  36.004   1.714
67250W        W26544  26.457   3.350   0.739
67251W        W26545  16.267  42.287  11.492
67252W        W26546  30.486  17.069   4.612
67253W        W26547   7.853  14.814  13.401
67254W        W26548   3.753   6.815  11.072
67255W        W26549  37.896  27.146  12.974
67256W        W26550   4.358  44.898   1.225
67257W        W26551  13.786  37.022   3.308
67258W        W26552  13.765   1.847   1.438
67259W        W26553  43.927  23.621  10.932
67260W        W26554  17.687  11.139   3.718
67261W        W26555   6.894  42.808   3.649
67262W        W26556  24.176  18.644   4.186
67263W        W26557   9.887  44.854   0.318
67264W        W26558  11.709  20.657   2.246
67265W        W26559  39.395  30.918  13.321
67266W        W26560   7.378  44.963   5.156
67267W        W26561   0.869  31.544   1.859
67268W        W26562  28.122   7.810   2.278
67269W        W26563  27.460  43.821  11.973
67270W        W26564  24.980  35.996  11.494
67271W        W26565  44.782  34.073  11.431
67272W        W26566   8.882  19.629  11.463
67273W        W26567  13.155  14.161   0.882
67274W        W26568   4.296  10.180  10.564
67275W        W26569  11.130  37.395   1.742
67276W        W26570   1.391  12.352   3.162
67277W        W26571  15.297  21.713  12.923
67278W        W26572  15.813  27.047   4.625
67279W        W26573   9.204  42.954  11.507
67280W        W26574  29.006  39.048   1.823
67281W        W26575  34.509  32.091  11.577
67282W        W26576   9.660  32.967   9.560
67283W        W26577  17.646  41.502  14.784
67284W        W26578  36.036  43.306  14.416
67285W        W26579  35.602  10.164   0.421
67286W        W26580  33.945  35.409   4.819
67287W        W26581  44.945   3.218   5.257
67288W        W26582  34.046  21.094   2.221
67289W        W26583  34.011  26.118  10.500
67290W        W26584  42.524  21.155   3.817
67291W        W26585  16.759   1.836   0.899
67292W        W26586  31.404   9.196  12.861
67293W        W26587  42.891  40.911   2.394
67294W        W26588   2.266  27.500  13.966
67295W        W26589  19.599  14.195  12.882
67296W        W26590  12.228   7.262  10.487
67297W        W26591  42.980  25.040   4.278
67298W        W26592  31.917  17.272   2.230
67299W        W26593  42.421   3.347  11.546
67300W        W26594  35.024  22.620   1.876
67301W        W26595  13.734  25.597  14.895
67302W        W26596  23.496  43.485   1.246
67303W        W26597  20.561   0.304   0.848
67304W        W26598  16.597  31.930   4.136
67305W        W26599   6.922  37.459   4.271
67306W        W26600  41.802   3.910  12.939
67307W        W26601  33.972  13.671   1.372
67308W        W26602  17.626   0.394  13.910
67309W        W26603  34.373   4.785   2.858
67310W        W26604  10.292   2.863   2.827
67311W        W26605   0.424  26.576  12.979
67312W        W26606  30.530   7.177  14.324
67313W        W26607  38.406  29.991   2.209
67314W        W26608  23.730  33.933   4.716
67315W        W26609   9.200   0.390  10.903
67316W        W26610  29.037  27.012   1.897
67317W        W26611  40.800  26.100  13.915
67318W        W26612   1.405   3.915   3.755
67319W        W26613  12.622  27.580   3.830
67320W        W26614  27.993  33.887  13.829
67321W        W26615  41.375   5.836  13.524
67322W        W26616  30.940  31.937   0.736
67323W        W26617  41.448  41.002   4.208
67324W        W26618  17.107  40.963   3.833
67325W        W26619   4.809  22.189  13.430
67326W        W26620  44.452   0.338  14.332
67327W        W26621   3.854   0.462   4.726
67328W        W26622   8.699  23.523  13.884
67329W        W26623  43.319  19.067   1.219
67330W        W26624  38.895  38.012   3.329
67331W        W26625  10.755  30.458   2.730
67332W        W26626  41.834  15.163   0.791
67333W        W26627  14.103  43.365   0.803
67334W        W26628  31.419  29.064  14.461
67335W        W26629   3.812  14.313  14.291
67336W        W26630  44.926  16.731   4.327
67337W        W26631  28.169   3.426  14.456
67338W        W26632  26.456  23.670  10.614
67339W        W26633   0.370  31.034  10.541
67340W        W26634  31.907  24.020   2.324
67341W        W26635  20.756  10.352   0.356
67342W        W26636  32.532   8.316   9.567
67343W        W26637  14.291   3.936  11.048
67344W        W26638  16.135  31.994   4.245
67345W        W26639  37.972  39.360   1.308
67346W        W26640   8.701  44.924   5.319
67347W        W26641  34.462  11.679  13.055
67348W        W26642  42.414  17.718   3.228
67349W        W26643  13.676  42.927   3.306
67350W        W26644  34.587  40.950  12.471
67351W        W26645   6.841  39.556   1.361
67352W        W26646  30.607   5.228  10.592
67353W        W26647   9.198  12.184   1.790
67354W        W26648   6.771  23.639  12.951
67355W        W26649  33.522  37.351  14.896
67356W        W26650  38.451   0.891   1.384
67357W        W26651  25.089   8.742   0.444
67358W        W26652  15.324  34.087   3.325
67359W        W26653  20.727   7.338   4.159
67360W        W26654   2.431  15.136  10.612
67361W        W26655  25.119   0.773  10.952
67362W        W26656  41.403  40.374   0.884
67363W        W26657  16.175  34.919   3.665
67364W        W26658  21.174  25.503  14.936
67365W        W26659   8.719   0.770   1.876
67366W        W26660  16.587  41.909   1.759
67367W        W26661  33.588  16.812   2.714
67368W        W26662  37.446  43.275   0.322
67369W        W26663   5.920  33.388  10.026
67370W        W26664   1.372  42.453   3.725
67371W        W26665  34.611   4.903   4.152
67372W        W26666  12.251  13.731  11.982
67373W        W26667  38.964  41.497   4.131
67374W        W26668   6.720  44.762   2.710
67375W        W26669  16.127   4.430   1.758
67376W        W26670  43.398  31.113   1.322
67377W        W26671  28.573  25.679   0.401
67378W        W26672  26.583  21.699   1.302
67379W        W26673  12.178   5.925  13.910
67380W        W26674  16.293   4.924  13.317
67381W        W26675  29.611   8.855   0.787
67382W        W26676  19.229  21.201   1.342
67383W        W26677  11.338  43.799  13.884
67384W        W26678  35.584  14.228  12.394
67385W        W26679  40.376   0.391  13.902
67386W        W26680  35.060  40.480   4.270
67387W        W26681   3.289  39.908  13.365
67388W        W26682  23.521  39.523   1.774
67389W        W26683  27.606  22.589  11.959
67390W        W26684  22.196  18.678  10.571
67391W        W26685  40.416  44.812  12.849
67392W        W26686  30.648  18.575   3.675
67393W        W26687  25.499  12.701   4.630
67394W        W26688  27.999  34.474  11.906
67395W        W26689  41.890  35.050   2.744
67396W        W26690  15.640  38.502  10.525
67397W        W26691  31.531  29.444  12.852
67398W        W26692  44.446  15.590   2.848
67399W        W26693   3.862  24.093   0.890
67400W        W26694  23.575  31.106   0.903
67401W        W26695  41.434   1.761   3.188
67402W        W26696   3.823   4.706   4.688
67403W        W26697  43.485  40.904  13.983
67404W        W26698  33.508  14.651   4.667
67405W        W26699  38.942   9.841  13.021
67406W        W26700  29.949  24.561   1.845
67407W        W26701  29.057  15.134  11.431
67408W        W26702  19.200   0.270  13.359
67409W        W26703  17.201  23.086  10.506
67410W        W26704  39.985  17.229  11.953
67411W        W26705  22.722  28.524  10.557
67412W        W26706  41.954  31.517  13.410
67413W        W26707  24.103  24.153   1.346
67414W        W26708  30.960  30.507   5.095
67415W        W26709  13.633  22.502   9.921
67416W        W26710  27.159  22.178   1.892
67417W        W26711  38.548   9.878  14.516
67418W        W26712   9.864   9.749  14.827
67419W        W26713  19.061  32.494   2.231
67420W        W26714  33.390  32.476   1.272
67421W        W26715   6.415  30.575  11.390
67422W        W26716   4.892  18.622  12.078
67423W        W26717   1.393  31.522  13.340
67424W        W26718  30.562  29.014   2.784
67425W        W26719  35.073   4.427  14.434
67426W        W26720  18.193  29.981  12.373
67427W        W26721  16.602   3.289   2.312
67428W        W26722  34.563  38.551  13.389
67429W        W26723   7.239  44.448   2.787
67430W        W26724  35.980  33.421  14.353
67431W        W26725  42.783   2.880   3.259
67432W        W26726   2.936  41.464  13.434
67433W        W26727  23.585   8.370   0.947
67434W        W26728  28.572  26.459   0.837
67435W        W26729  43.781  33.928  10.495
67436W        W26730  37.889  38.846   4.140
67437W        W26731  31.903  28.548   0.943
67438W        W26732  18.564  16.725   4.723
67439W        W26733  26.126  26.640  10.533
67440W        W26734  28.059   6.283  11.101
67441W        W26735   1.443  23.225   4.346
67442W        W26736  17.632  18.110   3.212
67443W        W26737  34.018  38.499   4.678
67444W        W26738   3.711   5.859  13.427
67445W        W26739  36.967  38.838  14.029
67446W        W26740  20.629  10.662  10.000
67447W        W26741  44.316  32.946  12.987
67448W        W26742  27.569   3.844   4.187
67449W        W26743   5.786  42.995   0.746
67450W        W26744   4.400  37.000  10.553
67451W        W26745  18.155  16.269  13.442
67452W        W26746  15.308  43.331  10.900
67453W        W26747  44.857  24.715  11.108
67454W        W26748  29.154   0.870   2.224
67455W        W26749  34.398  18.554  12.500
67456W        W26750   9.733  29.069   0.284
67457W        W26751  34.593  15.168  12.375
67458W        W26752  15.630  29.462   0.845
67459W        W26753  23.609  18.159   3.641
67460W        W26754  36.412   1.400   2.295
67461W        W26755   1.295  13.105   2.308
67462W        W26756  44.333  17.120   5.211
67463W        W26757  24.167   2.888  13.929
67464W        W26758  13.824  35.935  12.979
67465W        W26759  38.023   8.260   2.843
67466W        W26760  22.020   3.380   3.812
67467W        W26761  38.555  35.093  12.554
67468W        W26762  14.127  19.744  11.912
67469W        W26763   7.247  40.036   2.838
67470W        W26764  42.351  19.064  11.524
67471W        W26765   4.277   9.734   4.340
67472W        W26766   6.393  22.118   4.145
67473W        W26767   2.244   6.904  14.964
67474W        W26768  13.328  34.082   4.206
67475W        W26769   7.765   2.332  14.418
67476W        W26770  19.176  14.119  12.349
67477W        W26771  18.621  41.996  12.909
67478W        W26772  19.147  38.433  12.489
67479W        W26773   5.908  28.563  14.983
67480W        W26774  33.915  26.600   1.379
67481W        W26775  33.536  44.969   4.231
67482W        W26776  44.339  26.198  12.047
67483W        W26777   2.733  34.526  10.928
67484W        W26778  40.921   9.679  10.558
67485W        W26779  22.689   4.251  12.920
67486W        W26780  21.034   5.193  10.542
67487W        W26781  17.274   9.320   1.763
67488W        W26782  22.080  35.933  12.401
67489W        W26783  19.082  19.620   0.911
67490W        W26784  39.321   2.442   3.847
67491W        W26785  33.875   5.824   3.282
67492W        W26786  19.696  17.069   5.117
67493W        W26787  39.928  33.057  11.607
67494W        W26788  21.053  17.108  13.481
67495W        W26789  30.063  14.312   2.780
67496W        W26790  29.029  11.734   1.747
67497W        W26791  36.519  32.026   0.465
67498W        W26792  26.533  21.687   0.258
67499W        W26793  39.855  23.560  13.345
67500W        W26794  33.527  40.869   0.928
67501W        W26795  12.667  28.114   4.208
67502W        W26796   6.332   3.330  13.535
67503W        W26797   3.246  21.083  13.458
67504W        W26798   5.369  21.594  13.392
67505W        W26799  20.656   3.265  13.490
67506W        W26800  42.995  42.815  11.034
67507W        W26801   3.744  30.004  13.336
67508W        W26802  24.090  40.468  12.858
67509W        W26803  41.538  38.457   2.662
67510W        W26804  12.264  26.602  10.633
67511W        W26805  12.780  12.686  11.914
67512W        W26806   5.836  43.382   3.229
67513W        W26807  37.458   8.376   1.313
67514W        W26808  34.450  10.286  12.482
67515W        W26809  37.380  33.111   3.156
67516W        W26810  17.122  11.163   5.182
67517W        W26811  38.898   8.201   0.916
67518W        W26812  39.893  33.398   2.343
67519W        W26813  42.325   7.307  11.986
67520W        W26814   0.774  20.201   0.728
67521W        W26815  36.941  11.684   1.310
67522W        W26816  16.789  36.054   2.362
67523W        W26817   9.696  23.547  10.497
67524W        W26818  36.476  44.836  11.409
67525W        W26819  34.424  12.124  14.804
67526W        W26820  34.389  19.632   0.309
67527W        W26821  18.600  23.150   2.778
67528W        W26822  27.645  23.592   4.750
67529W        W26823   1.332  30.618  14.898
67530W        W26824  13.203  34.938   1.896
67531W        W26825  27.468  37.446  10.515
67532W        W26826  36.947  29.436   3.682
67533W        W26827  36.466  43.897  12.383
67534W        W26828  20.631   9.171  11.606
67535W        W26829   2.310   5.828   1.719
67536W        W26830  26.148  11.149  10.970
67537W        W26831  42.014   7.234   2.791
67538W        W26832  11.667   1.792  13.848
67539W        W26833  14.274  35.396   4.335
67540W        W26834   8.345   8.173  12.490
67541W        W26835  16.778  40.997  12.955
67542W        W26836  20.088   4.802   2.380
67543W        W26837  42.974  16.127   1.848
67544W        W26838  40.857   3.284   1.804
67545W        W26839  29.069  25.669   2.791
67546W        W26840   9.837  37.954  11.613
67547W        W26841  44.331  37.508   5.267
67548W        W26842  14.153  34.557   3.798
67549W        W26843  33.432  12.154  13.546
67550W        W26844  21.521   1.372  10.456
67551W        W26845  43.469  33.415  12.366
67552W        W26846  43.449  18.199  13.844
67553W        W26847  31.073   9.861   3.695
67554W        W26848  28.469  25.583  13.970
67555W        W26849  18.787   2.899  13.001
67556W        W26850  36.024  14.711   2.186
67557W        W26851  20.174  21.612   3.685
67558W        W26852  10.216   9.873   3.830
67559W        W26853   2.795  22.530   1.296
67560W        W26854  24.683  20.205  11.058
67561W        W26855  18.686  20.735   1.845
67562W        W26856  26.984  28.554  12.456
67563W        W26857  38.853  19.560  14.440
67564W        W26858  43.316  43.900  11.432
67565W        W26859  44.435  16.657   9.980
67566W        W26860  33.084   2.802   1.356
67567W        W26861  14.801  24.131  13.024
67568W        W26862  10.172  14.661   3.655
67569W        W26863  25.122   4.357  12.529
67570W        W26864   7.867  28.037  11.445
67571W        W26865  10.215   3.298  10.483
67572W        W26866   0.816  13.259   0.250
67573W        W26867  35.578  35.409   4.228
67574W        W26868  38.074  20.565  11.501
67575W        W26869  26.143  35.918  14.973
67576W        W26870  43.431  38.425  10.606
67577W        W26871  44.498   1.956  13.911
67578W        W26872  21.071  34.097  14.998
67579W        W26873   7.712  28.977   2.685
67580W        W26874   3.831   5.916   4.740
67581W        W26875  18.620  29.957  13.500
67582W        W26876   0.334  16.756   0.807
67583W        W26877  10.787  20.594  13.966
67584W        W26878   8.889  37.530   1.703
67585W        W26879  13.752   0.419  12.062
67586W        W26880  44.407  34.488   0.750
67587W        W26881   9.695  24.079  14.947
67588W        W26882  33.611  28.476  14.914
67589W        W26883  25.033  26.703  10.456
67590W        W26884  31.636  43.505   4.751
67591W        W26885  14.681  10.339   2.197
67592W        W26886  29.012  14.651   4.681
67593W        W26887   0.402  42.905   2.877
67594W        W26888  12.752  33.592  10.113
67595W        W26889  14.602  15.817  14.966
67596W        W26890   0.440   6.814   3.727
67597W        W26891  29.638  23.111  14.793
67598W        W26892  14.106  39.981  11.869
67599W        W26893  32.399  11.251  11.572
67600W        W26894  18.168  25.521   0.950
67601W        W26895  18.083   1.397  12.428
67602W        W26896  33.519  26.080  12.968
67603W        W26897  43.305  44.417  10.616
67604W        W26898  33.397  43.918  10.916
67605W        W26899  27.465   0.321  14.288
67606W        W26900  31.925  33.004  13.443
67607W        W26901  44.399  39.835   3.790
67608W        W26902   7.306  43.326  14.015
67609W        W26903  39.523   9.702   4.684
67610W        W26904   3.300  15.611  13.464
67611W        W26905  37.551   1.911   3.727
67612W        W26906  43.981  20.049  11.485
67613W        W26907  25.622  26.521   1.232
67614W        W26908   7.706   9.712   1.794
67615W        W26909  39.364   8.883   9.940
67616W        W26910  27.021   0.484  14.842
67617W        W26911  25.659  29.082  14.818
67618W        W26912   6.896  33.091   0.358
67619W        W26913  35.466  13.283   0.754
67620W        W26914  20.691  27.568   1.900
67621W        W26915  40.393  36.428   3.711
67622W        W26916   8.356  10.681   1.403
67623W        W26917  41.809   9.297  10.542
67624W        W26918  10.215  39.429   3.832
67625W        W26919   4.733  27.647  11.510
67626W        W26920  36.962  13.278  10.585
67627W        W26921  29.435  40.813  14.417
67628W        W26922  35.933  13.186  10.556
67629W        W26923  44.794  25.555  12.899
67630W        W26924  14.606  29.544  10.909
67631W        W26925   9.874   8.723  11.099
67632W        W26926   4.322  27.571  10.968
67633W        W26927   1.391  35.600   0.792
67634W        W26928   9.177  16.636   3.694
67635W        W26929  38.004  21.084  14.282
67636W        W26930   9.728  14.612   3.858
67637W        W26931  10.643  17.740  12.467
67638W        W26932  38.445  36.374   4.256
67639W        W26933  10.777  19.143   2.678
67640W        W26934  19.724  28.523  11.091
67641W        W26935  15.298  21.143  14.296
67642W        W26936   8.691  10.188   9.977
67643W        W26937  35.439  11.755  12.036
67644W        W26938  21.639  36.086   5.177
67645W        W26939  43.963  41.891   3.737
67646W        W26940  20.630  25.970  13.837
67647W        W26941  15.638  11.715  13.991
67648W        W26942   5.757  14.100  11.377
67649W        W26943  39.454   4.449  12.353
67650W        W26944   1.770   7.795   4.665
67651W        W26945  19.116   7.742  10.891
67652W        W26946  44.845  22.528  14.836
67653W        W26947  10.147  16.143  12.436
67654W        W26948  11.157  25.158   3.852
67655W        W26949   3.282  19.242  10.891
67656W        W26950  23.166  24.697   4.242
67657W        W26951   4.239  39.924  13.366
67658W        W26952   0.745  30.048   1.696
67659W        W26953  10.713  38.338  13.813
67660W        W26954  30.465  31.643   2.279
67661W        W26955  32.441  16.738  11.548
67662W        W26956  44.904  21.059   3.353
67663W        W26957  11.634  20.192   1.301
67664W        W26958  39.032  39.333   3.358
67665W        W26959  37.483  30.542  14.385
67666W        W26960  39.527  37.458   3.180
67667W        W26961  38.071  24.003  13.842
67668W        W26962  33.467  27.674  12.832
67669W        W26963   1.761  24.018   1.375
67670W        W26964  34.497  25.028  12.511
67671W        W26965  24.127  24.676   0.439
67672W        W26966  33.903   9.188  14.759
67673W        W26967  26.160  28.138  13.062
67674W        W26968   2.321   5.849   2.277
67675W        W26969  39.970   1.836   2.363
67676W        W26970  24.107  19.543   2.330
67677W        W26971  38.429  24.009  10.435
67678W        W26972  34.031  26.182  13.490
67679W        W26973  12.695  27.144  10.474
67680W        W26974  29.158   4.356  11.522
67681W        W26975   8.352  21.632   0.243
67682W        W26976   4.738   1.875   3.798
67683W        W26977  27.596  19.537  10.518
67684W        W26978   0.454  35.422   1.302
67685W        W26979  35.940  16.682  12.356
67686W        W26980  27.068  24.135  10.971
67687W        W26981  15.786   4.922  10.929
67688W        W26982  18.097  24.512   4.722
67689W        W26983   2.797  30.426   3.352
67690W        W26984  16.766   4.357  14.030
67691W        W26985  32.581  14.671   3.668
67692W        W26986   0.854  12.306  14.860
67693W        W26987   4.242   9.855  11.909
67694W        W26988  27.181  35.926   0.938
67695W        W26989  15.246  20.035   1.723
67696W        W26990  37.439  19.662  11.907
67697W        W26991  20.028  24.086  10.918
67698W        W26992  30.432  21.214  14.924
67699W        W26993  41.527  11.189   0.414
67700W        W26994  19.684  38.890   3.831
67701W        W26995  34.414  32.510   2.796
67702W        W26996  21.645   4.249  14.347
67703W        W26997  31.641   1.470  11.410
67704W        W26998  17.214   6.765  12.363
67705W        W26999  35.874  21.676   1.331
67706W        W27000  20.660  13.286   2.340
67707W        W27001  29.942   8.851   0.447
67708W        W27002  17.687   4.238   4.639
67709W        W27003  18.725  19.211   4.278
67710W        W27004  34.020  22.584  13.910
67711W        W27005  16.574   1.420   1.326
67712W        W27006   7.816  10.338   2.281
67713W        W27007  19.548  14.291   4.671
67714W        W27008  35.415  39.476  11.905
67715W        W27009  16.788   9.685   1.273
67716W        W27010  30.149   2.330   1.925
67717W        W27011   3.454   7.297   3.363
67718W        W27012   5.796   6.378   0.962
67719W        W27013  24.105  41.387  10.442
67720W        W27014   3.456  14.256   4.708
67721W        W27015  10.264  37.376  12.532
67722W        W27016   3.873  18.609   4.776
67723W        W27017  36.026  33.612  11.887
67724W        W27018  20.094  26.075  12.853
67725W        W27019  40.886  15.231   3.709
67726W        W27020   8.389  44.494   4.169
67727W        W27021  14.217   6.357  12.521
67728W        W27022  26.131  17.140   3.738
67729W        W27023  33.003  10.692  12.954
67730W        W27024  22.505  38.369   0.278
67731W        W27025  16.608  40.812  14.804
67732W        W27026   6.261   5.388  10.926
67733W        W27027  16.812   3.427   2.858
67734W        W27028   3.796  18.133  13.357
67735W        W27029  20.178  36.382  14.833
67736W        W27030   9.727  11.360  13.455
67737W        W27031  20.092   8.174   1.832
67738W        W27032  36.542  18.550  12.925
67739W        W27033  13.619  39.387   0.846
67740W        W27034   6.357  23.023   0.379
67741W        W27035  17.655  42.477  14.415
67742W        W27036  17.667  15.745  12.392
67743W        W27037  28.035  40.468   1.295
67744W        W27038  10.793  21.060   3.344
67745W        W27039  30.069   0.843  11.528
67746W        W27040  13.761  40.389   1.794
67747W        W27041  16.698  40.974   3.353
67748W        W27042  44.473  28.154   2.215
67749W        W27043   1.973  42.885  11.084
67750W        W27044  35.512  16.199   1.337
67751W        W27045   0.460  38.503   3.657
67752W        W27046  26.108   7.195  11.083
67753W        W27047  10.251  36.581   5.319
67754W        W27048   1.817  44.908  12.966
67755W        W27049  19.556   3.747   0.825
67756W        W27050   8.891   3.838   2.805
67757W        W27051  33.128   9.332   4.275
67758W        W27052  13.261  35.561   0.420
67759W        W27053  40.313  42.021   4.702
67760W        W27054   8.219  18.183  14.359
67761W        W27055  23.190  33.068   1.828
67762W        W27056  37.961   1.816   4.707
67763W        W27057  29.651  27.068  12.462
67764W        W27058   0.341  32.000  14.275
67765W        W27059  19.098  17.764   1.235
67766W        W27060  23.524  13.235  13.792
67767W        W27061  39.894  13.351   3.726
67768W        W27062  37.436  30.451   3.867
67769W        W27063  25.219  34.452  12.517
67770W        W27064  17.736  41.860   3.201
67771W        W27065  35.497  15.805  14.354
67772W        W27066  36.845   2.808   3.343
67773W        W27067  40.387  35.479   5.607
67774W        W27068  23.725  31.028   2.731
67775W        W27069  40.977  15.087   0.432
67776W        W27070  39.877  28.573  10.968
67777W        W27071  31.925  43.823  13.987
67778W        W27072  14.252  24.565  12.077
67779W        W27073  30.934   6.237  11.465
67780W        W27074  36.024   7.333  13.521
67781W        W27075  31.996   4.924   2.671
67782W        W27076  24.683  31.099   1.316
67783W        W27077  25.555   5.238   0.923
67784W        W27078  12.707  26.480  11.587
67785W        W27079  39.876  38.327   1.712
67786W        W27080  10.854   0.766  12.996
67787W        W27081  35.042   7.383   3.342
67788W        W27082  43.325  41.876   0.943
67789W        W27083  32.536   4.449  12.576
67790W        W27084   7.314  32.568  12.382
67791W        W27085  25.181  26.043   2.738
67792W        W27086  32.595  22.746  10.418
67793W        W27087  26.118  29.925   2.322
67794W        W27088  37.045  33.092  12.557
67795W        W27089  37.474  32.059  14.475
67796W        W27090  19.749   9.696  12.413
67797W        W27091  41.381  21.635   2.186
67798W        W27092  16.619  33.993  11.570
67799W        W27093  12.643   6.426   1.929
67800W        W27094  24.042   7.338   4.198
67801W        W27095   4.923  13.712   1.732
67802W        W27096  43.369  12.254  14.776
67803W        W27097   4.225  41.413  13.537
67804W        W27098  30.585  14.122   4.747
67805W        W27099   2.412  43.867   4.643
67806W        W27100   5.715   5.880   0.942
67807W        W27101   0.960  27.965  11.900
67808W        W27102   0.436  12.612   4.229
67809W        W27103  18.578  25.976  11.433
67810W        W27104  19.079   9.855  12.539
67811W        W27105   1.810   6.789  13.985
67812W        W27106  26.033  40.321   3.280
67813W        W27107   6.752  20.604  12.389
67814W        W27108  16.198  14.798  13.495
67815W        W27109   6.781  27.953  10.939
67816W        W27110  28.677  31.125  12.452
67817W        W27111  44.389  39.996   4.159
67818W        W27112  29.473  11.694  11.483
67819W        W27113   5.309  14.596   4.133
67820W        W27114   7.837  25.191   9.928
67821W        W27115   9.783  39.916  12.500
67822W        W27116  38.946   6.428  11.493
67823W        W27117  24.524  24.126  14.487
67824W        W27118  22.650   3.939  12.544
67825W        W27119  17.578   8.692  12.869
67826W        W27120  37.582  42.465   3.272
67827W        W27121   2.824  39.838  12.450
67828W        W27122   4.319  44.343   1.356
67829W        W27123  29.159  35.587  14.886
67830W        W27124  32.992  14.637   0.903
67831W        W27125  39.939   3.936  14.381
67832W        W27126  15.092  16.607   5.293
67833W        W27127  30.954   1.819   1.212
67834W        W27128  38.069  33.624  11.085
67835W        W27129  19.086  36.022  14.940
67836W        W27130  36.842  38.414  12.992
67837W        W27131  15.247  19.616   4.667
67838W        W27132  20.566  19.256  12.388
67839W        W27133  21.021  26.654  13.397
67840W        W27134   7.296   7.739   4.195
67841W        W27135   3.896   2.419  12.883
67842W        W27136  27.165  10.735   3.824
67843W        W27137  42.863  31.628  13.966
67844W        W27138  11.631  19.139  13.983
67845W        W27139  11.698  30.129   2.298
67846W        W27140  10.809  24.502   2.194
67847W        W27141  32.082  40.490  13.333
67848W        W27142   9.251  30.084   3.258
67849W        W27143  17.220  32.088   4.138
67850W        W27144  42.462  43.516   3.756
67851W        W27145  19.157   5.860   3.704
67852W        W27146  27.978  20.055   3.339
67853W        W27147  31.063  13.153   0.924
67854W        W27148  42.784  32.539   4.197
67855W        W27149  18.122  25.697  11.016
67856W        W27150  11.147  34.469  11.454
67857W        W27151  26.031   1.403   2.255
67858W        W27152  32.925  38.563  11.540
67859W        W27153  12.758  18.083  12.425
67860W        W27154  40.441  37.998  10.938
67861W        W27155  19.557  13.147   2.730
67862W        W27156  40.004  33.567   4.178
67863W        W27157  27.460  30.992  14.489
67864W        W27158  32.390  40.844   4.800
67865W        W27159  39.012  41.839   4.618
67866W        W27160  16.133  33.022  11.119
67867W        W27161  19.166  11.683   0.244
67868W        W27162  11.748   3.743   2.667
67869W        W27163   8.226  44.366  12.998
67870W        W27164  12.616  37.534   4.235
67871W        W27165  10.635  28.970  13.356
67872W        W27166  30.463  43.464   0.429
67873W        W27167  41.960  34.388  10.507
67874W        W27168  30.419  42.284   2.281
67875W        W27169  22.504  27.076  10.561
67876W        W27170  25.666  30.954  13.887
67877W        W27171  28.600  43.501   0.834
67878W        W27172   6.754  12.278   1.923
67879W        W27173   1.853  33.912  11.892
67880W        W27174  21.194  37.849  14.310
67881W        W27175  43.510   2.800   1.223
67882W        W27176  24.651  44.399   4.345
67883W        W27177  22.613   7.760   0.437
67884W        W27178  33.529   5.270  14.862
67885W        W27179  19.084  32.556  12.538
67886W        W27180  41.915   3.892   1.811
67887W        W27181  42.933  19.636   4.652
67888W        W27182  27.531  27.999   2.244
67889W        W27183   0.447   3.806  13.363
67890W        W27184  38.401  24.975  12.442
67891W        W27185  27.144  41.929  12.061
67892W        W27186  33.040  14.248   1.380
67893W        W27187  16.304  33.448   3.181
67894W        W27188   7.875  41.342   1.836
67895W        W27189  28.607   8.782  13.885
67896W        W27190  28.165  38.367   3.298
67897W        W27191  41.905  25.198   3.860
67898W        W27192  30.978  44.299  11.117
67899W        W27193  33.968  35.447   4.271
67900W        W27194  25.020  30.139  13.060
67901W        W27195  29.169  20.274   2.412
67902W        W27196   8.879  16.759  10.413
67903W        W27197  29.616   9.704  11.443
67904W        W27198  36.947   5.905  13.799
67905W        W27199  36.878  20.127  11.391
67906W        W27200   9.296  23.023   4.255
67907W        W27201   7.780  26.154   4.705
67908W        W27202   5.746  28.168   1.419
67909W        W27203  23.094  37.391  10.541
67910W        W27204   8.865  43.826   3.180
67911W        W27205  21.578  35.004  12.969
67912W        W27206  13.267   2.461  14.906
67913W        W27207   5.868  15.174  12.391
67914W        W27208  14.748  33.394   3.803
67915W        W27209  21.731  20.271  12.894
67916W        W27210  37.359  10.164   0.365
67917W        W27211  41.409  28.957   2.851
67918W        W27212   7.312   1.763  13.317
67919W        W27213  14.633  17.773  12.557
67920W        W27214   9.377  10.377  11.877
67921W        W27215  28.504  31.599   4.222
67922W        W27216  25.647  42.002   3.788
67923W        W27217  22.083  15.219   2.665
67924W        W27218  25.477  39.027  10.545
67925W        W27219  40.877   5.268  11.105
67926W        W27220  12.244  15.650  12.902
67927W        W27221   2.741  23.672  11.995
67928W        W27222  19.051  11.855  13.968
67929W        W27223  22.060  23.551  14.783
67930W        W27224  23.224  17.589   3.797
67931W        W27225  11.342  23.506   2.254
67932W        W27226   2.933  20.733   0.405
67933W        W27227   4.412  12.695  12.347
67934W        W27228  44.358  40.519  14.894
67935W        W27229  28.060  25.618   2.875
67936W        W27230  19.182  28.654  13.523
67937W        W27231  39.893  20.719  13.957
67938W        W27232  16.261  42.501   3.283
67939W        W27233   2.956  21.251   3.801
67940W        W27234  16.595  35.550  13.355
67941W        W27235   6.871  31.127   4.241
67942W        W27236   3.351  10.649  12.474
67943W        W27237   6.712   7.793  10.595
67944W        W27238   6.227  30.625  12.949
67945W        W27239  28.958   3.270  12.067
67946W        W27240  16.586  15.791   2.812
67947W        W27241  39.887   6.699   4.828
67948W        W27242  38.419  16.653  11.991
67949W        W27243   2.890  19.755  11.521
67950W        W27244  41.014   5.910  13.813
67951W        W27245  20.178  28.548  10.493
67952W        W27246  22.216  16.640  12.883
67953W        W27247  39.531   4.276   1.828
67954W        W27248  18.576   9.795  14.899
67955W        W27249  44.950   0.820   0.742
67956W        W27250  25.484   7.879  11.890
67957W        W27251  21.212  13.264  12.932
67958W        W27252   2.324   5.376   1.375
67959W        W27253  43.428   7.237   2.322
67960W        W27254  25.511  24.157   3.281
67961W        W27255  17.279  23.202   1.867
67962W        W27256  24.025  31.096   2.898
67963W        W27257  15.193  12.349  13.527
67964W        W27258  43.385  18.733  13.384
67965W        W27259   5.853  32.961   3.184
67966W        W27260  29.441  11.202   2.200
67967W        W27261  10.223  41.493   9.938
67968W        W27262  11.233  33.565  14.318
67969W        W27263  11.158  27.669   0.963
67970W        W27264  17.268  31.021   4.607
67971W        W27265  18.606  44.498   0.905
67972W        W27266  23.144  43.421   4.789
67973W        W27267  11.287  21.107   2.258
67974W        W27268  22.193  13.607  10.642
67975W        W27269  37.885  41.018  10.573
67976W        W27270   2.904  16.120   2.374
67977W        W27271   4.317  36.456   3.710
67978W        W27272   6.823  13.122   1.262
67979W        W27273  16.287  15.256  11.564
67980W        W27274   9.827  35.897   1.867
67981W        W27275  44.441  39.329  14.850
67982W        W27276  36.426  39.503  12.564
67983W        W27277  14.659  40.527   0.908
67984W        W27278  11.737  39.878  14.029
67985W        W27279   6.885  29.437   1.835
67986W        W27280  29.653  22.538  13.948
67987W        W27281   1.387  37.499   1.817
67988W        W27282  21.167  33.947  13.840
67989W        W27283  40.800  43.904  10.433
67990W        W27284  21.250  43.913  13.877
67991W        W27285  32.419   5.764  11.068
67992W        W27286  10.727  15.112  14.496
67993W        W27287  41.425  42.871   4.753
67994W        W27288   8.183  40.331   1.369
67995W        W27289   5.369  35.454  13.872
67996W        W27290   8.282  15.174  13.478
67997W        W27291  26.645  38.534   1.921
67998W        W27292  30.073   6.758   1.375
67999W        W27293  10.158  23.013   4.824
68000W        W27294  43.374  43.471  12.536
68001W        W27295  12.205  22.069   0.443
68002W        W27296   0.954  19.271  14.431
68003W        W27297  18.050   8.655   3.798
68004W        W27298  40.484  20.034   0.811
68005W        W27299  22.669  24.548   0.860
68006W        W27300  19.225  41.448   0.436
68007W        W27301  10.220  32.941  14.497
68008W        W27302  13.615  17.286   1.776
68009W        W27303  11.857   6.415   0.471
68010W        W27304  35.599  31.631  10.515
68011W        W27305  20.697  28.002  14.476
68012W        W27306  32.578   6.796  11.536
68013W        W27307  26.974   6.742  12.441
68014W        W27308  26.611  25.514  14.950
68015W        W27309  33.983   7.857   1.858
68016W        W27310  15.755  12.829  12.373
68017W        W27311  11.779  38.378  13.432
68018W        W27312  39.478  19.657  10.934
68019W        W27313  13.798  19.259   4.235
68020W        W27314  26.033   1.327  11.587
68021W        W27315  35.073  39.065   2.330
68022W        W27316  37.448  10.852  13.363
68023W        W27317   2.407   3.715   1.741
68024W        W27318  27.475  28.547  14.798
68025W        W27319  43.341  38.541   1.249
68026W        W27320   7.849  23.994  10.554
68027W        W27321  13.231  14.760  14.812
68028W        W27322  30.630   1.856  11.049
68029W        W27323  15.110   6.791  14.028
68030W        W27324  40.315  32.011   0.406
68031W        W27325  12.351  34.930   0.404
68032W        W27326  17.068  37.913   1.316
68033W        W27327  17.765  38.835  11.390
68034W        W27328  27.172  44.340   4.645
68035W        W27329  44.443  40.507  12.036
68036W        W27330  25.994  12.629  12.540
68037W        W27331   4.419  19.570   5.239
68038W        W27332  22.007  22.177  14.886
68039W        W27333   0.319  35.872  14.337
68040W        W27334   5.261  14.665   1.375
68041W        W27335  26.089  34.990  12.834
68042W        W27336  24.051   8.322   2.837
68043W        W27337  22.558   0.900  13.805
68044W        W27338  28.150  38.828  12.928
68045W        W27339  37.927  19.602   2.703
68046W        W27340  11.647  34.056  11.416
68047W        W27341  44.800   6.384  10.496
68048W        W27342  11.171  28.080   3.237
68049W        W27343   2.234  34.392  13.851
68050W        W27344   8.330  33.122  11.008
68051W        W27345  26.160  28.131   2.818
68052W        W27346  17.672  32.894   0.291
68053W        W27347  15.764   0.323  13.336
68054W        W27348  29.628  40.917  12.087
68055W        W27349  17.662  20.068  11.903
68056W        W27350   5.885   7.770  11.950
68057W        W27351  23.219  38.472   2.832
68058W        W27352   6.415  21.152   2.680
68059W        W27353  20.245  35.459   2.846
68060W        W27354  23.679  31.578  14.926
68061W        W27355  18.123  26.620   1.902
68062W        W27356  21.586  33.068   3.256
68063W        W27357  41.838  13.599   0.899
68064W        W27358  44.918   9.806  11.410
68065W        W27359  44.758  23.693  14.436
68066W        W27360   6.747  19.589   0.313
68067W        W27361  12.784   9.870   2.712
68068W        W27362  40.854  40.027   1.264
68069W        W27363  27.021  17.789  13.806
68070W        W27364  42.464  23.608   3.710
68071W        W27365  21.593  24.053   2.766
68072W        W27366  19.572  14.704   4.599
68073W        W27367   3.924  10.292  13.869
68074W        W27368  40.920  22.053  11.424
68075W        W27369  43.987  19.539   0.320
68076W        W27370  34.593  27.159  11.944
68077W        W27371  14.285  36.505  13.033
68078W        W27372  26.600  40.890   3.196
68079W        W27373   5.286   1.851  13.534
68080W        W27374  24.653  39.955   3.668
68081W        W27375  31.437  20.645   3.851
68082W        W27376  42.892  36.469  12.437
68083W        W27377  32.547   4.814  11.517
68084W        W27378   1.465  33.390  10.507
68085W        W27379  25.186  23.513  13.916
68086W        W27380  42.924  26.647   3.862
68087W        W27381   8.196  25.492  10.898
68088W        W27382  11.679  24.026  12.524
68089W        W27383  35.449  32.460   0.790
68090W        W27384  19.171   1.866  14.501
68091W        W27385  34.989   9.256   5.289
68092W        W27386  19.664  10.690  14.484
68093W        W27387   2.963   8.755  13.502
68094W        W27388  39.056  13.312   1.349
68095W        W27389  32.588  19.695   2.757
68096W        W27390  13.738  13.222  11.412
68097W        W27391  26.461  41.034   4.181
68098W        W27392   8.713  35.900  11.434
68099W        W27393  26.985  16.153  11.519
68100W        W27394  16.745  34.483   1.813
68101W        W27395  20.712   2.866  12.063
68102W        W27396  11.763  33.566   4.123
68103W        W27397  31.949  10.335   0.888
68104W        W27398  28.639   9.197  10.939
68105W        W27399  26.478  31.153   1.747
68106W        W27400  38.416  10.778   2.753
68107W        W27401  15.323  44.454   2.357
68108W        W27402  13.630  17.769   2.747
68109W        W27403  13.176  29.668  14.956
68110W        W27404   8.184  39.560  10.464
68111W        W27405  13.155  20.176   3.257
68112W        W27406  44.813  43.859  14.860
68113W        W27407  34.386  30.623   2.678
68114W        W27408  30.590  37.896  10.550
68115W        W27409  13.738  28.678  10.534
68116W        W27410  24.163  24.128  12.011
68117W        W27411  40.480  24.004   4.823
68118W        W27412  15.088  20.708   0.442
68119W        W27413  36.010  24.677  12.512
68120W        W27414  19.058   6.223   4.253
68121W        W27415  32.961   2.726  12.405
68122W        W27416  42.323   7.898  12.413
68123W        W27417  38.868   0.871   1.789
68124W        W27418   1.967   5.758  10.990
68125W        W27419  26.029  41.469   0.462
68126W        W27420   5.397  16.794   0.955
68127W        W27421  27.520   3.939  14.478
68128W        W27422  40.021  34.876  12.453
68129W        W27423  36.869  40.845  14.813
68130W        W27424  13.842  21.040   4.189
68131W        W27425   1.443  40.041  12.945
68132W        W27426  33.971   8.852   1.406
68133W        W27427  34.443  26.057   3.778
68134W        W27428  39.523  33.473  14.823
68135W        W27429   3.273  30.573   3.679
68136W        W27430  14.153  35.562   3.758
68137W        W27431  11.693  10.193  13.338
68138W        W27432  31.573  28.083   3.734
68139W        W27433  10.201  24.010   3.237
68140W        W27434  14.629   2.349   2.312
68141W        W27435  38.477  23.091  12.409
68142W        W27436  27.053   3.840   0.942
68143W        W27437  33.404  28.440   2.237
68144W        W27438   9.736   7.826  11.589
68145W        W27439  37.558   5.892  12.459
68146W        W27440  11.241   3.223   1.249
68147W        W27441  30.976  40.343   3.248
68148W        W27442  38.446  28.516  12.394
68149W        W27443   1.862  15.324  13.023
68150W        W27444   7.340   0.925  13.977
68151W        W27445  14.274   3.850   1.282
68152W        W27446   6.762  11.243   0.879
68153W        W27447  17.582  33.404   2.869
68154W        W27448  30.037  34.605  11.378
68155W        W27449   3.712  12.836  10.026
68156W        W27450  23.539  37.859   0.864
68157W        W27451   9.685  22.149  14.891
68158W        W27452  18.289  24.685  14.814
68159W        W27453  19.613  29.167   4.756
68160W        W27454  44.908   0.780  12.974
68161W        W27455  12.328  27.079   3.785
68162W        W27456  29.075  16.638  11.518
68163W        W27457  23.502  18.652  12.939
68164W        W27458   4.846  38.883  14.318
68165W        W27459  20.112  36.861  14.345
68166W        W27460  23.526  22.684   1.273
68167W        W27461   9.202  33.468  12.516
68168W        W27462  19.706  29.463   3.821
68169W        W27463  20.253  26.994   4.660
68170W        W27464  42.350   4.733   4.343
68171W        W27465   1.874   6.192  13.898
68172W        W27466  41.905  24.095   4.327
68173W        W27467   1.879  33.599   1.831
68174W        W27468   5.858   9.217  13.481
68175W        W27469   7.213  38.563  11.072
68176W        W27470  34.600  35.527  10.566
68177W        W27471   8.395  39.003   2.768
68178W        W27472   3.899  42.926  13.535
68179W        W27473  10.748  31.929  12.081
68180W        W27474   4.727  28.054  12.867
68181W        W27475  19.616   2.315   2.417
68182W        W27476   0.479  37.007  12.450
68183W        W27477  14.799  32.429  13.326
68184W        W27478  22.508   5.744   4.696
68185W        W27479  12.159  16.708  11.038
68186W        W27480   8.885  40.844   0.748
68187W        W27481  28.493  18.610   1.819
68188W        W27482   1.964  44.877  13.819
68189W        W27483  15.580  19.079   9.927
68190W        W27484  16.586  43.808  10.608
68191W        W27485  31.957   9.735   3.178
68192W        W27486  29.481  29.962   4.351
68193W        W27487  26.997  30.041   0.769
68194W        W27488  26.974  15.133  14.933
68195W        W27489   9.687   1.909   1.828
68196W        W27490  20.577   6.820  14.781
68197W        W27491  42.803  14.271  12.984
68198W        W27492  21.042  41.786  10.436
68199W        W27493  37.352  40.871   0.932
68200W        W27494  43.429  34.442   2.795
68201W        W27495  41.969  30.946   3.659
68202W        W27496  14.230  33.090   0.442
68203W        W27497  42.016  21.702  14.803
68204W        W27498  19.062   0.248  14.442
68205W        W27499  42.948  44.286  11.128
68206W        W27500  34.001   1.830  14.904
68207W        W27501  11.365   2.272  10.410
68208W        W27502  24.121  27.111  11.518
68209W        W27503  42.939  13.744  14.850
68210W        W27504  30.007  44.417  11.547
68211W        W27505  15.720  26.594  14.020
68212W        W27506  24.512  42.969   1.246
68213W        W27507  41.979  41.508  11.005
68214W        W27508   3.281  17.683   0.259
68215W        W27509  23.652  19.660   1.754
68216W        W27510  32.042  28.140  13.482
68217W        W27511  13.285  39.965   3.326
68218W        W27512  24.598  39.963   4.817
68219W        W27513  12.249  42.395  10.965
68220W        W27514  16.591  13.762   1.274
68221W        W27515  44.312   4.834   3.376
68222W        W27516   3.329  10.672  11.036
68223W        W27517   8.893   6.867  12.832
68224W        W27518   5.228  32.122  14.293
68225W        W27519   6.684  21.711   0.428
68226W        W27520  40.902  13.704   3.649
68227W        W27521  43.769  23.004  14.404
68228W        W27522  39.379   8.401  13.970
68229W        W27523  10.682  12.639  12.983
68230W        W27524  14.736  16.582   4.800
68231W        W27525   4.865   9.671   4.131
68232W        W27526   3.818  11.770  11.441
68233W        W27527  44.954  41.461   1.738
68234W        W27528   0.321  40.802   1.920
68235W        W27529  27.158  31.530  14.457
68236W        W27530  43.303   9.374   2.815
68237W        W27531  29.960  33.518  11.497
68238W        W27532  36.541  27.062   3.358
68239W        W27533   8.860  11.366  12.992
68240W        W27534  37.862  16.199   1.757
68241W        W27535  19.160  25.074  14.296
68242W        W27536  44.450  16.091  13.407
68243W        W27537  22.179  33.064   3.658
68244W        W27538   2.766  29.068  12.058
68245W        W27539  32.628  28.014   0.458
68246W        W27540  31.122  10.747   0.768
68247W        W27541  38.517  16.603   3.343
68248W        W27542  31.096   1.778  13.857
68249W        W27543  20.130  41.896   2.380
68250W        W27544  14.776   1.257  10.435
68251W        W27545  44.922  20.247  14.771
68252W        W27546  40.854  31.953   2.835
68253W        W27547  10.206  33.972  13.919
68254W        W27548  36.868  42.823  10.555
68255W        W27549  42.399  30.480   0.930
68256W        W27550  16.187  14.338   3.679
68257W        W27551   0.836  26.070  12.542
68258W        W27552   0.909  38.334  14.307
68259W        W27553   7.889  39.815  10.893
68260W        W27554  33.437  40.826  10.613
68261W        W27555  13.830  14.299  12.090
68262W        W27556   1.275  10.367   4.639
68263W        W27557  30.423  24.160  11.443
68264W        W27558  15.238   2.235  11.937
68265W        W27559  26.993   2.372  12.411
68266W        W27560  24.014   1.741  11.890
68267W        W27561  14.806  26.153  14.861
68268W        W27562  35.938  22.183  12.934
68269W        W27563   9.282  24.622  11.461
68270W        W27564  27.531  12.755  11.570
68271W        W27565  23.047  43.302  12.041
68272W        W27566   4.724  19.215   2.297
68273W        W27567  32.450   8.752  12.493
68274W        W27568  27.486  44.790  14.888
68275W        W27569  31.125  41.869   2.343
68276W        W27570   8.294  18.732  13.468
68277W        W27571   5.846  34.072  10.922
68278W        W27572  21.129  34.956   4.687
68279W        W27573   5.776   6.908   2.383
68280W        W27574  14.266  37.380   0.416
68281W        W27575  18.767  25.600   1.232
68282W        W27576  26.605  10.724  11.454
68283W        W27577  37.363  37.888   2.796
68284W        W27578  23.544  40.896  11.438
68285W        W27579  21.645  41.503  14.780
68286W        W27580  44.438  30.487  12.452
68287W        W27581  40.303   8.692  14.827
68288W        W27582  34.471  39.543   2.772
68289W        W27583  11.768  33.953   0.363
68290W        W27584  30.975  28.089  14.855
68291W        W27585  39.464   6.279  14.486
68292W        W27586   2.347  22.515   2.803
68293W        W27587  17.585  36.035   4.177
68294W        W27588  15.605  16.784   5.156
68295W        W27589  18.616  18.696  13.046
68296W        W27590   4.380  43.992   3.227
68297W        W27591  43.355  28.050  11.029
68298W        W27592  33.124  13.268   1.769
68299W        W27593  18.608  15.595  13.322
68300W        W27594  20.267  28.991   4.799
68301W        W27595  33.099  27.617  12.368
68302W        W27596  42.986  43.354   5.091
68303W        W27597  29.526  29.506  14.328
68304W        W27598   3.364  20.569  14.856
68305W        W27599  24.000  38.950  10.485
68306W        W27600  14.727  20.168  13.506
68307W        W27601  40.836  23.113   1.783
68308W        W27602  20.119  42.003   0.336
68309W        W27603  22.503  28.679  13.959
68310W        W27604  15.723   9.158   2.664
68311W        W27605  21.530  39.904   0.793
68312W        W27606  14.754  26.575   4.127
68313W        W27607  39.347  21.075  11.441
68314W        W27608  42.872   6.876  14.997
68315W        W27609  32.594  35.860   2.843
68316W        W27610   5.810  24.584   4.695
68317W        W27611  37.415   6.887   4.143
68318W        W27612  27.454   2.739  13.891
68319W        W27613  22.113  26.631  10.573
68320W        W27614   8.750  28.581   3.859
68321W        W27615  26.687  31.572   4.747
68322W        W27616   8.698  39.884   4.819
68323W        W27617   9.149  16.165  13.315
68324W        W27618  35.911  42.873   3.156
68325W        W27619   8.341   0.829   2.226
68326W        W27620  44.938  22.142  12.446
68327W        W27621  40.334  16.568  14.895
68328W        W27622  32.612  39.452   3.710
68329W        W27623  16.272  21.042  13.986
68330W        W27624  31.992   4.935  14.389
68331W        W27625  43.315  40.403  10.969
68332W        W27626  35.979  27.038   3.773
68333W        W27627  22.215  41.461  13.991
68334W        W27628   3.321  41.387  11.951
68335W        W27629  23.656  12.770   0.918
68336W        W27630  32.522  27.468   4.737
68337W        W27631  36.467  23.716   3.162
68338W        W27632  40.501   1.309  12.095
68339W        W27633  32.474  39.326   3.302
68340W        W27634  38.054   2.736  13.512
68341W        W27635  17.096  40.370   2.290
68342W        W27636   7.336  40.488   2.704
68343W        W27637  43.341  13.837   0.461
68344W        W27638  22.082  43.479   2.378
68345W        W27639  14.290   3.292   1.211
68346W        W27640  34.033  33.125   4.158
68347W        W27641  34.392  32.614  14.283
68348W        W27642  34.065  37.951  12.430
68349W        W27643  37.385   5.417   1.371
68350W        W27644  19.756  41.994  12.028
68351W        W27645  25.213  17.563   4.256
68352W        W27646  39.825   8.755   1.860
68353W        W27647  35.011  35.055  10.618
68354W        W27648  23.633  14.227  14.287
68355W        W27649  43.924   1.469   2.280
68356W        W27650  19.091  43.783   1.410
68357W        W27651  21.160  12.355  13.323
68358W        W27652  11.297  28.176   2.850
68359W        W27653  44.882  41.334  14.959
68360W        W27654  37.908  33.380  13.804
68361W        W27655   0.807   2.366  12.539
68362W        W27656  25.616  33.496   2.677
68363W        W27657  20.226  18.628  10.942
68364W        W27658  13.817   6.721  14.415
68365W        W27659  43.362  20.586  14.448
68366W        W27660  38.376  44.874  13.884
68367W        W27661  35.989  43.481  11.051
68368W        W27662  44.268  16.810  10.888
68369W        W27663  13.154  35.567  14.438
68370W        W27664   2.904   8.236  13.416
68371W        W27665  16.719   4.935  11.944
68372W        W27666   3.354  10.682   1.285
68373W        W27667  14.249  13.182  14.930
68374W        W27668  17.133  30.115   2.405
68375W        W27669  15.253  18.268  14.294
68376W        W27670  11.134  18.273  14.858
68377W        W27671  43.410   0.314  11.579
68378W        W27672  28.668  10.261  10.915
68379W        W27673   9.283  21.747   1.739
68380W        W27674   0.294  38.413   0.797
68381W        W27675  43.900  35.517   1.413
68382W        W27676   1.396  18.181  13.910
68383W        W27677   5.860  30.073  14.018
68384W        W27678  33.034  27.527  10.523
68385W        W27679  21.017  14.737   2.232
68386W        W27680  42.468  12.277  13.998
68387W        W27681  27.653  33.611   0.432
68388W        W27682  14.102   5.252   2.293
68389W        W27683  33.568  12.276   2.875
68390W        W27684  42.812  10.355   2.292
68391W        W27685  32.079   7.302  12.448
68392W        W27686  39.538  36.938  14.335
68393W        W27687   3.901  38.034   4.791
68394W        W27688  17.105  10.636   2.278
68395W        W27689  28.051  22.195   2.864
68396W        W27690  15.804   7.321  11.565
68397W        W27691  32.394   2.918  12.424
68398W        W27692  27.048  41.495  14.937
68399W        W27693  16.305   4.847   2.754
68400W        W27694  22.673  20.531   1.751
68401W        W27695  37.414   9.750   1.807
68402W        W27696  20.542  10.198   4.745
68403W        W27697  28.183  14.686   3.213
68404W        W27698   3.423  12.810  13.913
68405W        W27699  14.803  20.752   5.595
68406W        W27700  38.464  40.461   3.232
68407W        W27701  14.814  10.237   3.342
68408W        W27702  14.783  27.995   3.360
68409W        W27703  43.940  25.521   3.854
68410W        W27704  30.110  40.819  14.827
68411W        W27705  19.102  25.203  12.538
68412W        W27706  44.404  33.950  10.638
68413W        W27707  27.162  23.602   3.856
68414W        W27708  20.054   7.772   3.213
68415W        W27709  34.096  11.147   3.654
68416W        W27710  35.048  18.740   4.313
68417W        W27711   3.313   9.661   0.450
68418W        W27712   8.785  35.466   4.671
68419W        W27713  13.245  23.659   4.289
68420W        W27714  14.202  31.941  14.418
68421W        W27715  32.560   2.873   0.463
68422W        W27716   2.345   6.404   1.288
68423W        W27717  14.770  24.012  13.531
68424W        W27718   9.734  34.597  14.921
68425W        W27719  30.975   8.734   0.437
68426W        W27720  10.271  13.335  10.445
68427W        W27721  16.076  24.553  10.430
68428W        W27722  34.426   9.292  13.892
68429W        W27723  36.088  41.418   4.734
68430W        W27724   6.866  32.637   0.329
68431W        W27725  40.013   8.670   2.768
68432W        W27726  26.010  39.968   4.648
68433W        W27727  33.531  19.546   2.413
68434W        W27728  27.016   0.935  12.496
68435W        W27729  27.634  27.119   2.714
68436W        W27730  27.065  15.808   1.811
68437W        W27731   8.796  44.397   4.185
68438W        W27732  34.603  25.076  10.434
68439W        W27733  15.679  22.648  13.487
68440W        W27734  29.053   8.347  14.865
68441W        W27735  13.195   3.768  11.396
68442W        W27736  25.041  31.078  14.940
68443W        W27737  10.358  32.102  13.820
68444W        W27738  44.473  37.870  14.979
68445W        W27739  27.157  28.436   1.421
68446W        W27740   8.759  26.610   3.766
68447W        W27741  32.997  18.190   2.849
68448W        W27742  34.371  30.926  10.920
68449W        W27743  43.437  32.989  13.980
68450W        W27744  19.540  29.430  12.444
68451W        W27745  43.480  20.650   2.676
68452W        W27746   9.239   4.740  12.953
68453W        W27747   5.748   2.877  14.856
68454W        W27748  19.285  11.218  10.641
68455W        W27749  18.130  40.541  12.572
68456W        W27750  23.654  12.153   3.307
68457W        W27751   0.919   6.879   2.406
68458W        W27752   6.812  10.694   1.834
68459W        W27753  39.869   4.818  14.841
68460W        W27754  16.200  39.007   0.944
68461W        W27755  19.214   2.375   2.287
68462W        W27756  24.689   0.293  11.890
68463W        W27757  35.366  42.800  13.397
68464W        W27758  20.084  44.390   3.210
68465W        W27759  33.899  44.287   0.872
68466W        W27760  33.985  13.186  14.477
68467W        W27761  17.662  17.599  14.461
68468W        W27762   0.393   9.366  14.377
68469W        W27763  20.134  27.688   1.280
68470W        W27764   9.324  15.788   4.219
68471W        W27765  31.023  21.674  13.532
68472W        W27766  40.508  33.876   1.233
68473W        W27767  32.554   8.892  14.921
68474W        W27768  15.199  37.006   1.751
68475W        W27769  28.974  37.532   1.210
68476W        W27770   1.294   7.176  13.941
68477W        W27771  29.638   4.328  13.519
68478W        W27772  42.287  26.180  13.420
68479W        W27773  40.503  14.672   0.738
68480W        W27774   7.868   8.215  10.470
68481W        W27775   8.715  23.637   1.801
68482W        W27776  16.675  40.466   3.796
68483W        W27777  12.720  11.712   4.635
68484W        W27778  28.654   5.426  12.848
68485W        W27779  12.222  37.940   1.423
68486W        W27780  28.007  41.319   1.311
68487W        W27781  12.769  18.259  11.112
68488W        W27782   6.420  42.014  10.576
68489W        W27783  10.224  26.061  13.921
68490W        W27784   4.756   8.317  11.884
68491W        W27785  44.448  12.331   1.858
68492W        W27786  15.176   7.279   1.712
68493W        W27787  22.721  15.093  12.062
68494W        W27788  44.406  33.918   4.724
68495W        W27789  41.450  43.318   4.180
68496W        W27790  16.705  23.141   5.218
68497W        W27791  39.405  16.782   4.633
68498W        W27792  40.325  28.547  12.421
68499W        W27793   4.310  44.990   4.822
68500W        W27794  21.227  13.214  12.507
68501W        W27795  31.127  18.677   0.292
68502W        W27796  15.144  36.872  12.028
68503W        W27797  37.458  25.016   1.310
68504W        W27798  17.765  10.217  13.465
68505W        W27799   3.945  32.962  13.369
68506W        W27800  11.644   2.314  12.073
68507W        W27801   5.373  24.056   4.220
68508W        W27802  18.276  24.602  11.980
68509W        W27803  39.037   0.273   2.338
68510W        W27804  42.299  13.331  12.935
68511W        W27805   7.416  43.343   0.430
68512W        W27806  25.165   1.476  14.381
68513W        W27807  44.832  24.548   3.691
68514W        W27808  40.503  21.574   2.857
68515W        W27809   9.325  25.684   1.427
68516W        W27810  16.585  16.132   4.724
68517W        W27811  28.041   9.774  14.474
68518W        W27812   5.926  41.992   0.879
68519W        W27813  13.310  42.777  14.496
68520W        W27814   8.880  27.991  11.062
68521W        W27815  20.527  34.579  11.472
68522W        W27816  27.971   5.310   2.825
68523W        W27817  41.907  36.556  14.893
68524W        W27818  18.205  10.776   0.243
68525W        W27819  11.659  38.841   1.379
68526W        W27820  19.699   2.791   2.735
68527W        W27821  36.890  11.159   0.416
68528W        W27822  29.950  34.538   2.226
68529W        W27823  27.122   1.858  14.816
68530W        W27824   5.303  12.678  12.023
68531W        W27825   5.871  18.768   5.105
68532W        W27826  12.206  22.235  11.458
68533W        W27827  26.156  15.227  10.980
68534W        W27828  15.708  39.375  12.985
68535W        W27829  16.186  31.594   4.269
68536W        W27830  32.425  24.170   4.792
68537W        W27831   3.927   6.692   0.345
68538W        W27832  32.946  42.984  12.058
68539W        W27833  30.416  39.863  11.538
68540W        W27834  29.507  44.868  14.798
68541W        W27835  10.872  34.371   9.544
68542W        W27836  28.644   2.456   1.804
68543W        W27837   5.761  10.215  11.571
68544W        W27838  27.132  43.363  10.492
68545W        W27839  43.273  38.907  14.285
68546W        W27840  29.008   7.735  11.124
68547W        W27841  21.220   3.870  13.476
68548W        W27842  24.613   3.427   1.741
68549W        W27843  28.538  44.822   2.699
68550W        W27844  20.246  35.920  11.109
68551W        W27845   7.872  39.987   9.941
68552W        W27846   7.318  27.060  14.496
68553W        W27847  40.317  42.328  12.534
68554W        W27848  31.006  44.860   3.825
68555W        W27849   7.398   1.900  14.011
68556W        W27850  41.368  29.169  14.484
68557W        W27851   0.359  32.062   1.410
68558W        W27852   0.865  26.036  10.492
68559W        W27853  23.572  24.715   2.878
68560W        W27854  29.470   8.825  13.354
68561W        W27855  31.907   3.395   0.821
68562W        W27856  43.825   0.366   3.737
68563W        W27857   2.346   9.391  11.933
68564W        W27858   6.700  25.467   3.246
68565W        W27859  15.648  32.539  13.021
68566W        W27860  10.221  31.593  12.880
68567W        W27861  25.986  25.554  14.433
68568W        W27862   8.877  43.908   0.896
68569W        W27863  37.567   6.866  12.825
68570W        W27864  34.103  19.660  11.951
68571W        W27865  27.563   5.721   1.289
68572W        W27866  32.031  37.974   2.902
68573W        W27867  10.645   1.297   0.328
68574W        W27868  21.707  18.554  13.000
68575W        W27869  28.143   1.818   1.411
68576W        W27870  42.875  18.663   0.259
68577W        W27871  41.958  16.774  11.485
68578W        W27872  41.889  13.784   4.173
68579W        W27873  29.498   1.933  14.986
68580W        W27874   9.168  14.104   3.784
68581W        W27875   1.752  28.668   0.434
68582W        W27876  17.745   6.918  12.913
68583W        W27877  40.805   9.360   1.378
68584W        W27878  20.202  43.364  14.808
68585W        W27879  23.205   3.456   0.453
68586W        W27880  21.631   6.210  13.358
68587W        W27881   0.916  17.138   2.790
68588W        W27882  12.768   2.924  14.811
68589W        W27883  33.023  36.038   4.341
68590W        W27884  17.723  10.646   4.144
68591W        W27885   0.781  33.573   0.831
68592W        W27886  11.188   4.848   3.694
68593W        W27887   7.884  42.850  13.956
68594W        W27888  33.900  24.114  13.545
68595W        W27889   2.720  10.278  13.328
68596W        W27890   4.932  42.853  14.888
68597W        W27891  11.626  10.165  14.479
68598W        W27892   6.217  13.246   3.208
68599W        W27893  22.068  15.724  12.901
68600W        W27894  33.014  40.337   2.734
68601W        W27895   9.383  44.468  13.951
68602W        W27896  39.433  12.358   0.266
68603W        W27897  18.690   5.360  11.039
68604W        W27898  39.953  37.899   2.720
68605W        W27899  15.205   6.893  14.974
68606W        W27900  16.306   9.171  13.338
68607W        W27901  24.190  22.211  14.963
68608W        W27902  32.081   8.345  10.537
68609W        W27903  43.469  27.556   1.357
68610W        W27904  44.333  25.564   1.363
68611W        W27905  31.042  30.041  14.484
68612W        W27906  43.324   9.263  10.962
68613W        W27907   0.789   8.252   0.910
68614W        W27908  17.184  13.778  12.987
68615W        W27909   0.260  12.744   3.307
68616W        W27910   6.298  35.478   4.712
68617W        W27911   9.864  11.638   1.721
68618W        W27912  39.324  32.003  10.132
68619W        W27913  43.968  17.131   1.243
68620W        W27914  10.861  19.678   3.748
68621W        W27915  15.799   1.276  11.566
68622W        W27916   9.856  22.112   3.721
68623W        W27917  10.275  23.033  10.495
68624W        W27918  36.454  36.511  11.037
68625W        W27919  42.333  10.302  13.408
68626W        W27920   8.218  20.577   3.374
68627W        W27921  23.530  37.921  13.381
68628W        W27922  41.522  15.245  13.548
68629W        W27923  28.676  26.577   3.265
68630W        W27924  31.552  36.517  11.084
68631W        W27925  16.592  34.097  11.927
68632W        W27926  37.959  34.383   0.349
68633W        W27927   5.824  33.622   2.694
68634W        W27928  17.133  24.106   2.891
68635W        W27929  15.093  11.831  11.889
68636W        W27930  30.538  18.761  14.497
68637W        W27931  11.156  42.506   1.264
68638W        W27932  11.145   5.759  14.766
68639W        W27933  43.488  35.924   1.421
68640W        W27934  30.974  16.779  11.932
68641W        W27935  33.985   0.844  14.782
68642W        W27936   7.208  24.189  13.416
68643W        W27937   9.186   0.380  13.999
68644W        W27938  20.677  37.572  12.434
68645W        W27939  32.978   8.739   2.293
68646W        W27940  28.967  40.513   0.391
68647W        W27941  40.545   6.733   3.367
68648W        W27942   5.245  18.295   4.780
68649W        W27943  33.524  15.650   5.153
68650W        W27944  15.270   1.736   4.255
68651W        W27945  32.531  33.090   1.775
68652W        W27946  19.730  18.234   1.896
68653W        W27947   3.722  26.096   1.246
68654W        W27948  40.976  12.314  14.292
68655W        W27949  17.793   5.911   0.327
68656W        W27950  12.297  40.841   3.821
68657W        W27951  21.683  25.031  11.487
68658W        W27952  39.880  36.066   3.632
68659W        W27953  12.252  11.711  11.460
68660W        W27954  41.355  20.710   4.831
68661W        W27955  25.623  31.950   0.267
68662W        W27956  21.182  15.632  11.378
68663W        W27957  29.919  38.907   1.427
68664W        W27958  12.204  32.964  10.967
68665W        W27959   5.780  12.833   3.214
68666W        W27960   1.881   8.242   4.313
68667W        W27961  32.582   6.213  13.488
68668W        W27962  13.833  38.355   4.155
68669W        W27963  24.539  12.790  10.515
68670W        W27964  25.674   0.423   4.658
68671W        W27965  36.556  10.751  14.888
68672W        W27966  17.083   7.353   5.194
68673W        W27967  33.942   7.736   2.413
68674W        W27968   3.423   3.837   3.845
68675W        W27969   4.743  16.309  12.019
68676W        W27970  12.320  26.581   0.777
68677W        W27971   5.202  44.872   3.182
68678W        W27972  43.869  31.485   4.335
68679W        W27973   2.749   1.339  12.906
68680W        W27974  43.270   6.342   1.853
68681W        W27975  23.719  11.200   4.257
68682W        W27976  30.068  10.252   1.798
68683W        W27977  19.206  25.524  12.062
68684W        W27978   2.823   8.344   0.924
68685W        W27979  26.030   9.799  14.435
68686W        W27980  12.799  11.622  12.873
68687W        W27981  20.547   6.280  14.506
68688W        W27982  12.222  38.990   2.887
68689W        W27983  44.323  28.180  12.024
68690W        W27984  16.317  22.714  11.034
68691W        W27985   1.951   9.848  10.950
68692W        W27986   1.785  26.148   0.355
68693W        W27987  32.624  13.345   2.713
68694W        W27988   2.421  37.989   2.721
68695W        W27989  24.039  28.469  14.768
68696W        W27990  33.460   0.770   5.115
68697W        W27991  41.958  19.714   2.270
68698W        W27992  14.683  41.812   0.398
68699W        W27993   7.741  25.557   0.411
68700W        W27994  44.366  23.162   0.798
68701W        W27995  35.437  16.604  12.857
68702W        W27996  43.791   0.452   3.178
68703W        W27997  37.524  35.593  12.857
68704W        W27998  40.431  37.970   2.337
68705W        W27999  41.018  19.586   4.227
68706W        W28000  11.188  15.684  13.983
68707W        W28001  38.533  11.694  14.295
68708W        W28002  44.774  24.056  13.459
68709W        W28003  22.020  20.130  10.459
68710W        W28004  16.254   9.752  11.610
68711W        W28005  31.045  13.741   0.429
68712W        W28006   2.333  44.417   2.798
68713W        W28007  27.596  31.955  10.965
68714W        W28008  22.606  15.692   4.129
68715W        W28009   5.394  25.514   3.846
68716W        W28010   2.725  29.445   1.771
68717W        W28011  41.040  39.546   2.212
68718W        W28012  18.091  19.206   2.286
68719W        W28013  35.895  28.621   4.779
68720W        W28014   8.198  25.051   3.293
68721W        W28015  38.042  10.838  13.509
68722W        W28016   3.412  21.622   4.670
68723W        W28017  28.553  23.716   2.827
68724W        W28018  37.573  15.810  10.533
68725W        W28019   9.198   1.473   2.205
68726W        W28020  32.546  13.195  11.407
68727W        W28021  39.889  34.608  11.978
68728W        W28022  24.141  30.954  10.894
68729W        W28023  11.693  40.365  14.811
68730W        W28024  36.876   4.398  13.054
68731W        W28025  34.865  36.448   2.292
68732W        W28026  36.082  11.664   3.224
68733W        W28027  11.353   6.297   0.439
68734W        W28028  18.612   7.740   0.963
68735W        W28029   9.741  10.802   3.774
68736W        W28030  11.267  29.012   2.287
68737W        W28031   6.191  44.984   2.788
68738W        W28032  31.048  29.429  11.051
68739W        W28033  27.511  25.676  10.449
68740W        W28034   5.407  38.519   2.776
68741W        W28035  13.820  29.628  11.103
68742W        W28036  29.147  35.595   3.309
68743W        W28037  16.808  26.126   3.271
68744W        W28038  31.093  28.936  10.585
68745W        W28039  19.742  29.114  14.862
68746W        W28040   1.735  34.588  14.988
68747W        W28041  23.673  31.448   2.787
68748W        W28042  42.299  27.986   0.904
68749W        W28043  26.665  17.294   5.214
68750W        W28044  41.528  24.695   3.253
68751W        W28045   1.306  31.966   3.837
68752W        W28046  16.196   6.265   0.420
68753W        W28047  20.674  15.817   1.711
68754W        W28048  41.844  13.200   4.729
68755W        W28049  33.496   6.203  12.460
68756W        W28050  33.916  32.086  14.436
68757W        W28051  34.489  12.271  10.459
68758W        W28052   8.759  25.990   3.378
68759W        W28053  13.262  26.654   2.837
68760W        W28054  29.567  23.987   3.679
68761W        W28055  16.624  22.081   2.415
68762W        W28056  11.210  11.190   0.297
68763W        W28057  28.613  36.049  12.363
68764W        W28058   9.238  13.271  10.988
68765W        W28059   5.264  29.608  13.502
68766W        W28060  34.536   6.218   3.836
68767W        W28061  43.841  27.679   4.681
68768W        W28062  44.320  38.044   0.767
68769W        W28063  24.497  36.003   4.710
68770W        W28064  40.493  17.156  11.038
68771W        W28065  43.371  11.223   4.633
68772W        W28066  37.429  37.844   0.305
68773W        W28067  34.879  19.046  14.447
68774W        W28068  44.859  11.281   0.276
68775W        W28069  36.921  26.114   4.662
68776W        W28070  17.713   7.248   0.954
68777W        W28071  13.640  17.281  12.010
68778W        W28072   2.252  15.121  12.993
68779W        W28073  41.890  37.939   1.282
68780W        W28074  21.153  42.485  14.949
68781W        W28075  40.367  15.796   2.352
68782W        W28076  12.830  16.736   3.166
68783W        W28077  20.107  43.370   4.203
68784W        W28078  26.654  22.634  14.455
68785W        W28079  35.970  16.682  10.948
68786W        W28080  15.648  15.816  13.318
68787W        W28081   3.217  11.272   3.704
68788W        W28082  30.036   9.371  11.601
68789W        W28083  39.973  12.742   1.345
68790W        W28084  35.431  13.618   1.856
68791W        W28085  30.442  12.622  13.980
68792W        W28086  12.628  34.591  13.427
68793W        W28087  17.576  19.697   1.289
68794W        W28088   1.270  34.459  12.384
68795W        W28089  42.440  39.855  11.527
68796W        W28090  41.511  10.789  14.763
68797W        W28091  25.160  40.471   3.291
68798W        W28092  16.312   5.223   2.332
68799W        W28093  39.421   8.305   2.419
68800W        W28094   0.358  19.622   3.667
68801W        W28095   5.870  32.979   3.733
68802W        W28096  30.553  35.900  14.002
68803W        W28097  22.504  23.498   5.100
68804W        W28098  44.400   0.283   3.298
68805W        W28099  17.221  14.305  12.840
68806W        W28100  38.419   8.893  12.395
68807W        W28101  42.932  11.860   5.313
68808W        W28102  33.017  28.625   1.418
68809W        W28103  39.499  18.616  12.051
68810W        W28104  22.658  39.961   0.945
68811W        W28105  10.179  19.540  12.853
68812W        W28106  17.593   7.731   4.352
68813W        W28107  39.330   3.769   1.820
68814W        W28108   5.195   7.411   1.762
68815W        W28109   7.228  41.346  11.948
68816W        W28110   0.375  24.648  11.036
68817W        W28111   4.409   9.801  14.370
68818W        W28112  32.059  39.928  12.491
68819W        W28113   0.394   9.155  10.473
68820W        W28114   8.244  29.975   2.221
68821W        W28115  26.544  29.496   3.272
68822W        W28116  30.908  17.172   1.788
68823W        W28117   9.878  29.118   4.168
68824W        W28118  23.709  21.107   1.815
68825W        W28119  15.151  42.793  12.935
68826W        W28120  29.147  37.511   2.294
68827W        W28121  25.180   7.777   0.275
68828W        W28122  37.079  23.213  13.493
68829W        W28123  28.061   4.311   3.147
68830W        W28124  44.417   9.842  14.339
68831W        W28125  44.328  28.936  14.324
68832W        W28126   6.870   2.898  14.325
68833W        W28127  24.575  10.865   5.237
68834W        W28128   3.735   8.284  13.325
68835W        W28129  10.665  33.892  12.827
68836W        W28130   1.910  23.186   3.839
68837W        W28131  15.811  44.296   1.730
68838W        W28132  40.349  25.000  11.935
68839W        W28133   3.275  36.441   4.188
68840W        W28134  30.158  36.409  10.464
68841W        W28135  14.273  36.350   1.418
68842W        W28136  36.398  32.997   1.834
68843W        W28137  26.965  42.975   9.994
68844W        W28138  13.348  15.105   2.321
68845W        W28139  33.062  35.053   2.664
68846W        W28140   4.325   1.298   3.635
68847W        W28141  26.614  16.095   3.642
68848W        W28142  14.822  27.073   0.832
68849W        W28143   0.948  42.978   2.749
68850W        W28144  37.836   2.466  12.984
68851W        W28145   8.180   4.919   1.410
68852W        W28146   6.370   4.760   4.752
68853W        W28147  38.363  20.170   0.745
68854W        W28148   3.361  23.095   3.865
68855W        W28149  43.474   7.771  12.389
68856W        W28150  11.750   2.806   1.902
68857W        W28151  24.050   2.347   0.776
68858W        W28152  38.394  18.190  14.368
68859W        W28153  43.510   2.799  13.876
68860W        W28154  40.983   3.748  14.989
68861W        W28155  15.147   9.205   1.449
68862W        W28156  27.563   0.299  11.465
68863W        W28157  37.382  13.650   4.782
68864W        W28158   6.392   9.668   4.646
68865W        W28159  15.716  15.807   4.202
68866W        W28160   3.780  34.890   2.257
68867W        W28161  19.610  21.642   3.204
68868W        W28162  31.441  43.424  13.341
68869W        W28163  23.995  33.046  11.967
68870W        W28164  18.065  16.231   2.365
68871W        W28165  36.083  18.747   4.258
68872W        W28166  11.838  34.874  14.859
68873W        W28167  14.173  24.090   2.727
68874W        W28168  27.459  42.886  12.032
68875W        W28169  34.876  36.970  14.834
68876W        W28170  21.167   2.352   0.817
68877W        W28171  10.657  14.238   4.724
68878W        W28172  23.690  25.195   1.425
68879W        W28173  16.119  31.902   0.887
68880W        W28174  10.375  34.957  14.320
68881W        W28175   4.713   4.727   3.267
68882W        W28176  22.196  44.952  13.386
68883W        W28177   2.920  16.625  12.072
68884W        W28178  31.606  29.977   2.787
68885W        W28179   8.325  26.989  12.564
68886W        W28180   6.910  43.811  10.629
68887W        W28181   2.283  38.997   1.324
68888W        W28182  43.425   3.902  13.820
68889W        W28183  19.617  36.976   1.218
68890W        W28184  34.533  22.739  14.835
68891W        W28185   7.184  17.237   4.283
68892W        W28186  19.692  19.685  12.465
68893W        W28187  13.748  24.695   0.417
68894W        W28188  24.619   9.667   3.666
68895W        W28189  35.032  36.952  13.441
68896W        W28190  31.002  41.424   2.381
68897W        W28191  40.487  28.945  12.528
68898W        W28192   9.164  26.966  12.393
68899W        W28193  37.947  33.619  13.058
68900W        W28194   3.254  10.795  10.425
68901W        W28195  15.603   9.154   4.212
68902W        W28196   3.390  32.484  13.517
68903W        W28197   7.292  10.819   0.773
68904W        W28198  29.563  39.925  10.534
68905W        W28199  10.190  43.424   3.175
68906W        W28200  17.640  32.044  13.973
68907W        W28201  43.974  27.457  13.844
68908W        W28202  35.088  27.027  10.579
68909W        W28203  37.361   4.893   2.685
68910W        W28204  10.656   2.869   2.372
68911W        W28205   7.309  31.001   1.248
68912W        W28206  15.653  28.531  14.458
68913W        W28207  15.754  44.331  10.154
68914W        W28208  34.937  26.183  13.509
68915W        W28209  13.813  12.124  13.504
68916W        W28210  40.470   4.386   3.374
68917W        W28211  35.422  30.570  11.407
68918W        W28212  16.634   0.874   3.817
68919W        W28213   6.888   9.841   4.790
68920W        W28214  36.404  38.046   3.317
68921W        W28215  12.671  21.545   2.281
68922W        W28216  37.570   2.440   0.346
68923W        W28217  28.005  44.943   1.701
68924W        W28218   4.865  10.646   4.304
68925W        W28219   3.413  23.681   9.960
68926W        W28220  18.087  43.770   1.256
68927W        W28221  14.616  31.596   3.195
68928W        W28222  10.154   3.255  14.930
68929W        W28223  15.723  12.653   0.251
68930W        W28224   7.239   4.760  11.496
68931W        W28225  19.144  39.817   3.843
68932W        W28226  22.123   9.384   5.772
68933W        W28227  25.708   0.384   2.732
68934W        W28228   0.764  19.065   0.863
68935W        W28229  22.026  38.950   4.267
68936W        W28230   6.251  19.631   5.303
68937W        W28231   4.872  23.208  14.846
68938W        W28232  12.850   9.175   4.628
68939W        W28233  15.317  32.529  12.383
68940W        W28234   3.900  27.486  14.298
68941W        W28235   7.204  42.513  13.886
68942W        W28236  15.750  40.314   4.301
68943W        W28237  16.732  42.366  12.374
68944W        W28238  36.030  34.969  14.499
68945W        W28239  27.516  32.005   1.801
68946W        W28240  11.150  14.695  12.438
68947W        W28241  19.087  36.565   0.340
68948W        W28242   1.260  37.970  13.355
68949W        W28243  19.128  31.432  13.804
68950W        W28244   8.664   4.225   2.297
68951W        W28245  12.756   6.361  12.348
68952W        W28246   6.383   4.228   0.250
68953W        W28247  21.545  13.722   4.599
68954W        W28248  19.166   9.211   2.727
68955W        W28249  36.941  28.118   4.249
68956W        W28250  16.073  11.198  12.911
68957W        W28251  19.704  41.406  12.559
68958W        W28252  27.953  33.068   3.710
68959W        W28253  17.236  24.176  12.092
68960W        W28254  26.208  20.577   4.599
68961W        W28255  23.189  25.649  12.830
68962W        W28256  23.229  26.111   1.779
68963W        W28257  16.203   3.757   3.836
68964W        W28258  33.459  22.085  11.396
68965W        W28259  32.587  35.933   3.645
68966W        W28260  29.023  39.989   4.302
68967W        W28261   4.807   0.296   1.731
68968W        W28262  14.330  43.490  13.969
68969W        W28263  40.826  12.170  12.912
68970W        W28264   9.861  24.101  10.524
68971W        W28265  13.638   5.408  10.467
68972W        W28266  16.144   3.290  13.434
68973W        W28267  24.618  31.603  10.485
68974W        W28268  29.142  35.952  12.001
68975W        W28269  43.332  21.181  13.976
68976W        W28270  11.334   8.827   1.377
68977W        W28271  25.661  44.888   3.167
68978W        W28272  10.857   8.894  12.863
68979W        W28273   7.909   5.749   0.364
68980W        W28274   7.671   1.737   0.802
68981W        W28275  31.925  44.990  10.428
68982W        W28276  38.934  17.790  11.978
68983W        W28277  39.425  35.057   1.219
68984W        W28278  41.828  32.976  13.505
68985W        W28279  28.009  21.529   3.221
68986W        W28280  32.401  22.126  11.951
68987W        W28281   2.919  37.032  15.000
68988W        W28282  31.440  41.369   4.289
68989W        W28283  36.885  35.939  10.456
68990W        W28284  37.345  39.391  10.070
68991W        W28285  38.895  27.126   5.184
68992W        W28286  20.613  31.051  13.504
68993W        W28287  40.370  16.312   2.750
68994W        W28288  33.623  29.924   2.347
68995W        W28289   7.692   0.483  11.875
68996W        W28290   0.288  43.002   1.302
68997W        W28291  20.534   5.361  10.459
68998W        W28292  42.523   6.408   3.746
68999W        W28293  15.119  14.255  14.018
69000W        W28294  22.591  33.091   9.945
69001W        W28295  44.774  16.731   3.775
69002W        W28296  39.347  40.455  11.902
69003W        W28297   4.862  15.104  14.292
69004W        W28298  44.287  12.310  12.060
69005W        W28299  39.493  40.392  14.867
69006W        W28300  38.991  35.961  13.512
69007W        W28301   7.747  24.162   2.858
69008W        W28302  20.718  14.333   3.255
69009W        W28303  26.562  28.086  12.913
69010W        W28304  13.114   5.828   2.372
69011W        W28305   0.341  34.614   4.282
69012W        W28306  23.583  42.029   1.285
69013W        W28307  44.913  31.637   0.380
69014W        W28308  32.890  43.380   0.482
69015W        W28309  37.867  20.078  12.033
69016W        W28310  44.449  32.006  11.987
69017W        W28311  44.298   7.191   2.303
69018W        W28312   3.350  18.056   0.290
69019W        W28313  15.202  10.260  14.771
69020W        W28314  27.041  22.111  13.463
69021W        W28315  23.203  12.646  12.368
69022W        W28316  25.988  35.574   1.787
69023W        W28317  29.495  28.940  13.007
69024W        W28318  43.429  20.171   0.260
69025W        W28319   6.779  31.405   0.891
69026W        W28320   6.421  33.390  12.548
69027W        W28321   1.272  37.443   3.290
69028W        W28322  29.601  43.302   5.789
69029W        W28323  10.739   9.699   1.296
69030W        W28324   3.855  12.260   2.416
69031W        W28325  21.226  18.237  10.054
69032W        W28326  24.495  16.659   0.454
69033W        W28327  26.460  30.111   4.226
69034W        W28328  29.627  20.598  12.937
69035W        W28329  24.027  37.077   1.910
69036W        W28330  11.161  34.072  12.092
69037W        W28331   8.254  42.479   2.836
69038W        W28332   6.372  18.124  14.490
69039W        W28333  27.964  13.204   3.833
69040W        W28334  25.097  39.834  12.443
69041W        W28335   0.305  23.584  12.864
69042W        W28336  36.462  41.347   3.846
69043W        W28337  41.412  36.555   1.354
69044W        W28338  17.606  39.812   4.838
69045W        W28339  15.238  39.319  11.451
69046W        W28340  38.373  28.564   2.850
69047W        W28341  41.448  16.304   0.966
69048W        W28342  16.242  18.191   4.334
69049W        W28343  14.701  24.541  10.427
69050W        W28344  41.460  29.574  12.364
69051W        W28345  19.682  16.641  12.463
69052W        W28346  38.550  32.929   5.301
69053W        W28347   6.804   5.435   4.710
69054W        W28348  36.432  43.994   0.415
69055W        W28349  30.485  44.492  12.432
69056W        W28350  38.988   1.242   2.282
69057W        W28351   1.343  24.016  14.946
69058W        W28352   0.299   5.869   1.331
69059W        W28353  35.058  22.578  14.410
69060W        W28354  20.224  22.625  11.051
69061W        W28355  17.152   1.255  14.944
69062W        W28356   0.932  41.983  11.064
69063W        W28357  22.061  42.336  12.004
69064W        W28358  18.204  41.961  14.460
69065W        W28359  28.144  21.591  12.561
69066W        W28360  44.781  25.991  14.972
69067W        W28361  27.567  37.506   0.394
69068W        W28362  14.714  25.211   4.605
69069W        W28363  10.146   9.298   1.441
69070W        W28364   2.238  39.964  12.382
69071W        W28365  32.106  33.937  13.819
69072W        W28366   8.696  17.082  13.958
69073W        W28367  10.269  22.566  10.534
69074W        W28368  35.477  20.235  11.088
69075W        W28369  37.859   2.819   2.698
69076W        W28370  39.484  14.339  11.586
69077W        W28371  27.609   5.757   0.757
69078W        W28372   0.973   6.282   4.692
69079W        W28373  11.761  13.267   5.094
69080W        W28374  18.106  36.422   2.371
69081W        W28375  43.396  10.780  11.085
69082W        W28376  13.621  42.508   0.248
69083W        W28377  42.789  20.041   0.738
69084W        W28378  17.746  22.006  13.037
69085W        W28379  23.033  35.454   0.968
69086W        W28380  34.884  25.678  10.562
69087W        W28381   2.736  25.658   2.715
69088W        W28382  43.777  34.427  13.912
69089W        W28383  20.070  11.229  10.920
69090W        W28384   2.266  23.193   1.706
69091W        W28385   6.697  32.080  10.504
69092W        W28386  23.097  25.976  12.853
69093W        W28387  44.268  22.162  13.025
69094W        W28388  11.243   3.841   1.312
69095W        W28389  22.596   6.257   3.270
69096W        W28390   4.889   2.242  13.419
69097W        W28391  20.524  41.399  14.319
69098W        W28392   8.677  26.022  12.375
69099W        W28393  32.894   4.369  11.528
69100W        W28394  40.549  42.789   4.160
69101W        W28395  34.984  24.031   3.171
69102W        W28396  32.084  14.173   1.934
69103W        W28397   9.321  31.587   3.850
69104W        W28398  29.954  31.603   4.599
69105W        W28399  14.592  42.357   2.237
69106W        W28400  37.510  39.920  13.354
69107W        W28401  16.584  37.898  10.538
69108W        W28402  41.297  41.357   3.284
69109W        W28403  13.174   5.243   2.230
69110W        W28404  26.104  43.486  14.405
69111W        W28405  18.188   9.376  13.844
69112W        W28406  35.902  39.399   2.262
69113W        W28407  38.554  32.081  11.419
69114W        W28408  41.443   6.419   0.370
69115W        W28409  34.518  32.406   4.148
69116W        W28410  21.648  40.802   0.297
69117W        W28411  44.454  12.237   4.303
69118W        W28412  11.267  26.473  13.032
69119W        W28413  41.302  21.056   2.336
69120W        W28414  43.965  27.169  12.013
69121W        W28415  35.872  21.577   4.628
69122W        W28416   3.779   4.439   2.320
69123W        W28417  21.040   2.903  14.906
69124W        W28418  22.066  32.921  11.603
69125W        W28419  10.208  25.574  13.862
69126W        W28420  38.417  29.665   4.798
69127W        W28421   2.842  39.974  14.867
69128W        W28422  25.476  29.139   4.193
69129W        W28423   1.331  29.466  14.878
69130W        W28424  16.240  43.855  11.023
69131W        W28425  22.190   4.907  10.980
69132W        W28426  28.141  10.297   1.414
69133W        W28427  15.770   0.359  12.521
69134W        W28428  29.536   9.257   2.195
69135W        W28429  23.063  41.991   2.286
69136W        W28430   0.822  37.843   4.335
69137W        W28431   1.971  44.389   1.249
69138W        W28432  31.430  30.619  14.993
69139W        W28433  32.623  42.441  13.055
69140W        W28434  13.720   7.715   1.352
69141W        W28435   6.334  32.919   2.776
69142W        W28436  15.617  37.409   2.858
69143W        W28437   2.359   3.827  10.024
69144W        W28438   2.231   0.480   3.331
69145W        W28439  33.961  38.833   1.699
69146W        W28440  31.936   5.330  12.866
69147W        W28441  38.830   7.713  12.954
69148W        W28442  37.040  25.572  11.880
69149W        W28443   8.348   8.379  10.486
69150W        W28444  20.738  14.780  11.409
69151W        W28445  37.989  12.845   1.799
69152W        W28446  13.232  15.117  13.398
69153W        W28447  38.359  37.047   3.274
69154W        W28448  26.556  35.070   2.777
69155W        W28449   8.168  30.539  14.830
69156W        W28450  43.876  32.087  14.913
69157W        W28451   9.158  30.538   3.756
69158W        W28452  37.953  33.928   3.152
69159W        W28453  33.421  38.042   2.318
69160W        W28454  39.381  29.520  14.914
69161W        W28455  30.537  21.243   5.314
69162W        W28456  24.523  33.512  14.436
69163W        W28457   3.391  31.104   3.701
69164W        W28458  25.505  39.521  12.009
69165W        W28459  29.461  15.751  10.125
69166W        W28460  41.438   0.914   2.297
69167W        W28461  42.824  20.678   4.634
69168W        W28462   7.182  22.067   4.266
69169W        W28463   6.904   8.205  14.829
69170W        W28464  20.180  14.725   1.845
69171W        W28465  25.660  40.518  11.581
69172W        W28466  12.661  28.671   1.902
69173W        W28467   2.729   9.756   1.435
69174W        W28468  11.770  37.945  10.507
69175W        W28469   3.321  19.765   4.809
69176W        W28470  36.002   6.829  13.924
69177W        W28471   8.262  29.570  13.372
69178W        W28472   5.273  37.522   1.766
69179W        W28473  21.080  28.498  12.094
69180W        W28474  16.250  25.568  12.548
69181W        W28475  15.659   9.170   0.790
69182W        W28476   0.351   4.366  14.381
69183W        W28477  43.311  20.706  11.590
69184W        W28478  16.181  42.824  14.792
69185W        W28479  32.421  24.207  13.311
69186W        W28480   6.816  16.222  10.974
69187W        W28481  37.426  21.261  14.824
69188W        W28482   0.813  25.029   9.934
69189W        W28483  28.028  38.366   3.647
69190W        W28484  11.819  24.558   3.248
69191W        W28485  31.050  13.162  11.505
69192W        W28486  37.396  15.131   3.721
69193W        W28487  17.596  43.301  10.979
69194W        W28488   7.400  29.617   2.379
69195W        W28489  14.288  22.015   2.403
69196W        W28490  24.998  32.044  10.605
69197W        W28491  22.728  43.861  13.884
69198W        W28492   4.210  27.102   3.387
69199W        W28493  21.638  43.908   2.888
69200W        W28494  19.063   4.269  12.409
69201W        W28495  17.678   7.388   0.301
69202W        W28496   4.881  35.433   1.321
69203W        W28497  22.597  25.628   3.310
69204W        W28498  25.512  28.112   0.282
69205W        W28499  27.620   4.924   2.302
69206W        W28500  11.636  42.290   3.320
69207W        W28501   6.922  27.537   4.689
69208W        W28502  44.865  13.202  13.943
69209W        W28503  19.540   4.447   2.672
69210W        W28504  39.397  18.296  12.854
69211W        W28505   3.237  36.587  14.948
69212W        W28506  18.100   5.721   0.391
69213W        W28507  23.673  30.624   0.811
69214W        W28508   7.825  26.485   4.819
69215W        W28509   6.373  17.211   3.386
69216W        W28510  44.829  38.491   3.780
69217W        W28511  43.392  30.543  11.093
69218W        W28512  15.117  33.403  11.892
69219W        W28513  38.940  35.915  13.947
69220W        W28514  39.457  26.030  14.937
69221W        W28515   6.797  41.906  11.032
69222W        W28516   4.264   8.785  10.511
69223W        W28517   2.337  16.723   0.796
69224W        W28518  33.414  38.928  12.946
69225W        W28519  12.639  35.491  13.392
69226W        W28520  32.500  29.492   1.267
69227W        W28521  38.957   8.832   1.436
69228W        W28522  35.599  10.863  10.530
69229W        W28523  42.379   5.914  13.839
69230W        W28524  36.021  36.588  11.534
69231W        W28525  11.332  39.902  11.905
69232W        W28526  21.101  23.113  10.993
69233W        W28527   5.392   8.848   0.746
69234W        W28528   2.352   0.410   3.635
69235W        W28529  27.057   6.908   0.833
69236W        W28530   8.328  42.849   1.389
69237W        W28531   4.925  33.415   2.830
69238W        W28532  33.890  35.472   0.360
69239W        W28533  29.116  27.553   4.166
69240W        W28534  11.700  35.868   4.658
69241W        W28535   5.425  30.632  10.490
69242W        W28536  40.841   8.840  12.861
69243W        W28537  31.086  32.949   4.311
69244W        W28538  18.694  26.041   1.395
69245W        W28539   5.344  29.040  12.448
69246W        W28540  32.915  41.476   1.737
69247W        W28541  40.390  32.563  12.385
69248W        W28542  24.033  28.593   4.327
69249W        W28543   7.342  21.220  13.861
69250W        W28544  42.431  18.250   1.776
69251W        W28545  11.706  41.935  12.023
69252W        W28546   4.805   2.866  12.503
69253W        W28547  19.756  32.493  12.917
69254W        W28548  12.660  44.810   2.259
69255W        W28549  14.657  41.857   0.963
69256W        W28550  27.186  44.858  13.973
69257W        W28551  44.857  17.228  13.921
69258W        W28552  33.526  36.486   3.701
69259W        W28553  21.575  17.650  12.448
69260W        W28554  19.748   6.377   1.885
69261W        W28555  39.374  38.461  14.314
69262W        W28556  22.647  40.404  13.956
69263W        W28557  29.492  24.027  14.818
69264W        W28558  41.961  13.788   1.318
69265W        W28559  39.888  14.641  11.916
69266W        W28560  27.159   6.251  13.536
69267W        W28561   0.913  13.775   2.215
69268W        W28562  23.577  11.140  13.438
69269W        W28563  43.989  24.702   1.719
69270W        W28564  20.595   1.932   3.751
69271W        W28565  24.626  35.929  14.477
69272W        W28566   9.184  11.777   4.750
69273W        W28567  15.281   2.328   0.746
69274W        W28568  13.154  44.757  11.389
69275W        W28569  38.546  37.888  11.955
69276W        W28570   8.857   0.312  14.455
69277W        W28571   1.355  36.514   3.313
69278W        W28572  38.833  34.478  12.432
69279W        W28573   5.252  23.500  11.433
69280W        W28574  35.592  37.919   2.891
69281W        W28575   4.378   6.324   4.614
69282W        W28576  37.566   2.826   2.745
69283W        W28577  42.460  36.854   4.285
69284W        W28578  35.067   8.711   0.964
69285W        W28579  15.703   4.766  14.954
69286W        W28580  31.513  18.266   3.849
69287W        W28581  32.419  33.383   0.327
69288W        W28582  10.673  42.387   4.826
69289W        W28583  29.578  14.339  11.542
69290W        W28584  38.885  21.193   4.278
69291W        W28585  32.889   3.819   2.306
69292W        W28586  27.573  32.888   3.274
69293W        W28587   1.960  23.231  11.392
69294W        W28588  29.005  31.920   4.299
69295W        W28589  33.567  32.051  10.151
69296W        W28590  14.817  42.840  10.087
69297W        W28591  29.465   7.836  12.974
69298W        W28592   7.826  15.112  11.431
69299W        W28593  27.619   2.349  13.836
69300W        W28594  29.612  44.814   4.291
69301W        W28595  27.508  13.684   1.814
69302W        W28596  10.681   7.753  13.862
69303W        W28597  43.410  11.189   4.319
69304W        W28598  37.551  38.411  10.022
69305W        W28599  31.535   0.273   4.673
69306W        W28600  39.553   5.796  12.022
69307W        W28601  30.630  27.175  11.514
69308W        W28602  40.813   3.746  13.803
69309W        W28603  34.040  29.564   1.893
69310W        W28604   7.791  42.357   0.944
69311W        W28605  12.750   3.386  12.073
69312W        W28606  13.331  24.684  12.890
69313W        W28607  44.999  18.139   0.376
69314W        W28608  26.653  13.676   2.893
69315W        W28609  15.217   8.307  11.905
69316W        W28610   2.798   4.436   3.688
69317W        W28611  37.457  15.696   3.374
69318W        W28612  34.057  13.331  11.379
69319W        W28613  32.049   0.943  12.944
69320W        W28614  31.916  36.855  13.443
69321W        W28615  41.845  21.240   5.182
69322W        W28616  11.344   3.282   4.330
69323W        W28617  17.635  25.088   2.409
69324W        W28618   2.245  40.507   4.143
69325W        W28619   9.880   7.749  14.391
69326W        W28620  38.405   0.988   0.821
69327W        W28621  28.955   8.387   3.817
69328W        W28622  35.921  13.348   3.206
69329W        W28623  34.601  42.501   0.870
69330W        W28624  37.067  31.526   2.301
69331W        W28625  13.809  42.787  10.125
69332W        W28626  36.026  44.913   4.216
69333W        W28627  42.867  27.057  14.942
69334W        W28628   7.291  41.457  10.963
69335W        W28629  19.276  36.474  12.075
69336W        W28630  33.956  15.326   3.827
69337W        W28631  29.520  42.880   0.458
69338W        W28632  36.950   5.741   0.884
69339W        W28633  18.079  14.694   4.780
69340W        W28634   2.227  35.532  13.497
69341W        W28635  42.370  29.490   0.810
69342W        W28636  15.804  16.687   1.745
69343W        W28637  19.548  38.568  13.359
69344W        W28638  19.605  36.850   2.757
69345W        W28639  25.126  20.057  13.498
69346W        W28640  23.535  16.759   4.165
69347W        W28641  13.266  14.659   2.851
69348W        W28642   1.414  24.206  11.939
69349W        W28643  27.670   0.446   4.632
69350W        W28644  33.119  25.032   2.266
69351W        W28645  36.422   4.877   1.296
69352W        W28646  42.783   5.350   2.243
69353W        W28647  34.025  31.095  13.039
69354W        W28648  40.423  14.229   4.247
69355W        W28649  18.658  22.031  11.592
69356W        W28650   4.892  29.633  13.461
69357W        W28651  13.224  41.887  13.515
69358W        W28652  14.176  17.645   0.336
69359W        W28653   3.791  40.356  10.561
69360W        W28654  43.409   3.915  14.921
69361W        W28655  12.851  32.430   3.366
69362W        W28656  37.066   6.423   1.879
69363W        W28657  25.055  36.074  13.985
69364W        W28658   6.711  21.199  11.434
69365W        W28659  29.607  22.585   3.750
69366W        W28660  32.115  34.035   2.832
69367W        W28661  28.594  20.600   0.743
69368W        W28662  19.555  25.640   4.724
69369W        W28663  21.707  15.719   1.750
69370W        W28664   4.889  13.635   2.870
69371W        W28665  19.088  21.737   3.833
69372W        W28666  34.369   7.374   5.786
69373W        W28667  41.343  10.764  12.906
69374W        W28668  30.608   5.913   1.222
69375W        W28669  14.607  38.949  11.004
69376W        W28670  33.876  41.443  14.934
69377W        W28671  41.921  38.433   2.211
69378W        W28672  33.015  13.246   3.818
69379W        W28673  44.464   2.301   0.883
69380W        W28674  33.451  35.990   1.724
69381W        W28675  17.122  24.506  11.385
69382W        W28676  39.479  17.568  11.512
69383W        W28677  33.899  15.270   0.343
69384W        W28678  18.131  17.245  11.564
69385W        W28679   2.389  37.925   3.755
69386W        W28680  34.956  23.994  10.938
69387W        W28681  16.572  25.059   3.168
69388W        W28682  22.126  38.469  13.494
69389W        W28683  33.981   0.428  11.092
69390W        W28684   4.831  15.232  11.869
69391W        W28685  38.542  28.566   4.753
69392W        W28686  29.600  18.667  12.043
69393W        W28687   8.207  29.986  11.420
69394W        W28688  37.379  37.073   3.218
69395W        W28689  15.303  18.055  11.925
69396W        W28690  24.138   7.191   2.721
69397W        W28691  13.649  34.059  11.003
69398W        W28692  26.061  39.011  12.958
69399W        W28693   8.677  11.210   4.195
69400W        W28694  12.184  11.192   1.848
69401W        W28695  31.608  25.485   1.883
69402W        W28696  36.539  42.795  14.306
69403W        W28697  10.283  35.094   0.815
69404W        W28698   5.209  31.527  10.493
69405W        W28699   7.277  19.673   2.891
69406W        W28700  11.348  13.215   3.837
69407W        W28701   7.729  41.475   5.173
69408W        W28702  12.168  11.784  13.038
69409W        W28703  34.023  15.213  14.828
69410W        W28704  15.230  21.644   4.624
69411W        W28705  33.096  16.781  12.081
69412W        W28706  23.697   1.911  13.344
69413W        W28707   0.890  34.965   1.227
69414W        W28708  28.532   3.846   3.272
69415W        W28709   7.682  35.477  12.928
69416W        W28710  25.691  26.147   0.781
69417W        W28711  41.811   1.242   5.666
69418W        W28712   0.362  15.323   2.222
69419W        W28713  12.208  29.929   1.850
69420W        W28714  44.433  42.850   2.353
69421W        W28715  14.106  38.454   0.845
69422W        W28716  19.732  30.956   3.257
69423W        W28717   2.338  18.250  10.103
69424W        W28718  11.622  10.213   0.352
69425W        W28719   5.849  25.688   3.374
69426W        W28720  38.065  21.085   2.706
69427W        W28721  16.202  16.593   9.982
69428W        W28722   5.822  15.787  10.633
69429W        W28723  12.220  30.032   1.381
69430W        W28724  17.565  40.836   0.797
69431W        W28725  40.875  33.081   2.241
69432W        W28726  30.485  42.980   1.435
69433W        W28727   3.803  26.496   2.257
69434W        W28728   2.931  42.427  13.944
69435W        W28729  21.525  23.601  10.997
69436W        W28730   6.830  19.535  10.063
69437W        W28731  41.303  28.175   0.905
69438W        W28732  15.179   7.186   3.320
69439W        W28733  16.675   1.837  11.521
69440W        W28734   1.763   4.433  11.584
69441W        W28735  36.565  21.100   5.087
69442W        W28736   9.275  26.462  11.580
69443W        W28737   7.270  11.232   3.824
69444W        W28738  39.533  33.896   5.650
69445W        W28739   7.294  13.319  10.895
69446W        W28740  24.009  15.131  14.982
69447W        W28741   5.841  23.198  12.577
69448W        W28742   3.409  26.501   3.822
69449W        W28743  43.287  25.635  10.928
69450W        W28744  38.522   9.688  12.899
69451W        W28745   2.360  10.842   2.373
69452W        W28746   3.271  26.490  10.583
69453W        W28747  26.474  35.941   0.881
69454W        W28748  28.436  18.742   2.265
69455W        W28749  25.554  13.348  12.533
69456W        W28750   4.792  31.974   0.730
69457W        W28751  16.115  26.656   2.395
69458W        W28752  33.599  12.692  11.411
69459W        W28753  13.729  25.180   3.745
69460W        W28754   3.907  14.634   1.253
69461W        W28755  10.752  22.603   2.373
69462W        W28756   6.332  40.345  10.489
69463W        W28757  13.672  10.648   3.797
69464W        W28758  20.246   3.401   0.272
69465W        W28759  11.834  44.966   0.262
69466W        W28760  10.863   3.356  13.509
69467W        W28761   1.314   8.391  11.538
69468W        W28762  19.269   4.887  13.805
69469W        W28763   7.315  12.761  11.418
69470W        W28764  20.191  19.534  13.482
69471W        W28765   5.930  27.187   3.192
69472W        W28766  37.522  17.678  10.931
69473W        W28767  29.582  39.979   1.335
69474W        W28768  39.470  37.493   1.890
69475W        W28769  40.431  14.826  12.430
69476W        W28770  39.331  31.536  13.955
69477W        W28771   4.790  30.503  12.847
69478W        W28772  42.441  31.543   0.802
69479W        W28773  26.197   2.869  11.990
69480W        W28774  20.111  22.083  11.096
69481W        W28775  44.917  26.556   1.834
69482W        W28776  34.879  25.497   2.265
69483W        W28777  23.238  10.278   2.814
69484W        W28778  41.892  22.243  10.414
69485W        W28779  38.490  42.822   0.424
69486W        W28780   1.439  29.135   4.198
69487W        W28781  38.066  25.597   0.254
69488W        W28782  20.223  28.993   3.256
69489W        W28783  20.532  14.629   3.675
69490W        W28784  16.620  37.467  10.468
69491W        W28785  28.959  32.402   3.699
69492W        W28786  20.656  35.431   3.188
69493W        W28787  14.765  28.005  14.388
69494W        W28788  18.246   3.901  12.894
69495W        W28789  15.143  23.565   3.251
69496W        W28790   3.322  32.434  14.485
69497W        W28791  36.025   3.437   0.273
69498W        W28792  39.488   5.807  13.832
69499W        W28793  12.170  43.853  13.846
69500W        W28794  32.556  38.561   5.322
69501W        W28795  34.541  31.511   1.804
69502W        W28796  33.114  41.021  14.467
69503W        W28797  27.537  36.845  14.502
69504W        W28798  32.531   5.277   4.709
69505W        W28799  29.158   9.811  12.966
69506W        W28800  36.407  12.207   1.311
69507W        W28801   6.679  15.186   2.208
69508W        W28802  18.203  31.007  14.015
69509W        W28803  14.309  31.434   0.947
69510W        W28804   5.334   3.942  10.148
69511W        W28805  29.553   2.904  11.011
69512W        W28806  38.534  41.304   0.377
69513W        W28807  22.723  42.869   4.820
69514W        W28808  25.706  31.153   2.738
69515W        W28809   3.879  27.635   0.858
69516W        W28810  18.165   5.327  10.997
69517W        W28811  33.987  31.950   3.797
69518W        W28812   3.413  17.224   3.660
69519W        W28813  20.218   7.298   3.805
69520W        W28814  25.713  17.209   4.700
69521W        W28815  44.883  35.981  14.855
69522W        W28816  22.710  25.040   3.654
69523W        W28817  10.162  30.483  13.906
69524W        W28818  33.032   9.803  11.456
69525W        W28819   2.462   8.820  14.369
69526W        W28820  29.616  43.832  13.885
69527W        W28821  23.506   2.903  10.962
69528W        W28822  34.459  19.648   0.967
69529W        W28823  34.075  38.536   4.298
69530W        W28824   8.328   1.963   5.800
69531W        W28825  20.086   9.235   4.696
69532W        W28826  42.432  28.010  11.973
69533W        W28827  39.547  38.967  12.491
69534W        W28828  21.134   6.228  11.075
69535W        W28829  14.607  24.530   1.813
69536W        W28830   2.756  31.591  14.883
69537W        W28831  28.138  10.764   2.250
69538W        W28832  14.695  29.091  12.446
69539W        W28833  31.459  31.032   3.267
69540W        W28834  26.689  12.265  11.066
69541W        W28835   4.368  12.856   0.374
69542W        W28836  41.960  38.354   1.217
69543W        W28837  14.658  35.366  10.589
69544W        W28838  41.866   5.370  11.593
69545W        W28839  35.985  33.626   1.805
69546W        W28840  34.944   8.361   0.307
69547W        W28841  44.378  25.689   0.821
69548W        W28842   0.450   8.862  13.812
69549W        W28843   0.985  23.138   2.250
69550W        W28844  23.657   0.387   1.267
69551W        W28845   2.751  33.431  12.852
69552W        W28846  34.083   8.896  12.542
69553W        W28847  35.400  31.123   1.831
69554W        W28848  24.211  28.151   2.372
69555W        W28849  26.004  28.440  14.420
69556W        W28850  36.444  13.264  13.373
69557W        W28851  29.023  20.195   0.854
69558W        W28852  22.103   7.823   3.367
69559W        W28853  35.097  31.090   4.728
69560W        W28854  14.247  32.390   3.870
69561W        W28855  35.999  38.941   3.183
69562W        W28856  31.614   5.903  13.982
69563W        W28857  10.742  30.978   1.817
69564W        W28858  41.480   5.712   0.943
69565W        W28859  25.158  43.859  14.488
69566W        W28860   7.193  43.348   4.798
69567W        W28861   6.341  41.371   0.940
69568W        W28862  14.219  12.302  12.557
69569W        W28863  36.027  26.619  14.956
69570W        W28864   5.356  23.169   0.337
69571W        W28865  13.813  22.088   3.694
69572W        W28866   2.302  21.159  10.089
69573W        W28867  25.699   4.758  13.432
69574W        W28868   2.823   3.874  12.423
69575W        W28869  37.335  43.876  14.032
69576W        W28870   9.805   6.683   4.662
69577W        W28871  38.446  15.102   4.810
69578W        W28872  14.827  23.578   3.635
69579W        W28873  16.315  24.721  10.995
69580W        W28874   5.381  30.012   4.161
69581W        W28875  10.785   4.881   2.693
69582W        W28876   3.926  11.806   4.637
69583W        W28877  36.027  44.302  12.383
69584W        W28878  33.618   3.295   0.846
69585W        W28879   7.246  23.529   1.810
69586W        W28880  35.885  28.156   2.332
69587W        W28881  35.378   7.810   5.188
69588W        W28882  44.899  35.054   4.342
69589W        W28883  39.042  23.004  12.923
69590W        W28884  16.215  26.032   2.366
69591W        W28885   7.316  26.168   3.785
69592W        W28886  19.149  40.423   0.315
69593W        W28887   8.720  26.199  13.827
69594W        W28888  41.467  24.670   4.187
69595W        W28889  35.544  23.233  13.414
69596W        W28890  14.691   6.309   3.854
69597W        W28891  30.114   8.682  14.998
69598W        W28892  43.838  40.391   1.427
69599W        W28893   6.305  29.918   3.201
69600W        W28894  17.301  43.996  14.468
69601W        W28895  23.203  41.864  13.530
69602W        W28896  10.793   8.887  13.470
69603W        W28897  33.383  27.034   0.898
69604W        W28898  31.108  27.102  10.993
69605W        W28899  32.572  30.509  10.483
69606W        W28900  23.110  19.086  10.982
69607W        W28901  28.044  37.516  14.846
69608W        W28902  21.559  21.733   0.853
69609W        W28903  26.489  34.070  12.079
69610W        W28904  41.406   0.962  13.013
69611W        W28905  18.198  37.923   3.808
69612W        W28906  24.216   3.744  14.400
69613W        W28907   1.241  35.602   1.747
69614W        W28908  44.758  40.907   2.216
69615W        W28909  19.729  23.189   1.879
69616W        W28910   5.876  10.744   4.729
69617W        W28911  27.172  31.144  13.516
69618W        W28912  44.271  38.061   1.277
69619W        W28913  14.590  20.537  13.021
69620W        W28914   3.938  23.177  13.052
69621W        W28915  25.970  23.176   3.251
69622W        W28916  11.843   8.743  12.563
69623W        W28917  25.095  42.776  11.889
69624W        W28918  13.261  13.128  14.004
69625W        W28919  13.634   4.718   2.844
69626W        W28920  36.006   6.411  10.910
69627W        W28921  27.662  16.590  12.824
69628W        W28922  11.153  43.489   1.358
69629W        W28923   2.365  24.666  10.596
69630W        W28924  20.235  42.418   1.332
69631W        W28925   3.926  35.474  12.544
69632W        W28926  44.316  14.801  10.991
69633W        W28927  28.491   8.699  11.974
69634W        W28928  39.402  39.934  11.044
69635W        W28929  10.319  13.273   0.858
69636W        W28930   9.676  44.758   3.817
69637W        W28931  41.036  27.026   0.291
69638W        W28932  22.248  41.524  10.433
69639W        W28933  11.356  11.222   2.821
69640W        W28934  21.245   8.176  11.535
69641W        W28935  39.967  35.512   2.721
69642W        W28936  36.405   2.465  14.453
69643W        W28937  16.303   6.912   3.207
69644W        W28938   0.399  10.699   3.290
69645W        W28939  29.448  30.541  12.095
69646W        W28940  30.133  36.991   3.776
69647W        W28941  26.128  18.157  12.544
69648W        W28942  42.877  22.728   1.694
69649W        W28943   1.797  35.955   3.264
69650W        W28944  29.042   8.664   3.191
69651W        W28945   0.273  42.525   0.842
69652W        W28946  32.910  39.968   1.822
69653W        W28947   4.900  43.847  14.997
69654W        W28948   5.323   2.798  12.408
69655W        W28949  24.998   8.304   1.873
69656W        W28950  11.771  37.578  10.481
69657W        W28951   7.340  30.653   1.862
69658W        W28952  22.624  24.635   2.784
69659W        W28953  21.135  34.000   3.213
69660W        W28954  32.548   4.906  14.470
69661W        W28955  31.644  11.711   2.808
69662W        W28956   5.413   4.824  14.373
69663W        W28957  36.385  22.719   3.147
69664W        W28958  11.841   0.803   2.358
69665W        W28959   6.860  43.766   0.342
69666W        W28960  36.555  29.172  14.983
69667W        W28961  24.123  36.904   3.836
69668W        W28962  38.387   0.758  10.996
69669W        W28963  16.755  16.725   0.947
69670W        W28964  38.055  27.676  13.403
69671W        W28965  20.062  22.092  13.372
69672W        W28966   6.323  13.307  13.393
69673W        W28967  13.768  37.528   2.191
69674W        W28968  12.721  41.979   3.664
69675W        W28969   4.326   5.801  10.486
69676W        W28970  33.907  10.231  13.310
69677W        W28971   9.759  31.126  12.066
69678W        W28972  43.399  10.307  14.321
69679W        W28973  12.353  32.403  10.941
69680W        W28974  25.502  39.443  11.024
69681W        W28975  35.547  33.099  14.884
69682W        W28976  25.630  19.262   1.295
69683W        W28977  23.528  35.586  11.983
69684W        W28978  30.151  13.651  11.413
69685W        W28979  19.169   1.737   1.849
69686W        W28980  33.026  43.902   2.361
69687W        W28981  22.156  14.720   4.269
69688W        W28982  29.624   8.340   0.766
69689W        W28983  33.624  43.422   1.773
69690W        W28984  37.456  29.430  12.347
69691W        W28985  19.628  25.996  14.953
69692W        W28986  28.126  31.905   2.318
69693W        W28987  21.646  33.621   0.760
69694W        W28988  17.187  33.950  11.017
69695W        W28989  44.811  29.115  12.893
69696W        W28990  30.943  27.168  10.553
69697W        W28991  37.467  18.670  11.997
69698W        W28992  13.708  29.425  10.447
69699W        W28993  24.093  31.464   2.275
69700W        W28994  25.183  29.073  12.504
69701W        W28995  36.920  44.872   1.441
69702W        W28996   9.779  15.692   1.787
69703W        W28997  39.322   1.266   4.728
69704W        W28998   5.279  44.910   1.855
69705W        W28999  26.010  26.122  13.023
69706W        W29000  34.612   2.311  13.847
69707W        W29001  40.985  14.761  13.317
69708W        W29002   6.242  39.417  14.789
69709W        W29003  10.173   4.257   4.823
69710W        W29004  11.203  41.806  12.064
69711W        W29005  24.565  12.661  12.403
69712W        W29006  39.481  26.663  11.091
69713W        W29007   9.795  39.825  11.076
69714W        W29008  16.661  44.923   1.326
69715W        W29009   6.260   5.209  13.926
69716W        W29010  40.362  15.587  11.567
69717W        W29011  20.612  21.519  10.451
69718W        W29012  25.540  34.894   0.772
69719W        W29013   3.912  14.321  13.479
69720W        W29014   5.398   8.206   1.433
69721W        W29015  14.096   9.885  11.896
69722W        W29016  39.450  10.683  10.115
69723W        W29017  37.982   4.446   4.304
69724W        W29018  42.370  20.090  12.514
69725W        W29019  44.852  32.495   2.662
69726W        W29020  34.985   2.952  11.041
69727W        W29021  22.190  39.428  12.538
69728W        W29022  33.989   2.376  13.477
69729W        W29023  12.806  11.678   3.724
69730W        W29024  24.485   5.319   2.382
69731W        W29025  43.943  23.562  12.889
69732W        W29026   6.812   0.426  14.419
69733W        W29027  25.558  26.650  11.027
69734W        W29028   3.224  33.411  10.930
69735W        W29029  41.428  33.612   9.524
69736W        W29030  37.921  15.707   3.218
69737W        W29031  10.201  22.146   4.340
69738W        W29032  44.457  28.050  12.567
69739W        W29033  16.596   5.343   3.328
69740W        W29034  17.306   7.836   3.862
69741W        W29035  21.038  40.310   0.917
69742W        W29036  37.056   0.454   3.179
69743W        W29037  37.367  25.026  13.340
69744W        W29038  30.932   0.391  11.890
69745W        W29039  24.549  10.330   0.242
69746W        W29040   7.679  36.585   0.399
69747W        W29041  25.469  22.734  14.345
69748W        W29042  25.172   6.398   4.253
69749W        W29043   5.267   7.265  12.990
69750W        W29044  37.934  41.464   2.355
69751W        W29045  37.575   9.276  11.949
69752W        W29046  17.661   4.752   4.246
69753W        W29047   6.366   7.862  12.875
69754W        W29048  43.312  34.904  11.583
69755W        W29049   6.735  28.091   3.774
69756W        W29050  30.133   8.267   3.629
69757W        W29051  24.718  19.752  12.415
69758W        W29052  41.834   7.832  14.777
69759W        W29053  18.273  17.793   1.427
69760W        W29054   8.658  44.445   2.210
69761W        W29055  44.283   9.310  11.542
69762W        W29056  40.893  25.101  10.533
69763W        W29057  27.122   1.918  12.535
69764W        W29058   9.809   5.736   3.312
69765W        W29059   7.212  12.256   2.748
69766W        W29060  19.091  28.650  14.842
69767W        W29061  27.053  21.743  13.438
69768W        W29062   7.883  20.723   1.338
69769W        W29063  42.476  14.694   1.258
69770W        W29064  42.911  19.094   3.677
69771W        W29065   8.797  24.190  10.892
69772W        W29066  16.125   3.815  11.376
69773W        W29067  15.761  34.973   1.375
69774W        W29068  16.754   6.209  12.553
69775W        W29069  27.526  35.377  12.889
69776W        W29070   1.888   1.871   5.232
69777W        W29071   9.822   0.778  12.002
69778W        W29072  32.957  41.819   4.698
69779W        W29073   1.263  16.236   4.728
69780W        W29074  32.440  27.181   4.793
69781W        W29075  43.330  16.117   1.262
69782W        W29076   3.280  29.085   2.299
69783W        W29077   1.917  36.023  12.545
69784W        W29078  22.041   6.325  13.878
69785W        W29079  44.443  10.216   1.811
69786W        W29080   2.249   1.277  13.796
69787W        W29081  12.198   4.204   3.731
69788W        W29082   2.463  10.259  14.451
69789W        W29083  11.770  12.747   3.229
69790W        W29084  29.542  31.418   0.262
69791W        W29085  42.998   0.742  12.441
69792W        W29086  22.156  18.698   0.302
69793W        W29087  11.792  23.652   4.718
69794W        W29088   9.280  26.648   3.359
69795W        W29089   6.918  25.104   4.620
69796W        W29090  20.677   2.926   2.746
69797W        W29091  23.495  38.563   0.274
69798W        W29092  19.570  37.451   4.626
69799W        W29093  31.982  13.652  12.436
69800W        W29094  38.381  43.505   2.187
69801W        W29095  28.485   1.751  13.823
69802W        W29096   7.862  24.494  10.544
69803W        W29097  39.959   0.410   2.834
69804W        W29098  41.360  19.215  14.336
69805W        W29099  32.133  26.052   3.783
69806W        W29100  27.988  32.609   3.825
69807W        W29101  28.477  21.069   1.788
69808W        W29102   3.263  19.079  12.003
69809W        W29103  10.868   8.819  10.550
69810W        W29104  44.864  42.874   5.163
69811W        W29105  19.109  27.090   2.326
69812W        W29106  29.523  10.229  11.520
69813W        W29107  27.596  11.314   4.734
69814W        W29108  38.876  18.548  13.037
69815W        W29109  41.342  15.812  13.031
69816W        W29110  26.473   7.811  10.515
69817W        W29111  35.477  30.518  12.957
69818W        W29112  35.942  13.324  14.516
69819W        W29113  24.044  24.631   1.360
69820W        W29114  21.678  12.822   2.250
69821W        W29115   9.791  10.758  13.324
69822W        W29116  31.590   9.181   0.947
69823W        W29117  44.331  12.138  13.456
69824W        W29118  17.799  25.507  10.455
69825W        W29119  44.265   9.860  13.924
69826W        W29120  10.207  24.673  14.869
69827W        W29121  16.121  33.964  13.846
69828W        W29122  37.867  28.078  14.356
69829W        W29123  29.645  27.139   1.253
69830W        W29124  37.342  11.229   1.795
69831W        W29125  29.615  43.506  14.803
69832W        W29126  20.130  30.957  12.937
69833W        W29127  24.035   7.297  14.001
69834W        W29128  43.374  12.786  14.996
69835W        W29129  31.500   9.217  12.546
69836W        W29130  18.784  19.597  13.047
69837W        W29131  33.468  24.128  14.380
69838W        W29132  28.678   1.323  11.965
69839W        W29133  28.104  20.755  14.773
69840W        W29134  42.379  39.894  13.055
69841W        W29135  15.786  29.088   2.858
69842W        W29136  33.523  14.121  10.134
69843W        W29137   5.261  38.819   1.907
69844W        W29138  41.470   7.748  13.452
69845W        W29139  10.367  21.656   3.796
69846W        W29140   7.674  40.922   2.705
69847W        W29141   5.409  11.650   1.341
69848W        W29142  23.038  34.531   1.831
69849W        W29143  40.986   5.747   4.170
69850W        W29144  31.094  33.484   4.630
69851W        W29145  28.556  11.274   4.830
69852W        W29146  25.518  35.409   2.257
69853W        W29147  44.908  21.167   4.134
69854W        W29148  33.061  27.054  11.602
69855W        W29149  35.081   4.905  12.391
69856W        W29150  13.161  20.734  11.413
69857W        W29151  22.722  22.153  12.968
69858W        W29152  44.292  23.017  14.934
69859W        W29153  32.119  10.682   0.935
69860W        W29154  12.814  35.460   2.748
69861W        W29155   2.752   4.909   2.769
69862W        W29156  10.225  15.647   3.843
69863W        W29157  10.153  38.897   3.279
69864W        W29158  32.583  14.189  12.571
69865W        W29159  19.199  34.420   2.683
69866W        W29160  38.546  34.993  14.276
69867W        W29161  31.551  29.092   4.837
69868W        W29162   6.185  39.855   4.208
69869W        W29163  30.608  33.914   3.308
69870W        W29164  31.112   6.263   2.789
69871W        W29165  34.034  42.325   3.650
69872W        W29166  25.621  44.782  12.915
69873W        W29167  24.577  19.105   4.838
69874W        W29168  26.512  41.403   0.314
69875W        W29169   4.409  10.726   0.795
69876W        W29170  31.504   3.819   0.933
69877W        W29171   6.235  10.254   3.193
69878W        W29172   4.400   6.868   1.342
69879W        W29173  27.014   2.763   2.266
69880W        W29174  27.484  33.619   2.350
69881W        W29175  43.809  38.031  12.829
69882W        W29176  20.173  37.351  13.420
69883W        W29177  38.052   3.845  13.847
69884W        W29178   7.233  10.357  12.418
69885W        W29179   1.279  37.435  13.904
69886W        W29180  15.787  16.217   2.744
69887W        W29181  36.366   9.648  14.458
69888W        W29182  25.512   2.834  14.776
69889W        W29183  35.948  11.694   4.624
69890W        W29184  43.456  20.095   4.179
69891W        W29185  34.925  25.191  14.831
69892W        W29186  33.448   5.712   0.882
69893W        W29187  24.671  36.046  13.438
69894W        W29188  31.595  42.484  12.870
69895W        W29189  26.173  25.095  14.978
69896W        W29190  17.155  30.001   1.404
69897W        W29191   0.758  38.022  12.830
69898W        W29192  41.526  18.656   4.821
69899W        W29193  15.618  30.103   3.289
69900W        W29194   4.322  14.745   1.732
69901W        W29195  18.177  40.442   2.758
69902W        W29196   1.866  21.517   2.837
69903W        W29197  31.971   1.958  12.027
69904W        W29198  39.046  33.006   2.755
69905W        W29199   8.222  27.134  11.399
69906W        W29200  31.103  41.323  14.400
69907W        W29201  15.634  10.217   2.340
69908W        W29202  18.087   3.344   3.676
69909W        W29203  30.998  17.095   0.915
69910W        W29204   4.331   3.355   3.656
69911W        W29205  40.460  19.643  10.535
69912W        W29206  40.871  11.768  14.299
69913W        W29207  23.175  19.153   2.325
69914W        W29208  19.713  25.712   2.393
69915W        W29209  18.547  10.723   2.282
69916W        W29210  32.952  12.331  13.496
69917W        W29211  34.527  28.644  11.098
69918W        W29212  30.937  44.991  13.853
69919W        W29213  22.205  17.732  14.921
69920W        W29214  25.036  16.147  14.994
69921W        W29215  25.692  17.239   2.189
69922W        W29216  35.580  17.165   2.239
69923W        W29217   0.329  14.751  11.109
69924W        W29218   2.292  31.583   2.747
69925W        W29219  44.371  13.763   1.231
69926W        W29220  31.087  24.222   5.155
69927W        W29221   7.810  32.109   0.256
69928W        W29222  34.925  43.458  11.566
69929W        W29223  22.051  24.565   0.402
69930W        W29224   1.905  12.700   4.808
69931W        W29225  30.012  34.462  11.111
69932W        W29226  23.675  19.146  14.434
69933W        W29227  31.596  36.845   1.400
69934W        W29228  18.102   1.961   1.855
69935W        W29229  15.712  10.279   4.122
69936W        W29230  40.867   6.861   4.167
69937W        W29231   8.746  16.639   1.812
69938W        W29232  26.143  44.431   0.315
69939W        W29233   6.848  24.092  11.589
69940W        W29234  39.358  12.779  14.928
69941W        W29235   8.750  23.002  14.021
69942W        W29236  44.009  17.555  13.045
69943W        W29237  17.780   8.662   3.193
69944W        W29238  33.462  16.576  14.804
69945W        W29239   9.831  34.963   1.403
69946W        W29240  20.620  13.678  10.632
69947W        W29241   4.382  26.045  14.013
69948W        W29242  23.140  19.673  13.896
69949W        W29243  39.042   2.438   2.210
69950W        W29244  11.671  34.068  13.965
69951W        W29245  32.958  18.657   2.789
69952W        W29246  23.669  11.232   3.680
69953W        W29247  23.734   9.824  13.318
69954W        W29248  12.181  22.143   1.309
69955W        W29249  25.063  14.637   2.367
69956W        W29250  20.629  15.769  10.482
69957W        W29251  12.758  34.377   1.761
69958W        W29252  43.357  14.751  11.569
69959W        W29253   9.829  11.811   0.858
69960W        W29254  32.474  10.702  11.559
69961W        W29255  31.986  32.429  12.353
69962W        W29256   4.811  41.887   1.247
69963W        W29257  13.174  30.125   1.804
69964W        W29258  40.446  27.954  11.389
69965W        W29259  20.539  40.890   1.254
69966W        W29260   7.226  44.899  10.531
69967W        W29261   1.842  27.462  14.933
69968W        W29262  25.094  36.901  14.902
69969W        W29263  20.232  36.355  11.480
69970W        W29264  42.331  24.513  14.766
69971W        W29265   7.204  12.199  13.813
69972W        W29266  21.612  36.469   1.717
69973W        W29267  26.620  32.931   2.327
69974W        W29268  22.234  11.674  11.433
69975W        W29269   2.298  13.108   1.884
69976W        W29270  23.038   6.229   9.456
69977W        W29271  13.349  32.013  10.934
69978W        W29272   0.437  13.116  12.531
69979W        W29273  16.259  23.138   1.759
69980W        W29274  10.357  16.178   4.837
69981W        W29275  44.815  37.068  13.486
69982W        W29276  35.896  41.971   5.213
69983W        W29277  27.627  25.497  12.036
69984W        W29278  14.198  29.111  13.859
69985W        W29279  41.397   3.276  12.396
69986W        W29280  16.264  34.535   4.339
69987W        W29281  11.844  34.402   3.681
69988W        W29282   1.779  33.619   1.334
69989W        W29283   9.848   6.295   3.370
69990W        W29284  32.581  32.588  11.881
69991W        W29285  14.637  35.884   3.725
69992W        W29286  44.287  22.516  13.895
69993W        W29287   2.359  36.385   3.285
69994W        W29288  40.451  22.695  11.984
69995W        W29289  38.056  21.148   5.185
69996W        W29290  33.131  35.107   2.317
69997W        W29291  13.209  32.530   0.745
69998W        W29292  39.526  32.010  14.449
69999W        W29293  38.831  15.252   1.356
70000W        W29294  11.843  38.989  14.490
70001W        W29295  41.466  30.088   0.294
70002W        W29296  43.000  14.784   2.309
70003W        W29297  30.970  42.971  10.114
70004W        W29298  35.386  14.657  12.504
70005W        W29299  27.037  22.027   4.791
70006W        W29300  25.516  21.579   3.356
70007W        W29301  26.040  30.940   4.335
70008W        W29302   1.940  29.006  13.520
70009W        W29303  22.646  11.228  13.317
70010W        W29304  26.590   9.148  13.423
70011W        W29305  22.211  38.032  14.459
70012W        W29306   0.434  18.665   3.269
70013W        W29307  36.473  31.068   0.477
70014W        W29308  34.610  19.117   1.210
70015W        W29309  27.013  13.209  13.992
70016W        W29310  39.000  43.994  13.518
70017W        W29311  25.670  11.673   4.246
70018W        W29312  14.800  17.721  14.476
70019W        W29313   1.970  39.040  13.838
70020W        W29314  33.466  21.555   2.322
70021W        W29315  25.109   3.883  14.275
70022W        W29316  16.644  23.078   5.806
70023W        W29317  10.716  42.501   1.747
70024W        W29318   8.822   4.814  14.885
70025W        W29319  12.675  44.953  14.512
70026W        W29320  15.087  39.410  10.509
70027W        W29321  16.133  17.782   0.275
70028W        W29322  22.640  17.088   3.332
70029W        W29323  26.999  41.005   3.211
70030W        W29324  38.988   6.914   1.878
70031W        W29325  10.863  25.135  12.097
70032W        W29326  27.190  40.498  12.450
70033W        W29327  30.587  34.501  11.578
70034W        W29328  24.555  28.991   0.303
70035W        W29329  43.887  33.442   3.672
70036W        W29330  36.553  40.814   3.337
70037W        W29331  10.264  41.397   4.783
70038W        W29332  13.743  16.577  14.887
70039W        W29333   9.863  10.663  12.468
70040W        W29334  19.180  21.690   2.675
70041W        W29335  35.032  42.303   0.948
70042W        W29336  43.954   2.840  12.918
70043W        W29337   4.903  22.579  14.884
70044W        W29338  30.156   2.741   4.836
70045W        W29339  16.663  30.065  14.827
70046W        W29340  30.434  28.523   2.373
70047W        W29341  38.545  29.509  14.840
70048W        W29342   2.438  18.688   1.298
70049W        W29343  36.392  22.115  13.513
70050W        W29344  20.725  34.459   0.311
70051W        W29345  29.611  30.125  14.826
70052W        W29346   0.968  27.034   0.830
70053W        W29347  18.158  38.495  12.518
70054W        W29348   3.884  12.192   1.701
70055W        W29349  37.546   9.265  10.019
70056W        W29350   8.706  24.974  13.392
70057W        W29351   2.965  17.701  14.450
70058W        W29352  23.158  29.551  14.439
70059W        W29353  36.406  12.253   3.780
70060W        W29354  14.223  19.617  14.335
70061W        W29355   5.713  24.148   3.176
70062W        W29356   2.738  29.540  10.926
70063W        W29357  17.596  40.937  12.990
70064W        W29358  15.824  43.375   3.299
70065W        W29359  18.284  26.204   4.744
70066W        W29360  23.205   0.921   1.737
70067W        W29361  29.499  28.468  10.914
70068W        W29362  33.099  18.224   1.833
70069W        W29363  36.985  19.064  10.575
70070W        W29364  30.990  19.550   0.378
70071W        W29365  38.464  36.518  13.501
70072W        W29366  22.030  44.467   3.848
70073W        W29367  32.422   2.434  14.011
70074W        W29368   5.330  33.466  13.011
70075W        W29369  32.104   0.881  14.987
70076W        W29370  41.013  18.132   0.775
70077W        W29371  16.231  32.969  13.364
70078W        W29372  25.488  13.316  10.505
70079W        W29373  24.567  23.130  11.023
70080W        W29374  42.863  27.643   1.227
70081W        W29375  21.210  38.491   5.189
70082W        W29376  21.173   9.731  14.914
70083W        W29377   6.762  32.560   3.729
70084W        W29378   1.309  13.239  14.796
70085W        W29379  18.642  26.034  10.993
70086W        W29380  42.298   2.247  12.540
70087W        W29381  15.124  31.009   2.802
70088W        W29382  44.482  22.658  14.764
70089W        W29383  39.850   7.347   0.345
70090W        W29384  17.120   9.383  11.394
70091W        W29385  32.608  11.284  14.777
70092W        W29386  29.532  28.053   2.268
70093W        W29387  23.183  31.636   2.194
70094W        W29388  37.493  36.986  11.585
70095W        W29389   7.888  23.544  14.974
70096W        W29390  34.914  29.111   3.740
70097W        W29391   1.948  19.776  11.544
70098W        W29392  11.694  29.953  13.920
70099W        W29393  30.489   6.872   1.218
70100W        W29394  15.800  12.136   3.766
70101W        W29395  11.690  28.623  11.039
70102W        W29396  39.952  40.466   2.795
70103W        W29397  13.229  15.596  14.442
70104W        W29398  21.180  24.175  11.585
70105W        W29399   8.685  35.074  12.386
70106W        W29400  35.002   0.368   5.302
70107W        W29401  32.952  38.541   3.665
70108W        W29402  19.156  40.303   2.860
70109W        W29403   1.942  38.033  14.762
70110W        W29404  16.173  33.426  12.913
70111W        W29405  21.050  30.009  14.870
70112W        W29406  10.301  31.066  12.925
70113W        W29407  16.076  11.759  11.960
70114W        W29408  39.010  37.889   2.338
70115W        W29409  22.059  41.975   2.240
70116W        W29410  32.916   4.944   1.368
70117W        W29411  13.269  42.779  12.002
70118W        W29412  29.563  30.931   1.933
70119W        W29413   1.475  38.894  13.313
70120W        W29414  32.934  32.449   0.308
70121W        W29415  42.927  19.596  10.468
70122W        W29416  43.363  43.868   2.331
70123W        W29417  23.495   4.380  12.923
70124W        W29418   8.217   8.398   4.226
70125W        W29419  34.464  43.945  13.369
70126W        W29420   3.718  43.398   1.812
70127W        W29421   9.882   8.690  12.894
70128W        W29422  23.168   4.851   4.173
70129W        W29423  35.521  29.547   3.868
70130W        W29424  42.912   3.318  14.851
70131W        W29425  30.942  25.965  13.492
70132W        W29426  39.040  35.593   9.546
70133W        W29427  23.173  44.007  12.909
70134W        W29428  44.317  17.183  10.900
70135W        W29429  17.081  20.236  14.361
70136W        W29430  17.100  42.293   0.755
70137W        W29431  41.414  42.796   4.222
70138W        W29432  33.419  31.008  10.970
70139W        W29433  22.638  27.453  13.976
70140W        W29434  30.098  29.547  13.059
70141W        W29435  28.536   1.452   2.821
70142W        W29436  13.267  28.955  13.463
70143W        W29437  27.001  22.068  14.959
70144W        W29438  42.316  21.165   3.192
70145W        W29439   0.278  31.483   2.317
70146W        W29440   9.672   0.957  10.123
70147W        W29441  28.104  30.502  10.417
70148W        W29442  31.051  25.072  14.298
70149W        W29443  37.449   2.436   4.652
70150W        W29444   5.814  37.436   3.855
70151W        W29445  23.220  28.946   1.316
70152W        W29446  26.125  39.988  11.598
70153W        W29447  22.547   9.334  14.392
70154W        W29448  43.941  38.571   3.316
70155W        W29449   4.364   3.891  10.601
70156W        W29450  25.605  14.141  10.103
70157W        W29451   2.451  19.540  12.560
70158W        W29452   3.776  20.530   2.788
70159W        W29453   1.390   2.821   0.379
70160W        W29454  17.616   4.882  11.987
70161W        W29455  17.266  42.527   3.701
70162W        W29456  34.050  28.043  10.952
70163W        W29457   0.419  34.386   4.732
70164W        W29458  23.052  37.973   4.300
70165W        W29459  38.866   1.849   0.347
70166W        W29460   6.803  11.633  10.890
70167W        W29461   4.234   4.868  11.467
70168W        W29462  23.205  35.560  12.401
70169W        W29463  22.665   4.309   0.817
70170W        W29464   8.720  24.050  12.371
70171W        W29465  25.471  11.634  13.446
70172W        W29466  38.887   5.742  12.382
70173W        W29467  12.704  16.678   1.386
70174W        W29468   3.791  42.488  12.077
70175W        W29469  21.628   1.737  11.928
70176W        W29470  27.174  41.432   1.368
70177W        W29471  19.218  10.265   2.260
70178W        W29472  36.058  35.041   0.269
70179W        W29473  32.988   9.651  11.003
70180W        W29474  31.962  20.549  12.564
70181W        W29475  20.753  32.965   4.198
70182W        W29476   2.310  36.984  14.470
70183W        W29477  38.022  39.317   0.959
70184W        W29478  23.047  21.218  11.543
70185W        W29479  16.280  32.410   2.355
70186W        W29480  30.572  44.985  14.873
70187W        W29481   9.187  34.897  14.507
70188W        W29482  13.823  39.893   0.242
70189W        W29483   2.890   3.863   1.411
70190W        W29484  29.572   8.779  10.071
70191W        W29485   3.726  31.511   0.816
70192W        W29486  17.068  34.886  14.414
70193W        W29487  19.219  31.594  10.493
70194W        W29488  37.831  11.301   1.834
70195W        W29489  41.821  40.960  11.893
70196W        W29490  19.119  43.973   4.679
70197W        W29491   1.452   1.481  14.027
70198W        W29492  12.687   2.905   4.250
70199W        W29493  12.810  36.525   3.165
70200W        W29494  24.696  10.860   2.291
70201W        W29495  42.945  34.905   4.725
70202W        W29496   1.358  19.276   2.304
70203W        W29497   8.291  28.053  11.098
70204W        W29498  28.461   3.235  12.521
70205W        W29499  24.594  21.747  12.830
70206W        W29500  19.231  18.681   4.266
70207W        W29501  19.580  38.069  12.395
70208W        W29502  37.023  27.473  10.979
70209W        W29503  38.571  12.330   0.965
70210W        W29504  33.017  14.252   1.897
70211W        W29505  13.326  43.427  14.848
70212W        W29506  12.610  13.146  11.929
70213W        W29507   4.815   1.844  11.107
70214W        W29508  43.395  44.997   1.842
70215W        W29509  40.042  37.413  13.848
70216W        W29510   7.175  12.820   4.159
70217W        W29511  29.022  30.099  12.550
70218W        W29512  12.715  18.193   1.443
70219W        W29513  21.098  33.942   1.893
70220W        W29514  15.623  12.786  11.936
70221W        W29515  35.023   9.824   2.801
70222W        W29516  29.084  17.081  14.308
70223W        W29517  15.782  34.976  11.961
70224W        W29518   1.884  42.287   3.681
70225W        W29519  32.040  31.101   2.197
70226W        W29520  27.634  25.644   0.952
70227W        W29521  21.145  23.238   0.865
70228W        W29522  30.935   9.712   4.210
70229W        W29523   3.917  23.696  10.070
70230W        W29524  35.025  42.347   4.769
70231W        W29525  20.764  27.069   4.341
70232W        W29526  16.677   7.323  10.909
70233W        W29527  13.218  35.396   4.711
70234W        W29528   4.392  20.694  14.402
70235W        W29529  32.605  19.251  14.359
70236W        W29530  33.049   1.758  14.826
70237W        W29531  14.095  35.566   3.225
70238W        W29532  11.839   6.307  10.483
70239W        W29533   8.838  29.623   1.259
70240W        W29534  18.295  36.096  14.832
70241W        W29535  21.108  28.664  11.079
70242W        W29536  39.979   5.398   3.791
70243W        W29537   3.945  36.003  14.322
70244W        W29538  32.064  39.551  10.522
70245W        W29539  40.906   7.187  14.776
70246W        W29540   5.912  26.047   1.264
70247W        W29541  40.508  44.372  14.012
70248W        W29542   9.867  17.751   3.809
70249W        W29543  35.019  24.223   1.741
70250W        W29544  15.649  11.299  11.966
70251W        W29545   0.351  30.084  11.569
70252W        W29546  10.744  41.879   1.296
70253W        W29547  26.976  32.948  10.966
70254W        W29548  23.011  25.052   4.692
70255W        W29549  36.368  27.599   1.413
70256W        W29550  21.176  14.323   0.753
70257W        W29551   5.435  39.026   0.789
70258W        W29552  43.450  32.395   3.260
70259W        W29553  23.556  19.710  14.775
70260W        W29554  17.719  20.708  13.039
70261W        W29555   6.287  17.609  14.971
70262W        W29556  33.607  41.792   1.904
70263W        W29557  19.628  38.900  10.469
70264W        W29558  35.489  30.012   0.469
70265W        W29559  23.035  23.131   0.242
70266W        W29560  28.109  36.879  12.398
70267W        W29561  23.088   4.283   4.183
70268W        W29562  16.614  12.742  12.097
70269W        W29563  16.271   9.722   5.719
70270W        W29564  22.094  21.035   1.794
70271W        W29565  26.107  16.315   3.741
70272W        W29566  21.194  41.459  10.597
70273W        W29567  32.009   1.876   1.316
70274W        W29568  24.651  28.136   0.868
70275W        W29569  25.993  25.100   3.369
70276W        W29570  33.881  40.949   3.182
70277W        W29571  42.915  34.487   3.830
70278W        W29572  43.297  15.255  11.957
70279W        W29573  27.610  28.125  11.985
70280W        W29574   1.329  28.573  14.985
70281W        W29575   5.365  35.033  10.941
70282W        W29576  44.333  21.528   0.336
70283W        W29577  41.832  18.601  11.441
70284W        W29578  23.509  14.786  10.990
70285W        W29579  34.875  42.831   1.286
70286W        W29580  22.047  26.495   0.881
70287W        W29581  28.165   2.799  13.480
70288W        W29582   5.405  11.332   2.791
70289W        W29583  13.644  11.326  10.987
70290W        W29584   5.823   2.922   2.760
70291W        W29585  38.824  10.283  13.888
70292W        W29586  43.982  12.209  13.974
70293W        W29587   5.877   7.189   3.648
70294W        W29588  37.855  12.288   1.441
70295W        W29589  26.620  12.655   1.369
70296W        W29590  32.524  24.633  12.492
70297W        W29591  19.741  24.593  12.031
70298W        W29592  24.623  36.973  12.042
70299W        W29593  24.642  44.793   2.218
70300W        W29594   1.882  30.425  12.397
70301W        W29595  26.491  11.732   2.787
70302W        W29596  30.152   4.294   2.828
70303W        W29597  15.296  34.908  12.929
70304W        W29598  20.165  41.040  14.837
70305W        W29599  26.607  39.335  14.427
70306W        W29600   3.387  24.224   2.297
70307W        W29601  25.126  19.102   2.696
70308W        W29602   5.367   4.853   0.446
70309W        W29603  26.193  26.166   3.194
70310W        W29604  19.105  28.163   1.277
70311W        W29605  21.089  13.734  12.551
70312W        W29606  32.476  28.501   0.456
70313W        W29607  37.849  29.495  13.805
70314W        W29608  34.047  13.189   3.789
70315W        W29609   4.323  28.982  12.552
70316W        W29610  18.561  15.642   4.232
70317W        W29611  36.484   2.899   4.813
70318W        W29612  26.637  38.893  12.464
70319W        W29613  21.599   3.802   1.421
70320W        W29614  13.345  15.210  10.949
70321W        W29615  20.551  43.016   4.136
70322W        W29616  25.686  13.802  14.964
70323W        W29617  10.796  24.230  13.381
70324W        W29618  44.331  40.907  14.952
70325W        W29619  14.175  23.709  12.949
70326W        W29620  28.533  22.199  13.877
70327W        W29621  24.512  43.974   3.214
70328W        W29622   4.409  29.536  14.817
70329W        W29623  40.913  16.196  14.802
70330W        W29624   5.202  19.749  14.804
70331W        W29625  18.766   2.957  14.397
70332W        W29626  29.952  31.036   1.892
70333W        W29627  44.871  32.084  10.491
70334W        W29628  24.230  16.777   3.687
70335W        W29629  32.396  21.701   2.343
70336W        W29630   0.983  39.832   1.874
70337W        W29631  41.934   4.887   0.789
70338W        W29632   9.764  14.746   2.814
70339W        W29633   9.202  35.428  13.459
70340W        W29634  36.024  15.132  11.910
70341W        W29635  35.950  29.438   1.924
70342W        W29636  17.717   8.299  14.355
70343W        W29637  19.552  40.436   0.416
70344W        W29638  36.889  20.761  14.334
70345W        W29639  32.007  28.158   2.732
70346W        W29640   5.245  31.923   1.285
70347W        W29641  36.080  44.777   4.819
70348W        W29642  28.946   5.224  11.420
70349W        W29643   2.269  36.396  14.473
70350W        W29644  35.438   0.910  14.483
70351W        W29645  13.832  17.784   2.376
70352W        W29646  36.489  39.897   2.686
70353W        W29647  35.070  40.001   2.776
70354W        W29648   5.196  21.247   0.727
70355W        W29649  12.242   0.907   0.847
70356W        W29650  18.748   7.816   4.687
70357W        W29651  16.725  30.028   2.407
70358W        W29652  30.129  38.535  14.368
70359W        W29653   2.267  17.115   1.860
70360W        W29654  27.652  26.994  13.955
70361W        W29655  16.676  22.056  12.828
70362W        W29656  24.582  24.531  12.527
70363W        W29657  21.565  37.496  14.382
70364W        W29658  19.741  35.470  11.448
70365W        W29659  18.136  41.536  14.893
70366W        W29660   1.295  36.461   1.781
70367W        W29661  11.778  23.030  13.864
70368W        W29662  34.865  18.549   1.845
70369W        W29663   0.807   4.391   3.231
70370W        W29664  19.167  19.542  12.884
70371W        W29665  19.189  10.150   2.733
70372W        W29666  42.925  23.666  13.493
70373W        W29667   9.699   4.321  14.348
70374W        W29668  35.862   3.260   2.313
70375W        W29669  41.531  38.011  13.420
70376W        W29670  19.651  41.033   3.176
70377W        W29671  10.284   6.858  10.588
70378W        W29672  37.916  37.974   2.392
70379W        W29673  33.511  24.206   3.686
70380W        W29674   3.811  21.556  11.599
70381W        W29675  43.953  33.108   0.916
70382W        W29676   9.803  12.253   2.787
70383W        W29677  21.120  25.217  11.979
70384W        W29678  15.218  41.833   4.149
70385W        W29679  20.708   2.373  13.381
70386W        W29680   3.836  21.123   1.897
70387W        W29681  42.014  35.968   5.281
70388W        W29682  35.010  23.015  14.844
70389W        W29683  28.938  19.582   2.777
70390W        W29684  10.659  16.639   0.405
70391W        W29685  33.456   9.788  14.760
70392W        W29686  24.018  21.185   9.994
70393W        W29687  11.369  43.380  10.492
70394W        W29688  22.105   6.422  11.608
70395W        W29689  19.048   7.830   4.196
70396W        W29690  35.504  14.827   0.950
70397W        W29691  44.848  13.251   4.661
70398W        W29692   7.672   0.488  13.944
70399W        W29693  21.045  36.416  13.817
70400W        W29694  34.017  22.563  13.471
70401W        W29695  33.533  24.671  11.001
70402W        W29696  13.114  25.191  14.456
70403W        W29697  18.763  28.048  14.479
70404W        W29698  23.119  38.883  10.633
70405W        W29699  43.853  37.371   3.322
70406W        W29700   7.736   0.823   3.342
70407W        W29701  12.812   3.435  10.530
70408W        W29702  10.706  36.389  11.862
70409W        W29703   0.834  10.160   0.765
70410W        W29704  14.766  19.754   3.690
70411W        W29705  22.608  32.946  12.922
70412W        W29706   6.844  28.986   3.285
70413W        W29707  12.285  14.816   3.335
70414W        W29708   2.964  37.351   1.250
70415W        W29709  36.935   2.456  14.341
70416W        W29710   4.711  17.610   4.820
70417W        W29711  11.336  18.558  14.920
70418W        W29712   0.934  19.098   1.384
70419W        W29713  37.977  44.469  13.003
70420W        W29714  37.926  23.593   2.815
70421W        W29715  40.797  43.349   0.799
70422W        W29716   0.419  29.162  13.503
70423W        W29717  17.610   0.978   0.928
70424W        W29718   5.903  37.833   4.645
70425W        W29719  27.543  26.079   0.891
70426W        W29720  27.572  30.473   2.282
70427W        W29721  28.032  14.165  11.105
70428W        W29722  43.951   7.848  10.489
70429W        W29723  25.090   7.908  10.115
70430W        W29724  21.712  37.911  11.123
70431W        W29725  22.664  27.659  14.444
70432W        W29726  11.682   6.332  10.138
70433W        W29727  36.047  32.912   1.851
70434W        W29728  34.518  32.979   3.770
70435W        W29729   0.955  38.447  13.835
70436W        W29730  23.115   5.789  12.861
70437W        W29731  17.745  17.135   0.294
70438W        W29732  38.839  38.879  13.982
70439W        W29733  20.635  20.069   0.370
70440W        W29734  30.930  14.168  14.016
70441W        W29735  13.219  38.932  10.524
70442W        W29736  20.174   5.742   1.812
70443W        W29737  20.238  29.578  10.475
70444W        W29738  13.798  43.508   4.128
70445W        W29739  14.095   0.778   3.720
70446W        W29740  28.143  35.469  14.789
70447W        W29741  35.596  16.111   4.198
70448W        W29742  35.878   5.371   4.187
70449W        W29743   3.726  37.405  13.361
70450W        W29744  25.071  37.020  11.067
70451W        W29745  17.738  22.073   4.794
70452W        W29746   9.686  26.550   2.382
70453W        W29747  34.039  43.802  11.068
70454W        W29748  22.229  14.166   0.280
70455W        W29749  19.756   0.251  10.120
70456W        W29750  10.640   1.291  11.072
70457W        W29751  39.421  39.538  13.453
70458W        W29752   1.466  22.560   3.786
70459W        W29753  17.268   6.331   2.768
70460W        W29754  15.294  17.750  10.965
70461W        W29755   2.882  43.949  12.057
70462W        W29756  36.576  43.372   0.815
70463W        W29757  17.260  24.177   0.788
70464W        W29758  32.453   4.312   4.223
70465W        W29759   6.807  35.931   4.331
70466W        W29760   1.776   8.212   1.240
70467W        W29761   1.280  31.585   2.861
70468W        W29762  35.551  35.862   1.869
70469W        W29763  11.231  42.795  12.973
70470W        W29764  41.807  25.652   4.255
70471W        W29765   9.676  18.655   1.334
70472W        W29766   1.444  27.589   3.681
70473W        W29767  38.495  41.896  13.058
70474W        W29768   8.689   9.879   4.315
70475W        W29769  17.274  22.746  12.535
70476W        W29770  33.081  18.563  13.939
70477W        W29771  28.012  24.037  10.558
70478W        W29772   2.373  14.640   4.620
70479W        W29773  23.020  37.494  12.569
70480W        W29774  14.338  43.328  12.534
70481W        W29775  31.062  42.986   3.818
70482W        W29776  18.704   3.742   4.298
70483W        W29777  21.701   3.878   4.673
70484W        W29778  38.024  20.206   0.910
70485W        W29779  25.611  32.118   1.835
70486W        W29780   1.773  10.866  13.367
70487W        W29781   5.389  41.883  12.383
70488W        W29782  21.621  43.351   2.718
70489W        W29783  16.148  42.383  12.004
70490W        W29784  25.124   3.440  13.979
70491W        W29785  10.689  30.161   4.336
70492W        W29786  13.337  26.568   3.227
70493W        W29787   3.374   6.807  10.928
70494W        W29788  19.049  25.065  14.970
70495W        W29789  33.932   8.334   1.346
70496W        W29790  34.017  20.189  12.339
70497W        W29791  29.115  24.191  13.898
70498W        W29792  38.490   9.157  11.021
70499W        W29793  36.005  19.544  10.625
70500W        W29794   5.847  22.236   3.649
70501W        W29795  20.639  42.508   4.765
70502W        W29796  12.735  22.101   1.288
70503W        W29797   0.283  21.245   4.183
70504W        W29798  27.129  31.996  13.991
70505W        W29799  34.536  39.503   1.410
70506W        W29800  27.503  38.476  12.861
70507W        W29801   9.203  30.022   0.947
70508W        W29802  36.530   8.789   0.806
70509W        W29803  26.188  25.672  10.644
70510W        W29804  43.408  15.679   3.815
70511W        W29805  38.360  15.252   4.304
70512W        W29806  12.744  22.201   1.922
70513W        W29807   5.905   1.317   1.883
70514W        W29808  29.919  18.582  11.386
70515W        W29809  14.613  35.430  12.540
70516W        W29810  14.659   1.896   3.722
70517W        W29811  23.604  25.548   3.816
70518W        W29812  19.197   9.389  11.055
70519W        W29813   0.294  30.142   2.688
70520W        W29814   9.275  40.338   4.712
70521W        W29815  25.509  22.654  11.534
70522W        W29816  24.496  43.374  12.953
70523W        W29817  10.825  33.402  13.007
70524W        W29818  32.113  41.392  10.608
70525W        W29819  31.941  32.996  14.929
70526W        W29820   8.786   0.946  14.807
70527W        W29821   1.964   0.964  13.892
70528W        W29822  26.193  18.154  14.497
70529W        W29823   8.377  13.759  11.540
70530W        W29824   8.888  40.868   4.177
70531W        W29825  24.111   0.972  12.408
70532W        W29826  36.032  26.470   2.695
70533W        W29827  37.379  32.491  11.060
70534W        W29828  32.136  39.411  11.057
70535W        W29829  12.835  20.590   4.266
70536W        W29830  34.972  37.458   1.910
70537W        W29831  22.556  26.145  12.875
70538W        W29832  23.184  16.210  14.813
70539W        W29833   1.852  20.051   2.207
70540W        W29834   0.908  40.430   3.343
70541W        W29835   2.831  32.063  13.938
70542W        W29836  29.918  28.044   4.717
70543W        W29837   8.869  32.614   4.721
70544W        W29838  31.509  19.578   1.710
70545W        W29839   9.800  33.454  14.483
70546W        W29840   5.801  11.841   0.840
70547W        W29841  39.964  21.176  14.910
70548W        W29842  33.405  21.523   2.757
70549W        W29843   7.676  20.037   4.721
70550W        W29844  26.067  43.465   1.890
70551W        W29845   3.771  15.084   3.252
70552W        W29846  22.643  32.503  12.985
70553W        W29847  15.820   5.272   1.706
70554W        W29848  28.065  33.416   4.652
70555W        W29849  11.224  10.807   2.886
70556W        W29850  26.505  35.869   1.420
70557W        W29851   2.382   2.307  11.569
70558W        W29852  33.454  30.092  14.860
70559W        W29853   4.333  26.618   2.717
70560W        W29854  28.017   7.728   1.823
70561W        W29855  30.941  44.009  10.608
70562W        W29856  17.716  13.715   1.399
70563W        W29857  17.634  26.516   0.446
70564W        W29858   7.836  43.371   1.930
70565W        W29859   9.829  42.838  14.981
70566W        W29860  24.486  34.489  12.490
70567W        W29861  34.591  21.178  14.285
70568W        W29862   2.290  14.179   1.831
70569W        W29863   8.171   7.174   1.756
70570W        W29864  19.278  32.530   1.265
70571W        W29865   9.191  35.604   4.788
70572W        W29866  19.220  22.123  14.475
70573W        W29867  16.114  30.498   5.195
70574W        W29868  11.254  39.032   4.614
70575W        W29869   3.855  25.158   2.237
70576W        W29870  36.949   3.850  11.488
70577W        W29871   4.762  41.454  12.564
70578W        W29872   4.364   3.723  12.835
70579W        W29873  44.939  29.512   2.395
70580W        W29874  38.935  11.285  13.370
70581W        W29875  36.412  13.603  14.919
70582W        W29876   6.831  18.250   0.769
70583W        W29877   2.744  36.915   2.729
70584W        W29878  28.929  32.073   2.703
70585W        W29879  20.208  18.172   2.781
70586W        W29880  41.888  10.768   3.273
70587W        W29881  36.892  25.012   1.366
70588W        W29882  12.257  35.524   4.175
70589W        W29883   1.372   5.852  11.063
70590W        W29884  14.326   2.286  11.399
70591W        W29885  20.162  36.450  10.931
70592W        W29886  30.934  36.566  12.397
70593W        W29887  12.254  44.820  13.847
70594W        W29888  42.908   5.902   2.673
70595W        W29889  43.804  31.517   3.318
70596W        W29890   6.688  36.979  12.964
70597W        W29891  24.493   5.408   0.893
70598W        W29892  34.975  18.154  12.943
70599W        W29893  24.588  14.135   4.762
70600W        W29894  43.504   6.410  12.409
70601W        W29895  18.779  36.450   1.721
70602W        W29896  31.146  26.112  13.895
70603W        W29897  21.141   6.876   2.759
70604W        W29898  16.196  27.958   1.356
70605W        W29899  14.305  17.248  13.959
70606W        W29900   6.681  25.482   4.823
70607W        W29901  17.562  37.079  13.020
70608W        W29902  40.424  40.835  11.391
70609W        W29903   8.797  26.517  10.484
70610W        W29904  26.629  35.449   0.876
70611W        W29905  15.298   5.209   4.741
70612W        W29906  36.844   9.752   1.752
70613W        W29907  25.695  38.477   1.777
70614W        W29908  11.758   9.205   0.901
70615W        W29909   1.449  29.020   2.371
70616W        W29910   1.855  10.209  13.391
70617W        W29911  25.662  40.514  12.486
70618W        W29912  26.673  29.020  14.995
70619W        W29913  36.497  27.112   0.338
70620W        W29914  24.554  39.013  12.938
70621W        W29915  27.180  13.163  11.401
70622W        W29916  31.025  11.794   4.812
70623W        W29917  33.093  41.310  14.923
70624W        W29918  32.431  20.260   3.317
70625W        W29919  19.555  33.895   4.127
70626W        W29920   6.205  32.580   0.470
70627W        W29921  10.170   7.267  10.641
70628W        W29922   7.776  33.018  10.948
70629W        W29923  27.018  17.653   3.804
70630W        W29924  10.848   5.240  11.509
70631W        W29925  39.353  27.615   4.620
70632W        W29926  14.640   3.278  13.311
70633W        W29927  29.940  27.454  13.463
70634W        W29928  40.485  38.476  12.871
70635W        W29929  19.702   5.792  11.897
70636W        W29930   8.693  21.644  14.320
70637W        W29931  29.613  11.175  11.501
70638W        W29932   1.442   8.230  13.844
70639W        W29933  28.008  43.365  10.448
70640W        W29934  13.136  40.048  13.421
70641W        W29935  13.778  13.763  13.432
70642W        W29936  22.250  20.580  12.579
70643W        W29937   0.896   5.747  11.385
70644W        W29938  22.150   6.810  11.566
70645W        W29939  29.623  13.183  14.328
70646W        W29940  23.046  39.938   2.244
70647W        W29941  41.359   1.292   2.194
70648W        W29942  29.971  44.010  13.042
70649W        W29943  25.610  22.066   0.921
70650W        W29944  19.716  17.800  14.317
70651W        W29945  17.700   2.744  14.422
70652W        W29946  13.178  37.083  10.606
70653W        W29947  18.718   7.815   2.881
70654W        W29948  42.029  29.432   1.239
70655W        W29949   3.441  14.749  12.356
70656W        W29950  22.681  39.519  11.584
70657W        W29951  36.566  30.078   3.823
70658W        W29952  41.312  21.080  12.878
70659W        W29953   5.802  18.253   2.848
70660W        W29954  31.966   0.382  14.298
70661W        W29955  16.596  21.712  13.460
70662W        W29956  11.136  27.477   3.271
70663W        W29957   0.333  23.139   4.753
70664W        W29958  35.500  15.678  14.018
70665W        W29959  14.300  23.221   3.812
70666W        W29960   9.664  17.618  10.407
70667W        W29961  11.780  38.560  10.952
70668W        W29962   6.882  17.242   3.856
70669W        W29963  19.676  18.768   0.329
70670W        W29964   1.853  11.165  10.571
70671W        W29965  34.580  44.008   1.367
70672W        W29966   7.668   2.800  11.964
70673W        W29967  18.235   6.705   2.276
70674W        W29968  18.103  10.789  13.317
70675W        W29969  12.346  14.814   0.473
70676W        W29970  43.957   0.946   3.307
70677W        W29971  31.943   1.955   1.747
70678W        W29972  16.289  25.082   3.232
70679W        W29973   8.346   9.752   2.405
70680W        W29974  24.015  14.301  11.379
70681W        W29975  18.724  41.435   3.168
70682W        W29976  21.703   5.833  10.644
70683W        W29977   7.688  28.029   5.116
70684W        W29978  33.947  24.576  14.958
70685W        W29979  12.151  21.721   0.728
70686W        W29980  39.063  14.245   0.376
70687W        W29981  13.644  13.782  14.029
70688W        W29982  39.852  13.106   1.233
70689W        W29983  39.835   1.278  14.793
70690W        W29984  36.360  23.200  14.382
70691W        W29985  31.451  32.398   0.307
70692W        W29986  31.423  10.685   0.343
70693W        W29987   5.730  41.913   2.862
70694W        W29988   3.335  43.017   2.345
70695W        W29989   7.747   7.677   2.755
70696W        W29990  21.634  34.568  14.457
70697W        W29991  33.950  30.425   4.317
70698W        W29992  21.678  26.486  13.843
70699W        W29993  21.074  37.434   0.789
70700W        W29994   3.736  19.247  12.989
70701W        W29995  34.109  15.753   1.865
70702W        W29996  16.167  20.587   3.800
70703W        W29997   8.660  36.409   4.803
70704W        W29998   3.425  11.715  11.019
70705W        W29999   9.672  27.540  14.777
70706W        W30000  35.426  13.626   2.325
70707W        W30001   0.388  18.093  13.802
70708W        W30002  24.199  28.486   3.678
70709W        W30003  13.193  31.631   1.725
70710W        W30004  26.995  19.179   3.354
70711W        W30005   1.330  24.012   1.366
70712W        W30006  13.743  14.816   3.685
70713W        W30007  34.883  17.145  11.536
70714W        W30008  39.328   8.807   5.233
70715W        W30009  30.054   7.735   2.844
70716W        W30010   2.811  38.897   0.797
70717W        W30011   0.792   0.887   5.601
70718W        W30012  37.967  42.450   2.821
70719W        W30013  29.428  18.628  13.387
70720W        W30014  22.149  13.795   2.238
70721W        W30015  28.604  27.129   3.655
70722W        W30016   8.861  24.152   5.291
70723W        W30017   3.889   7.334  13.849
70724W        W30018  21.542  42.455   1.259
70725W        W30019   7.204  34.947  10.897
70726W        W30020  19.709   7.788  13.370
70727W        W30021  28.127   8.829  10.962
70728W        W30022   9.383  12.634   4.784
70729W        W30023  31.535  11.141   4.636
70730W        W30024   1.891  34.438   4.274
70731W        W30025  11.191  13.248   2.230
70732W        W30026  43.824  36.456  11.077
70733W        W30027  21.112  25.166  10.105
70734W        W30028   0.363  37.036  10.465
70735W        W30029  37.397  14.589  14.823
70736W        W30030   1.774  28.546  11.912
70737W        W30031   5.251  29.586  10.905
70738W        W30032  11.304  14.769   3.204
70739W        W30033   5.757  23.611  12.856
70740W        W30034  29.977   8.319  10.892
70741W        W30035  42.380  33.438   1.376
70742W        W30036   5.409  39.381   2.874
70743W        W30037   6.421  40.922  12.369
70744W        W30038  40.905  37.885   3.241
70745W        W30039  19.105  33.881  13.525
70746W        W30040  27.027   5.429   2.250
70747W        W30041  13.804  28.118  10.542
70748W        W30042  34.399  39.433  13.366
70749W        W30043  10.368  12.299   1.444
70750W        W30044   0.988   6.352  12.058
70751W        W30045  36.519   3.248   0.352
70752W        W30046  30.131   2.908   0.451
70753W        W30047  31.058  19.566  14.482
70754W        W30048   4.312  42.987  11.069
70755W        W30049  31.574  34.097   3.297
70756W        W30050  16.268  10.236   5.307
70757W        W30051   9.848  25.656  10.481
70758W        W30052  26.654  32.425  14.991
70759W        W30053  11.141  11.770   2.771
70760W        W30054  13.701  43.851   0.318
70761W        W30055   9.197  40.334  10.412
70762W        W30056  43.885  14.264  12.016
70763W        W30057  36.849  19.193   2.347
70764W        W30058  17.196  32.965  11.005
70765W        W30059  12.666  37.916  13.488
70766W        W30060  29.974  37.054   3.316
70767W        W30061   4.376   3.888  14.975
70768W        W30062  30.435  14.292   0.889
70769W        W30063  38.532  39.527  14.006
70770W        W30064  18.590   3.436  14.872
70771W        W30065  10.775   7.182   0.468
70772W        W30066  34.072  42.477  11.927
70773W        W30067   6.703   0.763   1.281
70774W        W30068   8.174  24.186  11.382
70775W        W30069  39.903  27.648  11.485
70776W        W30070  19.742  31.144   4.687
70777W        W30071   4.855  16.072  13.362
70778W        W30072  33.973  11.817   1.698
70779W        W30073  30.599  10.240   0.298
70780W        W30074  21.184  42.924   3.256
70781W        W30075  18.716  21.074  14.372
70782W        W30076  26.607  24.507   3.779
70783W        W30077  32.599  25.162   5.319
70784W        W30078   8.740  40.521  12.456
70785W        W30079  12.740  31.414  11.057
70786W        W30080  12.292  11.863   3.346
70787W        W30081  28.529  31.615   0.449
70788W        W30082  37.844  18.622   1.898
70789W        W30083  41.787   1.780  14.023
70790W        W30084  27.564  37.901  11.108
70791W        W30085  37.527   3.220  10.941
70792W        W30086  10.821  39.423  14.865
70793W        W30087  25.030  43.271   1.255
70794W        W30088  41.010  37.962   4.317
70795W        W30089  43.460  43.787   1.861
70796W        W30090  37.892  30.600  14.851
70797W        W30091   4.443  21.660   3.658
70798W        W30092  15.206  42.354  11.869
70799W        W30093  33.990  24.183   4.618
70800W        W30094  38.525  12.801  11.525
70801W        W30095  11.269  10.255  10.623
70802W        W30096   7.372  10.808  10.437
70803W        W30097  44.881  17.095  13.541
70804W        W30098  11.336   5.292   1.288
70805W        W30099   5.256  28.577  12.487
70806W        W30100  21.548  16.810   2.384
70807W        W30101  43.304  41.387  13.480
70808W        W30102  29.654  35.919  14.012
70809W        W30103  20.219  19.610  14.829
70810W        W30104   2.458  21.124   4.807
70811W        W30105  32.446  32.115   1.362
70812W        W30106  13.805  22.643  12.028
70813W        W30107  36.379   1.246  14.299
70814W        W30108  21.227  30.635  11.920
70815W        W30109   4.921  12.294   4.226
70816W        W30110  15.711  30.523   3.218
70817W        W30111   7.400   5.774   4.766
70818W        W30112   9.224   7.696  13.806
70819W        W30113   7.748  21.529  12.009
70820W        W30114  13.631  26.106  13.021
70821W        W30115   8.899  21.682   4.279
70822W        W30116   3.214  31.413  13.897
70823W        W30117  43.845   7.355   3.208
70824W        W30118  17.743  41.935  13.830
70825W        W30119  12.271  25.680  12.420
70826W        W30120  41.318   5.884   2.287
70827W        W30121  10.867  18.581  13.888
70828W        W30122   9.367  36.036  13.837
70829W        W30123  24.573  40.537   0.792
70830W        W30124   4.445  30.641   4.701
70831W        W30125  38.908  41.027   0.955
70832W        W30126  32.452   0.955   3.358
70833W        W30127  33.935  41.338   4.216
70834W        W30128  32.026  31.106  13.307
70835W        W30129   9.181  28.463  14.997
70836W        W30130  16.651  12.750   9.925
70837W        W30131  37.582  27.620   1.223
70838W        W30132  37.337   0.958   4.668
70839W        W30133  24.059  14.125  14.307
70840W        W30134  40.828  19.712   2.763
70841W        W30135  35.088  43.362  14.415
70842W        W30136  32.433  44.983   2.293
70843W        W30137  13.647   7.269   1.785
70844W        W30138  18.202  25.004  11.040
70845W        W30139  33.622  39.557  10.427
70846W        W30140  38.929  41.322  13.408
70847W        W30141  25.594  10.369  10.413
70848W        W30142  44.762  30.648   0.811
70849W        W30143  17.154  12.645   0.414
70850W        W30144  30.042  25.019   2.716
70851W        W30145   6.285  30.603   0.290
70852W        W30146  28.079  16.168   4.678
70853W        W30147  26.055  21.623   3.823
70854W        W30148  43.919  27.085   1.432
70855W        W30149  23.714   1.976  10.943
70856W        W30150  10.227  40.844   3.337
70857W        W30151  13.322  27.991  12.371
70858W        W30152   4.244  40.008   3.821
70859W        W30153  26.026  36.381   0.332
70860W        W30154  33.522   3.876   1.758
70861W        W30155  12.164   0.452  11.049
70862W        W30156  32.998  19.575   4.762
70863W        W30157  18.152  33.392  14.030
70864W        W30158  23.588  25.589  13.415
70865W        W30159  34.438  35.919  13.964
70866W        W30160  26.638  39.554   2.667
70867W        W30161  15.686   8.763   3.297
70868W        W30162   0.460  44.474  13.824
70869W        W30163  28.016  12.771   3.704
70870W        W30164  10.667  15.768   1.794
70871W        W30165  40.010  32.046  11.592
70872W        W30166  29.619  33.500   2.712
70873W        W30167   7.317  42.802  11.484
70874W        W30168   4.941   5.848   0.457
70875W        W30169  15.772  31.126   4.333
70876W        W30170  38.947   1.932   0.903
70877W        W30171  19.202  31.152   0.244
70878W        W30172   8.178  13.667   1.336
70879W        W30173  32.461  44.293  12.358
70880W        W30174  19.592  19.039   0.386
70881W        W30175  30.104  13.157   3.865
70882W        W30176  23.591  12.327   0.268
70883W        W30177  39.853  32.417   0.336
70884W        W30178  36.022  11.351   1.782
70885W        W30179   8.802  33.046  14.307
70886W        W30180  30.098   5.887   3.217
70887W        W30181  40.447   4.383  11.503
70888W        W30182  40.945  38.326  14.489
70889W        W30183  43.990   9.169  12.347
70890W        W30184  12.807  35.894   2.871
70891W        W30185  11.272  32.562   1.398
70892W        W30186  27.081  21.248   0.350
70893W        W30187  21.137  19.100   3.642
70894W        W30188  33.052   9.212   2.322
70895W        W30189  27.138  35.034   2.858
70896W        W30190  32.076  23.500  13.042
70897W        W30191  33.994  35.575  11.433
70898W        W30192  23.039  29.632  12.485
70899W        W30193  35.538  29.983   3.677
70900W        W30194  21.661  41.331   2.788
70901W        W30195  30.522  17.663  12.356
70902W        W30196  10.381  26.107  10.931
70903W        W30197   3.797  37.067   3.819
70904W        W30198  29.584  37.540  10.533
70905W        W30199  34.880  27.473  10.589
70906W        W30200  35.381  17.107   1.739
70907W        W30201  16.287  37.047  12.888
70908W        W30202  36.416   9.188   5.189
70909W        W30203  40.824  15.213  14.957
70910W        W30204  41.033  41.444   4.161
70911W        W30205  18.210  41.499   4.256
70912W        W30206  37.027  36.427  14.913
70913W        W30207  35.468  39.000   4.331
70914W        W30208  44.948  41.326  12.039
70915W        W30209  35.916  28.182   1.710
70916W        W30210  16.271  27.515   2.242
70917W        W30211  38.037  36.506  10.952
70918W        W30212  25.177  33.899  13.540
70919W        W30213   1.790  26.063   3.236
70920W        W30214  37.888  22.247  11.391
70921W        W30215   3.859  14.776  12.982
70922W        W30216  42.397  15.688   4.646
70923W        W30217  31.592   3.216   1.710
70924W        W30218   8.895  33.946   4.770
70925W        W30219  36.045  25.025   3.311
70926W        W30220  14.104  40.801  13.991
70927W        W30221  36.951  37.536  13.943
70928W        W30222  22.619  37.007  10.612
70929W        W30223  39.499  37.364   2.243
70930W        W30224  13.684  43.478  14.346
70931W        W30225  21.526   7.713   1.318
70932W        W30226  14.588  25.651   2.894
70933W        W30227   7.757  12.795   1.788
70934W        W30228   6.304  35.474   2.183
70935W        W30229  43.416  44.917  14.841
70936W        W30230  41.830  33.441  13.009
70937W        W30231   7.689  27.962   2.698
70938W        W30232   3.869   2.251   3.842
70939W        W30233  33.473  27.571   4.265
70940W        W30234  17.737   2.410  14.320
70941W        W30235  33.400  30.502  11.865
70942W        W30236  25.109   8.722   2.746
70943W        W30237  16.596  32.090   3.677
70944W        W30238  19.564  34.902   4.211
70945W        W30239  39.011   5.367   9.984
70946W        W30240   9.179  34.491   3.291
70947W        W30241  27.189   6.428  14.459
70948W        W30242  34.979  44.759  10.628
70949W        W30243  30.041   1.808   1.779
70950W        W30244  38.445  33.582   3.227
70951W        W30245  17.744  25.029  11.441
70952W        W30246  19.697  31.005   0.346
70953W        W30247  24.660  41.535  10.965
70954W        W30248  42.485   8.216  14.880
70955W        W30249  26.548   9.345  14.922
70956W        W30250  26.076  32.915   3.809
70957W        W30251  36.457   8.364   1.931
70958W        W30252   7.879   4.711   2.273
70959W        W30253  34.003  36.058   4.251
70960W        W30254  28.057  30.498   0.849
70961W        W30255  28.007  21.644  10.539
70962W        W30256   0.946  24.068   4.747
70963W        W30257   5.311  40.001  10.592
70964W        W30258   3.843   4.758  11.567
70965W        W30259  28.079  38.999   3.375
70966W        W30260  12.846  34.894  12.012
70967W        W30261   9.352  23.494   5.161
70968W        W30262   3.726  44.947  13.413
70969W        W30263   4.788  38.919  11.110
70970W        W30264  14.312   1.240  12.394
70971W        W30265  22.615  44.854  12.417
70972W        W30266  28.560  28.462  10.585
70973W        W30267  44.288  22.059   2.794
70974W        W30268  22.598  12.791   4.163
70975W        W30269   2.903   8.665  12.058
70976W        W30270  34.880  28.558  11.967
70977W        W30271   2.330  14.211   2.845
70978W        W30272  37.568  26.642  10.576
70979W        W30273   3.377  31.604   4.113
70980W        W30274  33.450  33.097   2.379
70981W        W30275  15.097  39.380   1.802
70982W        W30276  10.668   4.298  11.867
70983W        W30277  35.018  31.510  12.848
70984W        W30278   3.327  27.163   1.877
70985W        W30279  28.034  10.661  10.521
70986W        W30280  11.831  35.044  12.381
70987W        W30281  18.557  30.096  11.993
70988W        W30282  13.283  18.205  11.123
70989W        W30283  13.650  11.189   4.259
70990W        W30284  33.060  18.262   1.441
70991W        W30285  10.270  17.662  12.548
70992W        W30286  19.170  38.968  12.919
70993W        W30287  43.408  28.135  12.572
70994W        W30288  29.425   6.254   9.979
70995W        W30289  17.126   9.675   2.184
70996W        W30290  28.517  37.862   0.901
70997W        W30291   4.253  13.770   0.943
70998W        W30292   1.962  25.005   0.869
70999W        W30293  12.726  32.465  14.350
71000W        W30294   1.360  24.636   2.375
71001W        W30295  23.638   4.818  13.936
71002W        W30296  13.326  38.340   4.310
71003W        W30297   4.802  12.156   4.683
71004W        W30298  23.188  34.968  12.398
71005W        W30299  39.365  40.932   3.652
71006W        W30300  44.443  21.085  13.865
71007W        W30301  11.719   6.389   2.193
71008W        W30302   9.823  13.623  14.351
71009W        W30303  28.138   3.727   2.310
71010W        W30304  36.040  40.868  11.418
71011W        W30305  36.454  42.402  11.115
71012W        W30306  28.954  43.503  14.957
71013W        W30307   2.814  28.451   0.283
71014W        W30308  33.111  15.149   0.732
71015W        W30309  29.539   6.232   2.826
71016W        W30310  38.344  22.007  14.813
71017W        W30311  35.432  34.571   3.267
71018W        W30312  14.124   4.819   4.347
71019W        W30313  21.037  33.881  14.354
71020W        W30314  12.343  32.093   2.781
71021W        W30315  26.504   1.862   2.838
71022W        W30316  33.038   5.391   1.394
71023W        W30317  24.664  33.486   1.830
71024W        W30318   7.293   7.339  10.508
71025W        W30319  30.533  21.201  13.931
71026W        W30320  40.841  15.773  12.933
71027W        W30321  38.488   3.747  14.825
71028W        W30322   1.324  30.570   3.268
71029W        W30323   9.237  10.801  13.438
71030W        W30324  41.461  12.676  11.127
71031W        W30325  36.521  33.609   4.303
71032W        W30326  26.172  41.800  12.042
71033W        W30327  35.414   8.757  10.508
71034W        W30328   5.274  24.113  13.997
71035W        W30329  14.221  41.039   1.732
71036W        W30330  13.671  30.429   4.158
71037W        W30331  16.698  36.948  10.550
71038W        W30332  29.571  43.271  10.994
71039W        W30333  31.099   9.391   2.248
71040W        W30334  32.579   3.230   0.789
71041W        W30335  14.168  24.526   0.358
71042W        W30336  29.935   5.407  13.889
71043W        W30337  40.853  25.578  11.059
71044W        W30338  30.634  39.499  14.922
71045W        W30339  15.638  23.563   0.409
71046W        W30340   5.250  26.167  11.014
71047W        W30341  27.011  32.019   1.313
71048W        W30342  14.159   0.768  12.021
71049W        W30343  42.868   1.422   0.312
71050W        W30344  37.445  33.092   4.315
71051W        W30345  27.026  34.080   3.675
71052W        W30346  33.381  32.956  11.464
71053W        W30347  15.637  33.495   2.799
71054W        W30348  15.278  33.889  12.004
71055W        W30349  26.204  23.004   0.889
71056W        W30350  16.119  43.511   4.329
71057W        W30351  22.530   2.305  12.505
71058W        W30352   8.681  33.561   3.650
71059W        W30353  33.531  41.905  11.085
71060W        W30354  15.272  25.570   1.416
71061W        W30355  24.672  41.456  14.834
71062W        W30356  15.723  43.016  13.366
71063W        W30357  20.601  26.109  13.508
71064W        W30358  31.531  39.366   2.417
71065W        W30359  18.629   0.260  12.096
71066W        W30360  27.989  27.986  13.367
71067W        W30361  30.088  17.133  12.027
71068W        W30362   1.290  30.492   2.725
71069W        W30363   9.732  37.515  14.003
71070W        W30364  12.621  27.585   3.298
71071W        W30365  25.971  38.033   4.838
71072W        W30366  30.513  41.403   4.347
71073W        W30367  33.116  23.539   2.394
71074W        W30368  31.903   3.391  10.495
71075W        W30369  21.568  16.179   2.776
71076W        W30370  31.493  23.631   4.607
71077W        W30371   9.358  30.588   5.132
71078W        W30372  38.501  18.275  11.927
71079W        W30373  37.432  14.747  10.591
71080W        W30374   7.673   9.240   1.440
71081W        W30375  20.758  37.879   0.931
71082W        W30376  24.996  29.547  10.633
71083W        W30377  40.389   2.245   1.216
71084W        W30378  43.492  25.680  12.454
71085W        W30379  17.271  40.835   1.733
71086W        W30380  22.701   8.656   0.275
71087W        W30381  34.457  34.985   1.361
71088W        W30382  42.487  33.494   3.334
71089W        W30383  35.004  20.546   4.334
71090W        W30384  23.097  43.858  11.941
71091W        W30385  14.716  29.544   4.283
71092W        W30386   3.452   1.322  14.339
71093W        W30387  38.048  35.470  13.427
71094W        W30388  42.495  29.973   4.257
71095W        W30389   5.903  23.494  12.057
71096W        W30390  43.357  22.028  12.545
71097W        W30391  15.205  17.699   4.762
71098W        W30392  13.770  41.940  11.511
71099W        W30393  43.316  37.353  10.970
71100W        W30394  30.640  19.560   1.732
71101W        W30395  32.547   0.801   2.306
71102W        W30396  23.591  44.779  14.292
71103W        W30397   4.888  14.284   9.951
71104W        W30398  11.260  20.607   0.391
71105W        W30399   9.355  38.821   3.689
71106W        W30400   7.817  10.805  13.862
71107W        W30401   2.264  20.252   3.724
71108W        W30402  21.605  25.614  10.478
71109W        W30403  39.991  13.820  13.971
71110W        W30404  18.770  12.129  10.912
71111W        W30405  41.852  42.839  14.483
71112W        W30406  22.191  31.953  13.411
71113W        W30407  13.735   8.850   4.738
71114W        W30408  35.092  10.173   4.698
71115W        W30409  40.541  37.435  11.054
71116W        W30410   4.253  42.428   3.843
71117W        W30411   7.207   6.751   1.447
71118W        W30412   0.757  31.641  14.481
71119W        W30413  12.761  38.872  13.415
71120W        W30414  22.731  21.153   5.265
71121W        W30415  20.557  28.950   2.318
71122W        W30416   9.390  41.350  11.404
71123W        W30417  32.041  13.787   4.354
71124W        W30418  35.917  35.009   1.399
71125W        W30419   8.349  39.812   1.869
71126W        W30420   4.758   0.427  12.976
71127W        W30421   8.261   8.802  13.908
71128W        W30422  13.237  15.632   3.374
71129W        W30423   2.297   6.331   0.899
71130W        W30424  36.531  26.028  12.047
71131W        W30425  36.538  35.602   0.398
71132W        W30426  38.450  16.766   0.457
71133W        W30427  24.150  14.149   3.684
71134W        W30428  26.068  40.806  12.054
71135W        W30429  33.014   9.832   2.684
71136W        W30430   9.282  20.582  13.032
71137W        W30431  37.978  43.304   1.743
71138W        W30432  29.449  22.645   1.239
71139W        W30433  30.519   3.399   1.897
71140W        W30434  10.634  16.225   3.301
71141W        W30435  27.114  23.067   2.408
71142W        W30436  30.161  34.971   1.219
71143W        W30437  24.998  27.608   4.792
71144W        W30438  22.112   4.828   2.877
71145W        W30439  12.312  20.641   2.275
71146W        W30440  20.646   4.930   3.826
71147W        W30441  30.129  35.540   4.825
71148W        W30442   8.318  26.568   1.739
71149W        W30443  15.660  23.026   1.855
71150W        W30444  13.705  13.746   3.764
71151W        W30445   4.810  35.954   1.320
71152W        W30446  30.012  10.163   4.256
71153W        W30447   2.760  13.815  13.989
71154W        W30448  10.289  19.704  14.846
71155W        W30449   2.908   2.929   0.333
71156W        W30450  38.504  33.927  14.024
71157W        W30451   8.685  26.674  13.801
71158W        W30452  16.570   9.888  12.900
71159W        W30453  31.572  17.599  12.055
71160W        W30454  19.281   7.776   2.794
71161W        W30455  33.027  35.897  12.543
71162W        W30456  42.905  13.829  13.798
71163W        W30457  23.506  15.086   2.211
71164W        W30458   7.905  39.448   4.256
71165W        W30459  29.604   0.344   0.425
71166W        W30460  13.617  32.915  13.426
71167W        W30461  38.842  40.486  12.836
71168W        W30462  27.026  18.254  14.806
71169W        W30463   3.349  31.091   2.202
71170W        W30464  40.836  25.144  13.845
71171W        W30465  44.807   0.311  14.382
71172W        W30466  12.675   7.262   0.751
71173W        W30467   2.330   1.848  14.907
71174W        W30468  15.692  26.992  10.573
71175W        W30469   4.834  15.631   3.689
71176W        W30470  38.914   8.266   3.715
71177W        W30471  29.457   7.310   3.791
71178W        W30472  30.032  12.729  13.402
71179W        W30473  15.727  36.421  14.325
71180W        W30474  29.124  34.510  13.997
71181W        W30475  12.234  11.303  12.547
71182W        W30476  25.522   2.282   0.931
71183W        W30477  40.909  17.567  10.596
71184W        W30478  12.697  36.998   0.908
71185W        W30479   9.673  26.577   1.910
71186W        W30480  28.061  43.967  12.052
71187W        W30481   6.765   1.453   1.803
71188W        W30482   1.935  10.724  11.984
71189W        W30483  16.278   0.264  13.886
71190W        W30484  13.811  19.125   2.307
71191W        W30485  24.187  39.853   2.391
71192W        W30486  35.601   2.770   4.288
71193W        W30487   9.745  26.187   2.788
71194W        W30488  22.657   3.930  10.920
71195W        W30489  42.981   4.917   0.407
71196W        W30490   4.828   1.339   0.887
71197W        W30491  28.653  41.898  13.488
71198W        W30492  39.046  42.016   2.302
71199W        W30493  24.514  19.700   3.339
71200W        W30494  23.676  21.511  10.976
71201W        W30495   0.756   0.266   0.871
71202W        W30496  41.968  33.006  10.960
71203W        W30497  18.128   8.199   2.373
71204W        W30498  36.097   4.236   4.163
71205W        W30499  22.705  18.211   3.238
71206W        W30500  39.913   3.235  10.441
71207W        W30501  30.074   0.346   2.276
71208W        W30502  35.497  44.933   1.901
71209W        W30503  13.634  10.308   1.214
71210W        W30504  29.618  11.368  13.478
71211W        W30505  42.960  43.891  12.382
71212W        W30506  40.829  25.610  10.532
71213W        W30507  40.995  26.579   1.912
71214W        W30508   6.788  43.500   4.778
71215W        W30509  43.317   0.805  11.535
71216W        W30510  30.912  12.843   4.661
71217W        W30511  37.475  29.068   2.730
71218W        W30512  10.278  11.283   3.765
71219W        W30513  22.999  31.142   2.419
71220W        W30514  19.761  32.610   3.855
71221W        W30515  26.046  19.088   2.873
71222W        W30516  37.988  19.240  14.858
71223W        W30517  18.204  39.882  12.921
71224W        W30518  16.123  38.536  12.980
71225W        W30519  23.121   9.214   2.901
71226W        W30520  28.151  42.429  12.545
71227W        W30521  18.724  28.468  14.470
71228W        W30522  28.958  39.450   2.385
71229W        W30523  28.630  14.811  14.288
71230W        W30524  38.970  43.889  11.569
71231W        W30525  38.878  17.209  13.366
71232W        W30526  18.623  32.071   0.867
71233W        W30527  13.220  32.509   1.865
71234W        W30528  22.644  11.237  14.310
71235W        W30529   4.414  40.309  13.945
71236W        W30530  37.831   4.446   4.647
71237W        W30531  10.360  20.204   5.157
71238W        W30532  24.606   4.312  14.513
71239W        W30533   7.744  44.931  10.952
71240W        W30534   3.254   1.922  13.965
71241W        W30535  28.935  36.894   0.875
71242W        W30536  16.227  40.830  13.326
71243W        W30537  18.084   4.794  14.369
71244W        W30538  20.125  44.991   3.774
71245W        W30539  35.502  11.266  11.498
71246W        W30540  21.624   2.800   4.656
71247W        W30541   3.305  12.352  10.951
71248W        W30542   6.707  37.427   0.478
71249W        W30543   5.793   4.872  14.400
71250W        W30544   4.899  16.568  12.512
71251W        W30545  17.202  17.626   4.722
71252W        W30546  35.510  40.534   4.258
71253W        W30547  36.359  20.658  10.593
71254W        W30548  16.316  38.897   2.279
71255W        W30549   3.774  40.911   0.772
71256W        W30550  27.582   7.865  10.937
71257W        W30551  43.838  18.650  12.995
71258W        W30552   7.750  40.399   4.666
71259W        W30553  43.890  16.682  10.414
71260W        W30554   0.377  19.701  11.585
71261W        W30555   0.359  35.050   1.890
71262W        W30556  13.728  35.388   0.813
71263W        W30557   0.860  31.625   1.348
71264W        W30558  31.546   3.255  13.058
71265W        W30559  27.477  15.797  14.850
71266W        W30560  38.008  18.583   2.414
71267W        W30561  31.123  30.431  11.463
71268W        W30562  23.529  38.834   3.654
71269W        W30563  28.136  40.444  14.393
71270W        W30564  35.888  27.099  10.615
71271W        W30565  21.680  11.748  11.938
71272W        W30566  38.430  23.565  12.400
71273W        W30567  22.223  19.749  13.449
71274W        W30568  25.091  11.252   1.262
71275W        W30569   4.713  39.993  10.891
71276W        W30570  38.506  14.592  11.403
71277W        W30571  29.446  44.362  11.928
71278W        W30572   0.791   0.791  12.552
71279W        W30573  26.678  16.599  13.030
71280W        W30574  19.223  37.909   3.244
71281W        W30575  38.543  37.520   1.398
71282W        W30576  21.141  33.582  13.475
71283W        W30577  21.569  43.458  13.814
71284W        W30578  28.090  29.926  13.487
71285W        W30579  39.421  11.848  10.440
71286W        W30580  11.362   0.779  13.930
71287W        W30581  20.218  27.507  11.598
71288W        W30582  44.308  34.555   1.408
71289W        W30583  37.462   5.756   4.220
71290W        W30584   4.250  34.410  13.432
71291W        W30585   0.749  24.492   0.378
71292W        W30586  14.199  18.093   5.177
71293W        W30587  17.304  34.078   3.658
71294W        W30588   4.438   8.394   4.833
71295W        W30589  11.836  12.300  14.295
71296W        W30590  16.132  42.342  10.980
71297W        W30591  20.727   9.226   4.263
71298W        W30592  21.256  32.100   2.313
71299W        W30593  33.583   0.930   2.687
71300W        W30594   7.778  35.096   2.852
71301W        W30595  16.224  32.500  13.918
71302W        W30596  38.381  13.664  13.481
71303W        W30597  33.004  25.599  14.001
71304W        W30598  44.991  42.352  10.406
71305W        W30599  25.068  40.993  11.577
71306W        W30600  28.931  22.728  14.359
71307W        W30601  28.945  19.068  13.333
71308W        W30602  25.559  18.097  10.610
71309W        W30603  41.480  34.077   5.318
71310W        W30604  37.955  36.415  10.575
71311W        W30605  24.653   0.940  10.558
71312W        W30606  26.507  16.202  13.500
71313W        W30607  18.122   3.818   4.666
71314W        W30608  14.313  41.989   1.374
71315W        W30609   1.843  28.967  12.087
71316W        W30610   0.944  38.391   0.791
71317W        W30611  11.745  23.726  11.597
71318W        W30612   5.404  15.187  13.802
71319W        W30613  15.736  32.510  12.351
71320W        W30614  19.589  37.904  12.089
71321W        W30615  38.970  39.507   4.251
71322W        W30616  18.639  30.972  13.928
71323W        W30617  35.936   3.405   5.108
71324W        W30618   3.883  32.506  12.913
71325W        W30619  26.117  29.058  11.515
71326W        W30620  23.141  40.431   4.699
71327W        W30621  22.706  27.021   2.268
71328W        W30622   7.673   3.400  12.836
71329W        W30623   3.386  16.619   4.158
71330W        W30624  24.591  29.584   2.412
71331W        W30625  28.145  39.933   1.907
71332W        W30626  36.440   4.293   1.786
71333W        W30627  34.588  28.593   2.853
71334W        W30628  29.014  29.423  13.533
71335W        W30629  31.944  31.088  12.863
71336W        W30630   4.334  26.077  14.937
71337W        W30631  12.187   4.777   1.297
71338W        W30632  44.384   3.378  14.969
71339W        W30633  29.495  26.176  10.411
71340W        W30634  40.927  38.905   4.284
71341W        W30635   4.794  43.464  14.410
71342W        W30636   2.966  37.870  13.325
71343W        W30637   3.258  22.032  10.465
71344W        W30638  13.676  36.372   2.665
71345W        W30639  16.671  44.339  13.483
71346W        W30640  20.146  24.158   1.930
71347W        W30641  28.077  34.089   2.894
71348W        W30642  27.585  21.723   3.653
71349W        W30643   9.779  26.142   2.390
71350W        W30644  33.046  19.670   4.127
71351W        W30645  24.099   3.229  13.465
71352W        W30646  35.051   9.826  13.854
71353W        W30647  33.591  13.647  13.333
71354W        W30648  31.959  42.985  11.894
71355W        W30649  15.089  18.157  14.978
71356W        W30650   4.288  19.725  13.353
71357W        W30651  30.016  16.807   3.652
71358W        W30652  21.696   3.940  12.987
71359W        W30653  23.658  41.368  13.825
71360W        W30654  19.648  27.083  11.405
71361W        W30655  10.199  17.131   2.413
71362W        W30656  44.010  11.721   4.754
71363W        W30657  27.584  29.647  11.466
71364W        W30658  16.718  39.841  14.788
71365W        W30659  19.648   4.721  14.821
71366W        W30660  31.002  16.252  12.548
71367W        W30661   3.435   2.354  10.003
71368W        W30662   7.369  24.630  10.996
71369W        W30663  16.138  13.734   3.219
71370W        W30664  15.800  15.123  14.314
71371W        W30665  21.150  32.609  12.007
71372W        W30666  26.534  29.575   5.091
71373W        W30667  15.781   0.395   2.747
71374W        W30668  24.714  38.056   0.851
71375W        W30669  37.844  32.895   5.167
71376W        W30670   1.424  44.926  14.510
71377W        W30671  43.838  25.218  11.945
71378W        W30672  29.621   8.377   4.763
71379W        W30673  43.921  17.630  14.952
71380W        W30674  37.012  12.799  12.011
71381W        W30675  39.985  44.458   4.285
71382W        W30676  43.372  40.314  12.464
71383W        W30677  24.170  17.203   4.609
71384W        W30678  43.846  37.567   4.145
71385W        W30679  36.418  40.041   0.759
71386W        W30680  34.051   3.267   4.725
71387W        W30681  43.913  33.065   2.761
71388W        W30682  41.421  24.489  13.403
71389W        W30683  31.026  21.644   3.721
71390W        W30684  30.931  33.594  13.058
71391W        W30685  38.048  38.916  14.811
71392W        W30686  40.842   2.445   2.287
71393W        W30687   4.922   9.646  11.106
71394W        W30688   3.443   8.375  13.520
71395W        W30689  34.591  23.029  11.482
71396W        W30690  42.033  37.571   1.763
71397W        W30691   0.964  22.027   4.237
71398W        W30692   9.395   5.849   1.777
71399W        W30693  31.458   3.311   3.749
71400W        W30694  16.168   9.811  10.007
71401W        W30695   8.216  25.648   1.257
71402W        W30696  11.353  32.898   3.723
71403W        W30697   5.894  19.638   2.316
71404W        W30698  28.132  13.133   0.762
71405W        W30699  27.063  31.465  14.872
71406W        W30700  20.755  35.389   0.475
71407W        W30701  17.711  41.843  11.895
71408W        W30702  11.200  31.019   0.910
71409W        W30703  14.818  21.528   2.842
71410W        W30704  23.992   9.810  13.464
71411W        W30705  31.902  34.898  12.909
71412W        W30706  40.917  32.506  11.905
71413W        W30707   4.258  35.491   0.414
71414W        W30708   2.819  41.362   2.731
71415W        W30709   9.700   3.808  10.627
71416W        W30710  30.111  35.382   0.274
71417W        W30711   9.823  43.021  14.513
71418W        W30712  28.017  29.110  11.956
71419W        W30713  20.202  25.547  14.281
71420W        W30714  13.805   4.793   1.880
71421W        W30715   3.745  10.701   3.729
71422W        W30716   2.857  19.606  14.934
71423W        W30717  23.545   6.261  14.940
71424W        W30718  30.483  24.545  14.486
71425W        W30719   4.281  28.634  14.839
71426W        W30720  23.610  43.435  11.540
71427W        W30721  28.029  35.489   1.720
71428W        W30722  12.160  16.092   1.724
71429W        W30723  29.641   5.348   3.293
71430W        W30724  25.009  29.470  11.384
71431W        W30725  15.740  36.097   2.195
71432W        W30726  23.699  40.340  12.436
71433W        W30727  17.088  30.467  11.386
71434W        W30728  40.367  12.349   1.818
71435W        W30729  34.438  11.263   3.641
71436W        W30730  34.503  12.768   1.807
71437W        W30731  21.611  42.905  10.948
71438W        W30732  39.010  12.225  11.868
71439W        W30733  28.491   6.289   3.733
71440W        W30734  16.809  13.213   5.107
71441W        W30735  14.131   3.860  11.857
71442W        W30736   4.775  25.059   3.146
71443W        W30737  10.678  11.245  13.865
71444W        W30738  19.776  28.148  11.076
71445W        W30739  31.067  24.116  12.847
71446W        W30740  11.663  35.015   1.808
71447W        W30741  38.412  21.088  13.400
71448W        W30742   2.328  34.399   4.193
71449W        W30743  29.494  15.721  12.988
71450W        W30744  14.254   3.346  12.030
71451W        W30745   0.459   9.229   0.837
71452W        W30746  36.877  35.983   4.658
71453W        W30747  40.010  30.447  13.516
71454W        W30748  25.484  32.985   1.422
71455W        W30749  26.179  24.208   2.699
71456W        W30750  35.598  11.203   5.119
71457W        W30751   2.319  16.281  13.048
71458W        W30752   3.757   8.211  12.900
71459W        W30753  37.906  42.917   0.326
71460W        W30754   6.876  16.763  11.588
71461W        W30755  22.007  44.914   4.730
71462W        W30756  25.032  23.560  11.591
71463W        W30757  41.496  14.234   0.731
71464W        W30758  28.055   4.447  12.519
71465W        W30759   0.954  31.405  13.378
71466W        W30760  12.840  25.654   4.744
71467W        W30761  16.581  24.996  10.517
71468W        W30762   2.244  23.220  13.449
71469W        W30763  21.087  13.644  11.494
71470W        W30764  36.992  14.673  11.397
71471W        W30765  14.214  27.152   4.715
71472W        W30766  30.980  42.400   2.322
71473W        W30767  30.066  22.146  10.471
71474W        W30768  25.559  17.608  13.800
71475W        W30769  16.168   3.912  12.899
71476W        W30770   8.858   2.777  14.895
71477W        W30771  28.618  41.393   1.281
71478W        W30772  31.070   3.837  14.426
71479W        W30773  22.716   3.417  11.098
71480W        W30774  18.143  44.801  13.978
71481W        W30775  20.046  31.477   1.891
71482W        W30776  44.774  38.998   3.830
71483W        W30777  11.787   1.250  12.407
71484W        W30778  16.661  39.494  11.433
71485W        W30779  25.032  43.422   3.366
71486W        W30780  44.364   3.857   4.135
71487W        W30781  14.172  35.043   2.299
71488W        W30782   9.394  41.403   1.770
71489W        W30783   4.844  31.554  13.507
71490W        W30784  36.842  37.877  12.079
71491W        W30785   0.273   3.457   0.303
71492W        W30786  36.513  40.909   2.231
71493W        W30787  31.105  22.075  10.932
71494W        W30788   3.334  13.306   3.186
71495W        W30789  29.010   7.844   1.350
71496W        W30790   0.744   2.305  12.982
71497W        W30791  40.547  20.618   0.417
71498W        W30792  40.391  19.674   2.859
71499W        W30793  14.332  28.435   0.788
71500W        W30794  27.559  43.489  11.087
71501W        W30795   6.230  40.020  10.158
71502W        W30796  14.692  26.701   2.861
71503W        W30797  35.592  43.342   3.356
71504W        W30798  39.507  23.096   3.648
71505W        W30799  21.038  15.294  11.033
71506W        W30800  27.153  20.665   4.250
71507W        W30801   5.329  38.406  11.976
71508W        W30802  37.966  42.357  12.838
71509W        W30803   7.390  36.843  14.796
71510W        W30804  16.150  34.071  12.999
71511W        W30805  23.079  32.492   3.198
71512W        W30806   5.371  42.943  13.309
71513W        W30807  30.025  11.624  12.466
71514W        W30808  21.243  12.338  12.967
71515W        W30809  36.894  13.692   1.399
71516W        W30810  13.208  20.214   4.600
71517W        W30811  15.324  39.973  13.548
71518W        W30812  14.734  18.112   4.826
71519W        W30813  39.556  16.773  11.128
71520W        W30814   8.244  14.234   3.654
71521W        W30815   4.787  19.705  12.055
71522W        W30816  37.086  12.168   1.324
71523W        W30817  35.359  35.473   0.744
71524W        W30818  16.582   1.733  14.289
71525W        W30819  32.900  37.441  13.325
71526W        W30820   0.941  15.233  14.814
71527W        W30821  24.049  33.105   2.232
71528W        W30822  33.435  24.095  14.821
71529W        W30823  35.985  23.993   1.696
71530W        W30824  11.183  34.564  13.845
71531W        W30825  34.953  17.246   3.720
71532W        W30826  33.095  40.454  12.982
71533W        W30827  40.321   4.928   3.245
71534W        W30828   3.780   9.345   1.710
71535W        W30829  17.776   1.817   2.727
71536W        W30830  25.636  22.699  12.851
71537W        W30831  39.466  33.404   0.909
71538W        W30832  20.209  26.649   0.747
71539W        W30833  34.552  20.075  11.510
71540W        W30834  25.963  27.459  10.953
71541W        W30835  20.127  35.878  11.927
71542W        W30836  18.556   1.360   2.871
71543W        W30837   4.779  37.855  12.937
71544W        W30838   5.257  26.978   4.784
71545W        W30839  15.236  20.545  14.922
71546W        W30840  26.037  24.706  10.578
71547W        W30841  44.898  31.060  11.941
71548W        W30842  44.503   3.348  11.916
71549W        W30843   9.254  14.324  14.876
71550W        W30844   9.775  24.547   2.351
71551W        W30845  32.070  23.205  14.391
71552W        W30846  22.694  35.540   0.817
71553W        W30847  20.692  12.820   4.274
71554W        W30848  13.764  18.218  14.298
71555W        W30849   2.813  24.049   1.324
71556W        W30850   5.881  32.416  12.499
71557W        W30851  32.521  21.743   1.309
71558W        W30852  26.586   4.241   0.419
71559W        W30853  12.703  23.657  14.392
71560W        W30854  19.116  41.424   2.751
71561W        W30855  10.197   0.789   3.334
71562W        W30856  30.485  42.515  11.858
71563W        W30857  37.467  37.573   5.654
71564W        W30858  23.510  36.067   0.881
71565W        W30859  25.127  28.986  11.907
71566W        W30860  24.551  38.897   2.786
71567W        W30861  27.677   1.304  10.940
71568W        W30862   3.300  24.195  12.855
71569W        W30863  27.012  25.968   0.271
71570W        W30864   1.453   8.774  14.977
71571W        W30865  42.878   2.352  14.350
71572W        W30866  39.009  40.313   4.775
71573W        W30867  32.985  13.822  10.460
71574W        W30868   1.875  29.130  14.414
71575W        W30869   4.392  38.919   4.811
71576W        W30870  27.514  18.235   4.158
71577W        W30871  17.599  12.136  13.477
71578W        W30872  25.674  10.264   1.848
71579W        W30873  43.992   8.757   4.152
71580W        W30874  42.341  20.574   0.480
71581W        W30875   3.387  39.000   3.330
71582W        W30876  44.427  44.934   0.913
71583W        W30877  42.966   7.288  11.527
71584W        W30878   2.961  17.762   2.811
71585W        W30879  40.864   8.672   5.107
71586W        W30880  20.077  22.526   3.821
71587W        W30881  24.011  35.917  12.948
71588W        W30882  32.953  21.676   1.447
71589W        W30883  28.122   1.925   1.748
71590W        W30884  18.096  41.928  13.435
71591W        W30885  43.810  29.651  11.463
71592W        W30886  38.910  31.117  12.847
71593W        W30887  44.802   9.791  11.930
71594W        W30888  35.524  32.445   1.777
71595W        W30889  37.008  24.612   0.849
71596W        W30890  17.624  36.402   2.694
71597W        W30891  37.976  41.939  11.460
71598W        W30892  18.153  26.973  10.927
71599W        W30893  36.590  28.954   3.669
71600W        W30894  43.949  23.001  12.956
71601W        W30895   2.251  18.189   3.759
71602W        W30896  22.506  31.519   4.163
71603W        W30897  44.279  25.561   4.691
71604W        W30898  37.408   5.800   2.672
71605W        W30899   2.235  12.833  10.618
71606W        W30900  26.673   3.786  10.958
71607W        W30901   9.724   4.790   3.157
71608W        W30902  17.231   0.897   2.686
71609W        W30903   2.385  11.244   1.904
71610W        W30904  22.107  18.640  14.818
71611W        W30905  19.132   3.831   3.283
71612W        W30906  29.975  19.056   0.783
71613W        W30907  12.325   5.700   3.332
71614W        W30908  38.990  25.043  11.967
71615W        W30909  37.923   9.215  11.443
71616W        W30910  13.202  28.612   3.805
71617W        W30911  19.249  36.507  13.972
71618W        W30912  40.032  17.727  10.986
71619W        W30913  22.561  16.246   4.186
71620W        W30914  36.431   4.903  13.369
71621W        W30915  29.434  11.628  12.026
71622W        W30916   6.706   2.428  13.058
71623W        W30917  10.227  42.898  10.979
71624W        W30918  11.658  29.636  11.422
71625W        W30919  15.303  34.468   0.937
71626W        W30920  12.696  32.525  10.097
71627W        W30921  24.205  17.575   3.156
71628W        W30922   2.272   0.312  13.902
71629W        W30923  24.705  44.775   0.408
71630W        W30924  14.615  17.741   3.834
71631W        W30925  28.575  37.852  11.545
71632W        W30926  25.525   8.167  12.046
71633W        W30927  20.039  42.289  13.349
71634W        W30928   8.175  29.584  11.012
71635W        W30929  24.608  15.709   3.738
71636W        W30930  23.639   5.700   1.353
71637W        W30931  14.624  43.507  12.352
71638W        W30932   5.429  43.916   1.398
71639W        W30933  24.701  39.944  10.422
71640W        W30934  24.087   2.761   3.807
71641W        W30935  14.255  27.056   0.370
71642W        W30936  19.136  18.769  11.488
71643W        W30937  14.809  20.689   2.758
71644W        W30938  34.465  26.966  14.797
71645W        W30939  39.951  42.809   0.897
71646W        W30940  25.017   6.852  11.056
71647W        W30941  30.453  42.926   4.288
71648W        W30942  31.501  17.770  14.358
71649W        W30943  26.478  15.315   0.766
71650W        W30944  16.207  18.171   3.161
71651W        W30945  11.215   1.856  12.425
71652W        W30946  37.903   3.762   3.777
71653W        W30947  10.640  29.455  14.826
71654W        W30948  27.103  35.573  14.465
71655W        W30949  19.566  33.567   4.614
71656W        W30950  28.594   2.457  13.489
71657W        W30951  20.623  29.987   1.736
71658W        W30952  28.635   8.738   4.248
71659W        W30953  37.045  32.502  14.003
71660W        W30954  14.113  44.994   0.835
71661W        W30955  12.145  28.456  14.457
71662W        W30956   9.826  17.064   3.185
71663W        W30957   9.236  30.943  12.876
71664W        W30958  32.106  44.290   2.727
71665W        W30959  23.088  26.584  13.873
71666W        W30960   0.463  28.482  13.921
71667W        W30961  21.165  22.691  12.905
71668W        W30962  23.183  14.780   4.135
71669W        W30963   8.193  31.427  14.973
71670W        W30964  21.166  25.202   1.910
71671W        W30965  18.578  12.239   0.755
71672W        W30966  34.878  30.965   4.224
71673W        W30967   7.788  10.345  10.158
71674W        W30968  13.633  20.623  12.406
71675W        W30969  10.804  36.936  10.955
71676W        W30970   8.668  13.285  12.507
71677W        W30971  16.591  10.814  14.778
71678W        W30972  25.669  26.172   4.836
71679W        W30973   2.861  11.167   2.352
71680W        W30974  24.993  28.532   4.341
71681W        W30975  14.674  23.492  12.411
71682W        W30976  43.360  37.549   4.247
71683W        W30977  26.583  28.446  13.009
71684W        W30978  40.419  31.423   2.749
71685W        W30979  38.885  17.613  14.997
71686W        W30980  41.369   6.212   4.187
71687W        W30981  37.891  20.722   2.393
71688W        W30982  36.556  29.639   3.361
71689W        W30983  37.529  42.465  13.492
71690W        W30984  35.377   0.378   1.820
71691W        W30985  24.591  37.951   0.478
71692W        W30986  11.285  43.856  14.975
71693W        W30987  35.441   9.876  11.938
71694W        W30988  33.106  15.167   2.669
71695W        W30989   2.961  15.620  10.899
71696W        W30990  23.501   8.763  13.919
71697W        W30991  44.968  21.668   2.875
71698W        W30992  20.765  10.214  11.947
71699W        W30993  19.078  32.930  13.335
71700W        W30994  37.088  44.343   2.787
71701W        W30995  39.508  14.655  13.421
71702W        W30996   8.252   2.889  10.607
71703W        W30997  19.159  10.729   3.163
71704W        W30998  28.088  23.176   4.234
71705W        W30999  24.686  34.517   1.793
71706W        W31000   1.973  28.662   2.813
71707W        W31001  40.502  30.162   1.397
71708W        W31002  36.927  16.617  12.561
71709W        W31003  15.637   5.426  13.882
71710W        W31004  37.428  39.464   5.129
71711W        W31005   2.961  42.982  10.430
71712W        W31006  42.388  25.171  11.559
71713W        W31007  36.498   7.282   9.938
71714W        W31008  22.017  31.914   0.298
71715W        W31009  25.681  42.396  12.511
71716W        W31010   1.802   1.879  14.915
71717W        W31011  44.445  26.973  12.921
71718W        W31012  23.184  16.698   3.287
71719W        W31013  14.300  12.855   1.399
71720W        W31014  37.475  33.055  12.342
71721W        W31015  27.578  35.430   0.417
71722W        W31016  32.133  33.543  14.283
71723W        W31017  11.764  31.897  14.406
71724W        W31018  11.804   1.314  14.312
71725W        W31019  28.528  40.329   5.114
71726W        W31020  24.008  11.345   9.933
71727W        W31021  21.718  42.491  13.939
71728W        W31022  19.722   1.793   3.692
71729W        W31023   1.381  31.598   4.187
71730W        W31024  40.953  37.498  14.942
71731W        W31025   3.939  10.746  10.480
71732W        W31026  29.949  10.633   3.187
71733W        W31027  26.196  28.042  11.020
71734W        W31028  16.752  24.575   1.892
71735W        W31029  22.198  21.531  11.025
71736W        W31030   9.318  10.720  11.538
71737W        W31031  31.938  40.831   0.274
71738W        W31032  14.160   5.727   0.280
71739W        W31033  26.984  22.198  11.540
71740W        W31034  34.551  15.101  14.851
71741W        W31035  23.007   6.884   9.937
71742W        W31036   1.266  16.586  14.486
71743W        W31037  29.166  14.630  12.074
71744W        W31038  10.849   3.321   5.278
71745W        W31039  37.444  32.071  13.426
71746W        W31040  43.414  42.448  11.497
71747W        W31041   7.363  21.248   3.372
71748W        W31042  32.609  40.327   4.331
71749W        W31043  34.461  35.991   2.887
71750W        W31044  22.038  17.778   1.704
71751W        W31045   8.721   5.749  12.994
71752W        W31046  40.852  18.593  10.462
71753W        W31047  30.149  37.859   2.750
71754W        W31048  24.581  41.906  10.978
71755W        W31049  23.042  21.567  14.857
71756W        W31050  34.543  10.857   0.295
71757W        W31051  26.045  38.457  12.968
71758W        W31052  10.730   9.657   1.929
71759W        W31053   2.937  40.303   1.898
71760W        W31054  14.700  29.580   1.870
71761W        W31055  15.642   5.910   4.681
71762W        W31056  12.611  27.041   2.240
71763W        W31057  18.089   9.662   1.349
71764W        W31058  10.865  14.722  14.319
71765W        W31059  30.019  19.543  11.090
71766W        W31060  39.957  32.922   0.754
71767W        W31061  25.099   9.647   0.247
71768W        W31062  23.514   6.832   2.312
71769W        W31063  14.186  37.443   4.322
71770W        W31064  28.651  41.986   0.933
71771W        W31065  42.300  37.852  14.861
71772W        W31066   8.703   2.911   3.384
71773W        W31067  17.256  35.104  13.041
71774W        W31068  32.403  23.101  10.965
71775W        W31069  19.065   2.334  10.525
71776W        W31070  33.012  13.300  10.612
71777W        W31071  18.786  41.016   0.280
71778W        W31072  20.263  20.133  14.402
71779W        W31073  23.026  18.285  13.863
71780W        W31074   6.839  22.102   4.691
71781W        W31075   9.374  14.598  13.401
71782W        W31076  32.016  20.250   1.705
71783W        W31077   8.793  22.532  11.018
71784W        W31078  18.649  43.893   2.748
71785W        W31079   8.872   7.889   4.190
71786W        W31080   1.756   6.311   1.395
71787W        W31081  23.529  12.162  11.562
71788W        W31082  41.401  32.910   0.290
71789W        W31083  29.108  19.259   2.414
71790W        W31084  32.940  36.583   1.789
71791W        W31085  35.906  35.910   1.377
71792W        W31086  15.211  30.547  14.303
71793W        W31087  25.711   9.731   4.262
71794W        W31088  24.119  38.071   4.165
71795W        W31089  11.850  40.533  13.828
71796W        W31090  42.943   7.289  13.498
71797W        W31091  44.958  29.605  12.035
71798W        W31092  43.506  30.044   3.366
71799W        W31093  36.428  29.126  10.492
71800W        W31094  17.575  31.079   3.188
71801W        W31095  35.389  44.863   1.301
71802W        W31096  24.599  10.815   3.744
71803W        W31097   1.449  36.937   3.746
71804W        W31098  14.187  28.644   2.759
71805W        W31099  17.297  36.379   4.793
71806W        W31100  30.042  25.093   1.349
71807W        W31101  42.847  29.494  13.420
71808W        W31102   2.774  43.384  12.872
71809W        W31103  41.389  43.491   2.767
71810W        W31104   3.249   1.284  10.493
71811W        W31105   8.879  33.002  10.896
71812W        W31106   4.924  37.472   4.244
71813W        W31107   7.694  27.471  10.625
71814W        W31108   7.777  20.241  11.480
71815W        W31109  38.946   9.368   4.197
71816W        W31110  40.945  27.028   2.256
71817W        W31111   0.840   0.753  12.087
71818W        W31112  39.994  38.472  13.953
71819W        W31113  29.563  36.430  13.004
71820W        W31114  31.436  22.533   1.708
71821W        W31115  35.533   6.742   5.751
71822W        W31116  24.623   4.217  10.584
71823W        W31117   1.756  18.087  11.577
71824W        W31118   4.259   1.792  10.437
71825W        W31119  15.698   2.886   3.783
71826W        W31120  37.530  20.263   4.633
71827W        W31121  44.863   1.952   5.686
71828W        W31122  21.617  44.787   0.884
71829W        W31123   1.879  41.895  13.924
71830W        W31124   6.899  24.483  10.421
71831W        W31125   9.200  15.601  10.960
71832W        W31126   7.871  23.986   2.258
71833W        W31127  22.084   4.780  10.159
71834W        W31128  22.600   4.744  12.429
71835W        W31129  40.859  43.888  14.762
71836W        W31130  37.505  44.339  12.556
71837W        W31131   2.939   8.866  10.594
71838W        W31132  11.773  22.612  10.078
71839W        W31133  40.993  13.109  14.891
71840W        W31134   4.776   9.772  11.901
71841W        W31135  27.144  28.602   1.867
71842W        W31136   2.446   0.860   0.287
71843W        W31137  37.996  16.085   4.223
71844W        W31138   6.889  23.635  14.962
71845W        W31139  42.459  19.770   0.924
71846W        W31140   8.675   8.857   4.208
71847W        W31141  19.557  14.601   1.335
71848W        W31142   6.840  33.584  14.302
71849W        W31143  36.082   5.410   2.214
71850W        W31144  41.523  31.031   4.824
71851W        W31145  20.051   3.798   1.248
71852W        W31146  30.451  37.545  12.902
71853W        W31147  14.630  20.195   1.849
71854W        W31148  30.156  44.949  13.807
71855W        W31149  20.241  28.613   3.194
71856W        W31150  25.163   8.772   3.235
71857W        W31151  12.240  44.407   3.688
71858W        W31152   0.819  39.821  12.930
71859W        W31153  37.435   5.368  13.959
71860W        W31154  44.889   9.359  12.918
71861W        W31155  36.578  17.627   3.339
71862W        W31156  14.185  37.905   1.301
71863W        W31157  10.765  25.575   2.777
71864W        W31158  12.763  34.029  11.121
71865W        W31159  13.753  34.091   3.149
71866W        W31160  35.029  37.044   3.212
71867W        W31161  20.113  44.390  12.402
71868W        W31162  12.317   5.933   4.336
71869W        W31163  29.628  40.821  13.018
71870W        W31164  30.106  18.625   1.729
71871W        W31165  15.294  33.130  12.576
71872W        W31166  25.553  28.551  12.968
71873W        W31167  17.565  26.178  13.388
71874W        W31168   4.753  36.094  11.528
71875W        W31169   1.239  27.114   2.288
71876W        W31170  15.623  31.416   0.892
71877W        W31171  34.908   6.322   4.310
71878W        W31172  19.199  17.755   1.784
71879W        W31173  42.382   4.927   1.275
71880W        W31174  24.686   3.387  13.377
71881W        W31175  32.022  31.917   0.433
71882W        W31176   1.949  39.818  13.348
71883W        W31177  38.898  12.237   0.851
71884W        W31178  35.524  13.335   4.274
71885W        W31179  20.703  15.775  11.950
71886W        W31180  19.700  41.462   2.390
71887W        W31181  33.528  17.624   2.871
71888W        W31182  42.485  18.055  10.541
71889W        W31183  44.358   2.339   2.690
71890W        W31184  36.527  14.590  10.972
71891W        W31185   6.225  29.615   2.368
71892W        W31186  12.135   3.232   4.601
71893W        W31187  33.106   9.370   4.658
71894W        W31188   1.906  24.528  11.121
71895W        W31189  13.784   7.249   0.427
71896W        W31190   0.473  21.656  11.029
71897W        W31191  21.697  13.793   3.671
71898W        W31192  26.495  16.703   2.822
71899W        W31193  41.855  37.457  12.481
71900W        W31194   0.824   0.959  13.352
71901W        W31195   2.312  11.724   2.860
71902W        W31196  44.294  29.085   0.452
71903W        W31197  21.626  23.139   4.721
71904W        W31198  24.127  24.581  13.984
71905W        W31199  27.063  18.777  13.949
71906W        W31200  10.741   9.849   2.229
71907W        W31201   0.866  20.595   0.858
71908W        W31202  17.126  41.794   5.236
71909W        W31203   7.782   9.278  14.461
71910W        W31204  29.664  15.806  11.047
71911W        W31205  20.080  37.947  11.918
71912W        W31206  21.107   5.234   2.848
71913W        W31207  26.152  37.463   1.252
71914W        W31208  34.933  29.660  13.846
71915W        W31209  28.174  18.101  10.124
71916W        W31210  32.083  29.454   5.170
71917W        W31211   4.311  32.607   0.477
71918W        W31212  33.104  12.727  12.562
71919W        W31213  31.963  13.624   2.771
71920W        W31214   4.772   2.361   2.236
71921W        W31215  15.807  13.689   3.302
71922W        W31216  14.722   5.807   0.328
71923W        W31217  26.582   6.241   3.810
71924W        W31218  38.954  40.896  13.376
71925W        W31219  14.730  38.869  14.949
71926W        W31220  14.593  38.352   2.870
71927W        W31221  33.502  30.511   5.164
71928W        W31222  12.694  39.050   0.378
71929W        W31223   4.700  13.141  12.467
71930W        W31224  41.458  30.930   2.895
71931W        W31225  16.609  42.893  11.101
71932W        W31226  16.647  43.338  11.549
71933W        W31227  32.543  18.635  13.357
71934W        W31228  38.896   4.818  14.869
71935W        W31229  36.016  12.741   2.271
71936W        W31230  42.298  25.170  11.874
71937W        W31231   2.848  30.475  11.511
71938W        W31232   2.273  41.432  12.973
71939W        W31233  23.516   3.866  14.923
71940W        W31234  34.116   1.771  14.353
71941W        W31235  38.340  24.662  11.559
71942W        W31236  35.506  43.469   1.730
71943W        W31237  43.959  37.345  14.939
71944W        W31238  18.698  29.458   3.850
71945W        W31239  36.941  14.754   1.791
71946W        W31240   4.342  27.077   3.723
71947W        W31241  20.112   3.841  14.492
71948W        W31242  31.080  37.916   0.281
71949W        W31243  25.677  37.848   0.412
71950W        W31244  25.474   8.796  13.041
71951W        W31245  17.711  13.837   3.257
71952W        W31246  20.057  20.622  11.394
71953W        W31247  41.459  43.440   3.708
71954W        W31248  25.540  38.854   1.262
71955W        W31249   5.396   8.766   1.735
71956W        W31250  37.337   0.485  13.802
71957W        W31251  23.615  14.813   2.815
71958W        W31252   3.828  10.299   5.124
71959W        W31253  38.932  12.124   4.725
71960W        W31254   8.194  31.562  13.311
71961W        W31255  23.139  26.973  13.952
71962W        W31256  43.887   0.866  12.558
71963W        W31257  10.181   6.249   3.292
71964W        W31258  17.630  41.824  11.544
71965W        W31259  13.705  30.423  11.099
71966W        W31260  15.789  33.121   1.435
71967W        W31261  23.204  15.266   2.351
71968W        W31262  44.767  30.139   1.925
71969W        W31263  26.577  14.674   1.929
71970W        W31264   4.710  18.091   3.752
71971W        W31265  36.573   6.276   1.289
71972W        W31266  15.725  26.612   4.212
71973W        W31267  14.692  21.572   4.288
71974W        W31268   4.722  34.560   0.283
71975W        W31269   5.422   4.404  14.338
71976W        W31270  41.892  29.031  14.005
71977W        W31271  42.517   6.331  11.558
71978W        W31272  26.076  18.671  13.871
71979W        W31273  30.118  14.734   3.181
71980W        W31274  36.864   3.937  14.305
71981W        W31275  26.002  35.921  14.459
71982W        W31276  34.533  22.668  12.924
71983W        W31277  40.449   2.394  14.354
71984W        W31278  10.795   9.806   4.795
71985W        W31279   1.355  15.820  14.898
71986W        W31280   1.894  36.467  14.912
71987W        W31281  16.251  24.205  10.576
71988W        W31282  36.864  23.657  13.049
71989W        W31283   1.401  43.371   0.369
71990W        W31284  17.225   7.231   1.820
71991W        W31285   0.864  38.920   2.743
71992W        W31286   3.356  41.430   4.640
71993W        W31287  23.067  21.656   1.251
71994W        W31288   2.437  31.556  11.988
71995W        W31289  44.421  13.192  10.538
71996W        W31290  18.212   0.281   0.963
71997W        W31291  31.914  27.612  10.989
71998W        W31292  22.160  27.616   0.424
71999W        W31293   0.349  20.543   0.831
72000W        W31294  10.212   2.961  12.979
72001W        W31295   1.356  15.200   4.186
72002W        W31296  39.536  43.880  11.598
72003W        W31297  18.067  41.505  10.978
72004W        W31298  27.612  23.592  12.575
72005W        W31299   5.386  10.285   0.360
72006W        W31300   3.942  23.584  12.886
72007W        W31301  37.562  35.518  14.475
72008W        W31302  28.154   4.843  10.965
72009W        W31303  19.144  27.481  10.415
72010W        W31304  29.645   2.885   0.957
72011W        W31305  30.999  13.815   3.313
72012W        W31306  38.328  35.982   3.790
72013W        W31307  43.009  22.173  14.941
72014W        W31308   6.767  34.499   1.821
72015W        W31309  38.896  39.434  12.569
72016W        W31310   4.834  37.916  14.884
72017W        W31311  23.011  12.300  11.103
72018W        W31312  38.351   6.820  13.383
72019W        W31313  29.127   2.952  13.534
72020W        W31314  18.701  11.752  12.999
72021W        W31315  32.938  21.027   0.814
72022W        W31316  33.889   4.215  11.528
72023W        W31317  18.281  14.212  11.990
72024W        W31318  37.358  24.612  11.097
72025W        W31319   0.474  11.290  12.005
72026W        W31320  14.155  31.127  14.816
72027W        W31321  28.570  10.359   1.808
72028W        W31322   8.858  24.541  11.609
72029W        W31323  17.758  29.055  12.846
72030W        W31324   3.773  30.034  14.406
72031W        W31325   2.360  19.622   0.343
72032W        W31326  30.111  40.526   0.824
72033W        W31327  29.497   7.828  11.611
72034W        W31328  40.875  12.683   0.874
72035W        W31329  44.330  39.979  12.944
72036W        W31330  30.472  31.921  11.392
72037W        W31331   5.779  12.316  11.057
72038W        W31332  28.079  16.640   0.756
72039W        W31333   9.239  12.739  10.948
72040W        W31334   8.256   2.757   4.758
72041W        W31335   0.816  14.233   3.657
72042W        W31336  20.132  22.010  14.931
72043W        W31337  39.932  29.968   1.921
72044W        W31338  40.489  42.460   1.440
72045W        W31339  44.448  35.045  13.057
72046W        W31340  20.065  42.312   3.824
72047W        W31341  24.023   9.854  12.445
72048W        W31342   4.752   9.827   3.767
72049W        W31343  38.821  38.923  13.485
72050W        W31344  36.442  22.687  12.429
72051W        W31345  38.365   9.329  12.918
72052W        W31346  23.545  42.882  13.525
72053W        W31347  14.671  37.526  14.460
72054W        W31348   9.306  21.709  13.833
72055W        W31349  18.183  26.072  13.854
72056W        W31350  38.999  24.481  13.855
72057W        W31351  10.702  13.625   0.383
72058W        W31352  14.756  27.158   1.862
72059W        W31353  20.245  36.945  11.051
72060W        W31354  25.962  43.913   2.279
72061W        W31355  16.811   2.227  12.859
72062W        W31356  23.181  15.181   0.443
72063W        W31357   1.472  33.468  14.459
72064W        W31358   2.345  19.684  12.063
72065W        W31359  16.112  22.233  11.381
72066W        W31360   4.851   8.383  12.983
72067W        W31361  23.559  32.573   0.426
72068W        W31362   3.270  26.648   1.701
72069W        W31363   2.239  14.768  12.570
72070W        W31364  31.955  36.033  12.854
72071W        W31365  36.541  10.380  12.876
72072W        W31366  10.659   8.755   4.255
72073W        W31367   4.231  40.900  12.976
72074W        W31368   4.416   7.902   1.394
72075W        W31369  16.663  10.803   2.774
72076W        W31370  40.993  12.170   2.804
72077W        W31371  28.036  23.539  10.467
72078W        W31372  15.763   2.304   0.322
72079W        W31373  14.208  10.149  14.882
72080W        W31374   6.686   0.479   0.896
72081W        W31375  31.021  16.584  14.853
72082W        W31376  43.816   8.725  13.376
72083W        W31377  19.168  12.625  11.477
72084W        W31378  42.796   4.332  10.522
72085W        W31379  43.878   0.862   1.842
72086W        W31380   5.868  22.549  12.559
72087W        W31381   9.244  32.911   2.802
72088W        W31382   9.224  34.946  12.078
72089W        W31383  44.488   4.879   2.365
72090W        W31384  27.972  19.279  12.476
72091W        W31385  44.447   5.788  13.901
72092W        W31386  22.080  28.453   1.748
72093W        W31387  28.948   4.251   1.214
72094W        W31388  20.062  35.049   3.277
72095W        W31389  17.740  22.193   2.191
72096W        W31390  21.754  19.193  10.888
72097W        W31391  22.063  27.016  13.865
72098W        W31392  44.456  22.135   3.332
72099W        W31393   7.340   4.293  12.824
72100W        W31394   7.296  16.631   1.261
72101W        W31395  14.605  42.912   4.777
72102W        W31396  38.555  17.706   4.658
72103W        W31397  33.069  29.532   3.761
72104W        W31398  34.001  12.329  13.943
72105W        W31399  23.050  19.716   1.379
72106W        W31400  29.091  39.039  12.396
72107W        W31401   2.372  39.872  12.887
72108W        W31402  32.517  31.927  12.865
72109W        W31403   7.412  17.297  12.873
72110W        W31404   3.926   8.349   4.644
72111W        W31405  26.141  21.121  11.512
72112W        W31406  28.493  23.620   1.896
72113W        W31407   1.732  41.317  11.449
72114W        W31408   8.847  44.956   1.921
72115W        W31409  19.771   0.752   0.269
72116W        W31410  32.402  24.061   2.700
72117W        W31411  39.991   2.311  14.763
72118W        W31412  14.735  38.332  12.340
72119W        W31413  30.523  27.597   3.671
72120W        W31414  12.767   2.884   1.783
72121W        W31415  13.620  32.484   0.376
72122W        W31416  13.783  17.763  12.933
72123W        W31417  26.142  23.495   3.247
72124W        W31418   7.681   1.794  11.512
72125W        W31419   2.859   6.822   3.288
72126W        W31420  23.668   4.813  13.526
72127W        W31421  26.198  26.497   4.651
72128W        W31422  24.082  33.075   4.766
72129W        W31423  35.604  19.580   1.774
72130W        W31424  12.349  12.751   0.891
72131W        W31425  19.728  36.008   0.345
72132W        W31426  41.503  34.110  11.398
72133W        W31427  16.760  43.980  12.438
72134W        W31428  35.098  32.572   3.840
72135W        W31429  28.564   1.855  14.439
72136W        W31430  44.463   4.377  12.016
72137W        W31431  20.138  12.755   3.296
72138W        W31432  43.406  19.268   2.372
72139W        W31433  31.518  15.771  12.571
72140W        W31434  24.626   1.839   2.342
72141W        W31435  29.020  38.408   3.201
72142W        W31436  23.696  21.624   3.178
72143W        W31437   9.376  34.101  14.871
72144W        W31438   5.870  23.001  11.448
72145W        W31439  39.002   2.804  14.356
72146W        W31440  32.987   3.889   3.760
72147W        W31441   5.914  19.732   1.905
72148W        W31442  42.392  16.230   2.831
72149W        W31443   1.927  19.650   4.249
72150W        W31444  19.167  18.182   2.282
72151W        W31445   1.924  26.588  11.605
72152W        W31446   7.364  38.427  12.007
72153W        W31447  30.627  41.899  13.380
72154W        W31448   3.782   2.307  11.563
72155W        W31449  18.072  33.493   2.266
72156W        W31450  29.048  34.454  13.444
72157W        W31451   7.764   3.849   0.770
72158W        W31452  36.072  32.522   4.671
72159W        W31453  29.943   3.943   3.279
72160W        W31454   4.358  35.401   3.811
72161W        W31455  15.298  23.716   1.214
72162W        W31456   5.264  38.914   2.331
72163W        W31457  43.460  30.465  10.062
72164W        W31458   1.918  44.318  11.079
72165W        W31459   8.396  44.920   1.857
72166W        W31460   5.914   6.860  14.835
72167W        W31461  25.981  24.045  10.407
72168W        W31462   3.243  41.806   0.342
72169W        W31463  38.827  30.067  11.407
72170W        W31464  37.950  18.113   0.740
72171W        W31465   5.307  24.049   1.329
72172W        W31466  32.955  12.766  12.951
72173W        W31467  18.712  43.353   1.370
72174W        W31468  43.817  18.585   4.824
72175W        W31469  43.775  32.521   4.806
72176W        W31470   5.738  29.112   3.298
72177W        W31471   2.765  10.657  12.386
72178W        W31472  32.433  11.748   0.774
72179W        W31473  28.447  28.935   2.800
72180W        W31474   0.332  12.716   0.341
72181W        W31475  10.173  21.639  11.010
72182W        W31476  40.803   5.780  12.500
72183W        W31477  32.492  23.130  13.542
72184W        W31478  44.501  21.632  13.804
72185W        W31479  20.054  33.467  13.046
72186W        W31480   5.765   3.402  11.907
72187W        W31481   0.777  42.790   3.375
72188W        W31482   1.387  29.483  10.608
72189W        W31483  22.540   6.689   2.194
72190W        W31484   5.930  29.159   3.640
72191W        W31485  36.478  19.103   3.868
72192W        W31486  18.177   3.889  10.447
72193W        W31487   1.884  43.889  10.020
72194W        W31488  40.935  26.527   4.765
72195W        W31489  17.776  22.667  12.340
72196W        W31490  31.488  29.925   3.220
72197W        W31491  33.529  17.644   4.210
72198W        W31492  37.067  38.533   1.224
72199W        W31493   0.897  30.537  14.432
72200W        W31494  10.298  38.840   2.224
72201W        W31495  18.225   2.312   3.700
72202W        W31496  30.594   5.369  14.980
72203W        W31497  37.563  26.540   1.768
72204W        W31498  17.176  42.391   4.343
72205W        W31499  41.830  25.111   1.229
72206W        W31500  13.618   7.763   4.273
72207W        W31501  39.865  32.135   3.646
72208W        W31502  42.324  14.183  10.502
72209W        W31503  22.070  38.415   4.812
72210W        W31504  35.019  44.299   5.180
72211W        W31505  16.755  25.972   1.736
72212W        W31506  34.562  33.916   9.545
72213W        W31507   2.846  19.618  12.425
72214W        W31508  28.490  20.619  11.433
72215W        W31509  42.360   4.427  14.783
72216W        W31510  38.424  17.261   1.811
72217W        W31511  27.112  28.096   3.335
72218W        W31512   6.316  41.807   1.358
72219W        W31513  11.641  14.271  11.127
72220W        W31514  18.563  32.903   0.808
72221W        W31515  33.019  44.878   0.927
72222W        W31516  37.951  38.513   0.439
72223W        W31517  37.028  27.956  10.583
72224W        W31518  36.096  11.197   1.347
72225W        W31519   2.455   0.765  13.798
72226W        W31520  40.881  35.578  12.069
72227W        W31521  42.994  11.238   2.671
72228W        W31522  41.444  25.098   4.703
72229W        W31523  23.074   4.357  12.380
72230W        W31524   4.252  13.335   4.152
72231W        W31525  44.423  20.116  12.891
72232W        W31526  27.455   3.284   3.649
72233W        W31527  25.531  21.714  14.817
72234W        W31528  27.064  44.996   2.389
72235W        W31529  13.797  40.420   3.369
72236W        W31530  12.788  28.498   4.157
72237W        W31531   4.821  18.091   1.763
72238W        W31532   5.338  31.471   2.691
72239W        W31533  24.977  11.342  13.060
72240W        W31534  25.160  22.646   0.945
72241W        W31535  23.636   2.881   0.473
72242W        W31536  41.901  15.791  12.531
72243W        W31537  11.698  31.562  13.833
72244W        W31538  25.603  10.159  13.318
72245W        W31539   2.939  17.715   4.625
72246W        W31540  33.047  44.899   4.671
72247W        W31541   8.194  25.182  13.990
72248W        W31542   0.899  35.904   5.265
72249W        W31543  27.115   4.282  14.027
72250W        W31544  13.609  44.277   1.893
72251W        W31545  31.610  25.570  10.535
72252W        W31546  36.991   2.796  14.811
72253W        W31547  13.150  44.273   2.698
72254W        W31548   4.909  39.860   1.896
72255W        W31549  15.752  16.806  14.981
72256W        W31550  39.824  18.284   3.841
72257W        W31551   3.770   0.344  10.996
72258W        W31552  23.039  17.222  12.999
72259W        W31553  10.323  19.150   2.230
72260W        W31554  10.817  13.831   2.851
72261W        W31555   6.298  42.380  12.061
72262W        W31556  41.296  35.361   3.355
72263W        W31557  27.486  25.474  13.479
72264W        W31558  12.269  10.754  11.503
72265W        W31559  36.582  12.186   0.871
72266W        W31560   3.375  21.184   2.703
72267W        W31561  43.869  28.506   0.365
72268W        W31562  36.887  38.506   4.126
72269W        W31563  14.108   1.939   2.857
72270W        W31564  28.111  11.780   4.645
72271W        W31565  35.971  34.515   4.198
72272W        W31566  10.302   4.408   1.842
72273W        W31567   8.880  22.221  14.869
72274W        W31568  39.496  39.490  14.362
72275W        W31569  27.196   3.276  14.421
72276W        W31570  17.730  28.543  13.547
72277W        W31571   0.833   3.877   3.658
72278W        W31572  11.283  44.343  13.395
72279W        W31573  21.544   5.755  12.467
72280W        W31574  19.587   9.166   4.764
72281W        W31575   2.825  27.491   0.919
72282W        W31576  28.653  44.984   1.717
72283W        W31577  44.863  43.851  13.411
72284W        W31578  10.217  33.889   4.202
72285W        W31579  44.886  44.823  10.919
72286W        W31580  17.204  35.468  11.861
72287W        W31581  36.569  11.162   3.161
72288W        W31582  17.779  30.950  14.479
72289W        W31583  37.550  15.742   5.227
72290W        W31584  39.898  43.466  11.433
72291W        W31585  18.056   1.371   2.693
72292W        W31586  34.437  25.694  11.527
72293W        W31587  10.716  15.659   4.734
72294W        W31588  10.310  12.761   3.288
72295W        W31589  19.077  21.149   2.753
72296W        W31590  13.163  16.580  10.530
72297W        W31591  17.774  29.077   0.756
72298W        W31592  33.056  18.767  13.419
72299W        W31593  19.125  35.000   3.288
72300W        W31594   0.425   7.302   3.674
72301W        W31595  36.889  22.027   3.321
72302W        W31596  23.553  34.070  13.808
72303W        W31597  23.637  19.614  11.120
72304W        W31598  11.669   7.269  12.965
72305W        W31599  39.902  23.236   1.448
72306W        W31600  37.444  36.928   2.853
72307W        W31601  44.377   8.724   9.991
72308W        W31602   8.871  12.615  13.807
72309W        W31603   5.898  44.347   4.209
72310W        W31604  40.354   6.749  11.462
72311W        W31605  43.923  33.999   3.736
72312W        W31606  29.132   2.233   4.652
72313W        W31607  12.127  26.079  11.518
72314W        W31608  32.525  33.091   1.258
72315W        W31609  21.530  21.705  14.506
72316W        W31610  32.033  10.850  11.097
72317W        W31611  13.319  44.315  11.997
72318W        W31612  31.089  28.029  14.473
72319W        W31613  41.950  10.675  13.980
72320W        W31614  15.820  37.005  10.566
72321W        W31615  20.704  16.189  10.578
72322W        W31616  29.114  20.681   1.330
72323W        W31617  33.499  27.146  13.480
72324W        W31618  24.006  31.926   4.312
72325W        W31619   6.819  28.610  13.345
72326W        W31620   2.287  43.015   4.825
72327W        W31621  37.077  28.675   3.789
72328W        W31622  36.484  18.710   0.809
72329W        W31623  17.735  12.642  13.950
72330W        W31624  20.633   7.228  14.770
72331W        W31625  35.494  17.244  14.276
72332W        W31626  18.272  38.457   1.820
72333W        W31627  14.726   8.866   2.249
72334W        W31628  21.666   2.337  12.465
72335W        W31629  30.956  28.575  11.391
72336W        W31630   2.308  37.936  12.565
72337W        W31631  30.155   6.737   2.403
72338W        W31632  33.107  17.784   3.659
72339W        W31633   7.757  44.348   5.149
72340W        W31634  19.175  37.002  13.483
72341W        W31635   2.812  14.640   0.256
72342W        W31636  19.078  42.470  11.417
72343W        W31637  26.464  21.080   5.122
72344W        W31638   4.730  15.135   0.905
72345W        W31639   7.780   6.860   1.735
72346W        W31640  32.519  16.235  10.920
72347W        W31641   0.824   6.862   4.678
72348W        W31642  37.861  16.791  10.896
72349W        W31643   5.931   7.297  14.412
72350W        W31644  33.476  11.763   9.940
72351W        W31645  10.875  13.619  12.941
72352W        W31646   6.864  33.570  13.829
72353W        W31647   6.329  40.505   0.252
72354W        W31648  37.869  29.611  14.845
72355W        W31649  41.422  26.042   0.429
72356W        W31650   1.266   8.796   0.430
72357W        W31651  23.573  24.112  14.310
72358W        W31652   8.836   5.723   1.372
72359W        W31653  17.681   2.748  13.342
72360W        W31654   2.892  39.884   3.185
72361W        W31655  27.665  16.263  11.433
72362W        W31656  15.185  28.181  13.430
72363W        W31657  35.493  23.045   2.295
72364W        W31658  41.848  43.909   0.460
72365W        W31659  41.503  22.121   0.427
72366W        W31660  35.042   4.832  14.974
72367W        W31661   0.762  26.068   2.813
72368W        W31662   2.241  44.956   1.429
72369W        W31663  31.039  38.548   4.220
72370W        W31664  38.035   6.307  10.117
72371W        W31665   5.696  21.232   0.402
72372W        W31666  39.045  40.545   3.748
72373W        W31667  37.981  20.767  11.065
72374W        W31668  17.276  15.744   2.399
72375W        W31669  26.983  15.136  10.634
72376W        W31670  38.476   0.374  12.020
72377W        W31671  12.295  28.168   0.416
72378W        W31672   1.822   7.322  12.516
72379W        W31673  16.128   8.682   0.328
72380W        W31674   3.916   4.753  14.319
72381W        W31675  35.478  42.335  11.991
72382W        W31676   1.473  19.697   5.138
72383W        W31677  20.621  37.895  14.351
72384W        W31678  11.655  41.945   0.452
72385W        W31679   1.386  11.369  10.632
72386W        W31680  40.949  42.429   2.372
72387W        W31681  26.148   3.269  13.832
72388W        W31682  11.735  41.452  14.349
72389W        W31683   2.271  27.059   2.850
72390W        W31684  30.581  12.846  13.524
72391W        W31685  15.824  13.614   9.994
72392W        W31686  16.631  37.530   2.895
72393W        W31687  31.940  10.762   1.876
72394W        W31688  40.874   4.913   4.123
72395W        W31689  40.481  16.305  14.842
72396W        W31690  44.952  16.782  10.455
72397W        W31691  17.249  38.342  11.590
72398W        W31692   7.731   5.424   3.285
72399W        W31693  26.953  16.155  12.937
72400W        W31694  13.808  39.928  10.976
72401W        W31695  22.222  18.180  10.422
72402W        W31696  41.518   4.832   3.816
72403W        W31697  26.600   8.213   2.687
72404W        W31698  43.487  29.549   3.807
72405W        W31699   3.345  33.942   3.234
72406W        W31700  14.159  37.950  12.060
72407W        W31701  25.685  31.473  11.604
72408W        W31702  33.500  22.559   3.782
72409W        W31703  18.600  40.805  13.430
72410W        W31704  44.467  19.224  12.848
72411W        W31705  20.686  37.977  13.037
72412W        W31706  44.779  21.581  12.445
72413W        W31707  39.425   7.253  10.961
72414W        W31708  20.591   5.887   1.836
72415W        W31709  38.342  20.639  14.370
72416W        W31710  12.130  22.557   0.797
72417W        W31711  24.543   8.658  14.982
72418W        W31712  37.424  19.746  13.438
72419W        W31713  35.946  29.618   0.835
72420W        W31714   1.875  32.513  13.909
72421W        W31715   0.977  32.393   4.341
72422W        W31716  22.117  35.885   4.749
72423W        W31717  18.185  14.096  14.842
72424W        W31718  32.087  28.119   1.444
72425W        W31719  43.386  36.988   3.748
72426W        W31720  16.672  37.033   2.392
72427W        W31721  13.788  25.074   3.290
72428W        W31722  31.600  24.525   3.786
72429W        W31723   0.758  27.033   1.929
72430W        W31724   8.287  43.799   1.854
72431W        W31725  23.235  12.778   2.372
72432W        W31726  30.470  44.880   3.231
72433W        W31727  22.648  22.694   0.835
72434W        W31728   9.659   4.896   2.854
72435W        W31729  16.740  23.669   4.190
72436W        W31730  17.159   8.707  14.972
72437W        W31731  17.639  29.128   3.146
72438W        W31732   3.720  42.464   4.725
72439W        W31733   4.936  44.342   0.290
72440W        W31734  28.472   6.733   4.246
72441W        W31735  41.519  28.531   0.290
72442W        W31736  32.076  17.090  14.460
72443W        W31737  24.015   3.944  10.458
72444W        W31738  21.582  35.394   2.725
72445W        W31739  33.532  30.100  13.869
72446W        W31740  16.611  35.444  10.529
72447W        W31741  40.823  10.761   3.739
72448W        W31742  13.653   9.314  10.958
72449W        W31743   5.870  44.484   4.759
72450W        W31744  33.087  41.965  14.966
72451W        W31745  21.018   6.304  11.953
72452W        W31746  11.853  14.660   4.822
72453W        W31747  13.334   9.666   4.685
72454W        W31748  29.078  40.871  12.071
72455W        W31749  16.150  39.830   1.278
72456W        W31750   1.421  26.142   0.905
72457W        W31751  18.200  23.597  11.946
72458W        W31752   0.972  37.495   4.158
72459W        W31753  23.081  23.520  10.622
72460W        W31754  11.757  32.921  10.634
72461W        W31755   7.297  35.870   2.716
72462W        W31756  44.323   3.811   4.691
72463W        W31757  21.186  29.424  11.123
72464W        W31758  35.444  24.140   1.395
72465W        W31759  22.080  20.749   1.792
72466W        W31760   0.372   6.807  13.502
72467W        W31761  11.699  15.303   2.706
72468W        W31762  22.594   4.718  13.027
72469W        W31763  13.713  38.925  12.910
72470W        W31764  21.213  16.280   0.434
72471W        W31765  34.436  33.587   3.266
72472W        W31766  13.826   0.321  12.542
72473W        W31767  25.211  34.442   4.304
72474W        W31768  43.379  33.391   4.746
72475W        W31769  10.293  42.943   4.157
72476W        W31770   8.327  15.622  12.032
72477W        W31771  25.004  30.437   2.779
72478W        W31772  33.436  31.547  10.429
72479W        W31773   1.414  28.485   2.206
72480W        W31774   3.782  23.239   3.227
72481W        W31775  10.656  38.011   4.277
72482W        W31776  20.060  26.549  10.426
72483W        W31777  15.799   0.959  12.902
72484W        W31778  31.961  17.152  13.341
72485W        W31779   8.315  14.781   4.764
72486W        W31780  44.860   7.811  13.361
72487W        W31781   4.897  26.644   1.341
72488W        W31782  35.384  16.230  14.322
72489W        W31783  42.804  32.569   4.832
72490W        W31784  15.751   4.723   2.337
72491W        W31785  44.359  26.038  11.056
72492W        W31786  17.615   0.809  13.046
72493W        W31787   5.874  30.505  13.988
72494W        W31788  30.069  29.562   3.205
72495W        W31789  26.505  29.471  11.406
72496W        W31790  23.005  22.666   0.881
72497W        W31791  42.421   6.247   0.244
72498W        W31792  24.116  38.873  13.487
72499W        W31793  28.629  33.552   4.711
72500W        W31794  18.266   8.699   4.265
72501W        W31795  35.887  27.451   3.744
72502W        W31796  29.043  28.082   3.682
72503W        W31797  40.989  30.062  13.809
72504W        W31798  14.317  36.892   1.232
72505W        W31799  23.016  11.797  10.615
72506W        W31800  19.780   2.432   4.125
72507W        W31801  26.625   5.771  12.376
72508W        W31802  19.204  25.623  14.493
72509W        W31803  19.284  43.398  14.010
72510W        W31804  33.454  44.958  11.948
72511W        W31805  28.669  28.009  14.830
72512W        W31806   2.357  10.305  11.903
72513W        W31807  27.485   0.910   4.733
72514W        W31808  11.685  33.971   5.144
72515W        W31809   3.753  38.858   4.661
72516W        W31810  29.047   1.328   4.274
72517W        W31811  17.798  23.194  11.444
72518W        W31812  10.139  27.585   3.188
72519W        W31813  27.986  15.328   1.704
72520W        W31814  13.678  32.428  10.417
72521W        W31815  31.135  35.998  14.909
72522W        W31816   7.763  29.544   0.802
72523W        W31817   2.765  20.267  14.909
72524W        W31818   1.746  27.038  12.543
72525W        W31819  22.115  34.564  12.377
72526W        W31820  19.708  37.931  14.299
72527W        W31821  20.662  28.599   0.448
72528W        W31822   5.773  24.104   0.937
72529W        W31823  25.483  33.970  14.858
72530W        W31824  38.975  16.632  11.081
72531W        W31825  20.158  18.756  13.469
72532W        W31826  17.587  31.994   4.214
72533W        W31827  19.062  27.129  13.815
72534W        W31828  37.532   0.893   0.747
72535W        W31829  33.416   8.249   3.235
72536W        W31830  10.841  40.022   4.211
72537W        W31831  23.024  15.328   4.837
72538W        W31832   4.739  32.412   4.170
72539W        W31833  14.176  34.542   1.789
72540W        W31834   8.253  20.082   1.775
72541W        W31835  32.598  32.949  13.803
72542W        W31836   7.866  41.528   2.689
72543W        W31837  13.818   3.438   3.786
72544W        W31838   5.313  28.597  12.025
72545W        W31839  29.027  37.044  12.988
72546W        W31840   6.854  28.526  14.824
72547W        W31841   3.764  13.202   2.774
72548W        W31842  33.434  29.644  14.454
72549W        W31843   5.932  11.156   0.329
72550W        W31844  41.014  34.025   2.698
72551W        W31845   6.260  12.685   2.288
72552W        W31846  35.481   6.894   9.442
72553W        W31847  12.827  32.123   2.239
72554W        W31848  29.083  36.436   3.306
72555W        W31849  38.469  40.799   0.779
72556W        W31850  44.892  34.039  12.527
72557W        W31851  23.069  39.509  14.479
72558W        W31852   2.896  11.164   1.861
72559W        W31853   2.797   8.196   2.812
72560W        W31854  15.209  24.627  10.407
72561W        W31855  35.536  25.114  11.481
72562W        W31856  38.424  25.490  10.480
72563W        W31857  20.138  23.682   1.382
72564W        W31858  25.639  19.056  13.947
72565W        W31859  20.047  15.239  11.471
72566W        W31860  33.576  38.020  10.641
72567W        W31861  26.517  18.182   2.230
72568W        W31862  15.788  22.189   1.439
72569W        W31863  28.181  42.506   2.814
72570W        W31864  17.566  16.688   4.113
72571W        W31865   2.868  17.559  13.000
72572W        W31866   8.683  42.006  11.464
72573W        W31867   0.883  34.392   0.252
72574W        W31868  26.549  20.092  14.353
72575W        W31869  36.459  34.931  14.805
72576W        W31870  44.896  43.274  14.333
72577W        W31871  27.026  43.802   1.882
72578W        W31872  27.493   3.294   1.296
72579W        W31873   1.283  40.016  10.930
72580W        W31874  14.633  40.493   4.676
72581W        W31875  14.599   8.837   3.785
72582W        W31876   2.273  29.486   2.336
72583W        W31877  23.605  18.216  10.527
72584W        W31878  29.991  29.578  13.374
72585W        W31879  37.516  28.084  11.900
72586W        W31880  29.587  39.436  12.911
72587W        W31881   7.853  31.620  13.450
72588W        W31882  19.061   5.272   1.792
72589W        W31883  10.781   3.780   1.708
72590W        W31884  43.462  37.352  13.041
72591W        W31885   1.403   8.257   2.855
72592W        W31886  24.200  38.356  12.528
72593W        W31887  39.062  25.201   3.154
72594W        W31888  38.990  16.573  11.986
72595W        W31889  32.484   2.317   2.260
72596W        W31890   9.718  26.655   0.460
72597W        W31891  20.734  43.924  12.964
72598W        W31892  21.084   6.295   0.902
72599W        W31893  33.618  10.795   2.778
72600W        W31894  27.595  27.106  12.499
72601W        W31895   2.297  10.297   4.650
72602W        W31896  37.018   6.413  13.510
72603W        W31897   1.375   6.792  10.929
72604W        W31898  35.420  25.080   1.924
72605W        W31899  19.102  19.633   5.614
72606W        W31900   3.796  36.845  14.871
72607W        W31901  23.565  44.898   1.736
72608W        W31902  20.193   9.307  14.829
72609W        W31903   1.802  10.817   2.224
72610W        W31904  35.435  17.087   4.597
72611W        W31905  35.064   2.860  12.493
72612W        W31906  24.054  38.005   3.177
72613W        W31907  30.475  40.405   2.402
72614W        W31908  32.036  28.440  13.913
72615W        W31909  35.922  38.844   4.805
72616W        W31910  23.646  35.530   2.353
72617W        W31911   7.224  18.624   2.245
72618W        W31912  21.543  44.993   1.709
72619W        W31913   0.292  41.893   0.749
72620W        W31914  25.195  34.436  13.791
72621W        W31915  19.676   0.743   3.168
72622W        W31916  23.044   4.399  11.026
72623W        W31917  38.414  41.908   2.207
72624W        W31918  41.372  24.693   1.742
72625W        W31919  29.119  27.016  12.025
72626W        W31920  11.649  44.312  10.641
72627W        W31921  40.998  35.401  14.915
72628W        W31922  15.084  15.798  12.443
72629W        W31923  10.675  37.423   0.323
72630W        W31924  19.751  18.629   4.334
72631W        W31925   7.296   3.421   4.143
72632W        W31926  24.634  15.712   0.944
72633W        W31927  23.517  41.816   0.383
72634W        W31928  11.701  16.264  12.003
72635W        W31929  43.308   2.414   2.364
72636W        W31930   2.960  24.176  10.434
72637W        W31931  39.370  37.867   0.327
72638W        W31932  34.887  25.108   1.266
72639W        W31933   0.301  29.053  11.096
72640W        W31934  10.667   4.400  12.902
72641W        W31935  20.553   5.369  11.482
72642W        W31936  44.863  18.125  13.499
72643W        W31937   4.913  41.879   2.356
72644W        W31938  28.986   4.739   0.766
72645W        W31939  36.404  37.451   2.698
72646W        W31940  29.029  23.608   1.405
72647W        W31941  44.002  39.844   4.750
72648W        W31942  32.463  38.035  14.427
72649W        W31943   4.942  12.796  14.830
72650W        W31944  14.214  12.643   0.425
72651W        W31945   2.399  10.662   3.343
72652W        W31946  19.052  32.570   2.678
72653W        W31947  38.434  20.100  14.455
72654W        W31948  27.138  14.689   0.837
72655W        W31949  19.778  36.360  12.923
72656W        W31950  14.721  30.489  14.902
72657W        W31951   4.935  14.154  13.839
72658W        W31952  39.830   6.807   2.279
72659W        W31953  35.104  13.667   3.373
72660W        W31954  40.421  27.641   0.934
72661W        W31955  32.546  13.185  13.374
72662W        W31956   3.328  30.574  10.037
72663W        W31957  28.662  34.960  11.864
72664W        W31958  10.770  42.869  14.423
72665W        W31959  12.166  28.068   4.687
72666W        W31960  41.044  33.428  11.013
72667W        W31961  10.314  19.213   1.213
72668W        W31962  35.906  23.603  10.631
72669W        W31963   6.690  25.092   2.243
72670W        W31964  37.960  17.108  12.916
72671W        W31965  43.514  26.701  11.870
72672W        W31966   6.312  21.738  12.951
72673W        W31967   8.660  18.728  14.972
72674W        W31968  31.628  21.707  11.057
72675W        W31969  15.756  41.986   3.378
72676W        W31970   8.245   1.409   1.342
72677W        W31971   3.389  27.158  14.836
72678W        W31972  40.406  30.414   3.811
72679W        W31973  12.147   2.752   1.909
72680W        W31974  14.159  23.230   4.600
72681W        W31975  38.020  37.848  12.537
72682W        W31976  26.061  16.587  10.643
72683W        W31977  37.484  32.051  13.878
72684W        W31978  44.917  15.817   4.207
72685W        W31979  19.076  24.550   4.165
72686W        W31980  12.117   0.274   1.236
72687W        W31981   8.243   3.290   0.297
72688W        W31982   6.287  10.804   2.401
72689W        W31983  43.857  15.274  14.469
72690W        W31984  32.568   0.314   2.784
72691W        W31985  42.885  44.823   2.335
72692W        W31986  43.804  16.599  11.004
72693W        W31987  17.305  28.958  11.577
72694W        W31988  36.900  26.114  10.457
72695W        W31989  25.583  23.646   4.180
72696W        W31990  25.044  38.067  14.382
72697W        W31991   7.788  33.455   0.438
72698W        W31992  16.282   4.247   3.183
72699W        W31993  26.619  11.367   3.171
72700W        W31994  30.441  39.369   0.892
72701W        W31995  25.600  22.221   4.751
72702W        W31996   0.362  17.786   0.815
72703W        W31997  27.042  28.023   2.234
72704W        W31998   2.264   1.383   2.190
72705W        W31999  39.978   7.404  10.515
72706W        W32000  12.659  10.676   4.692
72707W        W32001  23.595  29.010  12.872
72708W        W32002  38.821  23.191   1.694
72709W        W32003   9.732   0.761  12.898
72710W        W32004  26.601  40.449   5.133
72711W        W32005   0.382   8.897   2.271
72712W        W32006   2.869  28.173   4.145
72713W        W32007   9.305  18.649   3.642
72714W        W32008  12.684  25.012   1.768
72715W        W32009  11.853  43.829  14.010
72716W        W32010   8.737   2.279   1.925
72717W        W32011  38.434   1.764  12.909
72718W        W32012  17.709  19.604   0.287
72719W        W32013   9.265  21.603   4.645
72720W        W32014  16.112  39.014   0.392
72721W        W32015  16.586  41.519  11.119
72722W        W32016  19.239  16.618  11.503
72723W        W32017   2.440  19.743   0.835
72724W        W32018  10.368  29.528   0.948
72725W        W32019  31.056  28.499   1.394
72726W        W32020  15.584  25.704  13.813
72727W        W32021  29.652  26.971  10.595
72728W        W32022  29.601   4.433   1.914
72729W        W32023  22.664  10.817   0.953
72730W        W32024  11.174  27.949  10.504
72731W        W32025  26.002  17.786   3.752
72732W        W32026   5.336  13.804   4.672
72733W        W32027   2.439  27.168  13.395
72734W        W32028   1.949   5.404  12.054
72735W        W32029   0.851  37.566   0.340
72736W        W32030  42.018  29.544  13.409
72737W        W32031  22.641  34.579   3.805
72738W        W32032   8.164  30.999  12.414
72739W        W32033   9.327  25.019  13.839
72740W        W32034  21.558  24.561  12.967
72741W        W32035  14.714   0.876   4.725
72742W        W32036  40.926  38.404   1.289
72743W        W32037  43.775  39.487   3.192
72744W        W32038   3.374   9.360  10.434
72745W        W32039   1.387  15.816   3.214
72746W        W32040  40.825  11.266  13.510
72747W        W32041  35.584   8.883   1.857
72748W        W32042  20.654  11.183  11.379
72749W        W32043  22.998  30.164  13.954
72750W        W32044  41.420  23.140   2.314
72751W        W32045   8.274  12.814  14.888
72752W        W32046  41.901   7.234  13.407
72753W        W32047  24.538   4.939  10.507
72754W        W32048   4.757  34.434   3.719
72755W        W32049   7.676  44.314  13.331
72756W        W32050  36.985  42.848  12.531
72757W        W32051  12.676  29.077   2.391
72758W        W32052  27.081  21.738  13.876
72759W        W32053  12.851  13.305   0.423
72760W        W32054   6.253   6.301   2.247
72761W        W32055  44.797   7.868   4.753
72762W        W32056  11.334   4.843   4.139
72763W        W32057   2.826  23.695  10.448
72764W        W32058  20.142  24.048   2.804
72765W        W32059  30.581   8.361  10.953
72766W        W32060   7.400  31.100  11.871
72767W        W32061  29.554  38.955   1.810
72768W        W32062   8.686  14.234  13.482
72769W        W32063  27.661  16.163  13.328
72770W        W32064   6.324   0.759   1.440
72771W        W32065  27.048  12.151   3.781
72772W        W32066  13.297   8.195   4.823
72773W        W32067  16.690  32.535  10.472
72774W        W32068  15.719   2.778  12.523
72775W        W32069  11.179  27.088   4.276
72776W        W32070  27.690  33.483   2.840
72777W        W32071  16.313  22.009  10.599
72778W        W32072   2.748  12.833   3.268
72779W        W32073   0.376   5.397   4.213
72780W        W32074  21.140  12.706  11.581
72781W        W32075  14.621  20.068  12.495
72782W        W32076  35.909  34.476   5.263
72783W        W32077   7.765  11.783   1.849
72784W        W32078  11.716  20.239   1.864
72785W        W32079  26.632   0.981  13.856
72786W        W32080  16.705  19.688   4.711
72787W        W32081  32.935  17.664   0.745
72788W        W32082  12.624  10.189  13.859
72789W        W32083  44.764  19.105  12.836
72790W        W32084  25.126  20.272  13.791
72791W        W32085  42.453  24.498   3.746
72792W        W32086  18.194  14.768   1.878
72793W        W32087  11.237  40.393   0.299
72794W        W32088  34.614  33.622  13.910
72795W        W32089  40.405  33.478   1.440
72796W        W32090  41.839  21.651   4.285
72797W        W32091  39.537  42.789   2.755
72798W        W32092  38.893  17.628   1.930
72799W        W32093  24.580  24.124  12.882
72800W        W32094  11.358  25.694  13.392
72801W        W32095  44.792  36.919   1.804
72802W        W32096   9.768  24.488   1.429
72803W        W32097  43.410  23.191   4.622
72804W        W32098  24.105  24.712   4.802
72805W        W32099  23.506  21.528   3.840
72806W        W32100  20.703  29.964  13.319
72807W        W32101  14.139  15.093   3.702
72808W        W32102  21.681   9.346   9.924
72809W        W32103   0.803  40.522   0.908
72810W        W32104   6.326  44.965  14.447
72811W        W32105  20.210  28.520  12.376
72812W        W32106  19.116  18.640   2.381
72813W        W32107   8.307  25.000   0.248
72814W        W32108   3.241  35.893   1.407
72815W        W32109   5.368  29.168  12.974
72816W        W32110   3.305  13.790  13.874
72817W        W32111  24.153  38.920  14.463
72818W        W32112  22.656  26.603   5.289
72819W        W32113  11.291  35.896   2.357
72820W        W32114  13.159   9.717   2.833
72821W        W32115  10.188  21.114   5.199
72822W        W32116  43.995  13.792  14.002
72823W        W32117  29.922  35.479  13.445
72824W        W32118  40.050  28.026   0.867
72825W        W32119  32.975  19.763   1.786
72826W        W32120  20.150  42.846  10.616
72827W        W32121  13.706  29.144  11.921
72828W        W32122  15.754   2.727  14.787
72829W        W32123  32.505   3.340  10.414
72830W        W32124  15.330  42.024   1.763
72831W        W32125  39.050   2.456  11.102
72832W        W32126  22.167  40.409   4.346
72833W        W32127  36.901  32.578  12.896
72834W        W32128  28.075   2.779   1.710
72835W        W32129  39.844  10.709   3.779
72836W        W32130  29.155  36.076   4.307
72837W        W32131  38.910  38.438  12.418
72838W        W32132  21.115   9.792   0.484
72839W        W32133   3.325  15.150   0.753
72840W        W32134  14.731  30.530   2.877
72841W        W32135  42.328  27.960   0.275
72842W        W32136  17.142  10.821  11.017
72843W        W32137  33.431  37.543  11.105
72844W        W32138   3.948  17.662   2.412
72845W        W32139  42.809  18.757  12.969
72846W        W32140  22.202  38.397   2.856
72847W        W32141   6.862  33.422  13.357
72848W        W32142  24.124  13.324   2.783
72849W        W32143  34.514  39.354   4.637
72850W        W32144   1.398  11.148   2.262
72851W        W32145  37.846  34.538  11.010
72852W        W32146  42.918  23.714  13.847
72853W        W32147  22.178  33.618  14.375
72854W        W32148  43.962  32.058  13.452
72855W        W32149  28.130  16.791   4.169
72856W        W32150  21.741  18.276   0.765
72857W        W32151  23.240  44.321  11.551
72858W        W32152  27.623   6.252  14.982
72859W        W32153  10.279  27.630  14.915
72860W        W32154  28.050   3.346   5.131
72861W        W32155  23.075  42.489   3.291
72862W        W32156  28.180   4.240   2.695
72863W        W32157  10.378  35.872  13.873
72864W        W32158  24.686   5.290   5.768
72865W        W32159   6.872  17.668   1.380
72866W        W32160  20.038   0.376  11.395
72867W        W32161  41.018  21.653  14.381
72868W        W32162  19.582   6.803  13.351
72869W        W32163  27.058  37.022  13.987
72870W        W32164  20.080   9.224   4.166
72871W        W32165  23.225  44.283   3.242
72872W        W32166  29.588   3.896  13.376
72873W        W32167  35.020  29.669   3.334
72874W        W32168  30.066  40.507   5.247
72875W        W32169  37.423  29.014  13.986
72876W        W32170  43.009  35.956   2.801
72877W        W32171   6.395  13.767   2.688
72878W        W32172  28.673  38.329   1.902
72879W        W32173  28.669  30.084   3.852
72880W        W32174   8.841  40.371  10.927
72881W        W32175  37.992  18.757  13.438
72882W        W32176  27.966   4.223  10.436
72883W        W32177  11.182  23.527  11.074
72884W        W32178  30.946  36.392  14.940
72885W        W32179   1.862  16.141   3.171
72886W        W32180  41.459   3.275   3.162
72887W        W32181  26.148  23.022   4.693
72888W        W32182   6.379   3.426  12.356
72889W        W32183   9.883   3.392  12.988
72890W        W32184  27.513  43.799  14.372
72891W        W32185  44.910  32.501  12.031
72892W        W32186  31.900  44.859  12.919
72893W        W32187   0.322  44.961   2.888
72894W        W32188   9.840  23.132   9.466
72895W        W32189  31.569  27.143   0.299
72896W        W32190  11.328  44.778  12.880
72897W        W32191  37.493  10.841  12.057
72898W        W32192  24.654  38.886   1.324
72899W        W32193  23.530  33.615  11.975
72900W        W32194  30.163  41.504  11.417
72901W        W32195  31.055   5.375  12.531
72902W        W32196   3.950  35.463   3.706
72903W        W32197   2.868  41.342  10.916
72904W        W32198  36.851  42.794   4.260
72905W        W32199  38.966  33.031   0.824
72906W        W32200  37.524  11.679   1.442
72907W        W32201  39.534  19.136   0.753
72908W        W32202   5.782  28.600   3.176
72909W        W32203  32.961  24.064   2.334
72910W        W32204   4.390  11.344   1.421
72911W        W32205  38.004  40.507  11.959
72912W        W32206  14.801  11.287   2.797
72913W        W32207  10.158   3.912  11.128
72914W        W32208  14.128  12.747  14.390
72915W        W32209  36.097  20.080  10.983
72916W        W32210  37.359   9.173  13.498
72917W        W32211  35.461  43.770  10.609
72918W        W32212  31.600  17.213   3.150
72919W        W32213  34.027  31.964  13.998
72920W        W32214  35.359  11.279   4.773
72921W        W32215  35.008  19.208  12.833
72922W        W32216  24.620  41.302  12.939
72923W        W32217  20.271  39.048   4.287
72924W        W32218  19.657  43.943   0.901
72925W        W32219  10.635  34.528  14.494
72926W        W32220  39.913  25.629   1.253
72927W        W32221  43.416  11.285  11.115
72928W        W32222  14.805  41.019   2.412
72929W        W32223  37.558  28.434   4.241
72930W        W32224  10.323   2.465   1.353
72931W        W32225  30.921  22.189   2.265
72932W        W32226  33.485   7.773  10.606
72933W        W32227  24.184  29.647  13.990
72934W        W32228  10.275   5.334  13.454
72935W        W32229   4.786  29.613   4.307
72936W        W32230  19.555  34.973   5.125
72937W        W32231   1.884  32.476  14.454
72938W        W32232  15.188  28.578  11.543
72939W        W32233  24.481  43.480  14.777
72940W        W32234  17.661  36.516  14.352
72941W        W32235   9.695  15.581  10.631
72942W        W32236  40.887  35.984   4.758
72943W        W32237  44.444  43.426  13.825
72944W        W32238  26.673   5.244   2.767
72945W        W32239   4.289  31.603  12.961
72946W        W32240  22.620  15.123  12.575
72947W        W32241  42.307  32.916   0.849
72948W        W32242  19.217   3.361  13.905
72949W        W32243  31.126  12.219  12.345
72950W        W32244   1.291   2.279  13.861
72951W        W32245  39.022  27.627   1.347
72952W        W32246  13.662  20.186  12.038
72953W        W32247  40.008  20.651   4.139
72954W        W32248  12.132   9.866   2.835
72955W        W32249  14.123  33.577   0.381
72956W        W32250  17.692  13.663  13.972
72957W        W32251  24.481  32.096   3.677
72958W        W32252   2.753  20.732   5.233
72959W        W32253  12.653   7.722   0.311
72960W        W32254   3.772  39.501  14.484
72961W        W32255  35.592  36.383   1.857
72962W        W32256  22.687  36.452   4.329
72963W        W32257  36.429  26.695   1.267
72964W        W32258   0.348  26.459  13.516
72965W        W32259  35.855  40.544   1.325
72966W        W32260   7.172  22.210  14.328
72967W        W32261  21.144   3.310  13.906
72968W        W32262   2.419  30.103  12.410
72969W        W32263   4.932  28.023  12.529
72970W        W32264  37.349   1.294   2.333
72971W        W32265   5.720  12.659   0.876
72972W        W32266  26.548  14.289   4.730
72973W        W32267   2.462  18.748  13.537
72974W        W32268  24.724  27.154  14.979
72975W        W32269   8.851  34.542  12.531
72976W        W32270   2.337  43.274  11.089
72977W        W32271  10.761  44.927   2.863
72978W        W32272  43.849  25.711  13.903
72979W        W32273   1.856  18.662   1.337
72980W        W32274  15.676  14.263  12.394
72981W        W32275   9.680  30.603   1.817
72982W        W32276   1.760  27.575  12.546
72983W        W32277  13.222  35.415  12.858
72984W        W32278  35.415  44.839  12.088
72985W        W32279  39.874   0.370  11.528
72986W        W32280  39.976  18.661  12.897
72987W        W32281  29.041  40.318   4.216
72988W        W32282  15.818  24.125   4.738
72989W        W32283  43.811   4.755   4.689
72990W        W32284   7.780  41.386   3.309
72991W        W32285  38.837  11.795   2.305
72992W        W32286  21.517  24.095   2.386
72993W        W32287  14.260   5.708  14.974
72994W        W32288  34.029   4.291  14.389
72995W        W32289  21.123  44.421   1.704
72996W        W32290  19.695   2.862  11.442
72997W        W32291   3.743  14.315   0.854
72998W        W32292  22.646  24.537   1.240
72999W        W32293  21.546  21.654  11.457
73000W        W32294  19.642  32.036  11.025
73001W        W32295  13.149  37.353   4.321
73002W        W32296  26.703   1.978   3.367
73003W        W32297  42.310   7.739  10.410
73004W        W32298   3.767  10.175   0.925
73005W        W32299  18.191  14.166  13.024
73006W        W32300   2.784  43.477  13.460
73007W        W32301  24.011   8.260  10.914
73008W        W32302  22.614  23.038  14.915
73009W        W32303  21.048  30.069   0.749
73010W        W32304   8.301   6.903   0.332
73011W        W32305  33.998  35.855   1.852
73012W        W32306   6.834  42.030  12.547
73013W        W32307  31.578  13.111  10.556
73014W        W32308   4.426   1.436  10.418
73015W        W32309  43.434   4.767  13.935
73016W        W32310  34.042  36.918  11.113
73017W        W32311  32.426  16.092   4.185
73018W        W32312  25.002  28.038   4.332
73019W        W32313  31.562   5.870  10.919
73020W        W32314  20.205   3.415  14.833
73021W        W32315  15.789  17.292  11.003
73022W        W32316  21.100  24.194  14.291
73023W        W32317  16.746  13.112   1.915
73024W        W32318  16.711  23.154  11.393
73025W        W32319  12.245   3.875   2.661
73026W        W32320  44.948  17.703   2.330
73027W        W32321  36.481  39.482   0.851
73028W        W32322  36.584  14.191   0.802
73029W        W32323   3.831   8.854   1.261
73030W        W32324   2.886  41.008  13.359
73031W        W32325  40.426  18.086   0.800
73032W        W32326  32.590  21.144  12.436
73033W        W32327  22.652  17.696   0.347
73034W        W32328  19.660   0.325  11.603
73035W        W32329   2.754  30.464  12.004
73036W        W32330  39.446  18.757   3.852
73037W        W32331  24.021  24.053   5.143
73038W        W32332  25.651  31.959  14.031
73039W        W32333   3.827  18.702  13.973
73040W        W32334  30.507  28.485  13.897
73041W        W32335  14.711  28.497  13.043
73042W        W32336  29.115   8.745   4.663
73043W        W32337  14.268   4.760  13.850
73044W        W32338  36.865  13.181   1.358
73045W        W32339  44.974  41.460   4.622
73046W        W32340  13.832   0.775  13.013
73047W        W32341   7.779  18.183  12.357
73048W        W32342  17.120  39.921  13.899
73049W        W32343  16.145  34.946  14.277
73050W        W32344  32.018  19.228  11.031
73051W        W32345  27.508   4.206   4.687
73052W        W32346  38.564  43.386  13.910
73053W        W32347  44.398  26.097  13.481
73054W        W32348   0.841   7.684  14.387
73055W        W32349  22.552  27.088  11.971
73056W        W32350  36.587  17.272  13.469
73057W        W32351  37.538  36.931   0.911
73058W        W32352  29.436  42.397   2.205
73059W        W32353   9.754  10.769  12.063
73060W        W32354  44.422  21.591   4.608
73061W        W32355  28.461  29.107   1.833
73062W        W32356  28.556  38.917  14.359
73063W        W32357  39.467   4.885  12.388
73064W        W32358  25.075  21.704   4.183
73065W        W32359  32.994  39.360   2.185
73066W        W32360  19.208  10.719   1.302
73067W        W32361  22.718  29.579   3.837
73068W        W32362  33.421  16.312   1.751
73069W        W32363  41.788  40.957   2.257
73070W        W32364   0.837   4.703   5.261
73071W        W32365  39.852   7.736   1.331
73072W        W32366  24.982   3.461   3.237
73073W        W32367   6.192  42.981  12.955
73074W        W32368   9.320  19.194   3.193
73075W        W32369  36.542  22.032  14.807
73076W        W32370  10.242  30.982   1.424
73077W        W32371  43.419   3.242  10.911
73078W        W32372  35.024  25.530  13.919
73079W        W32373  32.963  12.705   2.405
73080W        W32374  35.509  10.291  10.131
73081W        W32375  38.343   6.834  14.027
73082W        W32376  17.068   6.231   2.407
73083W        W32377  18.646  40.437   4.300
73084W        W32378  24.711  36.470   3.758
73085W        W32379  16.656   6.349  13.520
73086W        W32380  13.133  36.846  12.979
73087W        W32381   4.404  20.122   5.762
73088W        W32382   8.850  27.077   3.300
73089W        W32383  34.016  20.581  11.916
73090W        W32384   3.229  40.822   2.284
73091W        W32385   1.328  25.185  13.530
73092W        W32386   7.764  41.874   4.790
73093W        W32387  26.469   4.700  11.554
73094W        W32388  41.922  34.458   1.223
73095W        W32389  13.803  21.074   3.289
73096W        W32390  42.004  19.133  14.415
73097W        W32391  43.312  37.560  11.858
73098W        W32392   5.194  34.429  13.465
73099W        W32393  12.192  39.529   2.347
73100W        W32394  24.057   2.388  12.995
73101W        W32395   9.276  23.662   1.277
73102W        W32396  36.079  34.078  14.393
73103W        W32397   0.433  41.527   3.747
73104W        W32398  29.484  29.013  14.482
73105W        W32399  35.604  14.155  12.883
73106W        W32400  21.232  15.149  12.458
73107W        W32401  29.629  32.391  11.020
73108W        W32402  29.041  17.083  12.985
73109W        W32403  11.303   5.391  14.785
73110W        W32404   1.959  21.579  14.400
73111W        W32405  27.163  13.671   2.396
73112W        W32406  24.184  41.407   1.298
73113W        W32407  40.451  20.153  14.843
73114W        W32408  18.159   2.756  12.555
73115W        W32409   2.278   6.244  12.964
73116W        W32410   5.331  29.523   4.121
73117W        W32411   7.715  40.052   3.692
73118W        W32412  25.091  26.026   1.711
73119W        W32413  36.048  41.966  10.974
73120W        W32414  18.547   1.414  12.349
73121W        W32415  17.147   0.764   4.290
73122W        W32416  20.733  35.105   0.857
73123W        W32417  24.502   5.892  12.371
73124W        W32418  38.386  14.792   0.821
73125W        W32419   3.316   5.373   2.678
73126W        W32420   4.402   9.299   4.781
73127W        W32421  37.362   8.851   0.407
73128W        W32422  40.953  36.080   1.325
73129W        W32423  15.091  43.363   1.925
73130W        W32424   0.774  22.642  13.324
73131W        W32425  42.002   0.361  14.985
73132W        W32426  12.765  25.609  12.943
73133W        W32427  24.521  15.132   3.212
73134W        W32428  33.548  34.939  12.380
73135W        W32429  13.312  41.992   1.744
73136W        W32430  11.807  34.075  13.006
73137W        W32431  28.635  33.079   1.781
73138W        W32432  35.900   1.787  14.952
73139W        W32433  10.331  32.462  13.916
73140W        W32434   0.888  20.205  13.823
73141W        W32435  10.307  10.633  12.444
73142W        W32436  11.623  23.213   0.344
73143W        W32437  31.085  32.589   1.913
73144W        W32438  43.821  29.610   0.869
73145W        W32439  18.788  14.670   2.857
73146W        W32440  10.716  37.434  13.039
73147W        W32441  35.012   0.863  11.055
73148W        W32442  42.366  31.517   3.863
73149W        W32443  20.155   8.234  14.500
73150W        W32444  11.233   6.807   2.662
73151W        W32445   0.812  17.784   2.405
73152W        W32446  27.941  26.029   2.179
73153W        W32447  40.850   9.222   4.624
73154W        W32448  13.785   7.268   3.709
73155W        W32449  40.438   2.825   3.858
73156W        W32450  44.404  14.273  10.117
73157W        W32451  29.936  37.994   4.746
73158W        W32452  12.655  40.011  12.044
73159W        W32453  20.736   4.273  12.917
73160W        W32454  43.347  39.509  11.528
73161W        W32455  30.915   7.704  10.988
73162W        W32456  18.177  44.961  11.392
73163W        W32457   2.385  21.118  12.976
73164W        W32458  42.011  43.968  13.509
73165W        W32459  10.370  11.274  11.035
73166W        W32460   9.338  40.022   0.750
73167W        W32461  43.424  17.167   4.175
73168W        W32462  36.870  14.634   2.794
73169W        W32463  12.705  31.598  12.094
73170W        W32464  28.469  13.258  12.867
73171W        W32465  10.650   5.319   4.731
73172W        W32466  34.898  23.023  13.925
73173W        W32467  18.114  13.139   3.667
73174W        W32468  37.049  23.990   3.305
73175W        W32469  32.029  31.613  10.523
73176W        W32470  38.519   9.714   1.828
73177W        W32471   7.671  25.053   2.780
73178W        W32472  44.419  15.782   1.237
73179W        W32473  15.774  14.155   0.819
73180W        W32474  39.523  36.080  14.788
73181W        W32475  20.154  45.000  13.838
73182W        W32476  29.646  38.848  12.527
73183W        W32477  42.428  26.161   1.905
73184W        W32478   9.197   7.217   3.815
73185W        W32479   9.647  23.714   2.693
73186W        W32480  15.782  16.166   0.854
73187W        W32481  31.985  16.078  14.881
73188W        W32482  25.060  25.144  12.414
73189W        W32483   5.922  28.023   2.321
73190W        W32484  36.873   3.855  12.926
73191W        W32485  31.498  19.180   3.295
73192W        W32486   1.271   9.833   4.753
73193W        W32487  41.804   8.671   1.444
73194W        W32488   9.390   1.335   5.301
73195W        W32489  22.101  31.019  14.926
73196W        W32490  44.816   4.369   9.459
73197W        W32491  13.658  33.482  11.862
73198W        W32492  38.074   2.909   0.773
73199W        W32493  26.164   2.251  14.974
73200W        W32494  34.110  44.318   3.831
73201W        W32495  12.139  14.832   4.792
73202W        W32496  35.587   5.383  13.450
73203W        W32497  34.022   1.737   2.408
73204W        W32498  16.311  31.070   3.736
73205W        W32499  28.186  36.388  11.990
73206W        W32500  10.764  22.094  10.416
73207W        W32501   9.206   3.882   2.412
73208W        W32502  36.514  37.535   0.965
73209W        W32503  14.779   4.317   4.729
73210W        W32504  40.340   1.803   2.720
73211W        W32505   2.907   8.803  11.515
73212W        W32506  35.402  32.393   9.962
73213W        W32507  22.630  17.562   1.858
73214W        W32508  39.338  15.628   2.710
73215W        W32509   6.718  11.230  11.577
73216W        W32510  11.301  28.161   0.315
73217W        W32511  19.619   8.818  14.303
73218W        W32512  21.658  36.945  13.792
73219W        W32513  25.631  35.004  13.937
73220W        W32514  33.395  36.381   0.357
73221W        W32515  20.608  36.971   3.741
73222W        W32516  44.768  17.560  10.996
73223W        W32517  41.391  21.136  11.880
73224W        W32518   4.707  14.799   4.203
73225W        W32519   5.396   5.202   1.790
73226W        W32520   2.731  44.792  12.340
73227W        W32521  32.600  22.714   4.657
73228W        W32522   5.919  13.604  13.861
73229W        W32523  22.051  11.832  10.944
73230W        W32524  21.595   5.767  10.963
73231W        W32525  22.022  44.282  14.445
73232W        W32526  24.152  42.939   4.199
73233W        W32527   4.352   0.782  10.889
73234W        W32528  20.662  28.141  10.904
73235W        W32529  37.875  17.673  13.443
73236W        W32530  34.423  39.426   3.770
73237W        W32531  36.844  31.536  10.907
73238W        W32532  36.576  24.689   4.766
73239W        W32533  16.597  41.461   3.222
73240W        W32534  32.114   9.150   1.382
73241W        W32535   8.744  31.505  12.574
73242W        W32536  29.042  14.339  14.304
73243W        W32537  28.091  44.493   1.223
73244W        W32538  21.199   3.719  12.372
73245W        W32539  36.509  33.923  10.452
73246W        W32540   6.277  11.127  11.415
73247W        W32541  30.607  26.590   4.733
73248W        W32542   0.945  21.075  10.016
73249W        W32543  40.376  28.647   2.269
73250W        W32544  33.554   5.193   3.336
73251W        W32545  43.457  28.961   3.677
73252W        W32546  23.690  10.723   0.319
73253W        W32547  38.327  26.702   1.730
73254W        W32548   5.415   2.388  11.427
73255W        W32549  27.689  20.728  14.425
73256W        W32550  35.041  34.584  10.534
73257W        W32551  13.345  42.931  11.085
73258W        W32552  44.951   6.890  10.455
73259W        W32553  34.538  33.571  12.461
73260W        W32554  10.292  29.571  12.471
73261W        W32555  43.305  25.119  11.606
73262W        W32556  25.699  27.512  14.814
73263W        W32557  25.555  42.840   9.968
73264W        W32558  42.492  39.881  12.478
73265W        W32559  26.457  19.775  11.967
73266W        W32560  40.810   4.930   9.975
73267W        W32561  37.957  19.578  13.442
73268W        W32562  34.894  29.980  10.453
73269W        W32563   3.885   2.798  13.441
73270W        W32564  18.297   7.846   4.697
73271W        W32565   8.806  36.356  12.947
73272W        W32566  13.137  18.753   3.696
73273W        W32567  19.610  15.687   4.197
73274W        W32568  22.132  29.072   1.441
73275W        W32569  28.587  15.659   1.228
73276W        W32570  31.467  10.848   1.927
73277W        W32571  11.726  23.153  11.115
73278W        W32572  39.845  10.276   1.386
73279W        W32573  23.112  29.425   3.731
73280W        W32574  39.326  19.584   2.778
73281W        W32575   1.243  33.511   1.881
73282W        W32576  21.598  22.743  13.959
73283W        W32577  14.247  24.548  11.561
73284W        W32578   0.306  17.687   1.223
73285W        W32579  33.525  13.756   2.792
73286W        W32580   7.243  23.208  10.645
73287W        W32581  26.024  11.258   3.705
73288W        W32582  31.411   1.441   2.253
73289W        W32583  42.017  21.581  12.956
73290W        W32584   5.905   5.221  14.483
73291W        W32585  37.940  32.935  12.418
73292W        W32586  41.296  14.340  13.396
73293W        W32587  41.878  37.868  14.496
73294W        W32588  39.399   7.730   1.410
73295W        W32589  40.491  10.751   4.123
73296W        W32590  21.176  24.081   3.272
73297W        W32591  33.381  38.509   0.385
73298W        W32592  22.513  14.706  12.569
73299W        W32593   9.164   7.314  12.835
73300W        W32594  24.173  43.320   1.722
73301W        W32595  37.373  10.767  11.443
73302W        W32596   0.295   0.484   3.214
73303W        W32597  10.686  27.137  10.551
73304W        W32598  25.125   6.321  14.279
73305W        W32599  13.331  17.586  11.410
73306W        W32600   4.789  39.544  12.888
73307W        W32601   7.771  24.582   3.812
73308W        W32602   8.318  40.968   1.892
73309W        W32603   6.900   4.418   1.864
73310W        W32604  42.996  14.096  14.285
73311W        W32605   8.169   9.329   0.885
73312W        W32606  44.377  18.099   5.112
73313W        W32607  36.516   0.830   1.828
73314W        W32608   9.363   8.887  11.588
73315W        W32609  20.732   7.395   0.267
73316W        W32610  37.441  25.558   1.350
73317W        W32611  43.470  38.541   3.356
73318W        W32612   1.459  16.280  14.951
73319W        W32613  11.756   9.811   1.815
73320W        W32614  31.424  30.023   1.413
73321W        W32615   5.728  26.457  11.064
73322W        W32616   4.844   8.876  11.383
73323W        W32617  27.026   3.757   1.243
73324W        W32618  20.051  40.958  13.945
73325W        W32619  42.964   9.163   2.886
73326W        W32620  17.301   2.845  11.030
73327W        W32621  43.514  22.124  14.823
73328W        W32622  39.534  28.127   2.776
73329W        W32623  12.204  42.414   1.845
73330W        W32624  39.488  39.328   4.624
73331W        W32625  34.099  16.260  10.589
73332W        W32626   3.828  39.041   0.484
73333W        W32627  10.294  17.187   1.734
73334W        W32628  21.174  36.088  14.855
73335W        W32629   8.202  37.953   3.695
73336W        W32630  20.582  31.475  11.471
73337W        W32631  35.059  16.152   0.864
73338W        W32632  12.166   2.752  13.528
73339W        W32633  36.939   4.433  12.426
73340W        W32634  44.265   2.310  13.544
73341W        W32635   2.444  28.039  11.605
73342W        W32636  22.527   7.239   1.882
73343W        W32637  10.720  12.343  14.455
73344W        W32638  36.548  11.162  14.025
73345W        W32639  33.108  28.051   1.220
73346W        W32640  36.382   3.940  11.470
73347W        W32641   6.274  39.852  13.506
73348W        W32642   6.246  29.091   1.741
73349W        W32643   0.289   3.430  14.004
73350W        W32644  25.690  30.087   3.759
73351W        W32645  27.984  15.743   0.900
73352W        W32646   3.938  31.008   0.406
73353W        W32647  38.502  43.930  13.444
73354W        W32648  22.676  36.037   1.434
73355W        W32649   1.407  22.648   4.728
73356W        W32650   8.351  25.582   3.741
73357W        W32651  38.464   0.439   3.661
73358W        W32652  15.669  27.607  13.016
73359W        W32653   6.817  39.540  10.524
73360W        W32654  25.550  41.321   1.233
73361W        W32655  20.150  39.472  13.808
73362W        W32656  14.750  11.697   0.275
73363W        W32657  40.946  32.038  11.481
73364W        W32658  25.066  10.167  12.925
73365W        W32659  17.179  43.362  13.902
73366W        W32660  38.510  32.055   1.257
73367W        W32661  40.954  28.999   2.733
73368W        W32662   8.659  16.691  12.923
73369W        W32663  28.606  44.879   4.135
73370W        W32664  36.487  12.655  12.929
73371W        W32665  26.516  22.208  13.324
73372W        W32666  32.446   1.918   2.794
73373W        W32667  36.453  37.077   2.823
73374W        W32668  38.031   0.960  10.613
73375W        W32669  35.584   3.382  13.994
73376W        W32670  18.068   6.399   3.734
73377W        W32671  32.027   7.332  14.277
73378W        W32672   6.711  24.512   0.415
73379W        W32673  32.907  25.588   4.125
73380W        W32674  42.360  28.148   2.792
73381W        W32675  10.662  32.584  13.461
73382W        W32676  32.556   9.237   1.842
73383W        W32677  15.086   1.812  14.759
73384W        W32678  15.277   7.194  14.461
73385W        W32679  30.530  38.834   2.411
73386W        W32680  11.756  44.858  10.607
73387W        W32681  18.070   8.897  12.969
73388W        W32682  30.452  33.387  13.988
73389W        W32683  30.554  41.886  13.962
73390W        W32684  31.632  41.802   5.215
73391W        W32685  18.748  21.038   0.475
73392W        W32686  10.149  25.171  11.118
73393W        W32687  20.229  15.129   4.283
73394W        W32688  24.587  10.740   2.667
73395W        W32689  28.166  23.071  12.863
73396W        W32690  37.884   3.821   1.745
73397W        W32691   0.414  19.069   1.862
73398W        W32692  21.167  42.337  13.536
73399W        W32693  21.635  29.501   3.835
73400W        W32694  29.613   9.325  14.301
73401W        W32695  39.432  44.371   2.778
73402W        W32696  24.690   3.421  11.021
73403W        W32697   9.804   3.370   3.767
73404W        W32698   2.731   6.701   4.768
73405W        W32699  21.616   8.254  14.772
73406W        W32700  33.974  30.031   2.848
73407W        W32701  24.048  11.218   3.339
73408W        W32702   4.741  18.112  12.948
73409W        W32703  15.652  16.730   3.757
73410W        W32704  44.939  32.068   0.248
73411W        W32705   4.793   1.319  13.505
73412W        W32706  23.037  39.516   4.312
73413W        W32707  21.141  24.540  11.000
73414W        W32708  35.070  35.488   4.268
73415W        W32709  34.915  24.535   0.311
73416W        W32710  33.450  25.006  10.939
73417W        W32711  35.969  41.929   2.231
73418W        W32712  12.192  35.497  11.587
73419W        W32713   1.302  15.097   0.960
73420W        W32714  29.606  40.977  13.429
73421W        W32715  20.761  11.649   2.180
73422W        W32716  25.101  26.187  13.348
73423W        W32717  27.132  18.731   1.819
73424W        W32718  39.965  40.944  14.486
73425W        W32719  35.557   6.745   4.724
73426W        W32720  31.577  31.564  11.977
73427W        W32721  27.685  13.684   2.719
73428W        W32722   9.293  13.750  12.913
73429W        W32723   8.163  35.414   4.326
73430W        W32724  16.759  34.976  14.985
73431W        W32725  32.895  26.170  14.909
73432W        W32726  33.960  40.947  12.397
73433W        W32727  19.767  12.239   1.790
73434W        W32728  39.314   1.884  10.594
73435W        W32729   6.293  27.489  12.514
73436W        W32730  38.066  13.137  13.818
73437W        W32731  20.598  23.139  11.547
73438W        W32732  12.124  31.090  12.988
73439W        W32733   6.220  33.458  10.915
73440W        W32734  24.526  44.848   1.731
73441W        W32735   3.895  31.648   2.664
73442W        W32736  20.249  35.972  12.958
73443W        W32737  20.174  24.725  11.078
73444W        W32738  15.810  24.499   4.129
73445W        W32739  10.843  22.216  12.008
73446W        W32740  25.053  44.862  14.961
73447W        W32741  39.421   0.330  10.974
73448W        W32742  24.625  33.105   4.770
73449W        W32743   9.705  21.255   4.627
73450W        W32744  27.692  11.335   2.183
73451W        W32745  39.960  28.033  12.897
73452W        W32746  22.125   7.893  14.511
73453W        W32747  28.454   1.820  12.452
73454W        W32748  37.527  11.323  14.810
73455W        W32749  39.821   3.769   4.202
73456W        W32750  28.951  40.898   4.279
73457W        W32751  11.730  39.024  13.959
73458W        W32752   9.271  10.764   2.344
73459W        W32753   6.861  12.753   2.392
73460W        W32754  17.770  31.478  10.496
73461W        W32755  19.538  34.388   2.869
73462W        W32756  13.232  24.979  10.508
73463W        W32757  42.373  38.518   3.774
73464W        W32758  23.143  20.126   0.939
73465W        W32759  40.549   5.259  11.963
73466W        W32760   9.247   3.720   4.161
73467W        W32761  38.958  18.256   1.444
73468W        W32762  42.963   1.905  13.910
73469W        W32763  20.066  20.620   4.742
73470W        W32764  37.859   4.821   4.792
73471W        W32765  36.909  14.157  12.431
73472W        W32766  24.097  25.706  11.967
73473W        W32767  28.173  32.118   1.817
73474W        W32768  30.076   5.313  12.019
73475W        W32769  39.950   2.809  13.523
73476W        W32770  34.498  40.931   2.734
73477W        W32771   1.278  30.137  14.953
73478W        W32772   8.365  12.843   0.948
73479W        W32773  25.524   3.806   1.716
73480W        W32774   9.831   9.834   0.752
73481W        W32775  22.747  19.175  14.980
73482W        W32776  29.562  10.290  12.932
73483W        W32777   8.773  20.122   5.158
73484W        W32778  34.404  27.538   0.372
73485W        W32779   8.278   9.806  11.405
73486W        W32780  33.465  29.462   4.662
73487W        W32781  15.614  17.725   1.811
73488W        W32782  11.745   8.189   4.129
73489W        W32783  26.626   5.728  11.605
73490W        W32784  13.328  17.605   3.207
73491W        W32785   8.286  24.556   1.331
73492W        W32786  13.308  22.069   1.865
73493W        W32787  22.140  36.982   0.853
73494W        W32788   4.326  14.287  12.873
73495W        W32789  40.517  14.775   3.256
73496W        W32790   9.319   8.352  11.885
73497W        W32791  30.621  39.356  13.489
73498W        W32792  37.537   5.313  11.478
73499W        W32793   6.867   8.887   4.784
73500W        W32794  33.080   5.790   4.694
73501W        W32795   9.151  40.811  12.443
73502W        W32796  19.050  30.912   0.875
73503W        W32797  19.197   9.171  13.324
73504W        W32798  11.173  32.515   3.665
73505W        W32799  36.851  40.015   4.809
73506W        W32800  17.642  37.965   4.275
73507W        W32801  26.497   7.401   1.236
73508W        W32802  10.301  36.061  13.028
73509W        W32803  19.205  33.418   2.875
73510W        W32804  35.366   8.812   0.287
73511W        W32805  18.622  25.078   1.294
73512W        W32806   4.277  17.199   4.684
73513W        W32807  35.993   4.214  11.894
73514W        W32808  33.446  37.906  11.423
73515W        W32809  18.122   6.734   4.745
73516W        W32810   3.441  21.032   3.806
73517W        W32811   0.377  10.324  13.915
73518W        W32812   5.728  42.402   0.456
73519W        W32813  11.626  30.965  13.322
73520W        W32814  41.921   8.228   3.198
73521W        W32815   3.240   2.796   2.704
73522W        W32816  41.955  33.441  11.415
73523W        W32817  37.383  18.660   0.476
73524W        W32818  19.078  18.271  11.073
73525W        W32819  22.223  22.734  14.957
73526W        W32820  33.995  14.653  11.098
73527W        W32821  36.930   3.711   3.351
73528W        W32822   0.929  13.759   1.360
73529W        W32823  28.972  43.428   1.220
73530W        W32824  26.475  21.250  14.807
73531W        W32825  32.907  26.000   2.731
73532W        W32826  20.714   4.346   0.956
73533W        W32827  37.557  14.183   1.754
73534W        W32828   3.825   3.336  10.635
73535W        W32829   3.951  15.129   3.703
73536W        W32830  17.748  18.113   4.734
73537W        W32831  19.064  27.141   0.885
73538W        W32832  23.666  22.733  10.598
73539W        W32833   0.903  10.668  11.441
73540W        W32834  17.720  39.016   0.769
73541W        W32835  10.674  22.715   1.712
73542W        W32836   1.878  21.701  10.558
73543W        W32837  38.988  17.696  13.938
73544W        W32838  13.306   5.926   1.718
73545W        W32839  13.220  24.499  14.418
73546W        W32840  22.013  35.006  12.344
73547W        W32841   5.694  13.633  12.529
73548W        W32842   6.682  22.615  13.990
73549W        W32843  37.909  36.931   9.558
73550W        W32844  15.813  14.645  14.293
73551W        W32845  11.794  26.084  14.826
73552W        W32846  15.270  17.593   2.709
73553W        W32847  21.610  42.929  14.413
73554W        W32848  33.034   6.869   0.910
73555W        W32849  12.360  16.217  10.550
73556W        W32850   1.890   3.940  11.440
73557W        W32851  29.556  22.059  14.481
73558W        W32852  21.086  43.836   1.346
73559W        W32853   5.741  21.045  14.768
73560W        W32854  43.404  17.253  14.785
73561W        W32855  43.000   8.880  12.876
73562W        W32856  16.661  18.738   3.675
73563W        W32857  11.746   3.798   1.811
73564W        W32858  37.470  34.049  14.352
73565W        W32859  11.640   2.234   0.447
73566W        W32860  18.589  42.776  10.094
73567W        W32861  26.156  32.955   3.256
73568W        W32862  19.631   6.318  13.484
73569W        W32863   0.875  35.480  10.574
73570W        W32864  14.767  11.346   5.640
73571W        W32865  26.612  22.614  10.504
73572W        W32866  33.467   3.871   2.892
73573W        W32867  31.979  13.341   2.683
73574W        W32868  40.965  23.019  13.498
73575W        W32869  24.112  25.079  13.459
73576W        W32870  35.456   3.817   4.328
73577W        W32871   7.407  36.077  11.543
73578W        W32872  36.897  43.374   2.199
73579W        W32873  18.196   1.401  13.920
73580W        W32874  39.036   3.918  11.417
73581W        W32875  31.478  37.850   3.740
73582W        W32876   7.180  13.262  12.899
73583W        W32877  13.114  15.284   1.868
73584W        W32878  13.679  26.647  11.551
73585W        W32879  10.798  33.403   3.164
73586W        W32880  28.493  28.045   1.405
73587W        W32881  41.481  24.652  12.880
73588W        W32882  27.597   0.809  12.400
73589W        W32883  36.960  44.773  12.985
73590W        W32884   7.799  41.322   0.384
73591W        W32885  10.208  29.552  13.356
73592W        W32886   3.781  38.482  10.555
73593W        W32887   8.658  29.485   0.782
73594W        W32888  20.534   1.798   4.117
73595W        W32889  39.518  12.736  11.531
73596W        W32890   8.765   3.296   2.710
73597W        W32891  23.987  35.941   1.824
73598W        W32892  27.182  11.783   4.805
73599W        W32893   3.255   4.730   1.821
73600W        W32894  33.906  42.790   4.603
73601W        W32895  32.439  35.974  13.514
73602W        W32896  14.310  37.410   3.161
73603W        W32897   3.956  38.826  12.028
73604W        W32898  43.422  24.977   0.457
73605W        W32899  17.079  21.636   5.233
73606W        W32900  27.673  28.542  13.317
73607W        W32901   1.352  32.573  14.836
73608W        W32902  30.531  27.175  14.882
73609W        W32903  23.185  18.774   2.395
73610W        W32904   0.448  31.476   0.276
73611W        W32905   3.845  34.898  11.876
73612W        W32906   0.248  30.621  12.563
73613W        W32907  17.276  29.438   4.645
73614W        W32908   7.677  17.284  12.440
73615W        W32909  14.114  42.451  12.452
73616W        W32910  34.113  16.598  14.356
73617W        W32911  39.560   8.762   0.473
73618W        W32912  20.155   1.901   4.621
73619W        W32913  41.825  42.025   2.233
73620W        W32914  43.323   2.916  11.516
73621W        W32915  25.075  39.459  10.150
73622W        W32916   3.917  44.775   0.895
73623W        W32917  22.562  23.994   1.287
73624W        W32918  35.872  23.731   0.750
73625W        W32919  16.238   5.283   0.269
73626W        W32920   4.229  40.394   3.252
73627W        W32921  23.572  33.461   0.250
73628W        W32922  31.063  29.134  13.024
73629W        W32923   5.882  18.575   4.803
73630W        W32924  14.175  15.725  12.962
73631W        W32925   8.274  36.475  13.945
73632W        W32926  21.176  13.310   1.909
73633W        W32927  32.120  31.972  13.821
73634W        W32928   9.294  40.819   3.838
73635W        W32929  19.718  36.426   3.350
73636W        W32930  13.280  42.950   4.783
73637W        W32931  25.140  25.480  10.600
73638W        W32932   0.326   4.713   4.818
73639W        W32933  27.008  16.196  11.894
73640W        W32934  37.934   1.748   4.311
73641W        W32935   9.803  20.207   0.407
73642W        W32936  39.887  36.547  11.444
73643W        W32937  12.156   8.695   2.187
73644W        W32938  36.399  22.012  10.947
73645W        W32939  23.660  15.106   4.274
73646W        W32940  33.016   9.756   0.444
73647W        W32941  12.250   3.746   1.213
73648W        W32942  15.672  13.246  12.468
73649W        W32943   1.818  22.185  14.932
73650W        W32944  33.463  13.347   4.165
73651W        W32945   6.738  32.929   2.783
73652W        W32946  44.861  20.244  14.442
73653W        W32947   2.345   8.370  12.383
73654W        W32948  34.549  11.294   2.310
73655W        W32949   4.734  40.924   0.850
73656W        W32950  17.626  27.014  12.542
73657W        W32951  32.032  38.950   2.738
73658W        W32952   9.856  20.717   3.308
73659W        W32953  28.518  37.044  12.922
73660W        W32954   8.223  33.119  14.323
73661W        W32955  34.516  38.831  12.997
73662W        W32956  28.662  19.690   2.298
73663W        W32957  38.405   7.705  13.903
73664W        W32958  17.142  41.009  11.945
73665W        W32959  29.609  33.471  13.444
73666W        W32960  38.014  30.988  12.872
73667W        W32961  39.337  17.622  13.006
73668W        W32962  16.210  10.156  14.925
73669W        W32963  37.378  11.262   4.320
73670W        W32964  18.232  19.685  12.974
73671W        W32965   0.465  15.593  10.432
73672W        W32966   3.309  33.400  13.927
73673W        W32967   9.234  40.868  11.117
73674W        W32968  11.821  40.804   0.752
73675W        W32969  29.599   9.334  13.519
73676W        W32970  10.778  12.645   3.243
73677W        W32971   6.205  21.663  10.129
73678W        W32972  32.495  35.108  10.617
73679W        W32973   6.195  35.056  10.920
73680W        W32974  10.692  41.926   3.239
73681W        W32975  41.352  32.005   1.708
73682W        W32976   1.741  26.632   3.671
73683W        W32977  40.453  31.640   4.262
73684W        W32978  37.489  14.305   0.461
73685W        W32979  31.486   5.806  14.363
73686W        W32980  11.864   3.712  10.460
73687W        W32981  25.699  19.656  11.991
73688W        W32982   3.750  20.262   1.426
73689W        W32983   3.799  31.037   4.691
73690W        W32984   4.759  26.074  14.380
73691W        W32985   7.309  21.193   1.277
73692W        W32986   8.357  38.445  12.934
73693W        W32987  30.914   1.463   3.733
73694W        W32988  34.997  22.138   1.735
73695W        W32989   6.266  10.232  13.888
73696W        W32990  24.213  20.746   0.754
73697W        W32991  41.957  42.963   0.368
73698W        W32992   5.770  30.616  14.371
73699W        W32993  27.684  12.803   2.726
73700W        W32994   0.264  13.842   2.357
73701W        W32995  15.254  42.507  10.988
73702W        W32996   3.380  30.109   4.150
73703W        W32997   1.949  23.221  13.418
73704W        W32998  16.192  11.322  11.401
73705W        W32999  43.853  10.818  14.002
73706W        W33000  16.631  13.709   0.901
73707W        W33001   1.765  12.732   0.278
73708W        W33002  41.327  18.215  11.978
73709W        W33003  37.339  25.996   1.419
73710W        W33004  25.005  16.250   3.245
73711W        W33005  32.132  25.149   1.913
73712W        W33006   9.280  44.486  14.816
73713W        W33007  23.107   0.449   4.614
73714W        W33008   7.211   1.819  12.927
73715W        W33009  34.963   4.294  14.779
73716W        W33010  21.599  36.931  12.892
73717W        W33011  33.566   0.262   4.605
73718W        W33012  22.594  35.461  13.836
73719W        W33013  19.672   3.246  11.441
73720W        W33014  24.547   1.385  14.465
73721W        W33015  13.275  18.150   0.750
73722W        W33016  25.016  34.902   4.604
73723W        W33017  13.720  29.081  14.335
73724W        W33018  38.524  11.166   1.226
73725W        W33019   7.801  11.865   0.920
73726W        W33020  25.075  36.042   0.939
73727W        W33021  19.163  42.865  14.807
73728W        W33022  16.776  30.437   2.802
73729W        W33023  15.784   7.863   3.642
73730W        W33024  23.043  17.777  14.484
73731W        W33025  30.472  13.211  12.913
73732W        W33026  19.693  37.514  11.091
73733W        W33027   8.725  40.932   3.333
73734W        W33028   8.175  28.582  13.336
73735W        W33029  15.592  11.624   2.329
73736W        W33030  43.464  32.957  11.412
73737W        W33031   5.320   4.830  14.974
73738W        W33032  28.021  34.927  13.019
73739W        W33033  44.870  20.742  10.512
73740W        W33034  43.425  24.490   0.745
73741W        W33035   9.211  26.552   1.371
73742W        W33036  29.628   6.782   4.721
73743W        W33037  24.605  14.710   1.756
73744W        W33038   4.351  14.750  14.816
73745W        W33039  20.746  36.080  14.798
73746W        W33040  35.041  12.643   4.313
73747W        W33041  20.091  40.408  10.945
73748W        W33042  44.305  44.262   5.123
73749W        W33043  43.021   5.197  14.032
73750W        W33044   0.760  40.973  12.577
73751W        W33045  38.340  39.917   2.202
73752W        W33046   7.877  42.329  13.318
73753W        W33047  16.597  34.485  10.429
73754W        W33048  25.997  33.615   1.704
73755W        W33049  22.194  22.088   4.646
73756W        W33050  40.451  32.014   3.280
73757W        W33051  11.705   4.736  10.625
73758W        W33052  27.190  17.212   1.336
73759W        W33053  43.435  36.979  13.427
73760W        W33054  40.383  12.277  11.538
73761W        W33055  37.047  24.680  12.446
73762W        W33056  33.931  26.665   3.831
73763W        W33057  14.299   6.812  13.328
73764W        W33058  17.723   9.312   0.366
73765W        W33059  26.975  10.170   4.821
73766W        W33060  35.914  17.754  11.043
73767W        W33061   9.314   2.792  13.543
73768W        W33062  30.013  32.004   1.855
73769W        W33063  11.821  36.997   1.894
73770W        W33064  18.235   3.782   1.387
73771W        W33065   8.726  40.351   0.379
73772W        W33066  29.976  27.153  14.347
73773W        W33067  13.747  34.965   2.892
73774W        W33068  44.453  42.469   1.882
73775W        W33069  42.833  38.879   2.667
73776W        W33070  16.682  43.005   2.839
73777W        W33071  13.318  34.085   3.749
73778W        W33072  12.221  31.051   0.880
73779W        W33073  40.027  15.642  14.455
73780W        W33074  34.517  36.913   3.361
73781W        W33075   3.432  15.298   1.745
73782W        W33076  12.727  43.861  10.549
73783W        W33077  43.502   8.763   4.231
73784W        W33078   2.292   5.695  13.049
73785W        W33079  23.711   7.903   0.429
73786W        W33080   0.744  17.660   1.839
73787W        W33081  16.662  40.334  12.929
73788W        W33082  34.931  19.121  13.820
73789W        W33083  29.147   7.294  10.986
73790W        W33084  27.578  20.268  14.476
73791W        W33085  10.277  37.051   4.209
73792W        W33086  30.451  40.927  11.446
73793W        W33087  38.054  24.613  13.462
73794W        W33088  14.244  31.025  12.346
73795W        W33089  34.443   7.259   4.838
73796W        W33090  37.971  41.464  10.529
73797W        W33091   0.834  17.612   0.291
73798W        W33092  44.004  30.933   1.314
73799W        W33093   7.193  41.396   3.351
73800W        W33094  44.892   2.331   0.365
73801W        W33095  40.431  42.303  14.982
73802W        W33096  13.269  24.677   2.728
73803W        W33097  44.834   5.905   1.824
73804W        W33098  42.384  29.933  13.059
73805W        W33099   6.400  11.129   4.742
73806W        W33100   1.392  34.019  14.910
73807W        W33101  35.869  13.143   0.424
73808W        W33102  42.983  13.338   2.178
73809W        W33103  36.961  31.010  12.574
73810W        W33104  35.020  27.017  14.967
73811W        W33105  13.752   1.402  10.643
73812W        W33106  38.411  44.979   4.816
73813W        W33107   7.181   0.370  12.045
73814W        W33108  24.179  27.562   3.792
73815W        W33109  21.586  25.667   3.672
73816W        W33110  34.579  14.227   0.828
73817W        W33111  40.012   0.476  14.759
73818W        W33112   7.787  43.500  10.615
73819W        W33113  44.779   7.731   0.876
73820W        W33114   8.399  38.819   2.353
73821W        W33115  36.891  20.749   3.833
73822W        W33116   3.328  16.092  10.925
73823W        W33117  34.075  35.105   3.342
73824W        W33118  25.136  42.896   1.435
73825W        W33119  21.043   9.339   0.282
73826W        W33120  42.847  12.688  12.553
73827W        W33121  39.365   8.352  14.999
73828W        W33122  38.495  41.378   2.709
73829W        W33123  29.079  31.558   2.304
73830W        W33124  12.844   0.260   2.333
73831W        W33125  30.140  13.125  14.794
73832W        W33126  42.928  23.624  11.930
73833W        W33127   0.306  23.110   1.292
73834W        W33128  26.002  19.151   1.910
73835W        W33129   2.436  42.867  13.499
73836W        W33130  18.760   5.340  11.550
73837W        W33131   3.442  16.716   1.848
73838W        W33132  43.812  32.888   1.748
73839W        W33133   3.954  11.150  13.833
73840W        W33134   1.395  20.157   1.802
73841W        W33135   2.947  42.876   1.363
73842W        W33136   5.739  37.916  12.472
73843W        W33137  21.715  41.479   4.742
73844W        W33138  30.113  19.652   0.878
73845W        W33139   9.759   9.160   2.786
73846W        W33140   7.181  10.257   2.371
73847W        W33141   2.331  41.473   1.215
73848W        W33142  26.110  44.307   4.171
73849W        W33143  43.894  25.645  12.384
73850W        W33144   0.406   0.831  14.805
73851W        W33145  37.548  38.848   4.328
73852W        W33146  38.925  11.143   3.153
73853W        W33147  24.646  23.668  12.855
73854W        W33148  44.789  21.205   1.423
73855W        W33149  24.060  15.084  11.999
73856W        W33150  20.172   9.197  11.601
73857W        W33151  23.228   6.326   3.784
73858W        W33152  35.436  21.610  11.534
73859W        W33153   0.458   9.870   2.288
73860W        W33154  40.409   0.921  12.972
73861W        W33155  37.978   9.209  11.094
73862W        W33156  35.553  27.682  11.386
73863W        W33157  17.754  18.217   0.887
73864W        W33158  42.441  40.452  12.563
73865W        W33159  35.568  37.455   9.990
73866W        W33160  23.141   1.366   2.896
73867W        W33161  15.758  26.585  11.043
73868W        W33162  15.315  12.614  12.055
73869W        W33163  13.193  33.046  13.822
73870W        W33164  30.004  25.697  11.435
73871W        W33165   1.770  21.199   0.322
73872W        W33166  35.477  10.834   4.662
73873W        W33167   2.767  16.131  11.449
73874W        W33168  23.992  43.388  12.400
73875W        W33169   9.241  15.806   2.803
73876W        W33170  17.245   2.389  12.040
73877W        W33171  18.152  33.481  12.351
73878W        W33172  41.891  13.651  11.933
73879W        W33173   1.313   6.204  10.619
73880W        W33174  29.957  11.234   2.663
73881W        W33175  18.679  16.221  12.344
73882W        W33176  17.753  42.888   1.695
73883W        W33177   1.974  37.032  13.490
73884W        W33178  20.076  26.688   3.308
73885W        W33179  21.675  36.445   4.668
73886W        W33180  14.634  34.467  13.372
73887W        W33181  26.124  16.186  11.522
73888W        W33182  22.527  22.224   2.251
73889W        W33183   3.452  23.112   1.286
73890W        W33184  23.149  18.102  14.458
73891W        W33185  41.391  34.586   0.930
73892W        W33186  24.116  10.300   5.105
73893W        W33187  15.784  31.996  14.933
73894W        W33188   2.735   6.290  12.880
73895W        W33189  31.036  39.947  11.513
73896W        W33190  33.568  11.203  13.401
73897W        W33191  44.494  43.422   1.707
73898W        W33192  27.630  42.946  12.888
73899W        W33193  43.873  15.294   4.822
73900W        W33194  33.565  43.940   3.280
73901W        W33195  34.502   6.408  12.463
73902W        W33196   6.885  15.637   5.265
73903W        W33197  43.508  29.593  14.832
73904W        W33198  11.336   6.696  14.390
73905W        W33199  34.913  36.522  14.992
73906W        W33200  33.912  18.751   2.325
73907W        W33201  20.664  13.744  14.031
73908W        W33202  10.170  43.804   1.735
73909W        W33203  10.654  29.438   0.444
73910W        W33204  33.114   2.308   3.192
73911W        W33205  13.628  32.617  13.519
73912W        W33206  18.601  19.285   2.876
73913W        W33207   3.231   5.815   0.355
73914W        W33208  27.018  20.685  12.906
73915W        W33209   2.226  18.591  10.514
73916W        W33210   9.373  30.653  12.378
73917W        W33211  10.785  27.046  14.792
73918W        W33212  38.968  10.875   1.234
73919W        W33213  41.370   9.725   4.247
73920W        W33214   1.784  19.569   3.288
73921W        W33215  27.552   8.681  13.988
73922W        W33216  43.338  43.420   1.794
73923W        W33217  33.407  16.130  10.417
73924W        W33218  17.211  29.098  14.280
73925W        W33219  29.034  31.001  12.003
73926W        W33220  34.042  29.471  14.829
73927W        W33221  16.179   9.793   3.863
73928W        W33222  44.969  16.264   2.408
73929W        W33223  43.766  44.007   3.180
73930W        W33224  44.262  41.341  14.923
73931W        W33225  42.435   7.740   2.769
73932W        W33226   8.779   0.381  12.452
73933W        W33227  13.680  27.081  10.614
73934W        W33228   9.162  33.608   0.342
73935W        W33229  33.902  41.318  11.427
73936W        W33230  20.747   0.273   1.402
73937W        W33231   1.957  13.297  11.596
73938W        W33232  14.795  26.187   3.148
73939W        W33233  17.232  13.689  12.517
73940W        W33234  11.850  31.109   0.898
73941W        W33235   1.934  43.445  11.492
73942W        W33236  30.014  33.085  13.333
73943W        W33237   1.741  18.729   0.352
73944W        W33238  38.986  32.391  14.353
73945W        W33239  20.169  21.192   2.738
73946W        W33240  25.173  19.708   2.183
73947W        W33241   9.866  42.305  12.450
73948W        W33242  35.501   8.253   4.600
73949W        W33243  35.370  14.205   2.673
73950W        W33244   3.729  20.227  14.765
73951W        W33245   8.889  41.448  11.471
73952W        W33246  16.734  39.322  13.035
73953W        W33247  36.582  12.216  10.512
73954W        W33248  41.490   2.955   3.229
73955W        W33249  34.449   4.819  12.081
73956W        W33250  43.511  27.051  13.827
73957W        W33251  33.037  14.275   4.131
73958W        W33252   9.358   6.821  13.839
73959W        W33253  24.974   5.828  12.839
73960W        W33254  13.699  37.402   1.333
73961W        W33255   5.335  36.069   2.356
73962W        W33256   9.331  44.831  12.825
73963W        W33257   2.824  28.057   2.889
73964W        W33258  40.911  30.508  12.557
73965W        W33259  25.134  15.675   3.307
73966W        W33260  44.271   9.391  14.824
73967W        W33261  42.908  27.573   4.732
73968W        W33262  18.281  15.255  14.341
73969W        W33263  23.191  13.621  12.878
73970W        W33264  27.982  25.088  12.353
73971W        W33265   6.428  10.310   3.734
73972W        W33266  30.141  28.572  13.428
73973W        W33267  33.561  31.523  11.066
73974W        W33268  27.467   5.207  14.417
73975W        W33269  34.382  30.552   1.436
73976W        W33270  37.464  26.693   2.780
73977W        W33271  26.130  38.864   9.551
73978W        W33272  37.429  27.474  12.478
73979W        W33273  25.114  17.236  10.422
73980W        W33274  28.972   2.341  14.348
73981W        W33275  20.158  16.740   1.392
73982W        W33276  15.814  42.363  12.349
73983W        W33277  16.174  14.781  11.866
73984W        W33278  33.890  44.941   4.199
73985W        W33279   4.916  10.671  11.459
73986W        W33280  15.659  19.556   2.871
73987W        W33281  26.088  25.650  11.083
73988W        W33282  39.319  20.524   3.177
73989W        W33283  19.772  19.634  14.383
73990W        W33284   6.272  42.970  11.578
73991W        W33285  28.493  15.688  13.887
73992W        W33286   3.873  11.241   0.763
73993W        W33287  16.783   0.910   0.458
73994W        W33288  24.671   1.248  13.858
73995W        W33289  37.033   0.279   1.311
73996W        W33290  37.571  24.492   4.624
73997W        W33291  20.105  11.357   2.893
73998W        W33292   7.785   1.961   3.734
73999W        W33293  41.439  21.241  14.835
74000W        W33294   2.367   6.696   1.804
74001W        W33295  11.322  41.294   4.724
74002W        W33296  21.661  26.020  11.897
74003W        W33297  17.722  11.299   3.174
74004W        W33298  23.141  29.947  10.410
74005W        W33299  26.671  29.934  12.891
74006W        W33300  18.051   8.898  14.356
74007W        W33301  35.914  25.617   1.826
74008W        W33302  13.804  35.034  13.406
74009W        W33303  17.168   1.465  12.383
74010W        W33304  20.536   1.941  12.525
74011W        W33305  29.525  17.689   2.873
74012W        W33306   2.403  12.170  13.501
74013W        W33307  30.133  18.288   3.164
74014W        W33308  43.964  29.965  10.406
74015W        W33309  33.088  37.374   4.608
74016W        W33310   5.694  30.038   4.293
74017W        W33311  44.987  34.573   1.270
74018W        W33312  26.110  16.723   1.820
74019W        W33313  22.704  22.582  11.947
74020W        W33314  24.525   7.190  14.279
74021W        W33315   3.769  37.433  10.980
74022W        W33316  39.964   3.292  14.975
74023W        W33317  28.989  44.010   0.343
74024W        W33318  43.856   5.230  10.916
74025W        W33319  34.473  43.460  14.029
74026W        W33320  30.141   6.682  13.357
74027W        W33321  13.332   6.905   0.949
74028W        W33322  11.864  29.987   2.863
74029W        W33323  11.683  40.450  13.393
74030W        W33324  23.162  11.150  13.995
74031W        W33325  26.056  10.729   0.259
74032W        W33326  14.310  36.485   4.202
74033W        W33327  23.237  29.555  12.917
74034W        W33328  34.369   2.964   3.177
74035W        W33329  34.870   4.726  11.879
74036W        W33330  29.633  28.951  13.350
74037W        W33331  34.486   8.861  13.997
74038W        W33332  35.049   9.200   2.882
74039W        W33333  20.240   0.795  13.975
74040W        W33334  35.562  28.595   1.893
74041W        W33335  25.487  19.564  14.466
74042W        W33336  27.667  18.094   3.275
74043W        W33337  25.997  35.404  14.808
74044W        W33338   6.747  28.986  12.940
74045W        W33339  22.996  28.108  10.987
74046W        W33340  18.778  24.993   0.863
74047W        W33341   9.828  39.003  12.409
74048W        W33342  24.060   6.332  14.971
74049W        W33343  30.034  13.322   2.199
74050W        W33344  30.028  10.228  10.930
74051W        W33345  18.765  42.515   0.333
74052W        W33346  24.203  33.538  10.069
74053W        W33347   3.423   9.861   0.916
74054W        W33348   9.275  17.656   3.682
74055W        W33349  27.572   9.688  12.577
74056W        W33350  37.365   9.163  10.540
74057W        W33351  18.098  14.296   3.375
74058W        W33352  41.795  12.337   3.215
74059W        W33353  24.036  35.575  14.930
74060W        W33354   9.319   3.898  13.331
74061W        W33355   6.312  22.025   0.301
74062W        W33356  20.258   1.734  10.642
74063W        W33357   0.253  19.627  13.991
74064W        W33358  15.661  33.017   0.830
74065W        W33359   4.926  16.106  12.367
74066W        W33360  33.959  25.027   3.149
74067W        W33361  23.117   8.242  14.297
74068W        W33362  32.073  39.854   5.750
74069W        W33363  19.223   9.775  13.542
74070W        W33364  32.496  12.126   0.317
74071W        W33365  14.735   9.850   0.729
74072W        W33366  29.058  41.402  12.462
74073W        W33367  18.259  35.002  10.915
74074W        W33368   4.351  13.321   3.344
74075W        W33369  19.639  33.446   0.806
74076W        W33370   3.812  28.002   0.260
74077W        W33371  22.613  13.110  11.582
74078W        W33372  38.549  41.486   3.746
74079W        W33373   2.872   4.423  13.491
74080W        W33374  42.909  26.575   2.681
74081W        W33375   7.732  26.533  14.424
74082W        W33376  38.848  31.636   3.225
74083W        W33377  20.088  41.366   3.184
74084W        W33378   0.744   7.383  12.502
74085W        W33379  38.435  32.025   3.159
74086W        W33380  33.878  42.391  14.913
74087W        W33381  19.542  25.502  11.553
74088W        W33382  40.810  23.052   3.291
74089W        W33383  27.628  23.687  10.444
74090W        W33384  11.741   1.956   3.856
74091W        W33385  43.349  37.071   1.394
74092W        W33386  34.097  10.656  14.883
74093W        W33387  22.158  44.503   4.171
74094W        W33388  36.462   3.841   1.878
74095W        W33389  32.628  43.345   1.424
74096W        W33390   2.340  43.861  10.975
74097W        W33391  34.533  36.944  14.904
74098W        W33392   2.929  34.596  10.596
74099W        W33393  14.699  21.171   0.483
74100W        W33394  37.397  19.269  11.864
74101W        W33395  21.236   3.721  11.522
74102W        W33396  39.824   9.670   1.281
74103W        W33397  28.987  37.347   2.819
74104W        W33398   2.356  42.403  12.479
74105W        W33399  28.509  13.205   4.679
74106W        W33400  35.013  38.425  14.809
74107W        W33401  30.966  25.193   2.285
74108W        W33402  10.657  14.821   4.801
74109W        W33403  16.600   1.426  13.865
74110W        W33404  18.072  44.467  11.603
74111W        W33405  30.945  32.895   3.674
74112W        W33406  11.815  15.650   0.852
74113W        W33407   8.316  16.660   2.837
74114W        W33408  23.570   4.781   2.895
74115W        W33409  44.834  15.161   2.387
74116W        W33410   9.211  35.017   0.918
74117W        W33411  28.520   5.273   3.756
74118W        W33412   5.817  30.481   5.202
74119W        W33413  32.107  22.509  10.581
74120W        W33414  26.139  35.023   1.210
74121W        W33415   1.809   6.297   4.301
74122W        W33416  40.327  34.864   1.844
74123W        W33417   3.805  44.760   3.757
74124W        W33418  13.156  34.095  14.347
74125W        W33419  14.249  41.008   1.252
74126W        W33420  24.181  36.940  14.459
74127W        W33421  20.693  20.113  10.497
74128W        W33422  34.925  32.028  12.872
74129W        W33423  23.553  43.330  10.955
74130W        W33424  23.623  27.119  12.481
74131W        W33425  10.732  15.251  13.345
74132W        W33426  20.268  26.546   4.148
74133W        W33427  29.593   0.757  13.856
74134W        W33428  25.706   4.378  10.465
74135W        W33429  14.645  23.521  11.955
74136W        W33430  31.990  39.468  14.395
74137W        W33431  35.540  34.905  10.629
74138W        W33432  13.160   5.262   1.408
74139W        W33433  23.694  42.450  12.510
74140W        W33434   5.368  17.640  10.146
74141W        W33435   3.386  30.072  10.494
74142W        W33436  25.509   8.209  12.863
74143W        W33437   7.688  33.387  11.058
74144W        W33438  29.518  41.805   1.765
74145W        W33439  37.415  43.275  14.961
74146W        W33440  18.297  38.516   2.254
74147W        W33441  15.766  26.197  10.450
74148W        W33442  31.092  13.326  13.916
74149W        W33443  15.610  44.777   0.362
74150W        W33444  39.903  22.735   4.830
74151W        W33445  13.189  33.976   3.330
74152W        W33446  44.868  19.773  14.779
74153W        W33447  33.097  39.345   1.419
74154W        W33448  13.685   6.362  13.366
74155W        W33449   1.936  10.847   0.829
74156W        W33450  33.910  42.314  12.354
74157W        W33451  33.967   0.457   2.758
74158W        W33452  39.363  27.594  11.580
74159W        W33453  23.690  29.482   1.734
74160W        W33454  12.715  25.166  11.945
74161W        W33455  12.768   4.761   3.225
74162W        W33456   4.367  34.428   4.684
74163W        W33457  42.784  38.873   3.378
74164W        W33458  11.234  20.192   0.829
74165W        W33459  31.058   2.287   3.360
74166W        W33460   5.763  19.551   0.860
74167W        W33461  41.330  36.451   4.669
74168W        W33462  32.514  39.911  10.440
74169W        W33463  32.396  19.063   4.143
74170W        W33464  41.376  40.521  13.383
74171W        W33465  10.219  42.980  13.348
74172W        W33466  23.214  11.774   3.792
74173W        W33467  27.948  12.299  12.922
74174W        W33468  26.981  30.518   1.894
74175W        W33469  25.709   7.281   2.797
74176W        W33470  25.653  40.007   2.856
74177W        W33471  39.330  23.140  12.350
74178W        W33472  21.574  15.277  12.028
74179W        W33473  40.362  20.735  14.020
74180W        W33474  39.869  35.088   2.329
74181W        W33475  32.112  26.633   0.430
74182W        W33476  29.521   2.960   2.363
74183W        W33477   4.798  29.080  11.507
74184W        W33478  14.746  27.980   1.788
74185W        W33479  24.548  35.530  11.471
74186W        W33480  11.638  31.470  12.860
74187W        W33481  16.117  37.429   1.338
74188W        W33482  21.079  15.716  12.002
74189W        W33483  18.743  31.431   3.303
74190W        W33484  20.573  27.129   0.933
74191W        W33485  41.471  31.634   1.926
74192W        W33486  43.404  44.783   0.313
74193W        W33487  19.711  29.165  12.020
74194W        W33488  33.524  10.839   2.214
74195W        W33489  25.523  13.674  11.964
74196W        W33490  40.449  31.926   5.315
74197W        W33491  12.750   3.404  14.804
74198W        W33492  17.617  36.490  13.841
74199W        W33493  16.254  27.650   0.798
74200W        W33494  23.569  16.751   3.305
74201W        W33495  24.101   9.789  14.486
74202W        W33496  11.735   8.823  13.911
74203W        W33497  22.534  15.696  10.450
74204W        W33498  36.088  23.551   1.867
74205W        W33499  27.171  38.486   1.793
74206W        W33500  21.134  25.962   4.290
74207W        W33501   5.820  37.506  14.861
74208W        W33502  23.583  38.980   2.801
74209W        W33503  18.787  38.948   2.812
74210W        W33504   3.306  19.689  11.947
74211W        W33505   0.760  21.091   1.242
74212W        W33506  42.425  14.278  11.405
74213W        W33507  26.116  43.395   0.367
74214W        W33508  16.116  10.263   4.700
74215W        W33509  18.192  42.910   2.383
74216W        W33510  24.168  42.926  11.513
74217W        W33511   9.767  33.582  12.946
74218W        W33512  41.403   9.700  12.878
74219W        W33513  33.401  13.803  14.829
74220W        W33514   5.218   7.239  10.560
74221W        W33515   2.929  30.077   4.134
74222W        W33516  30.032  33.459  13.429
74223W        W33517  16.257  30.571   0.430
74224W        W33518  13.232   9.279   0.372
74225W        W33519  34.529  34.403  10.444
74226W        W33520   4.269  32.013  10.554
74227W        W33521  34.108  28.554   2.382
74228W        W33522  36.482  17.158  13.853
74229W        W33523   9.277  27.657  13.419
74230W        W33524  41.405  13.645  10.536
74231W        W33525  17.565  28.011   2.388
74232W        W33526  24.541   9.233   1.405
74233W        W33527  21.585   2.395   1.897
74234W        W33528  43.361  15.318   3.754
74235W        W33529  19.565   0.838   1.409
74236W        W33530   5.792  32.630  14.856
74237W        W33531  33.454   0.399  12.391
74238W        W33532  24.183  30.429  13.933
74239W        W33533  44.303  17.607   2.251
74240W        W33534  44.788  41.944   3.799
74241W        W33535   3.275  32.903  14.288
74242W        W33536   0.372  32.507  14.969
74243W        W33537  32.559  40.005  13.803
74244W        W33538  26.964  15.237  13.510
74245W        W33539  28.443  27.984  10.449
74246W        W33540  32.986  14.820   1.789
74247W        W33541   2.934  12.804  11.916
74248W        W33542  37.349  21.529   2.728
74249W        W33543  13.153  29.041  14.337
74250W        W33544   3.782  26.067  14.451
74251W        W33545  41.318  29.538   1.700
74252W        W33546  15.735  12.613   1.317
74253W        W33547  27.637  29.562   2.290
74254W        W33548   5.410  26.209  14.788
74255W        W33549  35.857  41.536  11.423
74256W        W33550   2.380  29.113  13.415
74257W        W33551  32.583  38.454   2.229
74258W        W33552  12.225   2.908  10.616
74259W        W33553  15.188  10.176   3.841
74260W        W33554  20.121  21.679  13.946
74261W        W33555  38.908  19.650   4.803
74262W        W33556  28.547  26.693  10.508
74263W        W33557  28.022  21.170  13.892
74264W        W33558   6.775   2.302  10.430
74265W        W33559  17.119  22.658   4.635
74266W        W33560  16.752  17.126  12.537
74267W        W33561   7.282  40.864   2.318
74268W        W33562  43.396   9.863  12.053
74269W        W33563  11.344  22.233  11.533
74270W        W33564  30.535  31.078   5.135
74271W        W33565  19.674   0.872  11.551
74272W        W33566  36.468  44.362   1.367
74273W        W33567   2.370  18.124  11.437
74274W        W33568   1.284  20.093  10.536
74275W        W33569   3.416   3.434  12.843
74276W        W33570  39.443  28.597   3.732
74277W        W33571  15.773   2.833  11.414
74278W        W33572  13.690  36.493  11.438
74279W        W33573   4.778  10.363   1.700
74280W        W33574  37.395   5.196   4.757
74281W        W33575  41.929  24.043   3.207
74282W        W33576  43.993  22.534  11.410
74283W        W33577  22.678  23.725   4.769
74284W        W33578   6.806  13.109  13.508
74285W        W33579  42.503  32.435  12.886
74286W        W33580  36.470   5.259   3.147
74287W        W33581  39.560   0.342  11.428
74288W        W33582  44.844  37.832   3.822
74289W        W33583   2.744  31.093   0.300
74290W        W33584  16.121  25.128  11.473
74291W        W33585  20.615  25.633  11.097
74292W        W33586  40.518  29.934  11.978
74293W        W33587  38.037   7.748   5.174
74294W        W33588   8.160  33.897  14.513
74295W        W33589  30.548  10.175   3.258
74296W        W33590  41.029  23.659   2.397
74297W        W33591  32.465  28.030  11.489
74298W        W33592  36.056  13.611   2.235
74299W        W33593   2.786  38.011   0.843
74300W        W33594  40.882  36.495  12.430
74301W        W33595  34.900  43.306  12.027
74302W        W33596  27.552  26.135   1.826
74303W        W33597  29.510   1.773   3.332
74304W        W33598  42.022   9.218  11.538
74305W        W33599   2.786  18.099  12.965
74306W        W33600  43.312  42.452   3.637
74307W        W33601  33.090   6.892  10.903
74308W        W33602  43.360  12.669   4.189
74309W        W33603   3.793  22.121   0.244
74310W        W33604   9.826  20.624   1.847
74311W        W33605   7.404  35.098  12.900
74312W        W33606   4.723   9.167   0.858
74313W        W33607  14.670  10.164   9.595
74314W        W33608  25.178  23.034  13.964
74315W        W33609  10.705   2.892   4.262
74316W        W33610  12.287  19.650   0.887
74317W        W33611  26.057  12.812  11.037
74318W        W33612  26.989  39.045  12.897
74319W        W33613  34.388   3.331   0.450
74320W        W33614  30.491  37.409   0.903
74321W        W33615  30.434   4.812   2.339
74322W        W33616  17.656  16.231   0.412
74323W        W33617  18.121   6.208  13.423
74324W        W33618  15.591  10.636  12.466
74325W        W33619   0.936  41.945   2.382
74326W        W33620  39.452  23.614   1.786
74327W        W33621  40.306  29.148   1.879
74328W        W33622  21.250   8.237  12.347
74329W        W33623  38.870  26.026  13.432
74330W        W33624  39.522  22.697   3.732
74331W        W33625  31.566   8.870  13.005
74332W        W33626  20.719   8.673  14.969
74333W        W33627  31.605  13.167  13.881
74334W        W33628  12.198   3.250  10.437
74335W        W33629  38.557  31.944   5.285
74336W        W33630   7.731  41.482  10.528
74337W        W33631  38.509  31.638   0.888
74338W        W33632  28.470   2.406   0.921
74339W        W33633  32.408  41.981   9.524
74340W        W33634  12.155  24.205   4.259
74341W        W33635   7.673   1.457  12.936
74342W        W33636  12.746   2.814   3.661
74343W        W33637  44.784  33.431  13.362
74344W        W33638   3.747  24.591   4.772
74345W        W33639  33.442  28.659   0.961
74346W        W33640   5.334  16.790  12.886
74347W        W33641  26.194   1.294  14.444
74348W        W33642  24.602   3.358   4.704
74349W        W33643  26.964  18.097  11.089
74350W        W33644  44.399  28.516   2.330
74351W        W33645  44.804  20.590   3.641
74352W        W33646  31.456  42.491   9.950
74353W        W33647  17.762  29.107   1.286
74354W        W33648  27.669  40.953  14.929
74355W        W33649  39.420  39.900  12.044
74356W        W33650   6.767   2.914   1.445
74357W        W33651  21.607  20.692  13.031
74358W        W33652  35.047  13.722   2.834
74359W        W33653  27.690  20.764   0.281
74360W        W33654   1.278  27.665  13.483
74361W        W33655  44.443  30.496   4.285
74362W        W33656  40.365   5.903  12.492
74363W        W33657  23.651  25.605   0.411
74364W        W33658  28.608  24.722  12.504
74365W        W33659  26.589  38.404  11.076
74366W        W33660  23.037  21.704  13.517
74367W        W33661   9.655  40.992   1.383
74368W        W33662   6.296  11.654  12.381
74369W        W33663  21.551  41.988  11.968
74370W        W33664  33.430  20.258   0.866
74371W        W33665  11.206  15.621   4.274
74372W        W33666  28.064   8.724  11.574
74373W        W33667  40.889  20.246  13.359
74374W        W33668  40.415  39.509   3.661
74375W        W33669   7.315  35.475   2.241
74376W        W33670  25.687   4.289   2.750
74377W        W33671  33.445   0.974  12.489
74378W        W33672  26.517  34.070   2.733
74379W        W33673  11.266  14.239   2.779
74380W        W33674   8.365   7.911  12.030
74381W        W33675  21.199  36.855  13.527
74382W        W33676  23.224  16.633   0.731
74383W        W33677  17.671  26.020   1.237
74384W        W33678   0.878  28.994   4.684
74385W        W33679  42.984  14.756  10.626
74386W        W33680   7.874  34.971  10.521
74387W        W33681  37.943  16.219  10.911
74388W        W33682   6.797  41.405   4.817
74389W        W33683  10.745  14.232  14.498
74390W        W33684  42.484  12.789   4.696
74391W        W33685  25.618  25.053   0.757
74392W        W33686  23.659  16.627  14.972
74393W        W33687  13.807  42.513  10.574
74394W        W33688   5.407  37.921  12.405
74395W        W33689   5.791  12.800  12.893
74396W        W33690  34.411  28.179   4.674
74397W        W33691  32.403  29.052   1.349
74398W        W33692  36.065  30.995  10.581
74399W        W33693   1.384  11.353  12.450
74400W        W33694  11.861  28.666  10.116
74401W        W33695  40.907  38.893  14.925
74402W        W33696  30.982  19.757   4.353
74403W        W33697  12.753  43.449  14.391
74404W        W33698   5.705   6.877   4.219
74405W        W33699   8.714   9.645  14.968
74406W        W33700  34.079  34.930  13.522
74407W        W33701   0.436  43.901   0.936
74408W        W33702  35.935  19.133   3.703
74409W        W33703  24.519  11.331  10.561
74410W        W33704  33.921   5.931   3.809
74411W        W33705   0.400   4.362  11.899
74412W        W33706  38.915  26.187  10.576
74413W        W33707  17.256  31.480   0.406
74414W        W33708  33.395  23.688   0.324
74415W        W33709  27.997  16.615  11.426
74416W        W33710  23.722   7.372   3.736
74417W        W33711  21.708  35.890   4.672
74418W        W33712  35.031  23.190   2.824
74419W        W33713   6.192  24.585   0.730
74420W        W33714  11.727  30.471   3.668
74421W        W33715  42.510   6.783  12.448
74422W        W33716   0.876  38.037  13.995
74423W        W33717   6.873  21.512   2.761
74424W        W33718  20.272  26.154   1.821
74425W        W33719   2.890  36.850   2.296
74426W        W33720  22.649  34.404   3.278
74427W        W33721   9.670  17.256  14.312
74428W        W33722  24.610  14.120  12.838
74429W        W33723  36.880  21.737   3.260
74430W        W33724  14.189  37.863   3.639
74431W        W33725  37.373  43.400  12.881
74432W        W33726  15.140  19.252  12.005
74433W        W33727  29.009   1.389  14.917
74434W        W33728  26.972   0.249   2.245
74435W        W33729  16.720  31.124  11.425
74436W        W33730  43.320   6.844   1.926
74437W        W33731  32.543  12.782   0.786
74438W        W33732  37.904  17.664   0.849
74439W        W33733  28.596  27.050  12.945
74440W        W33734  17.098  30.997  11.392
74441W        W33735  41.790  11.346  12.072
74442W        W33736  13.133  14.281  14.823
74443W        W33737  42.292  19.253   4.184
74444W        W33738  43.842   7.345  11.108
74445W        W33739  30.069  44.828  13.507
74446W        W33740  33.398   4.308  11.925
74447W        W33741  36.077  13.812  14.013
74448W        W33742   1.460  27.685  12.830
74449W        W33743   5.259  42.803  12.452
74450W        W33744  16.273  32.987  13.059
74451W        W33745  35.875  10.329  12.072
74452W        W33746   1.772  27.946  11.855
74453W        W33747  10.864  36.528  12.433
74454W        W33748   3.933  43.289  13.854
74455W        W33749  30.921  35.959  14.030
74456W        W33750  18.059  18.210  12.856
74457W        W33751   5.691  42.781  13.016
74458W        W33752  18.089  19.120  11.129
74459W        W33753  35.370   5.302   2.677
74460W        W33754   8.352  44.321  14.942
74461W        W33755   2.354  17.098  12.383
74462W        W33756   4.238   7.391  12.989
74463W        W33757  21.195   7.282   1.256
74464W        W33758   5.267  41.934   3.768
74465W        W33759  27.076  17.103   1.893
74466W        W33760   1.363  28.522   1.817
74467W        W33761  30.475  42.357   2.897
74468W        W33762  33.518   6.799   2.255
74469W        W33763  13.647   2.345   4.229
74470W        W33764  39.999   1.732   2.759
74471W        W33765  13.154   3.260   0.852
74472W        W33766  25.057  16.748   2.718
74473W        W33767  25.983  18.590  11.915
74474W        W33768  26.574  37.888   2.703
74475W        W33769  26.585  32.440   3.365
74476W        W33770  41.002  33.530   4.326
74477W        W33771   6.325  17.105   2.833
74478W        W33772   6.683   0.295   0.384
74479W        W33773  19.684  40.352   2.354
74480W        W33774  37.403  33.620  10.082
74481W        W33775  44.271   4.732  12.978
74482W        W33776   6.729  27.126   0.265
74483W        W33777  39.002  19.240   2.309
74484W        W33778  28.661  42.390  14.881
74485W        W33779  19.640  36.555  14.279
74486W        W33780   0.836  12.717  10.911
74487W        W33781  34.016  37.877  10.443
74488W        W33782   6.232  40.934  13.851
74489W        W33783   0.487   9.784   0.731
74490W        W33784  41.931   4.433  14.331
74491W        W33785  21.615  19.230   1.803
74492W        W33786  42.318  12.123  11.926
74493W        W33787  37.010   4.295  13.352
74494W        W33788  37.433  19.280   3.690
74495W        W33789   6.401  18.683  10.966
74496W        W33790  26.465  34.533   1.907
74497W        W33791  42.778  13.609  11.583
74498W        W33792  28.489  43.845  10.959
74499W        W33793  27.454  11.818  11.089
74500W        W33794  23.552  17.159   0.400
74501W        W33795   1.742  43.764   2.833
74502W        W33796  12.614  30.431   1.704
74503W        W33797   6.395  20.700  14.276
74504W        W33798  34.412   0.286   3.784
74505W        W33799  21.093  30.566  14.000
74506W        W33800  20.143  13.683  13.329
74507W        W33801  10.778  42.796   0.290
74508W        W33802  12.263  26.607   2.697
74509W        W33803  30.472  44.496   3.167
74510W        W33804  21.249  22.727  14.418
74511W        W33805  39.058  19.220  10.585
74512W        W33806  12.856   5.343   0.247
74513W        W33807  33.401  22.214   4.315
74514W        W33808  13.800  24.598   4.619
74515W        W33809  14.197   8.178  11.035
74516W        W33810   4.780  42.316   3.361
74517W        W33811  25.607  21.578  12.882
74518W        W33812  33.110  12.650  11.896
74519W        W33813   4.809  27.973  13.899
74520W        W33814  24.711  29.524  11.374
74521W        W33815  27.680  20.731   4.724
74522W        W33816  21.738  11.757   1.853
74523W        W33817  28.030  32.042   2.856
74524W        W33818   2.952  27.155   0.465
74525W        W33819  31.124  43.944  13.932
74526W        W33820  44.470  24.693   4.184
74527W        W33821   2.769  32.499  12.827
74528W        W33822  42.391   3.885   0.947
74529W        W33823  24.538  24.637  12.850
74530W        W33824   8.690  14.688  13.819
74531W        W33825  26.501  44.825  11.891
74532W        W33826  39.504  38.348  13.839
74533W        W33827   5.885   0.250  12.962
74534W        W33828   3.222  12.132  12.028
74535W        W33829   3.425  12.315  14.908
74536W        W33830  39.810  26.999  11.091
74537W        W33831  27.578  18.634   3.796
74538W        W33832  30.058   7.173   0.916
74539W        W33833  26.081  39.381   5.793
74540W        W33834  14.176  27.639   2.901
74541W        W33835  10.751  38.828   3.770
74542W        W33836  33.020  31.040  10.918
74543W        W33837  33.467   4.788  12.579
74544W        W33838   4.402  11.675  13.486
74545W        W33839   0.271   8.213   0.359
74546W        W33840  34.932  11.844   3.385
74547W        W33841  23.710  31.976   5.162
74548W        W33842  17.778  31.916  12.053
74549W        W33843  42.383  12.322  11.525
74550W        W33844  38.324  23.050  13.825
74551W        W33845  30.564   6.914  13.357
74552W        W33846  20.040  14.187   1.794
74553W        W33847   1.821   4.773  11.600
74554W        W33848   9.309  22.086  10.475
74555W        W33849  29.091  33.429   3.304
74556W        W33850   4.222  35.040   4.619
74557W        W33851   6.682  40.489  12.452
74558W        W33852   6.295   8.679   2.710
74559W        W33853  32.109  24.521  11.952
74560W        W33854   6.314   5.257   2.305
74561W        W33855  35.878  27.105  11.543
74562W        W33856  12.270  31.911   0.915
74563W        W33857  14.282  32.900   3.740
74564W        W33858   0.825  43.874  13.006
74565W        W33859  43.868  13.694   1.768
74566W        W33860  21.656  31.492  12.433
74567W        W33861  30.521   1.381   2.271
74568W        W33862  27.466  36.043  14.914
74569W        W33863  44.313  18.743  11.376
74570W        W33864  32.028   3.217  11.917
74571W        W33865  32.548   3.239   1.707
74572W        W33866   7.796  44.266   1.721
74573W        W33867  13.260  44.996  13.918
74574W        W33868  38.511  21.649   0.821
74575W        W33869   9.670   6.341   3.690
74576W        W33870   6.222  32.557   2.880
74577W        W33871  12.711  27.504   4.795
74578W        W33872  26.584  12.769  10.986
74579W        W33873   3.382  36.383  12.524
74580W        W33874   7.308   2.851  14.963
74581W        W33875  27.040   6.349   2.705
74582W        W33876  26.647  41.006   3.829
74583W        W33877   2.773  32.536   3.645
74584W        W33878  25.206  31.584  12.959
74585W        W33879  37.513  35.027   2.781
74586W        W33880  33.402  44.378   0.954
74587W        W33881  11.164  40.399   1.892
74588W        W33882  21.673  38.871  13.886
74589W        W33883   0.905  10.748   2.702
74590W        W33884   7.852  39.823   2.222
74591W        W33885  40.511  16.144  14.509
74592W        W33886  32.525   3.835  11.042
74593W        W33887  38.547  18.100   3.833
74594W        W33888  24.192  13.762  10.627
74595W        W33889   5.905  34.528  10.505
74596W        W33890   0.248  37.986   0.343
74597W        W33891  36.851  35.402  14.854
74598W        W33892  20.142   4.429   4.252
74599W        W33893  29.992  12.250   2.748
74600W        W33894   5.215  37.521   4.627
74601W        W33895  43.309  23.192  11.455
74602W        W33896  27.031  22.705  14.348
74603W        W33897  20.151  30.472   4.165
74604W        W33898  36.952  37.383  11.937
74605W        W33899  27.988  28.488  12.520
74606W        W33900  18.730   6.739   4.182
74607W        W33901  29.958  36.507   2.850
74608W        W33902  34.993  23.568  14.487
74609W        W33903  28.525  12.312   4.277
74610W        W33904   0.288   3.254   2.201
74611W        W33905  12.338  20.591  13.988
74612W        W33906   0.417  25.110   4.726
74613W        W33907   5.377  15.769  11.928
74614W        W33908  44.822   4.858   2.255
74615W        W33909  24.143  11.775   1.757
74616W        W33910  42.805  41.444  10.984
74617W        W33911  39.328  35.993  14.282
74618W        W33912  12.852   5.875  13.414
74619W        W33913  25.644  44.307  12.971
74620W        W33914  19.703   5.193   2.329
74621W        W33915  12.153  27.048  13.062
74622W        W33916  16.676  34.508  12.438
74623W        W33917  39.329  40.925  12.371
74624W        W33918  25.170  13.212  13.511
74625W        W33919  35.490  24.115   0.762
74626W        W33920   5.818  32.589  13.924
74627W        W33921  31.427  20.767  13.501
74628W        W33922  21.037  10.866  12.387
74629W        W33923   3.315  32.974   1.306
74630W        W33924  27.465  14.748  10.965
74631W        W33925  25.153  18.611  10.408
74632W        W33926   2.368  27.141   0.373
74633W        W33927  21.029  43.947  10.990
74634W        W33928   0.753  16.574  13.359
74635W        W33929  41.849  38.459  12.565
74636W        W33930  24.001  29.450   1.429
74637W        W33931  19.716  33.537  10.531
74638W        W33932   2.789  26.648   1.450
74639W        W33933  30.965  38.853  10.510
74640W        W33934  44.361  32.637   4.599
74641W        W33935  22.113  13.158  11.586
74642W        W33936  40.339   9.288   1.851
74643W        W33937  32.595  35.549  12.838
74644W        W33938   5.213   5.439  14.429
74645W        W33939  12.855  28.443  12.951
74646W        W33940  11.202  41.025   2.269
74647W        W33941  19.618  22.541  10.915
74648W        W33942  18.744  41.537   2.378
74649W        W33943  14.331  19.168  10.479
74650W        W33944  35.394  24.055  13.405
74651W        W33945  18.652  13.325   1.252
74652W        W33946  22.511  39.972  14.512
74653W        W33947  36.586   3.271   2.372
74654W        W33948  17.262  26.095   1.779
74655W        W33949  10.704  30.413   0.386
74656W        W33950  25.508  10.668  13.836
74657W        W33951   3.376   1.247   1.302
74658W        W33952  24.053   7.351   0.479
74659W        W33953   1.368   4.753   3.657
74660W        W33954  19.196  15.601  14.288
74661W        W33955  15.674   8.393   4.288
74662W        W33956  33.489  30.109   0.785
74663W        W33957   0.849  17.118  12.073
74664W        W33958  29.458  40.458  14.843
74665W        W33959   8.765  21.543  13.876
74666W        W33960  13.701   7.228   3.166
74667W        W33961  24.672  32.075   0.848
74668W        W33962  35.084   3.355  10.407
74669W        W33963   1.912   7.851   0.955
74670W        W33964   3.863   5.284  10.484
74671W        W33965  23.704  28.664   0.242
74672W        W33966   6.920   6.725   3.657
74673W        W33967  26.570  37.455   4.134
74674W        W33968  15.203  24.610   3.252
74675W        W33969  36.990  23.180   3.344
74676W        W33970  12.275   9.240   4.205
74677W        W33971  21.174  29.125  14.782
74678W        W33972  30.119  40.509  13.357
74679W        W33973  32.016  22.015  10.643
74680W        W33974  38.032  42.345  11.019
74681W        W33975  42.377   5.264  13.846
74682W        W33976  34.981  18.210   1.915
74683W        W33977   7.751  32.603  13.476
74684W        W33978  40.915   7.269  13.954
74685W        W33979  37.840  16.129  13.368
74686W        W33980   8.758  30.636   2.387
74687W        W33981  14.122  43.999  12.934
74688W        W33982  10.339  32.540  12.561
74689W        W33983  43.944   0.773   4.248
74690W        W33984  12.828  43.850   3.666
74691W        W33985  28.540  19.082   0.246
74692W        W33986  15.801  12.230  11.539
74693W        W33987  44.387  41.975   4.799
74694W        W33988  11.306   6.860  10.953
74695W        W33989  37.409  15.159   2.265
74696W        W33990   4.925  14.794   1.217
74697W        W33991   1.389  14.271   2.314
74698W        W33992  39.502  15.724   0.297
74699W        W33993  42.498  10.674   3.675
74700W        W33994  18.734   5.803  11.959
74701W        W33995  44.943  43.459   1.866
74702W        W33996  25.159  21.561   3.350
74703W        W33997   7.295  42.281  11.027
74704W        W33998   2.310  31.500  12.507
74705W        W33999  17.155   1.791   1.228
74706W        W34000  32.908  32.619  14.360
74707W        W34001   7.815   0.893   4.316
74708W        W34002  13.600  12.121   1.768
74709W        W34003  36.531  10.716   1.900
74710W        W34004   2.817  19.565   3.673
74711W        W34005  27.071  42.816  14.458
74712W        W34006  28.930  31.518  12.364
74713W        W34007  12.754   3.876   1.797
74714W        W34008   2.377  31.999   5.189
74715W        W34009  37.385  39.518  11.562
74716W        W34010   1.792   7.848  11.947
74717W        W34011   3.460  13.213  12.879
74718W        W34012  15.768  30.590  14.854
74719W        W34013  29.455  23.989  11.409
74720W        W34014  43.920  19.058   4.295
74721W        W34015  27.171  37.529   4.304
74722W        W34016  37.919   5.226  12.366
74723W        W34017  44.824  12.243  11.609
74724W        W34018  30.999  39.453   1.715
74725W        W34019  34.110  39.886   0.315
74726W        W34020  39.554  22.071  12.977
74727W        W34021  37.940   0.366  13.801
74728W        W34022  23.151  39.825   3.799
74729W        W34023  34.949  32.966   0.462
74730W        W34024  17.655  14.730  13.476
74731W        W34025   2.917   4.220   4.336
74732W        W34026  17.735  19.546   2.371
74733W        W34027  37.380   1.390   3.163
74734W        W34028  44.469  18.630  12.834
74735W        W34029   4.233   4.841  10.535
74736W        W34030   5.893   1.920  12.915
74737W        W34031  22.220  23.631  14.006
74738W        W34032  25.125   5.828  13.436
74739W        W34033  38.483   7.395  12.512
74740W        W34034  18.710   8.805   2.204
74741W        W34035  27.632  19.113   1.768
74742W        W34036  39.029  36.050   0.320
74743W        W34037  29.006   8.681   2.860
74744W        W34038  29.954   8.314   4.701
74745W        W34039  10.654  39.006   0.897
74746W        W34040  31.536  19.276   1.309
74747W        W34041   1.472  30.643  13.986
74748W        W34042   4.369  10.206   3.170
74749W        W34043  29.986  25.038  10.448
74750W        W34044   3.399  44.926   4.215
74751W        W34045  19.608  27.173  14.815
74752W        W34046  18.773  38.346  14.980
74753W        W34047  34.573  14.595  10.960
74754W        W34048   6.201  17.073   0.370
74755W        W34049   9.714  37.540   2.219
74756W        W34050  28.654  25.505   2.787
74757W        W34051  35.926   7.744  14.415
74758W        W34052  19.536  20.694   2.182
74759W        W34053  44.966   3.875   3.711
74760W        W34054  27.942  40.944  12.437
74761W        W34055  10.664  34.887  11.073
74762W        W34056  35.006  14.323   3.320
74763W        W34057   4.776   3.807   1.345
74764W        W34058  38.868   6.824  11.496
74765W        W34059   6.311  35.477   3.796
74766W        W34060  18.099  23.720  12.886
74767W        W34061   8.868  19.235  10.892
74768W        W34062  29.066   3.307  12.454
74769W        W34063  44.448  32.392   1.923
74770W        W34064   6.300  22.610  14.814
74771W        W34065   5.338  19.632   9.467
74772W        W34066   8.737  31.419   1.870
74773W        W34067   8.359  26.072   3.347
74774W        W34068  30.043   6.245  12.406
74775W        W34069  30.659  11.360   3.862
74776W        W34070   9.866  33.537   3.821
74777W        W34071  31.613  42.443  10.564
74778W        W34072   0.944  10.239   3.222
74779W        W34073   7.189  30.978   0.475
74780W        W34074  14.616  39.052  12.918
74781W        W34075  36.863  40.045   3.316
74782W        W34076   9.805  24.981  11.402
74783W        W34077  29.015  18.710  11.372
74784W        W34078   1.246  25.623   2.668
74785W        W34079  35.358   7.360   9.634
74786W        W34080  34.025  26.597  13.934
74787W        W34081   1.388   9.385   2.357
74788W        W34082  10.766  35.555   4.688
74789W        W34083  39.852  21.110   1.869
74790W        W34084  33.092  28.078   3.244
74791W        W34085   4.329   4.298   1.793
74792W        W34086  38.069  36.401   5.137
74793W        W34087  14.666  12.268   0.730
74794W        W34088   5.724  10.776  11.039
74795W        W34089   4.425   9.850  12.861
74796W        W34090  16.701  25.061  11.551
74797W        W34091  22.724  19.629  12.020
74798W        W34092  20.177  43.822   2.394
74799W        W34093  21.233  43.493  10.604
74800W        W34094   2.410  39.418   2.894
74801W        W34095  13.151  25.030  11.092
74802W        W34096  14.811  30.920   1.222
74803W        W34097  38.877  35.870   1.877
74804W        W34098   3.220  31.903   0.265
74805W        W34099  30.910  20.554   0.755
74806W        W34100   3.447  12.330   4.743
74807W        W34101  23.665  36.912   2.843
74808W        W34102  15.693   2.446  11.534
74809W        W34103   8.232  28.163   0.810
74810W        W34104  11.337   2.400   1.266
74811W        W34105  35.010  10.334  14.476
74812W        W34106  40.442   5.300  12.494
74813W        W34107  35.440  11.339   2.773
74814W        W34108  20.662  41.344  13.914
74815W        W34109  38.018  33.394   4.329
74816W        W34110  17.744  17.673   1.401
74817W        W34111  25.529  15.098  11.011
74818W        W34112  38.945  11.630  11.038
74819W        W34113  33.569  19.222   0.860
74820W        W34114  34.509  37.559   4.788
74821W        W34115  19.633  16.213  11.553
74822W        W34116   3.815  33.525   3.162
74823W        W34117  14.118  21.579   0.418
74824W        W34118  10.317  25.492   2.257
74825W        W34119  30.110  18.755  12.427
74826W        W34120  40.852   2.431   1.225
74827W        W34121  18.595  43.798   2.253
74828W        W34122   0.979  19.709   9.992
74829W        W34123   8.807  12.185   3.230
74830W        W34124  40.041  36.973   1.293
74831W        W34125   8.730   4.233  13.883
74832W        W34126  18.291  24.645   2.210
74833W        W34127  39.369  39.469  14.995
74834W        W34128  29.056  16.117   2.836
74835W        W34129  12.256  20.573  10.404
74836W        W34130   9.770  37.953   0.442
74837W        W34131  31.554   5.258  11.535
74838W        W34132  26.686  19.089   2.419
74839W        W34133  24.008  13.696   2.838
74840W        W34134  19.716  25.560  13.810
74841W        W34135   5.269  41.515  11.589
74842W        W34136  36.369  20.766  10.927
74843W        W34137  18.161  35.550   1.735
74844W        W34138  39.447  29.522   0.247
74845W        W34139  34.528  23.164  14.474
74846W        W34140  19.244  19.109  12.089
74847W        W34141   8.796   8.313  14.410
74848W        W34142   8.352  12.816  13.362
74849W        W34143   9.288   1.829   3.213
74850W        W34144  11.321  19.144  10.602
74851W        W34145  14.150   9.645   4.639
74852W        W34146   0.283  26.615  14.366
74853W        W34147  31.101  28.123  12.951
74854W        W34148  28.998   5.399   2.379
74855W        W34149  37.506  28.448   2.317
74856W        W34150   0.830  25.549   0.289
74857W        W34151   9.326   5.279   1.867
74858W        W34152  27.148  38.339   1.330
74859W        W34153  38.406  16.182  12.372
74860W        W34154  15.666  17.168  11.976
74861W        W34155  24.991  30.977  10.636
74862W        W34156  12.167  32.464  10.464
74863W        W34157  21.018  10.798  14.918
74864W        W34158  35.096  42.334   2.243
74865W        W34159   7.251   2.447  11.026
74866W        W34160  11.703  26.082  10.047
74867W        W34161  11.812  38.348   1.252
74868W        W34162   0.360  28.521   0.802
74869W        W34163  39.451  39.847   3.740
74870W        W34164  10.228   2.765   0.420
74871W        W34165  18.757  36.938   4.331
74872W        W34166  23.679   1.422   1.723
74873W        W34167   5.271  34.496  12.034
74874W        W34168  14.832  42.488   4.275
74875W        W34169  35.990  15.204   0.353
74876W        W34170  14.658  31.007  10.565
74877W        W34171  29.058  38.563   2.376
74878W        W34172  34.394  30.450  12.093
74879W        W34173  22.214  26.997   3.153
74880W        W34174  34.047  38.906   2.816
74881W        W34175  20.206  38.440  12.566
74882W        W34176   2.790  31.951   3.690
74883W        W34177  29.445  19.047  13.846
74884W        W34178  22.730  36.938   3.330
74885W        W34179  44.459  39.423   0.754
74886W        W34180  35.881   9.655  14.821
74887W        W34181  38.884  24.063   0.807
74888W        W34182   4.350  42.301  14.311
74889W        W34183  18.155  25.474   2.712
74890W        W34184  12.684  37.462   1.257
74891W        W34185  18.203   4.432  11.468
74892W        W34186  42.363  34.527  14.989
74893W        W34187   8.293  18.692  10.895
74894W        W34188  11.336   3.855   2.750
74895W        W34189   3.373  25.027  11.560
74896W        W34190  25.025   5.257   1.436
74897W        W34191   6.922   3.939  10.586
74898W        W34192  23.144  41.931  14.340
74899W        W34193  31.641   1.276  14.450
74900W        W34194  14.744  39.466  10.556
74901W        W34195  33.016  25.530  10.501
74902W        W34196  25.965  22.730  14.512
74903W        W34197  43.426  27.497  14.984
74904W        W34198  14.827  28.509  11.551
74905W        W34199   9.301   3.827  11.904
74906W        W34200  20.234   9.153   1.300
74907W        W34201  32.573   8.167  10.465
74908W        W34202  13.310  32.107   1.215
74909W        W34203  13.128   7.694   0.924
74910W        W34204  37.961  43.948  10.543
74911W        W34205  11.143  42.284  14.855
74912W        W34206  10.374  11.135   2.889
74913W        W34207  20.534  19.159   3.274
74914W        W34208  39.043   5.855   1.920
74915W        W34209  10.720   9.312  12.458
74916W        W34210   7.767  33.103  14.414
74917W        W34211  29.951   7.272   1.373
74918W        W34212  14.709   8.763  13.934
74919W        W34213   1.338   8.801   2.705
74920W        W34214  20.747  28.460   3.860
74921W        W34215  34.965  20.265  12.496
74922W        W34216  20.623  12.748   2.347
74923W        W34217   6.820  19.059   1.695
74924W        W34218  19.534  28.600   4.120
74925W        W34219   4.384  19.048   2.333
74926W        W34220  18.593   3.398  10.890
74927W        W34221  19.579  23.664   0.964
74928W        W34222  27.650  17.215   3.287
74929W        W34223  40.477  19.579   5.129
74930W        W34224  20.062  25.202   4.598
74931W        W34225  25.634  11.219  14.933
74932W        W34226  35.945   4.293   0.837
74933W        W34227  38.549  14.636   2.178
74934W        W34228  36.551  30.027   1.438
74935W        W34229  34.041  21.168  13.371
74936W        W34230   8.814  25.978  14.767
74937W        W34231  25.184   4.258   0.452
74938W        W34232   5.831  16.604   3.715
74939W        W34233  28.559  26.612   2.327
74940W        W34234  19.718  12.659  12.978
74941W        W34235  15.267   0.811   2.859
74942W        W34236  25.709  11.747   1.921
74943W        W34237  43.364  38.531  12.566
74944W        W34238  14.749  30.474   4.679
74945W        W34239  21.100  16.732   2.803
74946W        W34240  32.423   8.732   0.757
74947W        W34241  38.861  25.087   2.241
74948W        W34242  13.739  14.671  12.969
74949W        W34243  37.528  26.172   2.713
74950W        W34244   9.834  25.036   4.777
74951W        W34245  39.554  23.622  10.537
74952W        W34246  22.581  14.691   4.730
74953W        W34247  26.183  34.005   0.340
74954W        W34248  44.372  41.941  13.863
74955W        W34249  42.412  32.033   4.352
74956W        W34250  25.698  24.036   0.926
74957W        W34251   8.815  24.694  13.855
74958W        W34252  44.375  12.156  10.506
74959W        W34253  28.935  38.354  10.507
74960W        W34254  22.098  43.377  14.969
74961W        W34255  13.222  31.007   4.343
74962W        W34256  43.861   1.921   1.257
74963W        W34257  18.559  16.615  12.392
74964W        W34258   8.224  18.109   1.741
74965W        W34259  13.627  14.804   3.236
74966W        W34260  33.120  28.984  14.288
74967W        W34261  11.131  16.189   4.685
74968W        W34262  38.873  21.615   2.863
74969W        W34263   7.327  42.433   4.762
74970W        W34264  10.666   0.422   0.738
74971W        W34265  43.982  41.424  12.843
74972W        W34266  40.462  28.454  10.419
74973W        W34267   5.726  41.433   3.282
74974W        W34268  25.171  33.968   4.637
74975W        W34269   7.798  23.069  13.855
74976W        W34270  22.701  18.625   1.250
74977W        W34271  39.839   6.223   4.801
74978W        W34272  26.078  19.713  13.816
74979W        W34273   9.756  17.090  11.885
74980W        W34274  43.446  34.467  14.336
74981W        W34275   6.901  10.717  11.062
74982W        W34276  15.250   5.751   2.188
74983W        W34277  12.291  20.071   1.385
74984W        W34278  30.641  14.613  13.986
74985W        W34279  24.665  15.259  10.518
74986W        W34280  40.477  22.643   0.782
74987W        W34281  43.873  32.101  14.361
74988W        W34282  37.085   7.807  14.337
74989W        W34283  10.784  25.504   2.223
74990W        W34284  20.165  44.374  10.580
74991W        W34285  19.236  40.346   3.299
74992W        W34286  12.217  11.198   5.685
74993W        W34287  23.168  29.534  11.388
74994W        W34288   9.683  41.460   2.671
74995W        W34289   3.256  12.149   2.309
74996W        W34290  19.203  20.216  10.037
74997W        W34291  33.583  44.409   1.381
74998W        W34292  25.641  42.288   4.780
74999W        W34293  38.947  27.990   3.196
75000W        W34294  10.141   1.483   5.566
75001W        W34295  28.970  31.477  10.571
75002W        W34296  20.050  41.865   4.269
75003W        W34297  20.272  11.228  12.061
75004W        W34298  22.108  22.249  10.612
75005W        W34299  29.121  30.448  11.991
75006W        W34300  34.893  42.960  10.496
75007W        W34301  12.283  25.143  12.491
75008W        W34302  34.376  30.470   3.261
75009W        W34303   6.685  25.678  11.074
75010W        W34304  28.151  15.248  10.023
75011W        W34305  44.877  24.139   4.725
75012W        W34306  13.772  11.176   2.720
75013W        W34307   9.334  24.700  11.112
75014W        W34308  37.979  34.559   1.350
75015W        W34309  20.197  25.574   1.857
75016W        W34310  26.149  36.076   2.259
75017W        W34311   9.195   4.863  14.464
75018W        W34312  19.068  14.662   0.328
75019W        W34313  37.975  39.318   4.180
75020W        W34314  41.017  36.940  11.096
75021W        W34315  23.187  12.841   1.895
75022W        W34316  33.972  28.953   1.852
75023W        W34317   9.168  43.417   1.239
75024W        W34318   9.345   6.289   1.234
75025W        W34319  22.152   7.224  12.959
75026W        W34320  31.484  15.613  10.638
75027W        W34321  26.634  30.065   3.194
75028W        W34322  27.631  42.029   1.239
75029W        W34323   7.409  30.970   9.589
75030W        W34324  33.495  26.081  11.588
75031W        W34325  20.149  20.639   0.249
75032W        W34326  29.116   6.887  13.828
75033W        W34327  39.516  26.560   0.305
75034W        W34328  38.964  44.487   2.891
75035W        W34329   3.720  12.763   2.684
75036W        W34330  10.226  17.659   3.199
75037W        W34331  15.725   5.785  11.444
75038W        W34332   9.204  30.973   2.305
75039W        W34333   6.208   8.767   4.677
75040W        W34334  26.603   6.697  13.373
75041W        W34335  26.004  31.497  11.430
75042W        W34336   1.459  23.199  12.570
75043W        W34337  24.518  27.482   1.923
75044W        W34338  37.967  14.106  10.625
75045W        W34339  12.771   3.366  11.073
75046W        W34340  11.757   0.890   4.174
75047W        W34341  11.846  36.567  13.444
75048W        W34342  26.164  15.171   1.301
75049W        W34343  33.428  24.150   3.149
75050W        W34344  11.180  28.978   3.806
75051W        W34345  24.659  34.434  10.410
75052W        W34346   5.768  35.374  11.990
75053W        W34347  29.452  40.496   5.233
75054W        W34348  27.587  35.892   1.432
75055W        W34349  15.323  24.527  12.489
75056W        W34350  16.690  12.302   3.296
75057W        W34351  18.786  43.917  11.441
75058W        W34352  29.059  12.135  13.488
75059W        W34353  33.575   4.881  12.866
75060W        W34354  39.433   9.298  11.021
75061W        W34355  25.522  24.717   1.244
75062W        W34356  12.668  11.198   3.659
75063W        W34357   7.344   9.185   3.865
75064W        W34358  42.894  24.570   3.864
75065W        W34359  19.562  30.586  11.383
75066W        W34360  22.167  36.496  14.314
75067W        W34361  33.034  27.655  10.947
75068W        W34362  20.621  40.982   2.353
75069W        W34363  23.631  42.845   2.761
75070W        W34364   8.727  31.142  12.475
75071W        W34365  38.055  37.030  12.001
75072W        W34366  20.134  33.071  11.893
75073W        W34367   9.160   3.800  14.374
75074W        W34368  21.550  22.123  14.418
75075W        W34369  21.737  12.746  12.559
75076W        W34370  33.619  11.340   9.934
75077W        W34371   8.161   5.699   0.365
75078W        W34372  40.977  19.069   1.404
75079W        W34373  41.895  23.040   3.146
75080W        W34374  12.718  27.571   0.310
75081W        W34375  32.139  36.558   0.413
75082W        W34376  39.909  31.475   4.690
75083W        W34377  31.521   6.831  13.365
75084W        W34378  40.848   5.385  14.442
75085W        W34379   3.422  20.682   2.742
75086W        W34380   4.437  41.838   2.238
75087W        W34381  21.686  28.057   0.961
75088W        W34382   4.291  14.720  11.107
75089W        W34383  19.629  41.907   4.173
75090W        W34384  12.178  42.866   3.825
75091W        W34385  40.474   4.351   2.893
75092W        W34386  14.114  18.200   2.290
75093W        W34387  20.720  30.158   0.727
75094W        W34388  16.176  43.927   0.402
75095W        W34389   7.277  20.760  11.939
75096W        W34390  12.714  17.679  11.082
75097W        W34391  22.544  15.736  13.802
75098W        W34392  22.106  17.139   4.342
75099W        W34393  32.443  27.514  11.561
75100W        W34394  42.992   2.909   4.599
75101W        W34395  15.688  26.968   4.201
75102W        W34396  31.077  12.731   3.149
75103W        W34397   6.381   6.702   2.393
75104W        W34398  13.225  28.101  10.035
75105W        W34399  33.064   7.869   0.760
75106W        W34400  21.225  25.182   3.289
75107W        W34401  28.059  20.754   1.364
75108W        W34402  40.900  20.174   0.962
75109W        W34403  19.728  35.043   0.287
75110W        W34404   8.705  15.786   4.294
75111W        W34405  11.157  25.559  11.124
75112W        W34406  34.917  35.490   2.328
75113W        W34407  29.480   1.476  10.638
75114W        W34408  40.434  39.509  13.891
75115W        W34409   9.809  28.101  12.955
75116W        W34410  23.655  16.156  11.086
75117W        W34411  16.693  33.941  13.043
75118W        W34412  21.683  43.373   3.258
75119W        W34413  23.131  34.915   3.262
75120W        W34414   9.722   8.358   0.399
75121W        W34415   4.822  35.095  10.431
75122W        W34416  43.007  20.065   5.320
75123W        W34417  31.532  20.218   4.353
75124W        W34418  40.524  23.715   2.750
75125W        W34419  28.186  19.718   5.198
75126W        W34420  33.875  41.955   2.859
75127W        W34421   0.346  21.716  10.479
75128W        W34422   7.205  34.445  14.453
75129W        W34423  22.546  27.172  11.458
75130W        W34424  37.350   8.205  13.003
75131W        W34425  41.310  40.053   2.364
75132W        W34426  36.582  18.560   3.347
75133W        W34427  23.633  20.749  14.761
75134W        W34428  29.447  27.683  11.510
75135W        W34429   5.282  43.990  10.955
75136W        W34430  18.238  32.903  14.354
75137W        W34431  17.275  40.960   4.645
75138W        W34432  40.366  38.897  14.835
75139W        W34433  19.594  43.915  14.863
75140W        W34434  23.222  35.494   2.404
75141W        W34435  10.768  42.890  11.597
75142W        W34436  43.791   0.390  11.478
75143W        W34437  40.880   3.768   0.883
75144W        W34438  23.653  13.792  12.097
75145W        W34439   7.790   9.880  11.554
75146W        W34440  38.561  11.855  12.396
75147W        W34441  42.393  32.082  14.378
75148W        W34442  26.703   7.182  13.376
75149W        W34443  23.699   1.760  11.923
75150W        W34444  13.629  25.995  13.524
75151W        W34445  17.582  35.358  12.903
75152W        W34446  16.225   4.792  10.069
75153W        W34447  40.815  17.294   1.405
75154W        W34448  25.619   2.462   3.298
75155W        W34449  43.515   4.883   4.148
75156W        W34450  36.018  21.048  14.285
75157W        W34451  23.574   0.950  10.965
75158W        W34452  15.242  44.433  13.432
75159W        W34453  36.970   5.886   2.375
75160W        W34454  29.648  14.128  12.874
75161W        W34455  26.971  24.642  13.804
75162W        W34456  29.101  22.220   1.698
75163W        W34457   5.277  38.001   2.374
75164W        W34458  23.736  10.156  10.522
75165W        W34459  24.166  21.154  11.391
75166W        W34460  18.606   8.685  14.351
75167W        W34461   5.314  38.860   3.281
75168W        W34462  26.010  20.673   0.758
75169W        W34463  29.534  33.121   4.265
75170W        W34464  41.021  16.585   2.296
75171W        W34465  11.843   3.768   3.298
75172W        W34466   5.907   4.735   3.234
75173W        W34467  32.911   2.336  11.069
75174W        W34468  40.902  17.727   3.854
75175W        W34469   9.756  22.086  11.066
75176W        W34470  43.890  20.063   2.842
75177W        W34471  38.071  12.848  13.426
75178W        W34472   7.776  37.024  13.313
75179W        W34473  23.500  30.632  12.355
75180W        W34474  27.118   2.453  13.026
75181W        W34475  37.919  20.752  13.797
75182W        W34476  34.066  21.629  14.013
75183W        W34477  41.427  43.285  11.485
75184W        W34478   5.296   8.204   0.379
75185W        W34479  16.308  43.322  14.296
75186W        W34480  33.462  41.424   4.337
75187W        W34481  22.648  33.108  12.566
75188W        W34482  17.306  24.177   4.809
75189W        W34483  22.171  35.430  14.512
75190W        W34484   2.914  20.155   2.696
75191W        W34485   3.718  26.977  12.956
75192W        W34486   1.366  23.062  10.498
75193W        W34487  32.483  24.667   0.336
75194W        W34488   9.745  30.026  14.892
75195W        W34489  15.774  43.394  10.404
75196W        W34490   0.259   3.321  11.066
75197W        W34491  25.568   0.484  13.443
75198W        W34492  14.821  39.055   4.346
75199W        W34493  33.559  35.417   5.290
75200W        W34494  43.894   1.322  12.909
75201W        W34495  27.542  18.065  12.395
75202W        W34496  21.682  33.530  13.318
75203W        W34497  24.185   1.241   4.681
75204W        W34498  35.043  30.645   1.392
75205W        W34499  22.687  24.037   3.267
75206W        W34500  27.593   3.444  12.382
75207W        W34501  28.591   4.259  11.051
75208W        W34502  32.560   2.260  11.594
75209W        W34503  41.882   7.306  12.061
75210W        W34504  15.122  21.554  10.936
75211W        W34505  11.192  12.158   1.823
75212W        W34506  32.110  36.003  13.851
75213W        W34507  44.838  28.974   0.401
75214W        W34508   8.753   1.847   1.833
75215W        W34509  13.320  17.149   2.345
75216W        W34510  35.000   1.438  14.972
75217W        W34511  29.466   7.900   4.723
75218W        W34512  21.645  11.688  14.031
75219W        W34513   7.250  10.296   2.724
75220W        W34514   2.283  43.802  14.823
75221W        W34515  36.027  23.518   3.383
75222W        W34516  16.662  15.632   4.673
75223W        W34517   7.394  12.719   1.400
75224W        W34518   8.280  14.182  10.441
75225W        W34519  30.598  13.771  12.348
75226W        W34520  29.035  26.984   4.810
75227W        W34521  16.693  18.172  11.000
75228W        W34522  16.195  24.052  12.912
75229W        W34523  32.499  18.568  14.493
75230W        W34524  25.497  42.999   0.466
75231W        W34525  25.585  19.203   3.317
75232W        W34526  28.095  21.560   0.285
75233W        W34527  11.804   7.877   2.187
75234W        W34528  41.815  20.089   4.194
75235W        W34529  15.672  44.314  10.498
75236W        W34530   6.677  36.401  11.965
75237W        W34531  10.695  34.876  13.479
75238W        W34532  43.920   3.385   3.779
75239W        W34533  25.557   5.699   4.823
75240W        W34534  31.975  19.587   3.228
75241W        W34535  37.074  30.430   4.750
75242W        W34536   5.419  14.814   3.727
75243W        W34537  18.090  24.169  13.844
75244W        W34538  31.914  19.614  14.828
75245W        W34539  38.506  28.627   3.301
75246W        W34540  38.838  39.351  13.525
75247W        W34541   5.363  44.261   4.703
75248W        W34542  42.016   5.340  13.386
75249W        W34543  17.719  19.040  13.402
75250W        W34544   2.246   6.324  13.351
75251W        W34545  27.141   6.274  10.427
75252W        W34546  32.393  13.221  14.983
75253W        W34547  22.652  23.155   2.390
75254W        W34548   2.956  36.514   0.929
75255W        W34549  30.150  42.439  10.040
75256W        W34550   6.726   6.400   2.314
75257W        W34551  12.787   6.382   2.742
75258W        W34552  42.381  19.610   1.898
75259W        W34553   1.325  31.458  12.524
75260W        W34554  15.678  39.951  12.066
75261W        W34555  42.832  23.169   0.436
75262W        W34556  22.626  37.429   4.192
75263W        W34557  27.979   4.756   4.328
75264W        W34558  23.999  13.222  10.144
75265W        W34559  40.371  15.098   4.286
75266W        W34560   3.795  41.815  13.426
75267W        W34561  18.566  37.372  10.516
75268W        W34562  10.650  33.121   0.928
75269W        W34563  40.377  29.919  11.122
75270W        W34564  26.151  18.771  10.580
75271W        W34565  12.342  24.156   1.398
75272W        W34566  22.166   6.810   1.285
75273W        W34567  33.525   0.928  13.484
75274W        W34568  36.388  38.415  11.937
75275W        W34569   8.168   6.702   2.351
75276W        W34570  19.268  24.619   1.351
75277W        W34571  27.489  42.400   2.709
75278W        W34572  20.729  39.494   1.399
75279W        W34573  33.445  16.283  12.448
75280W        W34574  34.905  44.502   9.921
75281W        W34575  27.157  18.663   0.931
75282W        W34576   1.759  24.052  12.899
75283W        W34577  17.268  24.666   0.760
75284W        W34578  35.943  23.669   4.726
75285W        W34579  36.459  30.504   0.818
75286W        W34580  36.423  13.685   3.186
75287W        W34581   5.264  35.362   4.188
75288W        W34582  30.416  31.094  10.533
75289W        W34583  41.908  19.627   0.426
75290W        W34584  29.954   7.712   1.338
75291W        W34585  15.585  27.051  11.108
75292W        W34586   6.896   5.301   9.965
75293W        W34587  17.642   5.842  13.805
75294W        W34588  13.792  21.705  12.509
75295W        W34589  10.752  10.847   4.640
75296W        W34590  34.068  15.817   2.395
75297W        W34591  23.046  34.017   1.795
75298W        W34592  41.947  41.500  12.573
75299W        W34593  43.010  14.314  10.479
75300W        W34594  21.735  12.651   1.368
75301W        W34595  11.264   3.740  11.896
75302W        W34596   3.761  19.686   4.724
75303W        W34597  25.577  12.123  10.513
75304W        W34598   9.214  24.485  12.985
75305W        W34599  28.041  32.094   3.364
75306W        W34600  38.952  34.883  12.845
75307W        W34601  44.933  27.990  13.805
75308W        W34602  24.565   7.356   1.730
75309W        W34603   6.846  20.614   3.762
75310W        W34604  36.064  25.534  12.083
75311W        W34605   8.357  28.177   4.199
75312W        W34606  26.164  38.835   5.618
75313W        W34607  39.927   3.844  13.424
75314W        W34608  40.935  13.682  12.531
75315W        W34609  10.723  29.512   2.761
75316W        W34610  31.991  27.566   3.307
75317W        W34611  37.924  11.697  14.963
75318W        W34612  13.121  40.516   1.842
75319W        W34613  26.119   6.383  13.537
75320W        W34614   4.407  30.511  12.507
75321W        W34615  15.585  31.048   0.371
75322W        W34616  36.425   9.737  12.902
75323W        W34617   3.897  14.692  14.493
75324W        W34618  21.244  32.568  14.759
75325W        W34619  21.112  15.697   2.734
75326W        W34620  15.096  41.408  11.529
75327W        W34621   8.833   6.392  12.508
75328W        W34622  23.202  24.132  11.892
75329W        W34623   4.333  15.759   2.311
75330W        W34624  39.925  23.615   4.749
75331W        W34625   8.791  36.399  12.402
75332W        W34626  35.430  22.698  14.410
75333W        W34627  36.922  14.112  13.399
75334W        W34628   7.391  26.505  14.800
75335W        W34629  27.114  19.722  13.333
75336W        W34630  32.069  27.624   4.620
75337W        W34631   8.871   7.323   3.755
75338W        W34632  22.642  15.145  14.477
75339W        W34633   1.834  22.590   3.313
75340W        W34634  13.661  12.266  12.001
75341W        W34635   4.408   0.257  12.573
75342W        W34636   6.742  13.838   4.330
75343W        W34637  19.202  40.345  11.488
75344W        W34638  17.651  19.750  14.397
75345W        W34639  27.528  24.129  12.558
75346W        W34640   2.243  29.573  11.490
75347W        W34641  24.125  16.701  12.072
75348W        W34642  27.168  14.647  14.789
75349W        W34643  24.054   9.817   1.347
75350W        W34644  28.160  25.155  12.007
75351W        W34645  11.789  35.454  13.804
75352W        W34646  21.641  14.802  11.936
75353W        W34647   0.325  30.505  14.854
75354W        W34648  15.208  37.524   1.801
75355W        W34649   4.944  27.994   1.749
75356W        W34650  35.010  12.267   4.815
75357W        W34651  12.744  29.144   9.993
75358W        W34652  19.705  15.681  11.022
75359W        W34653   3.375  11.238  10.497
75360W        W34654   8.303  25.485  13.061
75361W        W34655  37.539  37.420   0.753
75362W        W34656  42.783   8.337   3.706
75363W        W34657  42.482   3.383   1.349
75364W        W34658  26.970  30.984  11.451
75365W        W34659  21.670  25.697   1.823
75366W        W34660  16.166  35.908  14.958
75367W        W34661  40.979   5.807   2.253
75368W        W34662  22.230  31.928   1.253
75369W        W34663  25.080  13.309  11.396
75370W        W34664  31.547   7.864   2.242
75371W        W34665   0.489  30.636  13.380
75372W        W34666  13.323  30.107  14.502
75373W        W34667  39.388  29.555   2.193
75374W        W34668  19.075  29.054   1.304
75375W        W34669   9.667  14.593  12.381
75376W        W34670   8.347  41.345  10.465
75377W        W34671  42.962  20.184   1.888
75378W        W34672  22.237  13.133   0.358
75379W        W34673  36.524  17.779  14.810
75380W        W34674  10.211  11.727  12.943
75381W        W34675   0.404  28.456   3.765
75382W        W34676  42.313  18.590  10.594
75383W        W34677   3.776   8.891  10.556
75384W        W34678  32.594  14.314  11.913
75385W        W34679  44.990  35.444  13.856
75386W        W34680   9.687   9.222   0.845
75387W        W34681  34.494  16.154  11.972
75388W        W34682  16.262   0.766  12.940
75389W        W34683   1.337   9.875  13.029
75390W        W34684  40.999  43.505   3.831
75391W        W34685   3.816  19.283  10.532
75392W        W34686  25.108  16.735   1.715
75393W        W34687   2.449  17.726  13.908
75394W        W34688   6.262  14.673   2.760
75395W        W34689  42.512   2.726  13.819
75396W        W34690  36.058  16.762  11.963
75397W        W34691  41.484  39.034   1.915
75398W        W34692  32.031  19.575   4.644
75399W        W34693  22.995  37.577   4.323
75400W        W34694   1.815   8.804  11.970
75401W        W34695   3.865  22.232  13.927
75402W        W34696  19.687  13.716   4.618
75403W        W34697   2.792   5.207   1.266
75404W        W34698  26.614   2.734   0.304
75405W        W34699  44.894   4.925   3.161
75406W        W34700   8.322  21.693   3.652
75407W        W34701  37.465  30.597  13.424
75408W        W34702  40.469  14.674  14.975
75409W        W34703  18.243  11.267   3.653
75410W        W34704  11.343  14.687   4.683
75411W        W34705  25.517   2.381  10.974
75412W        W34706  41.018   1.873   1.275
75413W        W34707  31.499  35.434   0.462
75414W        W34708  15.675   2.293  11.956
75415W        W34709  30.488   3.245  14.862
75416W        W34710  32.627  37.350  12.982
75417W        W34711  22.676   1.903  14.902
75418W        W34712  15.690  28.167  12.933
75419W        W34713  33.964  18.720   3.155
75420W        W34714  22.654  30.482   0.409
75421W        W34715  29.598  43.017   9.973
75422W        W34716  23.038  21.757  14.282
75423W        W34717  15.299  19.285  13.323
75424W        W34718  22.089  35.966   3.374
75425W        W34719  43.836   4.828  10.502
75426W        W34720  24.718   7.855  14.337
75427W        W34721  10.682  21.570  10.592
75428W        W34722  29.610  17.594  12.874
75429W        W34723   2.359  35.957   4.700
75430W        W34724  20.712  11.802  13.972
75431W        W34725  16.598  13.275   0.881
75432W        W34726   5.800  25.102   0.773
75433W        W34727   4.945   4.242   3.377
75434W        W34728  17.585  28.601   4.120
75435W        W34729  37.982   9.854   2.773
75436W        W34730  30.097  18.648  14.488
75437W        W34731  44.954  39.445  14.431
75438W        W34732   1.412  25.474  11.910
75439W        W34733  41.928  18.171   0.317
75440W        W34734  18.073  22.735   4.329
75441W        W34735   6.305  16.755   0.469
75442W        W34736  16.761  41.988  10.954
75443W        W34737   6.895  40.514   1.902
75444W        W34738  31.019  34.108   4.330
75445W        W34739  38.911  17.174  11.861
75446W        W34740  42.326  20.275  13.005
75447W        W34741  40.965  36.589   4.255
75448W        W34742  23.655  39.050   4.294
75449W        W34743  15.153  22.702   3.680
75450W        W34744  37.513  10.294  10.954
75451W        W34745   9.167  41.009  12.892
75452W        W34746  36.489  28.668   1.792
75453W        W34747  42.904  35.989   0.359
75454W        W34748  37.830   5.767  10.113
75455W        W34749   2.313   5.279   4.688
75456W        W34750  33.096   9.196  12.385
75457W        W34751  12.323   9.651  13.941
75458W        W34752  10.173   1.813   3.826
75459W        W34753  21.037  25.644  11.567
75460W        W34754  15.639  15.650  11.522
75461W        W34755  25.156  36.890   0.906
75462W        W34756   1.386  13.182   2.793
75463W        W34757  15.583  11.352   2.740
75464W        W34758  21.684  22.504   3.242
75465W        W34759  26.520  19.171   0.473
75466W        W34760  43.425  40.545  13.488
75467W        W34761  43.350   8.756  13.869
75468W        W34762  30.487   5.359  11.976
75469W        W34763  31.628  20.124  13.863
75470W        W34764  13.229  20.749   2.685
75471W        W34765  38.062  33.570  13.491
75472W        W34766  30.579  38.034   0.255
75473W        W34767   7.782  27.144  10.503
75474W        W34768  13.200  21.646   1.299
75475W        W34769   8.791  38.554  14.019
75476W        W34770  12.320  10.327   2.697
75477W        W34771  27.545  39.907   2.722
75478W        W34772   6.399   4.707   3.640
75479W        W34773  32.564  38.437   1.781
75480W        W34774   7.838  23.592  11.959
75481W        W34775  25.700  43.816  12.484
75482W        W34776  24.030   4.859  11.585
75483W        W34777   9.778  32.412  11.373
75484W        W34778   3.406  37.347   4.201
75485W        W34779  22.115  25.147   3.724
75486W        W34780  22.678   4.829  10.627
75487W        W34781  23.025  37.921  13.864
75488W        W34782  29.051  11.193  14.024
75489W        W34783  22.690  16.151   0.810
75490W        W34784  34.554  15.637  10.479
75491W        W34785   4.383   3.450  11.398
75492W        W34786  29.062  14.667  12.990
75493W        W34787   4.353  35.933   0.318
75494W        W34788  27.453  39.403  13.866
75495W        W34789  20.636   0.314  14.018
75496W        W34790  40.935  10.879  14.813
75497W        W34791  37.466  19.580   0.323
75498W        W34792  37.487   4.434  13.381
75499W        W34793  34.498   4.897  10.441
75500W        W34794   1.851  37.458   1.343
75501W        W34795  30.497   9.859  12.397
75502W        W34796   1.950  31.990  11.435
75503W        W34797   3.907  31.008   4.272
75504W        W34798  38.482   4.868   3.295
75505W        W34799  36.473   7.674   1.228
75506W        W34800  39.486  14.288  11.967
75507W        W34801  14.122  16.248  14.840
75508W        W34802  11.705   5.353  14.010
75509W        W34803   0.932  20.602   2.265
75510W        W34804  33.525  13.335  10.435
75511W        W34805  10.688  43.470  14.880
75512W        W34806  34.445  35.968  12.528
75513W        W34807  22.177   1.265   0.379
75514W        W34808  18.727  34.423  11.420
75515W        W34809  42.317  35.518  12.459
75516W        W34810   2.921  25.984   1.774
75517W        W34811   1.308   4.450   4.194
75518W        W34812  27.469   1.447   2.894
75519W        W34813  34.501  23.521  12.346
75520W        W34814  38.981  41.526   1.446
75521W        W34815  26.593  34.075   3.305
75522W        W34816  26.466   1.743   0.883
75523W        W34817  30.624   8.290   0.292
75524W        W34818  11.223  37.430   4.251
75525W        W34819  30.915  27.488  12.517
75526W        W34820  30.140  30.975   4.262
75527W        W34821  12.795  25.656   1.736
75528W        W34822  34.894  44.425  12.092
75529W        W34823  32.600  38.548   9.951
75530W        W34824  32.445  41.404   2.296
75531W        W34825  12.133  29.430   1.352
75532W        W34826  33.398  13.723   1.824
75533W        W34827  40.032  33.035   0.436
75534W        W34828   8.700  15.222  11.463
75535W        W34829  18.290  25.582   4.274
75536W        W34830   3.219  10.172  10.949
75537W        W34831  43.382   7.723   0.469
75538W        W34832   5.218  37.837   1.342
75539W        W34833   0.874  34.434  14.276
75540W        W34834   0.877  41.498   1.852
75541W        W34835  41.416  26.092  13.451
75542W        W34836   1.868  23.188  14.758
75543W        W34837  23.681  35.445  11.014
75544W        W34838   4.355   8.890  14.387
75545W        W34839  27.971  17.085   2.253
75546W        W34840  31.472  29.570  11.430
75547W        W34841  11.279  10.252   4.691
75548W        W34842  19.242  14.664  11.438
75549W        W34843   9.750  38.451  11.552
75550W        W34844  16.090  10.139  14.031
75551W        W34845  42.860  22.100  14.336
75552W        W34846   7.226  35.542  14.359
75553W        W34847  42.281  22.663  11.516
75554W        W34848  29.078  12.268  13.978
75555W        W34849   6.421   7.348   2.336
75556W        W34850  30.115   3.366  10.500
75557W        W34851  42.386   9.263  13.826
75558W        W34852  14.598  37.417   2.770
75559W        W34853  32.529  35.085  14.489
75560W        W34854  35.100  42.800   3.671
75561W        W34855  42.412   4.768  12.024
75562W        W34856  22.146  24.027   4.684
75563W        W34857   7.879  36.851  12.458
75564W        W34858  31.425   5.823  11.990
75565W        W34859  24.622  31.142   4.300
75566W        W34860   8.664   6.896   4.297
75567W        W34861  32.414  25.485  13.055
75568W        W34862  36.951  41.810  12.529
75569W        W34863  24.995  33.463  13.461
75570W        W34864  25.550  35.897  12.059
75571W        W34865  20.653  22.723  13.915
75572W        W34866   9.232  39.834  13.030
75573W        W34867  17.715  44.268   3.217
75574W        W34868  43.870  43.927   4.791
75575W        W34869  38.510  12.345   4.659
75576W        W34870  23.677  22.166  12.097
75577W        W34871  36.418  11.621   2.414
75578W        W34872  23.722  25.201  10.634
75579W        W34873  41.039  16.584  11.920
75580W        W34874  28.146  19.771  12.027
75581W        W34875  39.334  25.533  13.484
75582W        W34876  43.366  24.147  14.864
75583W        W34877  44.850  40.410   0.293
75584W        W34878  14.749  22.739   3.385
75585W        W34879  31.077  38.991  12.056
75586W        W34880  35.433  18.108   4.744
75587W        W34881  24.071  32.125   2.411
75588W        W34882  35.861  13.314   2.888
75589W        W34883  27.064   1.237  12.384
75590W        W34884  32.486  13.797  12.525
75591W        W34885  33.000  39.957   0.365
75592W        W34886  41.527   6.290   2.298
75593W        W34887  14.742   0.956   9.988
75594W        W34888  42.367  10.677  13.038
75595W        W34889  32.949  34.480   1.428
75596W        W34890  40.523   5.769   0.739
75597W        W34891   5.847  11.150  14.936
75598W        W34892  11.765   2.243   1.869
75599W        W34893  18.132  14.185   0.865
75600W        W34894   7.331  31.503   2.760
75601W        W34895  40.438  13.736   4.838
75602W        W34896   3.767  35.932  10.430
75603W        W34897   3.252  33.466   4.341
75604W        W34898  37.963   8.889   1.824
75605W        W34899  44.330  38.069   2.842
75606W        W34900  37.010   2.949  11.902
75607W        W34901   8.326  15.651   3.229
75608W        W34902  24.705   9.880   2.783
75609W        W34903  25.095   4.918   2.271
75610W        W34904  40.489  22.110   2.754
75611W        W34905   7.412  44.985  14.821
75612W        W34906  18.286  35.087  10.600
75613W        W34907   0.862  15.254   2.358
75614W        W34908  16.248   1.447   4.294
75615W        W34909   3.458  41.407  11.564
75616W        W34910  34.474  10.280   0.386
75617W        W34911  41.392  19.236   3.148
75618W        W34912   7.386  16.281  10.956
75619W        W34913  14.327  30.151  13.311
75620W        W34914  38.551  11.144  13.393
75621W        W34915  42.913   2.308  10.475
75622W        W34916  37.509  14.265   0.808
75623W        W34917  41.295  29.640   3.791
75624W        W34918  28.596   9.221   3.768
75625W        W34919  25.165  14.790   1.904
75626W        W34920  23.612  37.481  14.358
75627W        W34921  19.560  39.511  13.348
75628W        W34922  34.897   4.814   1.429
75629W        W34923  20.242  34.023  12.014
75630W        W34924  26.207  31.075   0.875
75631W        W34925  35.009   3.287  13.365
75632W        W34926   5.730  43.509  13.023
75633W        W34927  30.412  33.426  12.983
75634W        W34928  32.141  35.399  10.474
75635W        W34929   9.824  15.274   2.351
75636W        W34930  19.207  34.986   4.643
75637W        W34931  15.208  34.084   1.846
75638W        W34932  29.086  14.142   0.759
75639W        W34933  43.895  32.556  12.919
75640W        W34934  16.079  30.974  11.596
75641W        W34935  18.238  19.549  10.087
75642W        W34936  12.287   9.336   0.957
75643W        W34937  42.950  40.988  12.502
75644W        W34938  28.987  34.062   0.944
75645W        W34939   5.737   7.711   3.789
75646W        W34940   5.811  25.082   5.575
75647W        W34941  29.515  32.481  14.935
75648W        W34942   6.790  42.444  12.995
75649W        W34943  35.954   7.381   9.967
75650W        W34944  34.904  24.165   1.437
75651W        W34945  18.580  23.669   0.932
75652W        W34946  19.673  26.633  11.873
75653W        W34947  20.253  42.987  14.917
75654W        W34948   2.915  24.535  11.893
75655W        W34949  21.562   2.861   2.826
75656W        W34950  24.625  37.965  10.569
75657W        W34951  37.339  33.012  10.033
75658W        W34952   1.770  18.289   2.766
75659W        W34953  32.928   5.850   0.417
75660W        W34954  42.853  23.663  12.348
75661W        W34955  35.921  40.330  12.833
75662W        W34956   6.251  34.475  12.974
75663W        W34957  15.252   9.660  14.866
75664W        W34958  21.753  10.140  11.073
75665W        W34959  28.614  19.051   3.760
75666W        W34960   0.372  33.005   2.324
75667W        W34961  19.749  22.576  11.376
75668W        W34962  41.340  35.562   0.298
75669W        W34963  14.244   6.909   2.897
75670W        W34964  39.891  37.869  11.975
75671W        W34965   5.711  25.610   1.389
75672W        W34966  32.892  43.765   1.416
75673W        W34967   6.266   8.704  14.445
75674W        W34968  11.848   2.897   0.861
75675W        W34969  44.913  44.915   0.295
75676W        W34970  25.976  33.496   3.692
75677W        W34971  34.019   9.835   4.346
75678W        W34972  25.018  10.144  14.462
75679W        W34973  34.935   9.710  11.604
75680W        W34974  33.936  41.371  14.393
75681W        W34975  19.232  32.064  11.863
75682W        W34976  32.974   2.777  11.028
75683W        W34977   7.340  41.480   1.308
75684W        W34978  38.470   5.414  11.882
75685W        W34979  29.108  42.781  11.950
75686W        W34980  41.979   2.379   3.760
75687W        W34981   1.833  43.960   3.813
75688W        W34982   8.701  26.980   4.348
75689W        W34983  11.658  33.954   2.881
75690W        W34984   2.893   9.232   1.396
75691W        W34985  35.096  28.081  10.542
75692W        W34986  20.563  13.309   3.761
75693W        W34987  37.577   1.947  10.611
75694W        W34988  36.433  34.482  14.355
75695W        W34989  33.069  29.619   4.191
75696W        W34990  19.141   0.933  14.921
75697W        W34991   3.956   2.406  10.025
75698W        W34992   5.740  27.083   3.685
75699W        W34993  20.103   3.834  13.045
75700W        W34994  44.808   8.252   1.844
75701W        W34995   4.311  24.557  14.829
75702W        W34996   5.890  43.308   4.264
75703W        W34997  36.052   1.364  11.068
75704W        W34998  42.475  12.637  12.382
75705W        W34999  40.996   9.190  11.936
75706W        W35000   1.383  21.706  13.952
75707W        W35001   6.280  29.136   2.719
75708W        W35002  15.149  11.357   1.770
75709W        W35003  28.004  12.216  14.356
75710W        W35004  37.350  41.378  11.579
75711W        W35005  42.361  29.098   0.398
75712W        W35006  33.025   3.952  12.527
75713W        W35007  16.157  32.423   4.673
75714W        W35008  26.007  17.695  10.565
75715W        W35009  42.305  28.955   2.186
75716W        W35010  26.606   0.773  11.996
75717W        W35011   5.432  44.875   5.270
75718W        W35012  12.244   7.752  14.939
75719W        W35013  24.589   2.392   2.682
75720W        W35014  41.323  40.312  12.959
75721W        W35015  24.486  21.090  11.430
75722W        W35016  35.386   8.793   1.433
75723W        W35017  40.407  38.505   1.772
75724W        W35018  37.490  29.920  14.375
75725W        W35019   0.472  30.911  11.588
75726W        W35020  22.070   4.912  10.528
75727W        W35021  14.209   2.427   5.310
75728W        W35022  17.246   2.743  11.561
75729W        W35023  44.913  15.781  10.519
75730W        W35024  10.345  25.682  14.508
75731W        W35025  18.749  42.344  11.484
75732W        W35026  42.468  33.074  10.637
75733W        W35027   0.430  17.286   1.799
75734W        W35028  42.922  13.343  13.429
75735W        W35029  33.120  39.441   1.744
75736W        W35030  24.162  35.000  10.409
75737W        W35031  35.887  44.986   2.853
75738W        W35032  12.205  34.025  10.437
75739W        W35033  39.390   1.835   3.232
75740W        W35034  33.467  31.146  13.929
75741W        W35035  37.485   7.218  11.975
75742W        W35036  30.449  24.149  14.405
75743W        W35037   7.855  21.662  13.366
75744W        W35038   1.812   4.340   3.748
75745W        W35039   7.834   2.415   3.221
75746W        W35040  23.030  34.452  13.945
75747W        W35041  34.563  42.500  12.515
75748W        W35042  38.354  28.656  14.899
75749W        W35043  38.052  11.779  10.627
75750W        W35044  13.202  19.134   2.778
75751W        W35045   7.291  14.790   1.337
75752W        W35046   6.339  37.550   1.698
75753W        W35047  43.898  34.039   0.749
75754W        W35048   1.773  23.622   0.966
75755W        W35049  43.844   5.820   1.706
75756W        W35050  36.488  34.589   2.693
75757W        W35051  35.417  43.922  14.494
75758W        W35052  16.145  16.585   1.420
75759W        W35053  22.209  18.065   0.284
75760W        W35054  29.525  35.524  12.081
75761W        W35055  43.969  30.498   0.734
75762W        W35056  32.105  34.900   0.297
75763W        W35057  17.229  30.442   0.382
75764W        W35058   2.241   1.923  10.913
75765W        W35059  43.843  26.510  14.280
75766W        W35060   1.302   0.967   1.346
75767W        W35061  24.981  44.800   1.807
75768W        W35062  28.142  22.139   4.808
75769W        W35063  44.779  27.529   3.686
75770W        W35064  17.752  20.141   0.924
75771W        W35065  37.023  17.266  13.531
75772W        W35066  22.660  40.353  12.512
75773W        W35067  38.008   7.745   1.905
75774W        W35068  18.546  16.570   4.118
75775W        W35069   4.214  37.908  12.557
75776W        W35070  14.625  21.579  13.791
75777W        W35071  22.675  14.715  12.924
75778W        W35072   9.696  42.828   3.253
75779W        W35073  34.546   5.306  14.838
75780W        W35074  40.902   1.440   0.331
75781W        W35075  42.889   5.776   3.227
75782W        W35076  18.280  39.019  14.874
75783W        W35077  10.830  33.450  14.373
75784W        W35078  13.316  25.633  12.403
75785W        W35079  42.454  42.032  14.979
75786W        W35080  43.866   3.934  10.404
75787W        W35081   1.973  39.454  14.471
75788W        W35082  27.964  21.251   4.726
75789W        W35083  25.605   2.304   1.790
75790W        W35084   3.229   3.442   4.152
75791W        W35085  19.149  17.629   4.655
75792W        W35086  18.673  37.966  12.085
75793W        W35087  37.540  20.170   0.962
75794W        W35088  19.215  15.209  13.333
75795W        W35089   6.884   9.188   4.330
75796W        W35090  30.084  28.143   0.953
75797W        W35091  14.288  32.087   2.340
75798W        W35092  35.107   6.408  13.977
75799W        W35093  42.831  39.355   4.623
75800W        W35094  19.640   7.854   2.217
75801W        W35095   8.348  20.184  12.971
75802W        W35096  44.291  43.002   0.799
75803W        W35097  13.160  40.930   0.257
75804W        W35098   6.875  29.979   1.312
75805W        W35099  39.912   5.323   0.886
75806W        W35100   5.435   1.443   0.387
75807W        W35101  35.477  12.855  13.464
75808W        W35102   1.266  23.667   4.170
75809W        W35103  18.166  20.138  13.345
75810W        W35104  42.837   2.303   1.755
75811W        W35105  14.156  14.763  12.932
75812W        W35106   7.761  28.933   1.846
75813W        W35107  15.581  31.501  14.978
75814W        W35108   5.234  10.269  12.055
75815W        W35109  12.243  14.203  14.985
75816W        W35110  36.410  25.070   1.801
75817W        W35111  22.203  33.941  11.408
75818W        W35112  35.972  18.782   3.674
75819W        W35113   6.193  32.483  12.835
75820W        W35114   8.666   8.885  14.429
75821W        W35115  27.116  41.360   4.227
75822W        W35116  43.786  26.084   3.208
75823W        W35117  15.781   2.431  13.473
75824W        W35118  27.552  39.007  13.475
75825W        W35119  21.223  26.525  10.952
75826W        W35120  17.636   7.823  10.643
75827W        W35121  28.967  31.115  12.854
75828W        W35122  31.446  19.684  10.487
75829W        W35123  16.747  31.414   2.359
75830W        W35124   7.858   7.892  12.956
75831W        W35125  32.129  29.146   3.267
75832W        W35126  29.534   8.175   0.338
75833W        W35127  44.791  21.683   1.307
75834W        W35128  31.438  42.819  13.918
75835W        W35129  20.141  12.346   1.749
75836W        W35130  32.107   7.370  10.080
75837W        W35131  18.232  44.306  11.865
75838W        W35132  30.101  33.057  11.384
75839W        W35133   8.887   2.328  14.843
75840W        W35134   1.477   1.416  14.471
75841W        W35135  20.741  27.059  13.423
75842W        W35136   3.760  11.657   3.738
75843W        W35137   2.953  17.263   3.327
75844W        W35138  33.472  44.924   1.385
75845W        W35139   5.804  38.069  13.506
75846W        W35140  11.684  22.579  12.434
75847W        W35141  21.259   4.300   4.700
75848W        W35142  29.622  29.988  13.544
75849W        W35143  23.592  15.780  14.836
75850W        W35144  23.009  29.469   1.710
75851W        W35145  24.177  20.198   0.350
75852W        W35146  15.718  42.924  10.978
75853W        W35147  38.873  43.012   2.312
75854W        W35148  44.997   6.885   3.794
75855W        W35149  38.520  16.190  14.483
75856W        W35150  42.938  12.790  13.342
75857W        W35151  43.929  18.087  14.432
75858W        W35152   8.851  25.477   0.912
75859W        W35153  13.768  21.612  14.365
75860W        W35154  42.963  38.463  10.408
75861W        W35155   8.209  23.515  14.312
75862W        W35156  30.549  36.496   0.339
75863W        W35157  24.130  41.514   4.123
75864W        W35158  36.859  36.040  14.394
75865W        W35159  37.463  23.684  10.583
75866W        W35160  24.227  12.137   4.240
75867W        W35161  43.801  37.549  11.115
75868W        W35162  25.601  21.726  12.356
75869W        W35163   9.816  20.051   1.380
75870W        W35164  26.198  17.205   0.435
75871W        W35165  20.698  44.778   2.711
75872W        W35166  43.876  16.662   4.637
75873W        W35167  14.254  39.359  11.532
75874W        W35168  38.001  25.633   1.327
75875W        W35169   9.710  39.433  14.863
75876W        W35170  31.913  16.745   4.226
75877W        W35171  14.142  30.516  14.796
75878W        W35172   3.757  28.930   3.638
75879W        W35173  29.669  12.654   0.829
75880W        W35174  21.579   0.470  13.841
75881W        W35175  40.385   0.383  13.024
75882W        W35176  41.475  39.810  13.863
75883W        W35177  26.043   3.459   0.367
75884W        W35178   3.859  19.613  13.431
75885W        W35179  41.963   7.752   0.872
75886W        W35180  23.503   2.934  14.950
75887W        W35181  26.601   4.901   2.832
75888W        W35182  28.031  31.590   3.767
75889W        W35183   1.445   0.350  12.479
75890W        W35184   9.327  21.687  12.536
75891W        W35185   8.824  28.029  11.518
75892W        W35186  33.396  42.933  10.135
75893W        W35187  11.155  44.977  14.942
75894W        W35188  38.335  18.563  10.896
75895W        W35189  26.955  35.540  13.521
75896W        W35190  14.143  26.532  12.891
75897W        W35191   8.738  37.476  14.350
75898W        W35192  26.139  40.316   4.710
75899W        W35193  25.617  28.435  12.580
75900W        W35194  35.577  29.599   0.890
75901W        W35195   1.731  33.445  11.448
75902W        W35196  41.977  35.910   3.310
75903W        W35197  13.223   3.837   1.271
75904W        W35198   1.754  38.870  11.082
75905W        W35199   3.326   7.760  13.050
75906W        W35200   7.889  15.655   3.757
75907W        W35201   6.340  23.091  10.601
75908W        W35202  39.363  41.955   4.684
75909W        W35203   0.791  15.815  12.874
75910W        W35204  16.216  33.897  10.900
75911W        W35205  14.701  30.438   0.284
75912W        W35206  42.444  41.292  12.506
75913W        W35207   3.828  38.837  11.057
75914W        W35208  15.138  19.640  14.461
75915W        W35209  31.146   5.774   1.904
75916W        W35210  41.972  35.431  10.560
75917W        W35211  15.747  23.189   3.782
75918W        W35212  27.657  19.589   3.364
75919W        W35213  31.463  26.171   3.230
75920W        W35214  43.897  18.257   0.738
75921W        W35215  20.611  31.509  13.992
75922W        W35216  12.229  19.758  10.425
75923W        W35217   4.762  32.082  13.445
75924W        W35218  37.005  24.191  12.005
75925W        W35219  22.638   9.675  14.909
75926W        W35220  15.103  39.492   4.719
75927W        W35221  31.503  24.589  13.396
75928W        W35222  43.015  20.735  10.532
75929W        W35223  12.845  12.315  13.044
75930W        W35224  35.582  40.432   0.903
75931W        W35225  12.840  18.166   2.268
75932W        W35226  13.799  33.406   3.330
75933W        W35227  31.418  38.952  10.112
75934W        W35228  27.089  28.674   0.410
75935W        W35229  25.632  28.140  10.446
75936W        W35230  27.475  15.753  12.909
75937W        W35231  26.495  27.954   4.305
75938W        W35232  27.049  27.576   3.329
75939W        W35233  22.656   4.424  11.967
75940W        W35234  32.500   8.783   4.751
75941W        W35235   3.770  33.580  12.944
75942W        W35236  34.924  13.747  12.893
75943W        W35237  40.518   2.360   4.241
75944W        W35238   5.198   1.911   3.265
75945W        W35239   3.220  17.246  14.024
75946W        W35240   7.385  28.626  12.875
75947W        W35241  29.494   5.223  12.348
75948W        W35242   4.907  44.379   4.156
75949W        W35243  24.150  28.007   2.733
75950W        W35244   0.461  40.492   1.876
75951W        W35245   4.799  43.385   3.823
75952W        W35246  15.631  18.241   5.792
75953W        W35247  31.604  34.493   0.273
75954W        W35248   6.302  22.608   4.747
75955W        W35249  15.101  16.145   0.441
75956W        W35250  30.938  31.630  12.995
75957W        W35251  36.568   8.329  13.999
75958W        W35252  32.998  43.295   4.793
75959W        W35253  12.220  36.424   1.787
75960W        W35254  20.575  18.150  13.477
75961W        W35255  23.199  37.884   2.756
75962W        W35256  29.935   6.792   3.785
75963W        W35257  10.376   1.407  10.473
75964W        W35258  38.422  31.636   5.257
75965W        W35259  11.688  43.433   2.836
75966W        W35260  15.673  15.200   1.277
75967W        W35261  37.050  42.343  11.554
75968W        W35262  30.472  32.006  11.059
75969W        W35263  22.028   0.810   1.856
75970W        W35264   7.888  15.593  12.967
75971W        W35265  40.318  33.081  12.856
75972W        W35266  42.379  27.507  13.953
75973W        W35267  42.022  24.633   0.817
75974W        W35268   8.218  37.437  10.564
75975W        W35269  26.976  38.878   3.249
75976W        W35270  38.993   4.908   0.732
75977W        W35271   2.417   2.895  14.832
75978W        W35272  24.197  17.105  11.583
75979W        W35273  35.604  36.967   2.361
75980W        W35274  35.896   1.380   3.813
75981W        W35275  40.043  25.699  13.391
75982W        W35276  14.210   2.913  14.815
75983W        W35277  34.512  23.551  12.862
75984W        W35278  40.477  43.298   2.742
75985W        W35279   4.941  40.898  12.944
75986W        W35280  30.112   7.804   3.708
75987W        W35281  19.134  35.505   3.278
75988W        W35282  43.412  20.669   4.780
75989W        W35283  31.118  14.245  10.979
75990W        W35284  13.670  11.177  10.577
75991W        W35285  39.950   4.322  11.983
75992W        W35286  16.120   8.332   0.831
75993W        W35287  43.446  42.318   4.125
75994W        W35288  31.122   5.807  12.350
75995W        W35289  10.301  36.375   4.744
75996W        W35290  27.095   6.324  12.471
75997W        W35291  21.222  22.128   4.238
75998W        W35292   5.824  36.960   0.961
75999W        W35293  41.849   7.693   0.472
76000W        W35294   8.361  27.539  12.902
76001W        W35295  36.038  34.996  12.381
76002W        W35296  43.969  15.682   2.777
76003W        W35297  20.130  37.456  11.117
76004W        W35298   4.379   7.862  11.027
76005W        W35299  20.616   5.354   0.472
76006W        W35300  18.572  16.704  14.771
76007W        W35301   3.784  20.703   0.834
76008W        W35302   0.415  15.794  14.464
76009W        W35303  36.899  13.199  11.434
76010W        W35304  41.305  42.873  14.473
76011W        W35305  26.976  35.392   4.733
76012W        W35306  14.331  36.436  10.443
76013W        W35307   8.899  17.564  13.030
76014W        W35308  41.866   8.201  14.500
76015W        W35309  39.448  21.542  13.395
76016W        W35310  43.863  21.039  12.441
76017W        W35311   5.868  43.334  13.889
76018W        W35312  33.521   3.262   1.286
76019W        W35313  33.984  39.354  10.949
76020W        W35314  28.500  18.586  13.064
76021W        W35315   2.819  16.694  11.499
76022W        W35316  25.502  33.617   1.856
76023W        W35317  39.036  15.306   0.315
76024W        W35318  41.374  28.470   4.258
76025W        W35319  44.996   4.205   2.812
76026W        W35320  36.082  23.593   2.369
76027W        W35321  42.294  33.009  12.825
76028W        W35322  24.069   0.477  13.538
76029W        W35323  16.679  12.797  12.573
76030W        W35324   0.836  13.243   1.822
76031W        W35325  32.929  25.024  13.999
76032W        W35326   0.838   9.175   2.900
76033W        W35327  14.207  23.724   1.322
76034W        W35328  44.412  36.009   2.685
76035W        W35329  32.581  22.124  14.452
76036W        W35330  10.160   7.694   3.259
76037W        W35331  38.356  43.799  10.473
76038W        W35332  43.863  34.024  14.413
76039W        W35333  18.282  29.003   4.214
76040W        W35334   9.382  42.374  10.974
76041W        W35335  21.544  13.800   1.318
76042W        W35336  33.487  27.135  12.465
76043W        W35337  20.615  35.599   1.820
76044W        W35338  18.065  39.810  11.866
76045W        W35339  22.026  14.114   1.290
76046W        W35340  12.851  17.182  10.579
76047W        W35341   8.340  41.424  10.954
76048W        W35342  26.004  16.151   1.920
76049W        W35343  17.746   0.412   1.725
76050W        W35344  16.309   8.170  14.973
76051W        W35345   6.296  38.456   3.681
76052W        W35346  27.569   8.338  13.943
76053W        W35347   8.298  26.120  13.988
76054W        W35348  33.060  11.312   2.891
76055W        W35349  16.610   7.762  14.899
76056W        W35350   7.785  44.407  14.387
76057W        W35351  12.741  40.398   4.183
76058W        W35352   7.250  40.517   2.198
76059W        W35353   6.724  38.844   1.328
76060W        W35354   1.318   5.753   3.302
76061W        W35355  18.124   3.808   3.329
76062W        W35356  12.184  26.014  14.827
76063W        W35357  21.532  26.637   4.251
76064W        W35358   1.272  30.464   3.799
76065W        W35359  27.611  34.440  12.033
76066W        W35360  40.841   9.335  14.800
76067W        W35361  18.701  18.073  10.923
76068W        W35362  33.905  29.012   3.767
76069W        W35363   1.272  11.818  12.506
76070W        W35364  10.198   1.325   3.821
76071W        W35365  16.687   2.958   3.691
76072W        W35366   7.880   2.281   5.607
76073W        W35367   5.333   3.343   3.710
76074W        W35368  34.107   8.749   2.296
76075W        W35369  17.248  17.600  14.441
76076W        W35370  16.595  32.018   1.841
76077W        W35371  26.647  11.644  12.393
76078W        W35372  20.614  43.480  13.829
76079W        W35373  25.616  27.534   3.817
76080W        W35374  37.355  24.642   1.882
76081W        W35375   6.215  10.658  12.037
76082W        W35376  36.481   6.353   2.281
76083W        W35377  41.835  19.193  13.396
76084W        W35378  25.972   0.261   3.798
76085W        W35379  37.525   8.199  14.808
76086W        W35380  34.488  39.413  14.462
76087W        W35381  11.799  37.492  14.383
76088W        W35382  37.456   8.346   0.270
76089W        W35383  22.197  28.021  13.498
76090W        W35384  32.039   0.770   4.313
76091W        W35385   0.862  13.270  11.887
76092W        W35386  10.842  30.514  12.045
76093W        W35387  27.537   8.372   4.243
76094W        W35388   9.313  15.169  12.900
76095W        W35389   9.377  25.494  12.840
76096W        W35390   9.304  39.430  14.023
76097W        W35391  31.027  28.657   0.734
76098W        W35392  35.450  28.934  11.098
76099W        W35393  13.708  13.669  12.025
76100W        W35394  30.118  15.678   3.363
76101W        W35395   0.751  24.098  10.639
76102W        W35396  11.285  25.150   0.307
76103W        W35397  39.502  26.477  14.996
76104W        W35398  14.153   2.822   2.705
76105W        W35399  32.420  24.001   0.320
76106W        W35400  11.813  10.358  14.890
76107W        W35401  28.943  34.573  12.052
76108W        W35402  35.928  39.887  10.970
76109W        W35403  41.452  17.147  13.953
76110W        W35404  20.268  39.366   2.195
76111W        W35405   8.378   6.751  14.403
76112W        W35406  40.985  23.552   4.343
76113W        W35407  24.083  40.848   1.323
76114W        W35408  40.450  31.154   1.368
76115W        W35409  37.527  24.220   3.682
76116W        W35410  25.067  44.321  14.366
76117W        W35411  26.955  39.929   3.165
76118W        W35412  43.845  25.080  12.881
76119W        W35413  30.911  26.967   1.800
76120W        W35414  35.937  35.968   4.625
76121W        W35415  19.598   4.377  11.993
76122W        W35416  14.107  33.520   5.141
76123W        W35417  25.482  37.506  13.854
76124W        W35418   1.454   4.832   4.638
76125W        W35419  11.174  40.930  14.295
76126W        W35420  30.982  22.097  14.362
76127W        W35421  16.579   2.266   4.827
76128W        W35422  44.318   0.435   2.709
76129W        W35423  32.487  37.561  13.454
76130W        W35424  42.453   9.717   0.804
76131W        W35425  23.998  28.073  12.908
76132W        W35426  14.327  39.920   4.229
76133W        W35427   1.247  24.620  14.894
76134W        W35428  36.395   2.353   1.385
76135W        W35429  44.448   0.953  12.542
76136W        W35430  18.759  21.685  14.462
76137W        W35431  31.482  33.994  12.041
76138W        W35432  20.072   2.361   1.829
76139W        W35433  31.429  16.300  11.574
76140W        W35434   9.213  19.119   1.248
76141W        W35435  10.834  39.840  14.915
76142W        W35436  15.637  28.080  14.846
76143W        W35437   3.742  28.944   2.305
76144W        W35438  12.725  31.035  12.563
76145W        W35439  32.990  44.497   4.616
76146W        W35440  15.148  24.077  10.493
76147W        W35441  21.094  43.415   3.258
76148W        W35442   5.897  32.530   5.198
76149W        W35443  36.979  21.080   3.377
76150W        W35444  29.150  31.623   3.317
76151W        W35445  18.573  10.252   0.893
76152W        W35446   3.445  23.616   0.910
76153W        W35447  40.855  27.561  12.955
76154W        W35448  27.197  18.276  10.618
76155W        W35449  38.909  24.109   4.123
76156W        W35450  11.269   7.353  14.295
76157W        W35451  11.230  22.099  14.974
76158W        W35452   6.218  12.207   3.359
76159W        W35453  30.548  31.082  13.932
76160W        W35454  17.205  42.786  13.044
76161W        W35455  24.656   0.314  12.910
76162W        W35456  42.833  30.554  13.062
76163W        W35457  26.084  36.975  12.371
76164W        W35458   3.754  43.980   4.134
76165W        W35459  35.369  44.797  12.875
76166W        W35460  19.537  21.264  12.869
76167W        W35461  44.960  35.490   4.123
76168W        W35462  28.144  10.811  14.783
76169W        W35463  42.000  36.456  10.522
76170W        W35464  27.653  35.463   3.718
76171W        W35465   3.241  42.889  10.454
76172W        W35466  24.673   6.219  14.916
76173W        W35467  44.487  33.557   0.846
76174W        W35468  19.197  26.571  13.545
76175W        W35469  29.527  18.265   0.920
76176W        W35470  28.170  18.572   3.742
76177W        W35471   4.874  20.173   4.665
76178W        W35472   5.213  19.754  11.899
76179W        W35473  12.209  12.145   0.318
76180W        W35474  17.165   8.771  10.624
76181W        W35475  13.291  34.947   9.944
76182W        W35476  23.665  36.465   4.687
76183W        W35477  10.384  12.156   2.810
76184W        W35478  33.004  37.433  14.839
76185W        W35479  43.425  13.601   0.872
76186W        W35480  34.071  40.861  14.489
76187W        W35481  41.001  19.695  12.423
76188W        W35482  19.665  24.985  10.926
76189W        W35483  22.564  39.379  13.056
76190W        W35484  28.932  38.560   4.178
76191W        W35485  37.562  23.018   0.387
76192W        W35486  36.020  35.532  13.351
76193W        W35487  24.031  25.085   1.798
76194W        W35488   1.907  15.707  11.881
76195W        W35489  11.247   6.859  10.466
76196W        W35490   2.852  31.020   0.768
76197W        W35491  35.456   4.870   1.700
76198W        W35492  15.716   9.341   3.231
76199W        W35493   9.272  12.273  13.958
76200W        W35494  42.501  34.892   2.784
76201W        W35495  20.098  30.494  13.811
76202W        W35496  24.671  38.556  11.892
76203W        W35497   0.830  22.229   2.184
76204W        W35498  12.813   9.874  14.397
76205W        W35499  37.840   8.757  14.892
76206W        W35500   6.868  25.184  11.084
76207W        W35501  36.977  20.109   4.293
76208W        W35502  36.953  18.098   2.284
76209W        W35503  20.137  23.212   1.433
76210W        W35504  43.890  15.143   0.801
76211W        W35505  38.329   1.392   3.762
76212W        W35506  13.195  19.209   0.276
76213W        W35507  33.425  34.447   1.415
76214W        W35508   0.485   9.674  12.341
76215W        W35509  18.553  38.960  12.860
76216W        W35510   0.279   3.892   3.862
76217W        W35511  44.933  43.329   4.751
76218W        W35512  13.138  19.718   0.348
76219W        W35513   2.348   7.299   5.148
76220W        W35514  43.957  15.130   2.713
76221W        W35515  22.025  40.052   4.203
76222W        W35516   0.916  33.492   0.257
76223W        W35517   0.901  16.277   1.378
76224W        W35518  36.415  36.046   3.164
76225W        W35519  19.700  42.288   0.275
76226W        W35520   3.743   9.657   2.397
76227W        W35521  10.199   7.404  14.339
76228W        W35522   2.768  36.988  11.483
76229W        W35523  36.436  14.675  11.469
76230W        W35524  36.977  17.182  14.003
76231W        W35525  21.119   4.757   5.205
76232W        W35526  15.666  20.724   1.772
76233W        W35527  39.537  23.005   4.783
76234W        W35528  28.159  26.658   4.677
76235W        W35529  23.069   3.305  10.404
76236W        W35530  40.809  32.896  11.374
76237W        W35531   1.476  40.547   0.726
76238W        W35532   2.311   5.896  11.091
76239W        W35533  32.143   9.157  13.800
76240W        W35534   0.409  10.347   3.730
76241W        W35535  32.097   7.718  14.853
76242W        W35536  10.141  15.645  14.282
76243W        W35537  20.108  15.299   2.736
76244W        W35538  12.225  44.765   1.341
76245W        W35539  15.626  37.452  14.446
76246W        W35540   4.306  18.116   0.243
76247W        W35541   9.282  30.656  13.921
76248W        W35542  36.907  17.284   2.365
76249W        W35543  39.822  33.961   1.211
76250W        W35544  38.475  27.115   0.726
76251W        W35545   1.355  30.915  14.288
76252W        W35546  21.592  28.442   0.259
76253W        W35547  15.265  13.608   2.686
76254W        W35548  36.914  19.717  12.869
76255W        W35549   3.450  41.035   3.369
76256W        W35550  14.143  13.280  13.062
76257W        W35551  29.035  33.414  10.631
76258W        W35552  39.916   4.428  13.387
76259W        W35553  11.622  30.932   2.190
76260W        W35554  17.595   8.174   1.827
76261W        W35555  29.935  28.929   3.378
76262W        W35556  27.668  44.926   0.440
76263W        W35557   0.424  39.396  10.888
76264W        W35558   4.917   6.282  14.939
76265W        W35559  10.813  27.969   3.700
76266W        W35560   6.242  21.736   4.798
76267W        W35561  36.391   4.803   3.307
76268W        W35562  13.639  10.179  14.300
76269W        W35563  33.502  32.076  12.514
76270W        W35564  40.472  16.655  12.542
76271W        W35565  13.691  34.604  10.900
76272W        W35566  39.456  24.494  12.546
76273W        W35567   1.334   3.397  11.567
76274W        W35568  15.260  39.422  14.313
76275W        W35569  33.544  26.058   0.838
76276W        W35570  36.014  27.624   4.831
76277W        W35571   3.347  33.614  10.598
76278W        W35572  16.649   7.803  13.365
76279W        W35573  19.668   9.332  11.055
76280W        W35574  13.227   5.720   0.775
76281W        W35575  43.820  23.045  13.367
76282W        W35576  24.568   8.212   2.782
76283W        W35577  42.385   5.870  11.890
76284W        W35578   4.787  32.461  14.418
76285W        W35579   1.474  38.444  12.505
76286W        W35580  42.439  39.873   1.237
76287W        W35581  33.951  40.349   4.711
76288W        W35582  38.943   3.917   2.731
76289W        W35583  23.592  26.985  13.419
76290W        W35584  13.651  16.160   4.716
76291W        W35585  42.799  41.453  11.492
76292W        W35586  20.605   7.878   4.779
76293W        W35587  42.498  37.517  10.926
76294W        W35588  16.154  11.301   4.772
76295W        W35589  41.369   8.787   0.464
76296W        W35590   5.279  36.475  12.856
76297W        W35591   4.319  14.236  11.564
76298W        W35592  13.199  34.034   1.345
76299W        W35593  39.362  33.893  12.412
76300W        W35594  41.866  11.817  10.637
76301W        W35595   1.312   3.321  14.481
76302W        W35596  39.480  32.408  12.578
76303W        W35597   6.375  19.558   2.739
76304W        W35598   1.795  36.881  13.983
76305W        W35599  12.817  26.635  10.134
76306W        W35600   0.267   3.802  14.432
76307W        W35601  43.809  43.366  12.379
76308W        W35602  37.421  43.008   0.389
76309W        W35603  42.286  31.571  14.785
76310W        W35604   0.456  15.585  11.935
76311W        W35605  25.071   7.182   0.320
76312W        W35606  36.071  35.030  12.035
76313W        W35607   0.271  19.749  10.620
76314W        W35608  23.227  32.563  12.006
76315W        W35609  16.782  14.332   3.867
76316W        W35610  38.530  27.587  10.897
76317W        W35611   8.396  26.675  13.367
76318W        W35612  11.744  12.329  10.997
76319W        W35613  12.354  37.885   1.877
76320W        W35614  28.064   6.811   2.371
76321W        W35615  14.106  41.901   2.877
76322W        W35616  30.596  27.133   2.215
76323W        W35617  29.516  24.995   2.277
76324W        W35618  37.546  22.678   1.926
76325W        W35619  22.721  17.600   3.683
76326W        W35620  29.048  17.609   3.754
76327W        W35621  43.834  14.802   3.796
76328W        W35622  20.526  41.325  12.545
76329W        W35623  12.730   7.217   4.301
76330W        W35624   4.926  25.092   4.734
76331W        W35625  25.548  10.745  13.376
76332W        W35626   7.832   9.843  14.476
76333W        W35627   7.777  31.503  12.955
76334W        W35628  15.273  13.305  12.351
76335W        W35629  19.101   0.363   4.639
76336W        W35630  10.784   1.745  11.504
76337W        W35631  44.420  42.478   0.459
76338W        W35632  26.632  42.885   1.354
76339W        W35633  14.100  36.468   4.793
76340W        W35634   8.402  28.108  14.763
76341W        W35635  41.342  41.494   0.415
76342W        W35636   3.313  34.411   2.223
76343W        W35637  31.901  29.459   0.848
76344W        W35638  24.149  21.653  12.990
76345W        W35639  21.253  11.682  14.761
76346W        W35640  33.943   0.277   2.296
76347W        W35641  20.118  13.228   1.929
76348W        W35642   6.254  34.470   0.873
76349W        W35643  37.994  41.466   3.290
76350W        W35644   5.761  25.471  11.124
76351W        W35645  32.444  25.473   3.656
76352W        W35646   6.200  27.132   4.230
76353W        W35647  26.701  36.097  14.771
76354W        W35648  23.050  25.048  10.593
76355W        W35649   9.223  29.514   5.241
76356W        W35650   6.303   3.947   0.934
76357W        W35651  38.995  12.817   3.655
76358W        W35652  34.106  36.509  13.449
76359W        W35653  17.802  30.545  12.364
76360W        W35654  22.533  39.933  10.447
76361W        W35655   2.388  18.222  12.350
76362W        W35656  30.990  28.474  13.446
76363W        W35657  34.492  15.154   2.853
76364W        W35658  31.071  14.784  13.431
76365W        W35659  22.187  30.107  13.896
76366W        W35660  22.201   1.476  11.550
76367W        W35661   7.733  38.879  10.553
76368W        W35662  42.007   1.785   9.967
76369W        W35663  10.268  12.698  11.977
76370W        W35664  15.224  19.542  11.451
76371W        W35665  40.914  18.544   3.189
76372W        W35666  18.692  19.654  10.565
76373W        W35667  24.630  36.913  11.497
76374W        W35668  40.478   5.744   3.798
76375W        W35669  22.079   3.744   3.692
76376W        W35670  15.753  10.229  13.048
76377W        W35671  11.795  17.635   4.723
76378W        W35672   3.221  41.932  10.550
76379W        W35673  24.974  36.991   4.690
76380W        W35674   4.442   8.278  10.450
76381W        W35675  23.105   6.921   4.351
76382W        W35676   0.333  28.146  13.819
76383W        W35677  36.403   4.337  13.384
76384W        W35678   0.790  39.397  12.579
76385W        W35679  39.849  33.066  14.937
76386W        W35680  18.571   3.348  13.031
76387W        W35681  19.285  41.870   3.158
76388W        W35682   0.402   0.292  14.333
76389W        W35683   5.845  41.436  14.004
76390W        W35684   2.396   7.394  10.033
76391W        W35685  13.288  44.374   1.231
76392W        W35686  38.904  36.358  12.074
76393W        W35687  20.609   2.744   1.860
76394W        W35688   4.415  39.396   1.321
76395W        W35689   5.390  16.180   1.441
76396W        W35690  42.886   4.279   0.440
76397W        W35691   7.822  13.155  13.395
76398W        W35692  44.000  31.648  13.854
76399W        W35693  20.149  19.608   0.815
76400W        W35694  17.667  36.895  12.487
76401W        W35695   7.766  38.560  11.100
76402W        W35696  33.056  41.020  10.612
76403W        W35697   3.356  39.838  14.999
76404W        W35698   3.305  38.023  13.354
76405W        W35699   7.725  26.460  13.461
76406W        W35700   1.854  35.535  14.872
76407W        W35701   2.769  36.568   1.928
76408W        W35702  34.371  25.703  13.802
76409W        W35703   2.887   0.409   0.471
76410W        W35704  36.411  20.748   0.268
76411W        W35705  34.614  34.081  11.882
76412W        W35706  33.587  43.805   0.894
76413W        W35707  10.848  43.887   1.737
76414W        W35708  27.969  24.480   1.223
76415W        W35709  26.552  24.492  12.441
76416W        W35710  31.912  23.024  10.445
76417W        W35711  36.353  14.136   3.234
76418W        W35712  40.395   0.276  14.818
76419W        W35713   1.322   0.885  13.841
76420W        W35714   1.297  30.059   3.287
76421W        W35715   2.333  27.148   2.357
76422W        W35716  34.949  22.079  12.888
76423W        W35717   0.743  14.323   0.799
76424W        W35718  29.952  42.450  11.021
76425W        W35719  29.953  36.030   1.318
76426W        W35720  42.805  44.259  14.008
76427W        W35721  37.086  38.356   3.748
76428W        W35722   2.403   3.447   4.644
76429W        W35723  21.170  43.972   2.368
76430W        W35724   3.216   0.421   0.459
76431W        W35725  18.546  23.146   1.846
76432W        W35726  27.445   0.262  10.534
76433W        W35727  34.084   2.409  14.905
76434W        W35728  15.283  25.527  13.983
76435W        W35729  15.600  38.362   5.138
76436W        W35730  33.974   0.952  12.493
76437W        W35731  13.177  37.473  14.424
76438W        W35732  21.730   3.355  14.386
76439W        W35733   0.921  14.614  11.578
76440W        W35734  24.658  15.773   1.356
76441W        W35735  17.096   9.784  12.375
76442W        W35736  38.892  26.007   0.379
76443W        W35737  23.643  37.865   3.633
76444W        W35738  11.224  19.167  13.980
76445W        W35739  41.986  41.298   0.928
76446W        W35740  10.277  15.640  13.879
76447W        W35741  30.915  12.731  11.480
76448W        W35742  16.745   4.829   0.382
76449W        W35743  37.475   4.850  13.027
76450W        W35744  35.491  44.312   2.311
76451W        W35745  27.498  42.413   4.297
76452W        W35746  16.272  18.233   5.158
76453W        W35747  38.976  10.840   2.360
76454W        W35748   2.787  39.981  11.019
76455W        W35749  30.476  11.705  13.354
76456W        W35750  15.746  42.297  13.898
76457W        W35751  25.656   0.900  14.309
76458W        W35752  28.480  35.497  14.473
76459W        W35753  39.860   0.975   2.272
76460W        W35754  19.050  18.289  12.927
76461W        W35755  22.214  36.066  13.954
76462W        W35756  42.407  22.161  13.419
76463W        W35757   2.419  29.504  13.423
76464W        W35758   3.413  10.362  13.043
76465W        W35759  41.965  27.110  14.000
76466W        W35760  27.118  41.863   2.776
76467W        W35761   0.889  17.133  11.540
76468W        W35762  38.978  41.497  14.944
76469W        W35763  23.215   3.875  14.320
76470W        W35764   9.375  17.260   2.285
76471W        W35765  13.325   8.734  11.448
76472W        W35766  27.473  17.211   1.840
76473W        W35767  42.013   6.199   4.641
76474W        W35768  25.183  26.598  13.862
76475W        W35769  22.146   6.273   4.766
76476W        W35770   4.708  25.099  14.324
76477W        W35771   4.441  15.245  11.445
76478W        W35772  42.376  40.960   3.189
76479W        W35773  36.854  11.332   1.747
76480W        W35774  42.422  18.562  12.370
76481W        W35775  27.574   9.837   2.852
76482W        W35776  16.652  15.797  12.562
76483W        W35777  41.515  34.075  14.288
76484W        W35778  21.135  12.255  13.965
76485W        W35779  10.776  17.590  11.569
76486W        W35780  32.626  11.150   1.930
76487W        W35781  27.502  19.598   0.370
76488W        W35782  36.355  38.972   3.694
76489W        W35783  35.974  30.022   2.275
76490W        W35784  44.839  17.674  12.561
76491W        W35785  11.642   0.409   2.218
76492W        W35786  30.067  36.392   3.801
76493W        W35787  26.163  39.421  14.926
76494W        W35788  26.178   8.822  14.800
76495W        W35789  22.547  20.632   3.156
76496W        W35790  40.923  35.415  11.582
76497W        W35791  15.784   0.310   3.366
76498W        W35792   8.276  17.699  13.538
76499W        W35793  32.936   7.379  12.976
76500W        W35794  40.380  30.631  10.906
76501W        W35795  23.086  38.989   1.753
76502W        W35796   6.400   6.332  14.821
76503W        W35797  29.448   5.812   2.216
76504W        W35798   6.686  34.437  12.519
76505W        W35799  28.438   2.894  10.509
76506W        W35800   0.457  27.081  13.460
76507W        W35801  42.301  13.107  10.623
76508W        W35802  30.080   9.371  10.464
76509W        W35803  14.686  32.041  10.500
76510W        W35804  16.198  19.044   5.115
76511W        W35805  36.523  15.649   4.281
76512W        W35806  17.245  36.387  10.113
76513W        W35807  42.304  12.761  12.093
76514W        W35808  27.141  42.490   3.172
76515W        W35809  13.233  27.970   3.733
76516W        W35810  44.313  23.604   3.776
76517W        W35811  41.815   3.255   1.699
76518W        W35812  31.462  13.113   2.887
76519W        W35813  38.050   4.786  14.436
76520W        W35814  23.546  15.726   2.781
76521W        W35815   2.831  40.944  12.049
76522W        W35816  10.642  24.137  13.993
76523W        W35817  40.905  14.619  12.414
76524W        W35818   1.807  33.474   4.739
76525W        W35819  36.995  19.123   0.771
76526W        W35820  11.358  42.287   3.275
76527W        W35821   8.739  36.059  12.989
76528W        W35822  39.484   6.686  12.912
76529W        W35823   8.766  41.488  13.854
76530W        W35824   0.391   6.313  13.495
76531W        W35825  14.692  28.167   0.250
76532W        W35826  22.022  40.847  12.511
76533W        W35827  25.675   5.293   2.207
76534W        W35828  21.155  34.976   2.202
76535W        W35829   8.337  25.183   2.386
76536W        W35830   9.815  36.942   1.255
76537W        W35831  42.939   1.356   1.249
76538W        W35832   4.334   3.777   3.380
76539W        W35833  33.972  16.101   0.274
76540W        W35834   7.720  20.249   5.225
76541W        W35835   4.912  29.623   2.782
76542W        W35836  30.023  27.664  11.912
76543W        W35837  31.617  33.488  11.114
76544W        W35838  17.768  14.785  10.996
76545W        W35839  41.309  40.814  12.405
76546W        W35840  32.984  44.464  14.764
76547W        W35841  27.100  40.491   3.159
76548W        W35842  42.400  17.644  11.423
76549W        W35843  26.022   9.393   0.863
76550W        W35844  20.037  42.981   0.756
76551W        W35845   9.278  10.721   0.350
76552W        W35846   5.380  27.195  11.948
76553W        W35847  17.642  43.939   0.381
76554W        W35848  17.248  14.146   0.356
76555W        W35849   3.878  28.130   3.760
76556W        W35850  17.723   5.747  10.977
76557W        W35851  36.957  23.153   2.671
76558W        W35852  36.941  27.133   2.418
76559W        W35853   0.805  13.261   3.190
76560W        W35854  33.555  11.202   4.277
76561W        W35855  32.993  26.485   1.299
76562W        W35856   6.209  42.007  14.828
76563W        W35857  29.658  12.151   1.315
76564W        W35858  20.740   2.281   4.809
76565W        W35859   0.278  43.995  10.967
76566W        W35860  22.101  13.241  13.434
76567W        W35861  20.203  30.925   3.701
76568W        W35862  18.128  22.587  10.913
76569W        W35863  37.523   3.796  14.916
76570W        W35864  37.944  19.101   3.849
76571W        W35865  41.510  42.868  13.930
76572W        W35866   1.910  42.970  12.851
76573W        W35867  12.119   8.891  13.410
76574W        W35868   3.739  22.633   1.869
76575W        W35869  34.607   7.388   4.342
76576W        W35870  43.432  29.098  13.519
76577W        W35871   4.773  29.594   3.738
76578W        W35872   9.274  13.736  14.786
76579W        W35873  30.465  36.361   1.773
76580W        W35874  28.954  42.795   0.805
76581W        W35875   8.659  12.306  13.873
76582W        W35876  41.863  25.071  10.418
76583W        W35877  17.273  20.628   2.854
76584W        W35878  18.283  37.068  12.849
76585W        W35879  25.616  16.315   3.164
76586W        W35880  30.459  31.412  10.469
76587W        W35881  34.444  19.051   2.729
76588W        W35882  39.472  24.010  11.903
76589W        W35883  37.445  44.345  13.371
76590W        W35884  31.002   3.442  10.009
76591W        W35885  26.098  28.012   2.282
76592W        W35886  27.572  14.105   2.889
76593W        W35887  12.280  41.369  12.479
76594W        W35888  39.357   1.320   1.290
76595W        W35889  28.967  41.821  12.414
76596W        W35890   8.703  11.819   4.709
76597W        W35891   5.916   2.803  14.434
76598W        W35892  42.453  31.933  11.039
76599W        W35893   3.422  33.419   3.359
76600W        W35894  23.062  39.814   1.856
76601W        W35895  28.974  16.720   3.759
76602W        W35896  19.651  24.636  12.578
76603W        W35897  40.835   1.330   9.999
76604W        W35898  26.605  40.488   0.771
76605W        W35899  31.097  19.623   2.880
76606W        W35900  21.539  35.500  12.536
76607W        W35901  15.750   2.833   1.841
76608W        W35902  12.824  25.514   2.293
76609W        W35903  36.097  43.423   3.290
76610W        W35904  16.099  40.912   0.840
76611W        W35905   7.700  20.766  12.483
76612W        W35906   5.392  22.029   4.250
76613W        W35907   1.759  13.812   0.893
76614W        W35908   0.415  17.217  12.554
76615W        W35909  30.961  14.305  13.487
76616W        W35910  40.888  17.221   3.683
76617W        W35911  20.736  37.004  10.571
76618W        W35912   6.195   8.215   4.605
76619W        W35913  29.620  13.645  13.435
76620W        W35914  41.514   3.220  12.085
76621W        W35915  38.825   0.934   3.673
76622W        W35916  30.557  41.496  14.477
76623W        W35917  12.253  39.509   4.173
76624W        W35918  22.661  31.589  13.463
76625W        W35919  44.289  39.891  12.461
76626W        W35920  21.511  32.632  10.914
76627W        W35921  24.696  35.459  12.850
76628W        W35922  15.728  34.909  13.038
76629W        W35923  15.771   9.358   1.776
76630W        W35924  16.781  17.574   2.768
76631W        W35925   6.866   5.428   5.101
76632W        W35926  13.704  18.272  11.519
76633W        W35927  22.099  25.161   5.320
76634W        W35928  30.508   5.409  10.887
76635W        W35929  40.449   1.377  13.356
76636W        W35930  27.143   2.431   0.872
76637W        W35931  10.771  35.424  11.483
76638W        W35932   3.394  15.720  12.486
76639W        W35933   2.369  27.018   1.241
76640W        W35934  13.714  23.571  10.490
76641W        W35935  28.118   5.699   2.899
76642W        W35936  12.817  14.706  10.917
76643W        W35937  20.272   4.435   4.749
76644W        W35938  35.891  31.126  11.105
76645W        W35939  40.358  17.198   4.830
76646W        W35940  38.880  42.984  14.920
76647W        W35941  44.383  19.651  13.025
76648W        W35942   9.725  40.365  11.517
76649W        W35943  18.159  26.124  13.509
76650W        W35944  31.407  44.498  12.004
76651W        W35945  18.280  14.725  11.049
76652W        W35946  30.061  41.293   1.841
76653W        W35947   8.385  35.408  14.305
76654W        W35948   4.372   1.346   0.249
76655W        W35949  41.407  18.242   0.848
76656W        W35950  12.819  13.189   1.288
76657W        W35951   0.393  22.611  13.498
76658W        W35952   6.308  31.937  13.802
76659W        W35953  27.600  31.445  12.054
76660W        W35954   3.777  15.728  11.957
76661W        W35955  14.753   9.873   3.364
76662W        W35956  29.536  34.464  12.546
76663W        W35957  41.011   1.862   0.767
76664W        W35958   9.878  25.176   0.791
76665W        W35959  27.955   0.491   4.721
76666W        W35960  15.265  31.440   2.376
76667W        W35961  31.608   1.392   4.261
76668W        W35962  28.679  37.015   4.623
76669W        W35963   5.341  39.369  11.020
76670W        W35964  31.136   5.391   2.680
76671W        W35965  20.106   2.885   2.181
76672W        W35966  11.309  27.675  10.430
76673W        W35967  29.931  35.434  11.516
76674W        W35968  39.861  26.664  14.004
76675W        W35969  44.323  18.740   0.475
76676W        W35970  10.175  36.548  12.350
76677W        W35971  30.144  42.892  11.391
76678W        W35972  11.271  42.469  11.910
76679W        W35973  15.659  24.564   3.800
76680W        W35974  24.190  16.587  11.419
76681W        W35975   0.258  34.067  12.023
76682W        W35976  21.680  26.080  14.025
76683W        W35977   2.901  44.909  11.935
76684W        W35978  30.999  22.060   0.900
76685W        W35979  31.416  31.949  11.091
76686W        W35980  38.825  44.846  14.480
76687W        W35981  16.074  14.628  10.067
76688W        W35982   0.808   0.935   5.087
76689W        W35983  26.665  43.287  10.576
76690W        W35984  12.154   7.874   1.833
76691W        W35985   6.683  29.535  14.384
76692W        W35986  13.701   7.735   0.850
76693W        W35987  24.660  32.534   3.679
76694W        W35988  37.895  13.714  14.828
76695W        W35989  43.959  11.331  10.947
76696W        W35990  27.083   9.268   4.778
76697W        W35991  32.472  40.447  14.827
76698W        W35992  13.809   4.755   0.306
76699W        W35993  29.522  25.144   0.957
76700W        W35994  20.543  13.146  14.875
76701W        W35995  16.218  37.056   0.802
76702W        W35996  18.594  40.888  14.320
76703W        W35997  32.537  43.411   1.720
76704W        W35998   7.199  44.856   0.472
76705W        W35999  37.579  32.940   0.425
76706W        W36000  28.010  44.446   0.940
76707W        W36001  26.664  20.119  14.868
76708W        W36002  14.160  10.745  14.791
76709W        W36003  12.612  24.023   2.387
76710W        W36004   3.321  13.727  11.856
76711W        W36005  33.421  29.635  14.893
76712W        W36006  11.257  29.919   3.774
76713W        W36007  40.849  37.980  10.034
76714W        W36008  36.062  41.520   1.282
76715W        W36009   9.774  15.717  11.932
76716W        W36010  26.991  24.042   2.825
76717W        W36011  20.602  30.509   1.817
76718W        W36012  36.845   1.972  12.393
76719W        W36013  31.022   1.921   4.233
76720W        W36014  40.429  44.775  14.445
76721W        W36015  25.039  19.087   0.482
76722W        W36016  39.401  25.123  12.081
76723W        W36017  34.065  16.670   4.819
76724W        W36018  18.630  36.357  13.330
76725W        W36019  19.687  14.199   0.821
76726W        W36020  32.042  39.949  13.538
76727W        W36021   2.266  37.475   2.184
76728W        W36022  30.626  42.372  14.014
76729W        W36023  13.820   2.878  11.029
76730W        W36024  20.688   8.311   4.169
76731W        W36025  40.009  15.818   1.284
76732W        W36026   2.256   6.405  14.467
76733W        W36027  29.133   3.860   4.690
76734W        W36028  30.045  24.161   3.228
76735W        W36029  39.394  33.610  12.374
76736W        W36030  42.488  23.141   0.303
76737W        W36031  30.996  34.442   3.319
76738W        W36032  33.958  30.646  12.373
76739W        W36033   3.856  27.948   1.891
76740W        W36034   8.271  24.571   1.924
76741W        W36035  14.181  29.559  11.998
76742W        W36036  35.923  28.527   3.829
76743W        W36037  21.582  42.512   2.870
76744W        W36038   2.354  30.047  13.972
76745W        W36039  24.595  44.309   3.178
76746W        W36040  37.549   9.256   2.770
76747W        W36041   3.219  18.658  10.042
76748W        W36042  28.124  31.629   3.361
76749W        W36043  25.102  24.095  11.373
76750W        W36044   5.353  25.991   1.864
76751W        W36045  19.226  34.005  12.356
76752W        W36046  40.318  41.862  11.379
76753W        W36047   7.355  12.687  12.955
76754W        W36048   3.438  13.345   2.374
76755W        W36049  10.635  38.916  11.993
76756W        W36050  11.350  30.918  12.989
76757W        W36051  15.591   0.318   4.757
76758W        W36052  18.675  17.264  14.984
76759W        W36053  10.709  26.206   0.863
76760W        W36054   9.210  28.110  10.436
76761W        W36055  18.652  34.429  14.450
76762W        W36056  24.502  28.156   2.415
76763W        W36057  22.741  15.795   2.704
76764W        W36058  31.962  22.715  11.428
76765W        W36059  19.271  21.694   2.373
76766W        W36060   6.312   2.837  12.892
76767W        W36061  21.258  39.887  10.006
76768W        W36062  27.567  27.967  10.961
76769W        W36063  34.881  19.577  14.870
76770W        W36064   2.884  24.126   0.272
76771W        W36065  10.146  28.050   1.300
76772W        W36066   1.794  37.412  11.486
76773W        W36067  10.697  35.365  10.067
76774W        W36068   2.230  28.542   3.727
76775W        W36069  22.202  37.452  14.908
76776W        W36070   9.683  39.336   3.725
76777W        W36071  35.521  24.668   4.125
76778W        W36072   6.694   4.423   1.267
76779W        W36073  44.446   3.780   2.792
76780W        W36074  25.087  43.808   2.745
76781W        W36075   9.714  16.743  14.772
76782W        W36076   7.724  28.996   1.447
76783W        W36077  25.194  22.560  13.317
76784W        W36078  23.509  37.078   4.739
76785W        W36079  15.241  25.126   3.815
76786W        W36080   4.809  16.571  13.026
76787W        W36081  29.504  22.739   0.749
76788W        W36082  37.037   8.406   1.276
76789W        W36083  10.724  40.481   3.310
76790W        W36084  30.935  39.887   2.860
76791W        W36085  27.980  13.159  12.862
76792W        W36086   7.353  12.745  13.317
76793W        W36087  44.955  28.974   1.298
76794W        W36088  13.659  12.827   1.279
76795W        W36089  38.455  29.530  12.533
76796W        W36090  16.212  31.133  13.960
76797W        W36091  30.441   5.735  13.023
76798W        W36092   6.358  35.374  13.415
76799W        W36093  27.110  21.541  12.999
76800W        W36094  30.161  26.502  13.887
76801W        W36095  28.562  34.062  10.978
76802W        W36096  35.460  16.209   3.206
76803W        W36097  39.336   9.716  12.476
76804W        W36098  22.997  12.623   3.182
76805W        W36099  26.643  35.860  10.456
76806W        W36100  28.465  23.133  12.484
76807W        W36101  30.128  20.268  12.836
76808W        W36102  31.507  42.464   2.331
76809W        W36103  41.945  26.634   2.696
76810W        W36104  42.304  39.554   1.863
76811W        W36105   1.864  27.457   4.788
76812W        W36106  30.163  37.005  14.993
76813W        W36107  15.723  23.042   2.859
76814W        W36108   1.920   2.914  14.785
76815W        W36109  44.455  21.546  11.981
76816W        W36110  41.924  39.846  11.925
76817W        W36111  21.021  10.326  11.918
76818W        W36112  27.689  44.897  10.493
76819W        W36113  12.335   0.391   0.752
76820W        W36114  13.831   8.869   4.289
76821W        W36115  25.063  43.819   4.720
76822W        W36116  18.196  20.118   2.277
76823W        W36117  44.879  13.197  13.403
76824W        W36118   5.419  19.205  11.435
76825W        W36119   1.428  10.757  11.874
76826W        W36120  41.474  24.178   3.801
76827W        W36121  36.981  42.944   1.811
76828W        W36122  16.616  17.146  14.032
76829W        W36123  44.007  25.547  14.770
76830W        W36124   2.852   5.735  12.082
76831W        W36125  22.744   3.790   1.769
76832W        W36126   1.878  10.733   4.330
76833W        W36127  31.914  34.425   1.378
76834W        W36128  10.350  13.639   4.135
76835W        W36129  42.518  18.137   3.844
76836W        W36130  22.638   9.710  14.337
76837W        W36131  18.695  41.979   1.838
76838W        W36132  11.777  15.117  13.848
76839W        W36133  38.826   4.411   1.759
76840W        W36134  44.791   2.312   5.316
76841W        W36135  25.207  34.894  10.597
76842W        W36136  30.548  38.554   3.222
76843W        W36137  39.042   8.858  13.414
76844W        W36138  43.392  37.399  13.523
76845W        W36139  31.540  23.668   2.730
76846W        W36140  43.878  12.175  12.013
76847W        W36141  43.874   6.186  14.762
76848W        W36142   4.721   8.309   2.813
76849W        W36143  28.989  33.898   3.720
76850W        W36144  15.236  32.585   2.812
76851W        W36145   9.167  30.975   2.711
76852W        W36146   8.324  21.179   0.837
76853W        W36147   9.839   3.898   0.258
76854W        W36148  16.622  16.713   4.764
76855W        W36149  29.528  12.816   3.317
76856W        W36150  38.412  26.541   5.291
76857W        W36151   3.306  20.195   0.251
76858W        W36152  42.298  25.108   4.319
76859W        W36153   3.294  28.463   3.207
76860W        W36154  14.679  43.883  13.361
76861W        W36155  18.694   2.413  11.058
76862W        W36156  17.653  32.890  11.002
76863W        W36157  23.135   7.207   2.673
76864W        W36158  27.046  32.482  10.408
76865W        W36159   8.297  42.449   2.257
76866W        W36160   4.769   9.157   0.402
76867W        W36161  38.893  27.630  10.620
76868W        W36162  24.155   8.744   3.215
76869W        W36163  11.193   5.689   0.469
76870W        W36164  44.459  29.172  12.401
76871W        W36165  26.126   2.941   3.692
76872W        W36166   1.238  30.625   0.855
76873W        W36167  19.268  12.838   0.453
76874W        W36168  11.262  34.978  14.821
76875W        W36169  44.810  17.259  14.902
76876W        W36170  34.926   1.791   0.799
76877W        W36171  29.454  36.516  14.966
76878W        W36172  36.027  14.607   3.860
76879W        W36173  31.471   4.895  11.943
76880W        W36174  43.772   0.435  13.795
76881W        W36175  39.972  25.033   4.661
76882W        W36176  10.334  18.195   1.375
76883W        W36177   5.206   5.830  14.455
76884W        W36178  21.665   0.279  12.999
76885W        W36179  31.994   7.316   2.841
76886W        W36180   2.403  25.181   1.445
76887W        W36181   5.704  19.733   4.236
76888W        W36182  40.931  24.145  10.537
76889W        W36183  37.888  23.170  13.799
76890W        W36184  20.618   8.397  14.971
76891W        W36185  30.081  21.606   3.175
76892W        W36186   5.757  10.747   0.792
76893W        W36187  36.896   8.708   0.377
76894W        W36188  12.322  11.702  12.492
76895W        W36189  24.718  24.155   3.692
76896W        W36190  35.034  32.596   0.841
76897W        W36191  39.829   7.848  11.586
76898W        W36192   9.828  28.671  14.026
76899W        W36193  31.541  27.061  12.975
76900W        W36194  13.296   1.903  12.890
76901W        W36195  19.239  19.652  10.073
76902W        W36196  18.700   5.818  12.474
76903W        W36197  43.317   8.801   2.770
76904W        W36198  28.462   8.239   4.177
76905W        W36199  44.993  11.866  12.448
76906W        W36200  36.573   0.358  11.032
76907W        W36201  33.440   5.698  14.887
76908W        W36202  34.425  40.034  13.046
76909W        W36203   7.839  23.114   0.878
76910W        W36204  32.129  40.025   4.639
76911W        W36205  43.392  41.954   3.360
76912W        W36206  30.538  31.072  14.916
76913W        W36207  13.325  36.473   2.327
76914W        W36208  29.963  35.052  14.289
76915W        W36209  38.329  31.462   3.294
76916W        W36210  37.878  41.010   0.793
76917W        W36211  31.927  31.588  13.532
76918W        W36212  10.200  29.022  12.970
76919W        W36213  15.204  39.929   2.869
76920W        W36214   8.869  27.074  10.478
76921W        W36215  35.512  31.055   4.676
76922W        W36216  26.050  38.330  12.359
76923W        W36217  37.364  40.368   4.300
76924W        W36218  12.356  32.498   1.392
76925W        W36219   7.264  17.738   0.733
76926W        W36220  41.494   4.239   4.303
76927W        W36221  31.418  10.791   2.728
76928W        W36222   7.695  19.174  13.464
76929W        W36223  19.708   4.310  10.523
76930W        W36224  17.273   0.434  10.138
76931W        W36225  21.241  31.968  12.849
76932W        W36226  14.646  21.247   3.344
76933W        W36227  23.102   6.384  13.839
76934W        W36228   6.682  26.145  10.466
76935W        W36229  19.048  22.234   4.332
76936W        W36230  17.576  20.704  11.612
76937W        W36231  30.586   1.769  11.923
76938W        W36232  27.021  25.112   2.192
76939W        W36233  38.994  28.954   1.348
76940W        W36234  41.941  38.384   2.875
76941W        W36235   3.216  43.395  10.555
76942W        W36236  37.056  23.167  11.588
76943W        W36237  34.046  14.331   0.370
76944W        W36238  12.800  44.366  14.335
76945W        W36239  33.947   1.274  13.980
76946W        W36240  40.491  10.261  14.987
76947W        W36241  25.516  36.882   0.250
76948W        W36242  15.206  35.458   2.844
76949W        W36243   5.791  16.679  13.051
76950W        W36244  23.572  16.101   2.702
76951W        W36245  40.427   7.736  10.958
76952W        W36246  30.629  19.662   0.905
76953W        W36247  43.960  30.069  11.873
76954W        W36248  28.141  25.684  12.950
76955W        W36249  34.009   6.277   3.284
76956W        W36250   8.344  14.770   1.315
76957W        W36251   0.781   8.809  14.926
76958W        W36252  31.610  21.601  12.930
76959W        W36253  41.987   0.415   5.794
76960W        W36254   9.276  18.568   0.474
76961W        W36255  25.989  44.917   4.319
76962W        W36256   1.814  11.291   2.662
76963W        W36257  12.362  35.998  12.078
76964W        W36258   4.933  12.263   3.300
76965W        W36259  24.099  17.114  10.440
76966W        W36260  41.882   3.245  13.415
76967W        W36261   0.768  13.834  13.824
76968W        W36262   5.265  44.979  14.372
76969W        W36263  28.616  22.016   1.896
76970W        W36264   1.345  37.854  11.929
76971W        W36265   2.881  34.944  10.624
76972W        W36266  26.183  26.606   2.337
76973W        W36267  20.111   5.338  13.810
76974W        W36268  20.761  15.192  13.948
76975W        W36269  32.474  25.710   0.943
76976W        W36270  17.788  22.649   9.931
76977W        W36271  35.053  40.324   5.211
76978W        W36272  40.468   1.426  11.489
76979W        W36273  21.027  41.790   2.716
76980W        W36274  39.040  38.899   4.244
76981W        W36275  30.124  36.396  13.449
76982W        W36276  26.054  33.104  14.341
76983W        W36277  31.991  43.456   1.722
76984W        W36278  14.251  28.585  13.021
76985W        W36279  38.883  43.766  11.892
76986W        W36280  29.039  31.525  13.467
76987W        W36281   1.772  36.004   2.387
76988W        W36282   6.195  38.363  12.426
76989W        W36283  44.945   5.760  14.277
76990W        W36284  33.402  29.138   2.775
76991W        W36285   1.293  40.971  12.965
76992W        W36286   8.737  12.126  14.873
76993W        W36287  15.235  17.190   9.941
76994W        W36288   7.178  44.385   0.467
76995W        W36289  37.537  37.029  12.059
76996W        W36290  36.942  18.737   1.296
76997W        W36291  23.568  42.026   1.901
76998W        W36292   2.433  27.584   4.140
76999W        W36293  17.173  14.647   5.579
77000W        W36294  25.970  20.067  14.936
77001W        W36295   8.250  44.432  11.540
77002W        W36296  11.201   7.844   3.372
77003W        W36297   7.350  33.019   4.289
77004W        W36298   5.806  35.495  12.853
77005W        W36299  42.008  15.098  11.400
77006W        W36300  14.602  36.379   1.362
77007W        W36301  11.774  10.314   4.693
77008W        W36302  10.343  21.245   1.908
77009W        W36303   8.272   2.847  11.483
77010W        W36304  20.119  24.211   3.847
77011W        W36305  19.727  17.132   2.228
77012W        W36306  40.372  25.523   3.165
77013W        W36307  26.118   5.301  13.880
77014W        W36308  28.475  16.771  13.813
77015W        W36309  18.192  29.465   1.695
77016W        W36310  41.467  12.148  12.992
77017W        W36311   8.255  39.811  12.885
77018W        W36312  30.508  42.417   1.833
77019W        W36313  11.755  24.614   0.446
77020W        W36314   9.291  33.876  10.906
77021W        W36315  11.204  36.455   4.615
77022W        W36316  15.815   9.304  14.981
77023W        W36317   2.848  36.518  12.443
77024W        W36318   5.802  25.089  10.986
77025W        W36319  35.908  40.830  14.446
77026W        W36320  43.395  32.893   0.462
77027W        W36321  33.093  30.134   3.869
77028W        W36322  15.774  25.605  11.429
77029W        W36323   0.330   2.859  14.484
77030W        W36324  15.116  39.320   3.213
77031W        W36325  41.996  11.325  11.020
77032W        W36326  12.843  23.225  14.944
77033W        W36327  22.612   6.340  10.038
77034W        W36328  40.846  12.331  10.564
77035W        W36329  19.277  28.057   3.270
77036W        W36330  20.706   3.949   1.268
77037W        W36331  30.645   1.332   3.745
77038W        W36332  20.768   1.304  11.913
77039W        W36333  20.110  24.228  14.901
77040W        W36334   0.315  30.035  13.369
77041W        W36335  44.771   1.265   0.417
77042W        W36336  31.126  28.656  10.910
77043W        W36337  16.584  40.511  13.849
77044W        W36338  25.068  17.721  13.526
77045W        W36339   8.746   5.347  12.002
77046W        W36340  34.557  31.007   2.305
77047W        W36341  39.512   1.789  13.377
77048W        W36342   9.338   7.890  11.491
77049W        W36343  15.123   8.385  12.940
77050W        W36344  35.532   9.351   4.214
77051W        W36345   2.360   4.372   2.699
77052W        W36346  14.243  31.907   3.768
77053W        W36347  42.406  32.985  13.953
77054W        W36348  38.441  29.946   4.676
77055W        W36349  35.590  39.498   1.215
77056W        W36350  36.352   0.752   3.852
77057W        W36351   3.823  21.019  13.040
77058W        W36352   8.357  36.548   0.372
77059W        W36353   6.831  35.106  13.873
77060W        W36354  25.154   1.865   2.880
77061W        W36355  37.369  12.841  14.814
77062W        W36356  27.130  30.143  10.905
77063W        W36357  34.890  33.023   3.861
77064W        W36358  37.041  13.680  12.542
77065W        W36359  29.626  11.340   4.347
77066W        W36360  20.745  38.916   2.190
77067W        W36361  32.550  11.290  14.378
77068W        W36362  41.894  11.348   2.890
77069W        W36363  24.691  21.043   0.900
77070W        W36364  22.125  35.590  12.542
77071W        W36365  38.823   7.739   2.706
77072W        W36366   1.425  31.997   2.864
77073W        W36367  13.843  43.316   0.766
77074W        W36368  24.489  18.255  11.066
77075W        W36369  31.632  43.977   4.799
77076W        W36370  10.212  38.376  12.395
77077W        W36371  27.547  12.847  14.817
77078W        W36372  35.894  34.876  13.940
77079W        W36373  10.679  39.371   3.314
77080W        W36374  14.674   5.795  13.047
77081W        W36375  12.351   9.327  10.895
77082W        W36376  20.711  24.587  10.492
77083W        W36377  36.925  11.867   4.636
77084W        W36378  11.265  19.535  14.303
77085W        W36379  41.895  15.197   4.139
77086W        W36380  25.531  24.624  13.970
77087W        W36381  26.131  35.068  13.794
77088W        W36382   9.387  15.133   1.749
77089W        W36383   6.263  44.941   9.632
77090W        W36384  27.162  35.084   1.220
77091W        W36385  44.303  12.131   1.334
77092W        W36386  19.759   6.863   3.334
77093W        W36387  12.189  31.981   1.257
77094W        W36388  30.065  17.183   4.824
77095W        W36389  16.617  40.008  12.981
77096W        W36390  33.905   3.350  10.586
77097W        W36391   6.822  28.090   2.715
77098W        W36392  32.050  18.746   4.805
77099W        W36393  38.443   6.369   2.203
77100W        W36394  39.910   5.243   2.833
77101W        W36395  36.924  16.566   1.296
77102W        W36396  41.859  18.119  10.558
77103W        W36397  15.292  22.508  13.397
77104W        W36398  28.482  14.824  13.329
77105W        W36399  33.615  40.955  13.398
77106W        W36400  21.176  13.303   2.860
77107W        W36401  27.649  24.093  10.610
77108W        W36402  43.989  20.741  12.448
77109W        W36403  34.037   2.381   1.831
77110W        W36404  35.443  37.447   2.181
77111W        W36405   3.288  23.631   3.249
77112W        W36406  21.255  39.395   4.626
77113W        W36407  28.021  41.988   0.315
77114W        W36408  11.745  28.098   1.755
77115W        W36409  26.530  10.811   2.280
77116W        W36410  43.280  17.652   2.901
77117W        W36411  37.957  22.563   1.365
77118W        W36412  22.185   1.767  10.637
77119W        W36413  27.692  18.222   0.828
77120W        W36414   5.276  29.108  10.925
77121W        W36415  36.074  24.648  13.483
77122W        W36416   7.801  15.295  14.008
77123W        W36417  18.574   4.836   4.654
77124W        W36418  16.140   8.659   4.173
77125W        W36419   7.667  23.078   3.247
77126W        W36420  21.019  16.702  12.573
77127W        W36421   3.460  17.252   3.194
77128W        W36422  32.084  23.698  13.889
77129W        W36423  37.944  22.683  10.064
77130W        W36424  20.673  42.906   1.723
77131W        W36425  20.135  41.795  14.370
77132W        W36426  16.595   3.438  11.082
77133W        W36427  11.749  35.086  11.989
77134W        W36428  22.534  32.483  13.518
77135W        W36429  37.509  24.586  12.542
77136W        W36430  22.671  17.688  12.047
77137W        W36431   1.445  13.759  13.369
77138W        W36432  11.360  22.532   4.324
77139W        W36433   0.444  31.011   1.396
77140W        W36434  29.057   8.178   4.665
77141W        W36435  28.032  14.098   4.149
77142W        W36436  10.838  13.689  10.511
77143W        W36437   6.318  14.766   1.926
77144W        W36438  14.765  17.297  11.863
77145W        W36439  30.416  13.611  14.349
77146W        W36440  40.959   9.836  14.370
77147W        W36441  20.576  35.601  11.529
77148W        W36442  11.654  20.081  13.862
77149W        W36443  12.696  14.114  10.471
77150W        W36444  43.483  29.515  13.912
77151W        W36445  15.195  21.147  10.639
77152W        W36446  23.533  12.241   3.759
77153W        W36447  41.806  17.639   0.284
77154W        W36448   1.881  44.835   1.356
77155W        W36449  13.663  26.048  14.937
77156W        W36450  29.596  44.388  10.458
77157W        W36451  14.824  32.394  12.475
77158W        W36452   4.769  41.974   1.809
77159W        W36453   0.878  25.512  14.511
77160W        W36454  32.436  10.691  10.946
77161W        W36455  20.685   4.723   4.723
77162W        W36456  13.772  37.518   1.842
77163W        W36457  23.587  26.112   1.373
77164W        W36458  35.561   0.477  12.534
77165W        W36459  31.647  11.350  14.287
77166W        W36460  20.051  10.159   1.338
77167W        W36461   5.718  27.979   4.724
77168W        W36462  35.525   7.251  12.405
77169W        W36463  38.939   3.844  10.595
77170W        W36464  29.574  34.982  11.437
77171W        W36465  30.164   5.907   2.294
77172W        W36466  42.873  19.699   0.402
77173W        W36467  27.616  30.994   0.350
77174W        W36468  36.401   5.691  14.496
77175W        W36469   4.204  23.544  10.890
77176W        W36470  30.487  16.183  13.489
77177W        W36471  31.500  26.166   4.650
77178W        W36472  24.988  25.514  14.961
77179W        W36473  38.050   0.792   1.327
77180W        W36474  20.715  16.567  14.348
77181W        W36475  35.503  24.555  12.834
77182W        W36476  26.535  25.566  13.828
77183W        W36477  33.976  44.500  11.966
77184W        W36478  42.417  34.012   0.250
77185W        W36479  13.308  31.430  12.522
77186W        W36480   5.354  33.977  10.607
77187W        W36481   7.199  24.652   4.168
77188W        W36482  20.233  31.927   1.343
77189W        W36483   6.918  44.363  14.834
77190W        W36484  19.130  33.896   4.641
77191W        W36485  15.618  22.133  13.050
77192W        W36486  32.450   6.776  12.832
77193W        W36487   6.198  40.829  14.976
77194W        W36488  43.362  36.494  13.000
77195W        W36489  10.329  42.379  13.017
77196W        W36490  24.639  10.752   4.756
77197W        W36491  38.427   5.198  12.884
77198W        W36492  16.684  27.956   2.793
77199W        W36493  40.835  28.975  12.347
77200W        W36494  27.180   7.316   0.879
77201W        W36495  32.406   3.354  14.845
77202W        W36496   8.776  37.348   3.745
77203W        W36497  13.727  15.194   0.875
77204W        W36498   0.380  35.883  11.517
77205W        W36499  42.915  37.347   0.441
77206W        W36500  15.668  37.973   2.398
77207W        W36501   6.360  35.923   5.170
77208W        W36502  24.022  41.850   1.798
77209W        W36503   8.677  19.756  13.367
77210W        W36504  22.713  12.801  14.904
77211W        W36505   7.676  36.569   4.767
77212W        W36506  27.071   9.729   2.194
77213W        W36507  32.031  43.766  11.127
77214W        W36508  29.034   9.761   4.275
77215W        W36509  10.722  43.977  13.447
77216W        W36510  30.467  14.269  11.494
77217W        W36511  20.762  38.568   0.463
77218W        W36512  28.026  17.757   2.860
77219W        W36513  13.627  28.464   3.183
77220W        W36514  40.821   9.753   2.768
77221W        W36515  27.502  23.580  10.916
77222W        W36516  26.175   3.912   3.731
77223W        W36517  32.020  44.000   4.789
77224W        W36518  42.876  41.467   4.322
77225W        W36519   3.346   4.303   0.883
77226W        W36520  10.244  39.392  14.931
77227W        W36521  23.177   3.225  12.843
77228W        W36522  40.448  21.559  12.083
77229W        W36523  27.977   7.237  11.394
77230W        W36524  33.072  10.307  11.389
77231W        W36525  44.815  43.378  14.845
77232W        W36526  17.306   0.751  10.559
77233W        W36527  33.601  25.477   0.395
77234W        W36528   3.713  44.970  10.912
77235W        W36529  23.696  14.672  10.641
77236W        W36530  12.759   9.762   1.903
77237W        W36531  34.899  12.169  14.932
77238W        W36532  27.147   6.399   4.314
77239W        W36533   8.767  29.521   3.765
77240W        W36534  44.896  15.325   2.883
77241W        W36535  20.096   9.326   2.871
77242W        W36536  11.717  31.515   2.370
77243W        W36537  20.274  39.018  10.578
77244W        W36538  14.103  33.088   1.904
77245W        W36539   9.161   2.948   3.802
77246W        W36540  13.682   9.365  14.297
77247W        W36541   4.765   7.283  13.441
77248W        W36542  22.184   3.385   4.164
77249W        W36543  34.543  38.050   1.932
77250W        W36544  34.410   4.831  14.948
77251W        W36545  29.444   5.401   2.416
77252W        W36546  38.488  41.521   1.288
77253W        W36547  24.089  40.477   4.331
77254W        W36548   3.734  14.153   0.482
77255W        W36549  32.607  38.398   4.783
77256W        W36550   2.819  34.899  12.399
77257W        W36551  31.922  16.595   3.845
77258W        W36552  20.171  22.142  12.994
77259W        W36553  25.519  37.546   4.787
77260W        W36554  43.941  25.607   2.694
77261W        W36555  28.187   3.847   2.857
77262W        W36556   1.789  35.510  11.565
77263W        W36557   1.765  44.855  12.529
77264W        W36558   5.251  19.254  13.393
77265W        W36559  42.387  36.870   1.271
77266W        W36560  24.674  10.308  14.436
77267W        W36561   3.344  34.605   1.811
77268W        W36562   4.933  15.327   3.817
77269W        W36563  26.974   3.717  12.981
77270W        W36564   6.802  29.112   1.701
77271W        W36565  10.702  36.886   4.260
77272W        W36566  11.303  44.784  14.363
77273W        W36567  14.824  25.029   1.263
77274W        W36568  20.621  37.841   3.660
77275W        W36569  12.749  38.072   3.862
77276W        W36570  31.556  10.159  13.898
77277W        W36571   0.923  44.429   1.828
77278W        W36572  43.303  25.531  13.326
77279W        W36573   1.763   1.734   4.142
77280W        W36574  28.175  27.533  14.844
77281W        W36575   6.283  37.422  11.036
77282W        W36576  24.692  24.109   3.339
77283W        W36577   0.942  15.709  14.888
77284W        W36578   0.425   7.804  14.891
77285W        W36579  33.041  35.964   0.386
77286W        W36580  26.013  12.130   1.733
77287W        W36581  13.296  32.962   3.223
77288W        W36582  34.940  39.466   4.798
77289W        W36583   6.857  38.480   3.342
77290W        W36584  15.735  19.126   0.261
77291W        W36585  28.555  36.447  10.939
77292W        W36586   3.936  17.142  13.002
77293W        W36587  26.458  13.350  11.502
77294W        W36588   9.302   5.329   3.239
77295W        W36589  26.092  30.443   0.957
77296W        W36590  11.684  19.215  14.316
77297W        W36591  38.351  43.416   0.350
77298W        W36592  19.267  44.786   1.254
77299W        W36593  21.092  37.378   0.279
77300W        W36594  26.994  31.534   1.350
77301W        W36595  27.627  34.955  14.902
77302W        W36596   0.951  27.190   2.709
77303W        W36597  21.185   6.711   4.822
77304W        W36598  13.729  11.836  14.923
77305W        W36599  31.436   8.309   4.706
77306W        W36600  17.208  39.408  11.894
77307W        W36601  33.908  29.175   0.928
77308W        W36602   5.426   1.447   0.749
77309W        W36603   9.297  20.757   1.257
77310W        W36604  43.993  12.344   3.704
77311W        W36605  43.829  21.626   0.288
77312W        W36606  33.914  36.359   1.390
77313W        W36607  40.535  11.219  14.018
77314W        W36608  23.082   6.195   9.954
77315W        W36609   4.408  18.601   1.430
77316W        W36610  30.029  44.966   4.165
77317W        W36611   0.371  39.342   0.814
77318W        W36612  12.826  31.906  14.814
77319W        W36613  32.102   8.206   5.296
77320W        W36614  28.588  19.657   1.819
77321W        W36615  25.579  42.935   4.754
77322W        W36616  36.497  35.531   0.896
77323W        W36617  34.110  15.233  11.939
77324W        W36618   2.405  21.544   3.665
77325W        W36619  41.880  39.482   0.466
77326W        W36620  31.093  42.302  12.898
77327W        W36621   3.869  31.538   2.222
77328W        W36622  24.677  29.926   1.875
77329W        W36623  10.222  39.407   1.832
77330W        W36624  23.202  26.654   2.258
77331W        W36625  29.078  35.106  14.977
77332W        W36626  16.205  14.763   4.244
77333W        W36627   0.822   6.804   2.791
77334W        W36628  10.863  30.142  14.403
77335W        W36629  32.934  18.232   3.309
77336W        W36630   2.776   0.954   0.408
77337W        W36631  24.004  39.361   1.862
77338W        W36632   1.240  26.118   3.330
77339W        W36633  26.667  16.317  12.470
77340W        W36634   6.795  36.850   3.673
77341W        W36635  41.295  33.382  13.357
77342W        W36636  43.501  42.397  12.064
77343W        W36637  24.092  40.923   3.213
77344W        W36638  30.564  11.260   0.318
77345W        W36639  25.561  42.381  13.521
77346W        W36640  44.497  31.459   0.269
77347W        W36641  17.681  39.835  12.059
77348W        W36642  32.514  20.267   0.434
77349W        W36643  11.860  32.504   1.828
77350W        W36644  40.990   6.789  13.495
77351W        W36645  20.565   6.779   4.222
77352W        W36646   2.858  39.496   2.191
77353W        W36647  11.176  35.967   1.358
77354W        W36648  31.005  11.853   5.252
77355W        W36649  42.815   7.773   0.392
77356W        W36650  37.976   9.866   4.613
77357W        W36651  16.298   5.213   4.305
77358W        W36652  18.731  29.510   1.415
77359W        W36653   9.332  18.767  13.451
77360W        W36654   9.844  17.178   0.243
77361W        W36655  27.577  13.134  10.625
77362W        W36656  31.447   9.672   2.376
77363W        W36657  29.465  28.521  13.497
77364W        W36658  34.935  36.417   3.216
77365W        W36659  40.374  36.928  12.046
77366W        W36660  21.118  23.677   4.329
77367W        W36661  28.031  11.195  10.460
77368W        W36662  33.906  37.348  12.064
77369W        W36663  23.637  42.956   0.797
77370W        W36664   7.712  28.994  11.531
77371W        W36665  41.415   7.279   4.659
77372W        W36666  25.628  34.931   4.736
77373W        W36667  34.410  15.786  13.392
77374W        W36668  35.056  24.016   4.643
77375W        W36669  18.207  16.798   3.158
77376W        W36670  11.127  21.522   3.649
77377W        W36671  41.302  25.054  12.015
77378W        W36672  29.534  30.601   3.361
77379W        W36673  12.266   1.955   3.160
77380W        W36674  16.308  27.675  13.337
77381W        W36675   5.340   8.699   3.631
77382W        W36676  32.489  32.545   0.805
77383W        W36677  35.930  32.564  12.418
77384W        W36678   7.745  32.913   4.296
77385W        W36679   0.453  30.493  11.057
77386W        W36680  42.954   9.888   3.351
77387W        W36681   4.322  27.166   4.726
77388W        W36682  17.116  15.316   4.135
77389W        W36683  24.566  13.799   4.793
77390W        W36684   7.171  19.200   2.223
77391W        W36685  17.612  28.993  13.847
77392W        W36686  36.956  19.625   0.848
77393W        W36687  28.642  16.589  12.940
77394W        W36688  16.151  37.848   2.407
77395W        W36689  43.021  34.063   4.229
77396W        W36690   2.382  33.580  10.025
77397W        W36691  16.684  24.640   5.271
77398W        W36692  39.490  24.645   0.393
77399W        W36693  19.724  31.111  12.385
77400W        W36694  43.952  32.513   4.283
77401W        W36695   9.884  31.514  12.942
77402W        W36696   7.841  22.594   3.702
77403W        W36697  20.244  30.018  10.450
77404W        W36698  31.564  18.179   4.635
77405W        W36699  16.768   4.732   1.332
77406W        W36700  35.411  36.501  14.420
77407W        W36701  11.313  24.107   3.642
77408W        W36702  27.098  14.161  11.442
77409W        W36703  29.131  24.126   1.359
77410W        W36704  34.550   5.250  14.290
77411W        W36705  11.163  21.201  13.038
77412W        W36706  20.768  33.006  12.443
77413W        W36707  29.992  20.180  14.854
77414W        W36708  25.061  11.226   0.323
77415W        W36709  13.197  42.929  14.789
77416W        W36710  39.840   9.256  11.876
77417W        W36711  29.542   4.837  10.607
77418W        W36712   5.707  21.681  13.928
77419W        W36713  29.923  31.013   2.817
77420W        W36714  19.110  41.889  13.493
77421W        W36715   5.826   5.880   4.787
77422W        W36716  22.657  22.725   1.780
77423W        W36717  24.592  23.236  14.987
77424W        W36718  26.076  10.276  10.973
77425W        W36719  35.888  44.870  11.896
77426W        W36720  34.503  40.998  13.323
77427W        W36721  35.879  43.399   4.149
77428W        W36722  29.436  44.806  13.983
77429W        W36723   6.914  38.910  14.379
77430W        W36724  17.170   6.829  14.842
77431W        W36725   5.364  14.822  11.536
77432W        W36726  16.087  41.418   1.442
77433W        W36727  28.479  24.979  12.458
77434W        W36728   6.356  24.613  11.946
77435W        W36729   3.804   3.944  12.565
77436W        W36730  41.038  43.295  12.399
77437W        W36731  40.999  44.796   0.278
77438W        W36732  11.141  33.395   4.247
77439W        W36733  18.609  29.468  14.940
77440W        W36734   4.861  28.091   2.888
77441W        W36735  35.395   2.965   1.727
77442W        W36736  31.448  24.058   0.795
77443W        W36737  44.971  35.080  14.341
77444W        W36738   0.494  17.209  14.858
77445W        W36739  23.166  32.454   1.231
77446W        W36740  24.010  43.411  13.356
77447W        W36741   8.249  39.819  14.364
77448W        W36742  41.820   3.887   3.671
77449W        W36743   6.207  29.005  13.054
77450W        W36744  28.606  44.827   1.248
77451W        W36745   7.764  16.581   0.860
77452W        W36746  35.897   9.656   3.752
77453W        W36747   5.697   4.240  12.872
77454W        W36748  43.995   7.699   2.732
77455W        W36749  24.174  26.613  13.413
77456W        W36750   7.306  30.101   1.738
77457W        W36751  39.884  13.132   1.748
77458W        W36752  35.108  19.198  12.377
77459W        W36753   6.360  36.461  14.842
77460W        W36754  30.557  22.547  13.328
77461W        W36755  16.189  10.677   1.818
77462W        W36756  20.540  18.131   4.233
77463W        W36757  40.847   5.727   0.749
77464W        W36758  22.237   2.852  14.389
77465W        W36759  27.996   1.306   1.705
77466W        W36760  10.289   2.273   3.258
77467W        W36761  42.969  22.648   2.339
77468W        W36762  32.920  28.631   0.737
77469W        W36763  39.427  40.950   2.336
77470W        W36764  19.566   3.298   1.879
77471W        W36765   7.182  13.796  13.352
77472W        W36766  26.034   6.727   2.841
77473W        W36767  10.843   7.797   3.718
77474W        W36768  16.159  20.122  12.350
77475W        W36769  13.314  44.838   1.220
77476W        W36770  12.634  32.468   1.921
77477W        W36771  20.193   4.358  14.384
77478W        W36772  18.632  17.666   0.309
77479W        W36773  41.811  10.848  10.949
77480W        W36774  35.100  36.042   5.229
77481W        W36775  26.149  43.859  10.417
77482W        W36776  27.527  40.516   4.792
77483W        W36777  44.294  17.191   2.330
77484W        W36778  31.484  24.640  14.821
77485W        W36779  42.016  36.374   4.615
77486W        W36780  13.105  35.853   3.815
77487W        W36781  19.716  16.287  10.594
77488W        W36782  26.065  14.646   2.821
77489W        W36783  26.648  26.637  11.073
77490W        W36784   2.242   5.206  13.457
77491W        W36785  12.644  10.700  11.513
77492W        W36786  11.745  42.324  13.430
77493W        W36787   3.319  13.177  14.290
77494W        W36788  23.614  36.522   2.892
77495W        W36789  18.664   0.890   5.174
77496W        W36790   7.299  14.720  11.010
77497W        W36791  26.668  31.038  14.475
77498W        W36792  37.970  40.028  11.539
77499W        W36793   2.240  19.710   2.883
77500W        W36794   3.218  41.462  13.860
77501W        W36795  37.579  39.868   3.347
77502W        W36796  15.285  36.938  14.780
77503W        W36797  34.087   1.373  11.011
77504W        W36798  10.200  38.544  14.375
77505W        W36799  15.624  38.959   1.309
77506W        W36800  34.385   4.320  12.416
77507W        W36801  23.621  15.245  13.470
77508W        W36802   3.761   0.955  14.306
77509W        W36803  13.315   4.699   1.280
77510W        W36804  20.218   4.712   2.760
77511W        W36805  11.846  21.087  10.135
77512W        W36806   7.861  35.387   3.317
77513W        W36807  16.316  15.654  11.383
77514W        W36808   7.777  42.793   1.903
77515W        W36809  15.299  30.968  14.460
77516W        W36810  22.687   4.412   4.126
77517W        W36811  37.845  25.564   4.825
77518W        W36812  24.107  14.259   0.426
77519W        W36813  31.562   5.756   1.835
77520W        W36814  21.088   2.733  14.360
77521W        W36815  12.258  32.070   0.331
77522W        W36816  30.506  12.347   4.284
77523W        W36817  21.194   8.395   1.750
77524W        W36818   3.376   8.686  12.414
77525W        W36819  29.124  19.130  14.895
77526W        W36820  10.221  17.081  14.489
77527W        W36821  10.875   2.412  11.608
77528W        W36822  19.542  31.959  11.996
77529W        W36823  44.758  38.358   0.333
77530W        W36824   2.466  19.196   4.762
77531W        W36825   7.396  18.764  11.099
77532W        W36826  44.313  33.439   1.284
77533W        W36827  30.638  25.664   5.252
77534W        W36828  42.967  15.324   3.216
77535W        W36829  44.273  31.018   2.219
77536W        W36830  21.608  37.049   1.845
77537W        W36831  18.570  19.273  12.450
77538W        W36832  42.329  36.454  12.981
77539W        W36833   3.904   0.423   1.405
77540W        W36834  13.123  19.284  11.440
77541W        W36835  37.462  26.065   4.339
77542W        W36836  43.923  18.197  11.382
77543W        W36837  25.209  40.414   4.713
77544W        W36838  25.587  32.926  12.949
77545W        W36839   9.309   1.931   1.828
77546W        W36840  13.674   3.423   2.888
77547W        W36841   5.386  31.147   3.782
77548W        W36842  12.325  39.511  14.408
77549W        W36843  27.669   7.894  10.433
77550W        W36844   8.176  17.131  13.381
77551W        W36845  39.419  10.768   1.220
77552W        W36846   2.268  33.881   1.895
77553W        W36847   4.944  25.067  11.468
77554W        W36848   6.712  35.994  11.861
77555W        W36849   8.219  18.697  12.855
77556W        W36850  39.827  39.827  11.516
77557W        W36851   9.327  20.059   4.674
77558W        W36852  24.009   2.247  10.468
77559W        W36853  19.278   4.780   3.251
77560W        W36854  13.634  37.879   2.730
77561W        W36855  19.613   7.381   4.788
77562W        W36856  16.243  19.041   2.841
77563W        W36857  25.219  44.447  12.345
77564W        W36858   3.461  36.560  10.936
77565W        W36859  34.494  12.227   2.817
77566W        W36860  30.651  33.032   0.855
77567W        W36861  34.979  17.589  13.396
77568W        W36862  29.478  18.122  11.948
77569W        W36863  44.436  22.089  14.454
77570W        W36864  29.163  35.452   0.757
77571W        W36865  27.547  28.071   0.264
77572W        W36866  13.823  12.245  12.831
77573W        W36867   0.866  24.997  13.864
77574W        W36868  42.416  14.703   4.795
77575W        W36869   6.790  43.919  13.860
77576W        W36870  17.757   7.244  12.922
77577W        W36871  27.036  30.502  14.956
77578W        W36872  21.653  30.458   1.825
77579W        W36873  43.886  15.667  12.581
77580W        W36874  38.993  29.951  11.999
77581W        W36875   0.789   3.402   3.857
77582W        W36876  10.308   7.316   4.176
77583W        W36877  16.119  29.627   2.179
77584W        W36878  23.993  44.341  13.969
77585W        W36879  11.345   6.407   3.178
77586W        W36880   3.712  27.946  14.856
77587W        W36881  21.109  34.566  14.383
77588W        W36882  19.754  17.625  10.484
77589W        W36883  27.060  17.156   2.747
77590W        W36884  20.211  24.148  10.124
77591W        W36885   4.915  33.457   1.796
77592W        W36886   3.401   7.678   2.785
77593W        W36887  30.518   3.832  13.950
77594W        W36888  32.134  44.362   5.126
77595W        W36889  40.492  25.123  12.573
77596W        W36890  40.353   8.172   0.913
77597W        W36891  27.561  36.088   2.755
77598W        W36892  35.431  18.675  11.405
77599W        W36893  43.448  26.644  10.471
77600W        W36894  35.952  29.961   4.195
77601W        W36895   1.785  18.577  14.301
77602W        W36896  40.037  32.539  11.450
77603W        W36897  24.028  44.889  14.295
77604W        W36898  38.997  33.061   3.657
77605W        W36899  44.475  17.096  13.342
77606W        W36900  17.727  44.808  12.909
77607W        W36901  35.394  37.025   3.242
77608W        W36902  38.927   2.773  14.805
77609W        W36903  26.491  42.808   0.460
77610W        W36904  24.188  32.135  11.916
77611W        W36905   1.275  14.247  10.981
77612W        W36906   5.778   1.299   5.165
77613W        W36907  36.544  11.179   3.781
77614W        W36908  20.047  42.299   2.779
77615W        W36909  31.541  30.110  10.965
77616W        W36910  36.398   7.199   5.178
77617W        W36911   8.317  27.456   5.633
77618W        W36912  35.890  24.213   0.410
77619W        W36913   4.716   0.979   1.343
77620W        W36914  27.135   9.748  13.388
77621W        W36915  31.574  17.305   2.841
77622W        W36916  34.010  30.024   1.363
77623W        W36917  37.569  36.471   4.227
77624W        W36918  12.302  28.941  13.427
77625W        W36919  13.178  29.035  12.472
77626W        W36920  15.286   3.389   4.816
77627W        W36921  28.673  29.152   4.757
77628W        W36922  28.971  44.313   2.883
77629W        W36923  26.119   8.686   5.749
77630W        W36924  27.971  42.523   1.735
77631W        W36925  12.136  30.504  11.073
77632W        W36926   3.357  35.471  11.515
77633W        W36927   3.447   3.290   1.357
77634W        W36928   8.797   3.741   0.897
77635W        W36929  44.300  35.982   2.242
77636W        W36930  26.185  43.864   1.736
77637W        W36931  14.659  13.125  13.406
77638W        W36932  11.715  22.727   1.259
77639W        W36933  12.718   9.161   4.239
77640W        W36934  39.863  11.706  13.446
77641W        W36935   9.361  35.962   4.819
77642W        W36936  16.230   4.754   1.403
77643W        W36937  43.497  29.597  12.076
77644W        W36938   7.383  30.133  11.082
77645W        W36939   0.759  44.786  14.437
77646W        W36940  19.771  36.484   2.219
77647W        W36941  31.484  41.877   0.929
77648W        W36942  25.072  44.812  11.057
77649W        W36943  24.668  38.495   4.777
77650W        W36944  28.678  24.226  11.523
77651W        W36945  15.664   2.855  12.829
77652W        W36946  20.100  13.263  14.421
77653W        W36947  29.452  30.434  14.471
77654W        W36948  13.718  41.802   4.764
77655W        W36949  40.426  29.141   0.380
77656W        W36950  42.316  23.706  14.951
77657W        W36951  33.393   4.242   3.791
77658W        W36952  33.978  24.545   4.306
77659W        W36953  44.335  24.505   1.875
77660W        W36954  11.282   9.211   4.242
77661W        W36955   8.673  25.626   0.302
77662W        W36956   5.205  23.162  11.121
77663W        W36957   6.886  31.630  12.966
77664W        W36958  27.091   3.407   0.933
77665W        W36959  35.601  27.170   2.196
77666W        W36960  26.109  36.000   1.241
77667W        W36961  14.112  14.150   0.337
77668W        W36962  34.939   2.457   1.911
77669W        W36963  24.663  30.966   3.195
77670W        W36964   0.419  37.977   3.664
77671W        W36965  18.771  38.455  11.574
77672W        W36966  12.276  20.137   4.271
77673W        W36967   6.357  11.141  12.946
77674W        W36968  43.786  14.607   0.821
77675W        W36969   6.851  30.620  13.969
77676W        W36970   6.252  11.641  14.915
77677W        W36971  30.948  42.361   0.904
77678W        W36972  27.448  34.870   3.689
77679W        W36973  15.092  32.438   3.722
77680W        W36974   3.792   6.426   2.859
77681W        W36975  18.659   0.359  10.892
77682W        W36976   3.303   2.911   0.866
77683W        W36977   5.375  40.913  12.578
77684W        W36978  15.703   3.843  10.565
77685W        W36979   2.392   2.284  14.307
77686W        W36980  21.248  27.048  10.896
77687W        W36981  38.917  19.626   0.468
77688W        W36982  23.505  10.671  14.467
77689W        W36983  32.479  38.961   4.335
77690W        W36984  11.237  21.550  12.055
77691W        W36985   7.845  42.788  12.981
77692W        W36986  43.960  39.454   2.378
77693W        W36987  39.502   6.197   0.407
77694W        W36988  34.579  16.749   0.746
77695W        W36989  43.895  19.145   2.185
77696W        W36990  39.960  30.105   2.771
77697W        W36991  39.424   6.266  13.513
77698W        W36992  18.591   4.793   2.298
77699W        W36993   9.667   8.780   3.311
77700W        W36994  18.179   3.409   2.323
77701W        W36995  42.863  16.126  10.619
77702W        W36996  41.912  15.258   1.884
77703W        W36997  21.635   0.925  11.592
77704W        W36998  17.598  35.087   1.718
77705W        W36999  21.105  26.484  13.840
77706W        W37000  41.523  38.851  10.148
77707W        W37001  36.841  21.689  12.943
77708W        W37002   1.260  10.277   0.771
77709W        W37003  25.540  42.003   2.182
77710W        W37004  44.462  39.002  10.434
77711W        W37005  38.439   7.184   0.250
77712W        W37006   3.263  29.133   0.258
77713W        W37007  37.012  23.167   2.248
77714W        W37008  25.587  28.024   3.676
77715W        W37009   2.302  25.120   4.122
77716W        W37010  44.277  22.030   1.855
77717W        W37011  16.633  36.573   4.647
77718W        W37012   7.267  40.424  14.344
77719W        W37013  12.833  21.563   0.887
77720W        W37014  36.503  16.717  11.112
77721W        W37015  22.627  28.983  14.888
77722W        W37016  26.125  41.010   5.798
77723W        W37017  13.331  18.071  11.383
77724W        W37018  26.658   5.234   2.256
77725W        W37019  14.738  38.350  11.514
77726W        W37020  39.545   6.355  13.941
77727W        W37021  41.370  17.161  12.406
77728W        W37022  30.118  16.736  14.805
77729W        W37023  23.190   2.321  13.430
77730W        W37024  36.007  34.424  10.019
77731W        W37025  12.715  23.198  11.548
77732W        W37026  26.175   2.444  13.863
77733W        W37027  40.529  40.306   4.647
77734W        W37028  10.326  15.124  14.303
77735W        W37029  21.741  36.884   1.380
77736W        W37030  39.021   2.778  11.504
77737W        W37031  29.067  23.191  14.816
77738W        W37032  27.954  28.635  11.403
77739W        W37033   1.269  34.458  14.883
77740W        W37034  31.431  19.777   0.814
77741W        W37035  25.208  23.715  11.975
77742W        W37036   7.301   0.750  11.001
77743W        W37037  17.714  32.400  11.490
77744W        W37038  23.683  22.205  14.951
77745W        W37039  14.628   7.774   1.747
77746W        W37040  35.491  43.483  12.502
77747W        W37041  23.089  37.909  11.958
77748W        W37042  30.023  32.993  12.849
77749W        W37043  20.157  13.144  13.830
77750W        W37044  28.487  29.665  14.805
77751W        W37045  35.044   5.400   1.866
77752W        W37046  37.837  37.956   0.818
77753W        W37047  11.686  34.908  14.424
77754W        W37048  44.271   9.312  12.867
77755W        W37049  38.949  13.238   3.702
77756W        W37050  35.528  19.212   1.882
77757W        W37051   5.363   0.833   3.281
77758W        W37052  23.648   1.347  14.955
77759W        W37053  35.035  26.127  11.583
77760W        W37054   7.849  25.991   4.115
77761W        W37055  16.759  23.694  10.031
77762W        W37056   0.977  23.661   0.289
77763W        W37057  22.098   5.699  13.433
77764W        W37058  28.996  32.523   1.248
77765W        W37059  19.641  13.108  13.847
77766W        W37060  11.685  38.339   4.805
77767W        W37061   8.249   0.444  13.379
77768W        W37062  39.342  38.325  12.564
77769W        W37063  31.587  25.173  14.515
77770W        W37064  43.286  31.501   0.840
77771W        W37065  38.519   8.819   3.175
77772W        W37066  30.414   7.216   2.732
77773W        W37067   6.244  14.232  12.994
77774W        W37068  17.684  11.837  11.906
77775W        W37069  42.899   7.848  11.956
77776W        W37070  32.887  34.611   3.712
77777W        W37071  11.296  37.949   0.832
77778W        W37072  29.018  24.508  14.311
77779W        W37073   4.881  26.997   3.146
77780W        W37074  16.789   9.230  12.477
77781W        W37075  10.645  21.534   2.367
77782W        W37076  13.306  44.483   2.220
77783W        W37077  30.494  23.166   2.675
77784W        W37078  43.283  37.548   1.702
77785W        W37079  35.028  21.713  12.562
77786W        W37080  40.541  11.249   1.267
77787W        W37081  20.173  12.700   2.824
77788W        W37082  33.130   6.407  14.316
77789W        W37083   0.287  27.174  12.898
77790W        W37084  40.425  19.709   1.728
77791W        W37085  38.493  33.986   0.421
77792W        W37086  42.894  15.094   4.738
77793W        W37087  31.138  43.423  11.053
77794W        W37088  18.149   2.401   2.834
77795W        W37089  36.525  20.711   1.451
77796W        W37090   4.714   5.714  12.468
77797W        W37091  13.177   0.443  13.324
77798W        W37092  43.832  44.845   0.438
77799W        W37093  35.858   3.916  13.446
77800W        W37094   4.717  22.134  10.450
77801W        W37095   8.685  20.565  12.434
77802W        W37096  41.495  19.728  14.868
77803W        W37097  35.870   6.396  10.608
77804W        W37098  26.079   2.724  14.807
77805W        W37099  31.516   7.837   3.791
77806W        W37100  23.702  11.792  14.879
77807W        W37101  39.508  41.855   3.272
77808W        W37102  33.987  44.937   0.934
77809W        W37103  15.788  36.884  14.452
77810W        W37104  39.441  25.086   2.728
77811W        W37105  39.049   2.820   4.835
77812W        W37106  17.802  13.289   2.712
77813W        W37107  23.099  39.035   0.315
77814W        W37108   5.427   2.906  12.922
77815W        W37109   4.363  33.983   1.322
77816W        W37110  24.533  27.053   0.268
77817W        W37111  11.301  23.148  11.448
77818W        W37112   2.822  28.065   1.822
77819W        W37113   5.792   4.343   1.879
77820W        W37114  40.911   8.228   4.774
77821W        W37115  32.950  25.609  13.363
77822W        W37116  35.521   5.202   3.246
77823W        W37117  11.766  41.307   2.195
77824W        W37118  40.385  20.038  10.969
77825W        W37119   0.474   8.746  12.536
77826W        W37120  38.501  41.789  14.460
77827W        W37121  18.192   1.391  14.459
77828W        W37122  35.543  44.817  10.903
77829W        W37123   3.866  28.655   3.735
77830W        W37124  37.510  41.867   3.870
77831W        W37125  21.647  34.102  11.537
77832W        W37126   1.237  21.213   1.301
77833W        W37127   7.361   3.937   3.260
77834W        W37128  36.909   1.968  14.489
77835W        W37129  37.488  27.448  13.388
77836W        W37130   1.313   5.698   0.873
77837W        W37131  24.195  15.754  13.916
77838W        W37132   7.733   4.242   3.336
77839W        W37133  30.537  15.801  12.555
77840W        W37134  18.224  19.613   0.853
77841W        W37135  20.159  24.705   4.348
77842W        W37136  31.032  13.764   4.813
77843W        W37137  36.977   0.317  12.026
77844W        W37138   2.451  42.001  10.972
77845W        W37139  21.706  14.801  11.451
77846W        W37140  23.176  31.498   2.850
77847W        W37141  29.589  20.682  10.915
77848W        W37142  10.326  25.981  12.980
77849W        W37143  44.323  44.441  12.350
77850W        W37144   3.747  38.848  14.316
77851W        W37145  14.232   3.944   4.829
77852W        W37146  14.767  44.895   4.758
77853W        W37147   1.936  26.040  14.865
77854W        W37148  24.678  12.355  13.378
77855W        W37149   1.411  16.745   2.903
77856W        W37150  19.668  19.576  11.589
77857W        W37151  12.794   5.890   2.294
77858W        W37152  44.005   3.230  13.410
77859W        W37153   0.803   7.390  13.950
77860W        W37154  42.334   5.759  12.384
77861W        W37155  19.206  24.612   2.716
77862W        W37156  34.479   8.166   1.715
77863W        W37157  12.247   3.813   3.707
77864W        W37158  15.696  24.518   1.913
77865W        W37159   8.271  26.588   4.194
77866W        W37160  20.581  24.157  13.000
77867W        W37161   9.184  34.520   0.769
77868W        W37162  42.439  20.055   2.246
77869W        W37163   3.251  38.387  14.835
77870W        W37164  20.241   9.693   2.216
77871W        W37165  14.164   4.935  12.957
77872W        W37166   1.331   0.969  14.875
77873W        W37167  14.229  41.423   3.165
77874W        W37168  12.237   9.701  11.925
77875W        W37169  20.676   6.904   1.303
77876W        W37170  17.584  22.646  12.858
77877W        W37171  29.112  25.087  12.882
77878W        W37172  18.599   6.193  13.370
77879W        W37173  24.036  35.363   3.358
77880W        W37174  29.567  32.613   0.366
77881W        W37175  11.241  43.326  10.927
77882W        W37176   6.266  43.827  13.403
77883W        W37177  22.244  25.655  13.893
77884W        W37178  16.250  22.197   4.609
77885W        W37179   2.410   0.878  14.395
77886W        W37180  22.508  27.054  13.488
77887W        W37181  28.480  12.754  11.458
77888W        W37182  33.501  21.144  11.599
77889W        W37183  35.452  40.809  12.484
77890W        W37184  33.503  41.509  12.434
77891W        W37185  29.452   7.872   0.295
77892W        W37186  38.067  35.550  14.427
77893W        W37187  32.598  15.779  13.385
77894W        W37188   8.314  42.386  14.840
77895W        W37189  20.269   6.207  14.302
77896W        W37190  37.018   1.253   3.365
77897W        W37191  34.527  39.830  10.981
77898W        W37192  24.117  39.052  11.530
77899W        W37193  10.653  10.878   2.804
77900W        W37194   1.379  29.483   2.895
77901W        W37195   5.408   7.796   0.286
77902W        W37196   8.772  26.959  11.392
77903W        W37197  44.985  43.512   2.868
77904W        W37198  33.912  10.681   3.864
77905W        W37199   6.343  43.854   2.702
77906W        W37200  12.667  35.420  10.416
77907W        W37201  35.052   1.347   0.474
77908W        W37202   5.818  43.921  11.474
77909W        W37203  27.641   2.376  11.447
77910W        W37204  16.577  14.778   4.612
77911W        W37205   6.319   1.311  13.526
77912W        W37206  20.711  10.842   9.437
77913W        W37207   1.369  28.022  13.384
77914W        W37208  10.787   8.740   2.698
77915W        W37209  13.685  44.299   2.768
77916W        W37210  15.703   8.406   3.752
77917W        W37211  41.788  17.246   1.393
77918W        W37212  34.985  14.279   3.723
77919W        W37213  30.133   8.849  11.108
77920W        W37214  32.585  23.028   3.668
77921W        W37215   4.326  43.946   4.144
77922W        W37216  21.735  31.601  14.298
77923W        W37217   8.371  15.158  10.889
77924W        W37218   7.864  28.112   0.437
77925W        W37219  43.865   6.885  12.355
77926W        W37220  18.786  25.677   4.643
77927W        W37221   6.796  36.375  10.523
77928W        W37222  41.464  36.843  14.372
77929W        W37223  12.134   0.369  12.355
77930W        W37224   7.688  14.266   4.722
77931W        W37225  17.617  16.647   3.323
77932W        W37226  14.736  12.770  14.893
77933W        W37227  14.609  41.801  14.926
77934W        W37228   9.848   9.337  14.981
77935W        W37229  18.228  11.623   0.913
77936W        W37230  18.216   5.899  11.543
77937W        W37231  14.765  44.477   1.714
77938W        W37232  15.309   4.414   0.734
77939W        W37233  17.567  39.392   0.472
77940W        W37234   0.751  32.967  13.845
77941W        W37235  27.138  41.839  14.798
77942W        W37236  14.319  34.412  12.368
77943W        W37237  24.071  11.321  14.936
77944W        W37238  18.727  16.632   0.904
77945W        W37239  26.107   1.811   2.680
77946W        W37240   7.378  36.061   1.935
77947W        W37241   6.836   9.741  13.988
77948W        W37242  19.724  17.604  12.036
77949W        W37243   2.270  10.275   0.961
77950W        W37244  30.013  41.880   3.289
77951W        W37245  29.632  17.665  14.824
77952W        W37246  28.680  33.092   0.431
77953W        W37247  39.454  28.110   4.292
77954W        W37248  17.144   4.324  11.907
77955W        W37249   7.854  25.635   2.384
77956W        W37250   9.254  15.303   3.284
77957W        W37251   4.883  40.386  11.450
77958W        W37252   5.776  40.987   3.731
77959W        W37253  37.005  12.785   2.210
77960W        W37254  25.653   1.291   1.856
77961W        W37255  38.831  38.400  14.973
77962W        W37256   1.867   5.431   4.164
77963W        W37257  12.766  44.497  14.994
77964W        W37258  21.613  41.463  10.503
77965W        W37259   7.372   0.797   0.253
77966W        W37260  10.231  28.571   4.154
77967W        W37261  10.369   2.771   1.225
77968W        W37262  24.218  34.985   2.283
77969W        W37263  34.456  25.083   1.785
77970W        W37264  26.555   0.463  10.157
77971W        W37265  20.537  33.465  11.872
77972W        W37266  34.081   7.308  11.023
77973W        W37267  12.748  20.171  12.052
77974W        W37268  39.493   6.740  10.497
77975W        W37269  24.188  39.395  12.574
77976W        W37270  18.758  39.809   0.893
77977W        W37271  19.719  38.999  13.027
77978W        W37272  42.915  14.163   4.185
77979W        W37273   2.280  12.730   2.690
77980W        W37274  23.040  35.038  11.906
77981W        W37275  36.490   4.710  14.423
77982W        W37276   8.221  27.520   4.829
77983W        W37277  11.837  42.302   0.424
77984W        W37278  23.122   1.833   2.244
77985W        W37279   6.406  15.584   1.715
77986W        W37280  24.022  18.190  14.965
77987W        W37281   2.440  32.127  12.900
77988W        W37282  27.137  36.027  12.404
77989W        W37283  39.402   1.444   2.347
77990W        W37284  10.864  20.050   4.238
77991W        W37285  31.594  42.404   3.801
77992W        W37286  29.092   3.358  13.047
77993W        W37287  17.771  29.995  12.485
77994W        W37288   3.321  13.693   4.342
77995W        W37289  34.369  12.777  11.908
77996W        W37290  15.675  10.857   4.681
77997W        W37291  20.169  19.552  11.428
77998W        W37292   1.817   3.222  14.839
77999W        W37293  21.096  26.669   0.756
78000W        W37294  15.256  35.402  12.507
78001W        W37295   8.382  24.639   3.826
78002W        W37296  27.987   7.699  14.840
78003W        W37297  44.819  28.460   2.192
78004W        W37298  44.486  28.485   3.183
78005W        W37299   1.443   7.835   3.223
78006W        W37300  11.206  28.664   3.198
78007W        W37301  39.841   2.963  10.472
78008W        W37302  30.960  40.460  11.986
78009W        W37303  23.994  22.632   2.286
78010W        W37304  33.005  23.113   0.479
78011W        W37305  10.214   2.228   3.684
78012W        W37306  20.737  15.306  13.522
78013W        W37307  12.339  41.832   2.851
78014W        W37308   0.755  26.137  14.878
78015W        W37309  24.171  42.789   9.975
78016W        W37310  15.780  28.487   2.718
78017W        W37311  13.618  25.517  13.826
78018W        W37312  39.454  44.344   3.225
78019W        W37313  16.156  21.757  14.287
78020W        W37314  34.927   3.302   0.440
78021W        W37315  33.058  25.531   3.668
78022W        W37316  29.939  44.940  12.578
78023W        W37317  12.853  32.431   5.130
78024W        W37318  12.280   4.292   0.783
78025W        W37319  36.538  19.754  11.548
78026W        W37320  26.672  13.650   3.377
78027W        W37321  32.416  36.854  12.850
78028W        W37322   7.316  18.246  14.385
78029W        W37323  12.205  34.083   3.677
78030W        W37324   3.738  16.637   1.786
78031W        W37325   0.753   0.467  13.417
78032W        W37326  36.064  10.375  11.019
78033W        W37327   8.333  22.119   3.376
78034W        W37328  23.187   0.468   2.884
78035W        W37329  24.183  43.896   4.297
78036W        W37330  35.922  10.167  14.420
78037W        W37331  27.049  17.693   2.737
78038W        W37332  28.556  20.198  11.567
78039W        W37333  27.140   3.877  13.447
78040W        W37334  17.306  40.526   2.903
78041W        W37335  14.275   6.334   3.174
78042W        W37336   9.774  33.457  11.047
78043W        W37337  33.090  13.727   1.371
78044W        W37338  13.764  38.536   1.339
78045W        W37339  32.024  35.561   2.784
78046W        W37340  33.943  28.603  12.473
78047W        W37341   5.344  30.002   0.801
78048W        W37342  42.781  41.969   4.150
78049W        W37343  10.242  14.278  12.531
78050W        W37344  42.939  32.967  11.005
78051W        W37345  43.443  36.374  14.951
78052W        W37346   2.911  32.049  11.089
78053W        W37347  22.654  26.184   3.358
78054W        W37348  25.966  14.306   2.201
78055W        W37349   3.455  10.322  12.049
78056W        W37350  34.516  26.186   2.179
78057W        W37351  23.592  13.710  14.395
78058W        W37352  44.884  29.583   0.482
78059W        W37353  17.135  26.692  11.538
78060W        W37354   0.358  37.842  12.975
78061W        W37355   7.242  42.291   2.700
78062W        W37356  22.012  33.567  12.946
78063W        W37357   6.429  33.050  14.893
78064W        W37358  32.894  35.386   0.895
78065W        W37359  33.606  30.455   3.765
78066W        W37360   2.944  22.549   4.228
78067W        W37361  15.308   9.842   1.899
78068W        W37362  10.870  28.483  14.284
78069W        W37363  37.557   7.773   4.126
78070W        W37364  31.082   5.365  14.949
78071W        W37365  15.197   4.395  10.595
78072W        W37366  30.562  23.106   4.783
78073W        W37367  41.981  17.658   3.658
78074W        W37368  20.744  27.991  12.556
78075W        W37369  23.655   9.701   3.189
78076W        W37370  33.425  13.743   2.260
78077W        W37371  24.564  10.277   3.770
78078W        W37372  32.942  20.597  12.883
78079W        W37373  28.472  37.432   0.442
78080W        W37374  44.788  37.938   0.729
78081W        W37375   8.714  23.565  11.381
78082W        W37376   8.845  27.595  11.076
78083W        W37377  36.562  29.562   0.898
78084W        W37378  24.717   9.216   0.804
78085W        W37379  16.806   9.697   4.678
78086W        W37380  18.234  44.338   3.274
78087W        W37381  37.043  40.990  13.486
78088W        W37382   0.926  43.888   0.452
78089W        W37383  19.634  11.244  10.925
78090W        W37384   2.299  33.118   3.250
78091W        W37385  31.040   9.235  10.406
78092W        W37386  18.575  18.207   0.261
78093W        W37387  21.650   5.884  11.974
78094W        W37388  34.074  41.398  11.965
78095W        W37389   3.361  21.581  14.491
78096W        W37390  35.388  41.487   0.476
78097W        W37391  34.442  24.142   3.687
78098W        W37392  18.606   9.171  14.323
78099W        W37393  42.832  11.154  12.473
78100W        W37394  24.651  27.147  11.863
78101W        W37395   6.295  36.928  13.944
78102W        W37396   8.331  41.336   4.718
78103W        W37397  20.768  16.229   4.285
78104W        W37398  14.627  14.124   2.327
78105W        W37399   0.896   9.753   1.249
78106W        W37400  10.220  25.148  11.540
78107W        W37401   3.240  36.024  11.496
78108W        W37402  11.145  18.118  11.473
78109W        W37403  34.599   0.377  14.976
78110W        W37404  10.681  30.141   4.704
78111W        W37405  21.237  24.996   4.819
78112W        W37406   1.312  22.519  12.018
78113W        W37407  19.233   4.811   4.301
78114W        W37408  19.749   4.820  11.561
78115W        W37409  41.472  19.773  13.835
78116W        W37410  34.867  18.107  14.015
78117W        W37411  28.593  34.931  10.573
78118W        W37412  44.954   9.656  12.925
78119W        W37413  22.509  39.554  14.878
78120W        W37414  39.834  23.989  12.365
78121W        W37415  16.604  27.553  14.381
78122W        W37416  31.641   1.799  11.500
78123W        W37417  10.322  31.438  11.598
78124W        W37418  32.995  34.901   3.820
78125W        W37419  39.366  31.514  11.876
78126W        W37420  22.590  11.176   2.859
78127W        W37421  30.962  12.702   4.261
78128W        W37422  18.164   9.236   1.824
78129W        W37423  10.691  23.125   3.672
78130W        W37424   5.286  32.963  11.904
78131W        W37425   9.672  36.981  10.429
78132W        W37426   5.849  21.161   2.341
78133W        W37427   0.839  35.045   3.234
78134W        W37428   8.370  42.826   1.914
78135W        W37429  28.050  14.275   2.776
78136W        W37430  23.222  34.600   0.417
78137W        W37431   0.399  11.169  11.057
78138W        W37432  29.491  19.646  10.493
78139W        W37433   5.274   0.776  12.946
78140W        W37434  10.297  14.234   0.855
78141W        W37435  21.568   4.374   4.714
78142W        W37436  32.577  21.192   3.777
78143W        W37437  12.774  41.034  13.006
78144W        W37438  43.810  43.974   0.780
78145W        W37439  22.037  43.804  14.767
78146W        W37440  17.691  11.217  14.468
78147W        W37441   5.822  42.018  11.945
78148W        W37442   9.337   5.909  13.403
78149W        W37443   9.204  30.984   3.288
78150W        W37444  30.418  44.849  10.940
78151W        W37445   3.740  33.583   1.363
78152W        W37446   7.882  19.576   0.352
78153W        W37447   9.663  20.193  11.041
78154W        W37448  42.789   1.250  12.526
78155W        W37449  10.378   8.354   3.716
78156W        W37450  32.080  42.013  13.548
78157W        W37451  44.312   4.776  13.948
78158W        W37452  13.184  44.804   0.437
78159W        W37453   0.806  21.104   2.858
78160W        W37454  14.189  22.229   1.803
78161W        W37455   6.848  34.528   4.192
78162W        W37456  32.611  18.229   2.313
78163W        W37457  29.583  38.383  12.834
78164W        W37458   4.748  16.725  10.607
78165W        W37459  26.463  12.706  14.830
78166W        W37460  28.125   0.470  10.926
78167W        W37461   1.409  29.597   3.850
78168W        W37462  15.692  25.168  11.895
78169W        W37463  18.064  26.598  13.394
78170W        W37464  41.002  35.505   5.758
78171W        W37465  28.079  29.953  10.529
78172W        W37466  29.969  18.078   3.728
78173W        W37467  13.633   0.292   1.791
78174W        W37468  30.473  33.958  13.874
78175W        W37469   4.918   0.315  11.381
78176W        W37470  19.144   7.743   2.284
78177W        W37471  10.723  11.749  11.876
78178W        W37472  39.450  16.630  11.585
78179W        W37473   7.354  14.595   0.417
78180W        W37474  27.070  34.011   3.175
78181W        W37475   4.944  12.699  12.473
78182W        W37476  20.590  18.150   2.815
78183W        W37477  35.914  41.499  14.012
78184W        W37478  35.051   4.366   4.165
78185W        W37479   4.861   0.292  10.954
78186W        W37480  23.041   1.336  14.391
78187W        W37481  38.546   3.292  11.415
78188W        W37482  11.249  38.840  11.062
78189W        W37483  15.695   0.747   3.827
78190W        W37484  41.989  36.420   1.706
78191W        W37485   2.419  10.236   3.209
78192W        W37486   9.285  25.493  11.026
78193W        W37487  30.557  16.251   0.479
78194W        W37488  12.232  37.497  11.123
78195W        W37489  29.546  25.964  13.389
78196W        W37490   4.909   7.798   4.149
78197W        W37491   6.814   8.748   1.299
78198W        W37492  23.224  15.762   4.301
78199W        W37493  18.223  31.583  14.421
78200W        W37494   6.312  13.142  11.047
78201W        W37495  34.580  36.008   0.322
78202W        W37496   1.803  26.687   3.244
78203W        W37497   5.717   3.278   4.115
78204W        W37498  13.826   2.760  12.825
78205W        W37499  27.141   9.281  12.339
78206W        W37500  28.652  12.331  11.056
78207W        W37501  40.967  21.154   4.690
78208W        W37502   9.358   6.744   3.326
78209W        W37503  38.877  32.618   4.254
78210W        W37504  29.990  15.708  11.876
78211W        W37505  34.984  32.064   1.795
78212W        W37506  25.633  27.130  11.536
78213W        W37507  37.454  26.024   3.700
78214W        W37508   9.889  29.935   0.936
78215W        W37509  29.649  11.747   3.741
78216W        W37510  13.691  36.047   2.261
78217W        W37511  36.382  16.104  10.888
78218W        W37512  22.078  42.963  13.022
78219W        W37513  16.287   7.274   3.191
78220W        W37514  31.943  21.617   3.347
78221W        W37515  20.230  29.173   0.820
78222W        W37516  13.762  42.803  11.873
78223W        W37517  15.093  32.042  14.798
78224W        W37518   8.684  27.650  12.909
78225W        W37519  37.067  27.452  11.925
78226W        W37520  30.077   0.839   2.235
78227W        W37521  15.641  14.657   3.263
78228W        W37522  25.487  10.326   4.267
78229W        W37523  20.568  20.738  12.455
78230W        W37524  28.672   6.698   0.915
78231W        W37525  44.986   3.850   9.544
78232W        W37526   1.455  14.640   1.392
78233W        W37527  33.066  13.176  11.491
78234W        W37528  13.658  43.456   1.359
78235W        W37529  32.962  21.241  13.521
78236W        W37530  24.017  13.323  12.934
78237W        W37531   0.272   7.845   2.800
78238W        W37532  16.204   7.754  14.850
78239W        W37533  21.670  38.537   4.300
78240W        W37534   7.402   9.729   4.146
78241W        W37535  39.833  40.914   3.758
78242W        W37536  21.102   4.908  13.530
78243W        W37537  11.823  10.363  10.541
78244W        W37538  41.924  30.976   2.240
78245W        W37539  20.032  34.516   1.845
78246W        W37540  23.127  41.326  13.529
78247W        W37541  11.754   5.387   4.681
78248W        W37542  11.851  12.702   1.873
78249W        W37543  14.258  17.743   2.805
78250W        W37544   2.289  42.524   4.761
78251W        W37545   0.784   0.867   3.370
78252W        W37546  32.439  43.776   4.825
78253W        W37547  18.675   7.388   5.195
78254W        W37548  39.486  13.351   3.757
78255W        W37549  18.263  28.153   3.748
78256W        W37550   1.883  35.478   0.260
78257W        W37551  22.023  32.035   3.156
78258W        W37552  37.582  30.579   2.216
78259W        W37553  12.362  10.294  10.413
78260W        W37554   3.740  18.575  10.435
78261W        W37555  23.508  41.368  12.375
78262W        W37556   9.272  10.310   3.725
78263W        W37557  41.422  13.145  13.454
78264W        W37558  21.545  41.833   2.744
78265W        W37559  42.359  37.563  14.803
78266W        W37560  18.142  26.577   5.145
78267W        W37561  28.969  36.527  12.976
78268W        W37562  37.960  13.156  12.051
78269W        W37563  14.653  33.434  14.911
78270W        W37564  43.994  15.671  13.415
78271W        W37565   8.370  26.157  10.586
78272W        W37566  27.003  27.045  14.861
78273W        W37567  16.745  27.956   1.350
78274W        W37568  12.832   0.786   0.312
78275W        W37569  26.464  34.517  10.427
78276W        W37570  28.626  35.442   4.619
78277W        W37571  29.520  31.949   5.264
78278W        W37572  25.687   0.387   1.356
78279W        W37573  11.335  20.638  11.100
78280W        W37574  22.010  20.708  12.049
78281W        W37575  21.754  23.012   2.288
78282W        W37576  30.963   9.859  11.436
78283W        W37577  31.536  14.314   3.659
78284W        W37578   9.273   7.702  14.396
78285W        W37579  22.567  30.957  11.901
78286W        W37580  36.851  11.291  13.958
78287W        W37581  38.054  12.293  14.395
78288W        W37582  27.987   1.855  12.451
78289W        W37583  29.461  17.171  12.935
78290W        W37584  17.111  39.029   0.958
78291W        W37585   5.217  36.048  10.910
78292W        W37586   5.231  33.594   1.851
78293W        W37587  12.254  12.831   4.262
78294W        W37588  13.253   2.322  13.504
78295W        W37589   8.177  43.828   0.864
78296W        W37590   1.283  28.587   4.135
78297W        W37591   3.716   1.821   3.205
78298W        W37592  41.905  14.791  11.469
78299W        W37593   3.903   9.233  13.847
78300W        W37594  16.141   9.257   4.244
78301W        W37595  13.289   8.868  10.085
78302W        W37596  37.936   6.387   3.721
78303W        W37597  39.503  27.542   0.948
78304W        W37598  20.673  12.265   2.753
78305W        W37599  39.488  36.393   4.809
78306W        W37600  20.617  25.985  11.921
78307W        W37601   4.448  44.951  12.461
78308W        W37602  37.413  26.090  12.040
78309W        W37603  37.982  20.667  13.404
78310W        W37604  11.187  36.347  10.432
78311W        W37605  43.293  35.426  13.441
78312W        W37606  44.406  18.253  13.465
78313W        W37607  22.694   2.880   4.341
78314W        W37608  18.738  30.115  13.975
78315W        W37609  10.805   9.160   4.293
78316W        W37610  40.917  12.161  10.998
78317W        W37611   8.289  27.546   3.159
78318W        W37612  24.106  25.638   2.771
78319W        W37613  27.450   3.754   1.822
78320W        W37614   7.689  19.119   0.289
78321W        W37615  16.763  15.176   2.193
78322W        W37616  40.400  27.517  14.278
78323W        W37617  27.613  41.986  12.505
78324W        W37618  31.637  20.571   4.224
78325W        W37619  11.864  38.347  11.449
78326W        W37620  18.290  13.635  14.911
78327W        W37621  20.581  20.723   2.215
78328W        W37622  28.036   1.469  12.072
78329W        W37623  18.279  44.788   3.739
78330W        W37624  27.601  40.852  13.541
78331W        W37625  42.031  38.460   3.766
78332W        W37626  42.331  13.345  11.502
78333W        W37627  13.256   9.281   3.744
78334W        W37628   2.405   0.922   9.934
78335W        W37629   1.932  33.044   4.166
78336W        W37630   6.372   3.394  11.972
78337W        W37631  20.215  34.967   2.810
78338W        W37632  17.698  15.152  13.312
78339W        W37633   9.173  11.356  11.393
78340W        W37634  36.486  42.797  11.962
78341W        W37635  20.674   5.340  12.496
78342W        W37636   5.264   0.901   0.842
78343W        W37637   1.767  28.525   3.227
78344W        W37638  32.140   5.703  10.580
78345W        W37639  15.671  27.519   4.220
78346W        W37640  42.870   3.731   4.686
78347W        W37641  19.274  27.038   0.302
78348W        W37642  14.125  19.102  12.560
78349W        W37643  14.215   4.399  12.498
78350W        W37644  41.912  33.084  14.420
78351W        W37645  29.974  16.103   1.805
78352W        W37646  43.993  37.880  11.004
78353W        W37647  18.294  10.146   0.337
78354W        W37648  18.237  17.159   2.394
78355W        W37649   6.294  42.924  14.276
78356W        W37650  36.994  24.189  14.879
78357W        W37651   8.801   1.402  14.475
78358W        W37652  39.864  40.394  12.453
78359W        W37653   4.307  34.063  13.930
78360W        W37654  12.187  13.678   1.293
78361W        W37655  25.686  26.017   2.196
78362W        W37656  37.490  27.941   1.747
78363W        W37657  19.641  28.111   0.383
78364W        W37658  21.160  20.530   0.891
78365W        W37659  24.625  25.628  14.375
78366W        W37660  23.666  43.008  10.508
78367W        W37661   0.911   9.279   0.745
78368W        W37662  17.775  17.575  11.026
78369W        W37663  20.185  23.510   4.192
78370W        W37664  27.100  16.785   0.894
78371W        W37665  39.013  20.113   1.384
78372W        W37666  26.076  38.928   0.747
78373W        W37667  21.253  35.498   2.295
78374W        W37668  44.990  40.842   1.446
78375W        W37669   1.971  16.685  11.946
78376W        W37670  27.122  42.383  11.507
78377W        W37671  30.633   0.319  12.027
78378W        W37672  11.642   9.155  11.025
78379W        W37673  32.555  33.963  14.804
78380W        W37674   6.349   9.205   1.902
78381W        W37675  15.098  17.679  13.967
78382W        W37676  12.316   3.337   1.346
78383W        W37677  10.795   0.481  13.039
78384W        W37678  31.070  12.641  13.913
78385W        W37679  11.734  35.988  12.555
78386W        W37680  24.127   9.358   4.277
78387W        W37681  23.173   3.824  11.583
78388W        W37682  37.426  11.689   0.413
78389W        W37683  25.048  18.614   0.483
78390W        W37684  42.893  17.164  11.497
78391W        W37685   6.352  22.686  11.550
78392W        W37686  14.693   4.289  12.976
78393W        W37687  13.693  43.791  14.379
78394W        W37688  17.300  35.945   0.751
78395W        W37689  36.925   8.781   1.852
78396W        W37690   0.751  31.909  12.576
78397W        W37691  10.288  31.559   9.936
78398W        W37692  36.547  10.274  11.956
78399W        W37693   7.904  41.421   3.756
78400W        W37694  11.729  15.656   2.372
78401W        W37695   0.420  19.172   2.240
78402W        W37696   8.776  25.647  13.395
78403W        W37697  24.126  43.274   1.366
78404W        W37698  25.039   4.849   0.939
78405W        W37699  14.722  32.980  14.473
78406W        W37700   2.458  42.015  13.310
78407W        W37701  11.679  17.575   3.319
78408W        W37702  44.895  41.952  13.856
78409W        W37703  13.809  17.161   3.254
78410W        W37704  10.800  34.388   4.661
78411W        W37705  19.636  40.396   1.876
78412W        W37706   9.336   8.339  11.118
78413W        W37707  11.731  33.935  12.382
78414W        W37708   4.421  16.232   0.418
78415W        W37709  13.653  22.033  13.005
78416W        W37710  44.335  18.712   2.791
78417W        W37711   2.419  38.357   0.470
78418W        W37712   9.699  14.301   2.862
78419W        W37713   0.933  24.138   2.809
78420W        W37714  23.657  28.600  10.959
78421W        W37715  14.180  22.586   0.946
78422W        W37716  43.018   3.715   1.366
78423W        W37717  30.944  35.400   4.798
78424W        W37718  28.974  17.753   0.871
78425W        W37719  38.013  44.967  13.870
78426W        W37720  20.576  32.931  10.432
78427W        W37721  41.019  27.190  12.959
78428W        W37722  35.880  33.900  11.491
78429W        W37723  29.594  37.072   2.696
78430W        W37724  16.619  23.497  11.915
78431W        W37725  44.895   3.370   3.630
78432W        W37726  22.136   2.285   1.870
78433W        W37727  20.079  13.599   4.309
78434W        W37728   2.813   9.283   3.704
78435W        W37729  13.762  32.588   3.336
78436W        W37730  27.682  36.386   5.615
78437W        W37731   2.360   8.720   1.365
78438W        W37732  33.606  22.660  11.956
78439W        W37733   1.943  23.202  14.310
78440W        W37734   9.175  17.657  11.967
78441W        W37735  21.231   3.451  12.566
78442W        W37736  36.066  10.207   5.109
78443W        W37737  41.913  39.372  13.902
78444W        W37738  15.673  39.339   0.466
78445W        W37739  15.321  34.869  11.595
78446W        W37740  41.295  40.049  10.480
78447W        W37741   5.814  12.212  13.869
78448W        W37742  22.227  26.016  11.860
78449W        W37743  22.696  28.546   4.655
78450W        W37744  11.180  13.190  14.361
78451W        W37745  30.143  27.955   3.275
78452W        W37746  14.270  35.555  13.388
78453W        W37747  12.638  38.381   0.911
78454W        W37748  31.647  15.174  14.771
78455W        W37749   5.435  17.704  10.937
78456W        W37750  40.400  38.492   4.244
78457W        W37751   7.373   7.220   1.265
78458W        W37752   2.447  13.677  10.971
78459W        W37753  37.975  29.051  12.842
78460W        W37754   2.789  13.786   0.774
78461W        W37755  11.268   7.767  11.613
78462W        W37756  40.341  18.691   2.835
78463W        W37757  43.778  38.557  12.991
78464W        W37758  38.540   2.403  10.966
78465W        W37759  36.556  25.018  11.559
78466W        W37760  38.399  41.389   4.598
78467W        W37761  29.526  29.496   1.294
78468W        W37762  36.936  38.048  12.854
78469W        W37763  32.888  28.584  11.042
78470W        W37764   4.254  31.538   4.148
78471W        W37765  33.432  16.301  10.961
78472W        W37766  35.407  34.540  12.086
78473W        W37767  24.586  15.275   4.298
78474W        W37768   5.888  33.497  10.975
78475W        W37769  26.559  29.097   2.367
78476W        W37770  20.603  25.582   3.684
78477W        W37771  23.572  42.381  14.780
78478W        W37772  31.992   6.338   1.928
78479W        W37773  37.437   4.306   0.829
78480W        W37774   1.480   7.282   3.176
78481W        W37775  38.046   1.298  10.912
78482W        W37776  36.440  38.036   5.139
78483W        W37777  37.400  17.184   1.809
78484W        W37778  21.047  21.237  10.143
78485W        W37779  32.958   1.925   3.358
78486W        W37780  30.097  28.141  11.942
78487W        W37781  19.217   8.382  12.349
78488W        W37782  36.054  23.063  12.986
78489W        W37783   0.388  29.160  14.275
78490W        W37784  19.115  31.048   4.813
78491W        W37785  11.698   9.662   2.763
78492W        W37786  28.633  28.952   0.439
78493W        W37787  25.984  11.866   1.330
78494W        W37788  12.796   8.728  14.484
78495W        W37789  30.149  14.193   3.213
78496W        W37790  34.414  41.013  13.913
78497W        W37791  44.380  11.256  10.109
78498W        W37792  41.982   6.220  12.828
78499W        W37793   0.796  18.226  13.048
78500W        W37794   1.445   2.898   4.286
78501W        W37795  35.055  28.444   0.377
78502W        W37796  15.594   4.367   4.188
78503W        W37797  43.462  11.324   0.438
78504W        W37798   5.314  41.819  13.503
78505W        W37799  39.481  32.905  10.890
78506W        W37800  11.253  22.014  13.865
78507W        W37801   5.403  35.073   2.210
78508W        W37802  15.634  40.539  10.060
78509W        W37803   6.856  14.603  11.074
78510W        W37804  19.764  20.728   2.885
78511W        W37805  35.864   2.387   2.366
78512W        W37806   3.730  21.522  14.980
78513W        W37807  44.457   8.363   1.846
78514W        W37808  27.075  10.347  13.523
78515W        W37809  37.423  25.515  13.437
78516W        W37810   6.849  30.642  10.059
78517W        W37811  17.701   4.747  12.475
78518W        W37812   3.379  11.296   2.798
78519W        W37813   9.661  17.236  10.956
78520W        W37814  42.458  28.458   3.759
78521W        W37815  13.639   1.762  13.952
78522W        W37816  22.127   0.960  12.843
78523W        W37817   6.850  22.006   2.277
78524W        W37818  20.631   7.217   2.686
78525W        W37819  23.732  28.435   1.831
78526W        W37820  26.512   4.376  11.957
78527W        W37821  14.768  41.908  14.505
78528W        W37822  31.580  32.892   2.411
78529W        W37823  28.546  33.968   3.778
78530W        W37824  26.574  15.626   4.648
78531W        W37825  16.239   9.255   0.363
78532W        W37826  34.092  17.151   2.378
78533W        W37827  30.454  20.651  11.600
78534W        W37828   5.894   3.918  11.883
78535W        W37829  11.729   4.748   2.804
78536W        W37830  11.804  16.714  14.766
78537W        W37831  34.491  31.151   3.725
78538W        W37832  39.437  13.207   1.253
78539W        W37833  43.370  26.127  11.572
78540W        W37834  41.000  26.512  11.417
78541W        W37835  24.068  10.843   0.898
78542W        W37836  41.819  18.555  13.944
78543W        W37837  40.962   0.835  12.833
78544W        W37838  35.863  12.799  11.025
78545W        W37839  30.414  43.902  13.431
78546W        W37840   5.306  32.446   2.268
78547W        W37841  38.490  42.015   4.333
78548W        W37842  21.726  39.996   1.897
78549W        W37843  29.480  42.814   4.329
78550W        W37844  44.825  29.111   1.831
78551W        W37845  36.409   7.861  13.341
78552W        W37846  34.102  11.864  10.114
78553W        W37847  36.884  17.796  14.937
78554W        W37848  43.348   7.873  14.488
78555W        W37849  31.070  23.700   1.254
78556W        W37850  28.662  11.763   0.856
78557W        W37851  38.358  12.276   0.431
78558W        W37852  29.993  16.666   0.365
78559W        W37853  22.043  40.842  13.409
78560W        W37854  29.665  39.402   1.707
78561W        W37855   2.350  16.569  13.526
78562W        W37856  32.488  32.005   0.859
78563W        W37857  33.880  14.230   4.779
78564W        W37858  35.359  13.290  10.417
78565W        W37859  20.247  17.738   1.366
78566W        W37860  31.542  14.230  12.534
78567W        W37861   0.407  34.453   2.795
78568W        W37862  39.898  21.606   3.678
78569W        W37863  16.778  16.110   4.172
78570W        W37864   8.864  30.635  14.410
78571W        W37865   1.336  19.200  13.400
78572W        W37866  35.507  30.041   2.228
78573W        W37867  33.548   5.290  13.335
78574W        W37868  40.942  25.526  12.572
78575W        W37869  20.151  26.127  11.387
78576W        W37870  27.028  43.469   1.893
78577W        W37871  15.636  33.931  12.559
78578W        W37872  31.117  37.496   4.717
78579W        W37873  22.190   2.739   3.809
78580W        W37874  15.657  28.953   0.291
78581W        W37875  31.076   7.178   0.264
78582W        W37876   5.863  18.110   2.343
78583W        W37877  26.094  21.756   2.183
78584W        W37878  33.435  42.488  12.025
78585W        W37879  28.043  34.557   2.263
78586W        W37880   8.669  34.004  13.823
78587W        W37881   7.378  41.978   4.159
78588W        W37882  22.057  24.624   2.313
78589W        W37883  44.474  38.891  10.025
78590W        W37884   4.342  34.520  12.474
78591W        W37885  21.656  17.586  14.333
78592W        W37886  19.275  43.830  14.765
78593W        W37887  25.157   9.284  12.901
78594W        W37888  18.187  42.815  11.485
78595W        W37889   8.802  43.007   1.415
78596W        W37890   8.371   9.349  14.375
78597W        W37891  26.011   7.830  10.622
78598W        W37892  16.634  20.672  11.868
78599W        W37893   9.733  34.866   3.834
78600W        W37894   6.830  40.918  11.537
78601W        W37895   3.370  24.665   3.174
78602W        W37896  15.153  19.226  11.372
78603W        W37897  40.531  18.080   1.434
78604W        W37898  31.576  40.877   1.894
78605W        W37899  28.507  41.817   2.213
78606W        W37900  40.886  36.981   1.859
78607W        W37901   5.214  20.164  14.312
78608W        W37902  16.303  27.168   2.693
78609W        W37903   5.331  27.983   3.337
78610W        W37904  11.830  12.153  11.594
78611W        W37905  22.652  40.499   3.361
78612W        W37906   8.768  31.486   2.691
78613W        W37907  25.086  11.774  14.421
78614W        W37908  21.182  29.993  14.506
78615W        W37909  15.639  31.439   1.367
78616W        W37910  30.119  14.216  11.965
78617W        W37911   4.715  30.521  11.539
78618W        W37912  11.327  31.474   2.395
78619W        W37913   2.838   6.243  10.510
78620W        W37914  28.608  43.778  14.949
78621W        W37915  31.997  26.020  11.926
78622W        W37916   9.373  32.520   4.115
78623W        W37917   8.736  33.551   4.288
78624W        W37918   2.300  20.740   4.325
78625W        W37919  32.087   1.472  11.453
78626W        W37920  27.631   5.308  11.515
78627W        W37921  13.667  22.668   1.451
78628W        W37922  22.680   2.274  12.824
78629W        W37923   5.346  17.074  10.068
78630W        W37924  17.114  31.501   2.876
78631W        W37925   1.481  29.974  11.602
78632W        W37926  38.451  34.529  11.937
78633W        W37927  16.639  43.967   2.251
78634W        W37928   0.963   4.399   4.725
78635W        W37929  18.271  34.420   1.294
78636W        W37930  35.542  11.632  12.469
78637W        W37931   8.293   4.419  11.997
78638W        W37932   9.359  10.858   4.763
78639W        W37933  43.337  30.623   1.850
78640W        W37934  37.033  11.780   1.732
78641W        W37935  13.639  29.086   0.799
78642W        W37936  16.778  18.673   2.308
78643W        W37937   5.200   6.238   4.329
78644W        W37938  36.049   0.805   3.672
78645W        W37939  12.635  13.162   3.154
78646W        W37940  11.795   8.193  13.397
78647W        W37941   5.221  22.655   1.809
78648W        W37942   7.413  31.935   3.167
78649W        W37943   2.723  37.502  12.568
78650W        W37944  12.624  35.478  10.942
78651W        W37945   4.436  16.183  10.628
78652W        W37946  24.045  38.568   0.960
78653W        W37947  23.682   5.817   4.616
78654W        W37948  14.807  38.919   4.833
78655W        W37949  25.036   4.843   1.443
78656W        W37950  32.981  27.018  13.877
78657W        W37951  28.556  36.920  14.005
78658W        W37952  24.498  22.180  11.410
78659W        W37953  11.371  18.580   0.363
78660W        W37954   5.934  28.138  11.016
78661W        W37955  39.028  30.630   3.740
78662W        W37956  19.730  35.562   3.749
78663W        W37957  30.468  44.294   4.636
78664W        W37958  27.614  40.535   2.282
78665W        W37959  33.876  31.119  14.770
78666W        W37960   3.807  18.659   3.268
78667W        W37961  13.828   4.892   0.942
78668W        W37962  20.661  34.908   2.804
78669W        W37963   5.349  41.303   2.362
78670W        W37964   6.713  16.807  11.121
78671W        W37965  34.984  16.743   0.363
78672W        W37966  33.586  30.078  12.370
78673W        W37967  16.104   8.678   3.270
78674W        W37968  35.997  11.834  10.979
78675W        W37969  16.119  17.739   1.373
78676W        W37970  29.945  42.982   9.658
78677W        W37971  30.156   8.292   3.185
78678W        W37972   6.295  38.486   2.228
78679W        W37973  21.123  28.178   4.641
78680W        W37974  23.610  38.437   3.857
78681W        W37975  11.323  26.571   1.236
78682W        W37976  23.178  20.146  11.377
78683W        W37977   8.894  32.444  14.389
78684W        W37978  27.035  27.188   4.190
78685W        W37979  36.384  20.259  12.416
78686W        W37980  16.697  25.977   4.706
78687W        W37981  23.099  42.514   2.677
78688W        W37982  14.141  20.155   3.285
78689W        W37983  39.057   2.301  14.430
78690W        W37984   4.333   6.746  14.507
78691W        W37985  38.552  42.321  10.617
78692W        W37986   3.335  41.033  12.351
78693W        W37987   1.274   6.895   0.907
78694W        W37988  39.919  14.330  12.431
78695W        W37989   3.854  42.023   1.848
78696W        W37990  26.021  33.521  12.428
78697W        W37991  24.631  19.565  13.509
78698W        W37992  26.697   5.879  12.995
78699W        W37993  22.531   9.348  12.425
78700W        W37994  11.174  23.171   0.946
78701W        W37995  10.765  18.677   2.368
78702W        W37996  39.816  31.973  11.937
78703W        W37997  32.499  12.644  14.401
78704W        W37998   5.316   2.729  10.445
78705W        W37999  41.399   0.299  10.037
78706W        W38000   1.885   9.293   1.928
78707W        W38001  19.045   4.767  12.518
78708W        W38002   7.187  34.484   3.283
78709W        W38003  32.591   2.330   4.197
78710W        W38004  12.223  10.808  10.473
78711W        W38005  16.221  22.165   2.821
78712W        W38006  19.221  37.052  14.882
78713W        W38007  36.436  23.986   1.856
78714W        W38008  24.136  27.988   0.892
78715W        W38009  36.895  17.631   1.307
78716W        W38010  19.743  13.814   3.354
78717W        W38011  22.046   0.259  11.587
78718W        W38012  33.937  13.784  14.436
78719W        W38013  18.580  14.142  10.601
78720W        W38014   4.754  34.966   4.826
78721W        W38015  25.685  25.548   0.730
78722W        W38016   9.340  30.098  12.430
78723W        W38017  33.609  11.702  14.867
78724W        W38018   0.917  25.016  10.922
78725W        W38019  26.989  19.174  14.961
78726W        W38020   5.234  30.577   3.348
78727W        W38021  31.026  42.870  10.970
78728W        W38022   8.671  38.979  11.939
78729W        W38023  22.555  39.051   3.726
78730W        W38024  14.185  14.128   2.185
78731W        W38025  33.565  17.801   3.657
78732W        W38026  14.339  32.557  13.429
78733W        W38027   7.680  28.633  14.888
78734W        W38028  17.144  26.084   2.791
78735W        W38029  19.061  42.917  14.434
78736W        W38030   6.338  32.005  12.043
78737W        W38031  17.100  16.672  12.089
78738W        W38032  14.280  16.595  14.960
78739W        W38033  14.241  41.032  11.467
78740W        W38034   3.405  15.799   0.784
78741W        W38035  34.017  23.126   3.777
78742W        W38036  44.339  29.504  11.012
78743W        W38037  34.003  37.945   1.917
78744W        W38038  21.667  35.995  13.457
78745W        W38039  31.152  11.837  10.529
78746W        W38040  13.262  35.909  12.403
78747W        W38041  44.998  32.112   2.417
78748W        W38042  36.414   7.766   3.257
78749W        W38043  42.981   0.868   3.374
78750W        W38044  40.476  20.214  12.464
78751W        W38045  38.936   5.370   3.806
78752W        W38046  25.990  25.060   1.786
78753W        W38047   9.702  38.488  11.898
78754W        W38048  27.463  17.218   0.910
78755W        W38049  31.589  13.251   3.271
78756W        W38050   3.434   8.328   3.358
78757W        W38051  38.831  31.107  14.854
78758W        W38052  29.081  22.593   1.265
78759W        W38053   5.800  11.790   0.316
78760W        W38054  28.185   1.782   4.601
78761W        W38055  12.154  42.428  13.435
78762W        W38056  10.743  23.550   2.347
78763W        W38057  31.004  29.614   2.686
78764W        W38058   9.866  26.027  12.906
78765W        W38059  24.045   6.784   4.319
78766W        W38060  43.800  41.041  11.070
78767W        W38061  44.440  12.824  12.905
78768W        W38062  39.857   4.722  12.969
78769W        W38063  44.428   5.343   5.176
78770W        W38064  32.072  36.423  14.343
78771W        W38065  26.997  37.944   4.601
78772W        W38066  44.775  27.178   1.318
78773W        W38067  10.687  10.663  12.477
78774W        W38068  21.512   2.461  10.630
78775W        W38069  23.551  35.030  13.413
78776W        W38070  15.148  14.624  11.416
78777W        W38071  17.783  18.231  14.830
78778W        W38072  37.876   8.875  12.060
78779W        W38073   9.810  30.057   5.192
78780W        W38074  42.461  35.931  14.289
78781W        W38075  28.999  33.447  11.051
78782W        W38076  15.630  29.667  13.039
78783W        W38077  35.881  38.376   3.345
78784W        W38078  30.467  17.117   2.858
78785W        W38079  42.950  42.478  12.973
78786W        W38080  37.571  41.907  12.893
78787W        W38081  13.632  23.023   3.237
78788W        W38082  23.012  16.303   4.641
78789W        W38083  22.217  18.717  11.071
78790W        W38084   8.398  18.617   2.785
78791W        W38085  44.814  28.063  12.016
78792W        W38086  14.275  11.240   3.739
78793W        W38087  25.474  19.583  13.000
78794W        W38088  16.806  12.678   2.715
78795W        W38089  29.034  13.622  11.552
78796W        W38090   1.371  24.163   4.669
78797W        W38091  44.944  24.975  14.349
78798W        W38092  18.668   5.292   3.153
78799W        W38093  21.577  43.391   0.784
78800W        W38094  38.435  29.969   4.145
78801W        W38095   9.196  25.102   1.771
78802W        W38096  10.676   0.856   1.787
78803W        W38097  36.515  14.183  10.150
78804W        W38098  33.030   7.306  12.523
78805W        W38099  12.224  42.883   0.466
78806W        W38100  37.996  29.941   0.476
78807W        W38101  19.747  33.892  11.891
78808W        W38102  38.557  38.488   0.884
78809W        W38103  34.565   3.851   4.332
78810W        W38104  23.723  22.708   2.381
78811W        W38105  22.144  11.195   0.845
78812W        W38106   3.217   4.731  10.571
78813W        W38107  23.659  41.420   2.295
78814W        W38108  42.792  36.034  14.414
78815W        W38109   7.306  22.248   3.269
78816W        W38110  20.163   2.817  14.303
78817W        W38111  38.032   1.926  13.465
78818W        W38112  16.779  29.460  14.946
78819W        W38113  19.248  41.855  14.899
78820W        W38114   6.281   3.890  14.999
78821W        W38115   0.952  24.049  12.971
78822W        W38116   3.908  23.550  11.607
78823W        W38117  26.660  10.705  10.627
78824W        W38118  16.152  35.453  13.432
78825W        W38119  41.793   8.208  14.964
78826W        W38120  35.384   0.350  10.611
78827W        W38121  43.500  14.722   4.619
78828W        W38122  33.977  35.872   2.272
78829W        W38123  19.656  14.260   4.199
78830W        W38124  38.069  38.343  12.411
78831W        W38125  16.697   9.149   2.300
78832W        W38126  11.267  14.812   0.738
78833W        W38127  25.096  27.681  10.572
78834W        W38128   8.856  33.078  14.884
78835W        W38129  19.215  16.216   4.194
78836W        W38130  13.694  24.039  11.040
78837W        W38131  42.312  25.082   2.363
78838W        W38132  39.462  38.410   3.310
78839W        W38133  23.127   6.296   1.757
78840W        W38134  34.076  32.985  13.541
78841W        W38135  16.782  36.087  12.350
78842W        W38136  12.732  40.964   3.748
78843W        W38137  10.271  38.998   0.298
78844W        W38138  22.705  44.800   0.836
78845W        W38139   9.168   5.221   3.814
78846W        W38140  33.622  36.366  14.958
78847W        W38141   1.917  30.446  14.914
78848W        W38142   2.241   4.422   4.297
78849W        W38143   3.402  31.501   3.748
78850W        W38144  40.900  44.809   2.780
78851W        W38145   1.419  27.137  13.038
78852W        W38146  16.723  42.884   3.362
78853W        W38147   1.868  37.487  10.504
78854W        W38148  11.839   4.943   0.318
78855W        W38149  22.602  38.378   3.233
78856W        W38150  30.127  31.592  11.037
78857W        W38151  38.879  35.552   1.310
78858W        W38152  22.520  21.662  14.467
78859W        W38153  32.096   7.810  12.872
78860W        W38154   4.872  12.765  11.012
78861W        W38155  27.055  30.942  14.927
78862W        W38156  31.047  14.739   0.769
78863W        W38157   9.326  43.962   3.671
78864W        W38158  12.767  35.924  12.568
78865W        W38159  39.437  38.563   0.278
78866W        W38160  22.160  36.366  13.859
78867W        W38161  18.267  35.911   2.845
78868W        W38162  19.227  15.167   1.365
78869W        W38163  26.951   2.454   3.815
78870W        W38164  42.907   6.238   2.875
78871W        W38165  18.620  33.525  11.428
78872W        W38166  36.972  42.389  11.972
78873W        W38167  24.169  25.500   3.789
78874W        W38168  38.845   4.884   5.292
78875W        W38169  28.565   3.386   2.239
78876W        W38170  13.810  29.104   1.734
78877W        W38171  43.462   3.748  10.435
78878W        W38172  32.029   5.374  10.640
78879W        W38173  31.548  28.159  11.116
78880W        W38174  13.350  28.575  14.390
78881W        W38175   7.185   8.275   0.914
78882W        W38176  42.833  28.081  13.426
78883W        W38177  25.573  40.995  11.012
78884W        W38178  30.109  44.296   2.797
78885W        W38179   6.227  11.257   2.321
78886W        W38180  18.112  27.459  11.067
78887W        W38181  41.028   3.905  10.890
78888W        W38182   6.311  31.061   4.820
78889W        W38183  18.276   6.303  13.831
78890W        W38184  10.700  28.141  11.022
78891W        W38185  33.105  40.430  13.354
78892W        W38186  14.640  12.640   0.283
78893W        W38187  20.109  20.159   9.478
78894W        W38188  30.549   3.911  14.443
78895W        W38189  35.510  25.483  13.325
78896W        W38190  34.965  31.438   1.450
78897W        W38191  17.141  15.084  13.507
78898W        W38192  35.930   6.907  12.965
78899W        W38193  28.662  38.419  12.058
78900W        W38194  10.649  11.169   0.841
78901W        W38195  23.693  35.464  11.502
78902W        W38196  34.035  15.285   2.831
78903W        W38197  38.961  16.620   4.193
78904W        W38198  37.339  17.182   4.211
78905W        W38199  13.310  43.003   3.863
78906W        W38200  38.381  35.503   1.301
78907W        W38201  22.667   2.942   2.363
78908W        W38202  34.954  40.050  11.537
78909W        W38203  38.460  26.178  13.868
78910W        W38204  14.806  13.286  14.771
78911W        W38205  39.410  26.576   1.778
78912W        W38206  13.695  43.902  10.934
78913W        W38207  40.464  29.572  11.487
78914W        W38208  14.229  24.218  14.479
78915W        W38209  10.742  44.272   0.267
78916W        W38210  37.465   9.357  13.836
78917W        W38211   4.808  40.541   1.297
78918W        W38212   2.794  41.532  11.934
78919W        W38213  13.280  33.624  12.056
78920W        W38214  35.049  37.873  10.497
78921W        W38215  27.629  27.194   0.913
78922W        W38216   0.871  33.543   1.705
78923W        W38217  18.168  42.308  12.537
78924W        W38218  34.513  33.390   4.641
78925W        W38219   1.305  24.206  13.513
78926W        W38220  34.008  24.124   0.396
78927W        W38221  35.934  25.083  14.792
78928W        W38222  31.580  23.589  14.387
78929W        W38223  12.322   2.933  12.900
78930W        W38224  31.039  22.530   2.250
78931W        W38225  20.205  20.525   1.873
78932W        W38226  44.911  23.185   2.188
78933W        W38227  44.348  15.809   9.993
78934W        W38228  35.099  20.709   1.714
78935W        W38229  27.585   2.765   2.255
78936W        W38230  10.148  42.437  10.900
78937W        W38231   7.198  18.280   4.703
78938W        W38232  25.501  36.881   0.895
78939W        W38233   2.761   3.760  12.043
78940W        W38234  37.070  25.516  12.886
78941W        W38235  43.934  28.932   3.283
78942W        W38236   2.471   4.761   0.476
78943W        W38237  14.111   0.344  11.552
78944W        W38238  43.282  22.603   2.410
78945W        W38239  15.676  23.635   3.224
78946W        W38240  28.465   7.353  12.519
78947W        W38241   6.782  11.688  14.852
78948W        W38242  44.928  13.836  13.320
78949W        W38243  31.938  34.606   0.821
78950W        W38244  43.495  23.518  13.861
78951W        W38245  38.060  22.700   4.159
78952W        W38246  19.131  17.768  14.790
78953W        W38247  18.229  22.643   1.250
78954W        W38248  38.073  13.802   3.803
78955W        W38249  22.184  40.004  11.058
78956W        W38250  24.648  30.466   4.276
78957W        W38251  42.860  19.775   1.715
78958W        W38252   8.857  34.036   0.946
78959W        W38253   6.397   8.391  12.384
78960W        W38254  25.576  43.478  14.450
78961W        W38255  10.679  16.689   1.755
78962W        W38256  42.843   1.916   2.248
78963W        W38257  44.350  26.660   5.111
78964W        W38258  40.406  15.302  14.980
78965W        W38259  21.572  40.847  13.484
78966W        W38260  17.256  34.423  12.344
78967W        W38261  31.069   5.195   0.364
78968W        W38262  23.648  43.397  13.019
78969W        W38263  26.205  33.406   4.331
78970W        W38264  26.137  23.101  12.549
78971W        W38265  31.448  19.163  10.454
78972W        W38266  36.014  41.304  11.969
78973W        W38267   0.340  27.001   4.227
78974W        W38268  27.970  31.937   0.944
78975W        W38269  10.234  11.153  10.510
78976W        W38270  22.212  20.720   4.722
78977W        W38271   1.833  13.296  13.466
78978W        W38272  21.735  44.451  10.152
78979W        W38273  33.130  30.438   1.352
78980W        W38274  42.402  39.020  12.899
78981W        W38275   7.245   3.769   0.427
78982W        W38276   7.296  28.984   2.405
78983W        W38277  28.134  19.733   3.269
78984W        W38278  25.515   9.186   3.712
78985W        W38279  32.913  24.527   2.375
78986W        W38280   6.718  40.821  12.000
78987W        W38281  38.072  14.159   2.890
78988W        W38282  16.803  24.158  13.962
78989W        W38283  43.948  29.014  13.044
78990W        W38284  44.386  19.176  12.545
78991W        W38285  31.459   5.414  13.484
78992W        W38286  29.047  17.207  14.882
78993W        W38287  40.958  32.470   3.306
78994W        W38288   4.336   5.908  14.966
78995W        W38289  20.722  11.283   4.611
78996W        W38290  39.955  10.362  11.439
78997W        W38291  33.021   4.740   3.662
78998W        W38292  24.169  23.191   1.424
78999W        W38293  31.916  41.864   3.860
79000W        W38294  29.925   7.814  11.983
79001W        W38295   0.963  28.562   9.978
79002W        W38296  35.069  13.183   4.689
79003W        W38297   4.450  41.347   4.291
79004W        W38298  40.417  26.157   4.731
79005W        W38299  11.751  35.482  13.039
79006W        W38300  17.596  38.856   2.829
79007W        W38301  11.860  20.558   1.253
79008W        W38302  16.667  34.941   3.785
79009W        W38303  30.432   4.902   4.668
79010W        W38304  37.968  27.494   0.745
79011W        W38305  33.093  15.797   1.908
79012W        W38306  17.751   2.355  11.473
79013W        W38307  22.688  21.582   4.232
79014W        W38308  34.039  20.129  10.973
79015W        W38309   0.959  22.535  11.971
79016W        W38310  15.122   6.813  14.508
79017W        W38311  38.827  37.514   5.272
79018W        W38312  40.972  40.542   4.114
79019W        W38313  12.326  27.633  11.074
79020W        W38314   2.833   6.832  13.518
79021W        W38315   4.701   8.291  11.508
79022W        W38316  28.101   7.287  13.314
79023W        W38317  32.967   0.494   3.323
79024W        W38318  22.042  30.453   0.774
79025W        W38319  15.667  16.713  14.371
79026W        W38320  34.550  25.494   3.763
79027W        W38321  16.233  30.082  12.435
79028W        W38322  43.891  31.140  10.912
79029W        W38323  36.538  28.955   2.337
79030W        W38324  44.991  21.158   4.756
79031W        W38325  21.709  29.012   3.682
79032W        W38326  40.422  24.543   0.471
79033W        W38327  34.567   2.927  13.320
79034W        W38328  18.177  28.615  10.592
79035W        W38329  18.720   4.752   4.250
79036W        W38330   4.307  30.611  14.880
79037W        W38331   3.922  14.254   4.256
79038W        W38332  16.089  30.603   2.821
79039W        W38333  32.566  14.678   3.375
79040W        W38334  31.074  13.137   0.279
79041W        W38335   8.163  30.111   3.866
79042W        W38336  27.132  23.491   0.906
79043W        W38337  29.963   0.270  14.942
79044W        W38338   2.967  41.444  14.953
79045W        W38339  24.066   3.322   0.747
79046W        W38340  21.126  26.579  14.472
79047W        W38341  19.177  25.541   1.828
79048W        W38342   3.343   6.837   3.344
79049W        W38343  28.037   0.786   0.752
79050W        W38344   9.212  19.048   4.214
79051W        W38345  41.296  40.878   0.883
79052W        W38346  18.740  23.539  12.478
79053W        W38347  28.442  11.264  14.440
79054W        W38348  31.911  25.173  10.595
79055W        W38349  18.770   8.172  12.090
79056W        W38350  23.509  11.153   1.718
79057W        W38351  40.499  20.560  11.607
79058W        W38352   7.369  25.703  13.928
79059W        W38353   9.245  35.895   2.246
79060W        W38354  37.844   4.712   0.410
79061W        W38355  28.007  41.044  11.955
79062W        W38356  32.971  12.292   2.184
79063W        W38357   8.304   3.858  12.387
79064W        W38358  33.015  40.973  12.455
79065W        W38359  16.642  22.045   5.140
79066W        W38360  29.068   2.958  14.897
79067W        W38361  35.599  14.133   4.327
79068W        W38362  27.025  26.017  14.473
79069W        W38363  32.990   3.302  13.971
79070W        W38364  16.095  16.212   0.922
79071W        W38365   5.246   1.935  13.838
79072W        W38366  44.842  37.366   3.367
79073W        W38367  35.604  28.179   0.384
79074W        W38368  22.580  25.102  14.883
79075W        W38369  33.587  28.126   4.640
79076W        W38370  41.460  37.069  13.542
79077W        W38371  38.884  21.544  12.350
79078W        W38372  30.643  13.818   0.886
79079W        W38373  16.302  26.000  11.420
79080W        W38374   6.213  18.717   5.182
79081W        W38375  20.235  39.020   5.124
79082W        W38376   4.777  11.147  10.588
79083W        W38377  11.233  40.385  10.436
79084W        W38378  31.905  21.084  11.521
79085W        W38379  18.688   0.956   3.835
79086W        W38380  24.985   9.383  13.801
79087W        W38381  17.673  30.437  11.930
79088W        W38382  16.106  27.066   3.789
79089W        W38383  25.541  13.674  10.894
79090W        W38384   0.471   5.203  11.410
79091W        W38385  29.928  17.651  10.939
79092W        W38386  28.170  16.178   3.229
79093W        W38387   8.266  44.808  14.363
79094W        W38388  34.998  13.785   4.311
79095W        W38389  10.838  26.547   2.828
79096W        W38390  13.271  14.219   2.339
79097W        W38391  34.527  40.321   3.200
79098W        W38392  25.702   3.739   1.439
79099W        W38393   6.256  11.156   3.386
79100W        W38394  37.991  44.263  10.057
79101W        W38395  13.325  14.748   0.940
79102W        W38396   1.360  30.021  12.478
79103W        W38397  35.512  42.327  14.949
79104W        W38398  35.537  43.928  12.826
79105W        W38399  25.119  23.564  10.948
79106W        W38400  44.978  26.208  10.535
79107W        W38401  13.104   5.705  13.541
79108W        W38402  28.138  20.695   3.268
79109W        W38403  17.755  15.097  12.393
79110W        W38404   7.241  24.689  14.419
79111W        W38405  40.394   4.896   4.124
79112W        W38406  26.142  30.133  11.582
79113W        W38407  10.302  40.495  14.471
79114W        W38408  30.062  20.057   1.778
79115W        W38409  30.512  32.478   0.461
79116W        W38410  42.357  33.555   2.781
79117W        W38411  42.407  29.497  11.376
79118W        W38412   6.426   6.858  10.479
79119W        W38413  31.021  43.793   2.190
79120W        W38414  34.030   4.396   4.803
79121W        W38415  35.089  18.260   3.776
79122W        W38416  20.168  28.471  14.914
79123W        W38417  14.175  36.881   3.738
79124W        W38418  29.115  10.636  11.992
79125W        W38419  41.423  43.325  11.927
79126W        W38420  17.283   9.655  14.456
79127W        W38421   9.239  29.071   0.967
79128W        W38422  33.606  38.044   2.867
79129W        W38423  28.040  25.156  14.891
79130W        W38424  16.796   3.910   1.755
79131W        W38425  19.251   0.807   4.770
79132W        W38426  24.498   7.383   5.099
79133W        W38427  15.287  21.259   2.219
79134W        W38428  36.028   5.277  12.883
79135W        W38429   2.782   2.382   9.447
79136W        W38430  18.640   0.913  10.551
79137W        W38431  11.767  39.409   1.374
79138W        W38432   7.775  14.205  13.466
79139W        W38433  28.977  35.898  10.992
79140W        W38434  10.861  33.094   4.206
79141W        W38435  10.837  22.124   2.240
79142W        W38436   4.424  10.677   2.792
79143W        W38437  36.918  30.047   2.222
79144W        W38438   7.708  36.498  14.999
79145W        W38439  40.875  22.725   0.752
79146W        W38440  36.005  39.394  13.497
79147W        W38441   0.988  14.299  10.450
79148W        W38442   1.967  31.983   3.322
79149W        W38443  40.035  28.081  11.910
79150W        W38444  31.607  31.028  10.481
79151W        W38445   8.400  18.083  10.915
79152W        W38446  24.987  25.112  12.924
79153W        W38447   9.727  14.705  11.392
79154W        W38448  22.698  25.596   0.850
79155W        W38449  40.836   2.305   3.292
79156W        W38450   1.451  33.384  13.012
79157W        W38451  17.145  27.622  14.448
79158W        W38452  35.084  19.171   0.876
79159W        W38453   2.390  21.564   4.746
79160W        W38454  15.289  19.579   2.341
79161W        W38455  13.109  39.472   4.264
79162W        W38456  29.661  16.196   0.823
79163W        W38457   8.656  37.543  13.894
79164W        W38458  11.364  18.124   1.248
79165W        W38459  26.533  38.364  14.969
79166W        W38460   3.349  37.480   0.425
79167W        W38461  44.352  11.746  12.526
79168W        W38462   2.443  17.653   1.716
79169W        W38463   4.251  26.621   0.833
79170W        W38464  19.199   0.891   4.158
79171W        W38465  28.940  16.588   4.181
79172W        W38466  29.582  29.159  10.990
79173W        W38467   0.406  13.668   0.797
79174W        W38468   5.852   1.244  13.314
79175W        W38469  31.467   2.832   2.737
79176W        W38470   1.389   6.884  14.864
79177W        W38471  19.196  44.829  14.962
79178W        W38472   8.211   1.799  14.778
79179W        W38473  21.540   7.321  12.500
79180W        W38474  10.316  26.511  13.331
79181W        W38475  26.695  40.875  14.984
79182W        W38476  42.921  38.453  14.287
79183W        W38477  13.125  25.026  13.354
79184W        W38478  33.482   6.219   0.429
79185W        W38479  18.584  34.534  13.425
79186W        W38480  36.447  20.243   0.753
79187W        W38481  39.842   0.284   9.673
79188W        W38482   5.924  23.051  11.938
79189W        W38483  15.088  29.047   3.309
79190W        W38484  12.781  38.540  11.028
79191W        W38485  34.077  17.305  12.397
79192W        W38486  43.510  13.256  12.471
79193W        W38487  15.315  41.442   2.798
79194W        W38488  15.206  39.326   3.732
79195W        W38489  24.629  37.386  14.360
79196W        W38490  32.952  27.469   3.387
79197W        W38491   4.702   6.907   0.845
79198W        W38492  38.553  40.920   1.761
79199W        W38493  35.533  41.832  14.937
79200W        W38494  19.643   5.907   0.474
79201W        W38495  24.104   7.782  12.521
79202W        W38496  44.892   0.311  13.951
79203W        W38497  12.758  17.668   4.836
79204W        W38498  12.768  24.022   0.752
79205W        W38499  43.798  41.026   2.378
79206W        W38500  22.108  21.757   1.885
79207W        W38501  15.815  29.985  12.434
79208W        W38502  19.085  10.357  13.425
79209W        W38503   4.724  14.247   0.726
79210W        W38504  10.155  23.496  12.418
79211W        W38505  24.106  21.699   1.831
79212W        W38506   3.833  43.914   3.296
79213W        W38507  27.474  19.541   1.906
79214W        W38508  16.236  43.923   1.724
79215W        W38509  36.892  31.492   0.740
79216W        W38510  22.563  22.191  10.477
79217W        W38511  31.437   6.721   4.323
79218W        W38512  33.030  11.277   3.156
79219W        W38513  30.430  13.833   2.196
79220W        W38514  29.598  34.952   1.257
79221W        W38515  23.668  32.001   0.867
79222W        W38516  19.728  39.481  13.869
79223W        W38517   5.849  24.627   2.268
79224W        W38518   8.866  20.662   3.783
79225W        W38519   0.939   8.887  10.620
79226W        W38520  30.074  33.995  13.918
79227W        W38521  16.204  42.375   4.783
79228W        W38522  36.895  30.618  11.510
79229W        W38523  35.047  28.040  10.137
79230W        W38524  13.343  35.520  14.866
79231W        W38525  26.502   8.178  10.124
79232W        W38526  17.570  15.802  10.935
79233W        W38527  15.192   4.333  11.979
79234W        W38528  44.938  42.472   4.803
79235W        W38529  14.665  14.820   3.635
79236W        W38530  39.459  34.072  10.582
79237W        W38531   8.306   2.232   1.726
79238W        W38532  31.501  34.557  11.023
79239W        W38533   7.782  25.181  12.095
79240W        W38534  26.597   1.479  13.889
79241W        W38535  28.582  32.509  14.480
79242W        W38536  20.118  31.606  13.935
79243W        W38537  18.228  28.143  14.820
79244W        W38538  20.251  31.996   4.189
79245W        W38539  26.987   9.158  11.397
79246W        W38540  42.439  39.466  10.463
79247W        W38541  42.951   2.815  14.297
79248W        W38542  21.193   6.422  14.963
79249W        W38543   6.355  30.039  10.454
79250W        W38544   4.343  28.151  10.912
79251W        W38545  19.533  11.149   4.767
79252W        W38546  25.193  14.280  13.432
79253W        W38547  33.590  13.293  10.906
79254W        W38548   2.842  35.870  11.481
79255W        W38549   4.409   0.349   1.254
79256W        W38550  33.421   9.383   1.865
79257W        W38551  17.105  31.959   0.876
79258W        W38552   9.822  23.597  14.866
79259W        W38553  20.149  26.482  12.918
79260W        W38554  41.877   9.849   0.358
79261W        W38555   1.874  39.349   4.235
79262W        W38556   4.435  25.514   1.827
79263W        W38557  12.836  38.989   2.836
79264W        W38558   4.405  32.591  12.351
79265W        W38559   5.363  44.315   0.452
79266W        W38560  30.981   1.368  11.944
79267W        W38561  38.869  31.548  11.918
79268W        W38562  11.790  40.317   4.663
79269W        W38563  17.210  40.856   3.264
79270W        W38564  31.049   2.924   4.777
79271W        W38565  12.731  33.507  11.600
79272W        W38566  39.994  16.211  12.974
79273W        W38567  36.534  44.277   0.261
79274W        W38568  18.141  18.683  12.046
79275W        W38569  14.322  37.486   4.771
79276W        W38570  18.190  21.202   0.842
79277W        W38571   6.883  38.017   2.338
79278W        W38572  15.739  44.398   4.298
79279W        W38573  38.906  17.174  10.934
79280W        W38574  19.183  27.520   0.397
79281W        W38575  31.615  19.183  13.397
79282W        W38576  18.185  23.030  13.021
79283W        W38577  27.191  31.108   4.142
79284W        W38578  37.418   2.848   2.221
79285W        W38579  38.064   3.407  14.320
79286W        W38580  19.127  14.735  11.016
79287W        W38581  41.474  35.394  12.828
79288W        W38582  27.446  31.425  12.360
79289W        W38583   1.383  40.008  13.977
79290W        W38584  40.962  18.647  12.868
79291W        W38585   3.293  14.254   3.649
79292W        W38586  28.671   4.243  11.985
79293W        W38587  38.912  23.043   3.244
79294W        W38588  25.140  10.658  12.084
79295W        W38589  13.833  36.581   0.452
79296W        W38590  33.940  39.874   1.435
79297W        W38591  40.372  32.513  10.924
79298W        W38592   3.903   1.908  14.787
79299W        W38593   1.863  39.466   3.857
79300W        W38594  11.776  27.675   0.770
79301W        W38595  32.894  36.392   3.854
79302W        W38596   7.681   1.962  11.989
79303W        W38597   8.896  43.300   2.259
79304W        W38598   0.325  21.187   0.886
79305W        W38599  39.499  33.920   4.349
79306W        W38600  29.133  33.874   4.781
79307W        W38601  40.500   4.752   1.886
79308W        W38602  10.155  14.805   5.086
79309W        W38603   2.427   8.368  12.897
79310W        W38604  44.845   4.319  12.351
79311W        W38605  30.080  16.725   1.274
79312W        W38606  13.725   9.653   1.391
79313W        W38607  22.533  30.063   3.634
79314W        W38608  13.778  25.482   2.220
79315W        W38609  30.053   3.379   2.390
79316W        W38610  27.948   7.774   2.765
79317W        W38611  10.192  22.662   4.755
79318W        W38612  38.370   8.359   2.372
79319W        W38613  23.041  22.227  14.462
79320W        W38614  17.795  24.128   4.116
79321W        W38615  35.518   3.378   0.901
79322W        W38616  40.848  14.647  11.962
79323W        W38617  23.682  36.992   2.221
79324W        W38618   5.833   4.839   4.705
79325W        W38619  34.375  18.649   0.767
79326W        W38620  12.828  26.646  14.987
79327W        W38621  42.923  21.712  14.473
79328W        W38622   6.903  26.198   0.742
79329W        W38623   5.209  26.576   1.437
79330W        W38624  43.433  37.495  11.558
79331W        W38625  42.374  33.001   1.323
79332W        W38626  13.712  38.012  13.868
79333W        W38627  15.206   6.245   2.404
79334W        W38628  13.344  17.194   4.184
79335W        W38629  41.841  13.197   2.197
79336W        W38630   8.681  37.450   0.295
79337W        W38631  35.585   6.309   1.766
79338W        W38632   3.956  39.509   2.413
79339W        W38633   0.930   7.412  13.463
79340W        W38634  34.006  27.949   0.397
79341W        W38635   1.833  40.992   4.660
79342W        W38636  41.365  40.365   0.391
79343W        W38637  22.653  40.377   0.891
79344W        W38638   0.475  17.715  10.975
79345W        W38639  31.974  21.075   4.147
79346W        W38640  27.992  34.579   0.802
79347W        W38641   5.895  24.014  12.493
79348W        W38642  14.682  27.488   0.453
79349W        W38643   3.946  14.613   3.758
79350W        W38644  41.339   4.405  10.128
79351W        W38645  35.532  35.855   2.370
79352W        W38646  35.856  25.492  12.343
79353W        W38647  39.899  24.085  11.521
79354W        W38648  41.869  30.449   4.329
79355W        W38649  40.012  33.945   5.269
79356W        W38650  40.412   3.276  13.395
79357W        W38651   0.764   6.387   0.372
79358W        W38652   6.259  23.687  12.351
79359W        W38653  12.822  15.656   1.446
79360W        W38654   6.251  35.466   1.929
79361W        W38655  24.213   8.293  12.094
79362W        W38656  24.212   6.680   2.757
79363W        W38657   7.676  15.255  12.976
79364W        W38658  24.621  38.848   1.737
79365W        W38659   5.756  17.222  11.453
79366W        W38660   7.809  33.071   0.740
79367W        W38661  38.890  22.147  12.049
79368W        W38662  17.635  11.737   0.746
79369W        W38663  30.018   1.386  11.471
79370W        W38664  31.943  34.437   0.361
79371W        W38665  25.706   5.738   0.375
79372W        W38666  16.212  34.092   3.190
79373W        W38667   9.699   7.703   0.454
79374W        W38668  16.295  43.021   5.117
79375W        W38669  38.464  27.052  13.057
79376W        W38670  22.123  17.669   3.157
79377W        W38671   4.702  44.860  12.559
79378W        W38672  11.327   2.863  12.897
79379W        W38673   2.822  18.673   3.237
79380W        W38674  27.590  40.052   5.285
79381W        W38675  38.489   3.877   3.195
79382W        W38676   8.667   4.919  11.412
79383W        W38677  16.143  33.934   4.679
79384W        W38678  14.820  35.096  10.953
79385W        W38679  41.459  36.545   0.868
79386W        W38680  43.997   4.792   0.472
79387W        W38681  18.775  44.369  11.560
79388W        W38682  24.173  32.564   1.424
79389W        W38683  10.244  28.016   3.210
79390W        W38684  12.763  43.300   0.443
79391W        W38685   0.833  36.958  11.996
79392W        W38686  32.539  37.574  10.093
79393W        W38687  17.561   7.790   0.732
79394W        W38688  13.263  34.866  12.931
79395W        W38689  25.493  43.946  12.968
79396W        W38690  37.831   2.331  11.960
79397W        W38691  10.188  29.525   2.221
79398W        W38692  20.254  27.607   0.756
79399W        W38693  42.280  21.543  13.400
79400W        W38694   3.376  24.048  12.004
79401W        W38695  25.061  38.963   1.828
79402W        W38696  17.117  29.459  12.059
79403W        W38697  10.350  20.562  13.877
79404W        W38698  15.718  23.511   3.822
79405W        W38699  30.957  33.119  14.394
79406W        W38700  42.975   4.802   0.770
79407W        W38701  34.922  19.282   2.849
79408W        W38702   6.313  41.357   1.379
79409W        W38703  19.080  21.721   3.224
79410W        W38704  36.483  12.631  14.385
79411W        W38705  16.682  36.912   1.780
79412W        W38706  10.354  36.968  12.049
79413W        W38707  39.454   2.904   4.331
79414W        W38708  32.113  29.601  12.860
79415W        W38709   2.322  34.599  10.070
79416W        W38710   3.931  40.952  12.941
79417W        W38711  36.553  14.655   3.686
79418W        W38712  26.951  35.093  10.909
79419W        W38713  10.673  10.177  13.489
79420W        W38714   2.838   3.418  11.123
79421W        W38715   5.905  29.584   3.220
79422W        W38716   3.709  34.948  14.283
79423W        W38717  15.616  15.767  11.973
79424W        W38718  37.483  17.635  13.974
79425W        W38719  21.163   0.867  12.496
79426W        W38720  25.085  42.029   4.696
79427W        W38721  22.688   1.930  13.852
79428W        W38722  30.437  29.597   1.828
79429W        W38723  17.723  12.828  12.025
79430W        W38724  11.314  29.654  12.351
79431W        W38725  27.186  10.372   1.882
79432W        W38726  26.697  40.838   1.892
79433W        W38727  17.598  28.438  11.086
79434W        W38728  36.592   0.251  14.499
79435W        W38729  38.541  14.304   3.176
79436W        W38730   6.823  37.439   1.933
79437W        W38731   1.799  24.659  10.518
79438W        W38732  28.003  24.713   4.686
79439W        W38733   9.854   6.423  11.079
79440W        W38734  16.644   8.853   0.383
79441W        W38735   1.971  44.354   0.323
79442W        W38736   6.363  10.241  12.349
79443W        W38737  41.897  14.306  11.118
79444W        W38738  42.339  24.160  10.472
79445W        W38739  28.930  10.291   2.368
79446W        W38740  31.077  21.220  10.501
79447W        W38741  27.608  37.551  13.892
79448W        W38742  42.492  25.188  14.806
79449W        W38743  22.667  36.904  12.476
79450W        W38744  40.931  30.577   4.276
79451W        W38745  35.538  39.822  11.582
79452W        W38746   5.817  25.680  13.951
79453W        W38747  15.655  43.377   2.735
79454W        W38748   7.189  17.569  14.373
79455W        W38749  13.129  43.294   4.660
79456W        W38750  14.338  37.418   3.766
79457W        W38751  34.095  24.620   0.812
79458W        W38752  22.743  21.753   3.785
79459W        W38753  15.734  32.945   4.255
79460W        W38754   5.344  23.179   4.162
79461W        W38755   2.740  22.589  14.504
79462W        W38756  36.560  29.505  12.871
79463W        W38757  16.772  17.720  12.360
79464W        W38758  39.945  44.462   4.783
79465W        W38759  17.304  42.307  10.450
79466W        W38760  43.802  35.499  14.778
79467W        W38761  28.671  39.926   1.310
79468W        W38762   3.715   6.210  14.807
79469W        W38763  15.304  35.026   0.833
79470W        W38764  31.140  41.394   4.340
79471W        W38765  26.493   3.720   2.235
79472W        W38766   7.347  30.639  11.107
79473W        W38767  21.039  32.081  10.597
79474W        W38768  33.882   0.954  11.885
79475W        W38769  17.592  18.196   1.743
79476W        W38770  40.403  31.576   3.783
79477W        W38771  14.633  42.794   3.361
79478W        W38772  44.330  22.640  12.486
79479W        W38773  38.540  33.910  11.433
79480W        W38774  27.644  17.746  13.407
79481W        W38775  35.041  15.721  10.474
79482W        W38776   1.969  16.622   3.296
79483W        W38777  13.600   9.825   3.264
79484W        W38778  40.421  28.513   0.872
79485W        W38779  12.348   9.862  13.355
79486W        W38780  13.206  11.754   4.675
79487W        W38781  23.010   7.227   9.995
79488W        W38782   2.894  38.556  11.054
79489W        W38783  32.107  34.536   1.874
79490W        W38784   0.831  23.636  10.900
79491W        W38785  33.483   6.263  11.886
79492W        W38786  30.017   8.331  14.355
79493W        W38787  23.490   8.272  12.457
79494W        W38788  25.202  42.431  14.886
79495W        W38789  33.115  20.601   0.965
79496W        W38790   4.398  36.020  11.012
79497W        W38791  18.256  32.001   0.383
79498W        W38792  13.168   0.251  12.368
79499W        W38793  12.784   5.194   2.367
79500W        W38794   2.842  21.094  11.519
79501W        W38795  42.448  19.219  14.914
79502W        W38796  11.281   4.302   3.366
79503W        W38797  25.029  12.736   3.741
79504W        W38798  12.727   9.769  12.555
79505W        W38799  27.051  10.357   3.630
79506W        W38800  25.205  11.294  12.508
79507W        W38801  19.107   5.375   2.251
79508W        W38802  30.543  17.204  11.447
79509W        W38803   9.685  26.021   4.691
79510W        W38804  33.113  24.206  10.948
79511W        W38805  41.815  14.336   2.191
79512W        W38806  44.414  36.368  11.982
79513W        W38807  31.074  12.218  11.127
79514W        W38808  33.595   1.361  10.434
79515W        W38809  26.653  20.259  11.949
79516W        W38810  10.820  37.010  11.473
79517W        W38811  10.353  25.539   4.754
79518W        W38812  37.019   0.783   1.280
79519W        W38813  12.331  40.936   0.798
79520W        W38814  30.093  21.230  13.499
79521W        W38815  15.134  10.709  14.982
79522W        W38816  28.569  28.185   1.722
79523W        W38817  42.340   9.864   2.182
79524W        W38818  21.230  21.710  13.518
79525W        W38819  28.069  13.804  11.108
79526W        W38820  33.549  20.235  13.487
79527W        W38821  34.970  24.098   4.261
79528W        W38822  25.195  42.287   0.407
79529W        W38823  22.596  37.864   1.831
79530W        W38824  31.905  41.998   4.670
79531W        W38825  27.596  18.153  13.473
79532W        W38826  14.710  34.992   4.624
79533W        W38827  41.042   0.403  11.897
79534W        W38828  42.798   6.220  12.890
79535W        W38829  43.331  32.490   4.164
79536W        W38830  13.800  30.511  10.528
79537W        W38831  35.920  35.937  11.858
79538W        W38832   3.951  13.156  14.871
79539W        W38833  23.231  37.347  11.452
79540W        W38834   4.283  19.185  11.975
79541W        W38835  10.276   6.285   2.323
79542W        W38836  36.894  36.875  12.936
79543W        W38837  18.756   3.746   3.761
79544W        W38838  36.497  43.371  14.374
79545W        W38839  43.805  26.078   1.722
79546W        W38840  36.853  22.153  12.082
79547W        W38841  17.750  15.289  10.990
79548W        W38842  41.402  25.672  12.559
79549W        W38843  25.493  29.172   0.816
79550W        W38844   4.362   6.352   1.299
79551W        W38845  44.861  30.413   0.376
79552W        W38846  16.169  10.658  13.808
79553W        W38847  39.535  35.491   0.292
79554W        W38848   5.810   0.922   2.343
79555W        W38849  10.842  20.618   2.379
79556W        W38850  44.779  12.779  10.620
79557W        W38851  34.086  18.248  14.032
79558W        W38852  19.548  10.861   0.470
79559W        W38853  32.005  12.834   1.397
79560W        W38854  15.240  37.544  14.976
79561W        W38855  44.485   3.860  13.470
79562W        W38856  41.526   6.858  11.094
79563W        W38857   1.412  22.595   2.186
79564W        W38858  18.070  19.196   5.230
79565W        W38859   4.263   1.766   5.232
79566W        W38860   2.245  16.573   3.185
79567W        W38861   9.323  30.933  12.576
79568W        W38862   8.236  42.801   4.621
79569W        W38863   3.359  43.303  12.524
79570W        W38864  25.163  37.335  12.479
79571W        W38865   4.934  19.733   3.210
79572W        W38866   9.212  16.766  11.389
79573W        W38867  36.426  18.061   0.387
79574W        W38868  12.640  15.774   2.319
79575W        W38869  12.727  41.999  13.375
79576W        W38870  14.708  44.291   0.456
79577W        W38871  41.898  34.515  13.390
79578W        W38872  10.763  23.159  13.888
79579W        W38873   9.238  15.748   0.395
79580W        W38874  43.473   8.236  10.529
79581W        W38875  35.898   6.846  13.477
79582W        W38876   5.282   9.771  14.994
79583W        W38877  30.464  14.605  11.024
79584W        W38878   3.803  15.694   3.752
79585W        W38879   3.737   4.938   2.331
79586W        W38880  44.872  22.558  12.390
79587W        W38881   9.746  22.164  11.455
79588W        W38882   7.268  25.109  12.429
79589W        W38883  24.717  17.131   4.613
79590W        W38884  19.725  40.412   3.725
79591W        W38885  35.382  18.697   0.768
79592W        W38886  19.653   5.890   4.120
79593W        W38887   3.424   2.448  12.041
79594W        W38888  40.521  30.997   2.334
79595W        W38889  24.087   9.840  11.446
79596W        W38890   9.363  19.580  11.451
79597W        W38891  35.855   1.262   4.303
79598W        W38892   1.771  31.636  12.825
79599W        W38893  37.487  12.135   1.754
79600W        W38894   1.973  23.724  12.496
79601W        W38895   2.806  35.367   3.858
79602W        W38896  12.797  14.637   0.417
79603W        W38897  11.186   8.837   0.304
79604W        W38898  20.754  31.487  12.381
79605W        W38899  33.473  12.117  10.060
79606W        W38900  14.806  10.286   0.415
79607W        W38901  25.530   0.474  11.069
79608W        W38902  34.424  42.962  14.886
79609W        W38903  27.097   7.702  13.362
79610W        W38904  29.020  17.699  12.990
79611W        W38905  35.024  15.692   1.923
79612W        W38906  28.137  29.475  12.494
79613W        W38907  30.568   5.279   4.248
79614W        W38908   6.784  40.355   0.427
79615W        W38909   7.379  27.082   3.868
79616W        W38910  24.186  34.069   3.363
79617W        W38911  10.229  19.696   1.714
79618W        W38912  10.237  26.514   2.849
79619W        W38913  44.284  36.454  12.526
79620W        W38914  44.460  27.457  13.886
79621W        W38915   8.763   6.418   4.176
79622W        W38916   0.895  19.042  14.015
79623W        W38917  35.600  38.894  11.096
79624W        W38918  23.125   2.313  14.435
79625W        W38919  32.457  26.533  13.344
79626W        W38920  13.192  22.595  13.978
79627W        W38921   4.292  19.634  14.979
79628W        W38922  17.663  20.071   1.260
79629W        W38923  34.557   4.245   0.445
79630W        W38924   5.930  34.957  13.948
79631W        W38925  44.288   2.913   3.351
79632W        W38926  11.188   7.799   2.395
79633W        W38927  31.635  13.653   0.377
79634W        W38928   9.384  19.160  11.485
79635W        W38929  39.923  14.775   1.848
79636W        W38930  13.759  26.198  10.562
79637W        W38931   2.955  12.169   1.730
79638W        W38932  23.219  27.128   0.451
79639W        W38933  33.028  12.802  14.313
79640W        W38934  36.879  32.568   5.681
79641W        W38935  38.059  30.607   4.130
79642W        W38936  22.666  12.123   1.737
79643W        W38937  39.521  41.511  10.588
79644W        W38938  15.660  25.564   3.343
79645W        W38939  27.118  17.685  13.045
79646W        W38940  30.519  37.389   3.733
79647W        W38941  32.546   6.756   3.692
79648W        W38942  35.044  21.106  12.357
79649W        W38943  16.624   6.411   0.788
79650W        W38944  44.971  17.064   1.851
79651W        W38945  31.962  40.455  14.321
79652W        W38946   6.764  20.248  14.858
79653W        W38947  15.804   3.437   1.268
79654W        W38948  42.496  35.999  10.622
79655W        W38949   3.420   6.884   4.697
79656W        W38950  24.648  20.216  13.334
79657W        W38951  33.886  32.094   0.385
79658W        W38952  12.178  11.864   0.816
79659W        W38953  13.654   1.269   1.894
79660W        W38954  33.957   4.217  13.517
79661W        W38955  11.303  36.015  10.603
79662W        W38956  14.106  24.523  10.513
79663W        W38957   6.867   8.894  12.499
79664W        W38958  21.060  23.029  13.432
79665W        W38959  31.939  38.566   4.679
79666W        W38960  43.368  33.607   1.322
79667W        W38961  38.887  28.504  12.848
79668W        W38962   7.264  34.933  13.868
79669W        W38963  15.203   6.861  13.500
79670W        W38964  24.999  19.562  14.498
79671W        W38965  38.395  17.187  11.451
79672W        W38966  25.052   9.784   0.769
79673W        W38967  15.720   3.905  14.442
79674W        W38968  20.126  20.072   4.718
79675W        W38969  31.486  29.120  11.937
79676W        W38970  18.755   0.795   4.118
79677W        W38971   3.381   7.283   1.366
79678W        W38972  40.376  10.161   3.828
79679W        W38973  24.514  41.013  10.431
79680W        W38974  29.491   6.856  14.905
79681W        W38975  33.091  13.819  13.019
79682W        W38976  30.124  36.068  12.427
79683W        W38977  43.404  39.865  11.978
79684W        W38978   8.858   3.405  13.501
79685W        W38979  26.981  40.023  14.976
79686W        W38980  20.542  44.759  12.995
79687W        W38981  19.059  37.388  12.886
79688W        W38982   9.783  43.828  13.548
79689W        W38983  16.655  33.930   2.698
79690W        W38984  20.579  30.457   2.761
79691W        W38985  15.683  27.505  13.959
79692W        W38986  33.414  26.573  12.854
79693W        W38987  32.077  19.544  13.389
79694W        W38988  14.159  18.783   0.967
79695W        W38989  41.405  43.985   2.761
79696W        W38990  20.606  37.938  14.873
79697W        W38991  28.492  13.248   1.754
79698W        W38992  32.995  42.833  14.416
79699W        W38993  28.051  35.860   9.987
79700W        W38994  43.338   0.438  13.982
79701W        W38995   4.401  21.553   2.312
79702W        W38996  16.227  29.626   4.653
79703W        W38997   4.348   1.296  14.914
79704W        W38998  39.455  29.091  13.431
79705W        W38999  40.941  12.124   4.659
79706W        W39000  27.014   7.307  13.980
79707W        W39001  17.684  22.218   4.330
79708W        W39002   2.307   1.294   3.826
79709W        W39003  13.234  20.213  13.889
79710W        W39004  33.881  27.957   3.221
79711W        W39005  40.402  24.100   2.809
79712W        W39006  31.406   1.746   0.785
79713W        W39007  20.681  22.542   0.309
79714W        W39008   9.274  39.811   3.780
79715W        W39009  26.032  37.466   0.903
79716W        W39010  25.184  29.051   1.736
79717W        W39011  35.544  26.174   0.941
79718W        W39012  24.579  38.025  11.550
79719W        W39013  15.600  30.945  11.117
79720W        W39014  11.324  24.176   1.295
79721W        W39015  34.900  39.988  12.051
79722W        W39016  37.463  32.940   2.397
79723W        W39017  38.456  14.641   1.826
79724W        W39018  42.776   6.827   2.270
79725W        W39019   6.908  18.690   1.357
79726W        W39020  37.352  41.533  10.955
79727W        W39021  34.493  13.334  12.882
79728W        W39022  33.879  12.663  11.087
79729W        W39023  35.357  39.354   2.756
79730W        W39024  24.697   5.887   4.269
79731W        W39025  10.636  36.997  14.001
79732W        W39026   0.491  10.165   4.350
79733W        W39027  43.452   1.354  11.949
79734W        W39028  36.932  15.751  11.901
79735W        W39029  20.536  18.634   2.236
79736W        W39030  34.450   1.305   1.695
79737W        W39031  32.539   3.309  10.994
79738W        W39032   9.357  14.827  11.920
79739W        W39033  42.923  22.630  10.528
79740W        W39034  10.654  11.371   4.277
79741W        W39035  17.754   9.872   1.305
79742W        W39036  25.004  16.260  14.337
79743W        W39037  40.830  11.273  11.870
79744W        W39038  34.977   2.859  12.006
79745W        W39039  19.648   1.834   2.818
79746W        W39040  43.488  17.293   2.261
79747W        W39041  38.028  28.169  11.956
79748W        W39042   8.766  44.844   4.747
79749W        W39043  44.317  30.606   0.912
79750W        W39044  25.588  13.117   2.708
79751W        W39045   5.913   6.419   2.879
79752W        W39046  23.025  12.166  14.282
79753W        W39047   9.376  39.362   3.649
79754W        W39048  11.171  36.375  12.540
79755W        W39049  28.572  15.799  10.472
79756W        W39050  16.678  43.793   0.787
79757W        W39051  25.981  25.648   4.281
79758W        W39052  24.560  28.444   2.416
79759W        W39053   6.801  16.223   4.815
79760W        W39054  22.546  27.460  14.828
79761W        W39055   8.251  10.868  10.596
79762W        W39056   0.916  11.759   4.282
79763W        W39057  11.181  35.554   3.378
79764W        W39058  20.107  31.987   4.819
79765W        W39059  15.193  44.818  12.419
79766W        W39060  20.246  29.486  14.881
79767W        W39061  32.627  21.073  10.971
79768W        W39062  20.140  17.555   2.846
79769W        W39063  31.965  31.516   1.911
79770W        W39064  43.300   1.315   1.234
79771W        W39065  33.066  34.597  13.061
79772W        W39066  33.499  27.601   3.773
79773W        W39067  16.587  22.531   1.714
79774W        W39068  18.067  38.901  13.400
79775W        W39069  15.165   7.246  11.084
79776W        W39070  21.598  15.210  13.027
79777W        W39071  19.605  10.172   3.197
79778W        W39072  35.550   6.421   4.237
79779W        W39073   5.689  19.066   1.926
79780W        W39074  27.155   7.819  11.552
79781W        W39075  42.936  32.037  10.892
79782W        W39076   0.274  22.518  11.471
79783W        W39077  36.500   4.723  11.436
79784W        W39078  18.226   3.776  11.064
79785W        W39079  17.223  11.247  11.383
79786W        W39080  36.892  33.076   1.235
79787W        W39081  41.498  36.983  11.963
79788W        W39082  44.802  25.053   2.323
79789W        W39083   0.890  15.247  10.959
79790W        W39084  37.071   2.874  14.290
79791W        W39085  23.115  41.881   1.711
79792W        W39086  39.947  19.135   0.395
79793W        W39087  32.075  25.492  14.350
79794W        W39088  25.607  34.015   3.265
79795W        W39089  18.169   4.728  11.969
79796W        W39090  44.437  23.992  12.836
79797W        W39091  44.858  10.842   0.397
79798W        W39092   5.345  29.092   0.459
79799W        W39093  43.876  14.328   3.786
79800W        W39094  33.909  10.728   1.838
79801W        W39095  10.785   5.699  11.547
79802W        W39096  34.914  18.244   4.781
79803W        W39097  37.555  39.974  12.401
79804W        W39098  29.148  11.832   4.287
79805W        W39099  29.446   3.791  14.805
79806W        W39100  11.864  12.261   3.184
79807W        W39101  22.147  24.000  14.307
79808W        W39102  25.154  24.170  14.381
79809W        W39103   8.250  32.003   5.154
79810W        W39104  19.166   8.283   0.349
79811W        W39105  36.383  10.282   4.252
79812W        W39106  41.485  39.444   0.778
79813W        W39107  13.832  43.996  11.581
79814W        W39108   0.853  38.959   3.834
79815W        W39109  23.125  37.858  13.427
79816W        W39110  37.517  20.253  13.406
79817W        W39111  32.456  15.122  12.956
79818W        W39112   3.216  16.707  12.465
79819W        W39113   9.394  29.449  14.318
79820W        W39114  27.943   6.876   1.259
79821W        W39115  40.431  37.061   3.331
79822W        W39116  23.123  15.743  10.010
79823W        W39117  23.689  15.274   3.674
79824W        W39118  29.652  17.579   1.381
79825W        W39119   2.316  42.897   0.353
79826W        W39120   2.263  12.773  12.019
79827W        W39121  43.466   7.391   4.818
79828W        W39122  15.113  32.465   1.237
79829W        W39123  37.434   2.352  13.469
79830W        W39124  24.659  25.615   4.131
79831W        W39125  24.720  14.332   3.377
79832W        W39126   9.726  35.567   0.384
79833W        W39127  34.071  17.118   3.183
79834W        W39128   5.824  19.242  13.898
79835W        W39129  22.203  20.235   3.288
79836W        W39130  21.187  43.326   5.252
79837W        W39131  11.671   2.855   1.319
79838W        W39132  29.567  39.946   0.738
79839W        W39133  12.853  13.714   1.219
79840W        W39134  42.025   7.213  11.482
79841W        W39135   1.959  13.339  12.568
79842W        W39136  16.072  31.410  12.025
79843W        W39137  20.534  39.016   1.397
79844W        W39138  20.617  37.847   0.320
79845W        W39139  39.966  23.008   3.148
79846W        W39140  18.095  42.009  12.015
79847W        W39141  19.202  44.392   1.414
79848W        W39142  24.178  21.688  10.599
79849W        W39143  14.275   3.919   0.332
79850W        W39144  26.552  15.324  12.466
79851W        W39145  20.245   6.289  10.021
79852W        W39146  42.523  11.129   0.942
79853W        W39147  44.769   1.393   2.726
79854W        W39148  16.734  39.442   3.653
79855W        W39149  22.731  26.120  13.355
79856W        W39150  26.182   4.300  13.540
79857W        W39151  33.469  33.465   9.983
79858W        W39152   9.202  13.137  14.382
79859W        W39153  33.404  39.913   9.958
79860W        W39154  11.680  30.141   0.251
79861W        W39155   0.877  40.477   3.735
79862W        W39156  28.171  26.208  12.414
79863W        W39157  44.002   2.293   3.254
79864W        W39158   2.946  25.524   0.752
79865W        W39159  36.518  21.123  11.034
79866W        W39160   9.862   4.427   1.304
79867W        W39161   6.286  35.386   0.948
79868W        W39162  40.000  20.114  12.413
79869W        W39163   4.730   7.327   1.427
79870W        W39164   8.356   8.382   1.277
79871W        W39165  23.495  25.674   3.215
79872W        W39166   3.267  22.175  12.467
79873W        W39167  14.703  42.033  13.459
79874W        W39168  19.679  14.324   2.787
79875W        W39169  38.407  17.718   0.374
79876W        W39170   1.868  23.110   0.874
79877W        W39171   7.697  33.944  14.918
79878W        W39172  44.838  35.971   0.798
79879W        W39173   1.282  37.501  12.580
79880W        W39174   5.779  11.267   4.115
79881W        W39175   8.706  36.877   4.775
79882W        W39176   9.661   0.918   9.547
79883W        W39177  43.794  16.703   2.394
79884W        W39178  17.661   1.252   4.671
79885W        W39179   2.277   7.413   3.746
79886W        W39180   7.315  40.935   3.281
79887W        W39181  28.108   6.827   4.671
79888W        W39182  24.975   3.436   0.342
79889W        W39183   2.458   6.344  12.418
79890W        W39184  31.061  21.227  14.998
79891W        W39185  16.660  18.711  13.417
79892W        W39186  44.351   6.419   0.274
79893W        W39187  29.648   2.419   3.689
79894W        W39188  22.185  44.383   1.274
79895W        W39189  18.634  17.111  10.067
79896W        W39190  40.485   1.866   5.272
79897W        W39191  34.386  37.474   3.864
79898W        W39192  15.655  17.582  13.380
79899W        W39193  11.675  14.819   3.204
79900W        W39194  42.309  22.704   2.388
79901W        W39195  36.929  12.264  11.406
79902W        W39196  36.577  21.564   0.459
79903W        W39197  13.611  19.738   9.584
79904W        W39198   7.868   1.876  12.993
79905W        W39199  21.717  35.980  13.856
79906W        W39200  24.052  28.607  10.892
79907W        W39201  35.437  35.965  11.858
79908W        W39202  43.303  29.988   2.770
79909W        W39203  22.136  10.258   4.166
79910W        W39204  17.177  11.249   4.716
79911W        W39205   2.313  11.181   0.964
79912W        W39206  28.578  22.168   4.317
79913W        W39207  32.141  41.899  11.941
79914W        W39208  34.113  36.011  13.025
79915W        W39209  23.722  23.010  14.947
79916W        W39210   5.757   5.783   3.213
79917W        W39211  15.139   8.700   1.254
79918W        W39212  23.105  12.344  12.887
79919W        W39213   4.443  11.232  12.977
79920W        W39214   4.383  26.063  11.038
79921W        W39215  24.073  25.017   3.756
79922W        W39216  19.727  13.734  14.981
79923W        W39217  18.627   7.205  13.794
79924W        W39218  39.945  10.267  12.057
79925W        W39219   9.165  23.041  11.413
79926W        W39220  22.662  28.533   0.909
79927W        W39221  27.105  26.689   4.826
79928W        W39222  31.993  23.131   2.327
79929W        W39223  24.539  11.176   1.347
79930W        W39224  12.219  33.437  13.476
79931W        W39225  27.641   7.790  13.912
79932W        W39226  24.553  24.063   0.908
79933W        W39227   7.206   5.255  13.909
79934W        W39228   9.832  12.648   3.676
79935W        W39229   2.893   8.351  11.894
79936W        W39230  30.097   9.381   3.210
79937W        W39231  21.633   4.415   1.378
79938W        W39232   1.355   0.793   3.299
79939W        W39233  35.559  33.910   3.658
79940W        W39234  18.677  43.403  11.861
79941W        W39235  16.109  39.047   3.200
79942W        W39236  43.986  44.902  13.916
79943W        W39237  29.929  44.885  11.933
79944W        W39238  32.548  11.679  10.636
79945W        W39239   1.249  16.184   3.865
79946W        W39240  33.513  12.204   4.691
79947W        W39241  40.000   5.236  13.996
79948W        W39242  15.286   1.302   1.447
79949W        W39243  13.190  21.719   1.710
79950W        W39244  43.778  44.458  14.422
79951W        W39245  11.709  21.034  11.376
79952W        W39246  25.688  16.092  10.560
79953W        W39247  17.124   6.188   1.224
79954W        W39248  14.208  42.862  13.433
79955W        W39249  37.410  22.702   2.701
79956W        W39250  32.583  44.445  14.847
79957W        W39251  13.686  25.668   2.894
79958W        W39252   3.227  34.052  10.633
79959W        W39253  30.610  21.704  10.947
79960W        W39254   6.411  34.960   5.132
79961W        W39255  14.631  18.169   0.327
79962W        W39256  44.984  18.571   2.684
79963W        W39257  19.595  26.623   2.800
79964W        W39258   9.812  18.291  14.495
79965W        W39259  32.619  21.737   3.746
79966W        W39260  12.318  24.645  11.394
79967W        W39261  32.578  37.883   9.990
79968W        W39262  14.608  21.668  12.845
79969W        W39263  21.680  31.077  11.520
79970W        W39264  35.103  11.353  10.453
79971W        W39265   7.828  22.193   2.259
79972W        W39266  27.001  21.524  10.476
79973W        W39267  18.123  21.189   1.753
79974W        W39268  19.055  21.754  10.408
79975W        W39269  23.706   8.853  11.484
79976W        W39270  44.271  40.914   2.409
79977W        W39271  17.608  40.893  14.300
79978W        W39272   5.422  38.425  12.379
79979W        W39273  27.982  10.296  12.073
79980W        W39274  11.256   8.368  11.379
79981W        W39275   7.849   9.836  10.507
79982W        W39276   0.892  30.651  12.038
79983W        W39277  25.630   9.301   3.227
79984W        W39278  10.195  35.044   2.345
79985W        W39279   7.322  15.601  13.468
79986W        W39280   7.318  18.287   3.795
79987W        W39281  35.912  21.222   0.917
79988W        W39282   0.780   1.879   1.281
79989W        W39283  13.758   1.378   0.941
79990W        W39284   4.277   6.761   4.666
79991W        W39285  11.233  27.474   2.825
79992W        W39286  21.176  32.394  14.386
79993W        W39287   0.284  23.202   2.724
79994W        W39288  15.675  31.512  11.531
79995W        W39289  25.575   4.406   1.861
79996W        W39290  14.753  44.400  11.107
79997W        W39291   5.296  24.214   2.730
79998W        W39292  36.460  30.063  12.968
79999W        W39293  32.956  34.609   0.296
80000W        W39294   9.644  16.697  10.911
80001W        W39295  32.913  25.170   3.244
80002W        W39296   3.934  17.118   4.116
80003W        W39297  32.562  19.086  10.412
80004W        W39298  32.425  18.779   1.922
80005W        W39299  25.657   3.238   3.368
80006W        W39300  33.543  42.281  14.949
80007W        W39301  16.669  13.794   4.605
80008W        W39302  40.389  26.688  12.912
80009W        W39303  21.571  41.506  12.847
80010W        W39304   7.331  17.726   2.672
80011W        W39305  26.702  25.543  12.567
80012W        W39306  11.780   3.730   2.414
80013W        W39307  43.957   2.808   0.764
80014W        W39308  15.627  26.469  14.935
80015W        W39309  38.069  43.898  13.814
80016W        W39310   5.432  15.329   3.355
80017W        W39311   8.323  35.591  12.954
80018W        W39312  13.330  26.578  10.907
80019W        W39313  24.584  32.926  11.880
80020W        W39314  18.168  15.822   3.266
80021W        W39315  28.100  27.620  11.423
80022W        W39316  22.675  27.491  11.883
80023W        W39317  14.285  41.805   5.314
80024W        W39318  17.612  43.807   3.189
80025W        W39319  14.706  37.982  13.386
80026W        W39320   9.355  30.936   4.252
80027W        W39321  41.528  40.337  14.392
80028W        W39322  31.102  15.792   0.951
80029W        W39323  24.977  16.622  13.797
80030W        W39324  23.587  34.936  14.831
80031W        W39325  31.488  39.818   9.933
80032W        W39326  11.824   1.359   2.405
80033W        W39327  40.407  17.185  11.452
80034W        W39328  21.627   1.812  14.984
80035W        W39329  38.897  35.570  12.494
80036W        W39330  38.414  19.275   2.858
80037W        W39331   2.391   1.845   5.295
80038W        W39332   4.315  31.065   2.405
80039W        W39333  18.571  21.073  11.580
80040W        W39334  17.093  20.607  14.353
80041W        W39335  23.512  40.924  12.496
80042W        W39336  18.051   3.407   2.701
80043W        W39337   9.374  28.150   0.766
80044W        W39338   8.709  32.924  11.582
80045W        W39339  26.060  19.753  14.294
80046W        W39340  21.524  44.399   1.270
80047W        W39341  18.702  37.521   2.336
80048W        W39342  16.087  33.553  13.344
80049W        W39343   9.817  25.133  10.598
80050W        W39344  13.815  16.267   0.310
80051W        W39345  40.008   3.450   3.153
80052W        W39346   8.655  37.524   4.646
80053W        W39347  42.907  25.033  14.795
80054W        W39348  12.834  31.111   9.994
80055W        W39349  10.686  28.022   3.283
80056W        W39350   1.457   6.419  11.855
80057W        W39351   0.340  16.592   2.706
80058W        W39352  39.498   9.790  12.929
80059W        W39353  10.852   7.333  14.425
80060W        W39354  40.856   5.731  14.937
80061W        W39355  21.227  27.994   0.397
80062W        W39356  25.617  22.068  12.906
80063W        W39357  15.204  18.253   4.190
80064W        W39358  33.506  29.961   3.225
80065W        W39359  27.449  21.042  11.399
80066W        W39360   7.295   5.728   3.283
80067W        W39361  15.204  14.696   4.697
80068W        W39362  12.816  31.555  13.397
80069W        W39363  36.498  20.563  13.409
80070W        W39364  10.761  35.876   0.278
80071W        W39365  36.999   3.402   0.313
80072W        W39366  38.417  42.403   1.873
80073W        W39367  22.237  29.623  12.881
80074W        W39368  13.150  36.024  11.474
80075W        W39369  10.660   5.804  13.490
80076W        W39370  39.831  36.070   5.227
80077W        W39371  12.757  19.191   3.674
80078W        W39372  34.963  39.999  12.945
80079W        W39373  34.401  11.188   1.917
80080W        W39374  17.199  44.466   1.868
80081W        W39375   6.412  26.640  10.558
80082W        W39376  25.554   6.270  10.974
80083W        W39377  31.598   0.750   2.778
80084W        W39378  36.854  33.104   5.280
80085W        W39379  41.920  11.653  11.010
80086W        W39380  43.509  34.962  10.511
80087W        W39381  41.849  27.597  11.071
80088W        W39382  38.348  14.252   2.253
80089W        W39383  30.975  22.087  12.007
80090W        W39384  43.332   6.413   0.935
80091W        W39385  44.305  37.379  12.055
80092W        W39386  43.784  12.200  13.449
80093W        W39387  16.242   7.274  13.057
80094W        W39388  24.109  15.720  12.528
80095W        W39389   9.216   6.759   2.731
80096W        W39390  35.094  25.499  13.333
80097W        W39391  40.817   0.366   3.284
80098W        W39392  29.010  38.007   2.224
80099W        W39393   8.241   0.488   1.441
80100W        W39394  24.643  39.929  12.483
80101W        W39395  33.606  22.192   2.800
80102W        W39396  35.397  33.028   0.825
80103W        W39397  16.244  34.457  11.391
80104W        W39398  10.838  13.234   3.198
80105W        W39399  30.979  27.599   1.708
80106W        W39400  41.434  38.463  11.859
80107W        W39401   0.808   9.171   1.930
80108W        W39402  10.139  42.924  10.002
80109W        W39403   3.769  17.064  10.894
80110W        W39404  31.429  10.262  11.460
80111W        W39405  32.963  16.688  11.381
80112W        W39406  41.336   8.233  11.035
80113W        W39407  15.756  34.489  10.980
80114W        W39408  29.142  31.920  10.932
80115W        W39409  12.300   6.684   3.735
80116W        W39410  16.195  14.138  12.013
80117W        W39411   6.694   7.839  13.351
80118W        W39412  36.590  18.192   0.745
80119W        W39413  32.100  29.067   4.258
80120W        W39414   2.273   4.220  11.533
80121W        W39415  17.633  23.710   0.739
80122W        W39416  27.631   7.214   4.135
80123W        W39417  30.109   1.816  13.925
80124W        W39418   4.220  22.532   0.946
80125W        W39419  28.149  33.513  14.895
80126W        W39420  34.384  17.737  14.434
80127W        W39421  33.035  35.527   3.758
80128W        W39422  17.152  27.087  12.881
80129W        W39423   2.723   8.863  12.899
80130W        W39424   9.386   9.362  11.077
80131W        W39425   0.889   5.812   3.294
80132W        W39426  30.018   1.905  11.902
80133W        W39427  26.675   1.901  13.058
80134W        W39428  39.357  22.549   0.726
80135W        W39429  27.596  28.548   2.673
80136W        W39430  36.970  17.650   1.904
80137W        W39431  17.213   7.867   1.726
80138W        W39432  27.983  41.877  13.339
80139W        W39433  36.427  27.578  11.496
80140W        W39434   7.806  11.730  11.420
80141W        W39435  33.556   7.378  13.542
80142W        W39436   4.295  35.388   4.292
80143W        W39437   4.702  15.604  11.960
80144W        W39438  44.900   8.236   2.189
80145W        W39439  39.452  19.048   0.461
80146W        W39440  22.743  37.971  11.397
80147W        W39441   5.387   0.379  10.440
80148W        W39442  31.402  16.153   1.288
80149W        W39443  44.780  15.238  10.430
80150W        W39444  38.532  35.911   2.344
80151W        W39445  20.193  14.105  12.513
80152W        W39446  44.380  40.388   2.348
80153W        W39447  37.521   0.911  10.583
80154W        W39448  25.098  13.165   3.687
80155W        W39449  24.196  37.016  14.975
80156W        W39450   8.685  17.693   3.273
80157W        W39451   9.819  32.091   3.340
80158W        W39452   3.303   1.965  10.961
80159W        W39453  44.322  38.961   2.708
80160W        W39454  31.616   4.449  11.919
80161W        W39455  10.780  11.175   1.287
80162W        W39456  38.366  31.632  14.768
80163W        W39457  44.964  28.600   3.196
80164W        W39458  40.017   3.714  11.420
80165W        W39459  20.150  14.808   3.632
80166W        W39460   9.747   4.348  14.015
80167W        W39461  39.853  25.634  12.855
80168W        W39462  43.311  18.777  10.566
80169W        W39463   7.677  41.827  11.547
80170W        W39464  31.958   2.967   0.817
80171W        W39465  28.582  33.051   0.932
80172W        W39466  16.770   8.260   2.747
80173W        W39467  28.129  36.020  12.020
80174W        W39468  37.932  24.171  14.478
80175W        W39469  28.551   2.770   2.843
80176W        W39470  41.916   8.357   3.782
80177W        W39471  14.112  30.601  11.494
80178W        W39472  42.424  20.255  10.897
80179W        W39473  38.472   8.689  13.444
80180W        W39474  19.275   0.318   3.297
80181W        W39475  37.424  44.928  13.004
80182W        W39476  20.709  39.554  14.817
80183W        W39477  36.034  31.975   4.817
80184W        W39478  23.147  27.486   3.258
80185W        W39479  29.424  26.102  12.433
80186W        W39480   5.388  31.987  13.974
80187W        W39481   7.207  30.087   4.789
80188W        W39482  28.098   8.688   1.393
80189W        W39483  42.309  34.433   3.354
80190W        W39484  17.287   4.771  10.538
80191W        W39485  22.099  44.999   3.243
80192W        W39486  22.518   5.764   2.683
80193W        W39487   1.328  11.665   1.405
80194W        W39488  37.872  13.177  14.431
80195W        W39489  33.588  16.708  11.904
80196W        W39490  40.806   0.423   3.816
80197W        W39491  20.109  24.141   1.283
80198W        W39492  32.554  15.164   3.267
80199W        W39493  38.948  25.562   1.710
80200W        W39494  32.115  15.181   4.335
80201W        W39495  13.791  26.679   4.665
80202W        W39496  24.178  39.364   4.121
80203W        W39497  34.395   2.867  13.854
80204W        W39498  19.268   8.286   2.231
80205W        W39499  32.914  21.542  11.936
80206W        W39500  42.857  13.118  14.285
80207W        W39501   1.766  15.651  10.617
80208W        W39502  40.477  30.113  13.845
80209W        W39503  35.106  11.777  12.494
80210W        W39504  28.604   3.746   2.295
80211W        W39505  15.808  28.065  11.400
80212W        W39506  23.190  26.085  11.392
80213W        W39507   3.361  26.051  12.975
80214W        W39508  36.012  28.650  12.421
80215W        W39509  35.564  20.603   0.784
80216W        W39510  14.202   1.463  14.834
80217W        W39511   7.906  33.558  12.009
80218W        W39512  32.597  27.164   1.748
80219W        W39513  40.324   4.763   0.732
80220W        W39514  12.842  23.606   3.681
80221W        W39515  41.952  18.211   4.724
80222W        W39516   2.925   6.308  14.445
80223W        W39517  12.359  10.221  10.150
80224W        W39518  26.083  34.370  10.985
80225W        W39519  42.996  11.678  11.412
80226W        W39520   1.275  38.861  14.781
80227W        W39521   0.283   1.390   0.919
80228W        W39522  15.654  21.755   2.791
80229W        W39523  25.002  14.689   3.701
80230W        W39524  39.998  42.940  14.923
80231W        W39525  30.946   3.761   4.623
80232W        W39526  19.134  35.891  14.002
80233W        W39527  16.811  18.714   5.088
80234W        W39528  27.610  23.149  10.615
80235W        W39529  29.087  12.614  12.024
80236W        W39530  26.116  28.636  13.870
80237W        W39531  41.921  19.547  11.063
80238W        W39532  25.571  18.289   2.385
80239W        W39533   3.419   2.735  12.438
80240W        W39534  21.514  14.334   4.598
80241W        W39535  14.600  33.613  10.593
80242W        W39536  22.226   7.908  10.067
80243W        W39537  21.234   9.288   1.302
80244W        W39538  36.419  14.187   5.309
80245W        W39539   3.379  37.404  13.519
80246W        W39540   9.688  35.985  14.370
80247W        W39541  17.109  34.521   4.781
80248W        W39542   0.298   0.838   0.779
80249W        W39543  15.290  41.894   2.724
80250W        W39544  31.497   9.660   5.665
80251W        W39545  20.083  23.593  14.456
80252W        W39546  24.597   1.275  14.770
80253W        W39547  35.561  20.051  12.977
80254W        W39548   8.702  35.107   5.222
80255W        W39549   9.719  31.962   2.242
80256W        W39550   5.870  28.935   2.340
80257W        W39551   7.283  27.161  13.312
80258W        W39552  15.218  27.528   4.149
80259W        W39553  42.505  13.245   0.952
80260W        W39554  37.064  29.668   2.755
80261W        W39555  40.842  39.435   1.378
80262W        W39556  34.086  18.259  14.932
80263W        W39557  21.118  34.094  10.997
80264W        W39558   0.320  14.337  12.828
80265W        W39559   5.723   3.400   2.238
80266W        W39560  38.859  28.024   0.800
80267W        W39561  36.877  36.908  13.846
80268W        W39562   8.669  39.377  10.914
80269W        W39563   7.836   1.829  10.969
80270W        W39564  30.599  41.936   3.311
80271W        W39565  37.838   7.250  13.385
80272W        W39566  37.356  43.835  13.332
80273W        W39567  10.744  39.501   0.758
80274W        W39568   7.334   7.248  11.874
80275W        W39569  39.052   1.861  11.920
80276W        W39570  23.572  28.076   0.810
80277W        W39571  33.607   8.794   1.830
80278W        W39572  21.552  12.645  11.888
80279W        W39573  36.946  40.880  12.970
80280W        W39574  27.023  24.213  11.865
80281W        W39575  31.508  29.577   3.793
80282W        W39576  38.921  38.840  11.463
80283W        W39577   1.419  39.965   2.675
80284W        W39578  33.077  19.666  14.367
80285W        W39579  13.197  24.018   2.724
80286W        W39580  16.307  27.057   4.220
80287W        W39581  12.691  20.094  11.432
80288W        W39582   1.348   3.450  12.830
80289W        W39583   0.853  31.109   2.195
80290W        W39584   8.842  37.470   3.361
80291W        W39585  24.707   9.214   0.369
80292W        W39586  22.535  23.050   0.324
80293W        W39587  19.674  18.565  14.016
80294W        W39588  31.641  25.494  10.942
80295W        W39589   2.933  19.647   4.699
80296W        W39590   7.237  12.262   2.322
80297W        W39591  30.929  12.205   2.226
80298W        W39592  19.132  42.994   9.960
80299W        W39593   7.398   8.894  10.569
80300W        W39594   7.814  21.084   2.285
80301W        W39595  41.958  23.648  12.996
80302W        W39596  18.145  42.808   1.451
80303W        W39597  42.521   9.314  12.988
80304W        W39598   6.840   0.251  14.002
80305W        W39599  21.539  23.212   3.302
80306W        W39600  29.579  24.114   1.698
80307W        W39601  29.523  36.401   0.348
80308W        W39602  27.157   8.210   1.883
80309W        W39603  23.211  10.662   0.869
80310W        W39604  36.047  15.084   3.678
80311W        W39605  14.187  21.563  12.936
80312W        W39606  24.196  18.171   5.290
80313W        W39607  32.081   1.839  13.388
80314W        W39608  39.006  16.085  11.567
80315W        W39609   5.197  32.526   0.936
80316W        W39610   1.296  40.951  11.496
80317W        W39611   7.798  11.742  14.964
80318W        W39612  15.232   5.339  10.644
80319W        W39613  27.500  23.510   3.329
80320W        W39614  35.101  42.493  12.924
80321W        W39615  41.911  14.328  10.437
80322W        W39616  32.458  17.616   3.268
80323W        W39617  14.800  21.563   2.415
80324W        W39618  37.534  25.094  14.292
80325W        W39619  12.630  33.957   9.960
80326W        W39620   0.777  23.149  12.915
80327W        W39621  27.595  24.163  12.086
80328W        W39622   3.366  23.012  12.997
80329W        W39623   1.306  44.895  11.519
80330W        W39624  18.711  36.574   1.283
80331W        W39625   2.446  30.419   0.317
80332W        W39626   8.361  33.014  12.043
80333W        W39627  27.126  32.444  14.934
80334W        W39628  16.256   4.434   3.802
80335W        W39629   1.478  17.086   0.364
80336W        W39630  35.013  40.921  11.075
80337W        W39631  37.953  36.876   4.251
80338W        W39632  36.020   9.317  11.594
80339W        W39633   1.968   7.202   2.232
80340W        W39634  43.331  23.093  13.062
80341W        W39635  44.470  44.500   1.407
80342W        W39636  28.183   9.355   1.248
80343W        W39637  15.704  10.855  14.931
80344W        W39638  31.029   1.866   0.947
80345W        W39639  31.070  37.344  13.475
80346W        W39640  27.968   8.190  14.791
80347W        W39641  37.502  25.473  12.572
80348W        W39642  16.125  19.173  10.453
80349W        W39643  26.167  14.635   0.826
80350W        W39644  34.094  15.637   3.167
80351W        W39645  30.967  32.628  12.346
80352W        W39646  21.584  42.830  13.962
80353W        W39647  21.644  32.945   2.823
80354W        W39648  17.660  19.539  12.569
80355W        W39649  34.487  22.996  10.609
80356W        W39650   7.705  19.092   3.359
80357W        W39651  18.211   4.296   2.750
80358W        W39652  35.490   9.797  12.841
80359W        W39653  23.185   1.836   2.773
80360W        W39654   7.823  17.602   1.217
80361W        W39655  27.947  18.126  14.388
80362W        W39656  13.210  19.242  12.053
80363W        W39657  21.539  42.972  10.586
80364W        W39658   1.347  35.864   4.618
80365W        W39659  38.530  10.810   4.708
80366W        W39660  30.499  34.081   4.198
80367W        W39661  24.500  13.707   4.154
80368W        W39662  21.146  16.292  13.910
80369W        W39663  44.806   2.853   2.860
80370W        W39664  31.636  31.995  14.425
80371W        W39665  12.729  28.591  14.409
80372W        W39666  28.996  43.500   3.190
80373W        W39667  29.997  16.155   2.674
80374W        W39668   9.742  11.829  13.869
80375W        W39669  16.706  43.346  11.939
80376W        W39670  25.039   4.419   3.264
80377W        W39671   1.421  43.338   1.403
80378W        W39672  43.449   9.328  14.471
80379W        W39673  32.108  44.871  11.113
80380W        W39674  30.428  21.017  13.047
80381W        W39675  18.296  15.087   3.153
80382W        W39676  41.471  17.742   0.466
80383W        W39677  41.516  28.064  10.427
80384W        W39678   8.375  20.706   0.445
80385W        W39679  15.306   1.328   2.238
80386W        W39680  19.556   2.765  12.509
80387W        W39681  12.721  16.076   0.756
80388W        W39682  39.318  14.782   0.364
80389W        W39683  20.184  40.896   0.941
80390W        W39684  40.922   6.255  12.345
80391W        W39685  29.990  21.624   1.414
80392W        W39686   0.826  31.637  11.440
80393W        W39687  25.985  21.039   4.130
80394W        W39688  40.423  39.866   4.141
80395W        W39689  23.086  39.337  11.411
80396W        W39690   2.779  37.074   1.405
80397W        W39691  27.019  42.380  10.936
80398W        W39692  29.645  10.296   4.280
80399W        W39693   2.230  30.911   3.643
80400W        W39694   5.856  30.961   4.780
80401W        W39695  37.544  17.175   3.379
80402W        W39696  20.544  16.691  13.497
80403W        W39697  43.460   2.338  11.492
80404W        W39698   2.840   2.897   4.662
80405W        W39699  37.038  15.709   4.353
80406W        W39700  15.171  13.169  10.139
80407W        W39701  36.480  36.952   1.748
80408W        W39702   4.422  23.668   2.747
80409W        W39703   5.833  15.760   0.256
80410W        W39704   0.891  41.825   4.720
80411W        W39705  32.012   3.758  13.924
80412W        W39706  15.763   4.427  14.844
80413W        W39707  23.647  23.502  10.494
80414W        W39708  22.519   9.237   0.421
80415W        W39709  38.914   8.813  13.830
80416W        W39710   7.267  28.016   4.269
80417W        W39711  40.897  25.204   3.766
80418W        W39712  33.904  42.854   2.364
80419W        W39713  26.081   6.751  14.000
80420W        W39714  26.615   0.424   0.910
80421W        W39715  24.528  43.956   2.745
80422W        W39716  32.974  33.124   1.911
80423W        W39717   0.301  28.934  10.604
80424W        W39718   8.858  30.421   1.374
80425W        W39719  15.723   8.719  10.130
80426W        W39720  15.724  17.620   5.087
80427W        W39721  11.712  20.070   0.730
80428W        W39722   4.377  21.172   1.799
80429W        W39723  38.948  34.948   2.791
80430W        W39724  35.393  10.289  12.943
80431W        W39725  16.742   5.717   3.770
80432W        W39726  13.722  21.576   2.776
80433W        W39727   5.287  15.204  11.051
80434W        W39728  42.449  44.343  10.560
80435W        W39729  43.423  14.675  14.426
80436W        W39730  15.671   7.729   1.760
80437W        W39731  32.583  44.877   0.410
80438W        W39732   5.843  31.509   2.307
80439W        W39733   4.836  23.172   1.795
80440W        W39734  28.568   0.871  13.853
80441W        W39735  26.645  28.058  13.987
80442W        W39736   6.349  36.007   1.289
80443W        W39737   1.263  10.227   0.348
80444W        W39738  35.444  33.496   3.344
80445W        W39739  26.687  20.036   4.755
80446W        W39740  28.589   9.211  11.860
80447W        W39741   6.894  43.849  10.161
80448W        W39742  14.597  19.593  11.032
80449W        W39743  16.719  32.447  14.993
80450W        W39744   0.489   9.349  13.870
80451W        W39745  23.569  19.077   1.374
80452W        W39746  13.717   2.254  11.020
80453W        W39747   1.795  10.660  12.367
80454W        W39748   3.781  37.064  11.532
80455W        W39749  32.911  15.747  10.510
80456W        W39750  12.317  43.788   3.732
80457W        W39751   1.277   8.283  13.388
80458W        W39752  32.094  16.627   9.930
80459W        W39753   8.243  11.823   4.745
80460W        W39754  14.137  12.656  13.317
80461W        W39755  20.206  34.472   5.083
80462W        W39756  43.334  18.733  14.812
80463W        W39757  28.973  42.299   4.643
80464W        W39758  40.836  13.175   4.776
80465W        W39759  44.358  31.951  12.515
80466W        W39760   0.451   6.213   3.806
80467W        W39761   3.792   2.841   3.335
80468W        W39762  12.783   0.761   2.677
80469W        W39763  32.113   5.264   2.258
80470W        W39764  37.969   5.734   0.878
80471W        W39765  32.105  29.608   1.369
80472W        W39766   9.283   5.774   0.440
80473W        W39767   1.743  14.662   2.352
80474W        W39768  28.674  20.267   4.239
80475W        W39769  19.269   2.265  12.020
80476W        W39770  37.992  16.302   0.411
80477W        W39771  35.551  18.106  12.019
80478W        W39772  16.073  24.145   3.807
80479W        W39773  28.679  40.812  14.012
80480W        W39774  35.854   4.449   2.892
80481W        W39775  11.769  41.467   1.908
80482W        W39776  22.230  26.144  13.526
80483W        W39777  44.825   5.707   2.777
80484W        W39778  10.834   1.297  11.926
80485W        W39779  33.501   3.946   3.779
80486W        W39780   0.880   0.418   2.200
80487W        W39781  38.933  23.649  10.944
80488W        W39782  18.130  36.932  11.944
80489W        W39783  22.596  41.813  12.060
80490W        W39784  29.607   2.809   0.278
80491W        W39785  26.160  27.474  13.820
80492W        W39786  25.658   7.691  11.391
80493W        W39787  17.615  39.397   1.734
80494W        W39788  27.599  33.992  10.511
80495W        W39789  25.050  20.548  13.440
80496W        W39790   3.883  11.687   3.243
80497W        W39791  36.571   4.855   2.791
80498W        W39792  42.492   5.791  14.858
80499W        W39793   3.435  12.275   2.855
80500W        W39794  24.065  29.606   4.345
80501W        W39795   4.287  33.952  14.913
80502W        W39796  21.244   7.186   4.249
80503W        W39797   3.265   5.812  12.343
80504W        W39798  19.159  33.043  13.881
80505W        W39799  24.607   3.249   2.712
80506W        W39800  22.663  30.964  13.881
80507W        W39801  38.952  21.131   5.114
80508W        W39802  27.050  18.195   1.719
80509W        W39803   1.309  26.673  13.003
80510W        W39804  24.612  38.332   0.406
80511W        W39805  36.089  33.580  12.511
80512W        W39806  18.137  26.100   1.820
80513W        W39807  11.322   1.472  11.045
80514W        W39808  24.502  24.225  13.515
80515W        W39809  19.240  30.035  12.556
80516W        W39810  12.846  11.168   4.124
80517W        W39811  36.426  36.083  11.118
80518W        W39812  34.875  21.564   4.643
80519W        W39813  44.468  19.186  13.866
80520W        W39814  40.853  12.807  11.940
80521W        W39815  29.545  41.916   3.868
80522W        W39816  33.533  34.607   1.746
80523W        W39817   6.920  42.975  13.992
80524W        W39818  12.239  15.678  13.990
80525W        W39819  18.054   4.319  10.933
80526W        W39820  24.104  38.462  14.276
80527W        W39821  33.994  37.449  13.539
80528W        W39822  14.164  31.931   1.420
80529W        W39823  30.472   1.448   1.782
80530W        W39824  10.227  20.734   1.256
80531W        W39825  39.970   0.935   2.740
80532W        W39826  28.149  10.847   2.712
80533W        W39827   5.273  33.563  10.609
80534W        W39828  42.962   6.246   4.303
80535W        W39829  30.507  40.871  11.929
80536W        W39830   0.346  29.477  12.853
80537W        W39831  27.105   8.364   4.695
80538W        W39832  11.787  44.923   4.726
80539W        W39833  36.875  29.150   4.646
80540W        W39834  19.040  44.803   0.390
80541W        W39835  25.469   4.288   0.308
80542W        W39836  34.407  26.562   0.245
80543W        W39837  13.222  25.592  11.580
80544W        W39838   5.779  27.142  12.404
80545W        W39839   9.822  41.950  13.363
80546W        W39840   7.363  28.503   1.309
80547W        W39841   2.456  23.715  13.791
80548W        W39842  22.624  17.276  13.321
80549W        W39843   1.475   9.886   1.714
80550W        W39844  27.612   9.185  13.520
80551W        W39845  37.984   4.879  14.004
80552W        W39846  39.894   2.857  11.446
80553W        W39847  10.226  41.821  13.903
80554W        W39848  31.553  38.065  12.419
80555W        W39849  29.588  42.966  10.436
80556W        W39850  42.841  29.538   1.774
80557W        W39851  21.218  39.494  13.009
80558W        W39852  31.621  15.299  12.922
80559W        W39853   7.733   1.328  14.934
80560W        W39854  40.001  42.941  13.471
80561W        W39855   5.428   2.316  11.896
80562W        W39856  29.985  34.377   1.366
80563W        W39857   9.368  16.208   4.260
80564W        W39858  32.943  19.230   2.392
80565W        W39859   0.279  26.019  10.434
80566W        W39860  13.617  44.490   4.145
80567W        W39861   4.713  27.676   3.727
80568W        W39862   6.715  18.104  12.914
80569W        W39863  30.956  33.005  12.060
80570W        W39864  11.217  12.835   0.322
80571W        W39865  32.583   5.839   4.137
80572W        W39866  44.926  43.460  10.604
80573W        W39867  23.197  24.596  10.542
80574W        W39868  36.090  20.668   3.321
80575W        W39869  20.257  29.114  10.038
80576W        W39870  23.139  43.363  13.445
80577W        W39871  27.969  44.275   3.231
80578W        W39872  39.958  27.094  10.515
80579W        W39873  38.956  12.770  13.546
80580W        W39874  31.101  11.258  13.903
80581W        W39875  30.429   6.388   0.275
80582W        W39876  23.654   1.423   0.457
80583W        W39877  38.423  41.990  11.566
80584W        W39878  12.660  22.083  12.527
80585W        W39879   3.773  16.569   4.598
80586W        W39880  11.853   9.377   2.219
80587W        W39881  33.540  32.499  14.384
80588W        W39882   4.407  38.491   2.178
80589W        W39883  14.208  30.563  13.311
80590W        W39884  21.641   5.699   1.876
80591W        W39885   6.348  19.705  14.864
80592W        W39886  34.011   4.220   3.829
80593W        W39887   7.221   0.858   2.304
80594W        W39888  29.580   7.190  12.093
80595W        W39889  32.982  30.644  11.388
80596W        W39890  37.032  38.050  10.449
80597W        W39891   6.794   9.840  14.483
80598W        W39892  29.573  43.405   9.454
80599W        W39893  23.023  32.435   3.782
80600W        W39894   8.847  21.613  10.104
80601W        W39895  34.450  39.317   0.766
80602W        W39896  18.578  11.224   3.833
80603W        W39897  38.962  35.054  12.037
80604W        W39898  22.672   7.740  11.535
80605W        W39899  36.888  17.606  12.881
80606W        W39900  10.652   1.264   5.319
80607W        W39901  42.973  27.574   0.861
80608W        W39902  20.174  28.573   2.800
80609W        W39903   7.223  24.668  12.386
80610W        W39904  35.049  41.361   5.090
80611W        W39905   7.890  18.584   1.383
80612W        W39906  17.189   4.439   1.809
80613W        W39907  18.282  24.211   0.766
80614W        W39908   0.314   8.754   1.912
80615W        W39909  13.799   4.700  12.458
80616W        W39910  26.072  39.967   2.279
80617W        W39911   3.736  13.328  12.453
80618W        W39912  37.527  18.775  10.636
80619W        W39913  17.596  37.383  13.335
80620W        W39914  43.448  13.111   0.777
80621W        W39915  21.668  22.174   1.384
80622W        W39916  23.008  27.638   0.778
80623W        W39917  15.636   4.814   2.882
80624W        W39918  16.122   5.849  13.330
80625W        W39919  39.018   9.790  14.306
80626W        W39920  18.176  36.436  11.904
80627W        W39921   4.838  14.826   3.268
80628W        W39922  44.473  42.471  13.961
80629W        W39923  15.722   2.237   2.726
80630W        W39924   5.431  10.681   3.315
80631W        W39925   8.773  30.545   0.787
80632W        W39926  31.926   0.845   3.193
80633W        W39927  33.553  14.240  10.987
80634W        W39928  34.940   8.228  13.949
80635W        W39929  44.866   3.831  11.433
80636W        W39930  43.386   9.219   1.394
80637W        W39931   2.291  29.614  13.820
80638W        W39932  10.196  23.561   4.696
80639W        W39933  29.169  26.172  14.916
80640W        W39934  39.011   5.215  11.492
80641W        W39935  23.204   5.807   2.861
80642W        W39936  35.441  33.503   0.353
80643W        W39937  13.755  26.955  11.584
80644W        W39938   9.339  33.985  11.911
80645W        W39939   1.482  19.643  13.471
80646W        W39940  24.225   3.246  10.929
80647W        W39941  33.875  23.094  11.536
80648W        W39942  13.651  35.973  12.536
80649W        W39943  19.617   9.349   2.302
80650W        W39944  41.498   0.797  13.392
80651W        W39945  35.969   3.886   3.706
80652W        W39946  34.532  37.406  10.613
80653W        W39947  31.978  41.302  14.340
80654W        W39948   8.254  30.634  12.396
80655W        W39949  35.580   1.367  14.822
80656W        W39950  41.022  30.128   2.380
80657W        W39951  33.030   7.198   3.220
80658W        W39952  19.054  34.451   3.819
80659W        W39953  39.428  27.142   4.337
80660W        W39954  22.672   8.360  11.998
80661W        W39955  11.657  25.047   4.701
80662W        W39956  20.538  31.512   3.783
80663W        W39957  23.606  30.445  11.062
80664W        W39958  20.713  40.907  12.853
80665W        W39959  29.923  12.304   3.753
80666W        W39960   6.899  39.936   0.304
80667W        W39961  39.535  10.357   9.620
80668W        W39962  26.695  37.839   3.839
80669W        W39963  21.186  17.754   4.719
80670W        W39964  32.556   4.354  12.928
80671W        W39965  11.182  32.527  12.044
80672W        W39966  31.593  38.976   3.795
80673W        W39967  43.345  31.639  13.347
80674W        W39968  16.199  10.329  11.581
80675W        W39969   7.296  24.725  14.899
80676W        W39970  20.607  13.262   0.279
80677W        W39971  39.517  36.960   2.258
80678W        W39972  16.671   4.216   0.914
80679W        W39973   4.758  39.447  14.454
80680W        W39974   8.226   2.451   3.790
80681W        W39975  33.585  24.627  11.976
80682W        W39976   3.336  37.551   3.707
80683W        W39977  10.316  31.537  12.430
80684W        W39978   0.744  14.112   4.338
80685W        W39979  14.655  19.237   3.146
80686W        W39980  15.809  11.149   3.672
80687W        W39981  44.803  20.242  11.084
80688W        W39982  22.536   3.292   1.235
80689W        W39983  20.659  31.057   4.150
80690W        W39984  14.128  11.221  12.347
80691W        W39985   0.408  26.692  12.006
80692W        W39986   8.362  28.030   5.171
80693W        W39987  43.303  26.625   1.341
80694W        W39988  43.838  32.025   4.731
80695W        W39989  19.173  40.409   0.953
80696W        W39990  44.951  29.981   3.707
80697W        W39991   8.687  11.760  14.469
80698W        W39992  43.501  29.173  11.548
80699W        W39993  41.402  21.181   4.262
80700W        W39994  16.280   1.386  12.395
80701W        W39995   6.877  14.681  12.085
80702W        W39996  17.789  35.934   1.271
80703W        W39997  41.902  23.149   1.715
80704W        W39998  16.103  40.904  12.022
80705W        W39999  21.138  13.187  11.099
80706W        W40000  23.595  43.016   3.814
80707W        W40001   4.793   0.330   9.525
80708W        W40002  42.456  20.242   3.189
80709W        W40003  33.407  42.905   2.697
80710W        W40004  28.519  15.659  11.559
80711W        W40005   5.768  40.395  11.883
80712W        W40006   3.295  11.802   4.231
80713W        W40007  23.167   9.695   9.981
80714W        W40008  13.762  20.115   9.604
80715W        W40009  13.696  10.664  11.523
80716W        W40010  18.287  32.926   3.854
80717W        W40011   8.200  38.905  13.371
80718W        W40012  31.998  44.473  12.436
80719W        W40013  21.582  19.655   4.312
80720W        W40014   5.794  18.692   3.168
80721W        W40015  31.017  10.314   3.324
80722W        W40016  44.456  27.956   1.924
80723W        W40017  19.043  38.861  10.914
80724W        W40018  11.825  37.889   4.152
80725W        W40019  13.652   4.802  11.046
80726W        W40020   2.822   7.781  14.778
80727W        W40021   1.803   2.779  12.040
80728W        W40022  29.005  16.287   0.798
80729W        W40023   4.744  22.737   3.647
80730W        W40024  20.132   4.252   0.769
80731W        W40025  30.597  28.544  12.843
80732W        W40026  24.632  22.197  13.354
80733W        W40027  25.531  32.629   4.822
80734W        W40028   0.983  33.899   0.957
80735W        W40029  14.323  31.491  12.451
80736W        W40030  22.565  28.679  13.321
80737W        W40031  25.043  24.032   1.805
80738W        W40032  41.323  25.088  10.901
80739W        W40033   2.317  41.942   0.892
80740W        W40034  43.285  29.154   2.251
80741W        W40035  11.684   2.841  10.584
80742W        W40036   0.372  16.286  13.060
80743W        W40037  17.622   0.959   1.437
80744W        W40038  36.564   9.711  14.790
80745W        W40039  33.392  40.969   4.751
80746W        W40040   7.259   2.287  12.963
80747W        W40041  25.096   0.923  10.410
80748W        W40042   2.821  35.984  12.833
80749W        W40043  44.987   3.460  12.897
80750W        W40044   1.301   4.816  12.380
80751W        W40045  24.049  26.967   2.283
80752W        W40046  41.000  11.835  10.624
80753W        W40047   6.293   6.416   5.204
80754W        W40048  39.393  32.919   2.180
80755W        W40049  37.881  26.126   2.753
80756W        W40050  14.237   7.911   1.731
80757W        W40051  11.149  27.461  13.803
80758W        W40052  23.660  40.945  13.002
80759W        W40053  11.154  35.022   0.480
80760W        W40054  41.344  10.761  12.065
80761W        W40055  22.598  18.608   5.160
80762W        W40056  41.376   1.324   1.375
80763W        W40057  39.425  34.448  13.525
80764W        W40058   5.726  44.787   0.395
80765W        W40059  16.687  25.029   4.813
80766W        W40060  40.853   4.793  13.955
80767W        W40061  16.257  26.130  13.311
80768W        W40062  44.290  12.639   3.249
80769W        W40063  25.496  28.582  11.540
80770W        W40064  18.550  11.654  13.795
80771W        W40065   3.456   2.357   3.815
80772W        W40066  28.474  32.069  11.946
80773W        W40067  41.932   3.763  13.861
80774W        W40068  23.145  33.409   4.625
80775W        W40069  27.052  26.649  13.874
80776W        W40070  37.470  38.063  10.946
80777W        W40071  11.766  36.070  14.002
80778W        W40072  29.998  12.636   2.678
80779W        W40073  28.667  29.537  13.061
80780W        W40074  15.138   4.378  13.411
80781W        W40075  35.600  26.577  11.981
80782W        W40076  11.861  21.020   1.836
80783W        W40077  20.182  16.126  10.562
80784W        W40078  12.688   0.331  14.018
80785W        W40079  34.539  13.653   2.741
80786W        W40080  10.262  32.073   1.916
80787W        W40081  42.937  18.234   0.955
80788W        W40082  41.038  32.498   1.413
80789W        W40083   4.437  41.516   3.202
80790W        W40084   5.281  31.048  12.924
80791W        W40085   0.898  44.950  12.894
80792W        W40086  31.459  39.527   2.786
80793W        W40087  21.519  24.500   2.819
80794W        W40088   8.781   4.351   1.793
80795W        W40089  15.102  43.429   3.739
80796W        W40090  26.645  38.439  13.508
80797W        W40091  37.068  23.490   4.149
80798W        W40092  36.403  10.655  13.397
80799W        W40093  21.170  33.107   4.618
80800W        W40094  36.387  36.908  14.335
80801W        W40095  20.124  17.771  13.416
80802W        W40096  14.283   5.746  12.373
80803W        W40097  36.386  38.361  13.429
80804W        W40098  34.589   7.254   2.198
80805W        W40099  18.226  38.498  14.793
80806W        W40100  12.168  10.150   1.722
80807W        W40101  40.985  23.584  14.871
80808W        W40102  17.611  24.012   1.217
80809W        W40103   8.249   5.862   1.387
80810W        W40104   1.894   4.411  13.533
80811W        W40105   8.786  18.130  10.630
80812W        W40106  22.225   8.772  13.850
80813W        W40107  22.157  40.034   2.899
80814W        W40108   6.766  43.271   3.366
80815W        W40109  26.203  21.670  13.835
80816W        W40110  39.360  30.934   2.764
80817W        W40111  27.196  26.067  12.849
80818W        W40112  38.356  13.186  14.296
80819W        W40113  29.519   9.233   3.362
80820W        W40114  33.626  21.626   4.598
80821W        W40115  34.897  43.798  13.987
80822W        W40116  25.083  40.531  12.888
80823W        W40117  38.036  22.122  14.958
80824W        W40118   9.792  21.087   0.931
80825W        W40119  13.333  20.194  12.374
80826W        W40120  14.662  14.805   1.906
80827W        W40121  43.914   5.211  13.883
80828W        W40122  39.999  23.170   4.761
80829W        W40123  37.012  31.554   1.926
80830W        W40124  22.568  30.935  10.421
80831W        W40125  43.996  34.948  12.083
80832W        W40126  27.991  21.094   0.364
80833W        W40127  10.824  11.332  12.971
80834W        W40128  38.875  23.097   5.271
80835W        W40129  18.115   2.956  12.082
80836W        W40130  29.099   3.423   3.318
80837W        W40131  19.731  23.522   2.778
80838W        W40132  24.501   7.199  14.978
80839W        W40133   7.291  34.873  13.322
80840W        W40134  44.434  12.126   3.742
80841W        W40135   3.915   2.308  13.542
80842W        W40136  30.556  44.404  11.880
80843W        W40137   2.934  41.334   0.313
80844W        W40138  14.713   0.775   2.697
80845W        W40139  12.726  11.749   1.425
80846W        W40140  43.395  26.535  12.901
80847W        W40141  23.716   6.416  10.966
80848W        W40142  42.438  33.427   4.703
80849W        W40143  33.877  25.581  12.054
80850W        W40144  19.587  24.710   2.199
80851W        W40145  35.040   6.294  10.896
80852W        W40146  31.549  32.597  10.538
80853W        W40147  35.963   9.313   3.325
80854W        W40148   7.742  11.656   2.215
80855W        W40149  29.139   7.853   2.282
80856W        W40150  22.021  19.234   3.803
80857W        W40151  36.881  16.811   2.350
80858W        W40152   0.748  27.649  11.424
80859W        W40153  23.196  25.157   1.217
80860W        W40154  33.447  27.150   3.325
80861W        W40155  20.678  37.992  11.991
80862W        W40156  27.541  13.775  13.336
80863W        W40157   0.928  41.309   2.710
80864W        W40158   5.439   6.698  10.438
80865W        W40159  41.860  16.096  14.826
80866W        W40160  22.040   0.265  14.438
80867W        W40161  13.274  37.066  14.308
80868W        W40162  34.523  14.272  11.950
80869W        W40163   2.264   0.350  11.485
80870W        W40164  19.602  12.739   4.325
80871W        W40165  31.607  26.698   2.675
80872W        W40166   7.851  15.293  11.910
80873W        W40167  27.692   7.850  13.396
80874W        W40168   5.811  30.914  12.481
80875W        W40169  23.625  30.043   4.710
80876W        W40170  28.609  42.297  11.929
80877W        W40171   1.318  31.565  14.484
80878W        W40172  17.274   3.901  14.873
80879W        W40173  36.922  33.095  10.508
80880W        W40174  10.772  30.921   1.449
80881W        W40175  26.458  15.206   1.900
80882W        W40176  39.409  41.984   0.376
80883W        W40177  36.899  41.792  12.880
80884W        W40178  14.134  39.414  12.015
80885W        W40179  13.219  38.343  13.054
80886W        W40180   9.383  40.051   1.696
80887W        W40181  42.776  15.674  13.805
80888W        W40182   2.445  43.327   2.688
80889W        W40183  10.243  39.939   0.863
80890W        W40184   4.303  25.025  10.917
80891W        W40185  28.936   3.405  14.980
80892W        W40186  15.662  32.500  11.039
80893W        W40187  42.926  18.202  14.440
80894W        W40188   9.263  10.857  14.866
80895W        W40189  27.971  40.956  13.946
80896W        W40190  40.337  27.001  14.834
80897W        W40191  20.273  42.918   3.289
80898W        W40192  35.404  18.062  14.490
80899W        W40193  40.476  34.892   0.906
80900W        W40194  10.872  43.821   3.364
80901W        W40195  33.934  39.813   1.848
80902W        W40196  20.257  35.478   3.383
80903W        W40197  34.529   1.900  11.468
80904W        W40198  10.843  43.906   3.868
80905W        W40199   9.861   8.369   4.736
80906W        W40200  40.861  12.171   1.325
80907W        W40201   4.851  38.909   0.280
80908W        W40202   0.267  14.323   0.762
80909W        W40203  30.982  15.185  12.075
80910W        W40204  43.299  12.175   3.672
80911W        W40205  23.115   9.879   0.915
80912W        W40206  35.373  26.004  14.988
80913W        W40207   1.247  14.144   4.208
80914W        W40208  17.622   2.813   0.962
80915W        W40209  31.916  24.057   0.944
80916W        W40210  41.851  23.635  13.811
80917W        W40211  44.277  27.528   4.181
80918W        W40212  32.520  22.732   1.802
80919W        W40213  31.005  15.110   4.180
80920W        W40214   6.709   6.193   1.872
80921W        W40215  22.191  19.563  11.479
80922W        W40216  26.163  31.499  12.028
80923W        W40217  44.961  37.050   4.142
80924W        W40218   4.273  30.625   2.762
80925W        W40219  36.861  21.539   2.896
80926W        W40220   3.323   5.205  14.815
80927W        W40221   9.650  22.540   4.617
80928W        W40222  14.651  30.423  12.907
80929W        W40223  15.659   0.330  14.414
80930W        W40224  21.160  25.986   0.247
80931W        W40225  35.950  25.518   3.762
80932W        W40226  32.546  21.226   1.261
80933W        W40227  21.671  16.077  13.417
80934W        W40228  29.657  42.385   0.330
80935W        W40229  10.695  28.088  12.064
80936W        W40230   4.231  10.152  11.084
80937W        W40231  14.707  27.660   1.884
80938W        W40232  32.419  31.930   2.682
80939W        W40233  43.387  18.282  10.545
80940W        W40234  35.558   9.187  14.395
80941W        W40235  18.724  25.107  11.979
80942W        W40236  35.985  32.634   4.328
80943W        W40237  13.202  22.170  13.415
80944W        W40238  32.015  25.681   0.956
80945W        W40239   8.894  28.998  14.768
80946W        W40240  24.027  13.809   0.892
80947W        W40241   7.301   0.413   3.299
80948W        W40242  25.499   6.900   1.881
80949W        W40243  30.518  29.029  14.941
80950W        W40244  17.656   1.806  14.981
80951W        W40245  20.633  22.075   2.797
80952W        W40246  21.608  29.511   2.871
80953W        W40247  17.155  10.270   1.902
80954W        W40248  36.927  30.961   4.318
80955W        W40249  11.711   0.250  10.448
80956W        W40250  30.095  24.171   1.889
80957W        W40251  34.031   5.208  14.763
80958W        W40252   6.917  17.122  13.009
80959W        W40253  20.730  36.419   1.293
80960W        W40254   3.219  30.931   4.799
80961W        W40255   5.751  44.321  13.415
80962W        W40256  24.544  25.001   2.827
80963W        W40257  15.154  23.540  11.995
80964W        W40258  32.511  37.930   4.194
80965W        W40259  38.330  32.102  12.494
80966W        W40260   5.932  25.503  10.417
80967W        W40261  24.102  28.169   4.603
80968W        W40262   7.722  26.176  12.033
80969W        W40263   5.882  33.001  13.954
80970W        W40264  20.198  32.510   3.178
80971W        W40265   6.361  35.533   0.326
80972W        W40266   9.284  39.035  10.123
80973W        W40267  19.178  27.551  13.911
80974W        W40268   3.340  40.440  14.324
80975W        W40269  28.994  41.020   0.327
80976W        W40270  21.594  35.903  11.480
80977W        W40271  23.137  25.036  11.918
80978W        W40272  12.707  42.289   3.169
80979W        W40273  13.692  29.945  13.034
80980W        W40274   2.807   4.871   0.877
80981W        W40275  21.629  14.320   2.868
80982W        W40276   0.958  15.578   1.848
80983W        W40277  30.997   1.865   3.244
80984W        W40278  32.102  33.069  13.824
80985W        W40279   1.468  25.510   4.119
80986W        W40280   9.868   7.841   4.324
80987W        W40281  44.944  43.936   3.222
80988W        W40282  11.641  41.475   0.809
80989W        W40283  10.804  38.847  13.518
80990W        W40284   0.883  16.690  12.571
80991W        W40285  42.373  39.889  14.978
80992W        W40286   8.788  11.190  13.894
80993W        W40287  28.113  15.616  13.953
80994W        W40288  18.270  28.657  12.980
80995W        W40289  35.601  41.873   3.207
80996W        W40290  39.903   5.260  11.470
80997W        W40291  19.539  22.190   2.406
80998W        W40292  32.111  12.250   4.282
80999W        W40293  30.422   1.831  11.538
81000W        W40294  13.157  19.199  14.762
81001W        W40295   0.346  17.155  11.388
81002W        W40296  18.781  44.810  13.426
81003W        W40297  20.163  29.617   1.380
81004W        W40298  30.616  25.212  13.470
81005W        W40299  34.099  13.253  12.524
81006W        W40300  34.941  25.036  13.034
81007W        W40301   6.398  10.724   3.830
81008W        W40302  11.257  40.450  14.290
81009W        W40303   2.883  27.644   3.282
81010W        W40304  30.936  30.643  14.932
81011W        W40305  42.447  44.954  12.028
81012W        W40306  26.011  20.084   4.310
81013W        W40307  18.210  21.731   2.246
81014W        W40308  30.064   6.186  14.461
81015W        W40309  39.390  16.661   1.872
81016W        W40310  19.236  40.903   3.690
81017W        W40311  43.959   3.296   2.721
81018W        W40312  44.901   0.781  14.403
81019W        W40313  27.195   5.688  13.814
81020W        W40314  17.064  13.196  12.036
81021W        W40315  33.881   5.413   4.806
81022W        W40316   3.241  18.606   2.246
81023W        W40317  11.672   8.900  14.998
81024W        W40318   0.861   7.304  10.952
81025W        W40319  35.526   9.719   1.788
81026W        W40320  39.523  36.458   4.182
81027W        W40321  16.178  24.522   4.611
81028W        W40322  11.338  25.071   0.862
81029W        W40323   2.335  41.897  10.552
81030W        W40324  19.736  18.578   2.257
81031W        W40325  33.046  29.041   3.749
81032W        W40326  39.555   7.854  11.562
81033W        W40327   5.435  32.574  14.009
81034W        W40328  38.367  33.586   5.155
81035W        W40329  42.368  38.875  14.502
81036W        W40330   7.416  37.554  12.975
81037W        W40331  27.099  36.895   0.430
81038W        W40332  23.729   6.365  12.438
81039W        W40333  15.709   0.925   1.881
81040W        W40334  38.487  20.262  10.541
81041W        W40335  26.099  18.689  14.978
81042W        W40336  17.129  33.470  14.924
81043W        W40337  33.387  23.563  12.058
81044W        W40338  31.620  30.514   4.627
81045W        W40339  12.693   4.416   1.822
81046W        W40340  15.327  43.305  13.316
81047W        W40341  15.247   9.349   4.698
81048W        W40342   9.172  41.802   0.952
81049W        W40343  26.007   7.909   2.306
81050W        W40344  30.042   7.322  13.016
81051W        W40345  15.108  30.038  10.509
81052W        W40346  34.383  24.660  10.961
81053W        W40347  40.306   0.923  10.095
81054W        W40348  19.051   6.749  12.547
81055W        W40349  19.562  13.744  10.636
81056W        W40350  17.760  44.439   4.743
81057W        W40351  44.498   3.858   0.930
81058W        W40352  33.557  29.480  13.500
81059W        W40353  18.099  36.847   3.253
81060W        W40354  25.044  15.646  11.508
81061W        W40355  35.942  17.574   2.860
81062W        W40356  19.581  12.124   1.213
81063W        W40357   9.354   0.280  14.316
81064W        W40358  37.443   6.708  10.998
81065W        W40359  43.868  22.242  11.123
81066W        W40360  41.523   5.763  13.835
81067W        W40361  39.979  34.560   9.500
81068W        W40362  19.284  20.589  14.925
81069W        W40363  29.597  29.586   0.442
81070W        W40364  18.659  16.283   3.314
81071W        W40365  25.991  39.373  10.930
81072W        W40366  30.493   5.731   0.263
81073W        W40367   9.379   4.769   0.312
81074W        W40368  27.949  23.008   2.290
81075W        W40369   6.813  25.162  14.490
81076W        W40370  27.674  43.019   3.657
81077W        W40371  26.128   6.226   3.374
81078W        W40372  14.115  10.370   1.806
81079W        W40373  41.971  17.239  13.413
81080W        W40374  15.273   0.320  12.472
81081W        W40375  24.693  25.170   4.654
81082W        W40376  19.195  38.496  14.902
81083W        W40377   6.741   8.810   0.840
81084W        W40378   1.845  30.107  14.987
81085W        W40379   8.232  37.898   4.295
81086W        W40380   9.752  30.637   2.363
81087W        W40381  11.241  29.099   4.211
81088W        W40382   4.905  30.983  12.504
81089W        W40383  42.781   6.261  14.937
81090W        W40384   5.199  37.577  13.321
81091W        W40385  43.858  20.078   0.900
81092W        W40386  21.647  36.367   0.825
81093W        W40387  43.381  10.279  14.923
81094W        W40388  36.459   8.792  14.999
81095W        W40389  42.809  19.688  11.965
81096W        W40390  16.627  14.643  13.978
81097W        W40391  33.043  22.616   4.663
81098W        W40392  41.366  34.598  11.493
81099W        W40393  12.637  34.502   2.241
81100W        W40394  36.064  43.828  12.003
81101W        W40395  37.922  11.804   0.916
81102W        W40396  29.571  37.393  11.576
81103W        W40397   9.394  40.412   4.134
81104W        W40398  14.809  26.504  10.514
81105W        W40399  27.097  36.501  14.299
81106W        W40400  24.166  26.594   0.274
81107W        W40401   1.875  36.055   1.717
81108W        W40402  11.790  18.088   1.751
81109W        W40403  25.607   9.812  11.939
81110W        W40404  10.652  24.172  11.580
81111W        W40405   7.242   1.356  12.546
81112W        W40406   9.819  32.070   2.765
81113W        W40407  28.505  21.054   2.817
81114W        W40408  22.081   5.921  14.394
81115W        W40409   7.897  32.957   1.908
81116W        W40410   4.341   4.899  13.514
81117W        W40411   4.232  15.610   1.904
81118W        W40412  26.459   2.412  10.525
81119W        W40413  22.634  36.356  14.779
81120W        W40414  10.177   1.263   1.721
81121W        W40415  33.876  41.356   2.770
81122W        W40416  17.273  22.215  13.440
81123W        W40417  28.169  31.005   4.796
81124W        W40418  44.942   3.283   2.774
81125W        W40419   5.371   3.239   2.771
81126W        W40420  33.536  44.286   4.733
81127W        W40421  12.683  11.220  13.881
81128W        W40422  25.487  17.559   1.754
81129W        W40423  17.087  44.474   1.371
81130W        W40424  41.786  33.541  12.014
81131W        W40425  34.958  36.898   3.657
81132W        W40426  24.202   9.205  13.063
81133W        W40427   2.883  10.685   0.418
81134W        W40428   8.289   1.249   9.620
81135W        W40429  21.232  11.154   1.351
81136W        W40430  13.215  19.650  10.937
81137W        W40431  40.516  42.338   1.893
81138W        W40432  29.488  10.797   4.732
81139W        W40433   9.262  25.551  12.476
81140W        W40434  30.616   2.252  12.398
81141W        W40435  21.065  18.730   2.366
81142W        W40436  17.233   4.351   3.694
81143W        W40437  29.025  11.133   0.904
81144W        W40438   2.268  36.066   2.344
81145W        W40439   2.455  24.028  11.999
81146W        W40440  41.926  31.936   0.418
81147W        W40441  37.509   4.371  14.329
81148W        W40442  33.434  43.822  14.311
81149W        W40443  38.533  43.300   1.727
81150W        W40444  23.631   7.257   5.790
81151W        W40445  10.799  22.604  11.960
81152W        W40446   2.940   9.296   3.283
81153W        W40447  27.453  38.455  11.891
81154W        W40448  26.581  44.316  13.800
81155W        W40449  44.443  33.625  10.426
81156W        W40450  15.795  29.424  14.349
81157W        W40451  10.650  39.452   3.678
81158W        W40452   5.281  12.168  13.881
81159W        W40453  10.861   3.929  12.427
81160W        W40454  31.473   6.834  12.414
81161W        W40455   5.250  19.645   3.301
81162W        W40456  27.664  35.044  10.583
81163W        W40457  36.416  16.175  14.981
81164W        W40458  20.679  42.834  13.329
81165W        W40459   2.294   4.437   1.826
81166W        W40460  42.390  15.295  14.484
81167W        W40461  20.143  11.657  14.485
81168W        W40462  38.360   3.793  11.501
81169W        W40463   1.781  27.197   4.616
81170W        W40464  26.558  18.073   4.685
81171W        W40465   4.706  29.948   2.404
81172W        W40466  21.518  42.340  12.453
81173W        W40467  23.694  44.495  14.343
81174W        W40468   5.246  34.050  14.977
81175W        W40469  11.339  11.658   4.817
81176W        W40470  19.563  42.381  14.336
81177W        W40471  19.124  23.530   9.959
81178W        W40472  10.376  19.138   4.132
81179W        W40473  36.405   8.167  14.857
81180W        W40474  15.763  13.746  12.960
81181W        W40475  43.367  34.487   1.343
81182W        W40476   9.301  33.989   1.303
81183W        W40477  18.092   1.881  14.904
81184W        W40478   3.931  43.907  14.767
81185W        W40479   0.332   7.298  12.386
81186W        W40480  32.524  10.735   0.814
81187W        W40481  20.196   1.811  11.912
81188W        W40482  20.267  10.639   3.343
81189W        W40483   0.346  29.974   4.333
81190W        W40484   6.393  35.860   1.795
81191W        W40485   0.302  41.879  11.522
81192W        W40486  23.992  31.600  12.524
81193W        W40487   7.239  34.526  13.412
81194W        W40488  29.955  22.543   1.377
81195W        W40489  39.508  24.109   1.245
81196W        W40490  43.421  18.725  12.027
81197W        W40491  25.078  31.603   4.807
81198W        W40492  32.913  18.587  14.402
81199W        W40493   5.799  34.493  14.007
81200W        W40494  35.913  16.172  14.775
81201W        W40495  12.327  12.276   3.677
81202W        W40496  27.456  20.663   4.213
81203W        W40497  20.153   7.838   0.757
81204W        W40498  44.277  18.693   3.678
81205W        W40499  40.529  17.673  14.373
81206W        W40500   6.371  15.667   3.334
81207W        W40501  27.667  15.775   4.620
81208W        W40502   2.962  40.476  12.030
81209W        W40503   0.384  43.813   2.842
81210W        W40504  11.778  19.191   4.118
81211W        W40505   5.874  13.157  13.469
81212W        W40506  25.629  20.047   4.263
81213W        W40507  42.969   4.400  12.456
81214W        W40508   2.824  13.682   1.434
81215W        W40509  19.728  24.222  13.934
81216W        W40510   8.353   8.207  14.010
81217W        W40511  17.178   2.828   1.320
81218W        W40512  25.585   3.428  10.896
81219W        W40513  14.637   9.816   2.260
81220W        W40514  38.035  17.300   1.419
81221W        W40515  25.580  25.121  11.928
81222W        W40516  27.531  38.461  13.407
81223W        W40517  19.132   7.388   2.388
81224W        W40518  40.987  10.310   4.262
81225W        W40519  42.831  27.955   4.162
81226W        W40520  20.695   6.391  13.376
81227W        W40521  19.536  31.923   0.880
81228W        W40522   6.339  15.778   2.778
81229W        W40523  43.987  29.132  11.121
81230W        W40524  38.994  40.418  10.132
81231W        W40525  16.120  12.687   1.259
81232W        W40526  31.451  16.614  13.409
81233W        W40527  11.864  32.018  10.009
81234W        W40528  30.055  10.156   2.300
81235W        W40529  17.081  15.728   4.801
81236W        W40530  34.039  34.470   1.775
81237W        W40531  39.459  27.077  11.523
81238W        W40532  42.789  33.121   2.719
81239W        W40533  32.905  42.881   0.389
81240W        W40534  36.548  39.811  11.907
81241W        W40535  16.590  27.012  13.502
81242W        W40536  34.386  36.859  10.599
81243W        W40537  33.432  30.929   4.706
81244W        W40538  28.445   9.863  14.405
81245W        W40539  10.817  44.783   3.683
81246W        W40540  18.719  19.668  10.057
81247W        W40541   3.252  26.532   1.279
81248W        W40542  11.844  24.018   1.849
81249W        W40543  42.014  38.528  13.033
81250W        W40544  28.619  29.521   3.753
81251W        W40545   9.336  12.777  14.462
81252W        W40546   2.466  23.550   2.312
81253W        W40547  11.327   3.327   0.757
81254W        W40548  22.528  22.608   0.302
81255W        W40549  24.616  42.295   3.261
81256W        W40550  37.412  16.106   4.663
81257W        W40551  32.035   8.285  10.123
81258W        W40552  30.065  28.521   3.306
81259W        W40553  22.130   5.380  11.433
81260W        W40554  42.012   7.273  10.474
81261W        W40555  40.492  35.936   4.742
81262W        W40556  23.656   0.789  11.467
81263W        W40557  14.764  22.610  11.950
81264W        W40558  30.909  42.776   1.235
81265W        W40559  42.800  43.982   2.383
81266W        W40560   9.886   0.384  11.431
81267W        W40561  39.450   1.965  12.047
81268W        W40562  21.561  26.188  14.475
81269W        W40563  12.817  35.869  14.431
81270W        W40564  19.742  20.653  14.321
81271W        W40565  42.483  26.142  10.632
81272W        W40566   7.339  27.641  13.022
81273W        W40567  40.960   9.757   0.363
81274W        W40568  23.648  19.040   0.865
81275W        W40569  25.070   9.238   0.317
81276W        W40570  32.035  15.738  13.945
81277W        W40571  35.906  31.015  13.021
81278W        W40572   4.401   5.270   3.732
81279W        W40573  37.057  44.994  14.395
81280W        W40574   5.420  22.616   2.383
81281W        W40575  44.760  39.906  12.350
81282W        W40576  17.672   0.384  11.545
81283W        W40577   0.959  27.491  10.484
81284W        W40578   6.846  29.466   4.835
81285W        W40579   9.369  23.068  13.444
81286W        W40580  37.522  17.106  12.578
81287W        W40581  37.485   6.334   2.729
81288W        W40582  28.470  24.512   4.320
81289W        W40583  43.766   2.960  10.609
81290W        W40584   1.968  23.621   3.302
81291W        W40585   4.940  41.432   0.292
81292W        W40586  12.710   8.857   2.785
81293W        W40587  33.943  44.992   3.303
81294W        W40588  22.241  16.182  12.981
81295W        W40589  25.545  13.688  14.349
81296W        W40590  13.645  26.512   3.306
81297W        W40591  37.863  22.073  14.356
81298W        W40592   2.750  29.132  11.598
81299W        W40593  22.065  26.519   3.630
81300W        W40594  23.686  24.549  13.975
81301W        W40595  29.481  26.638  10.529
81302W        W40596  23.109  21.099  14.865
81303W        W40597  30.009  13.690   0.430
81304W        W40598  16.609  12.796   1.858
81305W        W40599  21.753   3.905  11.553
81306W        W40600   0.437  19.627   3.205
81307W        W40601  42.921  20.757   1.248
81308W        W40602  35.508  39.967  11.984
81309W        W40603  24.027  25.085   4.825
81310W        W40604   7.850  39.969   1.230
81311W        W40605  35.889  32.939   4.158
81312W        W40606  19.690  29.060   3.707
81313W        W40607   4.367   7.691  14.780
81314W        W40608  13.299  16.216   1.886
81315W        W40609  31.932  35.545  12.085
81316W        W40610  33.907  21.705   2.297
81317W        W40611  14.257  33.919  14.849
81318W        W40612  39.052   3.860  12.929
81319W        W40613  16.184  11.293   5.769
81320W        W40614  16.118   5.426   3.848
81321W        W40615  37.512  34.079  12.908
81322W        W40616  15.114  37.923   2.888
81323W        W40617  34.986  38.045   1.250
81324W        W40618  22.683  15.824   2.371
81325W        W40619  14.614  20.762  14.830
81326W        W40620  34.533  13.779  13.957
81327W        W40621  25.526  30.995   2.193
81328W        W40622  11.241   9.888   3.248
81329W        W40623  10.732  23.493  12.566
81330W        W40624   9.168  25.173  10.448
81331W        W40625  20.205   7.244   2.733
81332W        W40626   9.202  27.954  14.789
81333W        W40627  27.142  28.541   0.751
81334W        W40628   2.307  25.218  12.944
81335W        W40629  12.268  28.110   2.809
81336W        W40630   1.428  27.977   3.213
81337W        W40631   3.781  18.774  13.491
81338W        W40632  34.904   0.436   0.884
81339W        W40633  19.729  30.524  10.590
81340W        W40634  42.940  28.097   0.907
81341W        W40635  34.096   2.927  14.802
81342W        W40636  36.393   0.745   0.474
81343W        W40637  43.770  33.889   2.892
81344W        W40638   7.377  21.025   2.362
81345W        W40639  29.492  35.904  14.405
81346W        W40640  14.240  38.970  14.338
81347W        W40641   5.211  40.050  12.983
81348W        W40642  28.137   5.316   3.291
81349W        W40643   1.817  36.966  14.310
81350W        W40644   4.333  40.858   1.898
81351W        W40645  23.065  12.223   0.326
81352W        W40646  12.661   0.254   0.377
81353W        W40647  31.931  28.527  11.003
81354W        W40648  44.448  10.222  14.931
81355W        W40649  31.925  26.073  10.584
81356W        W40650  33.511  12.291   1.815
81357W        W40651  36.053  37.551   4.259
81358W        W40652  35.949  26.192   1.330
81359W        W40653  27.640  14.700  14.467
81360W        W40654  35.546  20.228   2.765
81361W        W40655  43.348  23.519  13.409
81362W        W40656  32.567  40.968  14.905
81363W        W40657  30.946  24.480  12.075
81364W        W40658   3.878  29.156  13.939
81365W        W40659  18.114   4.436   0.261
81366W        W40660  26.700  28.546   2.799
81367W        W40661  23.507  11.776   5.187
81368W        W40662   8.677  30.112   4.739
81369W        W40663  35.875  30.588   4.273
81370W        W40664  43.944   8.757  10.564
81371W        W40665  16.272  41.532  11.081
81372W        W40666  37.882  35.576   3.794
81373W        W40667  39.480  23.093  13.425
81374W        W40668  26.582   9.862   1.880
81375W        W40669  36.069  10.677   0.258
81376W        W40670  22.118  39.934  11.392
81377W        W40671  41.476  27.946  12.896
81378W        W40672  18.676  42.347  13.922
81379W        W40673   4.301  41.810   0.839
81380W        W40674  23.665  20.037  10.520
81381W        W40675  22.089   1.273  10.421
81382W        W40676   6.395  16.766  10.134
81383W        W40677  38.488  42.350  13.915
81384W        W40678  36.009  40.985  10.512
81385W        W40679  11.715  13.764  11.496
81386W        W40680  43.462  30.071   0.932
81387W        W40681  40.413  40.462   0.868
81388W        W40682  15.645   3.746  11.564
81389W        W40683  38.009   3.350   1.854
81390W        W40684  13.780   0.470  11.011
81391W        W40685  44.334  36.356   5.302
81392W        W40686  44.991   1.735  12.569
81393W        W40687  27.964  23.611   0.380
81394W        W40688  43.891   4.316  12.530
81395W        W40689  43.857  44.349   0.370
81396W        W40690   5.864   8.168  14.789
81397W        W40691  24.096  22.090  12.071
81398W        W40692   0.750   3.248   2.854
81399W        W40693  35.083   9.886   3.633
81400W        W40694  23.520  16.082   4.324
81401W        W40695  19.622  38.371  11.415
81402W        W40696  38.037  32.010   3.716
81403W        W40697   5.886   0.258  10.936
81404W        W40698   6.276  35.442  12.355
81405W        W40699  17.245  21.255   3.235
81406W        W40700  37.475  37.408   3.216
81407W        W40701   9.777   6.837  10.985
81408W        W40702   7.170   7.249   4.623
81409W        W40703  32.038   8.706  12.981
81410W        W40704  29.939   8.283   0.891
81411W        W40705  17.224  19.652   3.670
81412W        W40706  24.606  25.520  14.760
81413W        W40707  20.546   3.376  14.026
81414W        W40708  42.364   2.420   1.369
81415W        W40709  12.322  27.580   3.687
81416W        W40710  18.552  14.636   3.783
81417W        W40711  21.534   8.831   3.196
81418W        W40712  30.526  41.423  12.011
81419W        W40713  10.693  13.334   2.663
81420W        W40714  21.195  25.091   3.829
81421W        W40715   6.224  14.248   4.696
81422W        W40716  23.017  30.594  10.928
81423W        W40717   6.340  38.331  13.950
81424W        W40718  41.317  20.068  13.876
81425W        W40719  25.707   3.829  11.031
81426W        W40720  36.936  23.518   2.407
81427W        W40721  21.246  13.221  14.837
81428W        W40722  35.528  43.351  14.275
81429W        W40723  41.470   1.810   5.283
81430W        W40724  34.023   4.858   1.694
81431W        W40725  16.267  28.155  10.437
81432W        W40726  25.095  14.772  13.870
81433W        W40727   1.263  35.415   1.322
81434W        W40728  24.696  24.518   3.860
81435W        W40729  29.602  42.300   2.845
81436W        W40730  24.115  35.949   2.840
81437W        W40731   2.957  12.708   1.779
81438W        W40732   8.854   3.954   2.243
81439W        W40733  42.470  37.356  12.404
81440W        W40734  15.694  37.438  12.983
81441W        W40735  41.532  40.029  12.035
81442W        W40736  14.737  27.111  13.875
81443W        W40737  14.666   5.768  10.918
81444W        W40738  17.718  14.266  13.452
81445W        W40739  13.619  14.628   2.309
81446W        W40740  15.182  35.863   1.403
81447W        W40741  16.685  42.981  12.401
81448W        W40742  34.403  42.331  13.024
81449W        W40743  18.666  26.683   4.696
81450W        W40744  44.794   1.872   3.318
81451W        W40745  11.788  19.192  11.981
81452W        W40746   2.233  37.519   1.236
81453W        W40747  26.091  40.330   2.880
81454W        W40748   5.885  29.608  14.006
81455W        W40749  11.179   1.423   2.727
81456W        W40750  41.319   5.296  13.005
81457W        W40751   6.739  17.748  13.532
81458W        W40752  19.133  11.194  13.418
81459W        W40753  44.446  37.988  11.514
81460W        W40754  20.527   0.395   4.355
81461W        W40755  13.664  14.171  12.867
81462W        W40756   2.927   1.419   0.245
81463W        W40757  32.486  37.479  11.395
81464W        W40758  31.444  22.163  10.983
81465W        W40759   6.289  42.869   4.775
81466W        W40760  19.050  36.980  11.993
81467W        W40761  13.696  11.274   0.947
81468W        W40762  38.000   3.735  13.376
81469W        W40763  38.962  33.582  14.363
81470W        W40764  35.591   3.827  13.897
81471W        W40765  12.232  35.960  13.408
81472W        W40766  24.134  13.751  11.381
81473W        W40767  12.621  41.464   3.760
81474W        W40768  31.639  10.181  14.430
81475W        W40769  17.607   2.324   4.671
81476W        W40770  35.050  19.567   3.255
81477W        W40771  35.421  11.318   4.170
81478W        W40772  15.815  21.216  12.432
81479W        W40773  12.736  33.566   4.117
81480W        W40774  12.620   6.891  13.399
81481W        W40775  36.564  32.544  13.823
81482W        W40776  17.281   4.732   4.250
81483W        W40777  40.936   9.271   2.249
81484W        W40778  20.608   2.838   0.822
81485W        W40779  39.436   2.421  11.554
81486W        W40780  17.245  31.585  10.490
81487W        W40781  36.425  19.246  10.932
81488W        W40782  13.739  16.131  11.928
81489W        W40783  41.930  29.138   3.190
81490W        W40784  13.829  14.642  10.023
81491W        W40785   1.401   2.869  13.368
81492W        W40786  33.125  40.860   0.254
81493W        W40787  12.132   2.275   4.173
81494W        W40788  23.620   3.725  12.343
81495W        W40789  11.868  43.808   2.358
81496W        W40790  35.413   9.801  14.416
81497W        W40791   6.775  14.127  14.396
81498W        W40792  32.111  18.547   1.735
81499W        W40793  14.762  11.627   2.741
81500W        W40794  38.016  20.229  13.425
81501W        W40795  23.014   3.728   3.355
81502W        W40796   2.758  19.175  14.468
81503W        W40797  24.012   7.797   2.892
81504W        W40798  40.463  23.139  12.015
81505W        W40799  39.869  39.482   4.807
81506W        W40800  17.787  22.007   2.793
81507W        W40801  21.262  32.533   2.743
81508W        W40802  17.633  33.497   1.800
81509W        W40803  34.869  28.463  10.565
81510W        W40804  23.048  26.154   4.170
81511W        W40805  42.343  36.564   4.310
81512W        W40806  30.636  19.626  14.929
81513W        W40807   6.787  30.482   1.213
81514W        W40808  37.935  35.362  13.856
81515W        W40809  31.083  30.608   3.184
81516W        W40810  36.415  26.121  10.458
81517W        W40811  24.175  18.682   1.695
81518W        W40812  37.058  27.590  10.575
81519W        W40813  10.156   5.853   4.128
81520W        W40814  28.438  11.255  12.011
81521W        W40815   1.740  12.808  12.565
81522W        W40816  29.655  13.655   0.803
81523W        W40817  27.064   0.818   4.786
81524W        W40818  34.877  21.613   2.326
81525W        W40819   3.374  39.430  14.831
81526W        W40820  21.736  20.218  10.471
81527W        W40821   8.328  34.383   3.179
81528W        W40822  43.336   8.251   0.340
81529W        W40823  31.403  10.303   2.313
81530W        W40824  15.093  33.433  10.581
81531W        W40825   3.955  19.185   2.878
81532W        W40826  11.716  18.552   2.901
81533W        W40827  13.212  41.792   4.142
81534W        W40828   3.257  40.454   4.769
81535W        W40829  21.134  15.304  11.567
81536W        W40830  42.817  17.195   4.713
81537W        W40831  38.996  36.881   4.714
81538W        W40832  31.956  30.457  12.471
81539W        W40833  40.861   3.955  10.092
81540W        W40834  43.980  18.194   3.647
81541W        W40835  37.080  17.168  12.401
81542W        W40836  28.147  12.707   1.737
81543W        W40837  17.130  35.476  14.811
81544W        W40838  30.984  11.271   2.410
81545W        W40839   2.848  28.449  11.988
81546W        W40840   5.425  17.110   3.164
81547W        W40841   9.806   9.277   3.340
81548W        W40842  44.501  27.491   1.261
81549W        W40843   2.326  41.337   1.910
81550W        W40844  16.231   6.264  10.086
81551W        W40845  13.241   0.362   0.319
81552W        W40846   3.284  44.863  10.966
81553W        W40847  31.929   4.234  12.058
81554W        W40848  27.681  12.227  12.500
81555W        W40849  28.436  19.535   3.667
81556W        W40850  42.313  42.796  11.480
81557W        W40851  19.199  39.891   2.389
81558W        W40852  20.537  21.126   4.713
81559W        W40853  33.955   2.800   3.748
81560W        W40854  38.505  13.635   4.713
81561W        W40855  33.041  37.839   4.687
81562W        W40856  17.726   2.773   3.776
81563W        W40857  37.053  10.810   3.197
81564W        W40858  18.768  15.195  12.351
81565W        W40859   5.895  32.502   0.913
81566W        W40860  17.667  27.136   1.251
81567W        W40861  27.072  29.100  12.500
81568W        W40862  12.314  40.489   2.244
81569W        W40863  24.207   8.228  14.995
81570W        W40864  39.433  27.600   3.870
81571W        W40865   6.225  19.057   3.815
81572W        W40866  37.415   9.795  11.941
81573W        W40867  21.733  25.985  10.544
81574W        W40868  26.006  10.312   4.639
81575W        W40869  18.096  11.366  11.406
81576W        W40870  20.162  12.323  10.448
81577W        W40871  25.670  15.271   1.920
81578W        W40872  17.672  24.127   0.460
81579W        W40873  31.062  11.822   3.716
81580W        W40874  16.180  16.259  12.090
81581W        W40875  39.956   9.392  11.004
81582W        W40876   8.336  23.200  12.905
81583W        W40877  33.430  36.531   1.239
81584W        W40878  37.956  28.496   1.373
81585W        W40879  24.083  20.246   4.641
81586W        W40880  43.444   5.895   4.712
81587W        W40881  29.122  39.396  14.408
81588W        W40882   2.437  12.168  14.299
81589W        W40883  39.820  16.133   2.244
81590W        W40884  40.482   3.778  10.947
81591W        W40885  34.495  12.828   3.708
81592W        W40886  38.033   9.388  12.078
81593W        W40887   2.450  11.252   1.421
81594W        W40888  20.603  42.867   0.940
81595W        W40889  27.584  10.752  11.436
81596W        W40890  41.393  27.690  13.873
81597W        W40891   1.467  39.928  13.538
81598W        W40892  38.431  32.998   2.715
81599W        W40893  42.911  32.548  11.452
81600W        W40894  29.061  31.583  13.942
81601W        W40895  19.196  42.958   0.347
81602W        W40896  15.721  25.106   4.678
81603W        W40897  22.065   8.808   0.252
81604W        W40898  26.122  29.482  14.838
81605W        W40899   4.232   7.719  13.544
81606W        W40900  25.084   7.407  12.996
81607W        W40901   1.843  39.949  12.091
81608W        W40902  19.640  26.156   4.254
81609W        W40903  21.559  32.610   0.464
81610W        W40904  28.531  44.902   0.276
81611W        W40905  42.922   0.853  13.450
81612W        W40906   1.853  39.353   2.273
81613W        W40907  21.706  20.226   4.598
81614W        W40908  17.625   0.444   4.236
81615W        W40909  28.174   2.867   0.252
81616W        W40910  14.598  41.399  13.867
81617W        W40911  40.366  38.472   0.877
81618W        W40912  18.229  36.485   3.822
81619W        W40913  14.698  25.008   0.909
81620W        W40914   1.418  17.725  12.380
81621W        W40915  17.619   3.314   1.258
81622W        W40916  43.909   1.340   0.814
81623W        W40917   0.825  28.111   1.920
81624W        W40918  13.194   4.390  14.460
81625W        W40919  16.742   5.687  12.366
81626W        W40920  44.972  27.164  14.514
81627W        W40921  35.382  26.660  14.980
81628W        W40922  32.011  33.055   2.333
81629W        W40923   1.327  24.642   4.816
81630W        W40924  27.617  11.648  13.312
81631W        W40925  36.515  30.934  12.064
81632W        W40926  23.547   0.279  13.494
81633W        W40927   3.265   1.959   1.872
81634W        W40928  38.561  15.668   4.700
81635W        W40929  28.479  16.800   3.805
81636W        W40930  20.744  12.788   3.633
81637W        W40931  31.044  13.272  14.330
81638W        W40932   3.721   8.268   3.373
81639W        W40933  42.372  40.019   1.832
81640W        W40934  37.532  19.730  12.406
81641W        W40935  41.330  22.194  11.440
81642W        W40936  39.529   2.869  12.461
81643W        W40937  25.975  18.192  14.784
81644W        W40938  32.936   7.859   2.346
81645W        W40939  44.458  34.572  11.383
81646W        W40940   1.340   2.384  12.373
81647W        W40941   0.370  17.230   3.262
81648W        W40942   0.757  15.639   3.634
81649W        W40943  42.998  21.177   1.259
81650W        W40944  36.525  14.141   4.763
81651W        W40945  17.595  41.431   3.817
81652W        W40946  43.502  33.455  11.519
81653W        W40947  34.916  17.238  12.467
81654W        W40948  40.315  32.564   0.964
81655W        W40949   2.856  32.048   2.824
81656W        W40950   5.359   3.854  11.599
81657W        W40951   1.935  26.622  13.803
81658W        W40952   3.917   1.390   0.953
81659W        W40953  12.839   1.407  11.461
81660W        W40954  11.654  24.133   4.807
81661W        W40955   7.842  37.458   4.196
81662W        W40956  40.857  34.462   0.837
81663W        W40957  18.231   8.865   2.749
81664W        W40958  14.775  25.692  12.033
81665W        W40959   0.756  34.925   5.122
81666W        W40960  24.683  14.664   0.949
81667W        W40961  24.975  31.621   0.325
81668W        W40962  27.146  11.172  14.340
81669W        W40963   6.895  40.314   2.894
81670W        W40964  13.193   0.462  14.784
81671W        W40965  16.741   8.724  11.894
81672W        W40966  29.061   1.956   4.293
81673W        W40967  38.034   0.481   3.246
81674W        W40968  40.357  42.478   2.390
81675W        W40969  18.260  35.034   4.700
81676W        W40970   5.360  11.730  14.419
81677W        W40971   3.346  11.297  11.533
81678W        W40972  22.065  24.196   3.830
81679W        W40973  37.400   9.800   3.300
81680W        W40974  15.141  41.924  13.017
81681W        W40975  32.122  17.791  10.898
81682W        W40976  10.318  14.737  11.591
81683W        W40977  44.906  16.089  11.876
81684W        W40978  40.509  33.587   0.741
81685W        W40979   8.856  32.139   0.819
81686W        W40980  11.341   6.426  14.355
81687W        W40981  32.484  10.365  10.954
81688W        W40982   4.413  42.998   1.440
81689W        W40983  11.316   6.326   2.209
81690W        W40984  42.886  30.946  11.461
81691W        W40985  19.635  11.816   0.447
81692W        W40986  11.242  44.431   4.333
81693W        W40987  19.734   0.906  12.032
81694W        W40988  40.460  43.412  14.812
81695W        W40989  41.396  37.933   3.231
81696W        W40990  12.817  18.243   0.938
81697W        W40991   5.408  18.238   0.765
81698W        W40992  36.936  28.148  13.956
81699W        W40993  25.078  29.942   2.281
81700W        W40994  15.659  20.147  13.464
81701W        W40995  44.800  29.480  12.353
81702W        W40996  17.210  44.949   1.814
81703W        W40997  18.619  44.379   1.701
81704W        W40998  20.126  35.058  11.125
81705W        W40999  12.205   4.762  14.505
81706W        W41000  11.248  38.426   3.796
81707W        W41001  27.465  40.843  12.037
81708W        W41002  37.020  32.979   3.289
81709W        W41003  21.238   4.909  12.476
81710W        W41004  11.309  37.029  10.584
81711W        W41005  14.133   7.389  12.474
81712W        W41006  24.489  27.089  10.950
81713W        W41007   3.285  21.260   0.447
81714W        W41008   0.284   6.360  14.813
81715W        W41009  11.756   3.831   3.686
81716W        W41010  19.655  23.559   0.416
81717W        W41011  42.312  14.325   3.769
81718W        W41012  26.196  23.601   2.706
81719W        W41013  10.254  37.346   2.682
81720W        W41014   0.438  20.097   0.414
81721W        W41015  34.555  30.924  12.013
81722W        W41016   6.811   0.924   2.348
81723W        W41017  16.255   6.685  14.797
81724W        W41018  18.648  33.485   0.833
81725W        W41019  35.092  10.719  10.457
81726W        W41020  15.816   9.759   1.313
81727W        W41021  18.190   7.320  10.924
81728W        W41022   6.776  14.817   1.388
81729W        W41023  28.083  30.015  12.515
81730W        W41024  37.375  20.734  13.036
81731W        W41025  11.166  28.674  10.975
81732W        W41026   9.157  13.149  12.395
81733W        W41027  32.418   2.304  10.529
81734W        W41028   1.321   1.818  11.885
81735W        W41029   2.722  13.777  14.987
81736W        W41030   6.364  17.180   5.205
81737W        W41031   2.365  22.172   2.301
81738W        W41032  39.932  19.596  12.487
81739W        W41033   3.935  15.314   1.350
81740W        W41034   4.913  24.653  13.913
81741W        W41035  44.812  24.580  11.555
81742W        W41036  22.592   6.357  13.843
81743W        W41037  28.575   8.686   3.746
81744W        W41038   3.944   0.414  12.400
81745W        W41039   3.714  33.909   3.841
81746W        W41040   7.833  25.579   0.926
81747W        W41041  33.120  33.536   1.223
81748W        W41042   5.388  28.513   4.766
81749W        W41043   5.296  15.796   1.758
81750W        W41044   2.816   6.260  11.127
81751W        W41045   4.769  42.005  13.504
81752W        W41046   3.892   4.359  13.540
81753W        W41047   6.805  35.568  12.527
81754W        W41048  40.511   0.934   0.407
81755W        W41049  30.041  20.117   0.898
81756W        W41050  28.570  43.923   2.765
81757W        W41051  34.374  37.576   3.387
81758W        W41052  27.097  31.572  11.123
81759W        W41053  19.588  16.606   4.318
81760W        W41054  15.192   9.164   2.328
81761W        W41055  31.551  42.837  10.977
81762W        W41056  38.937  44.502  13.927
81763W        W41057  38.558   2.819  13.063
81764W        W41058  32.540  17.751  11.933
81765W        W41059  40.356  41.027  12.949
81766W        W41060   1.863  42.316  11.124
81767W        W41061  35.578  29.443   3.181
81768W        W41062  19.704  42.423   1.221
81769W        W41063  24.511  28.511   4.347
81770W        W41064  26.678   5.882  14.354
81771W        W41065   7.288  11.852  12.004
81772W        W41066  38.447  13.320   1.237
81773W        W41067  32.411  20.538   1.421
81774W        W41068  20.266  20.633  12.094
81775W        W41069  24.505  32.477  14.007
81776W        W41070  31.041  25.091  11.452
81777W        W41071   3.391  19.262   4.182
81778W        W41072  32.121  23.024   1.322
81779W        W41073  38.040   7.191   0.781
81780W        W41074  39.371  28.577   2.236
81781W        W41075  42.822  23.500   0.274
81782W        W41076  18.680  11.190  12.928
81783W        W41077  42.863   8.199   3.258
81784W        W41078  19.570  13.262   4.620
81785W        W41079  36.529  21.199  12.400
81786W        W41080  37.359  41.795   1.347
81787W        W41081   5.900  40.822  14.383
81788W        W41082  26.649  33.601   0.791
81789W        W41083  16.785  22.558   3.819
81790W        W41084  10.808   6.405  14.482
81791W        W41085  20.116  38.516  11.919
81792W        W41086  28.106  30.136   2.182
81793W        W41087   1.900  11.260  11.537
81794W        W41088  18.093  44.963   4.241
81795W        W41089  26.203  20.145   3.334
81796W        W41090  14.698  34.960  14.986
81797W        W41091   3.296   2.443  14.420
81798W        W41092  29.637   0.282  13.509
81799W        W41093   8.738  14.270   1.820
81800W        W41094  21.722  34.117  10.950
81801W        W41095  35.449   6.881  12.862
81802W        W41096  23.084  13.822  10.488
81803W        W41097  16.585  30.519   2.354
81804W        W41098  34.391  27.048   0.757
81805W        W41099   1.319   2.280   4.669
81806W        W41100  10.303  35.965   3.188
81807W        W41101  14.819  36.895  12.884
81808W        W41102  17.290  25.188   3.220
81809W        W41103  10.351   4.239   1.434
81810W        W41104  30.097  31.980   3.190
81811W        W41105  41.997   4.260   5.203
81812W        W41106  10.715   1.921  14.347
81813W        W41107  36.455  31.146  13.823
81814W        W41108   8.755  23.094  14.895
81815W        W41109   5.929  31.413   2.862
81816W        W41110   2.887  17.248   1.215
81817W        W41111   4.216  26.627  12.507
81818W        W41112   0.466  30.542  14.486
81819W        W41113  36.047  23.099  12.481
81820W        W41114   2.454  31.514   1.425
81821W        W41115   4.730  34.091   4.822
81822W        W41116  32.635   7.782   3.146
81823W        W41117  12.766  17.725   3.809
81824W        W41118   3.432  27.192  13.022
81825W        W41119  11.360  10.364   1.741
81826W        W41120  16.623  22.508   3.272
81827W        W41121   7.243  40.880   3.657
81828W        W41122  26.508  34.931   3.743
81829W        W41123  30.023  28.115   1.777
81830W        W41124  27.620  32.976   2.742
81831W        W41125   6.259  24.555  12.460
81832W        W41126  37.886  26.485   2.853
81833W        W41127  35.967  18.070  13.505
81834W        W41128  19.134  24.704   1.783
81835W        W41129  20.179  36.450   4.202
81836W        W41130  40.475  29.168  11.044
81837W        W41131   1.731  15.673   3.664
81838W        W41132  11.685  30.078   3.350
81839W        W41133   2.832  14.182  14.402
81840W        W41134  39.544  21.571  12.563
81841W        W41135   6.231  16.182   4.820
81842W        W41136  29.059  44.961   3.752
81843W        W41137  42.857   4.423  11.005
81844W        W41138  31.957   3.305  11.379
81845W        W41139   6.744  39.477  12.388
81846W        W41140   0.411  23.515  11.456
81847W        W41141  33.119  25.648   1.433
81848W        W41142   9.683   0.304  14.763
81849W        W41143  32.585  23.520  14.423
81850W        W41144  19.189   7.226   1.700
81851W        W41145   0.954  15.768  14.410
81852W        W41146  25.057  30.657   4.678
81853W        W41147  30.639   1.442  12.368
81854W        W41148  39.925  39.396   2.777
81855W        W41149  28.477  33.382   0.394
81856W        W41150  40.454  34.451   1.698
81857W        W41151   8.756  37.931  12.398
81858W        W41152  36.055  19.068  14.972
81859W        W41153  21.103  19.143   2.698
81860W        W41154   8.170  10.139   4.258
81861W        W41155  35.397  36.058   3.230
81862W        W41156  39.485  30.417  13.029
81863W        W41157  28.570  10.248   1.388
81864W        W41158  41.927  40.379  14.820
81865W        W41159  36.949  30.428   4.281
81866W        W41160  37.842  18.284  11.377
81867W        W41161  39.361  13.328   4.747
81868W        W41162  14.266   7.189   0.389
81869W        W41163   5.887  11.858  14.488
81870W        W41164   6.856  39.009  10.983
81871W        W41165  23.611  26.699  14.818
81872W        W41166  33.494  14.340   4.115
81873W        W41167   9.829   6.222  14.428
81874W        W41168  23.709  23.635   3.651
81875W        W41169  12.777   2.778   3.221
81876W        W41170   8.695  39.531   1.321
81877W        W41171   3.283  10.671   1.819
81878W        W41172  44.900   1.787  14.783
81879W        W41173  37.024  42.011   1.360
81880W        W41174   6.801  39.852   3.167
81881W        W41175  23.995  15.644  11.100
81882W        W41176  33.547  38.464  13.341
81883W        W41177  17.061  36.080  14.774
81884W        W41178  21.213  31.525   0.341
81885W        W41179  15.243  22.055  10.933
81886W        W41180  10.186  44.876   2.284
81887W        W41181  35.510  16.195   1.793
81888W        W41182  30.548  18.674   1.408
81889W        W41183  15.132  32.090  12.501
81890W        W41184   2.958   5.270   4.124
81891W        W41185   3.308  34.508   0.341
81892W        W41186  28.513  11.316  11.508
81893W        W41187  39.011  15.295   2.285
81894W        W41188  38.349  19.243   0.447
81895W        W41189   5.359  26.577  11.560
81896W        W41190  40.459  36.473  13.508
81897W        W41191   2.771  33.521   4.775
81898W        W41192   4.276  13.194  13.385
81899W        W41193  35.454   6.376   3.292
81900W        W41194  31.126  27.101  12.837
81901W        W41195  33.452   5.780  12.853
81902W        W41196  28.017  22.504   2.664
81903W        W41197  31.404  31.641   4.629
81904W        W41198  44.976  41.387  13.814
81905W        W41199  33.989  36.533  10.455
81906W        W41200   5.776   6.362  13.986
81907W        W41201  31.084  26.668  10.455
81908W        W41202  11.182  37.540  14.816
81909W        W41203  14.639   2.956   0.773
81910W        W41204  34.902   5.723   3.338
81911W        W41205  21.729  36.975   4.745
81912W        W41206  27.659   8.350   5.251
81913W        W41207  31.113  20.100  14.344
81914W        W41208  31.638   5.759   1.356
81915W        W41209  16.108  16.260   2.777
81916W        W41210  11.632  44.923  13.926
81917W        W41211  24.085  26.656   1.426
81918W        W41212  34.908   0.952  13.372
81919W        W41213  18.108  35.533   4.283
81920W        W41214   9.847  34.935  14.510
81921W        W41215  23.634   3.719   2.779
81922W        W41216  16.808  18.115  13.348
81923W        W41217   2.277  41.329  12.506
81924W        W41218  19.131   3.722   4.668
81925W        W41219  27.490   1.236   1.347
81926W        W41220  22.584  20.763  11.377
81927W        W41221   5.193  39.316   2.260
81928W        W41222  29.083  37.084   1.750
81929W        W41223   0.946  38.568  10.616
81930W        W41224   9.361  14.790   3.866
81931W        W41225  10.872   2.340   4.158
81932W        W41226  19.136  17.289   2.276
81933W        W41227  44.504  12.792   5.177
81934W        W41228   2.951  21.633   2.889
81935W        W41229   7.261   8.860  11.484
81936W        W41230  14.189  16.649  12.973
81937W        W41231   1.264  44.344  13.030
81938W        W41232  36.559  30.082   0.260
81939W        W41233  34.954  39.059   0.936
81940W        W41234  35.421   8.354  14.419
81941W        W41235  11.255  28.151  12.383
81942W        W41236  14.230  38.865   2.792
81943W        W41237  29.046  32.432   0.856
81944W        W41238  29.534   0.902   3.184
81945W        W41239  40.371  38.866  13.501
81946W        W41240  17.579   6.897  11.605
81947W        W41241  35.068  44.493   4.816
81948W        W41242   6.904  27.469  10.437
81949W        W41243  17.724  28.942   4.252
81950W        W41244  38.438  10.835  13.509
81951W        W41245   7.700  35.080  13.491
81952W        W41246  31.451   4.883   3.386
81953W        W41247  40.853  42.353   3.708
81954W        W41248  13.220   7.332   0.934
81955W        W41249   7.396  23.543  12.039
81956W        W41250  27.156  17.716  14.958
81957W        W41251  16.597  29.104  13.880
81958W        W41252  19.665  31.135  10.422
81959W        W41253  24.029  38.421  10.570
81960W        W41254  27.123  22.077   2.217
81961W        W41255  13.279  24.636   1.246
81962W        W41256  24.670  15.634   1.724
81963W        W41257  35.580  11.314   0.917
81964W        W41258   0.944  44.854  12.388
81965W        W41259  35.093  10.298   1.372
81966W        W41260   3.408  20.055  12.862
81967W        W41261   3.459  28.126   3.322
81968W        W41262  22.508  29.503  12.367
81969W        W41263  17.294  37.863   2.673
81970W        W41264  43.907   2.436   5.188
81971W        W41265   7.779  42.355  11.535
81972W        W41266   5.893  34.028   2.363
81973W        W41267   1.422   2.268  13.333
81974W        W41268  29.580  34.522  13.924
81975W        W41269  38.823  39.064  10.004
81976W        W41270   4.880  43.468   0.951
81977W        W41271  37.023  29.161  10.969
81978W        W41272   0.880  39.498  14.417
81979W        W41273  35.483   7.308   3.765
81980W        W41274  27.138  15.730  13.500
81981W        W41275  37.337   8.235   3.650
81982W        W41276  41.348   7.818   3.835
81983W        W41277  25.685   6.231  10.453
81984W        W41278  39.327  20.656   1.824
81985W        W41279   6.867   3.756  12.856
81986W        W41280   8.231   8.175   4.628
81987W        W41281  12.617   0.376   1.830
81988W        W41282  37.882  43.405  14.919
81989W        W41283  35.078  34.592  12.445
81990W        W41284   8.397   3.734   2.342
81991W        W41285  11.634   8.229  10.020
81992W        W41286   3.225  19.705  10.527
81993W        W41287  13.777   2.967   2.284
81994W        W41288  16.682  39.901   1.359
81995W        W41289  25.119   3.722  14.869
81996W        W41290  13.790  34.868  12.344
81997W        W41291   2.744  35.862  13.436
81998W        W41292   1.944   5.789  12.473
81999W        W41293  41.010   8.747  10.495
82000W        W41294  37.529  34.902   1.803
82001W        W41295  32.048  21.215   3.860
82002W        W41296  37.527   3.310   3.736
82003W        W41297   6.802  25.087  12.542
82004W        W41298   8.216   1.434  13.054
82005W        W41299   0.455   7.209   3.248
82006W        W41300  39.523  44.480  14.452
82007W        W41301  36.916  28.976  14.797
82008W        W41302  44.290  38.957   1.268
82009W        W41303  15.646  13.802  12.056
82010W        W41304  13.133  21.757  10.909
82011W        W41305  26.107  36.369   4.244
82012W        W41306  36.015  34.542  14.410
82013W        W41307   3.942  24.087  10.524
82014W        W41308  29.549   2.318   1.712
82015W        W41309   9.334  36.990  11.994
82016W        W41310  18.573  14.679   4.341
82017W        W41311  10.349  10.243   1.440
82018W        W41312  42.881   9.179  10.984
82019W        W41313  32.890   9.312  14.912
82020W        W41314  16.118   3.301  11.908
82021W        W41315  37.347  33.401  10.459
82022W        W41316   5.813  39.463  13.846
82023W        W41317  42.288  42.808   5.294
82024W        W41318  19.544  40.946   1.352
82025W        W41319   1.339  40.324  14.275
82026W        W41320  30.990   1.764  12.853
82027W        W41321  35.906  36.017  12.555
82028W        W41322   4.279  15.158  10.939
82029W        W41323  32.442  33.617  13.380
82030W        W41324  18.264  41.909  12.930
82031W        W41325  35.879   4.715   0.798
82032W        W41326  40.976  28.513  14.409
82033W        W41327   9.822  41.452   1.901
82034W        W41328  21.612  10.696   1.912
82035W        W41329   6.836  19.172  11.924
82036W        W41330  44.845  40.995  10.579
82037W        W41331   7.798  44.308   2.736
82038W        W41332  39.025   5.381  12.524
82039W        W41333  10.168  38.850   3.736
82040W        W41334  32.594   3.859  13.922
82041W        W41335  30.044  41.508   0.838
82042W        W41336  24.175  44.755   1.809
82043W        W41337  17.654  27.564  12.552
82044W        W41338  36.054  11.815  14.509
82045W        W41339  42.821  35.538  13.512
82046W        W41340  10.211  31.626   0.352
82047W        W41341   5.197  30.161  14.488
82048W        W41342   4.825   9.804  13.386
82049W        W41343   3.726  41.876   2.759
82050W        W41344   5.384  18.567   5.212
82051W        W41345  15.816  31.153   2.247
82052W        W41346  21.581  37.456  11.102
82053W        W41347   6.239  19.282  13.825
82054W        W41348   5.696  39.488  11.877
82055W        W41349  18.765   5.425  12.948
82056W        W41350  28.055  23.568  14.446
82057W        W41351   9.691   7.759  12.384
82058W        W41352  39.825  17.698  14.977
82059W        W41353  34.993   6.746  11.376
82060W        W41354  33.591  14.789  13.929
82061W        W41355  10.659   9.732   3.719
82062W        W41356  33.101   5.934   3.741
82063W        W41357  35.952   2.725   1.779
82064W        W41358  33.924  42.921   3.250
82065W        W41359  30.993  42.477  11.564
82066W        W41360   5.410  37.547   3.380
82067W        W41361  15.625  13.638   2.735
82068W        W41362  31.923  11.865  10.458
82069W        W41363  14.681  32.996   3.206
82070W        W41364   7.798  16.688  12.855
82071W        W41365  25.027   0.477   1.342
82072W        W41366  33.505  29.918   1.300
82073W        W41367  28.472  28.988  13.451
82074W        W41368  17.294  12.740   3.238
82075W        W41369  42.945   5.378   2.898
82076W        W41370   0.381  36.905   2.674
82077W        W41371  24.563  31.448   2.754
82078W        W41372  13.733  14.719  11.076
82079W        W41373  40.322  21.192   0.396
82080W        W41374  44.307  36.590   1.730
82081W        W41375  29.090  34.120   0.470
82082W        W41376  31.126  32.125  12.392
82083W        W41377  24.188  20.567  14.846
82084W        W41378  19.189   6.734   2.300
82085W        W41379   7.216  18.587  12.496
82086W        W41380   4.772  13.751   0.423
82087W        W41381  34.996  44.449   1.858
82088W        W41382  21.247  14.179   2.685
82089W        W41383  33.010  15.641   0.866
82090W        W41384   7.877   6.218  14.431
82091W        W41385  10.224  24.019  14.894
82092W        W41386   3.224   6.746  10.494
82093W        W41387  42.881  28.054   4.820
82094W        W41388  24.192  37.987   1.378
82095W        W41389   2.304  38.006   4.209
82096W        W41390   1.429   3.809  12.410
82097W        W41391   3.868  17.625  10.552
82098W        W41392  25.068   0.339  11.398
82099W        W41393  25.042   3.424  10.476
82100W        W41394  21.566  24.980   4.809
82101W        W41395   7.186  43.492   0.774
82102W        W41396  29.091  26.554   1.428
82103W        W41397   8.161  38.408   0.760
82104W        W41398  33.091  38.333  11.881
82105W        W41399  42.408   3.745   1.405
82106W        W41400  37.837  12.660   3.831
82107W        W41401  40.017  26.158   2.226
82108W        W41402  28.559  18.157  10.521
82109W        W41403  31.528  21.154   3.781
82110W        W41404  42.898  19.074  10.971
82111W        W41405  15.176  36.462   1.311
82112W        W41406  13.135   1.769   3.216
82113W        W41407  10.189  26.542  12.392
82114W        W41408  25.135  14.143   3.739
82115W        W41409  19.665  36.921   0.368
82116W        W41410  31.424  36.488   4.701
82117W        W41411  43.808   5.425   3.343
82118W        W41412   4.204  31.072   3.678
82119W        W41413  17.686  13.831   4.295
82120W        W41414  11.346  21.218  13.336
82121W        W41415  17.271  19.181   1.287
82122W        W41416   0.871  43.390   4.309
82123W        W41417  26.628  27.618   1.346
82124W        W41418  43.384   0.252  13.502
82125W        W41419  30.571  21.519   2.252
82126W        W41420  36.531  29.024  12.545
82127W        W41421   8.162  24.090  14.770
82128W        W41422  17.748  24.492   0.902
82129W        W41423   8.338  21.129   2.743
82130W        W41424  27.057   3.382  10.065
82131W        W41425  33.095  43.451  14.892
82132W        W41426  21.128   3.307  10.631
82133W        W41427  44.488  39.929   4.613
82134W        W41428  40.519  42.372  10.445
82135W        W41429  32.585  42.404  14.847
82136W        W41430  39.483  16.247   1.295
82137W        W41431  35.104  18.735   2.719
82138W        W41432  19.049  24.640   2.234
82139W        W41433   7.195  41.867   3.770
82140W        W41434  13.320  27.545   2.251
82141W        W41435  15.636   9.684   3.214
82142W        W41436  27.570  29.525  12.513
82143W        W41437  30.156  42.971  10.456
82144W        W41438  37.458   0.847   2.316
82145W        W41439  18.181  10.797  13.829
82146W        W41440  29.570  12.740   1.911
82147W        W41441  19.651  34.514   2.353
82148W        W41442   2.954  14.664  13.014
82149W        W41443  22.707  12.285  10.588
82150W        W41444  30.939  22.084   3.677
82151W        W41445   4.422   5.758  13.909
82152W        W41446  42.385  16.594  11.463
82153W        W41447  39.967   8.786   0.804
82154W        W41448  42.813   3.346   2.287
82155W        W41449  23.686  43.015   3.151
82156W        W41450  42.389  34.538  11.612
82157W        W41451  24.684  25.631   4.761
82158W        W41452   0.766  20.073   3.330
82159W        W41453  27.183   5.748   4.315
82160W        W41454   6.294  28.964   4.819
82161W        W41455   0.897   5.897  10.895
82162W        W41456  42.391  37.343   2.712
82163W        W41457  22.707  11.713  14.308
82164W        W41458  15.703  26.071  13.546
82165W        W41459  38.992  15.618   1.715
82166W        W41460  42.951  24.193   3.210
82167W        W41461  29.427  20.058   0.793
82168W        W41462   3.275  11.759  13.018
82169W        W41463  10.679  29.475   4.179
82170W        W41464  13.842   7.679  11.446
82171W        W41465  13.692  33.514  12.890
82172W        W41466  22.646   7.216  12.830
82173W        W41467  14.817   2.920   0.335
82174W        W41468   3.356  25.509   3.222
82175W        W41469  36.516  14.820  13.816
82176W        W41470  43.424   1.321   0.293
82177W        W41471  34.405   5.281  13.968
82178W        W41472  25.638  28.057  10.914
82179W        W41473   9.369  41.365   4.246
82180W        W41474  12.791   8.723   1.304
82181W        W41475  19.236   0.287  12.085
82182W        W41476  19.625   6.719  11.075
82183W        W41477   6.302  24.538   4.634
82184W        W41478  24.064  27.054  12.415
82185W        W41479  29.666  13.775   4.170
82186W        W41480  34.887  34.414  13.967
82187W        W41481   2.251  24.090   2.797
82188W        W41482  42.511  43.289   1.775
82189W        W41483  10.257  43.984  12.939
82190W        W41484  12.774  17.788  13.353
82191W        W41485  34.604  17.631   4.736
82192W        W41486  18.190  23.632  14.325
82193W        W41487   6.831  18.224   5.668
82194W        W41488  14.105  25.011   2.785
82195W        W41489  21.513  18.057   3.337
82196W        W41490   7.673  32.601   0.383
82197W        W41491  30.569  43.310  10.425
82198W        W41492   4.719   0.778   1.758
82199W        W41493  19.200  40.843  10.603
82200W        W41494  27.045  34.952  10.595
82201W        W41495  34.438  36.371  11.431
82202W        W41496  18.748  38.919   0.352
82203W        W41497  40.049  15.222   2.679
82204W        W41498   5.710  36.857  11.386
82205W        W41499  32.438  13.160   4.209
82206W        W41500  17.083  44.491   4.284
82207W        W41501  21.147  21.257   0.284
82208W        W41502  40.549  29.037   0.803
82209W        W41503  10.867  34.415   2.228
82210W        W41504   4.313  21.255  14.440
82211W        W41505   2.916  20.701   2.786
82212W        W41506   1.826  39.860   3.672
82213W        W41507  16.672   7.836  11.117
82214W        W41508  44.836  10.691  13.323
82215W        W41509  38.485  33.453  14.026
82216W        W41510   3.381   2.241   5.149
82217W        W41511  43.927  34.062  12.492
82218W        W41512  26.112   1.838  11.875
82219W        W41513  37.422   5.833   3.195
82220W        W41514   2.296   0.984   4.268
82221W        W41515   3.825  10.850   1.816
82222W        W41516  23.674   2.924  12.567
82223W        W41517  38.484  42.511   0.882
82224W        W41518  23.196  18.124   2.401
82225W        W41519  44.330  29.999   0.391
82226W        W41520  12.742  39.401  13.898
82227W        W41521  38.336   2.338  12.855
82228W        W41522  30.114  22.609  11.933
82229W        W41523  26.462  38.052   4.287
82230W        W41524   2.322  17.124  14.945
82231W        W41525  10.256  41.485  10.492
82232W        W41526  13.747  44.388   0.840
82233W        W41527  44.997  16.293  13.440
82234W        W41528  26.138  43.847  13.482
82235W        W41529   9.781  19.545   1.800
82236W        W41530  34.879  18.744  12.048
82237W        W41531  35.498   2.923  12.422
82238W        W41532  14.319  16.157  13.017
82239W        W41533  30.941   3.247  11.001
82240W        W41534  39.872  27.612  13.383
82241W        W41535  38.444   2.748   2.775
82242W        W41536   0.757  20.058   4.677
82243W        W41537  23.494  36.891   3.244
82244W        W41538   7.198  23.666  13.414
82245W        W41539  35.916   7.234   2.406
82246W        W41540  32.553   4.378   1.694
82247W        W41541  28.602  44.265  12.396
82248W        W41542  20.633  29.155  14.476
82249W        W41543   4.294  26.637  12.831
82250W        W41544  40.849  35.380   9.520
82251W        W41545  28.677  10.347  10.615
82252W        W41546  38.918   7.860  10.100
82253W        W41547  14.623  28.978   3.232
82254W        W41548   2.242   3.455   4.174
82255W        W41549  16.595   9.203  12.832
82256W        W41550   5.689  27.080   1.341
82257W        W41551  29.926  23.242  10.428
82258W        W41552   3.401   8.770  13.420
82259W        W41553   2.309  28.521  13.514
82260W        W41554   1.405  22.584  13.888
82261W        W41555  14.606  44.952  11.579
82262W        W41556  27.649  32.103  13.793
82263W        W41557  22.010  12.656   1.779
82264W        W41558  25.197  25.016   0.388
82265W        W41559  21.084  40.510  13.877
82266W        W41560   5.239   9.353   4.744
82267W        W41561   4.754  24.169  13.964
82268W        W41562  33.973  43.407  13.903
82269W        W41563  23.077   1.848  13.849
82270W        W41564   6.247  23.599  10.423
82271W        W41565   5.421  32.081  13.333
82272W        W41566  35.005   7.788  14.903
82273W        W41567   6.780   4.791  10.102
82274W        W41568  25.091  17.080   0.837
82275W        W41569  34.057  33.487  14.802
82276W        W41570  28.573  14.725  13.829
82277W        W41571  38.900  15.701  11.453
82278W        W41572  17.721  10.374  14.307
82279W        W41573  12.247  34.460  11.409
82280W        W41574  27.509  37.935  10.067
82281W        W41575  24.667   3.750   2.353
82282W        W41576  40.485  43.326  11.087
82283W        W41577   7.756  26.168  10.483
82284W        W41578  12.325  13.253   3.282
82285W        W41579   2.383  15.170  11.897
82286W        W41580   4.417  10.309  11.951
82287W        W41581  35.034  12.298   1.335
82288W        W41582  13.797   9.737  13.832
82289W        W41583  41.945  44.869  12.471
82290W        W41584  13.211  22.216   4.728
82291W        W41585  40.813  34.058  11.381
82292W        W41586  33.490  35.949   5.128
82293W        W41587  30.139  41.811  11.492
82294W        W41588  18.728  35.900  11.439
82295W        W41589  12.200  17.071   0.807
82296W        W41590  22.587  29.635  12.054
82297W        W41591  23.122  42.338  11.516
82298W        W41592  12.121  30.160  14.415
82299W        W41593  35.087   4.825   2.217
82300W        W41594  39.554  23.694   0.895
82301W        W41595  32.087  19.232   2.215
82302W        W41596  16.714  18.122  12.511
82303W        W41597   7.857  43.276  13.441
82304W        W41598  26.955  43.943  11.855
82305W        W41599  35.370  11.640   4.277
82306W        W41600   8.357   5.733   3.372
82307W        W41601  27.112  18.781   2.903
82308W        W41602  13.638  16.605   2.819
82309W        W41603  12.190  18.614   0.734
82310W        W41604   5.315  36.078  13.393
82311W        W41605   3.881  13.316  11.935
82312W        W41606   6.186  32.531   2.346
82313W        W41607  18.281  14.649   3.859
82314W        W41608  30.009  16.304  14.300
82315W        W41609  40.531   4.767  10.123
82316W        W41610  23.194  29.939  11.974
82317W        W41611  37.551  21.622   3.717
82318W        W41612  20.599   0.954   4.656
82319W        W41613  16.285  37.912  10.967
82320W        W41614  20.158  14.683   1.323
82321W        W41615  16.229  42.308   1.286
82322W        W41616   4.209  13.808  12.014
82323W        W41617  44.997  23.522   0.305
82324W        W41618  19.634  21.116  10.448
82325W        W41619  38.558  10.786   3.701
82326W        W41620  25.093   2.339   5.244
82327W        W41621  41.894  13.839  11.101
82328W        W41622  33.079  17.737  11.609
82329W        W41623   4.867  28.653  14.319
82330W        W41624  15.322  30.923  11.414
82331W        W41625  28.586  20.162  10.516
82332W        W41626  11.666  21.083   4.332
82333W        W41627   2.878  20.723   0.841
82334W        W41628   9.868  25.185   4.312
82335W        W41629  27.451  15.208  13.438
82336W        W41630   3.390  31.557   4.648
82337W        W41631  19.206   5.398   0.736
82338W        W41632   6.887  17.214   0.926
82339W        W41633  17.064  42.789   1.431
82340W        W41634  25.529  19.690  10.937
82341W        W41635  21.147  15.105  12.020
82342W        W41636  22.175  12.289  10.920
82343W        W41637  20.041   8.758   2.395
82344W        W41638  17.590  13.304   3.852
82345W        W41639  23.614  42.372  10.485
82346W        W41640  31.115   4.793   5.122
82347W        W41641   8.784  40.906  12.560
82348W        W41642  21.125  16.200   4.676
82349W        W41643  27.127  19.585   2.736
82350W        W41644   7.378  17.718   3.155
82351W        W41645  32.946  38.416   2.343
82352W        W41646  37.924  16.150   3.348
82353W        W41647   4.206  16.722  13.386
82354W        W41648  43.428   8.273   2.886
82355W        W41649  33.464  17.171  13.475
82356W        W41650  28.153  24.073   4.679
82357W        W41651  29.145  25.975   2.730
82358W        W41652  38.491  44.933  14.366
82359W        W41653   0.748  12.252   2.767
82360W        W41654   6.267  19.131  10.964
82361W        W41655  10.877  36.497   1.221
82362W        W41656  14.216   4.815  14.891
82363W        W41657   5.809  23.625   2.313
82364W        W41658  16.639   1.961  13.405
82365W        W41659  17.782  24.680   5.785
82366W        W41660  12.171  41.033  14.404
82367W        W41661  39.884  36.400  11.919
82368W        W41662  30.559  13.817   3.704
82369W        W41663  41.869  31.424   1.324
82370W        W41664  36.959  27.447   2.416
82371W        W41665  36.870  36.393   1.900
82372W        W41666  21.711  22.600  12.382
82373W        W41667  17.616  29.154   0.483
82374W        W41668  21.155  13.754   0.836
82375W        W41669  17.177  40.438  14.846
82376W        W41670  24.541  23.592   3.788
82377W        W41671   3.725  29.650   3.841
82378W        W41672  21.670  20.740  13.503
82379W        W41673   4.281  42.882   4.700
82380W        W41674  23.558  23.684   0.363
82381W        W41675  35.912  33.952   3.771
82382W        W41676  24.175   8.869  14.878
82383W        W41677   6.916  37.902  10.566
82384W        W41678  34.919  26.072   1.430
82385W        W41679   0.834  33.430   2.293
82386W        W41680   7.900  39.842   4.239
82387W        W41681  16.706  15.085   4.687
82388W        W41682  35.915  18.107  14.304
82389W        W41683   7.273  22.677  14.439
82390W        W41684   1.735   0.360  14.397
82391W        W41685  13.240  24.595   4.684
82392W        W41686  44.393   4.396  11.603
82393W        W41687  39.464  32.902   0.336
82394W        W41688  16.799  30.627   4.665
82395W        W41689  37.513   1.331   0.333
82396W        W41690   5.313  30.048  10.619
82397W        W41691   9.889  27.566  11.444
82398W        W41692  27.497  39.442  14.988
82399W        W41693   9.201  21.716  11.109
82400W        W41694  32.969  16.709  14.348
82401W        W41695  39.018  21.603   0.337
82402W        W41696  43.886  20.091   0.283
82403W        W41697   3.946  10.803  11.910
82404W        W41698  42.879  27.136  11.469
82405W        W41699  34.879  20.533   0.446
82406W        W41700   5.718  33.393  11.509
82407W        W41701  42.818  38.968  11.100
82408W        W41702  17.589  40.540   2.872
82409W        W41703  38.419  19.679   3.303
82410W        W41704  15.677  11.763  12.081
82411W        W41705  34.491   2.885   1.921
82412W        W41706  42.983  44.942  11.589
82413W        W41707   2.365  32.514   0.924
82414W        W41708  17.727  21.611  11.905
82415W        W41709  40.470  34.910  14.473
82416W        W41710  29.133   3.392   4.655
82417W        W41711  23.995   8.340   1.332
82418W        W41712  38.827  10.662  12.896
82419W        W41713  31.014  38.884  14.937
82420W        W41714   4.382  33.080   0.773
82421W        W41715  41.792  33.962   3.171
82422W        W41716  13.738   1.812  14.907
82423W        W41717  27.620  20.060   1.286
82424W        W41718  22.177   0.989  13.794
82425W        W41719  43.272   6.276  13.474
82426W        W41720  32.414  15.195  12.577
82427W        W41721  10.238   4.274   2.753
82428W        W41722  33.607   8.248   2.255
82429W        W41723  19.251  26.060  14.769
82430W        W41724  38.327   4.890   1.753
82431W        W41725  28.951  32.054  13.928
82432W        W41726   6.793  12.842  12.385
82433W        W41727  41.824  39.942  12.572
82434W        W41728   6.816  18.624  13.392
82435W        W41729   5.817  38.960   4.156
82436W        W41730  12.233   5.920   2.819
82437W        W41731  10.363  32.131   0.766
82438W        W41732  32.076   1.932   3.734
82439W        W41733  44.302   9.706   2.698
82440W        W41734  26.081  10.161  13.544
82441W        W41735  25.486   7.232  12.579
82442W        W41736  35.598  42.430   2.399
82443W        W41737  43.856  20.059  11.945
82444W        W41738  26.017   0.417  12.009
82445W        W41739  15.672  15.115  14.872
82446W        W41740  18.632  40.827   1.433
82447W        W41741  41.903   3.277  13.924
82448W        W41742   0.477   0.343   2.414
82449W        W41743   2.721   9.387  11.020
82450W        W41744  44.273  24.679   3.236
82451W        W41745   0.893  33.971  11.514
82452W        W41746  18.547  43.398   0.797
82453W        W41747  38.025  21.747   0.787
82454W        W41748  40.888  18.675   0.817
82455W        W41749  25.104  35.481  10.958
82456W        W41750  10.188  44.877   4.799
82457W        W41751  34.588   2.398  12.018
82458W        W41752   8.169  35.480   4.644
82459W        W41753   7.784  17.168   1.435
82460W        W41754  43.314  21.209  14.288
82461W        W41755  24.513  10.749  14.411
82462W        W41756   5.356  39.962   1.402
82463W        W41757  23.596  31.022   1.862
82464W        W41758  27.053   6.884   2.733
82465W        W41759  36.461  31.128   1.723
82466W        W41760  22.696  35.916  14.376
82467W        W41761  24.721  18.757  13.889
82468W        W41762  29.664  29.173   2.219
82469W        W41763   7.863   8.695  10.051
82470W        W41764   2.435  24.140   1.212
82471W        W41765  19.146  38.969  13.404
82472W        W41766  43.513  41.341  12.887
82473W        W41767  39.376  30.047  12.054
82474W        W41768  37.949  24.012   0.403
82475W        W41769  42.884  24.099  14.944
82476W        W41770  10.216  37.416  13.063
82477W        W41771  37.861  36.977   3.802
82478W        W41772  19.122  34.552   2.358
82479W        W41773  26.167   1.891   1.933
82480W        W41774   3.264  36.376   5.285
82481W        W41775  14.336   1.932  13.407
82482W        W41776  40.022  27.648   2.409
82483W        W41777  16.211   7.232  14.813
82484W        W41778  28.018  27.093  10.064
82485W        W41779  33.991  31.448  12.459
82486W        W41780  39.865  12.126  13.371
82487W        W41781  40.311  20.029   1.839
82488W        W41782  38.438  30.588   3.721
82489W        W41783   0.780  31.105   1.706
82490W        W41784  17.600   5.288  12.823
82491W        W41785  20.060  12.343   3.380
82492W        W41786  21.635  43.962   1.927
82493W        W41787  15.760  42.308   4.832
82494W        W41788  43.285  11.805  11.547
82495W        W41789  29.608  10.703   0.364
82496W        W41790   5.237   3.328   1.935
82497W        W41791  20.089  39.483   4.248
82498W        W41792  40.360  44.998   4.603
82499W        W41793  33.008  18.291  10.984
82500W        W41794  18.659  32.925  10.468
82501W        W41795  14.244  41.863   0.875
82502W        W41796  34.970  23.167   1.424
82503W        W41797   9.667  11.254  12.433
82504W        W41798  38.820   6.281  12.495
82505W        W41799  22.565   9.308   1.213
82506W        W41800  11.179  32.477  14.432
82507W        W41801  14.830  21.241  14.294
82508W        W41802  37.409  21.183   1.277
82509W        W41803  17.079  35.865   3.189
82510W        W41804   7.199  32.513   0.307
82511W        W41805   7.848  20.080  13.963
82512W        W41806  27.661  40.398   3.162
82513W        W41807  23.563  40.825   2.391
82514W        W41808  39.529  33.091  12.556
82515W        W41809   3.789  33.984   0.877
82516W        W41810  11.826   8.384  11.539
82517W        W41811  28.576  39.557   4.321
82518W        W41812   8.668  25.499  12.414
82519W        W41813  21.528   0.343  13.364
82520W        W41814  25.123   6.683  14.852
82521W        W41815  35.500  17.168  12.524
82522W        W41816  32.977  26.657  11.110
82523W        W41817   4.324  37.521   0.271
82524W        W41818  28.462   0.279  12.473
82525W        W41819  13.840  32.509  11.487
82526W        W41820  43.387  12.840  10.889
82527W        W41821  31.502   4.861  10.615
82528W        W41822  33.503  20.606  13.426
82529W        W41823   0.320   7.172  13.031
82530W        W41824  39.513  23.639  11.546
82531W        W41825  19.150  39.956  12.468
82532W        W41826  33.554  30.624  14.764
82533W        W41827  37.582   1.286   0.757
82534W        W41828  42.777  21.018  14.293
82535W        W41829   6.253  18.555   1.389
82536W        W41830   5.789  28.007  14.789
82537W        W41831  30.586  25.664  14.794
82538W        W41832  27.097  38.512   4.818
82539W        W41833  20.623  25.703   2.412
82540W        W41834  20.626  26.520  13.390
82541W        W41835  36.947  15.216   2.377
82542W        W41836  44.924  43.767   4.137
82543W        W41837   8.798  28.150   0.390
82544W        W41838   4.827  18.261  12.427
82545W        W41839  43.354  35.360  14.916
82546W        W41840  36.860  40.352  10.516
82547W        W41841  20.052  36.517   0.815
82548W        W41842  21.232  38.036  13.345
82549W        W41843   2.316  13.208   1.230
82550W        W41844  22.189  12.761   4.135
82551W        W41845  15.301  32.041  13.061
82552W        W41846   0.786  34.580   4.308
82553W        W41847  36.546  40.507   3.311
82554W        W41848   1.283  39.482  12.512
82555W        W41849  26.128  24.658  14.499
82556W        W41850   7.237  28.504   3.660
82557W        W41851  36.400   4.292  10.476
82558W        W41852  13.715  43.302  12.518
82559W        W41853   8.328  25.520  14.335
82560W        W41854   4.851  33.516   0.270
82561W        W41855  14.281  28.942   0.952
82562W        W41856   1.442  40.506   0.285
82563W        W41857  20.180  44.504   4.223
82564W        W41858   8.870  42.793  12.522
82565W        W41859  15.698  44.882  14.341
82566W        W41860  43.894  39.929   1.213
82567W        W41861  22.009  10.215   1.856
82568W        W41862  21.175  35.416   4.613
82569W        W41863  40.477  29.007   2.666
82570W        W41864  23.535   2.330  11.446
82571W        W41865  17.754  29.079   3.663
82572W        W41866  24.214  18.695   1.220
82573W        W41867  21.683  14.292   4.282
82574W        W41868  26.547   6.772  14.812
82575W        W41869  39.851   8.767  13.954
82576W        W41870  20.044   0.436   0.746
82577W        W41871   3.898   4.436  14.784
82578W        W41872  29.141  34.485   1.824
82579W        W41873  38.388  33.587  14.397
82580W        W41874   6.416  16.729  12.925
82581W        W41875  17.767  29.944  10.493
82582W        W41876  31.905  29.561   2.192
82583W        W41877  12.668  38.484   4.667
82584W        W41878  22.089  13.245  12.580
82585W        W41879  21.237  31.622   4.272
82586W        W41880  44.435  19.057   4.218
82587W        W41881  23.720  38.044  12.504
82588W        W41882   6.222  13.609   3.799
82589W        W41883  16.125  27.972   2.334
82590W        W41884  37.004  40.526   2.302
82591W        W41885   2.885   0.804  11.996
82592W        W41886  23.529   5.915   2.829
82593W        W41887  29.041  29.481   4.680
82594W        W41888   1.749  30.020   1.440
82595W        W41889  44.497  15.591  13.932
82596W        W41890  36.909  23.186  11.883
82597W        W41891  38.563  14.732  11.882
82598W        W41892  34.557  13.271  13.443
82599W        W41893   3.360  31.094   1.406
82600W        W41894  19.730  41.374  12.844
82601W        W41895   6.836  10.301  10.504
82602W        W41896  25.666   8.744   1.742
82603W        W41897  20.650  29.124  12.939
82604W        W41898  14.195  35.031  12.968
82605W        W41899  22.520  35.992   3.189
82606W        W41900  26.997  34.536  11.587
82607W        W41901  44.499   2.912   0.816
82608W        W41902  44.844  26.595  13.948
82609W        W41903  23.615  39.427   0.776
82610W        W41904  30.580   7.794  13.933
82611W        W41905  22.712  37.381   9.993
82612W        W41906  13.330  13.809  14.994
82613W        W41907  25.122  36.069  10.407
82614W        W41908  34.465  30.536   0.398
82615W        W41909  42.922   9.799   4.814
82616W        W41910  29.138  43.333   0.962
82617W        W41911   4.943  41.338  11.029
82618W        W41912  10.691  31.967   9.620
82619W        W41913   7.714  27.455  14.844
82620W        W41914  20.213  12.650   1.351
82621W        W41915  32.615  25.487   3.262
82622W        W41916  41.892  19.701  14.422
82623W        W41917   1.752   6.878   1.237
82624W        W41918  35.020  25.078   2.675
82625W        W41919  13.123  40.009   2.196
82626W        W41920  19.756  32.469  13.535
82627W        W41921  13.699  41.852   2.693
82628W        W41922   8.275   4.760  11.006
82629W        W41923  16.072   5.300  10.598
82630W        W41924  18.609  41.321  13.832
82631W        W41925  19.744  42.935   5.123
82632W        W41926  31.443  30.125  13.541
82633W        W41927  13.628  13.263   0.967
82634W        W41928  15.173  30.473  13.038
82635W        W41929  21.606   3.443   2.757
82636W        W41930  26.114  15.730   2.758
82637W        W41931  43.899  42.923  13.930
82638W        W41932  31.016   0.877   1.778
82639W        W41933  17.254  19.560  14.411
82640W        W41934  11.234  29.087  13.351
82641W        W41935  36.563   9.354   1.747
82642W        W41936  30.461  31.480  12.510
82643W        W41937  11.162  21.240   3.817
82644W        W41938  33.022  22.658  14.321
82645W        W41939  33.969  34.008   0.902
82646W        W41940  24.094  41.374   2.781
82647W        W41941   5.767   1.792   4.138
82648W        W41942  32.985  19.582  11.000
82649W        W41943   2.255  27.462  12.916
82650W        W41944  38.559   4.437  13.528
82651W        W41945  31.457  40.853   1.273
82652W        W41946   5.211   4.380  12.827
82653W        W41947  33.049  14.745   3.726
82654W        W41948   3.310   0.964  11.065
82655W        W41949  31.565  39.550   3.832
82656W        W41950  40.918  34.934   4.292
82657W        W41951  12.322  37.487   2.868
82658W        W41952  16.311   7.274   4.714
82659W        W41953  15.697  34.408   1.863
82660W        W41954  42.455   1.957  11.955
82661W        W41955  28.090  12.639   2.259
82662W        W41956  15.232   7.306  14.838
82663W        W41957  29.032  35.860  13.824
82664W        W41958  16.288  30.114  11.956
82665W        W41959  12.255  17.102   1.343
82666W        W41960  21.551  36.548  14.393
82667W        W41961  28.574  40.996   2.863
82668W        W41962  14.169  27.987  11.601
82669W        W41963  16.718   0.296  12.025
82670W        W41964  21.200  18.232  12.086
82671W        W41965  12.759   5.777   1.424
82672W        W41966  20.200   7.693  13.003
82673W        W41967  41.857  11.810   5.262
82674W        W41968   7.759  11.326   0.819
82675W        W41969  44.416  17.633  13.499
82676W        W41970  17.131   8.164   4.231
82677W        W41971   5.261  16.120   4.266
82678W        W41972  43.365  41.426   5.166
82679W        W41973  44.261   4.823   0.884
82680W        W41974  35.864  26.673   4.767
82681W        W41975   9.341   0.857  12.453
82682W        W41976  39.016   8.697  11.534
82683W        W41977  14.244  17.122  10.470
82684W        W41978  36.964  30.531   2.881
82685W        W41979  20.588   9.160  10.955
82686W        W41980  24.629  18.557   4.252
82687W        W41981  26.575  43.963   4.316
82688W        W41982  41.493  31.078  12.575
82689W        W41983  33.886  43.431   2.902
82690W        W41984  38.962  43.492   0.748
82691W        W41985  25.129  28.630  10.612
82692W        W41986   4.706  44.974  13.507
82693W        W41987   0.431  37.064   4.709
82694W        W41988  38.443  40.888  11.431
82695W        W41989   7.344   0.486   2.388
82696W        W41990  39.882  33.939   1.918
82697W        W41991  26.981   1.303  14.463
82698W        W41992  22.721  43.813  11.101
82699W        W41993  18.165  38.897  12.053
82700W        W41994  38.508  24.169   0.742
82701W        W41995  38.925  24.492  10.558
82702W        W41996  16.791  42.884   0.770
82703W        W41997  41.302  44.417  10.068
82704W        W41998  40.886  27.985   3.636
82705W        W41999  28.645  31.612   1.247
82706W        W42000   7.876   7.748  10.576
82707W        W42001   0.494  42.298   1.369
82708W        W42002  18.691  23.605   9.964
82709W        W42003  20.703   0.332   1.695
82710W        W42004  24.546  38.967   0.929
82711W        W42005  14.116  30.960  14.409
82712W        W42006  26.688  11.718  12.916
82713W        W42007  19.185  22.575   3.753
82714W        W42008  14.654  21.624  12.005
82715W        W42009  28.567  40.322  11.998
82716W        W42010  44.376  19.125  11.068
82717W        W42011   7.832  22.115  12.457
82718W        W42012  13.722  15.801   2.235
82719W        W42013  11.856  36.019   2.290
82720W        W42014   5.868  26.501   1.319
82721W        W42015  10.639  24.510  13.327
82722W        W42016  36.561   5.799   0.347
82723W        W42017   5.266  34.544  11.477
82724W        W42018   8.257  14.799   3.293
82725W        W42019  38.404  32.522  10.141
82726W        W42020  20.758  31.557  11.049
82727W        W42021  42.428  33.454  13.963
82728W        W42022  42.815   9.655  13.423
82729W        W42023  24.695  29.156  13.473
82730W        W42024  40.039  26.647  10.583
82731W        W42025  28.540  25.674  11.053
82732W        W42026  38.443  25.021  13.508
82733W        W42027  15.751  10.186   2.898
82734W        W42028  36.416   1.254   0.901
82735W        W42029  30.417  43.844  11.029
82736W        W42030  33.419  17.239   2.179
82737W        W42031  16.181  22.704  12.377
82738W        W42032  12.651  32.592  12.065
82739W        W42033  39.944  11.265   1.874
82740W        W42034  24.522   7.686   2.343
82741W        W42035   2.902  33.129  14.021
82742W        W42036  25.160   2.770  13.816
82743W        W42037  20.654  14.796   0.904
82744W        W42038  34.102  32.889   1.756
82745W        W42039  35.474  22.728  12.499
82746W        W42040   9.343  10.816   3.642
82747W        W42041  25.712  18.752  12.578
82748W        W42042   9.322  17.727   0.444
82749W        W42043  43.916  41.441   3.257
82750W        W42044   9.833  14.290   1.260
82751W        W42045  17.075   3.934   1.910
82752W        W42046  22.519  42.920   5.197
82753W        W42047  21.133  36.371  10.925
82754W        W42048  32.483   8.301   4.140
82755W        W42049  31.917  31.505   4.165
82756W        W42050  12.252  10.740   2.756
82757W        W42051  25.666  32.450   3.645
82758W        W42052  12.234  21.519  14.977
82759W        W42053  35.016   5.709   3.765
82760W        W42054   2.427  25.480  14.409
82761W        W42055  29.568   0.747  14.305
82762W        W42056  38.942  29.622   1.228
82763W        W42057  11.207   1.757   0.964
82764W        W42058  21.089   2.368   1.397
82765W        W42059   2.370  26.497  12.411
82766W        W42060  41.865  33.390  10.617
82767W        W42061  39.063  12.228   3.187
82768W        W42062  34.460  44.367  11.548
82769W        W42063   7.848  32.515  12.958
82770W        W42064  22.019  13.768  14.294
82771W        W42065   8.263  33.566   3.821
82772W        W42066  14.754  26.555   4.768
82773W        W42067  27.092  37.406   0.934
82774W        W42068  35.090  37.490  10.542
82775W        W42069   2.313  22.073   1.364
82776W        W42070   8.781  13.201   5.129
82777W        W42071  15.324   4.935   0.385
82778W        W42072   2.841  11.232   0.883
82779W        W42073   4.881  20.181   5.145
82780W        W42074  11.175  31.061   3.356
82781W        W42075  43.816  37.014  14.861
82782W        W42076  23.491  11.687   3.365
82783W        W42077   0.882  37.941  14.416
82784W        W42078   1.314  34.570   0.736
82785W        W42079  18.585   1.295  14.030
82786W        W42080  12.121   6.802  11.462
82787W        W42081  34.544  15.229   2.383
82788W        W42082  24.620   0.250   0.319
82789W        W42083  29.921  25.097  13.983
82790W        W42084  20.679  27.194   2.777
82791W        W42085  29.428   7.265   2.296
82792W        W42086  30.569  14.808   2.325
82793W        W42087  42.395  22.192   0.392
82794W        W42088  28.180  39.983  13.456
82795W        W42089  12.847  43.362   4.158
82796W        W42090  15.619   1.440  14.832
82797W        W42091  29.114   7.723  10.589
82798W        W42092   7.886  23.710  13.544
82799W        W42093  37.441   3.313   1.248
82800W        W42094  15.749   7.390   0.353
82801W        W42095  30.111  16.586   4.249
82802W        W42096  19.566   2.295  14.843
82803W        W42097   0.840  12.294  11.566
82804W        W42098  20.191  33.093   0.407
82805W        W42099  37.452  33.073   0.730
82806W        W42100  36.012  26.567   1.748
82807W        W42101   3.956  10.666  11.512
82808W        W42102  28.531  29.426  13.924
82809W        W42103  19.213  28.081   0.871
82810W        W42104  26.073  44.311  13.984
82811W        W42105  18.715   0.924   2.895
82812W        W42106  41.485   5.824  12.088
82813W        W42107  11.262  41.473  10.518
82814W        W42108  35.587  16.175  10.561
82815W        W42109  14.693  15.779  11.590
82816W        W42110  39.494   0.423  13.047
82817W        W42111  22.560  37.577  12.535
82818W        W42112  23.197   7.346  14.320
82819W        W42113  44.431  21.631  14.486
82820W        W42114  37.553  16.767   3.235
82821W        W42115   5.274  43.396   3.858
82822W        W42116  15.783  33.437   2.317
82823W        W42117  28.145  32.499   2.794
82824W        W42118  26.681  18.286   4.350
82825W        W42119  16.116  12.223  13.313
82826W        W42120  39.045  36.385   5.246
82827W        W42121  21.524  41.320  14.405
82828W        W42122  22.579  32.142   0.926
82829W        W42123  16.579  35.488  12.369
82830W        W42124  24.625  17.671  12.911
82831W        W42125   4.388  30.090   2.246
82832W        W42126   6.862  43.322   2.351
82833W        W42127  19.616  11.157   3.262
82834W        W42128  13.337   4.413   0.469
82835W        W42129  23.044  11.225  11.394
82836W        W42130   2.250  21.100   2.349
82837W        W42131   3.925  41.837  14.954
82838W        W42132   3.796  39.541  13.516
82839W        W42133  31.896  23.599  10.484
82840W        W42134  11.770  18.596   3.276
82841W        W42135  29.475  24.987   4.183
82842W        W42136  21.551  22.567   4.608
82843W        W42137   5.776  28.985   1.833
82844W        W42138  22.610  42.321  14.342
82845W        W42139  22.240  38.474   2.329
82846W        W42140   5.820  33.100  10.623
82847W        W42141  28.135  32.537   0.362
82848W        W42142  16.755  22.156   1.305
82849W        W42143  40.465  27.131   4.626
82850W        W42144  30.074  22.585   4.214
82851W        W42145   0.382  38.899   4.651
82852W        W42146  42.967  15.736   3.377
82853W        W42147  24.111   7.326  13.339
82854W        W42148   9.826  21.594  14.506
82855W        W42149  15.227  20.082   0.928
82856W        W42150  36.073  10.184   3.326
82857W        W42151  31.454  37.530   4.141
82858W        W42152  24.983   0.900   4.816
82859W        W42153  22.516   7.238   1.222
82860W        W42154  21.088  21.621  11.380
82861W        W42155  27.501   0.318   2.805
82862W        W42156  10.659  22.727  11.063
82863W        W42157   5.815  39.498   0.484
82864W        W42158  35.564  24.597  12.569
82865W        W42159  31.947   7.327   2.299
82866W        W42160  30.962   6.749   0.881
82867W        W42161  13.268  35.371  10.928
82868W        W42162  35.092  33.995  13.943
82869W        W42163  23.126  27.190  10.995
82870W        W42164  42.365   3.844   4.343
82871W        W42165   7.344  40.904   0.406
82872W        W42166   1.328  26.555   0.378
82873W        W42167   4.263   9.742   4.604
82874W        W42168  23.993  20.141   3.655
82875W        W42169  15.225  38.986  12.051
82876W        W42170  29.586  23.647  12.000
82877W        W42171   9.361  13.278   0.267
82878W        W42172  29.980  26.488  13.436
82879W        W42173   2.258   8.718   2.671
82880W        W42174  12.656  19.157   3.343
82881W        W42175  43.408   9.265   2.367
82882W        W42176   2.837  15.285   1.787
82883W        W42177  40.512  42.944   4.817
82884W        W42178  26.566   2.396   3.303
82885W        W42179  28.598  44.338  14.012
82886W        W42180  30.528  12.831   1.845
82887W        W42181  30.117  37.375   3.853
82888W        W42182  31.927  27.648   4.226
82889W        W42183  37.486   9.681  14.961
82890W        W42184  23.148  38.392   1.446
82891W        W42185  32.532  17.149   0.432
82892W        W42186   2.725   8.259  10.480
82893W        W42187  21.156   5.749  12.040
82894W        W42188  25.047   6.678   4.726
82895W        W42189  40.323   3.856   4.213
82896W        W42190  38.388  17.636  12.070
82897W        W42191  40.028   5.748  11.109
82898W        W42192  15.584   3.288  13.815
82899W        W42193  11.719  27.996   9.980
82900W        W42194  16.173  36.390   3.734
82901W        W42195  16.800  34.413   2.274
82902W        W42196  44.823  29.089   3.819
82903W        W42197   3.455  26.080   4.701
82904W        W42198  16.752  42.909   0.408
82905W        W42199  21.257   5.313  11.566
82906W        W42200   4.204  10.341   2.759
82907W        W42201   4.776   2.766  14.880
82908W        W42202  40.469  26.135  10.503
82909W        W42203   7.194  32.102   0.441
82910W        W42204  15.269   5.921   3.821
82911W        W42205  13.118   7.268   1.725
82912W        W42206   2.349   7.416   4.779
82913W        W42207  20.726  17.776  12.523
82914W        W42208  37.430  44.982  10.474
82915W        W42209   5.226  42.009   1.349
82916W        W42210  15.208  26.982  14.506
82917W        W42211   6.728   5.208  12.037
82918W        W42212  29.435  43.782   0.960
82919W        W42213  15.226  38.015  11.518
82920W        W42214  16.675  21.600  14.901
82921W        W42215  36.523   0.285  13.810
82922W        W42216  36.893  34.429   0.322
82923W        W42217   7.306  42.924  10.996
82924W        W42218   8.899   1.383   9.449
82925W        W42219  26.074  27.952   4.680
82926W        W42220  40.471   6.288  12.455
82927W        W42221  20.726   9.193  13.474
82928W        W42222   3.242   2.369   1.283
82929W        W42223  28.506   7.415  11.965
82930W        W42224  36.359   9.184  14.945
82931W        W42225  24.708  33.535  12.461
82932W        W42226  21.706  21.658   3.757
82933W        W42227  43.358   5.885  13.965
82934W        W42228  19.053  20.197   0.477
82935W        W42229   9.242  31.549   1.809
82936W        W42230  26.660  17.714   1.289
82937W        W42231  27.119  26.037  10.539
82938W        W42232  28.486  27.173  14.442
82939W        W42233  42.879   1.823   3.363
82940W        W42234  39.859  20.124  13.485
82941W        W42235  11.345   3.306   0.275
82942W        W42236   8.778   1.415   5.787
82943W        W42237   2.737   3.436   1.375
82944W        W42238  35.421  37.564   0.783
82945W        W42239  43.343   5.801  10.934
82946W        W42240   2.262  38.571   1.237
82947W        W42241   7.193  42.019   0.935
82948W        W42242  32.943  36.457   4.758
82949W        W42243   7.825  30.523  13.387
82950W        W42244   9.800   0.288   5.198
82951W        W42245  21.656  43.826  10.994
82952W        W42246  18.162  25.134  12.880
82953W        W42247  11.693   7.731  14.955
82954W        W42248  40.946   6.732   1.901
82955W        W42249   7.312  17.148   3.718
82956W        W42250  15.210   5.730  12.441
82957W        W42251  18.097   9.672   3.724
82958W        W42252  24.978  18.611  13.412
82959W        W42253  15.272  27.158   1.230
82960W        W42254  38.339   6.893   4.274
82961W        W42255   6.878  32.438   1.932
82962W        W42256  21.223   9.293  12.518
82963W        W42257   8.829  40.538   1.339
82964W        W42258  13.162   8.180   4.257
82965W        W42259   2.720  43.778  13.429
82966W        W42260  27.604  30.522   4.778
82967W        W42261  12.849  40.806  10.921
82968W        W42262  23.005  25.991   0.376
82969W        W42263  42.967  43.827  11.884
82970W        W42264  13.105  11.856  11.463
82971W        W42265  27.597  14.802   2.810
82972W        W42266  29.171  16.797   1.912
82973W        W42267  41.528  27.689   2.201
82974W        W42268  23.568  43.350   2.863
82975W        W42269  20.155  34.992   4.153
82976W        W42270   3.292  38.824  11.486
82977W        W42271   8.847  20.058  11.887
82978W        W42272  26.970  19.174   1.852
82979W        W42273  39.322   9.188  14.958
82980W        W42274   2.812  34.036   4.332
82981W        W42275   8.206  42.341   4.838
82982W        W42276  32.983  11.745   2.868
82983W        W42277  27.600  19.056  12.439
82984W        W42278  36.485  43.860   4.160
82985W        W42279   7.732  43.863  13.494
82986W        W42280   4.795  14.799  14.827
82987W        W42281  34.893   4.288   0.290
82988W        W42282  18.283   7.373  14.292
82989W        W42283  19.757  19.079   3.346
82990W        W42284  20.740   8.809   3.725
82991W        W42285  20.704  43.805  13.798
82992W        W42286  28.976  27.629   3.348
82993W        W42287  16.739  10.205  11.917
82994W        W42288  14.715  34.442   0.266
82995W        W42289  32.465   4.911   1.268
82996W        W42290   8.890  20.182  11.583
82997W        W42291  44.997  39.862  13.813
82998W        W42292  36.981  20.047  13.909
82999W        W42293  35.855  39.509   0.268
83000W        W42294  29.931   6.721   4.202
83001W        W42295  18.562  29.627   4.784
83002W        W42296  33.503   9.738   1.395
83003W        W42297   4.338  20.705  13.310
83004W        W42298  11.713  35.401   2.403
83005W        W42299  33.058  16.192   4.240
83006W        W42300  11.632  38.893   2.791
83007W        W42301  19.202  37.018  14.311
83008W        W42302  42.381   7.211   1.380
83009W        W42303  42.310   2.382  14.992
83010W        W42304  32.608  38.426  13.485
83011W        W42305  43.387  43.932   9.930
83012W        W42306  44.398  22.666  11.572
83013W        W42307  27.943   5.414  13.495
83014W        W42308   4.318  27.064  14.023
83015W        W42309  34.962  28.093   0.260
83016W        W42310  34.377   8.287   1.379
83017W        W42311  40.951  36.081  11.876
83018W        W42312  15.821  31.630  10.958
83019W        W42313  19.275   6.782  14.776
83020W        W42314  13.279   3.275   5.271
83021W        W42315   8.166  38.473  11.609
83022W        W42316  21.065  43.331   4.664
83023W        W42317  17.708  12.698   9.600
83024W        W42318  42.786   7.818  11.080
83025W        W42319  18.149  22.593  11.506
83026W        W42320  19.642   6.200   3.206
83027W        W42321  12.774  15.684   1.702
83028W        W42322  12.218  21.022  13.367
83029W        W42323  36.939  12.207   4.698
83030W        W42324  31.146  23.633   4.271
83031W        W42325  30.616  12.206  14.792
83032W        W42326  12.724  20.108   5.198
83033W        W42327  11.295  42.440   2.302
83034W        W42328  38.906  26.963   0.242
83035W        W42329  32.937  35.467  10.463
83036W        W42330   3.230  27.536   3.809
83037W        W42331  14.775  36.971  11.961
83038W        W42332  22.607  26.503  11.043
83039W        W42333  28.961   2.833   0.881
83040W        W42334  31.954   7.185   4.733
83041W        W42335  39.394  11.159  12.034
83042W        W42336   5.313  16.072   0.938
83043W        W42337  30.025  12.836  11.535
83044W        W42338  10.857   0.294   1.432
83045W        W42339  36.379   9.816   1.303
83046W        W42340   4.861  31.032   5.241
83047W        W42341  25.540   9.310   0.249
83048W        W42342  32.515  35.436   1.355
83049W        W42343  15.164  32.917   1.758
83050W        W42344  36.577   3.954  13.507
83051W        W42345  32.889  11.693  10.148
83052W        W42346  18.604  23.647   3.637
83053W        W42347  40.488   8.722  13.883
83054W        W42348  42.963   3.354  11.878
83055W        W42349   4.788  22.200   4.665
83056W        W42350  29.618   6.238  14.421
83057W        W42351  34.984  40.317  11.974
83058W        W42352  20.573  16.691  14.994
83059W        W42353  36.873  32.097   1.366
83060W        W42354  24.725  39.959   2.299
83061W        W42355  42.869   6.886   4.340
83062W        W42356   2.758   7.723   1.800
83063W        W42357  40.423   2.470   2.835
83064W        W42358  30.056  43.292   1.263
83065W        W42359  28.645  13.280   0.877
83066W        W42360  20.547   6.717   0.931
83067W        W42361  19.105   2.906   1.917
83068W        W42362  16.746   3.719   4.709
83069W        W42363   2.265  36.365   1.355
83070W        W42364  27.999  28.487   2.388
83071W        W42365   2.798  13.617  12.432
83072W        W42366  29.933   6.749  12.969
83073W        W42367  43.428  28.073  11.535
83074W        W42368  36.466  44.417   2.251
83075W        W42369  27.030  25.111   0.953
83076W        W42370  39.542  15.757   1.807
83077W        W42371  39.483   2.317   3.179
83078W        W42372  43.454   5.876   3.226
83079W        W42373  36.871  14.777   0.286
83080W        W42374  38.840  29.566   5.148
83081W        W42375   4.856  12.613   0.777
83082W        W42376  14.197  15.772  12.008
83083W        W42377  43.805  33.455  11.511
83084W        W42378  21.133  19.275  13.427
83085W        W42379  39.538  17.715   2.790
83086W        W42380  13.607  18.662   3.641
83087W        W42381  21.542   9.309   2.259
83088W        W42382   6.383  16.195   1.312
83089W        W42383  16.181  19.230  12.957
83090W        W42384   8.250  15.259  14.315
83091W        W42385   4.751  15.584   4.666
83092W        W42386  30.417  25.643   0.787
83093W        W42387  12.280  19.644  10.925
83094W        W42388   0.962  15.710   0.887
83095W        W42389  28.072  39.873   0.298
83096W        W42390  38.420  13.697  12.073
83097W        W42391  17.095  37.482  10.092
83098W        W42392  13.352  13.732   2.352
83099W        W42393  27.467  10.287  12.477
83100W        W42394  13.710  33.550   2.262
83101W        W42395  26.544  21.048   0.801
83102W        W42396   9.744   2.276  11.580
83103W        W42397   5.213  43.342  11.596
83104W        W42398  18.130  37.364   2.198
83105W        W42399  24.698   0.902   1.384
83106W        W42400   3.330  36.012  13.398
83107W        W42401   2.270   6.691  12.921
83108W        W42402  32.022  18.569   2.832
83109W        W42403   8.871   2.777  12.491
83110W        W42404  27.034  30.552  12.403
83111W        W42405  22.693  27.658  11.490
83112W        W42406  43.929   6.351   1.739
83113W        W42407  38.071  36.429   4.623
83114W        W42408   7.360  14.680   3.673
83115W        W42409  20.173  37.485   3.856
83116W        W42410  42.302  37.577  13.317
83117W        W42411  14.683  10.846   1.421
83118W        W42412  13.745  24.004   2.380
83119W        W42413  27.196  27.092   2.742
83120W        W42414  43.325  37.896  12.061
83121W        W42415   0.307  42.355   3.809
83122W        W42416  41.350  26.196   1.810
83123W        W42417   9.294   9.318   1.824
83124W        W42418  36.852  23.588   4.708
83125W        W42419  31.402  18.250  12.020
83126W        W42420  44.493  20.159  12.391
83127W        W42421  37.343  35.860   0.450
83128W        W42422  23.526  44.458   3.720
83129W        W42423   7.240  14.312  14.303
83130W        W42424  22.016  15.151  13.446
83131W        W42425   4.312  31.417   1.219
83132W        W42426   3.277  16.720  14.471
83133W        W42427  26.087  14.295   4.247
83134W        W42428   9.713  21.024   4.253
83135W        W42429  18.268   9.738  13.932
83136W        W42430  44.380  15.589  12.012
83137W        W42431  19.197  24.100   2.841
83138W        W42432   1.286  33.016  12.366
83139W        W42433  18.785   2.755  10.945
83140W        W42434  40.437  36.472   3.355
83141W        W42435   4.728  29.141   4.309
83142W        W42436   2.939  39.484  12.037
83143W        W42437   1.794  13.341   2.237
83144W        W42438  38.463  12.312  13.006
83145W        W42439   6.830  17.566   0.884
83146W        W42440  41.389   6.393   2.703
83147W        W42441  27.672   2.870   1.895
83148W        W42442  44.772  33.549  10.931
83149W        W42443  21.593   0.746   1.931
83150W        W42444  30.060   2.796   0.828
83151W        W42445  39.400   9.312   5.673
83152W        W42446   2.331   2.781  11.537
83153W        W42447  32.466  17.185   4.747
83154W        W42448  14.753  17.623  11.901
83155W        W42449  31.933   3.787  10.916
83156W        W42450  35.460  43.876   1.252
83157W        W42451  23.065   7.338  13.453
83158W        W42452   9.307   1.388   1.369
83159W        W42453   5.912  31.547   4.114
83160W        W42454  38.993   4.766   1.897
83161W        W42455  31.455   0.302  12.579
83162W        W42456   4.932  11.221  14.842
83163W        W42457  31.555   4.253   2.326
83164W        W42458  38.548  30.922  10.505
83165W        W42459   8.663  29.152  13.916
83166W        W42460  29.005  27.997   0.875
83167W        W42461   4.838  34.558   2.901
83168W        W42462   1.245  18.622  11.544
83169W        W42463   6.395  27.023  12.493
83170W        W42464  43.915  11.797   3.831
83171W        W42465   3.278   6.733   2.192
83172W        W42466  10.154   7.804   4.745
83173W        W42467  35.462  32.515  12.863
83174W        W42468  26.058   6.882  14.759
83175W        W42469   9.670  13.254   2.840
83176W        W42470   6.880  15.317  13.343
83177W        W42471  36.905  24.216  12.474
83178W        W42472  33.891  44.349  13.851
83179W        W42473  36.433   6.194  12.023
83180W        W42474  37.580   0.848  12.073
83181W        W42475   5.716   6.775  11.542
83182W        W42476   4.415  28.126   4.835
83183W        W42477  31.044  17.745  11.461
83184W        W42478  41.428  34.898  10.953
83185W        W42479  12.724  23.063  12.508
83186W        W42480  17.593  32.558  13.048
83187W        W42481  34.587   5.808   2.332
83188W        W42482  29.094  40.902  12.377
83189W        W42483   1.793  25.030  10.565
83190W        W42484   4.405  39.557  11.948
83191W        W42485  33.517  24.051   1.810
83192W        W42486  20.766   0.888  12.072
83193W        W42487  14.157   4.244   4.203
83194W        W42488  19.534  15.792  13.514
83195W        W42489   3.415  43.435   3.265
83196W        W42490   2.966  25.598   2.386
83197W        W42491  42.025  15.267   3.763
83198W        W42492  24.707  37.399   2.722
83199W        W42493  21.035   0.911   2.280
83200W        W42494  25.611  16.181   4.752
83201W        W42495   7.755  16.804  11.903
83202W        W42496  23.082  36.456  12.009
83203W        W42497  23.575  41.405   3.841
83204W        W42498  34.571  42.321   1.718
83205W        W42499   6.202  11.696   3.817
83206W        W42500   0.845  11.796  13.491
83207W        W42501  19.262  18.623  12.076
83208W        W42502  28.677  25.973   1.451
83209W        W42503  17.244  34.597  11.384
83210W        W42504  41.864  25.028  12.853
83211W        W42505  44.783  27.187  12.053
83212W        W42506   1.804  21.651  14.809
83213W        W42507   7.417  41.823   2.244
83214W        W42508   2.329  14.097  10.927
83215W        W42509  31.631  25.172   3.741
83216W        W42510  22.709  16.771   1.782
83217W        W42511  38.848   5.402   3.255
83218W        W42512  27.606  26.559  11.534
83219W        W42513  44.392  32.474  13.803
83220W        W42514  39.983  28.931  14.443
83221W        W42515   7.792  26.698   5.164
83222W        W42516  16.108  17.239  13.341
83223W        W42517  12.262  41.908   0.895
83224W        W42518   6.222  32.406  11.028
83225W        W42519  16.136  32.964   4.603
83226W        W42520  26.033  28.618  13.327
83227W        W42521   3.246  37.071   1.216
83228W        W42522  24.578   1.805  12.860
83229W        W42523  29.539  39.398  13.430
83230W        W42524   8.229  37.382  14.514
83231W        W42525  21.723  11.684  12.446
83232W        W42526  23.676  18.722   0.419
83233W        W42527   9.294  27.976  11.463
83234W        W42528   2.435  13.322  11.389
83235W        W42529  21.573  20.720   4.167
83236W        W42530   0.249  26.991  11.963
83237W        W42531  32.950   9.180   2.843
83238W        W42532  23.106  44.407   2.901
83239W        W42533  12.631  42.286   4.744
83240W        W42534  22.158  39.521  14.371
83241W        W42535  42.858  25.175  12.527
83242W        W42536  39.874   0.860   1.830
83243W        W42537  34.886  32.472   3.150
83244W        W42538  19.554  24.694  14.345
83245W        W42539  12.667  44.345  11.571
83246W        W42540  15.119  17.189  11.050
83247W        W42541  31.531  43.475   0.857
83248W        W42542  21.665   2.437   2.834
83249W        W42543  38.403   0.785   2.204
83250W        W42544   7.854  19.054  11.979
83251W        W42545   9.352  42.911   4.671
83252W        W42546  32.953  10.810   1.346
83253W        W42547  38.433  38.366  13.384
83254W        W42548  13.604  19.630  10.614
83255W        W42549  19.765  36.506  13.939
83256W        W42550  34.091  35.950  13.524
83257W        W42551  21.573   5.385   4.212
83258W        W42552  29.982  10.818   4.672
83259W        W42553  14.299   6.731   0.444
83260W        W42554  13.108  44.754   2.242
83261W        W42555   5.893  36.434   2.822
83262W        W42556  20.136  16.176   2.344
83263W        W42557  13.686  13.277   0.288
83264W        W42558  32.932  32.493   0.932
83265W        W42559  23.217   2.720  12.049
83266W        W42560  16.809  24.699  14.317
83267W        W42561   1.454  26.987   3.169
83268W        W42562   0.367  13.226   4.787
83269W        W42563   7.280  31.986  14.939
83270W        W42564  41.962  28.667  14.910
83271W        W42565  41.945   9.247  13.520
83272W        W42566  36.087  42.436  11.073
83273W        W42567  12.611   3.257  13.870
83274W        W42568   6.233  21.096   0.816
83275W        W42569   1.861  15.227   4.190
83276W        W42570  22.719  27.448   2.226
83277W        W42571   7.689  17.767  12.857
83278W        W42572  13.655  32.392  10.951
83279W        W42573  18.602   2.905   4.683
83280W        W42574  24.210  13.278   4.769
83281W        W42575  28.064  25.509   4.264
83282W        W42576  33.514   0.839  14.023
83283W        W42577  38.441  30.603  11.031
83284W        W42578   0.413  13.663  13.537
83285W        W42579  38.905  14.676  11.612
83286W        W42580   1.967  32.057  14.477
83287W        W42581  30.586  26.201  14.484
83288W        W42582  31.940  40.377   5.276
83289W        W42583  41.461  32.585   3.690
83290W        W42584  22.704  19.595  14.901
83291W        W42585   6.906  43.894   4.291
83292W        W42586  32.615  12.151   0.780
83293W        W42587  23.544  30.444   1.281
83294W        W42588  11.235  19.100  10.982
83295W        W42589  24.647  31.944   2.245
83296W        W42590   0.825   0.387  12.500
83297W        W42591  39.329  16.201   3.291
83298W        W42592  30.624  24.045  14.907
83299W        W42593  16.619  30.058  13.361
83300W        W42594  24.214  32.531  14.325
83301W        W42595  34.559  11.347   0.354
83302W        W42596  19.078  22.203  11.561
83303W        W42597  30.056   1.413   3.166
83304W        W42598  30.121  38.930  14.858
83305W        W42599  20.559  42.429   0.920
83306W        W42600   0.382  20.109  14.952
83307W        W42601   8.900  37.408  10.445
83308W        W42602  33.613  36.881  12.028
83309W        W42603  10.678   6.780   4.835
83310W        W42604   2.292  30.615  14.502
83311W        W42605   8.223  23.193   4.341
83312W        W42606   5.693  27.455   0.431
83313W        W42607   2.315  21.719  12.857
83314W        W42608  44.389  41.500  13.827
83315W        W42609  35.862  22.703   3.780
83316W        W42610  30.072  22.086  11.427
83317W        W42611  33.401   5.890   4.168
83318W        W42612  19.720   2.251   3.779
83319W        W42613   6.392  17.116   1.373
83320W        W42614  44.881  20.686  13.999
83321W        W42615  34.008  29.100  11.106
83322W        W42616  29.959  14.774  11.114
83323W        W42617   0.760  20.266  11.944
83324W        W42618   0.916  37.464  14.481
83325W        W42619  10.254  18.151   0.441
83326W        W42620  30.005  18.588  13.005
83327W        W42621  39.347  36.359   0.894
83328W        W42622  18.249  19.716  12.090
83329W        W42623   9.722  13.352  12.946
83330W        W42624   0.376  10.837   4.295
83331W        W42625  29.428  20.268   1.836
83332W        W42626  12.309  19.123   1.330
83333W        W42627  16.738  33.009   4.135
83334W        W42628  37.431   4.210   0.266
83335W        W42629  43.902  36.845   4.836
83336W        W42630  40.923   8.295  13.983
83337W        W42631  29.006  27.016   4.128
83338W        W42632  41.943  21.250  10.043
83339W        W42633   4.777  40.960   1.321
83340W        W42634  21.248  27.070  10.409
83341W        W42635  28.491  16.678   2.396
83342W        W42636   6.866  39.876  12.503
83343W        W42637  40.335  11.371  14.504
83344W        W42638  17.255  14.820   1.421
83345W        W42639   0.833  33.442  13.525
83346W        W42640  16.670  16.733  12.927
83347W        W42641  13.710   8.765  14.029
83348W        W42642  43.826  20.536  12.837
83349W        W42643  14.643  24.585   2.889
83350W        W42644  24.479  11.800  13.990
83351W        W42645  43.877  42.407   0.333
83352W        W42646  30.950  25.660   1.799
83353W        W42647  40.540  20.603  12.500
83354W        W42648  21.613  15.647  14.450
83355W        W42649  40.331  36.992   4.806
83356W        W42650  30.914   0.958  11.085
83357W        W42651  15.295  33.059   2.340
83358W        W42652  44.920  24.507   2.293
83359W        W42653  26.123  43.773   0.453
83360W        W42654   5.381   6.823   4.246
83361W        W42655   6.889  26.995   3.263
83362W        W42656  32.482  30.593   3.230
83363W        W42657   4.710   5.277   3.844
83364W        W42658   2.230  22.037  14.760
83365W        W42659  29.442  21.102   3.687
83366W        W42660  18.285  35.513  10.468
83367W        W42661  16.100  25.574   3.756
83368W        W42662  14.609  32.632   0.343
83369W        W42663  31.099   1.781  10.441
83370W        W42664  15.740  11.807   4.826
83371W        W42665  22.513  41.888   2.846
83372W        W42666  42.812   5.855   0.454
83373W        W42667  15.620  40.367   0.946
83374W        W42668  41.800  25.577  13.453
83375W        W42669  25.981  30.049  11.911
83376W        W42670  19.184  37.938  12.564
83377W        W42671  11.179  39.429  10.937
83378W        W42672  37.973   8.245   0.265
83379W        W42673  30.977  20.528   4.785
83380W        W42674   1.449  27.572  10.944
83381W        W42675  27.602  25.039  12.374
83382W        W42676  39.851   7.411  13.455
83383W        W42677  21.063  19.572   0.845
83384W        W42678  11.742  30.020   4.174
83385W        W42679  22.711  15.216   0.458
83386W        W42680   2.390   9.378  11.434
83387W        W42681  14.190   2.762  12.946
83388W        W42682  28.621   8.311   3.771
83389W        W42683  16.132  26.139   2.832
83390W        W42684  17.062  10.193   3.657
83391W        W42685   3.258   2.726  14.962
83392W        W42686   1.972  34.965   4.732
83393W        W42687  18.691  13.133  12.562
83394W        W42688  43.390  17.215   0.417
83395W        W42689  41.395  11.363  12.953
83396W        W42690  16.716  10.152  14.310
83397W        W42691  42.902  23.142   3.294
83398W        W42692  43.448   2.472   4.792
83399W        W42693   9.356  17.213  14.381
83400W        W42694  28.679  36.993  13.410
83401W        W42695   3.920  11.161  14.861
83402W        W42696  24.190  33.060   3.364
83403W        W42697  27.564  18.553  11.104
83404W        W42698  36.074  19.667   3.228
83405W        W42699  25.514   7.714   9.936
83406W        W42700  26.952   4.234  13.051
83407W        W42701   4.769  21.679  13.326
83408W        W42702   0.433  25.129   3.251
83409W        W42703   7.776   2.342   3.694
83410W        W42704  42.857   6.349  12.407
83411W        W42705  30.617   1.438  14.276
83412W        W42706  44.851  39.816   4.181
83413W        W42707  10.779  38.031   2.858
83414W        W42708  27.626  10.375  14.811
83415W        W42709   7.736   9.862  11.127
83416W        W42710   8.370  42.818   0.377
83417W        W42711  42.908  44.840   1.245
83418W        W42712   2.807  19.042  12.354
83419W        W42713  11.128  23.077   4.805
83420W        W42714  34.968  42.975  12.355
83421W        W42715  12.189  22.060  14.994
83422W        W42716  14.831   1.419   3.767
83423W        W42717  12.626  32.100  12.851
83424W        W42718  36.348  41.313   0.402
83425W        W42719  26.590   6.405   2.874
83426W        W42720  34.436  39.477   2.312
83427W        W42721   1.779  42.938   0.775
83428W        W42722  26.610   1.951   3.702
83429W        W42723  21.231  35.985   0.428
83430W        W42724  41.016  29.962  13.495
83431W        W42725  41.933  37.338  10.126
83432W        W42726  17.061  25.035  12.899
83433W        W42727  25.195  38.494  10.623
83434W        W42728   0.752  38.385   1.308
83435W        W42729  13.757  38.888  10.895
83436W        W42730  40.540  34.009   5.199
83437W        W42731  28.157  42.908   4.653
83438W        W42732  37.471  10.213   1.425
83439W        W42733  41.892  35.091   3.650
83440W        W42734  10.150  17.669  10.997
83441W        W42735  30.443  38.996  13.547
83442W        W42736  19.717  28.006   2.372
83443W        W42737  21.580  24.633  10.914
83444W        W42738  21.538  24.181  11.598
83445W        W42739  25.211   4.321  11.058
83446W        W42740  30.611  23.196  14.878
83447W        W42741  26.146  33.064  13.939
83448W        W42742  43.453  26.594  14.937
83449W        W42743  41.438  38.825  12.025
83450W        W42744  39.357  41.001   4.662
83451W        W42745   3.756   2.759  11.030
83452W        W42746  41.915  10.252   5.294
83453W        W42747  32.958  12.324  11.573
83454W        W42748  25.090   1.356   0.378
83455W        W42749  17.706  20.082  13.448
83456W        W42750  30.474  27.507   1.768
83457W        W42751  26.627   0.292  13.026
83458W        W42752  44.954  37.376   2.673
83459W        W42753  16.262   5.195   3.225
83460W        W42754  32.518  36.088   1.799
83461W        W42755  36.538   2.415   3.840
83462W        W42756  26.632  11.754  13.536
83463W        W42757  41.512  39.366   3.187
83464W        W42758  42.012  39.390   1.891
83465W        W42759   9.731  10.244   1.765
83466W        W42760  42.834  20.078   3.703
83467W        W42761  36.374  21.676  13.959
83468W        W42762  31.014   3.860   0.798
83469W        W42763  33.403  15.163  13.893
83470W        W42764  40.876  44.908  12.579
83471W        W42765  25.480   2.799   3.258
83472W        W42766   2.964  28.662  14.330
83473W        W42767  42.847   2.908  13.521
83474W        W42768   6.318  12.194   0.753
83475W        W42769   0.954  30.071   4.828
83476W        W42770  26.173  42.377  13.470
83477W        W42771  13.833  44.869   4.258
83478W        W42772  39.838  13.181   2.410
83479W        W42773  16.640  18.075   9.950
83480W        W42774  16.265  35.917  13.332
83481W        W42775  22.034  19.776   0.792
83482W        W42776  44.757  26.557  10.618
83483W        W42777  39.476  28.012  10.052
83484W        W42778  34.553  23.663  14.479
83485W        W42779  33.908  26.682  13.477
83486W        W42780   6.834   8.688  11.121
83487W        W42781  10.289  42.484   0.759
83488W        W42782  10.149  34.588  13.795
83489W        W42783   4.407  40.867   3.690
83490W        W42784  25.210  43.327  12.080
83491W        W42785  34.496  20.571  10.946
83492W        W42786  25.048  30.923  11.858
83493W        W42787   3.315  14.107   0.479
83494W        W42788  44.836  12.843   0.870
83495W        W42789  24.103  30.135  11.589
83496W        W42790  34.070  22.139   4.234
83497W        W42791   9.159  21.741   5.228
83498W        W42792   7.745  27.141  12.994
83499W        W42793  37.518  36.453  12.935
83500W        W42794  27.498   8.220  10.933
83501W        W42795  27.152  34.929  13.838
83502W        W42796  25.149  22.513  12.902
83503W        W42797  10.231  20.183   3.746
83504W        W42798  29.443  22.032   3.151
83505W        W42799  23.084  41.041   1.883
83506W        W42800  43.794  18.720   4.208
83507W        W42801  43.482  33.879  13.885
83508W        W42802  18.569   0.937   4.755
83509W        W42803  15.095  26.089  13.883
83510W        W42804  34.983  30.155  13.331
83511W        W42805  30.438  40.493   0.956
83512W        W42806   9.359  41.444  14.339
83513W        W42807  22.636   2.756  13.347
83514W        W42808  31.962  32.578   4.754
83515W        W42809  21.522  26.481   0.796
83516W        W42810  26.189  28.564   2.253
83517W        W42811  41.037  11.634  12.977
83518W        W42812  40.311  20.610   3.679
83519W        W42813  12.205   4.871   1.856
83520W        W42814  11.359  37.454  12.063
83521W        W42815  34.997  30.148   1.298
83522W        W42816  36.397  41.308   2.802
83523W        W42817  25.480  40.834   2.411
83524W        W42818  31.116  30.074  11.890
83525W        W42819  26.099  20.754   2.885
83526W        W42820  37.567  38.420  11.375
83527W        W42821  41.865  32.979  13.999
83528W        W42822  17.302   6.764  14.388
83529W        W42823  16.305  24.672   3.164
83530W        W42824  17.306  33.398   4.621
83531W        W42825  35.374  15.804   3.637
83532W        W42826  12.244  30.518   0.765
83533W        W42827  14.229  35.573  13.009
83534W        W42828  39.454  38.564   5.641
83535W        W42829  33.019  36.904   1.284
83536W        W42830  40.501  37.407  13.346
83537W        W42831  40.035  26.101  11.408
83538W        W42832  19.118  12.203   4.171
83539W        W42833  34.421  33.912   2.378
83540W        W42834  24.984   5.889   0.845
83541W        W42835  32.094  36.402   4.269
83542W        W42836   6.196  15.189  10.901
83543W        W42837  16.270  39.000  11.567
83544W        W42838  37.478  30.082   2.244
83545W        W42839  12.690  20.554  12.562
83546W        W42840  11.810  31.418   1.289
83547W        W42841   4.872  18.710  13.010
83548W        W42842  36.470  22.733   3.648
83549W        W42843  11.313  38.356  13.472
83550W        W42844  16.250  32.593   2.839
83551W        W42845  11.622   9.323   4.250
83552W        W42846   0.835  28.167   2.259
83553W        W42847  15.681  11.732  12.439
83554W        W42848  38.540  19.238   4.224
83555W        W42849   5.251   1.953  14.352
83556W        W42850  22.218   0.972   2.743
83557W        W42851  20.539  11.297   9.445
83558W        W42852  14.795  22.577  13.896
83559W        W42853  17.160  24.135  11.033
83560W        W42854  15.683  16.712  13.468
83561W        W42855   6.332  40.335   3.368
83562W        W42856  25.499  34.101  10.959
83563W        W42857  13.757  16.785  12.550
83564W        W42858  17.724  38.452   4.325
83565W        W42859  28.502   7.326   0.426
83566W        W42860  37.400   5.738   0.823
83567W        W42861  34.068  26.554  12.974
83568W        W42862  26.608  26.521   2.691
83569W        W42863  13.621  16.168  11.452
83570W        W42864   8.184   0.328  14.390
83571W        W42865  38.384  10.199  14.335
83572W        W42866  25.545  28.647   0.877
83573W        W42867   0.886  18.579   2.804
83574W        W42868  14.805  25.702   4.773
83575W        W42869  14.311  30.640  12.013
83576W        W42870  35.493  11.260  13.396
83577W        W42871   7.254   6.310   0.355
83578W        W42872  21.734  37.380  13.863
83579W        W42873  26.061  39.951  12.942
83580W        W42874  22.042  22.646   3.348
83581W        W42875  14.667  22.087  13.828
83582W        W42876  42.522  21.085   1.919
83583W        W42877  27.992  41.302   3.699
83584W        W42878  38.498   2.944   1.249
83585W        W42879  17.713  41.843  10.580
83586W        W42880  30.028  30.062   2.293
83587W        W42881  13.230  43.939   2.663
83588W        W42882  10.778  11.786   4.649
83589W        W42883  23.552  25.122  11.978
83590W        W42884  44.419  39.516   2.286
83591W        W42885  18.206  27.475  13.438
83592W        W42886   4.422  31.939   4.763
83593W        W42887  30.531  36.911   3.723
83594W        W42888  22.146  16.771  12.056
83595W        W42889  19.108  25.103  13.025
83596W        W42890  15.301  18.653   1.804
83597W        W42891   8.744   2.389  12.531
83598W        W42892   3.244  36.006   4.606
83599W        W42893   2.342  37.409   0.828
83600W        W42894  12.621  13.311   1.777
83601W        W42895  12.311  13.785   1.905
83602W        W42896  13.111  16.798   1.246
83603W        W42897   9.742  42.305   2.672
83604W        W42898  31.444   7.671   3.371
83605W        W42899  28.526  31.455  12.387
83606W        W42900   9.395  41.531  12.418
83607W        W42901   7.857  28.448  12.917
83608W        W42902  41.908   7.330   5.154
83609W        W42903  22.094  41.334  12.973
83610W        W42904  15.592  18.578   0.359
83611W        W42905  26.107   8.395   1.424
83612W        W42906  28.972  36.856  13.894
83613W        W42907  22.562  13.751   3.327
83614W        W42908  25.671  39.347   4.807
83615W        W42909  36.512  14.304  14.885
83616W        W42910  10.161   4.913   2.348
83617W        W42911  27.461  23.139   3.800
83618W        W42912  43.509  13.119   1.344
83619W        W42913  29.008   6.338  12.537
83620W        W42914  25.184  15.085  12.044
83621W        W42915  29.442   3.713  11.431
83622W        W42916   3.233  42.009  11.385
83623W        W42917  36.590  30.465   2.304
83624W        W42918   3.768  21.609  13.422
83625W        W42919  10.228  21.693  14.291
83626W        W42920   5.922   9.299  12.347
83627W        W42921  38.882  34.477   2.806
83628W        W42922  30.511  22.675   2.898
83629W        W42923  17.569   2.379  14.914
83630W        W42924  24.079  17.709   3.821
83631W        W42925  34.451  35.962   3.218
83632W        W42926   3.924  36.050  13.026
83633W        W42927  32.085  18.561   3.180
83634W        W42928  20.522  15.238  12.463
83635W        W42929   7.746  12.745  13.503
83636W        W42930  21.058  29.620   1.324
83637W        W42931  20.252   7.346  13.313
83638W        W42932  34.031   4.790  10.564
83639W        W42933  10.329   3.245  13.964
83640W        W42934   2.757  18.751   2.418
83641W        W42935  26.602  27.990   3.370
83642W        W42936  40.898   9.223   1.793
83643W        W42937  38.822   8.791   0.728
83644W        W42938  10.198  25.602   0.914
83645W        W42939  12.838   3.326   3.156
83646W        W42940  24.526  35.407   1.355
83647W        W42941   1.937  32.613   2.698
83648W        W42942  30.003  18.705   3.757
83649W        W42943  17.625  36.903  14.907
83650W        W42944  21.637  34.032   3.763
83651W        W42945  29.000  13.646   1.234
83652W        W42946  40.862   4.430   3.317
83653W        W42947   0.828  24.520   4.187
83654W        W42948  11.132  20.633   2.807
83655W        W42949   9.672  19.043  14.978
83656W        W42950  43.391  34.009   0.250
83657W        W42951  31.963  10.310   5.293
83658W        W42952  18.053  34.588  14.434
83659W        W42953  18.642  13.629  11.572
83660W        W42954  30.058  30.136  12.028
83661W        W42955  11.710  40.305  12.412
83662W        W42956  34.039  12.772   3.348
83663W        W42957  10.848  43.975   1.432
83664W        W42958  40.359  16.252   0.939
83665W        W42959  16.129   5.810  14.305
83666W        W42960  40.324  31.522  14.023
83667W        W42961  31.486  36.033   2.243
83668W        W42962  44.832  31.992   4.148
83669W        W42963  39.983  40.020   1.231
83670W        W42964  29.967  32.565  14.849
83671W        W42965  37.038  14.767  13.794
83672W        W42966  44.268   5.243  12.851
83673W        W42967   2.245  20.060   1.436
83674W        W42968  38.497  30.658   3.313
83675W        W42969   0.915   7.326   3.211
83676W        W42970   5.820  44.879   4.683
83677W        W42971  27.065  43.845  12.450
83678W        W42972  26.100   6.854  13.412
83679W        W42973  12.814  42.910   3.326
83680W        W42974   1.825  33.054  14.406
83681W        W42975  16.268  21.724  13.461
83682W        W42976   7.412  14.171   3.838
83683W        W42977  16.288  10.685  12.528
83684W        W42978   0.852   6.264  12.993
83685W        W42979  10.716  44.766   9.986
83686W        W42980  23.190  41.964   4.711
83687W        W42981   4.317   7.819   3.788
83688W        W42982  23.026  25.587   1.444
83689W        W42983  34.097  14.655  12.981
83690W        W42984  43.008  33.537   0.441
83691W        W42985  31.582   6.201   2.297
83692W        W42986   9.791   5.919   3.702
83693W        W42987  35.020  16.106   2.801
83694W        W42988   6.783   7.297  11.378
83695W        W42989  20.212  41.908  11.461
83696W        W42990  33.620  34.948   1.419
83697W        W42991  11.196   7.691  14.292
83698W        W42992   7.345   6.342  13.934
83699W        W42993   6.691  23.557  11.545
83700W        W42994  31.977   2.302   0.454
83701W        W42995  40.429  26.501  13.953
83702W        W42996   6.362  18.235  10.469
83703W        W42997  18.790  42.852   2.204
83704W        W42998   4.731   6.771  12.910
83705W        W42999  28.097  34.571  14.784
83706W        W43000  36.883   3.711  12.094
83707W        W43001  10.280  34.040  12.426
83708W        W43002   7.776  36.469   1.424
83709W        W43003  38.963  38.373   9.974
83710W        W43004  12.180  41.320  10.563
83711W        W43005   6.380   5.931  14.955
83712W        W43006  18.679   3.390  13.506
83713W        W43007  44.981  12.165   0.385
83714W        W43008  43.853   5.826   0.924
83715W        W43009  23.643  16.642   3.774
83716W        W43010  16.797  15.154   0.421
83717W        W43011   7.858   8.739  11.886
83718W        W43012  16.223  17.285  12.877
83719W        W43013  17.229   4.428   3.185
83720W        W43014  21.696   6.381  13.897
83721W        W43015  14.304  37.507   5.106
83722W        W43016  35.604   5.867   3.808
83723W        W43017  31.640  23.123   2.324
83724W        W43018   9.774  29.001  14.785
83725W        W43019   6.716  17.211  11.411
83726W        W43020   3.273  16.136  10.505
83727W        W43021  14.801  38.054  11.071
83728W        W43022  36.505  29.946  13.849
83729W        W43023  28.445  19.701  11.997
83730W        W43024  30.051   1.272  14.991
83731W        W43025   2.896  42.856   2.709
83732W        W43026  15.298  34.524  12.566
83733W        W43027  35.986  44.412  14.005
83734W        W43028   5.292   1.924  12.945
83735W        W43029  17.206  32.096   2.385
83736W        W43030  23.985  44.470  12.947
83737W        W43031  34.960  11.252   0.933
83738W        W43032  11.135   8.248   1.273
83739W        W43033   6.796  25.704  14.459
83740W        W43034  24.046  36.861  11.098
83741W        W43035  16.098  41.876   1.913
83742W        W43036  40.447  36.448  10.566
83743W        W43037  21.630   8.179   3.229
83744W        W43038   0.904  42.327  10.945
83745W        W43039  28.085  42.504  14.770
83746W        W43040  21.577  37.027   0.309
83747W        W43041   5.244   5.755  11.381
83748W        W43042  38.381  35.371  11.975
83749W        W43043  37.056  31.560   3.337
83750W        W43044  18.261  34.547  12.559
83751W        W43045  40.965   4.217  14.886
83752W        W43046   7.299   3.219   1.845
83753W        W43047   6.398  36.900   4.792
83754W        W43048   4.931  32.979  12.391
83755W        W43049  17.604   1.301  13.913
83756W        W43050  44.403  26.614   2.342
83757W        W43051  23.057  26.569   4.263
83758W        W43052   5.752  35.109   1.416
83759W        W43053  43.502   2.824   3.715
83760W        W43054   5.772   6.689   0.935
83761W        W43055  23.581  43.443   2.259
83762W        W43056   0.802  27.967   4.660
83763W        W43057   7.863  13.696   1.389
83764W        W43058   8.367  35.875   2.204
83765W        W43059  18.128  36.386   4.611
83766W        W43060  21.637  42.799  12.339
83767W        W43061  12.193  20.179  11.576
83768W        W43062   3.744  14.719  13.448
83769W        W43063  31.645   7.417  10.446
83770W        W43064  24.983  18.227   1.901
83771W        W43065   9.826   9.654   2.318
83772W        W43066  11.184  19.713   3.735
83773W        W43067  13.203  16.726  14.026
83774W        W43068   9.830   6.366  14.869
83775W        W43069  10.368   2.918  14.936
83776W        W43070  17.643  28.092   3.367
83777W        W43071  42.878  33.918  11.465
83778W        W43072  37.087  44.348  13.513
83779W        W43073  19.585  33.543   5.139
83780W        W43074  11.833   0.762  13.418
83781W        W43075   8.785  23.675   0.882
83782W        W43076  42.924   2.809  12.961
83783W        W43077   4.770  29.482   1.288
83784W        W43078  31.408  37.928   1.275
83785W        W43079  29.117  28.479  13.381
83786W        W43080  41.903  39.477   2.263
83787W        W43081  40.327   4.850   2.855
83788W        W43082  11.150  10.267  13.021
83789W        W43083  29.600  17.175  14.966
83790W        W43084   0.832  12.626  13.012
83791W        W43085  42.323  36.890   0.337
83792W        W43086   6.388  34.588  10.645
83793W        W43087   4.943   9.786   4.749
83794W        W43088   5.829  44.896  14.764
83795W        W43089  24.146  28.032   5.145
83796W        W43090  25.681   4.862   3.307
83797W        W43091   3.884  42.986  12.883
83798W        W43092  14.794  31.946  14.464
83799W        W43093  30.134  30.460   0.755
83800W        W43094  40.944  36.552  12.823
83801W        W43095  18.607  15.104   3.815
83802W        W43096  21.185  29.631  14.792
83803W        W43097  16.792  31.951  14.458
83804W        W43098   1.751   2.927   0.753
83805W        W43099  18.605  31.441   2.200
83806W        W43100  23.026  33.579  12.507
83807W        W43101  25.076  27.956   0.942
83808W        W43102  16.714  37.832   3.701
83809W        W43103  18.261  42.472  14.960
83810W        W43104  29.633  22.576   3.303
83811W        W43105   0.373  20.248  10.560
83812W        W43106   6.257   6.868  13.515
83813W        W43107   7.391  32.552   1.319
83814W        W43108  18.616  26.553  12.363
83815W        W43109  27.452  42.451   0.900
83816W        W43110  21.733   4.205  13.465
83817W        W43111  37.936  10.188  13.875
83818W        W43112   2.319  12.312   2.835
83819W        W43113  29.535  26.574   4.231
83820W        W43114   0.845   3.317  14.971
83821W        W43115  14.254  25.607   2.727
83822W        W43116  38.938  44.838   3.669
83823W        W43117   8.675  11.285   4.639
83824W        W43118   5.750  17.581  10.085
83825W        W43119  24.110  10.678   1.864
83826W        W43120  21.671  33.600  14.851
83827W        W43121  37.992  22.518  11.993
83828W        W43122  42.889  44.312  10.421
83829W        W43123  13.211  13.836  13.920
83830W        W43124   7.832  42.497  10.618
83831W        W43125  27.650   0.333   2.228
83832W        W43126  38.460   8.213  14.455
83833W        W43127   7.404  26.013   2.832
83834W        W43128   4.350  40.993   0.843
83835W        W43129  28.952  13.203   3.664
83836W        W43130  42.939  13.347   0.242
83837W        W43131   6.259  42.411   2.782
83838W        W43132  22.101  33.487  11.863
83839W        W43133  30.977  14.695  10.534
83840W        W43134  12.714  28.622   0.430
83841W        W43135  26.975  14.144  12.964
83842W        W43136  35.596  26.069  14.354
83843W        W43137  21.186  37.071   0.322
83844W        W43138  37.429  35.530   3.368
83845W        W43139  28.677   8.263   4.787
83846W        W43140  22.122  29.668   2.394
83847W        W43141  44.972  28.587  10.419
83848W        W43142  27.531  30.639  11.498
83849W        W43143  17.155   1.809  12.459
83850W        W43144  20.050  14.282   2.867
83851W        W43145  44.976   9.324   2.305
83852W        W43146  44.784  24.028  11.505
83853W        W43147  18.107  27.140   1.423
83854W        W43148  23.552   0.939   2.758
83855W        W43149  10.723   8.250  12.982
83856W        W43150  17.172  33.083  13.445
83857W        W43151  17.246  11.179  13.050
83858W        W43152  35.059  28.629   3.212
83859W        W43153  27.073   8.767  12.544
83860W        W43154  32.127   5.259  14.032
83861W        W43155  27.629  41.439   1.929
83862W        W43156   2.298  16.806   2.285
83863W        W43157  13.168  40.400   1.271
83864W        W43158  25.704  44.781   2.287
83865W        W43159   9.726  35.008   2.755
83866W        W43160  14.334  33.573  12.419
83867W        W43161  20.564  15.201   2.204
83868W        W43162  12.821   1.308  10.966
83869W        W43163  28.446  19.230  11.400
83870W        W43164  40.456  39.491   1.268
83871W        W43165  26.998  18.085  12.473
83872W        W43166  38.414  20.752   1.795
83873W        W43167  31.574  42.441   5.139
83874W        W43168   5.269  11.702   1.927
83875W        W43169  40.053  15.774   2.354
83876W        W43170  26.083   0.335   0.400
83877W        W43171  33.431  21.157   2.827
83878W        W43172  11.128  12.286  10.954
83879W        W43173   5.313  39.368  10.409
83880W        W43174  28.438  38.000  14.907
83881W        W43175  27.638  33.618   3.307
83882W        W43176  41.348  29.136  11.011
83883W        W43177   7.777  30.518  10.926
83884W        W43178  29.028  42.376   0.473
83885W        W43179  13.783  22.652  11.052
83886W        W43180  21.058  39.415  14.335
83887W        W43181  29.485   4.218   0.874
83888W        W43182  39.062   7.362  10.964
83889W        W43183  36.988   6.819  12.395
83890W        W43184   7.732  19.134  12.574
83891W        W43185  35.048  44.359  14.447
83892W        W43186  35.500  27.459  10.495
83893W        W43187  11.762   1.799  10.444
83894W        W43188  44.822  27.665   4.288
83895W        W43189  32.502   8.806  11.542
83896W        W43190   5.733   0.369   4.114
83897W        W43191  27.976   4.779   2.312
83898W        W43192  14.216  13.136  11.095
83899W        W43193   7.182  25.520  14.949
83900W        W43194  14.764  41.415  13.491
83901W        W43195  36.531  12.223  13.984
83902W        W43196  21.143  20.099  14.429
83903W        W43197   5.382  37.557  10.940
83904W        W43198  32.558  25.029   2.394
83905W        W43199  25.540   2.351   2.371
83906W        W43200  40.840  21.677   0.265
83907W        W43201  34.570  27.084  10.544
83908W        W43202  44.800  38.821   1.888
83909W        W43203  41.858  11.292   2.205
83910W        W43204  39.470  25.541   0.863
83911W        W43205   4.300   3.331  12.468
83912W        W43206  18.723  30.549  12.019
83913W        W43207  19.702  41.944   3.735
83914W        W43208  25.611   1.807   2.307
83915W        W43209  31.022   8.845  13.028
83916W        W43210   0.425  23.656   3.228
83917W        W43211  23.702  20.582  11.411
83918W        W43212   5.288  35.479  12.352
83919W        W43213  34.601  13.115   4.683
83920W        W43214  10.746  25.598   4.198
83921W        W43215  38.554  11.748  12.914
83922W        W43216  22.021  41.828  11.568
83923W        W43217  39.861  11.694   0.819
83924W        W43218  15.202  35.433   1.278
83925W        W43219  34.104  20.536  11.081
83926W        W43220   8.358  21.029   3.170
83927W        W43221  38.563   5.312  14.019
83928W        W43222  11.221  30.083   5.222
83929W        W43223  28.049  41.889   2.184
83930W        W43224  11.711   5.433  14.362
83931W        W43225   6.198  38.965  12.363
83932W        W43226  20.596   4.846  13.538
83933W        W43227   2.902   9.390   0.927
83934W        W43228   1.885  22.736   1.759
83935W        W43229  35.019  40.418   2.808
83936W        W43230  18.573  33.989  13.874
83937W        W43231  13.301   1.453  14.773
83938W        W43232   5.369  32.027   1.837
83939W        W43233  26.980  42.349   1.321
83940W        W43234   5.321  32.036   5.282
83941W        W43235  17.156   6.262  12.569
83942W        W43236   7.274  24.124  12.484
83943W        W43237  38.369  23.205   2.379
83944W        W43238  27.487  22.526   2.416
83945W        W43239  44.409  26.581   3.305
83946W        W43240  34.530  25.469   3.163
83947W        W43241  37.832  44.271  11.508
83948W        W43242  20.759  28.436   4.765
83949W        W43243  44.354   6.365   2.344
83950W        W43244  19.282  30.073  11.948
83951W        W43245  29.527  28.129   0.759
83952W        W43246  33.899  11.670   4.246
83953W        W43247   3.728   2.921   1.425
83954W        W43248  14.263  24.213  11.012
83955W        W43249  24.131  34.541  14.403
83956W        W43250  37.377  38.417   2.900
83957W        W43251   2.856  18.753  13.897
83958W        W43252  16.692  26.203  14.904
83959W        W43253   1.918  23.120   3.171
83960W        W43254  25.482  29.098  12.910
83961W        W43255  40.953   6.908  10.513
83962W        W43256  16.737  23.726  13.798
83963W        W43257  43.353  10.635   4.156
83964W        W43258  20.080   2.437  11.419
83965W        W43259  31.464   7.843  12.564
83966W        W43260  35.528  37.841   0.472
83967W        W43261  24.028  30.636  10.575
83968W        W43262   1.453  36.854   4.317
83969W        W43263   5.754  31.516   0.311
83970W        W43264  44.930  32.579  13.320
83971W        W43265   0.843  35.413   3.181
83972W        W43266  40.825   5.295   1.275
83973W        W43267   2.467   6.228   1.816
83974W        W43268  11.237  41.926   1.286
83975W        W43269  36.061   6.726  12.062
83976W        W43270   8.888  39.842  11.374
83977W        W43271   6.891  18.117  13.849
83978W        W43272   3.362   8.872  11.128
83979W        W43273   0.479  14.263   1.745
83980W        W43274  24.034  21.224   0.827
83981W        W43275  32.512  41.309   0.280
83982W        W43276  22.133  16.201  10.499
83983W        W43277   3.460  24.553  13.372
83984W        W43278  24.107  40.904  14.405
83985W        W43279  11.219   9.308  14.873
83986W        W43280  35.951  37.027  10.939
83987W        W43281  15.795   1.790  13.907
83988W        W43282   3.303  41.452   0.346
83989W        W43283  43.483  11.633  12.997
83990W        W43284   4.250  36.855   0.364
83991W        W43285  31.100  33.965   2.732
83992W        W43286   0.271  39.919   2.270
83993W        W43287  27.999  34.067   0.483
83994W        W43288  16.289   8.876  13.379
83995W        W43289  24.101  11.261  10.441
83996W        W43290  30.504  15.781  14.920
83997W        W43291   1.372  28.596  10.449
83998W        W43292  12.180  35.489   3.227
83999W        W43293  43.987  20.039  14.881
84000W        W43294  24.051  13.123  14.958
84001W        W43295  39.930  40.999   2.243
84002W        W43296  17.246  16.283  11.040
84003W        W43297  36.401  23.225  11.456
84004W        W43298  27.071  12.669  13.949
84005W        W43299  41.833  10.290  12.937
84006W        W43300   3.330   8.227  11.116
84007W        W43301   4.270  44.944   0.442
84008W        W43302  21.635  14.826  12.383
84009W        W43303  27.524   7.394   3.249
84010W        W43304  13.801  22.185  11.581
84011W        W43305  13.831   9.255   1.342
84012W        W43306   0.870   5.326   0.246
84013W        W43307  11.690  40.321   3.258
84014W        W43308  21.721  26.623   4.757
84015W        W43309  15.266   5.394  11.446
84016W        W43310  18.623   0.770   1.873
84017W        W43311  43.323  40.368   4.826
84018W        W43312   2.745  12.143   1.220
84019W        W43313  27.169  11.271  12.834
84020W        W43314  27.007  40.538  11.956
84021W        W43315  36.993  41.810   4.321
84022W        W43316  15.729  29.171  10.935
84023W        W43317  31.114  25.110   3.706
84024W        W43318  24.637  15.190  14.383
84025W        W43319  38.910  42.415  11.440
84026W        W43320   7.399  13.842   0.758
84027W        W43321   4.845  25.669  14.951
84028W        W43322  14.769  39.973  13.456
84029W        W43323  41.427  42.029   1.278
84030W        W43324  22.118   6.782  13.852
84031W        W43325   8.204  17.676   3.345
84032W        W43326  42.286  36.356   2.877
84033W        W43327  20.197  33.009   3.849
84034W        W43328  15.267  13.736  14.330
84035W        W43329  40.876  24.696  14.288
84036W        W43330   9.305  37.446   2.290
84037W        W43331  37.341   6.908  11.412
84038W        W43332  41.002  19.254  10.975
84039W        W43333  44.499   7.283  12.089
84040W        W43334  15.668   6.343  12.462
84041W        W43335  15.249  17.137  14.881
84042W        W43336  37.567  19.701   1.301
84043W        W43337  23.668  14.817   4.143
84044W        W43338  36.464  38.506   4.145
84045W        W43339  32.482   4.920   0.434
84046W        W43340  25.989   4.440   1.446
84047W        W43341   7.750  31.953   4.756
84048W        W43342  40.475   1.925  14.325
84049W        W43343  26.600  24.588   2.282
84050W        W43344  32.027  11.691  13.816
84051W        W43345  16.798  16.275  14.903
84052W        W43346  36.417  35.566   3.304
84053W        W43347  21.671  39.840  10.922
84054W        W43348  10.638  41.365   1.751
84055W        W43349  15.239   3.801  10.639
84056W        W43350  30.013   7.293   4.336
84057W        W43351  17.288  42.006  11.493
84058W        W43352  42.825  32.585  14.457
84059W        W43353   4.829  19.737   4.759
84060W        W43354  30.491  34.505   4.237
84061W        W43355  34.423  36.369   3.378
84062W        W43356   6.728  31.112   1.858
84063W        W43357  21.556  34.884  14.346
84064W        W43358  10.876  44.847  11.079
84065W        W43359  35.573  22.082   1.307
84066W        W43360  43.281  38.951   1.351
84067W        W43361   7.221  20.137   0.307
84068W        W43362  11.354   0.328   5.610
84069W        W43363  26.505  10.144  13.994
84070W        W43364   1.476   4.224   0.397
84071W        W43365   1.811  38.346   4.607
84072W        W43366  38.560  38.420  14.830
84073W        W43367  32.917  14.676   2.769
84074W        W43368  10.735  42.895  10.548
84075W        W43369  39.398  27.470  12.022
84076W        W43370  36.453  35.005   2.409
84077W        W43371   3.870  41.531   2.736
84078W        W43372   9.719   1.303   0.294
84079W        W43373  44.371  20.126  13.436
84080W        W43374  33.958  36.880  12.533
84081W        W43375  38.835  15.667   5.295
84082W        W43376  25.174   0.974   3.823
84083W        W43377   2.434  44.817  12.493
84084W        W43378  15.778  43.279   4.803
84085W        W43379  11.868  34.492   1.705
84086W        W43380   1.463  42.817  13.061
84087W        W43381  29.970  44.393  10.094
84088W        W43382  44.811   9.833  13.405
84089W        W43383  41.520  26.532   1.764
84090W        W43384  19.243   8.670  12.387
84091W        W43385  28.515  39.467   2.827
84092W        W43386  19.161  28.484   2.827
84093W        W43387  22.620  20.159  12.415
84094W        W43388  39.543   5.739   4.157
84095W        W43389   7.402  10.668  11.915
84096W        W43390  38.968  42.007  11.519
84097W        W43391  26.077  20.567   2.194
84098W        W43392  37.385   4.266  11.542
84099W        W43393   6.699  40.855  14.490
84100W        W43394   8.696  22.176   1.874
84101W        W43395   0.757  28.951   1.312
84102W        W43396  12.203  18.285   4.674
84103W        W43397   0.872  26.972  12.345
84104W        W43398  44.994  30.512   3.364
84105W        W43399  37.550  16.682   4.759
84106W        W43400  18.595  10.790  10.529
84107W        W43401  21.033  31.506  13.343
84108W        W43402   6.340  26.614   3.256
84109W        W43403  25.170   2.416   1.315
84110W        W43404  35.528  18.595  13.353
84111W        W43405  29.638  29.925   3.788
84112W        W43406  32.047  38.541  11.118
84113W        W43407  34.408  29.484  12.495
84114W        W43408  41.998  19.074  12.344
84115W        W43409  33.434  22.602   0.294
84116W        W43410  30.907  29.920   1.796
84117W        W43411  26.618  10.682   0.858
84118W        W43412  27.147  34.884  13.491
84119W        W43413   0.344  38.366  11.997
84120W        W43414   1.446  21.086   3.772
84121W        W43415   6.341  14.210   0.934
84122W        W43416  42.340  36.466   3.152
84123W        W43417   4.449   1.254  13.310
84124W        W43418   8.756  19.212  12.487
84125W        W43419  14.787   6.711  10.411
84126W        W43420  28.963  17.159   3.800
84127W        W43421  12.731  42.804  14.897
84128W        W43422   6.263  12.236  12.918
84129W        W43423   8.373   2.278   5.656
84130W        W43424  23.543   4.273   1.815
84131W        W43425  33.552   2.729   3.333
84132W        W43426   2.230  24.479  12.429
84133W        W43427  15.282  37.528   4.818
84134W        W43428  14.779   1.349  14.949
84135W        W43429  26.086  12.253   2.252
84136W        W43430  35.104   7.904  13.441
84137W        W43431  42.375   9.658  11.522
84138W        W43432   0.924  30.992  12.028
84139W        W43433   4.851  21.062   2.704
84140W        W43434   5.933  42.859  14.877
84141W        W43435   8.676  34.870   0.354
84142W        W43436  11.715  13.330   2.305
84143W        W43437  25.601  17.732  12.516
84144W        W43438  38.018  22.028   2.721
84145W        W43439  16.714  11.301  11.866
84146W        W43440   5.861  33.578  13.914
84147W        W43441  12.779   7.876  12.381
84148W        W43442  20.188  41.515   0.876
84149W        W43443   7.788  25.107   0.376
84150W        W43444  15.185  31.125   1.876
84151W        W43445  22.668   7.737   5.291
84152W        W43446  34.515  29.010   2.305
84153W        W43447   0.921   9.783   0.871
84154W        W43448  11.299  12.257   4.698
84155W        W43449   5.252  12.733   1.351
84156W        W43450  38.502  16.196  10.631
84157W        W43451  43.886  33.461  13.493
84158W        W43452  20.705  33.592  10.418
84159W        W43453   1.854  37.061   4.630
84160W        W43454  25.121   7.363   1.448
84161W        W43455   3.299  35.872  14.772
84162W        W43456  41.537   3.811   3.635
84163W        W43457  12.627  15.791   0.788
84164W        W43458  12.127  24.702  10.456
84165W        W43459   2.765  34.903   4.813
84166W        W43460  32.127   9.673   0.944
84167W        W43461  10.641   1.813   4.260
84168W        W43462  24.008   7.776   5.125
84169W        W43463   8.296  29.566   0.441
84170W        W43464   1.253  32.105   0.946
84171W        W43465  28.988   2.751   3.369
84172W        W43466  29.538  11.360  10.911
84173W        W43467   1.880  27.093   3.797
84174W        W43468  19.546  39.828   4.803
84175W        W43469   2.456   8.817  12.942
84176W        W43470  36.900  23.158  12.930
84177W        W43471   7.741  38.035  14.479
84178W        W43472  23.535   6.378   3.234
84179W        W43473  44.858  11.675   3.830
84180W        W43474  30.144   6.359  10.518
84181W        W43475   6.783  30.590   3.199
84182W        W43476  13.602  23.563  13.419
84183W        W43477  24.147  18.558  10.421
84184W        W43478  25.500  33.006   4.192
84185W        W43479  22.669  28.058   1.403
84186W        W43480  26.625  40.527   3.845
84187W        W43481   0.383  10.795  14.367
84188W        W43482  37.042  39.473  10.537
84189W        W43483   9.218  20.156  13.831
84190W        W43484  38.880  14.167  11.999
84191W        W43485  16.178  21.229   1.711
84192W        W43486  31.059  16.109   4.707
84193W        W43487   5.416   6.195  12.977
84194W        W43488  36.451  35.521  12.066
84195W        W43489  43.003  39.509   2.269
84196W        W43490  14.187   8.835   0.787
84197W        W43491   1.758  18.202   3.350
84198W        W43492   1.945  12.755  10.549
84199W        W43493  15.280  37.937   4.735
84200W        W43494  21.595  25.675   4.289
84201W        W43495  14.289  33.056   0.839
84202W        W43496  12.351   1.762   4.704
84203W        W43497  37.047  42.516  13.360
84204W        W43498  18.096  41.537   3.754
84205W        W43499   2.386  37.032   2.820
84206W        W43500  44.957  20.639   2.888
84207W        W43501  22.063  14.313   0.912
84208W        W43502  31.918  33.919   1.311
84209W        W43503  37.457  43.448  13.979
84210W        W43504  15.635  18.753   4.118
84211W        W43505  20.529  41.465  14.884
84212W        W43506  30.582  20.762   0.440
84213W        W43507  13.205   3.296  12.995
84214W        W43508   0.490  32.951  11.855
84215W        W43509  11.343  30.025  13.989
84216W        W43510  43.337   4.727   0.243
84217W        W43511  23.511   8.844   1.777
84218W        W43512  32.914  15.690   1.217
84219W        W43513  29.017  22.147  12.071
84220W        W43514   6.364  13.620   1.264
84221W        W43515  43.377  19.704  11.968
84222W        W43516  34.519  17.646   4.301
84223W        W43517  23.122   4.762  13.034
84224W        W43518   8.773  32.576  13.882
84225W        W43519   7.768   9.816  11.867
84226W        W43520  30.510   0.382   4.654
84227W        W43521  11.255  16.107  11.115
84228W        W43522  10.331  35.590  10.032
84229W        W43523   8.341  39.369  14.023
84230W        W43524  22.163  10.779  11.478
84231W        W43525   1.845  31.421   1.370
84232W        W43526  20.684  29.536  14.370
84233W        W43527  27.561  16.088  14.860
84234W        W43528  16.789  38.837  14.387
84235W        W43529  13.221  32.886   0.840
84236W        W43530   8.216  39.453   3.848
84237W        W43531  22.067   3.338   4.733
84238W        W43532  11.670  16.573  14.295
84239W        W43533  33.513  30.158   1.781
84240W        W43534  36.997  10.748   0.420
84241W        W43535  31.555  25.129   0.844
84242W        W43536   5.848  25.549   4.266
84243W        W43537  11.737  43.288  12.079
84244W        W43538  31.006   8.664  11.095
84245W        W43539  31.511  36.553   3.710
84246W        W43540   6.425  39.043  13.971
84247W        W43541   5.891   8.733  14.978
84248W        W43542   9.338  38.961   0.820
84249W        W43543   6.276  30.913   2.236
84250W        W43544   7.353  15.775  14.478
84251W        W43545   7.728  11.644  10.916
84252W        W43546  23.012   0.380   2.387
84253W        W43547  22.127  15.254  11.903
84254W        W43548  34.571  14.757   0.311
84255W        W43549  26.510  13.240   5.108
84256W        W43550   1.890   1.951  12.382
84257W        W43551  23.164  27.578  10.476
84258W        W43552  16.130  16.574   4.335
84259W        W43553   0.432  36.090   4.802
84260W        W43554   4.249  28.518  11.976
84261W        W43555  42.437  10.272  10.561
84262W        W43556  18.142   5.799  14.382
84263W        W43557  21.564  25.134   1.888
84264W        W43558  38.529   5.362  13.464
84265W        W43559  36.513  11.335  12.555
84266W        W43560  17.801  11.803  10.158
84267W        W43561   1.403  24.557  14.287
84268W        W43562  37.846  17.587  10.581
84269W        W43563  35.995  33.064  12.476
84270W        W43564  41.877  39.973  12.912
84271W        W43565  18.073  23.611  13.518
84272W        W43566   9.662  41.508  11.022
84273W        W43567  20.759  31.565   4.236
84274W        W43568  21.200   6.884  13.875
84275W        W43569  24.169  40.823  12.865
84276W        W43570  34.975  33.021  14.774
84277W        W43571  18.279  28.055  12.971
84278W        W43572   5.314  15.657  13.508
84279W        W43573   5.859  10.355  14.447
84280W        W43574   0.464  27.562   4.628
84281W        W43575  16.652  11.313   2.676
84282W        W43576  36.584  18.140   1.746
84283W        W43577  18.199   2.771  10.509
84284W        W43578  33.539  21.023  12.885
84285W        W43579  20.202   2.420   2.877
84286W        W43580   0.429  36.933   0.309
84287W        W43581  44.406  29.136   3.853
84288W        W43582  25.708  29.942  12.934
84289W        W43583  12.714  19.186   4.219
84290W        W43584  30.444  36.908   0.373
84291W        W43585   9.310  27.954  11.096
84292W        W43586  37.464   3.401   4.668
84293W        W43587  24.220  34.448   2.382
84294W        W43588   6.793  39.000  11.437
84295W        W43589  10.240   5.931   1.727
84296W        W43590  23.003  23.601   4.139
84297W        W43591  29.078   4.361   4.721
84298W        W43592  25.557  23.510   1.851
84299W        W43593  11.714  37.459   2.378
84300W        W43594  15.268  36.453   0.929
84301W        W43595  31.082  20.610   0.421
84302W        W43596  26.524  39.989  10.131
84303W        W43597  44.812  10.763  14.345
84304W        W43598  34.050  20.735   4.137
84305W        W43599   0.370  22.708   2.315
84306W        W43600  22.599  33.486  11.898
84307W        W43601  16.146   7.735  13.897
84308W        W43602  44.322  11.208   3.211
84309W        W43603  19.566  36.371   4.611
84310W        W43604  31.492  16.289  10.907
84311W        W43605  22.145  13.130   4.740
84312W        W43606  33.902  23.682   2.195
84313W        W43607  36.920  12.749   4.178
84314W        W43608  23.503  41.948   4.322
84315W        W43609   0.926  44.401   3.822
84316W        W43610  16.310   6.889   1.898
84317W        W43611   2.387  42.920  13.927
84318W        W43612   0.258  33.398  14.312
84319W        W43613  22.121   6.258  12.848
84320W        W43614   3.951  37.066  13.366
84321W        W43615  37.391   4.860   3.200
84322W        W43616  35.047  36.588   4.741
84323W        W43617  43.955  27.944  14.322
84324W        W43618   2.432  32.049   4.147
84325W        W43619  26.503  44.428  13.002
84326W        W43620   4.737  26.574  10.056
84327W        W43621  19.753  44.455  13.876
84328W        W43622  17.570  16.703   4.804
84329W        W43623   9.168  36.875   0.422
84330W        W43624  29.508   2.819  11.409
84331W        W43625   6.721  29.163   1.378
84332W        W43626  24.152  29.433  14.892
84333W        W43627  18.690  35.551   1.336
84334W        W43628  19.629   9.732   4.627
84335W        W43629  18.269  38.459  10.927
84336W        W43630  10.237   9.287   3.214
84337W        W43631  36.574  13.710   2.239
84338W        W43632   0.757  16.306   2.243
84339W        W43633   0.341  27.132  11.017
84340W        W43634  41.991  24.042   0.924
84341W        W43635  18.763  12.755   0.814
84342W        W43636   6.709  33.028  13.435
84343W        W43637  15.178  14.666   2.416
84344W        W43638  14.749  17.190   3.717
84345W        W43639  22.058  30.451  14.933
84346W        W43640  11.319   9.796   4.822
84347W        W43641  13.182  35.478   1.315
84348W        W43642  14.174  22.536  11.431
84349W        W43643  21.650  27.490  11.986
84350W        W43644  27.690  16.136  10.493
84351W        W43645   6.425   1.426  14.852
84352W        W43646  43.496  20.631  12.448
84353W        W43647   1.474  25.664   1.779
84354W        W43648  18.756  21.085  13.471
84355W        W43649  36.582   5.310  11.940
84356W        W43650  43.989  16.155  12.523
84357W        W43651  16.750  17.592  13.426
84358W        W43652  16.179  35.543  10.626
84359W        W43653   1.320  42.463  11.915
84360W        W43654  16.797  38.373   3.262
84361W        W43655   8.696  15.803  10.015
84362W        W43656  32.472  22.164   4.793
84363W        W43657   3.236   8.863   1.703
84364W        W43658  15.248  26.062  12.074
84365W        W43659   9.708  18.715  14.288
84366W        W43660  10.309   9.373  14.278
84367W        W43661  12.180   1.313  12.034
84368W        W43662  42.370  30.908  13.538
84369W        W43663   1.255  36.897  13.422
84370W        W43664  28.439  13.805  11.883
84371W        W43665  32.393   0.328   0.921
84372W        W43666  13.743  34.489  12.407
84373W        W43667  31.102  37.944   2.889
84374W        W43668   3.868  34.447  11.970
84375W        W43669  18.692  29.462  12.375
84376W        W43670  30.054  34.540   3.636
84377W        W43671  43.326  10.197   4.314
84378W        W43672   8.348  24.203  13.881
84379W        W43673  36.353  12.239   0.273
84380W        W43674  29.969  39.015   0.469
84381W        W43675  43.907  16.130   3.666
84382W        W43676  39.557  31.091   4.641
84383W        W43677  13.321  42.448  11.607
84384W        W43678   9.803  36.013   4.165
84385W        W43679   6.220  11.291  14.471
84386W        W43680  41.427  16.154   4.326
84387W        W43681   4.844   2.352  13.910
84388W        W43682  30.581   1.920  14.399
84389W        W43683   4.796  15.185   4.825
84390W        W43684  31.899  24.587  12.874
84391W        W43685   2.948  38.900  11.033
84392W        W43686  36.980  23.034  10.637
84393W        W43687  32.929  17.208   3.767
84394W        W43688  33.128  38.378  14.348
84395W        W43689   6.386  26.568   4.809
84396W        W43690  44.489  24.607  10.110
84397W        W43691  41.359  33.062  11.038
84398W        W43692   1.925  25.139   0.337
84399W        W43693  14.285   0.868  13.446
84400W        W43694  26.621  19.183  13.031
84401W        W43695  18.208   1.316  11.510
84402W        W43696  34.074  20.641   3.150
84403W        W43697   3.715   7.245  11.918
84404W        W43698   4.310  40.321   0.333
84405W        W43699  17.634  27.013  10.641
84406W        W43700  14.788  19.174   1.728
84407W        W43701  12.172  34.444   1.830
84408W        W43702  34.910   6.419   2.364
84409W        W43703  34.066   2.881   4.278
84410W        W43704   5.309  11.248  14.442
84411W        W43705  32.021  11.705   0.286
84412W        W43706  16.622   7.338   1.411
84413W        W43707  30.483  30.001  13.359
84414W        W43708  25.525  14.640   4.143
84415W        W43709   7.215  35.515   0.812
84416W        W43710  32.490  23.184   2.791
84417W        W43711  34.594  13.843   2.331
84418W        W43712  10.854  30.018  13.841
84419W        W43713  34.474  21.033   3.156
84420W        W43714  32.602   8.374  14.825
84421W        W43715   5.779  30.568   9.981
84422W        W43716  44.468  26.541  11.085
84423W        W43717   6.368  16.720  10.911
84424W        W43718  42.977  11.359  12.040
84425W        W43719  44.975  24.502   4.736
84426W        W43720  24.492  32.122  10.619
84427W        W43721  36.024  17.253   2.809
84428W        W43722  29.463   4.226   0.404
84429W        W43723   0.982  14.719   1.790
84430W        W43724  32.935   9.328  13.813
84431W        W43725  22.195  33.438  10.981
84432W        W43726   5.303  38.518   4.162
84433W        W43727  15.776  12.813   4.154
84434W        W43728   7.191  11.761  11.375
84435W        W43729   9.828  40.864   2.676
84436W        W43730   9.816  42.499  13.049
84437W        W43731  23.654  40.933   3.188
84438W        W43732   8.171  39.042  13.794
84439W        W43733  15.306  19.177   0.262
84440W        W43734   1.959  42.318   0.828
84441W        W43735  12.302  28.486  10.961
84442W        W43736  39.023  20.127  12.468
84443W        W43737  17.792  11.364  13.959
84444W        W43738  38.914  12.301   2.830
84445W        W43739   8.347   4.841   9.501
84446W        W43740  19.090  23.548  11.516
84447W        W43741  35.460  32.087   1.227
84448W        W43742  33.016  44.944   2.188
84449W        W43743  17.657  19.184  10.946
84450W        W43744  34.418   7.832   0.889
84451W        W43745   4.430  14.176  13.360
84452W        W43746  36.979  15.658  10.506
84453W        W43747  16.181  33.385   4.825
84454W        W43748  33.051  28.624  14.826
84455W        W43749  34.986   5.767  14.327
84456W        W43750  21.605   3.291  13.933
84457W        W43751  40.315  34.459  11.570
84458W        W43752  39.516  20.256  11.983
84459W        W43753  25.969  21.697  12.928
84460W        W43754  20.254   5.694  14.362
84461W        W43755  32.942  23.676   4.220
84462W        W43756  43.970  36.911   0.883
84463W        W43757   3.887  29.936   2.310
84464W        W43758  10.755   3.897   4.764
84465W        W43759  33.043  38.474  14.807
84466W        W43760  30.416  12.635  11.512
84467W        W43761  35.085  38.982  12.400
84468W        W43762  28.119  40.443   1.794
84469W        W43763  41.915  24.678  11.865
84470W        W43764  28.560  43.502  14.018
84471W        W43765   9.205   7.736  10.495
84472W        W43766  26.010  43.487  12.882
84473W        W43767  23.591  22.116  14.319
84474W        W43768   0.889  28.076   0.326
84475W        W43769   3.412   4.846  14.801
84476W        W43770  25.156  28.486  12.993
84477W        W43771   6.190  23.508  10.981
84478W        W43772  10.279  18.559  14.794
84479W        W43773  13.315   3.736  12.903
84480W        W43774   3.392   0.898   2.238
84481W        W43775  40.937  22.728  13.005
84482W        W43776  43.405  25.158  11.019
84483W        W43777  25.169   8.827  13.461
84484W        W43778   6.826  16.632   3.646
84485W        W43779  22.580  16.619   4.246
84486W        W43780  23.109  36.494   2.399
84487W        W43781   8.364  23.524  12.509
84488W        W43782  43.787  17.226  12.872
84489W        W43783   1.331  41.390   0.389
84490W        W43784   6.906  27.544  14.873
84491W        W43785   8.394  25.695   0.735
84492W        W43786  42.921  24.490  13.957
84493W        W43787  40.484   6.412   3.185
84494W        W43788  39.476  41.372   3.731
84495W        W43789  10.323  37.029   9.928
84496W        W43790  16.240  38.441  10.501
84497W        W43791  24.586  30.621   3.631
84498W        W43792  35.005  42.786   0.387
84499W        W43793  34.072  10.661  13.826
84500W        W43794  36.455  30.105  12.014
84501W        W43795  39.554  39.491   1.813
84502W        W43796  30.521  37.887  12.092
84503W        W43797  38.075  15.734   1.788
84504W        W43798   1.442   5.357  13.502
84505W        W43799  16.077   1.391   1.887
84506W        W43800   4.923  20.648  12.945
84507W        W43801  35.922  20.529  12.864
84508W        W43802  14.702  10.149   4.648
84509W        W43803  18.699  28.678   0.454
84510W        W43804  18.120  43.307  10.604
84511W        W43805  26.034   4.385  14.282
84512W        W43806  12.118   3.855  13.407
84513W        W43807  26.687  23.118  10.625
84514W        W43808  14.139  13.216   0.960
84515W        W43809  24.099  37.386  14.321
84516W        W43810   3.834  10.278  11.110
84517W        W43811   2.274  15.820  10.951
84518W        W43812  26.643  43.286  11.898
84519W        W43813  20.133  29.128   4.179
84520W        W43814   9.269  28.645  11.861
84521W        W43815  40.824  14.326   0.440
84522W        W43816  32.567  41.845  14.397
84523W        W43817  14.803  15.811   2.341
84524W        W43818   4.208  19.121  12.911
84525W        W43819  41.349  33.898  10.003
84526W        W43820  42.403  18.180   1.444
84527W        W43821  12.137  31.421   4.220
84528W        W43822  42.794   4.321  14.865
84529W        W43823  40.808  15.182   0.808
84530W        W43824  29.101  43.363  14.338
84531W        W43825   0.947   9.290  14.968
84532W        W43826   0.899  22.617  10.100
84533W        W43827  36.474  13.165   0.472
84534W        W43828  19.209  44.453   3.636
84535W        W43829  31.092  16.303  10.543
84536W        W43830  34.454  25.626   2.737
84537W        W43831  40.952  23.058  10.415
84538W        W43832  22.616  10.671  13.435
84539W        W43833   3.402   3.831   1.450
84540W        W43834  35.383  39.980   2.311
84541W        W43835  41.922   3.448   9.941
84542W        W43836  38.362   1.364  12.056
84543W        W43837  13.787  36.419  14.976
84544W        W43838  44.830  26.163  13.793
84545W        W43839  25.506   5.752  13.439
84546W        W43840  27.551  11.334  12.831
84547W        W43841   3.313   3.762  13.444
84548W        W43842  11.624  42.029   2.395
84549W        W43843  20.105  11.245   3.296
84550W        W43844  42.875  21.211  12.024
84551W        W43845   0.988   0.782   1.245
84552W        W43846  37.065  29.970   4.598
84553W        W43847  37.336  29.557   0.388
84554W        W43848  35.408  33.427   4.665
84555W        W43849  37.922  42.285  13.341
84556W        W43850   8.715  18.249  12.397
84557W        W43851  30.063  15.259   3.781
84558W        W43852  44.004  33.613   2.793
84559W        W43853  39.920   1.874   3.634
84560W        W43854  44.870  22.662   2.275
84561W        W43855  43.364  19.695   3.348
84562W        W43856  30.539  31.410  11.558
84563W        W43857  31.518  16.260  13.012
84564W        W43858   8.816  18.706   4.304
84565W        W43859  26.958  32.454   2.243
84566W        W43860  26.700  14.205   0.967
84567W        W43861  29.150  33.917  12.481
84568W        W43862  12.125  20.068   3.159
84569W        W43863  42.436  16.789   3.737
84570W        W43864  40.366  27.686   4.628
84571W        W43865  24.668  43.280  14.306
84572W        W43866  30.927  40.883   0.866
84573W        W43867   8.322  39.988  13.894
84574W        W43868  17.172  28.966   2.854
84575W        W43869  38.481   6.834   2.359
84576W        W43870   1.807  33.435  13.986
84577W        W43871  10.288   6.332   5.291
84578W        W43872  33.936  16.154   4.238
84579W        W43873  37.548  20.731  11.603
84580W        W43874  36.985  24.142  11.437
84581W        W43875   7.853  12.830   0.875
84582W        W43876  11.369   1.846  13.437
84583W        W43877  30.421  23.217  14.361
84584W        W43878  31.038   1.802   0.407
84585W        W43879  27.677  29.599   4.600
84586W        W43880   6.355  38.373  12.859
84587W        W43881  18.054  31.065   4.226
84588W        W43882  19.196  21.641   1.313
84589W        W43883  11.722   8.253  12.984
84590W        W43884  30.417   4.928  13.513
84591W        W43885  39.491   3.319   3.377
84592W        W43886  14.746  29.137  13.998
84593W        W43887   3.775  38.037  13.891
84594W        W43888  32.543  30.988   0.324
84595W        W43889  39.398   3.741  14.284
84596W        W43890  41.786   2.938  13.404
84597W        W43891  17.134  28.611   4.634
84598W        W43892  40.311  43.772  11.606
84599W        W43893   0.451  13.316  14.431
84600W        W43894  23.102  16.659   4.613
84601W        W43895   2.228  23.635   1.344
84602W        W43896  35.081  38.996  11.103
84603W        W43897  20.246  10.172   5.132
84604W        W43898   2.317   9.668   2.348
84605W        W43899  19.161   1.480  13.479
84606W        W43900  31.590  33.390  11.490
84607W        W43901  42.378   3.754  13.894
84608W        W43902  23.660  25.654  14.889
84609W        W43903  33.934  21.729   0.264
84610W        W43904   2.308   7.691   2.823
84611W        W43905  32.559  27.186  11.372
84612W        W43906  38.052  29.524  11.897
84613W        W43907  38.889  19.616  10.989
84614W        W43908  35.951   1.396   0.414
84615W        W43909   7.247  31.603  12.453
84616W        W43910   4.244  11.268  12.374
84617W        W43911  38.350  27.552  13.877
84618W        W43912  30.050  10.724  13.871
84619W        W43913  29.586  19.758   0.917
84620W        W43914  12.814  13.228  14.281
84621W        W43915   0.444  34.089   1.925
84622W        W43916  21.708  30.649  11.085
84623W        W43917  24.549  20.561  12.906
84624W        W43918   4.428  11.764  10.508
84625W        W43919  37.081  37.462  12.547
84626W        W43920  38.468   4.773   2.194
84627W        W43921  43.883  24.166   3.350
84628W        W43922   3.224  23.629  13.432
84629W        W43923  44.852  37.901   3.260
84630W        W43924  11.288  11.197  12.077
84631W        W43925  14.151  17.171   0.392
84632W        W43926  21.225   0.346  13.536
84633W        W43927  19.105   8.220   4.624
84634W        W43928  14.257  11.297  14.949
84635W        W43929  13.252  22.629   1.260
84636W        W43930   4.724  17.796   1.421
84637W        W43931  37.557  21.636  11.371
84638W        W43932  43.443  19.277   3.662
84639W        W43933  25.133   7.679   2.280
84640W        W43934  19.057  19.778  12.426
84641W        W43935   8.210   1.378  14.031
84642W        W43936  35.534   4.892  10.466
84643W        W43937  14.123  24.094  10.563
84644W        W43938  44.989  30.129   0.811
84645W        W43939  15.791  41.995  12.389
84646W        W43940  35.901  18.655  11.104
84647W        W43941  11.833  28.008   1.255
84648W        W43942  18.079  44.433  11.013
84649W        W43943   3.323  35.060   2.682
84650W        W43944  33.019   4.900  12.076
84651W        W43945  42.371  44.381  11.457
84652W        W43946  29.524   2.314   0.243
84653W        W43947  32.960   9.890  14.955
84654W        W43948  43.317  14.154  11.490
84655W        W43949  36.909  39.935  13.442
84656W        W43950  30.990   9.269  14.819
84657W        W43951  36.389  24.543  14.936
84658W        W43952  29.562   4.939   4.177
84659W        W43953  20.222   0.486   4.238
84660W        W43954  21.102   1.282  11.432
84661W        W43955  23.025  38.471   2.319
84662W        W43956   6.911  30.930  10.912
84663W        W43957   3.891  37.479   1.780
84664W        W43958  29.998  42.293  11.590
84665W        W43959  30.612  33.915   2.787
84666W        W43960  15.177  19.554  10.937
84667W        W43961  28.496  20.052   3.367
84668W        W43962  29.962   1.346   0.835
84669W        W43963  35.999  34.395  13.800
84670W        W43964  30.916  18.189   0.358
84671W        W43965  39.845  34.046  14.030
84672W        W43966  29.125  44.451  14.770
84673W        W43967  24.673  14.788  11.068
84674W        W43968  21.541  29.163   1.323
84675W        W43969  11.208   4.289   4.672
84676W        W43970   0.757  33.390   1.241
84677W        W43971  27.676  19.187   3.803
84678W        W43972  19.634   1.316  10.429
84679W        W43973  23.654  36.389  10.623
84680W        W43974   8.291  39.498  13.506
84681W        W43975  13.343   2.364   3.226
84682W        W43976  38.552  41.470  13.369
84683W        W43977  43.909  20.233  14.478
84684W        W43978  10.734  25.114  11.029
84685W        W43979  40.965  35.489   4.623
84686W        W43980  12.712  17.287  12.961
84687W        W43981  40.967   3.301   9.516
84688W        W43982  11.821   9.284   4.821
84689W        W43983  39.902  29.531  11.116
84690W        W43984   2.350   4.774  14.411
84691W        W43985  16.663  34.040  10.944
84692W        W43986  36.956  16.578   3.849
84693W        W43987  14.146  37.908  13.508
84694W        W43988  42.780  25.086   3.375
84695W        W43989  25.090  11.627  13.458
84696W        W43990  36.463  35.973  11.549
84697W        W43991   5.250  44.482   1.818
84698W        W43992  21.197  33.400  10.560
84699W        W43993   1.922   2.463  12.442
84700W        W43994   3.223  21.637   2.720
84701W        W43995  17.122  36.892   1.723
84702W        W43996  44.493  21.036   2.786
84703W        W43997  15.796  33.914  12.088
84704W        W43998  20.702  39.378  12.877
84705W        W43999  39.941  29.919   4.317
84706W        W44000  43.992   5.887  12.880
84707W        W44001  16.587   4.877  10.541
84708W        W44002   7.193  30.934   3.305
84709W        W44003  35.576  19.626  11.053
84710W        W44004  33.575  15.121   4.313
84711W        W44005  36.375  36.017  13.889
84712W        W44006   5.933  22.513  14.007
84713W        W44007  19.638   2.250  14.336
84714W        W44008  24.111  18.687   2.822
84715W        W44009  44.848  23.566   1.428
84716W        W44010  25.045  39.396   1.759
84717W        W44011  34.934   1.966   4.731
84718W        W44012  38.867  39.835   2.717
84719W        W44013   1.316  39.935   4.831
84720W        W44014   6.687  10.868   4.138
84721W        W44015  31.961   1.468  10.558
84722W        W44016  12.629  35.098   4.829
84723W        W44017  14.591  33.102   4.802
84724W        W44018   0.371  37.353  10.584
84725W        W44019   1.923  16.158  12.383
84726W        W44020   5.771  34.472  13.052
84727W        W44021  10.337   2.423   4.182
84728W        W44022   5.738  28.057   3.847
84729W        W44023  31.930  19.652   3.747
84730W        W44024  34.383  23.984  13.438
84731W        W44025   1.363  41.299   2.362
84732W        W44026  19.068  35.375   4.185
84733W        W44027  43.929  29.011   3.835
84734W        W44028  20.192  20.134  14.927
84735W        W44029  36.584   4.263   1.373
84736W        W44030  38.354  28.567  13.510
84737W        W44031  18.188  40.048  14.496
84738W        W44032  23.513  26.061  12.554
84739W        W44033  22.529  14.279  11.576
84740W        W44034  37.965  29.626   0.809
84741W        W44035  42.313  28.085   2.272
84742W        W44036  38.420  16.075   3.335
84743W        W44037  19.162  14.671   4.611
84744W        W44038   0.888  14.762   0.818
84745W        W44039  28.178   6.210  11.405
84746W        W44040   6.908  40.360   2.307
84747W        W44041  35.959  43.775   4.302
84748W        W44042  40.489   3.776  11.894
84749W        W44043  28.441  16.786  11.592
84750W        W44044  41.997  23.697  11.469
84751W        W44045  24.010  15.275  10.440
84752W        W44046  25.486   2.462   0.265
84753W        W44047  33.379  43.018   3.303
84754W        W44048  13.824  18.055   2.799
84755W        W44049   9.375  16.087   0.770
84756W        W44050   1.882  34.943  13.461
84757W        W44051  12.820  15.746   4.172
84758W        W44052  10.690  16.092   4.638
84759W        W44053  24.483  15.090   0.429
84760W        W44054  41.859  31.003  10.948
84761W        W44055  26.179   9.699   4.271
84762W        W44056  17.618  36.911   1.748
84763W        W44057  31.459  25.066  11.563
84764W        W44058  33.478  30.425  10.644
84765W        W44059  29.152  44.969   0.358
84766W        W44060  35.017  40.861   3.322
84767W        W44061   7.766   6.874  12.062
84768W        W44062  27.145  43.281  14.430
84769W        W44063  41.380  16.163   3.851
84770W        W44064  10.330   7.730  12.339
84771W        W44065  39.529  16.260  10.494
84772W        W44066  15.155   0.409   1.345
84773W        W44067  42.872  34.889  14.454
84774W        W44068   7.711  15.149   3.361
84775W        W44069  28.677  17.685   0.886
84776W        W44070  43.972  18.717  11.467
84777W        W44071  28.126   1.404  13.851
84778W        W44072  35.997  15.301   4.141
84779W        W44073  16.704   2.336  14.420
84780W        W44074   2.358  35.994   4.301
84781W        W44075  43.434  44.358   5.231
84782W        W44076   5.404   4.282   3.661
84783W        W44077  43.316  18.289   0.898
84784W        W44078  29.175  33.608  14.408
84785W        W44079  36.086  14.792   0.373
84786W        W44080   8.171  36.356  14.455
84787W        W44081  39.388   2.873  10.912
84788W        W44082  11.192  12.204  13.478
84789W        W44083  25.122  29.098  11.120
84790W        W44084  30.429  17.252   0.780
84791W        W44085  29.927   1.349  13.944
84792W        W44086  32.417  22.056  14.801
84793W        W44087  31.911  44.329  11.610
84794W        W44088  11.668  17.107  14.905
84795W        W44089  14.104   3.332  11.017
84796W        W44090  10.797   0.798  12.435
84797W        W44091  22.076   2.264  13.519
84798W        W44092   5.818   2.457   2.845
84799W        W44093  22.080  33.973   0.923
84800W        W44094  14.823  33.109  13.024
84801W        W44095  23.197   2.755  11.045
84802W        W44096  17.169  26.547  13.325
84803W        W44097  39.446  33.899   4.605
84804W        W44098  12.255  14.640   4.200
84805W        W44099  34.864  44.873  11.053
84806W        W44100  43.937  41.984  13.794
84807W        W44101  32.019  40.376   3.846
84808W        W44102  31.018  29.975  11.485
84809W        W44103  35.485  42.879   5.185
84810W        W44104  24.704  12.119  13.878
84811W        W44105  12.334  31.030  14.918
84812W        W44106  23.570  31.982  13.547
84813W        W44107  40.917  31.073   0.921
84814W        W44108  16.780  32.395  13.874
84815W        W44109  26.694  28.044   2.713
84816W        W44110  30.476  20.767  13.496
84817W        W44111  34.369   0.279   4.713
84818W        W44112  14.187  37.345  11.083
84819W        W44113  42.790   8.372  11.594
84820W        W44114  22.075  12.132   4.665
84821W        W44115  19.244  33.502   0.291
84822W        W44116  17.706  26.192  12.052
84823W        W44117  13.625  19.743   1.438
84824W        W44118   6.895  29.154  13.871
84825W        W44119  41.843  34.557   3.327
84826W        W44120  21.622  43.978  12.990
84827W        W44121  41.476  27.164   2.251
84828W        W44122  40.843  23.496   2.785
84829W        W44123  27.940  27.661   0.417
84830W        W44124  29.609  24.197  12.911
84831W        W44125   4.814  26.039  12.912
84832W        W44126  31.493   6.899   0.434
84833W        W44127  15.664  28.523  12.925
84834W        W44128  38.347  17.162   2.212
84835W        W44129  16.649  27.579   0.867
84836W        W44130  10.760  28.640   3.657
84837W        W44131  30.080  26.158  12.085
84838W        W44132   2.238  14.285  11.439
84839W        W44133  13.708  40.983   0.439
84840W        W44134  13.125  23.505  12.447
84841W        W44135  33.535  30.540  10.035
84842W        W44136  43.822  18.561   3.762
84843W        W44137  44.418  16.794   2.806
84844W        W44138  23.732   6.838  14.001
84845W        W44139  32.509   2.844  14.311
84846W        W44140   5.216  10.305  11.567
84847W        W44141  30.008  43.394  13.936
84848W        W44142  25.998  11.251   0.317
84849W        W44143  22.083  21.724  12.350
84850W        W44144  31.975  36.485   2.314
84851W        W44145   7.245  24.037   2.216
84852W        W44146   2.331  23.240  14.381
84853W        W44147  19.100  44.489  12.925
84854W        W44148   5.824  40.413   4.160
84855W        W44149  24.660  35.002  13.852
84856W        W44150  11.638   9.781  13.409
84857W        W44151   0.772  38.333  12.862
84858W        W44152  20.206  11.168  13.324
84859W        W44153   6.372  12.673   4.217
84860W        W44154  10.203  27.673   0.245
84861W        W44155  38.351  21.127   4.278
84862W        W44156  11.363  25.135   2.719
84863W        W44157  23.075  28.639   3.250
84864W        W44158  17.167  12.285  13.394
84865W        W44159  28.588  23.699   3.249
84866W        W44160  43.296   4.738  10.952
84867W        W44161  39.395   1.951   4.641
84868W        W44162  24.151  19.133  14.943
84869W        W44163  25.474  11.216   1.745
84870W        W44164  18.768  36.014   2.779
84871W        W44165  38.398   0.336   1.403
84872W        W44166  12.262  23.557  12.462
84873W        W44167  36.098  14.114   1.284
84874W        W44168   1.731  35.575   3.165
84875W        W44169  22.052  11.262   1.720
84876W        W44170   3.353  25.596  11.501
84877W        W44171   6.766  44.465   9.617
84878W        W44172  37.994  26.583  11.912
84879W        W44173  16.194  26.667   0.772
84880W        W44174  19.760  22.602   2.692
84881W        W44175  15.103  40.472  14.786
84882W        W44176   6.729  28.630  13.824
84883W        W44177  19.121  35.017  13.484
84884W        W44178   2.925  17.111  10.404
84885W        W44179  12.165   5.438   2.681
84886W        W44180  36.933  38.552  11.032
84887W        W44181  19.630  44.285   1.745
84888W        W44182  19.693  28.175  13.539
84889W        W44183  17.674  15.632   4.807
84890W        W44184   6.782  13.197   2.183
84891W        W44185  22.642  29.471   2.761
84892W        W44186  26.081  31.139  13.458
84893W        W44187  32.081  10.345  12.005
84894W        W44188  23.990  16.221  12.831
84895W        W44189   5.379   9.794   1.312
84896W        W44190  13.835  20.547  12.864
84897W        W44191   0.798  13.248  14.400
84898W        W44192  37.855  20.272  12.882
84899W        W44193  40.541  18.150   2.798
84900W        W44194   7.357   8.229   1.264
84901W        W44195   9.673   2.395   0.382
84902W        W44196  19.579  24.004   3.198
84903W        W44197   9.315  32.089   0.470
84904W        W44198  43.347   9.297  13.004
84905W        W44199  21.253  24.210  10.502
84906W        W44200  21.138  29.479   5.223
84907W        W44201  44.771   9.269  10.487
84908W        W44202   8.857  22.094  12.339
84909W        W44203  32.564  39.447   2.331
84910W        W44204  34.371  41.825   3.274
84911W        W44205  41.833  32.551   3.711
84912W        W44206   3.268  15.778  10.570
84913W        W44207  14.098  22.645  13.795
84914W        W44208  34.022  12.266   3.210
84915W        W44209  32.403   2.744  13.459
84916W        W44210  11.780  10.870  14.851
84917W        W44211   2.250  29.129   3.302
84918W        W44212  28.473  12.287   3.653
84919W        W44213   0.295   4.360   2.858
84920W        W44214  34.099  43.374   1.405
84921W        W44215   0.360  27.599   0.757
84922W        W44216  31.485  15.691  12.854
84923W        W44217  39.495   5.893  14.456
84924W        W44218  31.635   6.775  12.936
84925W        W44219  35.950  11.830   2.212
84926W        W44220   3.805  31.007  14.320
84927W        W44221  29.041  44.998  11.461
84928W        W44222  11.334  19.144   3.192
84929W        W44223   5.404  22.533   3.374
84930W        W44224  27.109  38.329   3.199
84931W        W44225   6.194  37.481  14.309
84932W        W44226   4.761  12.766  12.857
84933W        W44227  43.322  12.817   0.320
84934W        W44228  35.475  17.160   2.844
84935W        W44229  25.991  37.906  13.377
84936W        W44230  13.821   7.799   2.753
84937W        W44231   0.939  40.868  14.832
84938W        W44232  18.664  44.309  14.933
84939W        W44233  38.037  19.244  12.571
84940W        W44234  15.797  21.178   0.248
84941W        W44235  19.706  15.619  12.993
84942W        W44236  35.502  29.162  11.397
84943W        W44237  29.444  26.101   2.222
84944W        W44238  41.032  21.233   2.251
84945W        W44239   7.243   9.647  11.446
84946W        W44240  17.609  43.816   0.783
84947W        W44241  19.113   2.855  12.432
84948W        W44242  25.497  31.429  11.050
84949W        W44243  24.213  40.348  14.463
84950W        W44244  22.067  28.561  12.464
84951W        W44245   1.396  17.750   0.764
84952W        W44246   4.237  10.719   4.781
84953W        W44247  44.968   3.409  13.811
84954W        W44248  36.393  24.486  13.437
84955W        W44249  28.098  41.407  12.840
84956W        W44250  29.451  17.714   2.185
84957W        W44251   4.702   2.320  11.081
84958W        W44252  22.738  22.244  11.374
84959W        W44253  35.065  16.810   2.770
84960W        W44254  14.682  24.514   0.309
84961W        W44255  24.512  23.007  14.373
84962W        W44256   2.448   5.362  14.345
84963W        W44257  15.266  23.168   3.721
84964W        W44258  13.226  22.014  13.825
84965W        W44259  39.839  19.262   1.741
84966W        W44260  42.374  23.124   4.284
84967W        W44261  29.093  27.985  11.048
84968W        W44262  38.570   2.447  12.464
84969W        W44263   7.754   3.786   1.900
84970W        W44264   5.896   7.784   4.349
84971W        W44265  31.483  19.201   1.926
84972W        W44266  21.589  41.953  12.958
84973W        W44267  43.394  26.570   4.812
84974W        W44268  44.870  37.437   0.952
84975W        W44269  34.575  39.351  13.818
84976W        W44270  30.083  38.872  11.952
84977W        W44271   5.270  31.086  10.473
84978W        W44272  31.510  22.725   0.815
84979W        W44273  42.358  34.477   0.299
84980W        W44274  40.999  34.413   1.914
84981W        W44275  37.510  19.670  14.323
84982W        W44276  16.101  16.745   2.254
84983W        W44277  30.038   2.311  13.053
84984W        W44278   5.870  44.010   3.363
84985W        W44279  21.749  39.444   4.253
84986W        W44280  14.199  36.068   1.879
84987W        W44281  32.511   2.286  13.387
84988W        W44282  14.650  13.213   2.742
84989W        W44283   2.842  27.575   0.295
84990W        W44284  30.471   8.171   0.963
84991W        W44285   4.776  13.236  10.572
84992W        W44286  43.280  36.097   4.153
84993W        W44287  19.141  11.237   1.340
84994W        W44288  16.803  15.670  12.989
84995W        W44289   4.942   5.216   2.782
84996W        W44290   8.838  17.600  13.900
84997W        W44291  25.554   6.684   0.443
84998W        W44292  16.729   9.875  12.540
84999W        W44293  40.874  24.571   0.818
85000W        W44294  21.514  35.921  12.876
85001W        W44295  44.452   7.287  12.871
85002W        W44296  42.902  42.957   0.938
85003W        W44297  42.337  11.647  14.849
85004W        W44298   4.738  24.515   4.219
85005W        W44299   8.810  37.981   1.420
85006W        W44300  30.075   6.786   2.754
85007W        W44301  13.344   1.831   4.675
85008W        W44302  14.146  25.524   3.817
85009W        W44303   0.279  28.665   3.303
85010W        W44304  22.020  25.539  13.515
85011W        W44305  25.685   2.897  12.066
85012W        W44306  30.544  21.702  14.322
85013W        W44307  38.042  37.522   3.255
85014W        W44308  35.448   1.464   2.339
85015W        W44309  17.773  18.561   1.772
85016W        W44310  17.171  26.138   4.153
85017W        W44311  10.702  31.539  11.034
85018W        W44312  35.563  33.096  13.991
85019W        W44313  14.197  14.749   0.726
85020W        W44314   1.252  22.117   1.366
85021W        W44315  39.531   0.348  12.044
85022W        W44316  11.722  16.586   3.170
85023W        W44317   2.846  33.537   1.324
85024W        W44318  34.525  32.576  14.851
85025W        W44319  12.849  16.582  13.502
85026W        W44320  15.702  17.251  12.908
85027W        W44321   4.234  42.956   0.294
85028W        W44322  22.725  43.826   0.467
85029W        W44323  22.619  15.586  13.433
85030W        W44324  23.624   2.963   0.764
85031W        W44325  36.094  33.448  14.959
85032W        W44326  19.696  18.691  11.527
85033W        W44327  36.030  10.831  10.908
85034W        W44328  34.064  16.589   2.815
85035W        W44329  32.630  35.044  12.500
85036W        W44330   4.783   5.853  11.435
85037W        W44331  35.003   7.368  10.915
85038W        W44332  30.023  21.214   4.795
85039W        W44333  13.255   6.836   0.465
85040W        W44334  41.332   9.825   0.397
85041W        W44335   5.854  30.102  10.408
85042W        W44336  19.241  34.946  11.857
85043W        W44337  37.450  14.720   0.276
85044W        W44338  15.654  13.158  12.026
85045W        W44339  21.053   0.320   0.789
85046W        W44340  34.397  34.566  11.414
85047W        W44341   2.411   5.389   2.323
85048W        W44342  36.959  17.205   4.687
85049W        W44343  20.530  27.037   0.360
85050W        W44344  40.958  20.182   1.741
85051W        W44345  32.461  19.196   2.678
85052W        W44346   5.340   2.778   2.224
85053W        W44347   1.330  42.016   0.458
85054W        W44348  16.732  24.608  10.004
85055W        W44349  13.796   3.713   2.673
85056W        W44350  16.302   9.222   2.407
85057W        W44351  44.396  38.402  13.388
85058W        W44352   4.723   8.302  14.279
85059W        W44353  41.427  16.694  12.061
85060W        W44354  40.875  38.828   1.349
85061W        W44355  16.236  31.101  12.005
85062W        W44356  20.696  31.974   0.853
85063W        W44357   8.282   6.801  10.948
85064W        W44358  27.489  37.986   3.675
85065W        W44359  30.137  25.527   2.732
85066W        W44360  30.063   9.712   1.822
85067W        W44361   2.840  14.702   3.772
85068W        W44362  35.060  23.679   0.853
85069W        W44363   2.955  35.098   1.738
85070W        W44364  17.138   3.308  13.413
85071W        W44365  33.915   4.314   3.379
85072W        W44366  30.959  36.404   0.395
85073W        W44367  12.265  33.015   0.315
85074W        W44368  33.930  30.418  14.427
85075W        W44369  16.587  37.414   1.291
85076W        W44370  29.052  37.880   1.758
85077W        W44371   8.200   5.269   2.665
85078W        W44372  42.820  19.243   2.376
85079W        W44373   7.379  28.627   4.698
85080W        W44374  26.121   4.767   4.671
85081W        W44375  27.634  17.154  13.442
85082W        W44376  10.286  15.584  11.943
85083W        W44377  31.512   0.281   1.362
85084W        W44378   1.247  33.954   0.831
85085W        W44379  23.589  17.680  12.904
85086W        W44380  28.951  30.993  12.494
85087W        W44381  37.921  32.960  11.931
85088W        W44382   0.280  40.387   1.424
85089W        W44383  40.843  17.151   2.252
85090W        W44384  26.006   5.337  11.525
85091W        W44385  20.040  30.430   1.434
85092W        W44386  16.769   4.397   4.648
85093W        W44387   4.782  29.112  13.014
85094W        W44388  39.011  31.569   2.667
85095W        W44389  10.204  30.064   2.890
85096W        W44390  39.544  18.256   3.171
85097W        W44391   8.665  23.077   1.731
85098W        W44392  21.098  11.845  14.404
85099W        W44393  32.109  41.025  12.843
85100W        W44394  32.025   0.957  12.432
85101W        W44395  31.145  12.211   0.780
85102W        W44396  16.231  29.450  12.571
85103W        W44397  15.284  24.120  11.410
85104W        W44398  43.284  42.955   4.662
85105W        W44399  39.482   6.714   0.899
85106W        W44400   0.818  41.515  12.914
85107W        W44401  14.226   8.404   3.685
85108W        W44402   3.284   6.776   0.861
85109W        W44403  37.856   0.313  11.883
85110W        W44404  42.312   9.826   1.888
85111W        W44405  38.954   7.878  10.895
85112W        W44406   8.893  27.572   4.824
85113W        W44407  23.116   0.435  13.015
85114W        W44408  40.814  22.169   0.404
85115W        W44409  11.306  26.951  11.578
85116W        W44410   9.278  25.149  14.415
85117W        W44411  32.902  23.518  14.452
85118W        W44412  32.418  15.183   2.804
85119W        W44413   4.747  32.537  11.556
85120W        W44414   0.823  41.919  11.606
85121W        W44415  34.567  32.096  10.514
85122W        W44416  24.709  20.599   3.210
85123W        W44417  15.112  40.306  12.405
85124W        W44418  27.654  33.039  12.440
85125W        W44419  23.089  21.176   0.266
85126W        W44420  23.567  12.777  14.780
85127W        W44421  16.685  19.195  10.900
85128W        W44422  10.642  41.911  10.981
85129W        W44423  13.296   8.268  12.568
85130W        W44424  32.142  39.493  12.956
85131W        W44425   6.709  18.730   2.196
85132W        W44426   7.777  35.907   4.647
85133W        W44427  17.290  23.044  11.600
85134W        W44428  29.436   3.249  12.517
85135W        W44429  44.338  36.844   3.191
85136W        W44430  37.976   6.244  11.089
85137W        W44431  16.636   6.238  11.442
85138W        W44432  19.683   9.780   0.793
85139W        W44433   2.810  17.234  12.423
85140W        W44434   6.397  39.899   4.634
85141W        W44435  24.990  19.086   4.232
85142W        W44436  32.896   0.358  12.502
85143W        W44437  17.119  27.675   4.252
85144W        W44438  25.182  37.041   3.869
85145W        W44439  21.757  34.100   4.717
85146W        W44440  28.115  24.216   4.138
85147W        W44441  29.946  31.960  12.047
85148W        W44442   7.752  23.159   1.238
85149W        W44443  42.410  29.666   4.792
85150W        W44444   1.866  26.095   1.756
85151W        W44445  22.615  28.035   9.962
85152W        W44446  26.978  18.585  11.873
85153W        W44447   1.325  41.500  14.485
85154W        W44448  13.738   8.233  14.760
85155W        W44449  20.559  42.454  12.565
85156W        W44450  10.196   6.211  13.961
85157W        W44451  44.920  23.657  13.417
85158W        W44452  11.256  21.642   1.277
85159W        W44453  30.040  42.986   5.613
85160W        W44454  22.224  42.950  14.014
85161W        W44455  41.405   4.813  14.778
85162W        W44456  25.968  27.663  11.385
85163W        W44457  36.936   3.299  14.473
85164W        W44458  28.636  34.981   1.316
85165W        W44459  39.332  37.831  12.903
85166W        W44460  43.292  17.079  13.461
85167W        W44461  25.005   1.450  10.566
85168W        W44462  40.033  28.177   2.781
85169W        W44463  28.044  38.819  14.823
85170W        W44464   1.748  25.052  14.351
85171W        W44465   2.322  34.403   1.214
85172W        W44466  28.960   4.928   1.287
85173W        W44467  26.960  19.246   2.262
85174W        W44468   1.895   5.836   1.281
85175W        W44469  38.876  20.170   1.924
85176W        W44470  44.764  37.849  13.863
85177W        W44471  23.048  35.436  14.853
85178W        W44472  20.564   6.240  11.561
85179W        W44473   7.742   0.345   3.315
85180W        W44474  37.480  37.466  10.492
85181W        W44475  23.599   2.860   2.389
85182W        W44476  33.454  22.654  12.844
85183W        W44477  43.305  22.696  11.973
85184W        W44478   1.291  28.553  12.430
85185W        W44479  15.245  14.332   4.711
85186W        W44480  41.387   5.803   4.329
85187W        W44481  30.138  14.200  12.351
85188W        W44482  27.519  35.361   4.762
85189W        W44483  26.466   4.399   2.727
85190W        W44484  26.959   3.251   1.776
85191W        W44485  27.465  17.634  10.477
85192W        W44486  30.431   3.835   1.408
85193W        W44487  21.025   1.239   4.213
85194W        W44488   8.198  24.003   4.836
85195W        W44489  41.941  24.161  11.374
85196W        W44490  36.904  28.182  11.423
85197W        W44491  18.210  27.172  11.890
85198W        W44492  12.662  31.063  14.447
85199W        W44493  31.940  17.800   1.224
85200W        W44494   0.945  28.510   3.842
85201W        W44495  21.724  35.469  10.413
85202W        W44496   2.285  37.856  13.989
85203W        W44497  35.551   7.723  10.981
85204W        W44498  28.466  30.488   1.783
85205W        W44499  35.443   2.297   3.153
85206W        W44500  32.900   0.445   1.744
85207W        W44501  11.764  27.066  12.938
85208W        W44502  20.198  32.424  10.486
85209W        W44503  36.404  13.836   1.211
85210W        W44504  14.274  35.572   2.349
85211W        W44505  44.860   4.842   3.691
85212W        W44506   5.754   1.761  12.427
85213W        W44507  21.104  31.993   4.184
85214W        W44508  32.920  30.141  12.093
85215W        W44509   3.407  32.118  12.511
85216W        W44510  12.227  12.290   0.798
85217W        W44511  43.273  34.959   4.333
85218W        W44512  38.425  24.586   3.318
85219W        W44513   8.882   7.749   2.810
85220W        W44514  31.024  43.885   0.468
85221W        W44515  14.138  19.080   3.349
85222W        W44516  25.164  20.635   0.741
85223W        W44517  15.156  24.212  12.408
85224W        W44518   6.202  37.976   3.813
85225W        W44519   9.834  30.024   4.748
85226W        W44520   1.765   3.801   2.283
85227W        W44521  32.887  35.489  13.515
85228W        W44522   8.395   1.845  12.549
85229W        W44523  26.524  40.922   2.895
85230W        W44524   9.876  11.366   2.219
85231W        W44525  27.105  24.988  11.552
85232W        W44526   9.228  25.628   0.308
85233W        W44527  39.415  34.041   5.282
85234W        W44528  39.032   4.255   4.715
85235W        W44529  29.030  35.938   4.762
85236W        W44530  30.137  40.315   1.350
85237W        W44531  25.538  37.039  11.984
85238W        W44532  33.566  29.943  14.288
85239W        W44533  30.124  18.077  11.471
85240W        W44534  42.492  43.415   1.378
85241W        W44535  40.912  33.582   1.372
85242W        W44536  20.715  32.392  13.421
85243W        W44537   7.240   2.926   4.345
85244W        W44538  18.562  44.290   0.458
85245W        W44539   7.738  33.985   1.874
85246W        W44540   8.710  39.848   1.740
85247W        W44541   5.878  19.284   1.270
85248W        W44542  28.944  12.355  12.358
85249W        W44543  36.468   3.737  11.016
85250W        W44544  31.998   6.813   4.276
85251W        W44545  22.608  41.972  12.880
85252W        W44546  22.127  26.043  10.448
85253W        W44547  27.602   0.254   1.397
85254W        W44548  23.990   1.928   1.310
85255W        W44549  38.542  19.070  12.400
85256W        W44550  34.412  13.610   3.636
85257W        W44551  11.680  43.967   9.956
85258W        W44552  44.974  22.174   0.246
85259W        W44553  14.141  29.055  13.009
85260W        W44554  25.163  10.638   4.334
85261W        W44555  30.052  37.031  11.488
85262W        W44556  19.682  21.735  13.315
85263W        W44557  41.898  12.152   2.792
85264W        W44558  36.377   1.832   4.213
85265W        W44559   1.394  27.959   4.734
85266W        W44560  32.394  24.023  11.596
85267W        W44561  41.837   0.794   2.851
85268W        W44562   7.737  40.449  11.501
85269W        W44563  23.624  27.971  13.380
85270W        W44564  15.622  19.052   4.164
85271W        W44565  36.951   9.207  13.442
85272W        W44566   9.207   5.734  11.041
85273W        W44567  25.601  34.106  13.869
85274W        W44568  29.929  35.030   4.624
85275W        W44569   5.303  23.162  13.542
85276W        W44570  27.516  11.214   9.580
85277W        W44571   0.249  38.997   0.732
85278W        W44572  34.921  13.661   0.751
85279W        W44573   4.373  19.692  10.060
85280W        W44574  23.208  44.956   0.768
85281W        W44575  41.520  43.465  12.854
85282W        W44576  23.732   0.419   4.640
85283W        W44577  15.099   2.252  10.436
85284W        W44578  39.532  30.506  14.351
85285W        W44579  26.661  27.136   5.278
85286W        W44580  14.279   8.348  11.918
85287W        W44581   5.240  22.102   4.770
85288W        W44582   1.792  21.018  12.031
85289W        W44583  20.602  43.449  11.858
85290W        W44584  18.082  38.957  13.028
85291W        W44585   1.237  21.727   3.297
85292W        W44586  10.350  19.665  10.994
85293W        W44587  41.799  44.913   3.188
85294W        W44588  43.843   0.373   1.724
85295W        W44589  28.053  34.601   3.737
85296W        W44590  36.065  11.795  13.535
85297W        W44591   4.298  38.849  11.085
85298W        W44592   7.213  40.383  10.534
85299W        W44593  24.556  36.896   3.234
85300W        W44594  29.639   2.425   2.896
85301W        W44595  26.951   3.939   3.313
85302W        W44596   0.423   0.853   1.770
85303W        W44597  29.927   8.197   4.298
85304W        W44598  17.222   9.868   1.896
85305W        W44599   7.305  36.534  11.923
85306W        W44600  43.279  24.029  11.935
85307W        W44601  12.627  17.229  13.996
85308W        W44602  21.148  27.645   2.859
85309W        W44603  21.074  43.405  13.981
85310W        W44604  43.457  21.741  11.030
85311W        W44605  11.712  37.399  14.015
85312W        W44606  14.589  36.419  11.042
85313W        W44607  40.362  21.656  10.898
85314W        W44608   1.259  39.373  11.538
85315W        W44609   3.371   2.873   4.809
85316W        W44610   5.291  30.085   2.378
85317W        W44611  13.142  39.869  10.591
85318W        W44612  15.168  15.720  10.596
85319W        W44613   5.336   9.863   2.343
85320W        W44614  32.137  24.061  14.405
85321W        W44615  15.284  16.567   4.262
85322W        W44616  32.409  27.191  12.971
85323W        W44617  40.877  21.032  13.816
85324W        W44618  38.375  30.154  13.955
85325W        W44619  12.182   9.880   3.270
85326W        W44620  40.382  28.066   2.847
85327W        W44621  39.018   2.962  10.496
85328W        W44622  24.657  29.130  11.896
85329W        W44623   3.400  39.915  10.917
85330W        W44624  38.939  21.084   3.174
85331W        W44625  21.652   2.834   3.639
85332W        W44626   4.790   3.938  12.359
85333W        W44627  13.208  13.791   4.836
85334W        W44628  11.776  37.965  14.917
85335W        W44629  22.997  19.129  14.475
85336W        W44630  40.979  32.130   0.389
85337W        W44631  36.873   7.399  13.315
85338W        W44632   6.763  21.567  11.005
85339W        W44633   5.197  41.015   4.698
85340W        W44634  12.632  35.925   2.205
85341W        W44635  13.639  42.425   3.154
85342W        W44636  31.996  12.678  12.828
85343W        W44637   6.823   5.806   1.431
85344W        W44638  31.146   4.355  10.606
85345W        W44639   5.310  10.827   0.313
85346W        W44640   9.271  43.408   0.267
85347W        W44641  24.064  15.279   0.786
85348W        W44642  32.525  17.641  11.382
85349W        W44643  41.961  11.839   0.411
85350W        W44644   5.255  37.478   1.350
85351W        W44645  22.164  31.964   1.710
85352W        W44646   8.742  11.277  13.376
85353W        W44647  22.026  44.893   4.130
85354W        W44648  13.105   3.333  13.898
85355W        W44649   7.374  17.138  11.964
85356W        W44650   1.294  11.295  13.470
85357W        W44651  16.085   8.810  10.077
85358W        W44652   9.359   6.397  10.436
85359W        W44653  42.378   9.322   3.682
85360W        W44654  40.961   6.291  11.872
85361W        W44655  35.369  14.103   4.804
85362W        W44656  39.319  39.850   1.439
85363W        W44657  19.771  44.471   4.247
85364W        W44658  22.071  40.450  13.038
85365W        W44659  30.960  26.680   0.757
85366W        W44660  41.378  16.693  13.028
85367W        W44661   8.341  17.762  13.980
85368W        W44662   7.349  11.831   2.234
85369W        W44663  15.305  31.114  10.512
85370W        W44664  32.059  29.144  14.795
85371W        W44665   4.706  28.028   3.790
85372W        W44666  27.129  36.084   4.758
85373W        W44667  11.291   4.815  13.063
85374W        W44668  38.465  41.303   3.292
85375W        W44669  15.219  38.859   1.930
85376W        W44670  20.250  33.067  10.578
85377W        W44671  21.590   8.189  12.840
85378W        W44672  43.830   4.317  13.392
85379W        W44673  11.170  34.389   0.412
85380W        W44674  23.139   6.285  13.325
85381W        W44675  13.105  10.724  13.514
85382W        W44676  22.697  28.574   0.331
85383W        W44677  27.111  27.481  11.030
85384W        W44678  10.248  11.331   4.186
85385W        W44679  20.244  29.003  11.045
85386W        W44680   8.323  36.418  11.392
85387W        W44681  33.923  10.361   3.791
85388W        W44682  44.340   2.781   2.385
85389W        W44683  25.654   3.229  14.850
85390W        W44684   7.254  21.512   9.477
85391W        W44685  18.616  16.795  13.336
85392W        W44686  20.667  27.653  13.936
85393W        W44687   3.330  31.489  12.402
85394W        W44688  24.523  19.613  14.930
85395W        W44689   0.282  11.316  12.454
85396W        W44690  19.068  42.802  11.875
85397W        W44691  34.615  39.816  10.641
85398W        W44692  28.653  12.805   1.867
85399W        W44693  38.047  19.052   4.785
85400W        W44694  29.562  18.099  14.302
85401W        W44695   2.244  23.988   3.755
85402W        W44696   1.461  23.506  11.876
85403W        W44697   5.734   6.332  10.467
85404W        W44698  22.240  43.466  12.498
85405W        W44699  27.004  41.979  13.889
85406W        W44700  41.962  31.102   4.785
85407W        W44701  31.546  35.962  12.442
85408W        W44702  41.411  44.965  12.475
85409W        W44703  13.112  11.154   1.821
85410W        W44704  16.156  41.496   0.309
85411W        W44705  38.432   0.313  11.597
85412W        W44706   7.772  19.716   1.901
85413W        W44707  20.737  24.207   2.236
85414W        W44708  15.182   4.769   2.194
85415W        W44709   3.215  15.778   0.325
85416W        W44710   6.278   9.388  14.895
85417W        W44711  35.481  27.156  13.919
85418W        W44712  44.829  14.774   0.463
85419W        W44713  24.551   7.364  11.963
85420W        W44714  44.340   9.307   1.225
85421W        W44715  19.148   2.332   3.249
85422W        W44716  27.484  14.807  13.320
85423W        W44717  39.842  33.084  11.944
85424W        W44718  24.052  28.186  13.516
85425W        W44719  19.268   6.214   3.656
85426W        W44720  28.536  16.139  11.378
85427W        W44721  18.151   9.649   2.386
85428W        W44722  32.507  44.847  14.306
85429W        W44723  10.715  17.301  10.416
85430W        W44724  32.909  17.151   2.864
85431W        W44725   5.284  11.129  11.495
85432W        W44726   4.210  21.564   1.308
85433W        W44727  31.438  12.228  11.480
85434W        W44728  20.693   9.890   3.288
85435W        W44729  12.350  30.114  13.949
85436W        W44730   9.768  35.986  10.480
85437W        W44731  24.206  33.061   4.247
85438W        W44732  38.928  12.252  12.826
85439W        W44733  10.856  28.071   4.607
85440W        W44734   0.800  27.452  12.039
85441W        W44735  33.592  17.124  11.418
85442W        W44736  11.846  28.945   9.963
85443W        W44737  40.400  15.790   1.228
85444W        W44738  31.007  29.027  12.412
85445W        W44739   8.197  23.572   3.226
85446W        W44740  23.080  24.059  10.567
85447W        W44741  19.568  16.314   2.868
85448W        W44742  32.613   0.751   1.746
85449W        W44743   1.750  38.961   0.252
85450W        W44744  29.998  21.625  10.418
85451W        W44745  11.830   4.767  11.029
85452W        W44746  41.484  16.606  13.323
85453W        W44747  31.950  19.093  14.021
85454W        W44748   1.428  17.288   3.167
85455W        W44749  32.129   3.297   3.161
85456W        W44750   6.214   5.718   3.667
85457W        W44751   9.230  23.002   2.178
85458W        W44752  27.620  31.998  13.511
85459W        W44753   6.678  42.396   4.167
85460W        W44754  23.714   8.305   1.336
85461W        W44755  28.950   7.677  14.766
85462W        W44756   0.856   0.250  11.927
85463W        W44757   5.689   3.876  11.501
85464W        W44758   8.215  41.979  12.075
85465W        W44759  41.304  25.198   2.357
85466W        W44760  26.502   3.293   0.462
85467W        W44761   8.657   7.250  11.083
85468W        W44762   8.315  21.528  10.504
85469W        W44763  18.779   6.200   0.352
85470W        W44764  36.548   2.816  14.761
85471W        W44765  42.522   3.443  12.390
85472W        W44766   2.269  28.011   3.226
85473W        W44767  28.969  11.331  14.296
85474W        W44768   5.850  41.324   4.243
85475W        W44769  36.854  16.074  14.324
85476W        W44770  40.883  35.913  12.992
85477W        W44771  20.760  25.577  11.545
85478W        W44772  36.591  37.039  12.914
85479W        W44773  24.695  20.095   0.963
85480W        W44774  17.802   0.364  14.497
85481W        W44775  14.252   1.300  10.918
85482W        W44776  30.467  24.224  13.373
85483W        W44777  24.684  40.377   2.336
85484W        W44778  36.576  21.583  11.496
85485W        W44779   5.900  18.141  13.829
85486W        W44780  18.227  13.114  11.538
85487W        W44781  24.196   6.890   4.702
85488W        W44782  25.699  16.589   2.866
85489W        W44783   1.292   4.704  13.330
85490W        W44784   2.743  42.385   2.402
85491W        W44785  23.706  17.261  13.851
85492W        W44786  24.121  33.903   0.335
85493W        W44787  42.839   1.946   1.392
85494W        W44788  18.749  27.549  11.475
85495W        W44789  38.435  44.289   1.756
85496W        W44790  30.928  31.017   0.356
85497W        W44791  17.741  32.537  12.374
85498W        W44792  26.185  38.467   1.714
85499W        W44793  33.002   0.803   4.154
85500W        W44794   0.436   4.381   2.354
85501W        W44795  16.769   6.323  12.890
85502W        W44796  27.985  11.318  11.051
85503W        W44797   4.724  25.676  14.341
85504W        W44798   9.697  18.262   3.632
85505W        W44799  39.375  18.152  11.404
85506W        W44800  36.434   9.357  13.031
85507W        W44801  41.804  13.281   3.184
85508W        W44802  34.381  34.106  14.791
85509W        W44803  39.065  26.162   4.297
85510W        W44804   8.262  27.989   2.392
85511W        W44805  37.400  16.206  10.998
85512W        W44806  13.201  27.562  12.960
85513W        W44807  44.964   2.326   2.330
85514W        W44808  16.204  15.589   2.200
85515W        W44809   4.254   7.251  12.025
85516W        W44810  16.638  37.028  12.547
85517W        W44811  30.950  41.811  13.981
85518W        W44812   4.388   7.880   1.764
85519W        W44813   3.831  25.218   0.936
85520W        W44814  36.948  37.897  13.497
85521W        W44815  14.123  18.559   3.712
85522W        W44816  23.560  29.541   4.636
85523W        W44817  29.069  27.191   3.293
85524W        W44818  35.487  30.051  14.910
85525W        W44819  19.061  23.663   5.156
85526W        W44820  26.633   7.391  13.025
85527W        W44821  22.616  10.708   2.728
85528W        W44822  34.989  21.141   4.760
85529W        W44823  37.978  13.641  13.890
85530W        W44824  35.104  19.545  10.145
85531W        W44825  39.929  19.580   3.202
85532W        W44826  17.189  23.521   1.315
85533W        W44827  22.646   1.923  11.454
85534W        W44828  17.591  25.048  13.458
85535W        W44829   5.231  10.790  10.461
85536W        W44830   0.855   4.342  14.488
85537W        W44831  18.628  27.973   0.359
85538W        W44832  15.622  35.465  14.469
85539W        W44833   2.855  19.124  10.121
85540W        W44834   4.427  37.350   1.323
85541W        W44835  37.376  36.361   1.238
85542W        W44836  23.211  31.021  10.994
85543W        W44837   8.657  23.019   3.745
85544W        W44838  32.979   3.838   4.670
85545W        W44839   5.897  35.541   3.190
85546W        W44840   4.938  29.023   2.211
85547W        W44841  17.612   0.809  12.522
85548W        W44842  35.074  37.909   3.282
85549W        W44843  13.630  29.941   1.929
85550W        W44844  28.632   4.874   3.286
85551W        W44845  36.505  29.549  10.892
85552W        W44846  20.762  44.504   3.738
85553W        W44847  43.789  15.719   1.399
85554W        W44848  34.572  38.846   1.912
85555W        W44849  22.716   6.777   0.276
85556W        W44850  33.066  23.226   2.299
85557W        W44851   6.751  26.595   1.861
85558W        W44852  12.660   8.712   1.802
85559W        W44853  24.209   5.204  12.006
85560W        W44854  26.592  44.279   5.193
85561W        W44855  19.549  17.105   1.295
85562W        W44856   2.768  16.195   3.776
85563W        W44857   7.369   0.754  14.840
85564W        W44858  38.520  25.049   0.898
85565W        W44859   9.184  41.388   3.850
85566W        W44860  19.579  14.298  12.502
85567W        W44861  30.979  18.596  10.118
85568W        W44862   3.256   7.867  12.420
85569W        W44863  39.960  18.559   1.399
85570W        W44864  12.733  38.039   1.311
85571W        W44865  21.517   2.402   4.613
85572W        W44866   2.297  23.189  10.413
85573W        W44867  17.303  25.712   3.747
85574W        W44868  12.726  17.572   0.475
85575W        W44869  23.068  37.580   3.800
85576W        W44870  22.628  25.630  10.411
85577W        W44871   0.895  10.276   5.309
85578W        W44872   1.871  28.057   1.734
85579W        W44873  32.400  44.484  14.452
85580W        W44874  40.828  42.396  10.441
85581W        W44875  27.523  36.873  10.993
85582W        W44876  12.648  24.660   0.745
85583W        W44877  37.912  11.362   1.213
85584W        W44878  31.402  42.977   3.800
85585W        W44879  37.522  35.597   0.432
85586W        W44880  19.563   8.855  12.356
85587W        W44881  30.946   3.934   1.251
85588W        W44882  22.043  39.505   1.314
85589W        W44883  42.013  24.201  13.964
85590W        W44884   9.719  41.320  13.962
85591W        W44885  16.222  44.321  14.014
85592W        W44886  19.082   9.364  13.965
85593W        W44887   6.223  37.056  11.520
85594W        W44888   1.825  27.961  10.573
85595W        W44889  42.449  21.516   0.909
85596W        W44890  29.531  38.508   3.641
85597W        W44891  34.535   3.784  14.446
85598W        W44892   3.915  38.357   1.450
85599W        W44893   1.777  27.670   2.703
85600W        W44894  20.028  39.399   0.338
85601W        W44895  31.639   6.392   4.295
85602W        W44896  35.465   9.729   0.929
85603W        W44897  17.647   5.301   4.293
85604W        W44898   2.229  14.648  11.611
85605W        W44899   9.882   1.283  13.321
85606W        W44900   3.726  39.877   1.286
85607W        W44901  36.481   1.978  13.317
85608W        W44902   9.214  38.486   4.720
85609W        W44903  20.690  12.853   0.855
85610W        W44904  13.678  32.949   2.414
85611W        W44905  32.592  42.412   3.662
85612W        W44906  32.080  32.977   1.709
85613W        W44907  21.157  29.058  13.889
85614W        W44908  15.709   9.843   5.153
85615W        W44909  23.213  14.212   2.896
85616W        W44910  44.328  35.964  13.835
85617W        W44911  38.466  32.890   5.614
85618W        W44912  25.567   5.390  11.584
85619W        W44913  37.838  21.221   3.848
85620W        W44914  16.176  41.903   4.187
85621W        W44915  40.496  22.085  11.581
85622W        W44916  34.481  11.848   3.654
85623W        W44917  13.174  17.668   1.246
85624W        W44918   8.283  17.706   1.889
85625W        W44919  37.492  25.687  11.002
85626W        W44920  37.951  34.478  10.556
85627W        W44921  44.943  39.316  13.472
85628W        W44922  19.638  39.547   3.671
85629W        W44923  19.215   2.819  11.591
85630W        W44924  37.985  21.712   3.805
85631W        W44925  10.641  42.026  14.498
85632W        W44926   9.805  30.613   3.640
85633W        W44927  36.584  34.471   1.276
85634W        W44928  43.274  35.524  14.390
85635W        W44929  34.435   5.217  13.519
85636W        W44930  34.895   7.267   2.204
85637W        W44931  20.612  22.709  12.906
85638W        W44932   4.715  30.062   3.666
85639W        W44933  16.689  33.555   1.803
85640W        W44934  15.722   8.774   5.169
85641W        W44935  43.863   9.860  11.101
85642W        W44936  24.029  32.580   4.779
85643W        W44937  10.345  10.850  13.000
85644W        W44938   0.843   8.862  12.939
85645W        W44939  20.092  14.741  10.982
85646W        W44940  42.452   6.223  12.836
85647W        W44941  23.694  18.141   4.159
85648W        W44942  31.403  26.585  12.373
85649W        W44943  20.728  17.663   4.348
85650W        W44944  37.522  42.302  12.465
85651W        W44945  26.039  36.949   9.944
85652W        W44946  40.004  24.700   0.767
85653W        W44947  27.066  19.228  12.010
85654W        W44948  35.476   8.223   5.280
85655W        W44949  18.682  40.988   2.405
85656W        W44950   1.243  17.680   3.146
85657W        W44951  12.834  30.618   2.850
85658W        W44952  39.868  30.592   1.361
85659W        W44953  17.192  38.391  13.993
85660W        W44954  34.013  33.026   2.824
85661W        W44955  44.297   1.838  12.482
85662W        W44956  32.479  37.021   0.469
85663W        W44957  40.374  12.119   4.811
85664W        W44958  38.503  28.436   4.160
85665W        W44959   3.277  36.939  12.994
85666W        W44960  13.146   3.793  14.365
85667W        W44961   4.433  38.849  12.871
85668W        W44962  36.516  33.622   1.785
85669W        W44963  17.791   7.812  14.349
85670W        W44964  43.817  36.512  12.994
85671W        W44965  23.566  29.543  14.368
85672W        W44966  44.302  12.190   0.269
85673W        W44967  40.805   4.828   3.237
85674W        W44968  11.823  11.146  13.935
85675W        W44969   1.283  38.416  10.517
85676W        W44970  31.914   5.421   3.366
85677W        W44971  21.577  34.040   0.762
85678W        W44972  30.503  40.797  13.026
85679W        W44973   4.828  36.423   2.258
85680W        W44974  13.618   6.236   4.286
85681W        W44975  41.814  43.011  14.889
85682W        W44976  30.985  40.426   2.257
85683W        W44977  37.579   9.710  13.461
85684W        W44978  26.962   1.257   1.448
85685W        W44979   1.807  16.254  13.885
85686W        W44980  25.056  18.168   0.406
85687W        W44981   9.824   2.283   3.742
85688W        W44982  19.536   6.189  10.504
85689W        W44983  15.735   2.897   4.600
85690W        W44984  34.083  37.397  10.529
85691W        W44985  30.616  16.734  11.885
85692W        W44986   1.938   5.302   2.199
85693W        W44987  28.546  24.046  14.381
85694W        W44988  16.249  10.319  12.542
85695W        W44989   2.396  26.201   0.439
85696W        W44990   4.700  24.599   4.768
85697W        W44991  16.310  15.639   0.401
85698W        W44992  29.589  25.551   2.694
85699W        W44993  35.445  30.932  10.571
85700W        W44994  16.125  39.876   1.821
85701W        W44995  33.951  34.999  10.632
85702W        W44996  15.230  33.008  14.418
85703W        W44997  39.928  14.606   4.750
85704W        W44998   6.846  22.609   3.198
85705W        W44999  41.512  22.110  12.441
85706W        W45000  14.667  27.577  12.083
85707W        W45001  19.159  11.146   5.187
85708W        W45002   1.817   8.805   4.194
85709W        W45003  32.537  44.483  13.894
85710W        W45004  23.670  31.090   4.633
85711W        W45005  28.975   7.404  10.501
85712W        W45006   0.351  33.532  11.985
85713W        W45007  42.345   2.372   1.752
85714W        W45008  35.105  35.037   0.468
85715W        W45009  39.410   9.237   9.448
85716W        W45010  38.454   9.763  11.948
85717W        W45011  26.192  26.566   4.250
85718W        W45012  20.127  34.073  11.469
85719W        W45013   5.397   4.424  12.557
85720W        W45014  30.643   7.344   4.817
85721W        W45015  26.991   4.285   2.677
85722W        W45016  43.947  14.621  14.784
85723W        W45017  32.491  33.615  14.919
85724W        W45018  25.977  38.525   1.447
85725W        W45019  41.927  32.408   2.843
85726W        W45020  17.266  18.607   0.313
85727W        W45021  22.111  43.926  12.824
85728W        W45022  20.678  39.983  10.924
85729W        W45023  16.671   2.841  12.551
85730W        W45024  23.540   7.279   4.790
85731W        W45025  33.463   4.443  12.344
85732W        W45026  43.369  27.195  11.923
85733W        W45027  23.593  34.060  14.356
85734W        W45028  14.695   7.912   0.450
85735W        W45029  13.662   5.698   4.292
85736W        W45030  15.700  26.971   0.835
85737W        W45031  39.875  36.862   1.781
85738W        W45032  18.660  23.153  13.008
85739W        W45033   3.284  34.046  14.383
85740W        W45034  32.619   4.391   3.656
85741W        W45035  13.320  38.954   1.340
85742W        W45036  22.211   5.908  11.046
85743W        W45037  41.902  18.616   3.170
85744W        W45038  19.163  39.324  14.475
85745W        W45039  27.101  39.439  14.835
85746W        W45040  32.632   5.260  13.005
85747W        W45041  35.080  36.055  14.403
85748W        W45042  33.025  32.634  14.027
85749W        W45043  19.592  11.335   0.478
85750W        W45044  36.987  32.026  13.423
85751W        W45045  15.605  10.657   1.908
85752W        W45046   7.349  17.273   1.315
85753W        W45047  18.052  12.724   3.710
85754W        W45048  20.244   2.439  12.456
85755W        W45049  22.515  29.160  11.096
85756W        W45050  22.650  19.744  12.495
85757W        W45051  24.135   0.286   4.350
85758W        W45052  18.294  19.665  13.336
85759W        W45053  22.710  29.013  13.357
85760W        W45054  17.128  21.715  12.510
85761W        W45055   0.297  41.379  11.126
85762W        W45056  31.943  37.063  11.515
85763W        W45057   2.350  26.514   0.910
85764W        W45058   9.271  30.623   1.804
85765W        W45059  38.353  41.512  13.915
85766W        W45060  44.350  19.074   3.375
85767W        W45061   4.396  17.291   1.296
85768W        W45062  44.948  40.534  11.933
85769W        W45063  15.108  44.489   3.319
85770W        W45064  27.083  12.782  10.596
85771W        W45065  12.773  24.689   3.168
85772W        W45066  21.577  19.244  13.400
85773W        W45067  22.511  40.455  13.519
85774W        W45068  40.527  44.479  12.943
85775W        W45069  17.730  34.466  14.489
85776W        W45070  24.194  37.959  11.578
85777W        W45071  33.015   9.192  11.010
85778W        W45072  30.598  40.051  10.129
85779W        W45073  44.785  41.906  12.468
85780W        W45074  24.171  41.299   3.740
85781W        W45075   0.764  44.942  11.084
85782W        W45076   2.954  30.478   2.281
85783W        W45077  18.177  21.148  11.976
85784W        W45078  35.875  29.025   0.962
85785W        W45079   2.461  21.129   1.300
85786W        W45080  13.175  33.421   5.176
85787W        W45081   7.740  19.183  14.963
85788W        W45082   3.919  35.079  13.510
85789W        W45083  21.525  11.353   2.869
85790W        W45084  41.815  41.803  11.069
85791W        W45085  38.445  30.444  12.481
85792W        W45086  15.783  17.288   0.778
85793W        W45087   9.727   3.410  11.374
85794W        W45088   1.415  25.165  11.607
85795W        W45089  18.712  38.020  11.471
85796W        W45090  23.713  35.892   1.397
85797W        W45091  40.339  22.547   0.451
85798W        W45092  38.386  31.898   0.829
85799W        W45093  23.664  32.587  10.940
85800W        W45094  11.665  19.601   2.808
85801W        W45095  29.158   1.927  13.010
85802W        W45096  34.445  14.658   3.246
85803W        W45097  43.860  43.389  11.492
85804W        W45098   1.363  15.704  11.379
85805W        W45099  18.692  20.238   3.169
85806W        W45100  28.169  43.824  12.894
85807W        W45101  30.464  27.168   0.336
85808W        W45102   9.690  15.693  14.913
85809W        W45103  27.195   3.402  10.641
85810W        W45104  39.961  17.276   2.362
85811W        W45105  40.546  25.116  14.923
85812W        W45106  17.211  12.296   1.353
85813W        W45107  22.198  42.447   4.677
85814W        W45108  33.944  34.441   4.773
85815W        W45109  24.071  15.588  11.378
85816W        W45110   0.441  25.615   4.678
85817W        W45111   8.217  31.442   1.863
85818W        W45112  10.201  26.008  11.544
85819W        W45113   4.740  19.246   1.875
85820W        W45114  29.954  42.975   2.287
85821W        W45115  33.395  26.465   3.173
85822W        W45116  21.674   4.705   3.753
85823W        W45117   1.914   8.753   2.728
85824W        W45118  28.465   0.939   4.292
85825W        W45119  11.663  23.053  14.995
85826W        W45120   7.690  14.765   3.785
85827W        W45121  26.999  11.234   2.678
85828W        W45122  28.114  20.673  13.356
85829W        W45123  38.510  27.500  14.513
85830W        W45124  15.618  24.612  13.359
85831W        W45125  16.262  18.100  12.977
85832W        W45126  32.442  29.651   2.698
85833W        W45127   9.176  29.547   5.735
85834W        W45128  35.081  36.874   1.275
85835W        W45129  14.097  38.931   1.791
85836W        W45130  40.481  37.874   1.859
85837W        W45131  30.503  29.528  12.964
85838W        W45132  43.932  40.408   4.323
85839W        W45133  26.983  30.155   4.311
85840W        W45134  42.827  28.571  14.472
85841W        W45135  10.682   3.327   2.782
85842W        W45136  30.937  32.462  14.919
85843W        W45137  15.285   6.296   3.202
85844W        W45138   1.348  19.776   0.316
85845W        W45139  43.995   9.809  12.954
85846W        W45140  34.490  23.130  12.535
85847W        W45141  44.903   1.932  13.041
85848W        W45142  23.059  37.849   2.361
85849W        W45143  14.180  27.566   3.849
85850W        W45144  35.393  11.179  10.421
85851W        W45145  16.586  18.238  10.616
85852W        W45146  13.152   9.830   3.199
85853W        W45147   1.320  44.985  12.561
85854W        W45148   2.792  43.505  13.953
85855W        W45149  11.239   6.277  14.766
85856W        W45150  40.035  11.640  10.478
85857W        W45151  44.008  24.643  10.971
85858W        W45152  44.282  41.947  12.898
85859W        W45153  29.464  31.099  14.009
85860W        W45154  22.525   0.873  14.970
85861W        W45155  38.998  10.671   4.716
85862W        W45156  15.271  35.903  13.509
85863W        W45157  39.521   4.424  13.872
85864W        W45158  35.975   8.365  11.591
85865W        W45159  35.026  17.571  12.382
85866W        W45160   2.869   7.240   2.250
85867W        W45161  40.409   7.836  12.413
85868W        W45162  19.677   5.301   0.748
85869W        W45163  32.976  11.831   1.800
85870W        W45164  21.077  33.474  11.084
85871W        W45165   8.279  25.177  10.528
85872W        W45166   4.435   2.418  12.992
85873W        W45167  30.082   4.403   4.166
85874W        W45168  17.715  30.135   4.251
85875W        W45169  11.801  43.945   1.911
85876W        W45170  20.263  21.181  14.793
85877W        W45171   3.427  29.447  14.032
85878W        W45172   2.270  19.627  14.348
85879W        W45173  15.188  40.875   4.832
85880W        W45174  11.300  23.681  14.510
85881W        W45175   3.753   5.879  12.489
85882W        W45176   0.774  18.066   3.214
85883W        W45177  34.031  25.712  12.885
85884W        W45178  33.496  18.097  11.583
85885W        W45179  35.006  14.634   2.242
85886W        W45180  36.949  25.174  13.955
85887W        W45181   2.365  24.716   0.945
85888W        W45182   4.333  34.491   3.201
85889W        W45183  19.262  21.653   1.906
85890W        W45184  28.943  34.953   2.850
85891W        W45185  37.410  34.526  11.867
85892W        W45186  31.009  11.265  12.071
85893W        W45187   3.382  13.810  14.470
85894W        W45188  36.019   9.240  14.288
85895W        W45189  12.651  32.066  12.413
85896W        W45190  12.636   3.405   2.757
85897W        W45191  32.010  42.791   0.778
85898W        W45192  31.076  37.387  14.474
85899W        W45193   5.372  28.033   4.753
85900W        W45194  34.990   7.833  12.385
85901W        W45195  25.128  26.093   2.376
85902W        W45196  40.346  40.888   2.808
85903W        W45197  19.161  10.811   0.346
85904W        W45198  43.977  16.218   4.718
85905W        W45199   4.241  24.506   1.908
85906W        W45200  23.698  42.287   0.345
85907W        W45201   4.880  19.119  11.562
85908W        W45202  29.605  30.021   4.740
85909W        W45203   2.274   3.360  11.033
85910W        W45204   5.291   1.452  12.079
85911W        W45205  15.160  36.988  13.027
85912W        W45206  27.620  25.991  10.423
85913W        W45207  41.435  13.190   3.837
85914W        W45208   0.970  28.587  12.858
85915W        W45209  23.721  22.655  14.474
85916W        W45210  18.175   3.955  13.955
85917W        W45211  31.428  25.070   2.739
85918W        W45212   3.297  28.142   4.247
85919W        W45213   8.864  14.798   3.282
85920W        W45214  11.352   7.317  14.918
85921W        W45215  33.386  13.725  13.019
85922W        W45216  39.539  41.389   0.728
85923W        W45217   2.901  19.765   2.268
85924W        W45218  12.341  22.127  10.428
85925W        W45219  27.094  39.957  11.503
85926W        W45220  32.055  17.664  14.830
85927W        W45221  35.569  32.909   1.742
85928W        W45222  40.850  40.455   3.682
85929W        W45223   1.342  41.861  11.911
85930W        W45224  39.832   1.408  12.357
85931W        W45225  39.035  17.594   0.759
85932W        W45226   0.790  35.565  13.471
85933W        W45227  17.690   6.710  10.474
85934W        W45228  19.063   8.849  13.851
85935W        W45229   8.202   9.880  11.958
85936W        W45230  35.520  17.748   1.862
85937W        W45231  39.527   4.936   0.751
85938W        W45232   3.856  15.253  13.896
85939W        W45233  27.489  38.560  12.561
85940W        W45234  35.559  34.562  13.467
85941W        W45235  10.191  30.480   0.282
85942W        W45236  18.785  17.127  13.473
85943W        W45237  41.504  28.553  12.908
85944W        W45238  40.806  13.703   0.444
85945W        W45239  19.095  39.460   4.332
85946W        W45240  24.084  20.070  13.477
85947W        W45241  12.158  25.005   2.698
85948W        W45242  24.986  29.617   1.366
85949W        W45243  20.188  18.556   9.668
85950W        W45244  21.084  38.508  12.392
85951W        W45245   9.828  33.977  12.026
85952W        W45246  15.182  26.093   1.429
85953W        W45247  22.747   0.393   2.236
85954W        W45248   2.251  43.930  12.430
85955W        W45249  37.874  42.438   0.824
85956W        W45250  42.020  37.034   9.981
85957W        W45251  20.096  25.208  12.459
85958W        W45252  32.964  33.920  13.988
85959W        W45253  15.093  13.678  12.438
85960W        W45254  43.021  33.401  14.329
85961W        W45255  24.085  27.559  10.931
85962W        W45256  19.266   5.251   1.273
85963W        W45257  21.663   0.342  14.901
85964W        W45258  44.287   4.844   4.757
85965W        W45259  16.219  15.165  12.384
85966W        W45260   8.366  11.817  11.558
85967W        W45261  11.232  24.665  12.569
85968W        W45262  34.450  30.557  13.384
85969W        W45263  26.459   3.444   5.157
85970W        W45264  36.026  23.054   3.687
85971W        W45265  15.158  23.543   0.289
85972W        W45266  33.887   4.393  12.830
85973W        W45267  35.007  41.970  14.890
85974W        W45268   4.350  19.281  14.937
85975W        W45269  24.050   9.269   4.718
85976W        W45270  40.022  22.202  12.868
85977W        W45271  12.845   9.813   1.310
85978W        W45272   8.889  40.811   1.930
85979W        W45273   3.750  32.951  12.082
85980W        W45274   4.771  35.461   4.759
85981W        W45275   0.378  21.032  13.376
85982W        W45276  19.189  42.912   4.772
85983W        W45277   1.416  22.008  14.476
85984W        W45278  33.524  19.550   2.689
85985W        W45279  11.210  44.761   4.620
85986W        W45280   8.669  14.202  14.502
85987W        W45281  17.675  30.011   3.728
85988W        W45282  10.370   0.779   2.341
85989W        W45283   8.166  31.529  12.525
85990W        W45284  30.915  11.360   0.429
85991W        W45285   6.812   0.319  14.781
85992W        W45286  31.944  26.110   1.757
85993W        W45287  22.224   0.405  13.923
85994W        W45288  33.087  40.820  14.003
85995W        W45289  11.365  11.840   0.343
85996W        W45290  29.094   2.770  13.051
85997W        W45291  25.699  22.187  14.007
85998W        W45292  35.438  31.103  12.480
85999W        W45293  39.864  36.946  12.006
86000W        W45294  15.121  24.562  11.096
86001W        W45295  21.744  36.578   0.340
86002W        W45296   9.720  44.891  10.059
86003W        W45297   4.911   1.458  12.981
86004W        W45298  13.195  34.477  10.948
86005W        W45299  20.075  44.885   4.127
86006W        W45300  12.123   2.874  12.409
86007W        W45301  29.032  22.249   1.259
86008W        W45302  29.470  27.676   3.311
86009W        W45303  26.530   7.680   3.788
86010W        W45304  23.061  26.666   0.834
86011W        W45305   5.352   9.283   0.964
86012W        W45306  34.011  24.992  11.855
86013W        W45307  30.923  35.373  12.980
86014W        W45308   3.371   6.260   2.279
86015W        W45309  37.960   4.244  10.498
86016W        W45310   7.182  14.325   4.727
86017W        W45311  40.005  39.908   1.876
86018W        W45312  34.582  16.114   1.909
86019W        W45313   2.262  34.537  14.806
86020W        W45314  23.625  16.166   0.797
86021W        W45315   9.782  37.355  11.433
86022W        W45316  11.622  36.542   0.854
86023W        W45317  32.636  36.535  14.318
86024W        W45318  16.659  32.512  11.503
86025W        W45319  39.877  25.097  14.865
86026W        W45320   3.371   5.905  13.331
86027W        W45321   7.851  29.508  11.955
86028W        W45322   7.706   0.834  13.383
86029W        W45323  19.182  29.540  14.835
86030W        W45324  38.849  39.917   1.916
86031W        W45325   5.290   3.880   4.318
86032W        W45326   6.223  14.735   0.944
86033W        W45327  30.069  20.669   0.737
86034W        W45328  38.037  14.814  10.417
86035W        W45329  40.465   4.849   2.342
86036W        W45330  14.241  21.229   2.829
86037W        W45331  18.725  40.348  12.999
86038W        W45332  16.572   5.317  12.032
86039W        W45333  44.494  34.034  14.851
86040W        W45334   5.209   9.693  13.427
86041W        W45335  34.081  11.805   0.445
86042W        W45336  37.892   1.885  12.935
86043W        W45337   9.863  11.278   1.414
86044W        W45338   6.256   7.413  13.913
86045W        W45339  30.914  31.461  14.282
86046W        W45340  33.964  29.043   3.199
86047W        W45341   9.212   7.416   2.902
86048W        W45342  11.814   2.780   0.393
86049W        W45343  14.183  27.190  11.469
86050W        W45344  16.250  19.667   0.946
86051W        W45345  31.065  31.633  11.016
86052W        W45346  34.614   9.396  11.935
86053W        W45347  43.300  28.640  10.959
86054W        W45348  28.109  39.842  12.826
86055W        W45349   3.914  33.031  12.486
86056W        W45350   8.241  24.198  10.574
86057W        W45351  33.906   1.483   3.272
86058W        W45352  27.096   8.873   1.414
86059W        W45353  42.880  39.809  11.943
86060W        W45354  40.467  44.331  12.421
86061W        W45355  33.082  28.178  11.906
86062W        W45356  42.478  15.750   1.309
86063W        W45357  31.456  28.113   1.780
86064W        W45358   0.268  24.647   1.747
86065W        W45359  18.678  38.524   2.806
86066W        W45360  23.180  16.691  11.036
86067W        W45361  28.955   5.384   3.174
86068W        W45362  36.936   8.241  12.515
86069W        W45363   6.426  16.675  12.066
86070W        W45364  31.087  30.039  10.568
86071W        W45365  16.118  15.671   1.891
86072W        W45366  12.180  10.707  13.820
86073W        W45367  30.648  28.061   1.888
86074W        W45368  39.477  37.879   1.883
86075W        W45369   9.372  34.398  14.804
86076W        W45370  11.868   5.856   0.343
86077W        W45371  39.550   7.353  11.482
86078W        W45372  34.484  16.574  13.522
86079W        W45373  41.877  29.459   2.255
86080W        W45374  24.032   5.800   1.784
86081W        W45375   9.349  35.407   3.796
86082W        W45376  17.292  24.151   1.358
86083W        W45377  17.155   4.886   3.826
86084W        W45378  40.885  35.591   0.789
86085W        W45379  32.058  12.644   2.684
86086W        W45380   0.307   2.830  13.344
86087W        W45381  15.620  23.167  14.408
86088W        W45382   9.341  18.064  11.056
86089W        W45383  28.551  40.848  11.469
86090W        W45384  10.242  44.315  12.542
86091W        W45385  11.299  37.087   0.882
86092W        W45386  39.856  30.998  13.361
86093W        W45387  32.397  14.220  12.912
86094W        W45388  10.361  27.967   0.791
86095W        W45389  42.006  28.476   3.337
86096W        W45390  11.365  15.227   3.291
86097W        W45391  42.481  30.973   1.438
86098W        W45392   6.373  21.603   0.952
86099W        W45393  26.061  34.482   3.352
86100W        W45394   2.437  16.079   4.645
86101W        W45395  34.379   8.317  13.313
86102W        W45396   9.167  15.261  10.431
86103W        W45397  37.413  15.659  13.912
86104W        W45398   6.794  29.614  12.839
86105W        W45399  26.526  28.003  11.438
86106W        W45400  32.595  39.361  13.401
86107W        W45401   8.173  41.035   4.165
86108W        W45402   3.721  15.711   2.320
86109W        W45403  20.089  26.173  13.334
86110W        W45404  18.101  21.740   4.718
86111W        W45405  30.610  13.701  14.908
86112W        W45406  26.661   4.337  12.977
86113W        W45407  23.054  24.532  11.379
86114W        W45408  19.050   9.749   0.865
86115W        W45409  30.148  36.053  11.507
86116W        W45410  32.087  43.291  11.947
86117W        W45411  27.647   6.722  12.573
86118W        W45412  15.640  44.938   2.682
86119W        W45413  18.104  14.250   3.695
86120W        W45414  13.165  39.514   4.809
86121W        W45415  31.901  35.930  11.538
86122W        W45416  13.690  28.679   4.721
86123W        W45417  11.710   6.376  13.898
86124W        W45418  30.518  23.196  10.603
86125W        W45419  32.569  36.936  11.911
86126W        W45420  17.761  17.745   2.854
86127W        W45421  33.085  33.975  10.914
86128W        W45422  40.354  25.985   3.825
86129W        W45423  23.055  42.901   4.707
86130W        W45424  32.637  38.433   0.378
86131W        W45425   0.373  12.789  12.041
86132W        W45426  15.319  35.582  11.879
86133W        W45427  14.658   2.900  11.120
86134W        W45428  22.603  14.766  13.905
86135W        W45429  33.394  17.756   0.452
86136W        W45430  41.423   1.766  11.111
86137W        W45431  21.527  20.662   2.238
86138W        W45432  39.824  18.647   3.377
86139W        W45433  43.462  14.149   1.877
86140W        W45434  24.592  44.460  14.822
86141W        W45435   8.678  41.307   0.281
86142W        W45436  10.272  14.598   1.327
86143W        W45437  24.650   3.388  14.930
86144W        W45438  19.614  40.824  11.956
86145W        W45439  22.082  28.146  13.009
86146W        W45440  28.180  22.615   3.373
86147W        W45441  40.048   0.321   1.426
86148W        W45442   2.311  34.578  12.363
86149W        W45443  29.930   9.296  13.837
86150W        W45444  40.516   1.961  14.959
86151W        W45445  33.553  10.845  10.982
86152W        W45446  23.126  15.715  13.485
86153W        W45447  22.022  42.436   1.889
86154W        W45448  30.065  23.560   0.274
86155W        W45449  31.909  39.844  13.958
86156W        W45450   1.877  37.079   1.324
86157W        W45451  37.955  21.027  10.503
86158W        W45452  41.431  23.187   0.355
86159W        W45453  38.345  39.422  11.612
86160W        W45454  27.613  16.784  10.599
86161W        W45455  43.319  35.853   5.315
86162W        W45456  42.920  21.675  13.444
86163W        W45457  14.832  21.178   5.216
86164W        W45458  11.646  25.662   2.723
86165W        W45459  28.530  36.091  12.930
86166W        W45460  28.093  24.166   3.184
86167W        W45461  38.526  16.127  11.076
86168W        W45462  27.137  17.173   0.894
86169W        W45463  26.524  25.641  10.999
86170W        W45464  39.416   5.371   3.819
86171W        W45465  21.026  16.638  13.954
86172W        W45466  27.167  15.096   3.786
86173W        W45467   5.789  23.703   0.284
86174W        W45468   8.226  21.679  10.029
86175W        W45469   7.268  18.558   3.644
86176W        W45470   3.714  21.245  12.389
86177W        W45471   8.309  34.969  11.521
86178W        W45472  38.969  37.065   1.362
86179W        W45473  34.075  40.492   0.790
86180W        W45474  26.646  26.673   3.224
86181W        W45475  27.985  26.533  11.567
86182W        W45476   1.481   0.875   1.817
86183W        W45477  30.947  17.069   2.877
86184W        W45478  22.546  23.043   2.834
86185W        W45479  18.705   4.785  11.973
86186W        W45480  37.937   9.751  14.393
86187W        W45481  27.141   7.261  11.941
86188W        W45482   3.304  42.995   4.687
86189W        W45483  41.336  41.887  13.930
86190W        W45484  16.684  39.424   1.930
86191W        W45485  18.263   0.255   4.662
86192W        W45486  15.221  35.072  10.440
86193W        W45487   6.209  25.645   3.234
86194W        W45488  16.731  44.847  10.428
86195W        W45489   9.356  40.002  10.516
86196W        W45490   4.421  42.396   4.638
86197W        W45491   6.286  41.479   3.632
86198W        W45492   9.754  19.536   1.266
86199W        W45493  32.095  25.061  13.822
86200W        W45494  33.875   1.302  12.036
86201W        W45495  10.376  21.720  12.893
86202W        W45496  40.982  31.923   0.913
86203W        W45497  43.800  17.072  14.834
86204W        W45498  20.186   8.681   3.792
86205W        W45499  41.035  13.813  14.374
86206W        W45500  44.921  17.178   3.313
86207W        W45501  31.505   8.855  14.301
86208W        W45502  39.880  29.098  10.587
86209W        W45503  36.484  42.024  14.895
86210W        W45504  40.911  43.493  13.897
86211W        W45505  11.824  26.087  11.557
86212W        W45506   7.677  40.479   4.324
86213W        W45507  43.448  43.845   4.131
86214W        W45508  36.972  33.387   5.136
86215W        W45509  22.188  12.215  13.512
86216W        W45510  40.493  23.019   4.117
86217W        W45511  39.535  10.728  14.445
86218W        W45512   5.820  10.257  13.496
86219W        W45513   5.422  32.028   4.192
86220W        W45514  36.489  36.003  13.454
86221W        W45515  19.135  42.401   1.336
86222W        W45516  33.478  34.532  11.001
86223W        W45517  38.994  24.099   3.270
86224W        W45518   7.778  37.525   2.826
86225W        W45519  23.625  17.650  14.506
86226W        W45520   9.878  20.572  11.386
86227W        W45521  12.633  26.197   4.308
86228W        W45522  33.904  34.563  10.465
86229W        W45523   9.299  18.556   1.353
86230W        W45524  35.392   6.914  12.514
86231W        W45525  11.338  18.780  11.574
86232W        W45526  38.928  35.463  14.894
86233W        W45527  18.551  19.047  14.393
86234W        W45528   2.966  18.116   0.445
86235W        W45529  13.812  25.162  14.296
86236W        W45530  33.463  27.547   4.721
86237W        W45531  38.529   8.181   0.965
86238W        W45532  29.955   2.441   3.690
86239W        W45533  19.117  31.105  11.052
86240W        W45534   8.866   8.857   3.383
86241W        W45535   1.789  35.570   1.226
86242W        W45536   8.703  27.675   1.296
86243W        W45537  41.918  34.398  11.043
86244W        W45538  25.218  27.563  10.897
86245W        W45539  32.417  10.777  14.889
86246W        W45540  13.116  25.541   0.730
86247W        W45541  20.049  39.021  11.910
86248W        W45542  25.045  20.180   2.724
86249W        W45543   7.710   8.228   1.420
86250W        W45544  34.045  19.091  14.935
86251W        W45545  16.296  12.236  12.055
86252W        W45546  32.075  43.869   2.741
86253W        W45547  32.135  31.987  13.541
86254W        W45548  38.372  36.583  14.024
86255W        W45549  29.431  36.591   3.770
86256W        W45550   0.286  11.214   0.449
86257W        W45551  12.736  18.255   4.829
86258W        W45552   2.242  33.481  13.929
86259W        W45553   3.751  36.887  11.964
86260W        W45554  38.934   4.407   0.270
86261W        W45555  30.558  24.035   1.328
86262W        W45556   8.354  34.044   4.181
86263W        W45557  13.196   9.334   1.265
86264W        W45558  20.193  11.153  14.910
86265W        W45559  24.009  14.274  14.931
86266W        W45560  37.837  26.519   3.260
86267W        W45561   5.428  17.623   2.275
86268W        W45562  24.092   3.804   4.255
86269W        W45563  10.154  22.562   0.457
86270W        W45564  18.207   0.790   1.798
86271W        W45565  12.188  12.186   9.964
86272W        W45566   2.450  41.480  11.896
86273W        W45567   2.420  44.754  13.328
86274W        W45568   9.856  44.917   4.630
86275W        W45569  31.094  13.152  12.006
86276W        W45570  44.381  38.986  12.857
86277W        W45571  42.893  25.037  11.512
86278W        W45572  28.987  33.103   1.447
86279W        W45573   7.754  35.859  14.507
86280W        W45574  18.255  15.702   1.254
86281W        W45575  28.446   5.221   1.267
86282W        W45576  37.391  20.614   3.651
86283W        W45577  18.746  10.875   4.711
86284W        W45578  39.329  40.418   0.293
86285W        W45579  28.503  28.619   4.814
86286W        W45580  42.479   4.782   4.626
86287W        W45581  44.467  13.650  11.062
86288W        W45582  27.466  44.760  10.966
86289W        W45583  39.015  28.997  11.589
86290W        W45584  18.732   2.227   1.385
86291W        W45585   5.845  10.848  13.028
86292W        W45586  17.684  11.331   1.339
86293W        W45587  29.992  31.432   3.250
86294W        W45588   1.348  12.786   0.954
86295W        W45589   5.702  23.521  13.421
86296W        W45590  33.059  17.281   4.243
86297W        W45591  34.935  14.195  11.964
86298W        W45592   1.849   4.431  14.947
86299W        W45593   9.840   7.273   0.875
86300W        W45594  28.104  31.477  10.919
86301W        W45595  44.839  15.099  11.871
86302W        W45596   3.229   9.887  13.410
86303W        W45597   0.758  40.371  13.848
86304W        W45598   2.308  40.471  14.824
86305W        W45599  24.648  41.997   4.821
86306W        W45600  30.005  30.989   0.884
86307W        W45601  16.217  28.023  14.814
86308W        W45602  14.232  43.913  13.440
86309W        W45603  17.129  40.918  12.511
86310W        W45604   6.773  34.509  14.441
86311W        W45605   0.773  35.039   0.873
86312W        W45606   8.258  40.465  11.083
86313W        W45607  17.270  23.157   3.760
86314W        W45608  18.115  44.900  13.477
86315W        W45609  37.523  15.671   4.237
86316W        W45610  41.316   8.841   2.767
86317W        W45611  31.986  12.362  14.001
86318W        W45612   9.162   4.429  12.872
86319W        W45613  12.221  35.934   0.798
86320W        W45614  11.739  36.348  11.960
86321W        W45615  31.901  12.267   1.340
86322W        W45616  22.194   2.922   0.386
86323W        W45617  34.974  22.054  11.081
86324W        W45618  14.267  36.587   5.317
86325W        W45619  29.088  26.078   4.662
86326W        W45620  32.110  42.435  13.894
86327W        W45621  20.661  15.697   1.432
86328W        W45622  23.209  35.578   2.716
86329W        W45623  29.428  10.293   9.926
86330W        W45624   8.892  11.630  13.952
86331W        W45625  10.266  36.006   4.689
86332W        W45626  37.993  41.326   1.407
86333W        W45627   3.374  23.623   4.793
86334W        W45628  33.100  13.746   3.773
86335W        W45629   1.813  18.640   2.271
86336W        W45630  20.042   4.799  14.832
86337W        W45631  35.526  31.549   2.417
86338W        W45632  23.054  31.086   0.389
86339W        W45633   5.808   6.192   1.775
86340W        W45634  30.506   2.323  10.545
86341W        W45635  39.985  40.048  13.044
86342W        W45636  39.554  42.940  11.998
86343W        W45637  22.671  12.615  10.544
86344W        W45638  28.535  19.602  12.380
86345W        W45639  30.952   5.761  14.801
86346W        W45640  25.676  43.938  14.796
86347W        W45641  42.326  32.963  13.485
86348W        W45642  34.879  44.350   3.756
86349W        W45643  23.576  10.767  13.802
86350W        W45644  13.238  33.530  14.314
86351W        W45645  31.535  12.672  14.032
86352W        W45646  20.219  44.353   1.896
86353W        W45647  39.892   9.887  10.615
86354W        W45648   4.856  22.216   4.233
86355W        W45649  14.122  32.050  10.588
86356W        W45650  33.953   3.273   1.405
86357W        W45651  21.220  10.634   0.844
86358W        W45652  41.508  23.102  13.003
86359W        W45653   5.707  26.562  14.935
86360W        W45654  19.676  31.434  11.877
86361W        W45655  39.049  21.076  13.515
86362W        W45656   2.867  35.034   0.865
86363W        W45657  27.166   9.383   0.258
86364W        W45658  35.096   4.418   4.826
86365W        W45659  30.543  12.279   2.892
86366W        W45660  21.620  40.527  14.904
86367W        W45661  31.038  36.444   3.767
86368W        W45662  30.516  14.140   1.254
86369W        W45663  35.507   3.346   2.876
86370W        W45664  38.418  24.611   2.768
86371W        W45665  23.064   0.407  12.445
86372W        W45666  18.670  42.796   3.352
86373W        W45667  21.586   6.908   0.782
86374W        W45668  18.139  23.169   0.299
86375W        W45669   9.375  36.842   1.377
86376W        W45670  27.484  10.382   0.825
86377W        W45671  37.019  16.193   2.397
86378W        W45672  17.124  31.103  10.459
86379W        W45673   4.849  23.154  12.823
86380W        W45674  22.518   4.401  10.627
86381W        W45675  22.638  13.829  10.918
86382W        W45676   4.827  31.475  11.559
86383W        W45677  13.694  27.956  14.440
86384W        W45678  35.438  18.621  11.863
86385W        W45679  40.030  28.105  10.976
86386W        W45680  18.681  24.135  10.993
86387W        W45681  26.030  33.120   0.319
86388W        W45682  17.614  15.690   1.791
86389W        W45683  15.257  15.597   3.382
86390W        W45684  41.972  35.598   5.292
86391W        W45685   9.789   3.427   3.373
86392W        W45686  26.629   7.737  14.332
86393W        W45687  39.503   8.206  10.622
86394W        W45688  33.026   5.875  13.474
86395W        W45689  21.601   8.350   4.203
86396W        W45690  15.605  20.724   0.855
86397W        W45691   9.872  29.462  13.901
86398W        W45692  15.136  25.582  14.965
86399W        W45693  26.681  23.599  11.541
86400W        W45694  12.845  11.837   9.545
86401W        W45695  40.821   2.792   2.823
86402W        W45696  41.802  44.982  12.012
86403W        W45697  24.568  34.570   3.812
86404W        W45698  32.537   3.330   0.430
86405W        W45699  31.544  28.456  12.489
86406W        W45700  31.466  30.139  12.555
86407W        W45701   0.389  24.983  14.435
86408W        W45702  31.612  21.048  14.835
86409W        W45703   0.468  33.501  10.999
86410W        W45704  18.158  36.016  13.537
86411W        W45705   1.760  27.556  14.298
86412W        W45706  10.379  35.431   0.813
86413W        W45707   0.289  25.082   1.346
86414W        W45708  34.034  31.618   4.754
86415W        W45709  27.007  31.060   2.683
86416W        W45710  40.407   1.277   1.792
86417W        W45711  18.709   4.302  11.979
86418W        W45712   4.806  11.771   4.835
86419W        W45713  14.651  11.664  13.894
86420W        W45714  27.011  11.831   3.739
86421W        W45715   1.261  17.695   3.729
86422W        W45716  32.627   5.864  12.034
86423W        W45717  24.045  18.665  12.350
86424W        W45718   0.389  22.199   3.204
86425W        W45719   5.273  15.221   0.872
86426W        W45720  19.214  39.043   4.717
86427W        W45721   0.794  28.592   1.705
86428W        W45722   8.748  35.394   2.302
86429W        W45723  13.332  33.528  10.046
86430W        W45724  41.873  39.963  11.382
86431W        W45725   0.444  32.451   0.779
86432W        W45726  28.971  23.636  14.919
86433W        W45727  29.615  18.746   3.702
86434W        W45728   9.207  18.609  10.937
86435W        W45729  34.999  14.269  10.973
86436W        W45730   4.421  19.700  11.400
86437W        W45731  33.462  35.885  14.951
86438W        W45732  31.020  42.409   2.663
86439W        W45733   8.344  30.152  10.469
86440W        W45734  23.592  31.048   0.455
86441W        W45735  26.980  15.155  12.450
86442W        W45736  38.382  44.365   2.374
86443W        W45737  17.712  19.140   3.295
86444W        W45738   0.921  22.567  11.445
86445W        W45739  30.109   8.250  12.830
86446W        W45740  21.576  10.297   1.737
86447W        W45741  44.382  41.835   0.936
86448W        W45742  41.429   9.825  14.331
86449W        W45743  41.823  31.590  10.557
86450W        W45744  39.962  16.151   2.674
86451W        W45745  43.768  18.638   3.200
86452W        W45746  27.991  22.572   0.478
86453W        W45747   9.827  31.994   1.272
86454W        W45748  28.969  39.456  12.543
86455W        W45749  21.190  42.938  14.989
86456W        W45750  20.208   0.882   2.297
86457W        W45751  26.162   7.886   3.273
86458W        W45752  44.008  21.687   0.868
86459W        W45753  20.649  20.140   3.224
86460W        W45754   5.215   5.374   2.417
86461W        W45755  34.378  31.401  13.848
86462W        W45756  21.176  25.541  12.924
86463W        W45757  42.521  27.941  10.956
86464W        W45758   4.444  25.062   3.704
86465W        W45759  19.657  19.192  10.610
86466W        W45760  32.586  37.007   1.332
86467W        W45761  22.119   0.445  12.953
86468W        W45762  19.252  39.364  14.870
86469W        W45763  19.634   8.777   4.718
86470W        W45764  25.153   0.924   2.829
86471W        W45765  33.474  34.921   4.304
86472W        W45766  24.625  26.048   2.765
86473W        W45767  41.826   6.882  12.496
86474W        W45768  23.490  23.662  11.490
86475W        W45769  24.152   2.844  10.923
86476W        W45770  19.653  44.887   3.199
86477W        W45771  14.232  36.866  10.887
86478W        W45772  37.404  18.601   4.300
86479W        W45773   7.366  39.880   2.261
86480W        W45774  16.736  42.316  13.050
86481W        W45775  12.306  15.717  13.307
86482W        W45776   6.370  19.072   4.629
86483W        W45777  26.655   3.242   1.883
86484W        W45778   7.246  32.967  14.424
86485W        W45779  24.205   8.683  14.311
86486W        W45780  37.546  26.593  12.929
86487W        W45781  29.077  24.578   1.901
86488W        W45782  24.138  29.538   1.931
86489W        W45783  22.632  26.011  10.483
86490W        W45784   7.835  14.187  14.393
86491W        W45785  42.349  18.133  12.545
86492W        W45786   9.241  36.065   1.324
86493W        W45787  40.878  15.316   1.864
86494W        W45788  34.609  22.167   2.717
86495W        W45789  15.110  34.915   2.728
86496W        W45790   8.270  33.897   1.800
86497W        W45791   1.964  13.787   4.720
86498W        W45792  25.633  32.953   0.863
86499W        W45793  12.340   4.242  12.439
86500W        W45794  15.781  26.147   0.797
86501W        W45795  43.426  29.531   9.989
86502W        W45796  40.868   1.785  11.424
86503W        W45797   3.409  33.062  13.911
86504W        W45798  21.532  16.161   3.357
86505W        W45799  28.069   1.464   1.325
86506W        W45800  20.655  40.381   1.237
86507W        W45801  37.407  38.918   0.298
86508W        W45802  10.159  18.213   1.847
86509W        W45803  18.693  13.245  13.354
86510W        W45804  38.564  22.673   1.236
86511W        W45805  26.604   6.868   1.382
86512W        W45806  44.441  25.493   2.321
86513W        W45807  43.297  43.873  14.989
86514W        W45808   8.398   5.769  12.398
86515W        W45809   0.279  27.670   0.456
86516W        W45810   2.857  41.466   1.448
86517W        W45811  35.086  27.673   0.787
86518W        W45812   2.858   6.255  13.853
86519W        W45813  38.330  29.160  10.512
86520W        W45814  14.828  10.786  10.588
86521W        W45815  11.670   7.765  13.335
86522W        W45816  44.817   8.896   4.248
86523W        W45817   7.417  27.490  13.835
86524W        W45818  37.065  23.698   1.855
86525W        W45819  20.154  19.061   3.345
86526W        W45820   4.811  38.869   2.383
86527W        W45821   1.328  34.951   2.258
86528W        W45822  36.920  21.178  11.527
86529W        W45823  43.985  33.521   0.355
86530W        W45824  17.592   3.914   0.301
86531W        W45825  37.500  21.700   0.780
86532W        W45826  26.196  40.920  12.407
86533W        W45827  35.977   1.929   3.217
86534W        W45828  35.974  35.070   2.843
86535W        W45829   9.659  14.198   0.769
86536W        W45830  17.651  29.649   4.806
86537W        W45831  23.575   3.358   2.311
86538W        W45832  42.338  33.886   2.869
86539W        W45833  33.124  26.553   3.806
86540W        W45834  29.528  36.468  12.344
86541W        W45835  16.631   7.357   0.245
86542W        W45836  29.584   4.876   4.750
86543W        W45837  15.592  31.597  14.019
86544W        W45838  24.117  20.574  11.407
86545W        W45839   8.337  10.821  14.277
86546W        W45840  39.009  32.962  10.433
86547W        W45841   0.930  29.487  14.955
86548W        W45842  44.798  19.660   4.212
86549W        W45843  27.098  30.568   2.276
86550W        W45844   4.450  24.143   0.387
86551W        W45845  22.728   3.345  11.442
86552W        W45846  42.833  27.984   1.827
86553W        W45847  19.552   4.788   1.329
86554W        W45848  34.550  23.991   1.418
86555W        W45849  17.780  12.751  14.406
86556W        W45850  36.354  11.231  11.093
86557W        W45851  22.195  28.129  14.854
86558W        W45852   0.859  34.605  11.382
86559W        W45853  41.989   5.909   0.887
86560W        W45854  14.727   2.847  13.516
86561W        W45855  31.987   1.285  12.370
86562W        W45856  40.826  23.605   0.450
86563W        W45857  13.120  27.164   1.367
86564W        W45858  35.589   9.811  10.565
86565W        W45859   5.887  31.107  10.159
86566W        W45860  44.482  39.814   1.227
86567W        W45861  26.958  31.546   3.821
86568W        W45862  17.296  19.236  14.027
86569W        W45863   6.257  17.613   3.753
86570W        W45864  17.796  30.921   3.782
86571W        W45865   6.830  36.355   1.883
86572W        W45866   9.707  26.567   2.852
86573W        W45867   2.413  28.064  13.845
86574W        W45868   3.320  22.577  10.492
86575W        W45869  24.618  31.075  10.913
86576W        W45870  13.337  22.024  11.434
86577W        W45871  33.132  26.115  13.444
86578W        W45872  26.622  35.396   0.441
86579W        W45873  23.599   5.385  14.301
86580W        W45874   0.324  39.426   0.402
86581W        W45875  30.436   4.931  12.927
86582W        W45876   5.330  14.818   4.633
86583W        W45877  26.004  21.746  14.472
86584W        W45878  25.613  15.183  11.906
86585W        W45879  11.621  13.721   0.894
86586W        W45880  17.668  11.321  12.951
86587W        W45881   0.841  36.031   4.196
86588W        W45882  15.696  20.727  13.830
86589W        W45883  12.270  17.294   0.475
86590W        W45884  22.573  35.409   3.853
86591W        W45885  29.530  15.294  13.892
86592W        W45886  32.509  21.681   0.407
86593W        W45887  17.657  27.626   3.856
86594W        W45888  14.241   2.384   3.844
86595W        W45889  17.746  20.621   1.828
86596W        W45890  44.305  25.646   2.747
86597W        W45891   9.890  13.350   3.676
86598W        W45892  25.652   6.794  12.347
86599W        W45893  11.279   1.861   2.830
86600W        W45894   0.308  37.481  14.885
86601W        W45895  21.689   2.762  10.584
86602W        W45896  15.127   5.396  14.863
86603W        W45897  13.649  24.645  11.051
86604W        W45898  17.751  39.493  10.412
86605W        W45899  14.121  42.947   2.371
86606W        W45900   0.794  18.184  14.294
86607W        W45901  23.124  41.040  10.922
86608W        W45902   9.772  19.109  11.406
86609W        W45903  16.608  20.169   4.264
86610W        W45904  36.049   1.948  13.881
86611W        W45905   2.370  26.117   2.394
86612W        W45906  27.175  37.917   4.130
86613W        W45907   2.846   7.820  11.422
86614W        W45908  39.934  11.149  13.329
86615W        W45909  31.417  22.103  10.467
86616W        W45910  15.728  42.010   1.761
86617W        W45911  19.099  12.801  10.982
86618W        W45912   7.876  21.185   1.426
86619W        W45913  33.882  21.722   2.798
86620W        W45914  36.550  14.105  14.341
86621W        W45915  11.199   5.195  12.349
86622W        W45916   9.294  38.493  12.074
86623W        W45917  21.667  22.567   4.246
86624W        W45918  38.985  22.201   0.482
86625W        W45919  19.273  25.580  13.504
86626W        W45920  16.317  24.180  13.937
86627W        W45921  33.084  38.373  13.920
86628W        W45922  19.269  11.308   3.307
86629W        W45923   2.258  31.431  14.948
86630W        W45924  25.167  33.442  11.568
86631W        W45925   6.720  21.125   1.399
86632W        W45926   4.290  22.085   4.179
86633W        W45927   4.892   1.356   2.381
86634W        W45928  39.513  40.989  13.391
86635W        W45929  29.669   1.844   1.309
86636W        W45930  43.860  39.991   2.827
86637W        W45931  19.115  36.004   4.350
86638W        W45932   7.383  10.216  10.925
86639W        W45933  18.756  31.067  12.452
86640W        W45934  35.948  32.994   0.795
86641W        W45935  27.484  42.358  10.982
86642W        W45936  23.073  22.518   3.211
86643W        W45937  37.053  10.353  14.949
86644W        W45938  25.634  35.395  13.315
86645W        W45939   8.731  33.111  12.515
86646W        W45940  37.980  13.723  14.294
86647W        W45941  37.864  15.804  13.382
86648W        W45942  13.213  23.492  14.274
86649W        W45943  13.621  35.898   0.919
86650W        W45944  14.660  30.638   5.162
86651W        W45945   3.344  41.788  13.433
86652W        W45946  27.088   9.669  13.811
86653W        W45947   7.668  22.082   0.913
86654W        W45948  19.256   3.322  13.309
86655W        W45949  13.775  23.183  11.527
86656W        W45950  10.348  19.138   3.262
86657W        W45951  30.973  42.299   4.301
86658W        W45952   1.349   8.703  14.315
86659W        W45953   7.902  16.219  14.409
86660W        W45954  25.583  16.197   2.217
86661W        W45955  16.751  34.989   1.901
86662W        W45956  27.946  11.299   1.222
86663W        W45957  19.095   4.394   0.470
86664W        W45958  39.853  34.555   4.209
86665W        W45959  21.139  34.005   0.861
86666W        W45960   4.891  21.735   1.926
86667W        W45961  42.385  30.916  12.860
86668W        W45962  32.480  26.465   4.716
86669W        W45963   8.256  17.747  10.987
86670W        W45964  39.899  38.891  11.530
86671W        W45965   7.243   0.758   2.891
86672W        W45966  19.253  11.679   4.701
86673W        W45967   6.213  43.389  11.610
86674W        W45968  29.923   3.714  13.316
86675W        W45969  38.417  23.070   4.748
86676W        W45970  31.122  10.246   4.607
86677W        W45971   5.390  26.013  14.502
86678W        W45972   1.814  41.386  14.916
86679W        W45973  18.607  42.445  14.892
86680W        W45974  18.254  33.979  12.088
86681W        W45975   3.408  12.324  11.455
86682W        W45976   8.842  20.562   0.250
86683W        W45977  28.107  28.156  11.433
86684W        W45978  14.633  33.571  11.463
86685W        W45979  26.511  34.475  13.533
86686W        W45980  30.949   8.858  13.475
86687W        W45981  32.545  27.040   0.779
86688W        W45982  40.374  41.369   3.218
86689W        W45983   7.688  17.114   0.825
86690W        W45984  35.525  40.874   2.397
86691W        W45985  18.054   8.160  11.068
86692W        W45986  42.355  11.174  14.963
86693W        W45987  24.054  20.105   1.771
86694W        W45988  30.564  32.529  13.048
86695W        W45989  27.452  31.971   0.294
86696W        W45990  10.296  43.904  13.352
86697W        W45991  31.618   7.189  12.340
86698W        W45992  38.483   7.333   2.672
86699W        W45993  34.376  41.410   3.318
86700W        W45994  40.316  33.960   4.837
86701W        W45995   5.224  41.346   1.848
86702W        W45996  28.955  16.291  10.594
86703W        W45997  17.800   5.688  11.574
86704W        W45998  13.754  24.577  14.819
86705W        W45999  42.486  17.264  14.927
86706W        W46000  29.442  17.189   3.348
86707W        W46001  36.901   6.195  12.384
86708W        W46002  43.492   7.902  11.384
86709W        W46003  23.607   2.754   2.670
86710W        W46004  34.385  19.552   1.851
86711W        W46005  13.815  25.602   4.135
86712W        W46006  20.564  34.409   1.263
86713W        W46007   7.682   2.437   5.319
86714W        W46008  32.504  27.022   2.888
86715W        W46009  27.122  22.166   4.113
86716W        W46010  41.336  31.007  12.911
86717W        W46011  12.652  32.973  11.069
86718W        W46012  36.545  17.694  12.501
86719W        W46013  37.348  41.010  10.562
86720W        W46014  35.536  27.454  14.939
86721W        W46015  18.057  24.619  11.417
86722W        W46016   0.311  16.745  13.468
86723W        W46017  24.527  26.503  11.466
86724W        W46018  24.688  25.604  12.893
86725W        W46019  32.566  32.560   3.148
86726W        W46020  29.480  36.893  13.917
86727W        W46021  25.555  39.908   3.654
86728W        W46022  14.183  40.982  12.920
86729W        W46023  38.015   0.749   4.202
86730W        W46024   7.189  43.842   9.441
86731W        W46025  12.249  42.463   3.829
86732W        W46026  20.081  27.096   4.323
86733W        W46027  22.122  36.593   4.610
86734W        W46028  22.067   5.258   0.409
86735W        W46029  22.689  36.032  14.893
86736W        W46030  21.696  17.623  13.546
86737W        W46031  28.512  15.266   4.772
86738W        W46032  12.194  24.632  12.369
86739W        W46033  30.658  23.693  13.863
86740W        W46034  32.614  26.700  12.523
86741W        W46035  17.113  12.140   1.863
86742W        W46036  39.889   4.781  10.538
86743W        W46037  28.463  12.140  12.971
86744W        W46038  20.554  43.317  14.329
86745W        W46039  22.212  42.914   1.724
86746W        W46040  21.131  30.945   1.838
86747W        W46041  11.867  15.275  12.527
86748W        W46042  23.636  16.218   3.320
86749W        W46043   6.770  16.637  14.315
86750W        W46044  14.178  20.070   4.693
86751W        W46045  30.609  23.707   3.328
86752W        W46046  24.127  42.486  14.938
86753W        W46047  16.804  16.299   1.449
86754W        W46048  15.214  34.382  10.916
86755W        W46049  23.709   2.920  13.981
86756W        W46050   6.282   1.914   1.835
86757W        W46051   8.846  41.818   1.877
86758W        W46052  18.274  17.076  13.033
86759W        W46053  42.393  30.098   1.770
86760W        W46054  27.085  31.600  13.997
86761W        W46055  38.888   7.266   2.236
86762W        W46056  17.731  19.198   2.682
86763W        W46057   2.438  23.714  11.073
86764W        W46058  29.644  10.845  11.867
86765W        W46059  13.833  28.037   0.865
86766W        W46060  22.055  31.137  13.337
86767W        W46061  39.549  27.138  14.787
86768W        W46062  14.262  34.458   4.230
86769W        W46063  37.385  44.327  10.948
86770W        W46064  39.055  20.190  11.964
86771W        W46065  30.462  26.203   1.841
86772W        W46066  29.101  18.608  10.473
86773W        W46067  22.214   1.782   2.267
86774W        W46068   6.831  22.085   1.316
86775W        W46069  30.526  12.259  11.910
86776W        W46070  14.220  31.479   0.426
86777W        W46071  40.321   4.338   2.230
86778W        W46072  43.284  23.071  11.116
86779W        W46073  16.802  21.678   3.819
86780W        W46074  26.669  42.916  13.390
86781W        W46075  38.037  22.529  14.886
86782W        W46076   7.283  37.032   1.337
86783W        W46077  30.431   2.946   4.344
86784W        W46078  22.600  15.668   0.467
86785W        W46079  31.511   8.691   4.829
86786W        W46080  26.684  36.478   2.885
86787W        W46081  33.911   7.326   0.880
86788W        W46082  19.278  32.079   0.761
86789W        W46083  38.569   7.689  14.293
86790W        W46084  23.011   9.380   3.284
86791W        W46085  42.830   4.211   4.353
86792W        W46086  12.178   5.879   0.804
86793W        W46087  35.472   1.355   3.804
86794W        W46088  11.266   4.730  12.013
86795W        W46089  35.090   4.286  11.518
86796W        W46090  34.041  16.750  11.033
86797W        W46091  36.987  41.410   3.303
86798W        W46092   3.320  41.306   4.329
86799W        W46093  32.928  37.466  11.021
86800W        W46094  36.964  26.989   2.703
86801W        W46095   6.311  36.856  14.426
86802W        W46096  27.546  14.261   3.367
86803W        W46097  17.729  43.481   1.819
86804W        W46098  20.092   8.668  13.989
86805W        W46099  31.472  21.548  14.922
86806W        W46100  12.693  43.810  10.890
86807W        W46101  20.540  19.090   2.183
86808W        W46102  19.582   3.323  12.892
86809W        W46103   0.343  25.527  14.891
86810W        W46104   3.910  32.579   4.239
86811W        W46105  16.698  24.686  12.345
86812W        W46106  43.874   8.702   3.193
86813W        W46107  37.073  22.690  13.895
86814W        W46108  34.484  37.490  13.320
86815W        W46109  13.824   1.864  12.537
86816W        W46110  19.201  41.974  12.930
86817W        W46111  43.887  12.226   3.150
86818W        W46112  25.612  40.326   1.379
86819W        W46113   6.894  31.407   3.829
86820W        W46114  21.212  29.928   2.371
86821W        W46115  34.438  40.336   2.860
86822W        W46116   5.916  30.020   3.304
86823W        W46117  38.900  44.995   0.321
86824W        W46118   4.779  16.247  10.425
86825W        W46119  19.600  30.600  13.421
86826W        W46120   9.805  17.783   2.217
86827W        W46121  23.152   5.735  12.552
86828W        W46122   3.916  25.541  12.491
86829W        W46123  18.656   6.296   5.121
86830W        W46124  35.585  31.645  14.875
86831W        W46125   6.910   6.751  12.920
86832W        W46126   4.701   8.695   3.866
86833W        W46127  12.629  42.807  12.022
86834W        W46128  13.147  36.483  12.555
86835W        W46129  19.151   1.237  10.631
86836W        W46130  10.815  20.657  11.081
86837W        W46131   2.783  43.453   4.631
86838W        W46132  30.932  11.240  12.867
86839W        W46133   0.463   9.384  13.483
86840W        W46134  40.518  25.022   1.737
86841W        W46135  29.933   0.809  14.854
86842W        W46136  15.727  25.010  14.898
86843W        W46137  41.924  44.356  13.380
86844W        W46138  13.108   4.758  13.027
86845W        W46139  44.790  13.733  14.348
86846W        W46140  12.213  35.521   0.323
86847W        W46141   7.350  16.767   1.894
86848W        W46142  10.321   3.711   2.758
86849W        W46143  38.033  13.130  14.921
86850W        W46144  39.431  18.112  14.855
86851W        W46145  10.794   1.742  10.927
86852W        W46146  18.639   3.326   1.840
86853W        W46147  24.073  11.362  12.412
86854W        W46148  18.265  35.544  13.984
86855W        W46149   9.285  32.453   0.316
86856W        W46150   9.176   4.320   4.115
86857W        W46151  26.121  13.269  13.364
86858W        W46152  12.731  16.158   1.423
86859W        W46153  23.666  12.777   1.289
86860W        W46154  14.642   9.241  13.412
86861W        W46155  13.610   0.757   1.442
86862W        W46156  42.845   2.334   0.906
86863W        W46157  39.019  20.603   3.819
86864W        W46158  12.350  15.090  12.460
86865W        W46159  20.734   3.388  11.870
86866W        W46160  19.158  35.484  13.937
86867W        W46161  23.667  27.126  14.347
86868W        W46162  35.015  34.597   4.344
86869W        W46163  15.616  44.407  13.312
86870W        W46164  13.760  15.244  12.032
86871W        W46165  42.961  44.753  11.096
86872W        W46166  12.832  36.494   0.439
86873W        W46167  19.175  25.708   3.678
86874W        W46168  11.287  15.139  11.425
86875W        W46169  18.773  31.075  14.355
86876W        W46170  39.425   4.311   3.214
86877W        W46171  18.672   6.923  10.544
86878W        W46172  19.679  20.176   1.887
86879W        W46173  28.081  21.251  14.326
86880W        W46174  27.105   2.305   3.189
86881W        W46175   1.272   5.844   2.200
86882W        W46176  15.806  26.144   4.134
86883W        W46177  42.316  21.730   1.276
86884W        W46178   9.273   5.267  13.064
86885W        W46179  23.012  41.809  11.030
86886W        W46180  20.567  24.107   0.915
86887W        W46181  17.260  16.262   2.191
86888W        W46182  24.724  41.892  10.535
86889W        W46183  39.544   7.835   3.749
86890W        W46184  12.743   1.362   0.830
86891W        W46185  44.797  28.636  14.913
86892W        W46186  14.165  28.564   3.218
86893W        W46187  10.831  19.651  10.472
86894W        W46188  18.278   9.223  11.433
86895W        W46189  28.165  30.058  10.968
86896W        W46190  23.595  38.002   3.284
86897W        W46191   3.814  19.039   0.269
86898W        W46192  12.650  13.629  14.319
86899W        W46193  27.644   7.677   0.262
86900W        W46194  20.229  18.060  14.944
86901W        W46195  23.709  17.145   2.785
86902W        W46196  10.181  13.701  12.343
86903W        W46197  28.610  34.952  13.444
86904W        W46198  10.299   3.719   1.934
86905W        W46199  21.189  28.169   2.400
86906W        W46200  34.006  29.064  14.782
86907W        W46201   1.922  19.552   0.897
86908W        W46202  39.399  20.225   2.239
86909W        W46203  26.595   1.318   1.702
86910W        W46204  43.952  20.146   3.631
86911W        W46205   6.367  22.739   9.982
86912W        W46206  38.881   2.804   1.217
86913W        W46207  42.356  14.652   0.733
86914W        W46208   1.859  22.205  12.579
86915W        W46209  38.346   5.921   1.844
86916W        W46210  38.440  29.963  14.444
86917W        W46211  14.653   0.442  12.951
86918W        W46212  24.543   4.895  13.973
86919W        W46213  38.356   4.399  11.914
86920W        W46214  44.970  36.086  13.931
86921W        W46215  16.738  41.026  12.352
86922W        W46216  31.930  27.099   0.378
86923W        W46217   9.168  19.622   1.405
86924W        W46218   9.329  25.494  14.513
86925W        W46219  11.237  12.620  11.895
86926W        W46220  38.533   2.785  14.760
86927W        W46221  16.593  34.435   0.732
86928W        W46222  31.535  32.887  11.072
86929W        W46223  38.864  17.771   2.789
86930W        W46224  31.027  26.024  11.015
86931W        W46225  11.259   3.242  14.799
86932W        W46226  20.203  31.103  12.063
86933W        W46227  44.317  28.968  12.030
86934W        W46228  19.548  20.687  13.019
86935W        W46229   6.760  38.367  13.470
86936W        W46230  19.103   7.743  14.988
86937W        W46231  28.606  41.294   2.903
86938W        W46232   0.965   2.798  13.328
86939W        W46233  39.552  15.250   4.603
86940W        W46234  27.174  41.866  13.358
86941W        W46235  33.070  28.024   0.939
86942W        W46236   4.753  38.993  13.889
86943W        W46237  36.434  30.416   0.324
86944W        W46238  12.776  39.055   1.770
86945W        W46239  15.789  11.868   1.247
86946W        W46240   0.332  16.700   3.841
86947W        W46241  19.259   2.738   2.854
86948W        W46242  31.519  39.829   4.183
86949W        W46243  13.712  39.396   1.885
86950W        W46244   6.281   8.299   1.304
86951W        W46245   4.934  17.556  12.502
86952W        W46246   2.333  13.229  10.983
86953W        W46247  26.678   5.238   3.777
86954W        W46248   9.365  23.165   3.782
86955W        W46249   5.272   6.290  14.828
86956W        W46250  34.094  40.481   3.241
86957W        W46251   5.217  34.930   2.875
86958W        W46252   2.880  31.015   1.356
86959W        W46253  21.139  18.190   3.635
86960W        W46254  27.105   2.448   1.794
86961W        W46255  25.056  20.099   3.166
86962W        W46256  10.728  40.883   2.824
86963W        W46257  21.054  30.142  10.598
86964W        W46258  21.670  18.746   4.291
86965W        W46259  16.203  41.430   2.866
86966W        W46260  29.920  39.455  14.860
86967W        W46261  42.883  25.973   2.277
86968W        W46262  13.626  35.544   3.381
86969W        W46263   2.328  35.429  11.014
86970W        W46264  33.907  15.688  14.430
86971W        W46265   1.428   9.847  11.072
86972W        W46266  34.085  34.486  14.419
86973W        W46267   6.862  38.862   2.841
86974W        W46268  27.102   7.881   4.298
86975W        W46269  11.666  43.895  12.390
86976W        W46270  22.249  29.492   4.654
86977W        W46271  35.568  23.611   0.377
86978W        W46272  40.512   4.710  14.414
86979W        W46273  32.900   0.890   4.682
86980W        W46274  25.476   1.410  11.572
86981W        W46275   3.944   0.929  14.839
86982W        W46276  33.387  18.601  14.776
86983W        W46277  23.510  30.500  13.532
86984W        W46278  37.427  31.130  13.882
86985W        W46279  26.017  20.147  11.879
86986W        W46280  28.539   7.838   4.319
86987W        W46281   0.927  44.847  11.587
86988W        W46282  36.981  15.121   0.451
86989W        W46283  27.068  17.640   0.951
86990W        W46284   2.312  20.214  13.921
86991W        W46285  14.112  25.109  13.472
86992W        W46286  24.568  38.473  14.940
86993W        W46287   7.844  12.705   1.274
86994W        W46288  32.091  21.137   5.275
86995W        W46289  29.161  20.648  12.419
86996W        W46290  41.368   2.418   4.351
86997W        W46291   8.811   0.406  13.902
86998W        W46292  38.475  10.798  11.603
86999W        W46293  20.228  27.500   2.739
87000W        W46294  35.046  35.535  10.964
87001W        W46295   5.871  26.498   3.797
87002W        W46296  14.831   2.892   4.145
87003W        W46297  35.964   9.344  12.852
87004W        W46298  21.050  15.805  13.337
87005W        W46299  38.884  44.877  14.892
87006W        W46300  34.445  27.106  10.935
87007W        W46301  23.109  31.598  11.961
87008W        W46302  21.690  35.585  11.483
87009W        W46303   0.836   4.288   2.767
87010W        W46304   2.431  35.932  13.313
87011W        W46305  17.128  26.702   9.934
87012W        W46306   8.876  40.518   5.107
87013W        W46307   5.222  25.057   0.874
87014W        W46308  13.281  43.925  11.030
87015W        W46309  31.114   4.268  13.003
87016W        W46310  20.184   8.289   2.809
87017W        W46311  27.101   1.953  12.074
87018W        W46312  13.115   1.301   3.334
87019W        W46313  40.457  39.319   0.796
87020W        W46314   1.361  15.309   2.331
87021W        W46315  36.468   2.740   4.264
87022W        W46316  29.079  43.859  14.834
87023W        W46317  40.401  13.844   2.387
87024W        W46318  22.062  15.590   1.703
87025W        W46319  34.586  14.307  14.860
87026W        W46320  18.791   9.866   0.330
87027W        W46321  22.098  22.056   0.731
87028W        W46322  39.399  36.591  11.901
87029W        W46323   7.271  37.034   3.729
87030W        W46324  28.074   2.945  11.056
87031W        W46325  25.554  11.725   2.258
87032W        W46326  24.070   3.264  14.785
87033W        W46327   4.915   7.403  11.124
87034W        W46328  26.642  35.377   1.323
87035W        W46329   3.385  30.577  14.992
87036W        W46330  22.586  23.596   1.841
87037W        W46331  41.945  16.238  11.605
87038W        W46332  43.415  39.476   2.899
87039W        W46333  17.759  25.002   3.833
87040W        W46334  26.599  34.418   1.239
87041W        W46335  24.545   5.837  12.070
87042W        W46336  20.031   6.754  13.791
87043W        W46337  20.209  31.539   3.193
87044W        W46338  42.003   4.734   4.179
87045W        W46339  36.844  33.947   1.388
87046W        W46340   3.915  28.111  14.378
87047W        W46341  23.151  11.721  11.085
87048W        W46342  31.135  21.564   0.329
87049W        W46343  27.656  36.362  11.470
87050W        W46344  39.878   0.271   0.818
87051W        W46345  28.450  39.538   2.333
87052W        W46346  17.166  25.554   0.803
87053W        W46347  34.387  43.879  10.892
87054W        W46348   2.727  37.958  11.380
87055W        W46349  23.707   5.288   0.909
87056W        W46350  19.146  29.539   3.682
87057W        W46351  11.745  18.185  13.937
87058W        W46352  27.116   4.369   1.317
87059W        W46353  37.463  17.283  12.997
87060W        W46354  40.532  21.126  13.480
87061W        W46355  34.919   6.737   5.622
87062W        W46356  13.841  25.666   3.715
87063W        W46357  34.001  36.485   1.779
87064W        W46358  41.973  10.273   2.268
87065W        W46359  27.092  29.096   2.379
87066W        W46360  13.688  40.003  14.482
87067W        W46361  18.144  34.456  13.518
87068W        W46362  23.115  42.965   3.735
87069W        W46363  44.417  39.951  10.980
87070W        W46364   9.859  13.806  11.993
87071W        W46365  30.455  19.043   4.339
87072W        W46366  27.450  15.151  12.878
87073W        W46367  40.441  28.123   0.947
87074W        W46368  13.765  25.102   2.354
87075W        W46369   4.900  43.271  11.882
87076W        W46370  35.383   2.831  12.049
87077W        W46371  29.597  15.591  12.414
87078W        W46372  27.136  41.836  11.373
87079W        W46373  20.559  38.959  14.372
87080W        W46374  32.556  37.419   2.418
87081W        W46375   7.888  22.530  13.047
87082W        W46376  32.414  10.709   1.295
87083W        W46377  30.427  39.848   9.632
87084W        W46378  13.253  34.113  14.029
87085W        W46379  20.102  41.813   3.247
87086W        W46380  31.523   3.269  13.335
87087W        W46381  14.271  31.925   1.906
87088W        W46382   5.749  35.437   2.897
87089W        W46383   8.787  29.105   2.811
87090W        W46384   1.927  29.069  10.634
87091W        W46385  27.154   8.784  14.367
87092W        W46386  27.447  30.987  13.436
87093W        W46387   7.901   5.836  14.314
87094W        W46388  44.351  15.257   1.338
87095W        W46389  35.488  21.536  14.435
87096W        W46390  18.758  30.426  10.538
87097W        W46391  26.053  23.591   1.700
87098W        W46392  40.868  24.993  14.299
87099W        W46393  12.674   3.736  12.460
87100W        W46394  20.747  21.697  12.075
87101W        W46395   1.332  24.985   2.401
87102W        W46396  28.092  42.810   0.277
87103W        W46397  18.578  41.479   0.414
87104W        W46398   4.376  27.570  14.008
87105W        W46399  37.572  19.092  10.566
87106W        W46400  23.053  10.822   2.318
87107W        W46401   6.909  10.707  12.845
87108W        W46402  41.950  19.055  12.091
87109W        W46403  18.061  36.941   4.182
87110W        W46404  35.419   7.358  10.019
87111W        W46405  32.085   3.726   0.309
87112W        W46406  23.156   0.777  10.607
87113W        W46407  14.134  28.961  10.524
87114W        W46408  33.114   5.930  11.567
87115W        W46409  35.385   4.704   9.932
87116W        W46410  26.702   9.829  10.526
87117W        W46411   1.413  40.037   0.834
87118W        W46412  24.648  32.588  12.071
87119W        W46413  12.149  32.923  12.967
87120W        W46414  41.845  28.544   0.833
87121W        W46415  25.042   6.371   3.782
87122W        W46416  44.805  15.175   1.917
87123W        W46417  40.415   1.967  10.957
87124W        W46418  10.639   0.805  13.891
87125W        W46419   4.259  43.929   0.380
87126W        W46420   5.754  17.246   4.704
87127W        W46421  17.744   7.705  11.436
87128W        W46422  27.692   3.396   1.930
87129W        W46423  30.109  30.162   1.224
87130W        W46424  19.235  44.816  12.940
87131W        W46425   0.332   8.164  10.914
87132W        W46426  14.799  19.664  13.451
87133W        W46427  36.078  16.711   2.229
87134W        W46428   4.766  32.522  10.459
87135W        W46429  14.767  33.091  11.862
87136W        W46430  25.467  34.901  14.802
87137W        W46431   7.210  10.257   0.781
87138W        W46432  44.760  11.696   0.959
87139W        W46433  40.435   1.900  12.024
87140W        W46434  29.426   3.278  10.441
87141W        W46435  27.121  33.515  12.847
87142W        W46436  30.059  19.727   1.880
87143W        W46437  31.991  24.195   0.397
87144W        W46438   0.809  38.949   1.759
87145W        W46439   3.905  14.764  12.428
87146W        W46440   0.936  32.541   1.741
87147W        W46441  14.616   7.385   3.193
87148W        W46442  34.522  29.923  14.844
87149W        W46443  26.166  31.635   4.761
87150W        W46444  37.870  42.834   4.835
87151W        W46445  44.505  39.504  13.816
87152W        W46446  36.017  21.744   3.210
87153W        W46447  15.086  14.613   1.716
87154W        W46448   5.782   8.751   4.602
87155W        W46449  21.602  28.086  13.515
87156W        W46450   7.333  17.649   1.798
87157W        W46451  31.438  11.666  14.991
87158W        W46452  28.618  33.600  11.512
87159W        W46453  29.995   7.731  13.858
87160W        W46454  31.530  14.163   4.141
87161W        W46455  23.076  41.300  11.520
87162W        W46456   4.263  21.734  14.941
87163W        W46457   0.921  18.192   0.798
87164W        W46458  24.081   2.302   1.887
87165W        W46459  11.729  36.453  14.362
87166W        W46460  43.945  32.607  13.343
87167W        W46461  14.745  20.681  12.051
87168W        W46462  26.562  30.436   4.794
87169W        W46463  26.495  24.978   1.382
87170W        W46464  23.118   6.307   4.329
87171W        W46465  37.370  16.095  11.423
87172W        W46466  16.284   4.758   3.201
87173W        W46467  40.949   8.324   0.774
87174W        W46468   4.766  41.961  11.905
87175W        W46469  15.675  11.127  12.367
87176W        W46470  23.029  31.611   1.393
87177W        W46471   9.818  40.455  10.458
87178W        W46472  32.012  25.599  13.505
87179W        W46473  37.886  28.519  14.359
87180W        W46474  18.117   5.925  14.771
87181W        W46475  40.804  24.645   2.343
87182W        W46476  37.006  11.676   2.249
87183W        W46477  14.237  18.169   0.843
87184W        W46478  11.741   8.742   0.348
87185W        W46479  14.263   6.423  11.416
87186W        W46480  32.998  41.298  14.007
87187W        W46481  24.087   7.898   9.939
87188W        W46482  17.673   2.392   0.786
87189W        W46483  19.647  26.551   4.659
87190W        W46484  30.961   9.307  10.900
87191W        W46485  33.434  39.036  12.548
87192W        W46486  35.589  43.301  11.089
87193W        W46487  41.459  18.238  14.002
87194W        W46488  37.481  32.433  11.509
87195W        W46489  43.389   9.187  11.495
87196W        W46490  39.517  35.457  13.909
87197W        W46491   6.697   7.837  14.928
87198W        W46492  32.107  38.564   5.764
87199W        W46493  42.416  32.421   0.875
87200W        W46494  20.693  30.950   4.819
87201W        W46495  17.236  44.964   3.829
87202W        W46496  15.235  24.004  11.883
87203W        W46497  33.920  31.907   3.229
87204W        W46498  13.350  24.022  14.498
87205W        W46499  21.167   1.788   1.864
87206W        W46500  12.128   3.730   1.873
87207W        W46501  37.534  43.010  10.006
87208W        W46502  31.475   3.857   2.817
87209W        W46503  16.096  31.058  12.572
87210W        W46504  39.323  23.515   3.283
87211W        W46505   7.230   9.830   1.906
87212W        W46506   4.780  27.086   2.790
87213W        W46507  40.864  38.453   0.263
87214W        W46508  14.782  23.696  14.927
87215W        W46509  16.676  10.657   4.646
87216W        W46510   0.865  41.446   5.085
87217W        W46511  13.832  35.016   3.223
87218W        W46512   5.376   7.305   0.436
87219W        W46513  39.982  18.203  12.859
87220W        W46514   0.932  32.439  10.977
87221W        W46515  44.283  19.135   5.111
87222W        W46516   0.958  16.224   2.752
87223W        W46517   6.748   2.369   4.343
87224W        W46518  23.233   4.436   3.854
87225W        W46519  15.796  13.165   1.900
87226W        W46520   4.763  42.418  11.425
87227W        W46521   1.344  20.258   0.914
87228W        W46522  36.453  12.847   2.349
87229W        W46523  11.170  15.784   1.230
87230W        W46524  15.723  15.085   0.773
87231W        W46525  20.586  30.537  14.768
87232W        W46526  32.520  26.606  11.597
87233W        W46527  44.323  26.158   1.737
87234W        W46528  27.013  13.139  12.362
87235W        W46529   7.776  13.774   4.329
87236W        W46530  12.301  44.872   1.864
87237W        W46531   2.320   9.263  14.293
87238W        W46532  28.457  13.749  13.374
87239W        W46533   7.282  27.039  13.869
87240W        W46534  34.935  15.660   4.259
87241W        W46535   6.869  24.099   1.210
87242W        W46536  37.413  19.727  11.126
87243W        W46537   1.290  38.862   2.199
87244W        W46538  40.902  15.132   4.816
87245W        W46539  25.547  43.362  10.927
87246W        W46540   9.340  14.645  12.342
87247W        W46541  14.222  38.065  10.619
87248W        W46542  40.889   7.741   2.357
87249W        W46543  19.278   4.218  12.878
87250W        W46544  36.871   0.907  11.468
87251W        W46545  14.815  42.996   0.929
87252W        W46546  11.786  25.558   4.124
87253W        W46547  28.550  22.518  11.432
87254W        W46548  22.211   8.665  13.055
87255W        W46549  19.272  39.840   0.764
87256W        W46550   3.820  20.537  11.104
87257W        W46551  21.096   8.662   0.353
87258W        W46552  12.756  32.920  12.395
87259W        W46553  39.058  37.853   0.773
87260W        W46554  13.151   0.313  11.512
87261W        W46555  17.147  44.286   9.941
87262W        W46556  13.800  12.151   5.802
87263W        W46557  14.779   9.391  14.996
87264W        W46558  14.814   6.830   2.896
87265W        W46559  34.373   4.215   1.740
87266W        W46560  44.371  12.630  11.557
87267W        W46561  42.406  34.892   2.242
87268W        W46562   6.893  39.557  14.917
87269W        W46563   2.386  26.086  11.444
87270W        W46564  13.130  43.983   0.306
87271W        W46565  32.632  35.423   0.251
87272W        W46566   5.739  43.799  14.934
87273W        W46567   4.727  31.509  11.976
87274W        W46568  30.416  14.116  13.490
87275W        W46569  25.658   9.852   1.859
87276W        W46570  40.997  25.526   1.314
87277W        W46571  25.165   4.742  12.365
87278W        W46572  16.611  14.338  11.008
87279W        W46573  37.041   5.408  11.460
87280W        W46574  33.549  37.582   3.821
87281W        W46575  16.701  26.498  12.078
87282W        W46576  18.658  19.108  11.405
87283W        W46577  43.385  16.271  13.027
87284W        W46578  26.974  43.377   0.248
87285W        W46579  41.296  38.351  14.370
87286W        W46580   5.839   8.210   0.349
87287W        W46581   8.228  10.156  11.553
87288W        W46582   5.437   2.458  14.284
87289W        W46583  23.997   8.315  11.523
87290W        W46584  40.532  37.384  12.922
87291W        W46585  18.237  22.543   0.870
87292W        W46586  16.245   2.353  14.477
87293W        W46587   9.177  34.088   4.625
87294W        W46588  39.987  22.126  14.472
87295W        W46589  28.075  38.060   3.674
87296W        W46590  33.520  20.264   4.343
87297W        W46591  24.608  16.660   4.738
87298W        W46592  38.339  17.791  10.956
87299W        W46593  34.032  43.866   2.218
87300W        W46594  30.115  33.911   1.706
87301W        W46595  44.277  19.728  14.989
87302W        W46596  21.220  44.930   0.351
87303W        W46597  23.527   1.281  10.625
87304W        W46598   2.469   0.476   0.337
87305W        W46599  19.666  17.762  12.920
87306W        W46600  31.443  34.910  10.627
87307W        W46601  27.016  17.628  11.127
87308W        W46602  23.533  25.084   2.675
87309W        W46603  41.483   0.255   3.311
87310W        W46604  26.476  19.258   1.435
87311W        W46605   3.765  29.137   4.135
87312W        W46606  43.495  22.206   0.282
87313W        W46607   1.479  40.984  13.908
87314W        W46608  41.895  27.644   3.744
87315W        W46609  19.281   8.364   3.748
87316W        W46610  40.501  15.615   2.879
87317W        W46611   5.808  18.657   1.869
87318W        W46612   4.805  39.542  11.394
87319W        W46613  33.990   1.307   0.471
87320W        W46614  43.415  15.741  12.523
87321W        W46615  19.746   2.723  11.931
87322W        W46616  34.926  14.752  10.604
87323W        W46617   0.981  28.184   2.743
87324W        W46618   0.400   1.806   3.260
87325W        W46619   8.372  20.200   3.285
87326W        W46620  38.950  16.314   4.234
87327W        W46621  11.153  26.196  10.516
87328W        W46622  21.121  44.862   4.304
87329W        W46623   0.248  20.055   1.368
87330W        W46624  38.416  43.884  12.356
87331W        W46625  20.653  14.196  12.887
87332W        W46626  44.431  13.281  12.868
87333W        W46627  32.938  28.031  14.464
87334W        W46628   0.911  39.044   2.215
87335W        W46629  12.173  41.336   0.753
87336W        W46630  39.994  44.396  14.931
87337W        W46631  25.588   8.225  13.936
87338W        W46632  40.417  28.480   1.261
87339W        W46633  17.731  43.332   3.866
87340W        W46634   1.366  35.109  11.868
87341W        W46635  12.848  40.973  11.937
87342W        W46636  13.735  41.042  14.937
87343W        W46637  19.100  22.126   4.828
87344W        W46638   9.175  26.458   2.402
87345W        W46639  24.167  27.621   3.369
87346W        W46640  16.584   7.341  14.852
87347W        W46641  43.923  21.069  14.347
87348W        W46642  30.919  21.091  12.945
87349W        W46643  25.083  42.479  10.556
87350W        W46644  38.945   8.762   2.346
87351W        W46645  25.006  43.829  14.921
87352W        W46646  20.052   8.244  10.441
87353W        W46647  39.321  30.573   2.387
87354W        W46648  19.150   4.277   2.267
87355W        W46649  17.307   6.383  10.567
87356W        W46650  37.510  18.581  13.424
87357W        W46651  36.874   5.310   2.675
87358W        W46652  17.703  44.989  10.968
87359W        W46653  13.240  39.960  11.024
87360W        W46654  25.195  32.054   2.788
87361W        W46655  16.758  28.101   4.717
87362W        W46656  12.667  35.862   3.271
87363W        W46657  14.198  33.999   3.778
87364W        W46658  44.835   9.324  13.824
87365W        W46659  24.553  43.505  13.394
87366W        W46660   2.769  35.410   4.289
87367W        W46661  36.923   7.703  12.934
87368W        W46662  26.572  42.871  11.873
87369W        W46663   0.383  24.190  11.524
87370W        W46664   4.802  26.102   4.121
87371W        W46665  39.995   5.866  10.460
87372W        W46666  39.941   1.353  11.059
87373W        W46667  42.911  32.128   1.748
87374W        W46668   3.900  28.024  10.119
87375W        W46669  18.183   1.772  13.823
87376W        W46670   4.850  44.280  10.564
87377W        W46671  29.134  17.773   1.274
87378W        W46672  16.794  39.994   3.663
87379W        W46673  18.081  18.286   1.380
87380W        W46674  39.988  40.305  13.952
87381W        W46675   0.339  37.068  12.984
87382W        W46676  13.627  26.160  12.352
87383W        W46677  13.318   8.790   1.889
87384W        W46678  40.924  20.639  13.943
87385W        W46679  12.687  27.575  10.452
87386W        W46680   4.921   1.872  11.491
87387W        W46681  30.108  36.590  13.886
87388W        W46682   1.359  14.650  14.870
87389W        W46683  33.619  39.985   1.369
87390W        W46684  26.181  30.106  10.625
87391W        W46685  34.110  33.561  12.012
87392W        W46686  33.413  41.822  12.498
87393W        W46687  26.116  11.743   0.845
87394W        W46688  38.919  40.861  10.413
87395W        W46689  41.457  35.362  11.070
87396W        W46690  26.463  41.481  12.989
87397W        W46691  23.065  25.167  12.510
87398W        W46692  15.315  30.985   3.333
87399W        W46693  14.302   9.651   1.789
87400W        W46694  23.032  29.107   3.643
87401W        W46695  12.786  25.630   0.903
87402W        W46696   2.723  26.539  13.830
87403W        W46697   3.714  39.361   2.855
87404W        W46698  14.628  44.845   1.399
87405W        W46699   1.394  30.431   2.347
87406W        W46700  29.547  37.958  11.882
87407W        W46701  19.555  34.939   3.801
87408W        W46702  23.043  37.979  12.572
87409W        W46703  23.112  37.522  13.320
87410W        W46704  36.358  10.659   3.339
87411W        W46705  23.136  38.852   2.773
87412W        W46706  16.283   4.406  10.928
87413W        W46707  20.047  38.829   0.406
87414W        W46708  15.096  27.621   3.342
87415W        W46709  27.540  24.653  13.368
87416W        W46710  21.718  13.640  14.372
87417W        W46711  31.952  37.077   4.722
87418W        W46712  27.565  24.974  14.405
87419W        W46713   5.228  18.106  10.979
87420W        W46714   6.204  32.070  11.393
87421W        W46715  22.068   1.926  13.339
87422W        W46716  13.658   0.467   4.176
87423W        W46717  34.067  38.874   0.919
87424W        W46718  31.137  30.523  13.019
87425W        W46719  29.540  32.032   2.892
87426W        W46720  29.666  17.232  13.466
87427W        W46721  39.850  30.554   3.381
87428W        W46722  27.989  21.632  13.901
87429W        W46723  27.170  29.966   2.266
87430W        W46724   2.335  26.092  14.826
87431W        W46725  12.802  28.930   1.438
87432W        W46726   6.711  43.426  13.359
87433W        W46727  12.732  25.546   1.352
87434W        W46728  17.558  35.037   4.126
87435W        W46729   6.725  26.616   4.786
87436W        W46730  39.421  11.332  13.012
87437W        W46731  41.877  31.992  14.849
87438W        W46732   9.826  28.652   0.945
87439W        W46733   8.863  29.487   1.725
87440W        W46734  16.709  17.269  13.465
87441W        W46735   4.391  36.078  14.460
87442W        W46736  20.103  19.284  12.903
87443W        W46737  37.499  28.593   0.435
87444W        W46738  35.931   4.433  11.602
87445W        W46739  10.306  12.614  12.339
87446W        W46740   5.863  17.661   1.881
87447W        W46741   3.815  13.795   0.738
87448W        W46742  26.974  33.008  12.496
87449W        W46743  19.252  21.247  13.818
87450W        W46744  44.875  23.094   1.421
87451W        W46745  16.639  23.220   2.202
87452W        W46746  33.624  15.312  11.981
87453W        W46747   7.719  37.839   0.826
87454W        W46748  25.608   4.385   3.265
87455W        W46749   7.312  26.660  13.536
87456W        W46750   1.260  36.392  10.631
87457W        W46751  17.160  32.909   1.380
87458W        W46752  34.003  34.457   3.167
87459W        W46753  22.144  14.172  10.621
87460W        W46754   3.382  12.674   3.850
87461W        W46755  21.562  25.600  11.121
87462W        W46756  23.613  40.907   2.786
87463W        W46757  24.172  16.764   2.267
87464W        W46758   4.365   0.292  13.344
87465W        W46759  12.848   8.197  14.375
87466W        W46760  12.230  16.207   0.477
87467W        W46761   8.208  10.652   2.710
87468W        W46762  14.828   1.347  12.545
87469W        W46763  36.542   6.293  14.929
87470W        W46764   6.200  40.423  14.397
87471W        W46765  33.932   3.863   0.890
87472W        W46766   2.753  16.216   0.362
87473W        W46767  19.228  10.668  14.430
87474W        W46768  44.813  29.597   4.170
87475W        W46769  29.144  19.116  11.058
87476W        W46770  35.965  13.617  14.488
87477W        W46771   5.744  42.518  13.010
87478W        W46772  25.547  20.717  11.052
87479W        W46773  19.215   0.801  12.900
87480W        W46774  15.790  34.510  10.577
87481W        W46775  40.482  10.673  11.448
87482W        W46776  15.721  17.178   3.273
87483W        W46777  42.959   8.234  14.866
87484W        W46778  14.669  11.145  14.416
87485W        W46779  34.874  14.665   1.342
87486W        W46780   1.774   3.441  13.020
87487W        W46781  15.137  39.033  12.428
87488W        W46782  34.091  35.540  14.506
87489W        W46783   9.204   8.301  10.545
87490W        W46784   0.873  14.100   1.222
87491W        W46785   9.764  38.939   3.184
87492W        W46786  23.148  21.133   4.749
87493W        W46787   8.288  34.406   2.245
87494W        W46788  41.332  16.653  12.453
87495W        W46789  35.061  14.730   1.852
87496W        W46790   5.766  29.009  10.539
87497W        W46791   8.160   7.847   1.721
87498W        W46792   0.456   4.304  10.534
87499W        W46793   1.327   4.916  10.464
87500W        W46794  44.830  41.991  14.817
87501W        W46795  29.139   4.277  11.978
87502W        W46796  36.085  23.536  13.392
87503W        W46797  13.305  40.350   3.160
87504W        W46798  19.090  28.017   4.340
87505W        W46799  13.237  31.628  10.428
87506W        W46800  32.095  41.342   4.749
87507W        W46801  44.918  10.662  14.888
87508W        W46802  21.172  41.319   1.262
87509W        W46803   1.899  29.499  11.047
87510W        W46804  26.533  15.602   5.121
87511W        W46805  17.693  17.777  10.546
87512W        W46806  34.970  10.633  11.900
87513W        W46807  25.145  35.453   1.831
87514W        W46808  10.175  37.886   1.702
87515W        W46809   7.804   4.934  14.818
87516W        W46810  42.819  24.088  13.869
87517W        W46811  14.099  35.460  14.797
87518W        W46812  18.289  16.677  11.058
87519W        W46813   3.234   0.901   4.176
87520W        W46814  33.416  43.964  11.588
87521W        W46815  11.790  39.840   1.698
87522W        W46816   8.881   4.345  10.543
87523W        W46817  13.146   7.267  13.414
87524W        W46818   7.363  29.553   1.893
87525W        W46819  39.940  31.423   0.802
87526W        W46820  11.661   5.708  10.928
87527W        W46821  36.938  19.242  12.869
87528W        W46822  33.511  35.451   0.296
87529W        W46823  23.710  16.786   2.727
87530W        W46824  44.779  40.885   4.708
87531W        W46825  18.069   6.414   2.227
87532W        W46826  10.715  16.147   0.918
87533W        W46827  44.887   7.887  14.507
87534W        W46828  36.922   1.885   3.654
87535W        W46829  38.848  35.441  10.595
87536W        W46830  44.892  34.384   0.356
87537W        W46831  25.993   1.394   1.416
87538W        W46832  21.132  32.062  13.370
87539W        W46833  36.912  27.180   4.637
87540W        W46834   8.869   3.855  10.583
87541W        W46835  19.256  32.019   2.309
87542W        W46836   7.285  38.559  13.827
87543W        W46837   4.935  18.675  10.904
87544W        W46838   7.847  27.110  13.313
87545W        W46839   7.312  17.644   1.378
87546W        W46840   2.458   9.746  14.859
87547W        W46841  23.218  28.646   4.143
87548W        W46842  37.472  21.748   0.318
87549W        W46843  36.094  18.233  11.902
87550W        W46844  29.143  19.046   4.323
87551W        W46845  36.004  41.970   1.264
87552W        W46846  35.576   4.822  11.930
87553W        W46847   8.299  21.597   2.727
87554W        W46848  11.693   4.790  13.492
87555W        W46849  38.954  32.125   1.331
87556W        W46850   2.281   7.889   0.813
87557W        W46851  40.883  29.612  10.477
87558W        W46852  32.114  39.534   4.715
87559W        W46853  15.288  29.477   0.876
87560W        W46854   8.338  42.512   0.417
87561W        W46855   4.848   8.672   0.468
87562W        W46856  17.213  16.642  10.619
87563W        W46857  30.032  38.829   1.819
87564W        W46858  40.340   9.328   0.858
87565W        W46859   8.205  35.989  13.823
87566W        W46860   4.857  16.604   2.879
87567W        W46861   5.745   4.933  10.996
87568W        W46862  29.515  41.448  14.514
87569W        W46863  38.920  29.136  12.525
87570W        W46864  40.835   7.200  13.381
87571W        W46865   9.257  41.870  12.958
87572W        W46866  35.509  40.989  14.512
87573W        W46867  26.666  23.590  12.092
87574W        W46868  24.170  22.166   1.905
87575W        W46869   2.916  20.244   2.373
87576W        W46870  37.844  16.734  12.538
87577W        W46871  12.142  36.389  13.858
87578W        W46872   4.213  17.687   4.796
87579W        W46873  44.425  18.171   1.369
87580W        W46874  31.951  23.051  14.909
87581W        W46875  24.690   1.246   4.202
87582W        W46876  35.396  22.251  12.909
87583W        W46877  41.886  30.515  13.904
87584W        W46878  23.984  13.710   2.217
87585W        W46879  25.155  40.017  13.053
87586W        W46880  21.589   9.681  14.455
87587W        W46881  30.992  11.721   3.188
87588W        W46882  27.015  24.078  12.472
87589W        W46883  37.892   6.249   5.162
87590W        W46884  28.449   0.356  13.039
87591W        W46885  16.781  44.963  10.976
87592W        W46886  17.639  41.973   2.767
87593W        W46887   7.404  14.670  14.453
87594W        W46888  18.221  30.142  10.644
87595W        W46889  30.974  28.627   0.376
87596W        W46890   8.357  27.089   2.836
87597W        W46891  37.500  42.880  10.631
87598W        W46892  33.418  42.491  13.473
87599W        W46893  14.690  43.901   2.245
87600W        W46894  30.498  36.427   3.777
87601W        W46895  39.352   1.270  12.391
87602W        W46896   5.774  12.300   2.682
87603W        W46897  33.390   2.920  13.358
87604W        W46898  37.889  32.941   1.336
87605W        W46899  41.960   5.351  13.806
87606W        W46900  44.380   7.861  10.465
87607W        W46901  29.102  44.883  10.530
87608W        W46902  10.669  16.273  11.538
87609W        W46903  37.919  43.482  12.838
87610W        W46904  36.426  42.889  12.846
87611W        W46905   5.767  12.658  12.432
87612W        W46906   3.838  38.969   3.865
87613W        W46907  40.311  26.609  12.389
87614W        W46908  18.546  37.881   2.347
87615W        W46909   0.850  39.493   3.727
87616W        W46910  30.139  36.584  10.998
87617W        W46911  23.595  38.442  10.910
87618W        W46912   7.899  17.163   3.864
87619W        W46913   2.395  11.678   4.150
87620W        W46914  32.900   9.717   0.747
87621W        W46915  17.733  37.858   0.388
87622W        W46916  29.013   1.294  13.929
87623W        W46917   3.895  35.875   3.387
87624W        W46918  26.201  11.749  12.856
87625W        W46919  28.058  15.763   4.147
87626W        W46920  33.490  38.008  13.014
87627W        W46921  32.942  11.660   4.325
87628W        W46922  43.890  37.520   0.430
87629W        W46923  31.429  25.667  11.431
87630W        W46924  13.199   9.168  10.961
87631W        W46925  17.659  19.062   0.356
87632W        W46926   1.271  10.174  11.018
87633W        W46927  23.555  38.895   1.723
87634W        W46928  27.182  25.163   3.720
87635W        W46929  31.467  18.248  12.849
87636W        W46930   7.781  28.974  12.487
87637W        W46931  25.646  16.712  11.022
87638W        W46932  12.348  28.626  10.539
87639W        W46933   0.906  32.976   1.375
87640W        W46934  36.586   2.407  12.865
87641W        W46935  39.324  44.911   1.342
87642W        W46936   2.447   5.852   0.868
87643W        W46937  10.374  30.104  14.997
87644W        W46938  26.597  33.415  14.898
87645W        W46939  41.367  32.905  10.528
87646W        W46940  40.902  25.964  11.449
87647W        W46941  29.013  18.571  10.983
87648W        W46942   3.301   9.693   3.690
87649W        W46943  43.820  42.983   2.792
87650W        W46944  21.180   3.754  14.911
87651W        W46945   9.286  24.623   2.340
87652W        W46946  19.183   2.464  12.514
87653W        W46947  39.547  30.603   4.153
87654W        W46948  20.730  31.473  11.891
87655W        W46949  20.678  22.207   1.900
87656W        W46950  33.900  25.171   0.852
87657W        W46951   5.701   4.438   0.327
87658W        W46952  38.854  15.324   3.313
87659W        W46953  14.754  26.644  14.512
87660W        W46954  31.428   8.847   4.303
87661W        W46955   2.332  25.545   4.807
87662W        W46956  32.909  42.396  13.943
87663W        W46957  19.136  13.310   2.779
87664W        W46958  15.099  31.598   3.850
87665W        W46959  39.884   7.253  12.437
87666W        W46960  41.881  12.163  10.969
87667W        W46961   1.244  15.720  13.943
87668W        W46962  16.621  23.688   3.675
87669W        W46963  26.694   3.781   0.789
87670W        W46964  43.835   6.883  10.989
87671W        W46965  25.008  32.037   1.271
87672W        W46966  12.327  25.972  12.496
87673W        W46967  29.662  36.999  10.513
87674W        W46968  30.001  23.525  13.354
87675W        W46969  28.000  21.074  12.546
87676W        W46970   1.753  31.520   0.268
87677W        W46971  12.219   2.953  14.462
87678W        W46972   2.730  15.657  10.534
87679W        W46973  44.007   4.241  14.774
87680W        W46974  28.659  31.052   1.737
87681W        W46975  25.076   3.782   0.888
87682W        W46976  27.192   4.937   2.783
87683W        W46977   4.278  44.446   4.598
87684W        W46978   8.757  28.956   1.838
87685W        W46979  25.645  19.152   0.865
87686W        W46980  16.187  14.150   3.162
87687W        W46981   2.361  11.334  11.098
87688W        W46982  23.141  38.510  11.095
87689W        W46983  14.778  31.001  12.490
87690W        W46984   8.875  21.667  10.436
87691W        W46985  12.344  24.013  11.868
87692W        W46986  29.105   5.924  11.098
87693W        W46987  31.554  43.823  11.101
87694W        W46988  44.329  37.501   3.358
87695W        W46989   8.846  38.846   1.700
87696W        W46990   3.317  31.412  11.945
87697W        W46991  28.004  32.474  12.380
87698W        W46992  38.482  11.665   0.962
87699W        W46993  17.092  30.953  13.829
87700W        W46994   2.793   3.948   2.768
87701W        W46995  42.911  28.439   2.231
87702W        W46996  22.667   0.959   2.179
87703W        W46997   2.383  30.616   1.791
87704W        W46998  29.017  18.563   2.231
87705W        W46999  41.903  22.716  10.074
87706W        W47000  44.989  24.533   3.273
87707W        W47001  40.990  15.800   1.786
87708W        W47002  19.716   8.811   2.196
87709W        W47003   9.376   7.253  12.389
87710W        W47004  41.959  44.300  12.557
87711W        W47005   2.356  31.499   3.223
87712W        W47006  17.236  39.478  11.512
87713W        W47007   0.257  32.035  10.418
87714W        W47008   5.736   3.754   3.201
87715W        W47009  14.325  16.161   1.262
87716W        W47010  14.791  20.577  13.452
87717W        W47011  13.180   7.349   4.742
87718W        W47012  39.396  30.093  14.932
87719W        W47013  11.143   2.819  11.389
87720W        W47014  14.139   4.815   2.748
87721W        W47015  17.703  22.671  11.589
87722W        W47016  37.395  39.405   0.367
87723W        W47017  16.229   1.921  13.060
87724W        W47018  43.816  44.899  12.361
87725W        W47019  15.800  42.477  14.999
87726W        W47020  12.622  28.992  13.859
87727W        W47021   8.372  15.670   4.773
87728W        W47022  36.884  26.055  14.924
87729W        W47023  33.108  41.016  12.915
87730W        W47024   0.337   7.354   0.402
87731W        W47025  12.352   8.272   0.441
87732W        W47026  27.066  41.998   0.387
87733W        W47027  22.626  21.087   4.351
87734W        W47028  43.460  21.137  11.503
87735W        W47029   5.693  11.265  10.484
87736W        W47030  39.413  32.030  14.778
87737W        W47031   0.980   6.758   4.130
87738W        W47032   5.911  43.371   0.948
87739W        W47033  33.625  41.789  13.387
87740W        W47034   1.810  39.017  14.378
87741W        W47035   8.210  20.252  10.427
87742W        W47036  10.694  10.814  12.936
87743W        W47037  26.055   0.420  10.586
87744W        W47038   9.212   9.691  14.490
87745W        W47039  32.891  15.273   1.932
87746W        W47040   3.420  33.493   0.911
87747W        W47041  13.237  21.542  10.571
87748W        W47042  25.108  44.261  12.032
87749W        W47043   1.928  19.041   4.261
87750W        W47044  14.148   1.357   0.794
87751W        W47045   4.303  16.681  11.911
87752W        W47046   3.725  38.986   2.377
87753W        W47047  16.076   1.428   2.350
87754W        W47048  26.468  22.670  12.053
87755W        W47049   2.853  14.308   0.400
87756W        W47050  14.100   1.364  11.951
87757W        W47051  35.902   2.296   0.447
87758W        W47052  29.580   7.406   1.749
87759W        W47053  22.517  34.542   0.808
87760W        W47054  27.013  29.967  14.333
87761W        W47055  33.464   2.423   0.929
87762W        W47056  16.574   1.328  12.879
87763W        W47057  44.488  16.574   5.216
87764W        W47058  35.087  28.965  14.295
87765W        W47059  21.217  19.120  14.869
87766W        W47060  31.447   8.311  12.577
87767W        W47061  32.087  20.094   3.645
87768W        W47062  13.108  33.401  13.847
87769W        W47063  35.559   8.900   2.211
87770W        W47064   8.709   5.888  12.416
87771W        W47065  15.302  20.146  13.481
87772W        W47066  31.022  19.278  14.431
87773W        W47067  30.930  38.518   2.698
87774W        W47068   5.363  17.166   0.403
87775W        W47069  25.677   6.264  14.282
87776W        W47070  16.257  26.466   2.903
87777W        W47071  16.585  28.023  13.308
87778W        W47072  15.647  37.450   3.784
87779W        W47073   9.692   4.926   3.852
87780W        W47074   7.752  26.577   9.993
87781W        W47075  10.790  11.624  11.003
87782W        W47076  18.705   8.669   0.359
87783W        W47077   1.468   9.774   0.728
87784W        W47078  36.027   5.313   0.426
87785W        W47079  16.809   5.257  10.977
87786W        W47080   0.340  17.714   1.751
87787W        W47081  38.944  17.156  14.426
87788W        W47082  19.050  26.014  12.351
87789W        W47083   0.268   5.733   0.456
87790W        W47084  18.776  12.820   4.703
87791W        W47085   6.902  41.007  13.513
87792W        W47086  31.519  42.456  14.763
87793W        W47087   4.848  19.610   4.308
87794W        W47088  25.674  41.451  10.515
87795W        W47089  32.932  10.286  12.082
87796W        W47090  36.550  41.344  10.939
87797W        W47091  14.592  19.213   4.816
87798W        W47092  21.206  42.993  12.968
87799W        W47093  19.596   6.347  12.376
87800W        W47094  13.726  29.112  12.978
87801W        W47095  19.625  26.999  12.402
87802W        W47096  33.539  16.694   2.180
87803W        W47097  18.162  30.994   0.376
87804W        W47098   3.748  20.554   4.149
87805W        W47099  27.985  38.569  11.600
87806W        W47100  23.693  15.624  14.457
87807W        W47101  18.731  14.182   4.657
87808W        W47102  43.282  33.907   4.202
87809W        W47103  14.204  38.419   4.315
87810W        W47104  33.004  15.770  13.846
87811W        W47105  31.979  43.010   3.361
87812W        W47106  41.015  14.257   4.131
87813W        W47107  26.577  14.726   0.899
87814W        W47108  44.441  34.933  14.277
87815W        W47109   2.750  23.161  11.933
87816W        W47110  39.405  28.641  12.353
87817W        W47111  42.823  35.076   5.254
87818W        W47112   1.262  35.073   1.811
87819W        W47113  27.454  21.556  14.475
87820W        W47114  31.997  38.974  13.365
87821W        W47115  20.159   1.803   2.407
87822W        W47116  16.196  27.059  12.003
87823W        W47117  25.055  12.799  12.549
87824W        W47118  29.141  10.796  10.538
87825W        W47119  19.563  30.514  14.979
87826W        W47120   3.743   3.815   3.817
87827W        W47121   5.272   0.493   1.827
87828W        W47122  30.036  27.010   1.908
87829W        W47123  25.567  20.618   2.866
87830W        W47124  14.148  13.153  14.303
87831W        W47125  29.066   1.443   0.792
87832W        W47126  18.687  14.221  11.480
87833W        W47127   4.428  41.373   2.407
87834W        W47128  18.285  33.918  13.354
87835W        W47129  15.822   7.206  13.522
87836W        W47130  37.934  42.975   3.201
87837W        W47131  27.625  24.620   2.902
87838W        W47132  11.868  14.159  14.504
87839W        W47133  13.642  40.333  14.816
87840W        W47134  30.630   2.253   2.209
87841W        W47135  21.536  25.711  14.394
87842W        W47136  37.906  28.446   4.246
87843W        W47137  10.205  36.587  14.782
87844W        W47138  28.145  39.521  13.534
87845W        W47139   3.415  41.527   1.416
87846W        W47140   6.358  12.302  11.915
87847W        W47141  19.612  40.052  14.984
87848W        W47142  44.294   8.342  11.034
87849W        W47143   0.458  36.393   0.316
87850W        W47144  30.535  33.562   0.466
87851W        W47145  15.673  43.823  10.516
87852W        W47146   8.890  12.351   1.728
87853W        W47147   2.940  38.837  13.515
87854W        W47148   3.374  29.157   1.313
87855W        W47149  30.078  27.133   2.218
87856W        W47150  22.579  27.119  13.921
87857W        W47151  44.875  16.220  11.578
87858W        W47152  39.554  28.633  11.125
87859W        W47153  31.553  34.456  13.307
87860W        W47154  35.856  34.915  13.376
87861W        W47155   8.163  12.278  11.415
87862W        W47156  42.932   8.336  12.395
87863W        W47157  35.515   0.468   0.749
87864W        W47158  16.286  19.726  13.021
87865W        W47159  29.140  10.260  10.969
87866W        W47160   8.840  43.860   1.924
87867W        W47161  28.510  35.031   3.871
87868W        W47162   3.942   1.266   0.286
87869W        W47163   8.324  40.349  13.884
87870W        W47164  12.246   1.900  13.908
87871W        W47165  32.018   6.208   5.254
87872W        W47166  18.588   9.197   2.837
87873W        W47167   1.751  25.584   3.637
87874W        W47168  15.085  24.043   4.605
87875W        W47169  35.368  14.165   1.260
87876W        W47170  31.027  37.559  14.966
87877W        W47171   7.819  34.578   4.245
87878W        W47172  36.474  10.147   2.203
87879W        W47173   5.911  39.835  12.965
87880W        W47174   0.750  17.758   3.688
87881W        W47175  18.282  29.977  14.960
87882W        W47176  17.127  30.424   4.695
87883W        W47177  39.348  33.968   1.871
87884W        W47178  43.272  18.699   0.729
87885W        W47179   2.726  40.932  12.847
87886W        W47180  22.663  27.951  11.116
87887W        W47181  40.360  31.437   1.400
87888W        W47182  30.622  30.972   3.197
87889W        W47183  42.451  33.087  14.959
87890W        W47184   7.671  42.925   2.813
87891W        W47185  31.092  18.596  11.876
87892W        W47186   0.419   2.345   1.276
87893W        W47187  13.752  35.371  10.926
87894W        W47188  11.651  34.417   4.732
87895W        W47189  37.480  24.688   2.772
87896W        W47190  13.681  22.592  13.825
87897W        W47191  42.985  37.572   5.098
87898W        W47192  37.928  13.631   4.640
87899W        W47193  18.675  36.950   0.378
87900W        W47194   2.333   9.250   1.766
87901W        W47195  27.001  39.376  11.441
87902W        W47196  38.851  33.888   1.401
87903W        W47197  10.840   0.982   5.632
87904W        W47198  10.860   5.254  10.970
87905W        W47199  42.351   3.271   0.381
87906W        W47200  33.096  15.195  12.977
87907W        W47201   0.830   3.364   0.930
87908W        W47202   7.714   6.262  14.027
87909W        W47203  32.635  41.530  10.069
87910W        W47204  30.140   5.824  13.864
87911W        W47205  36.091  35.472   3.155
87912W        W47206  18.126  17.208   1.230
87913W        W47207  29.431  30.048  12.396
87914W        W47208  35.369  36.093   0.938
87915W        W47209   9.279   2.390   0.927
87916W        W47210  39.361  24.991   0.293
87917W        W47211  26.118  13.637   1.224
87918W        W47212  31.957   6.184  13.841
87919W        W47213  39.943   2.280  11.375
87920W        W47214  18.573  44.464   4.146
87921W        W47215   1.736  40.365  12.361
87922W        W47216  39.317  29.923  13.982
87923W        W47217  41.400  38.491   4.817
87924W        W47218  14.742  13.267   0.797
87925W        W47219  28.013  36.856  13.373
87926W        W47220  18.775  40.475   5.284
87927W        W47221  25.151  18.284  13.792
87928W        W47222   6.721   8.202  12.548
87929W        W47223  16.173   1.806   0.894
87930W        W47224  44.878  18.282  12.464
87931W        W47225   1.959  43.807  11.930
87932W        W47226  20.274  17.667   2.411
87933W        W47227  10.744  34.519  10.903
87934W        W47228   0.808  44.489   2.316
87935W        W47229  22.511  31.447   0.300
87936W        W47230  42.898  28.066  11.393
87937W        W47231  24.546  20.208   4.348
87938W        W47232  34.868  16.267  10.432
87939W        W47233  23.503  11.652  11.553
87940W        W47234   4.401  35.513   3.200
87941W        W47235  33.895   9.268   0.858
87942W        W47236  23.674  31.502  10.415
87943W        W47237   4.832  26.165  11.447
87944W        W47238  20.214   9.166  12.432
87945W        W47239   2.470   7.354   1.710
87946W        W47240  17.582  24.660   3.639
87947W        W47241  30.924  26.999  11.877
87948W        W47242   0.780   4.448  13.886
87949W        W47243  34.865  22.632  10.604
87950W        W47244  37.441  39.555  12.908
87951W        W47245  10.337   5.218   4.773
87952W        W47246  34.920  44.320   0.940
87953W        W47247   7.185   2.385  10.011
87954W        W47248  29.035   8.403   1.703
87955W        W47249  37.372  18.613  12.951
87956W        W47250  43.813  18.279  13.400
87957W        W47251  38.856  25.573   0.385
87958W        W47252  20.044  15.620   4.801
87959W        W47253   1.889  10.266  10.474
87960W        W47254  10.144  10.652  10.604
87961W        W47255  20.268  10.211  11.104
87962W        W47256  30.436  26.200   0.278
87963W        W47257  26.656  24.229  12.554
87964W        W47258   7.807  22.237   3.151
87965W        W47259   9.349  30.615  11.060
87966W        W47260  22.579  39.431  13.964
87967W        W47261   2.921   3.947   4.710
87968W        W47262  22.670  42.783  13.503
87969W        W47263  31.641  27.133   1.323
87970W        W47264  30.489  13.815  13.966
87971W        W47265  30.550  32.104  13.003
87972W        W47266  18.772  43.432  11.077
87973W        W47267  33.024  15.598  10.993
87974W        W47268  33.424   4.381   3.327
87975W        W47269   9.174  13.785   4.172
87976W        W47270  29.103  15.704  14.993
87977W        W47271   7.764  30.921  13.005
87978W        W47272  42.330   4.372  13.012
87979W        W47273   2.866  22.047  13.417
87980W        W47274  43.920  19.679   2.720
87981W        W47275  29.168  43.351  13.939
87982W        W47276  34.581   9.873   4.812
87983W        W47277  39.814  11.189   2.822
87984W        W47278  40.459  43.342  14.497
87985W        W47279  10.322  21.694   2.374
87986W        W47280  11.156  26.515   2.830
87987W        W47281  12.122  39.973  10.938
87988W        W47282  24.549  22.522  11.585
87989W        W47283  32.462  32.514  12.846
87990W        W47284  15.134  28.557  13.984
87991W        W47285  18.179  28.956   3.274
87992W        W47286  26.656  20.031   0.762
87993W        W47287  27.162  44.288   3.308
87994W        W47288  11.264   3.437   3.172
87995W        W47289   3.370  40.402   1.308
87996W        W47290   2.444  19.754   4.235
87997W        W47291  44.345   9.841   9.969
87998W        W47292  31.152  44.775  13.314
87999W        W47293  27.612   4.711   0.385
88000W        W47294  37.383  44.312   0.756
88001W        W47295  14.663  20.650   1.394
88002W        W47296  20.535  34.051  14.966
88003W        W47297   9.324  27.647  14.498
88004W        W47298  11.652   4.384   1.361
88005W        W47299  34.451  42.333   3.187
88006W        W47300   8.241  42.962  14.003
88007W        W47301  37.937  30.105  14.797
88008W        W47302  43.324   9.308  10.492
88009W        W47303  22.184   4.360  12.090
88010W        W47304  27.687  33.949   4.723
88011W        W47305   2.436  35.488   4.817
88012W        W47306  11.729  37.406  12.427
88013W        W47307   2.835  22.694  10.420
88014W        W47308  23.068  20.568  11.942
88015W        W47309   0.347  14.603   1.253
88016W        W47310  34.026  39.347   3.855
88017W        W47311  42.848  16.794  13.037
88018W        W47312  42.890  17.721   2.249
88019W        W47313   6.270   1.779   3.195
88020W        W47314  38.870  44.391   0.732
88021W        W47315  13.782  23.728   4.319
88022W        W47316   6.753  39.471   3.630
88023W        W47317  11.324   0.459  12.947
88024W        W47318  16.249  33.381   1.243
88025W        W47319   9.687  17.140   1.429
88026W        W47320  11.809  24.199  13.871
88027W        W47321  11.792  14.129  11.473
88028W        W47322  41.299  37.885  12.040
88029W        W47323  36.368   6.787   4.661
88030W        W47324  11.301  27.009  13.438
88031W        W47325  34.938  36.930   0.286
88032W        W47326  21.241  31.531  12.410
88033W        W47327   6.311   9.812   0.768
88034W        W47328  30.126   6.691  12.363
88035W        W47329  41.499  41.978   4.124
88036W        W47330   5.737  44.269  11.982
88037W        W47331  11.217   5.299   2.320
88038W        W47332  37.379  19.246   4.682
88039W        W47333   8.679  23.629   2.712
88040W        W47334   5.804   4.827   0.317
88041W        W47335   4.756  40.920   0.420
88042W        W47336   1.797  30.003  12.853
88043W        W47337  38.068  41.475  14.786
88044W        W47338  39.421  16.072   0.866
88045W        W47339  40.968  37.005  10.533
88046W        W47340  14.628  28.020   2.330
88047W        W47341  30.975  35.402  11.054
88048W        W47342  24.983  27.014   3.321
88049W        W47343  35.429  17.753  14.353
88050W        W47344  20.622   5.796  14.889
88051W        W47345  16.619   3.281  13.019
88052W        W47346  34.380  36.946  13.455
88053W        W47347  38.908  35.045   0.944
88054W        W47348   4.832   1.909   2.296
88055W        W47349  43.773  14.269   2.194
88056W        W47350  32.572  34.121  12.577
88057W        W47351  14.223  25.704  14.385
88058W        W47352  20.587  28.494  13.955
88059W        W47353  24.573  13.622   3.319
88060W        W47354  20.566  43.902  10.506
88061W        W47355  22.122  39.855   4.646
88062W        W47356  35.078  23.673   4.836
88063W        W47357   1.824  35.867  14.854
88064W        W47358  28.454  36.996  12.080
88065W        W47359  30.457  29.621  10.968
88066W        W47360   3.244  30.417   0.242
88067W        W47361   4.258  24.072  10.421
88068W        W47362   1.879  21.079  11.512
88069W        W47363  24.973  13.212  10.427
88070W        W47364  16.810  18.647   9.662
88071W        W47365  15.612  11.283   4.813
88072W        W47366  42.477   2.749   4.772
88073W        W47367   3.718  32.589  11.962
88074W        W47368  13.763  39.032   1.386
88075W        W47369  13.174  38.361   1.851
88076W        W47370  28.083  16.109  14.427
88077W        W47371   6.370  15.171  13.883
88078W        W47372  35.935  32.454  13.029
88079W        W47373  26.169   0.894   4.307
88080W        W47374  21.187  12.655  10.904
88081W        W47375  23.237  42.857  13.862
88082W        W47376  30.602  10.161   1.372
88083W        W47377  31.549  21.224  12.887
88084W        W47378  29.525  16.663   4.717
88085W        W47379  28.644   9.184  14.291
88086W        W47380  39.918   7.693  13.881
88087W        W47381  15.763  25.098  13.018
88088W        W47382   9.674  37.934  13.906
88089W        W47383  41.997   8.248  11.887
88090W        W47384   5.272   3.324  14.861
88091W        W47385  29.632  26.057  14.845
88092W        W47386  20.056  26.012  10.611
88093W        W47387  28.557   8.226  12.528
88094W        W47388  40.938   6.842  11.443
88095W        W47389  44.910  26.034  13.527
88096W        W47390  29.551  11.693   3.188
88097W        W47391  29.159  33.592  12.834
88098W        W47392  31.148  38.992   4.288
88099W        W47393  38.424   7.754   4.149
88100W        W47394  21.513  14.162  11.919
88101W        W47395  17.284  14.603  11.039
88102W        W47396  40.864  25.024   1.870
88103W        W47397  22.012  19.112  12.984
88104W        W47398  23.089  16.590  11.540
88105W        W47399  19.188  38.466   1.237
88106W        W47400  16.790   4.363   3.741
88107W        W47401  22.153   0.957   0.294
88108W        W47402   8.371   7.908  14.849
88109W        W47403  35.880  19.199   4.676
88110W        W47404   7.733  10.340  12.419
88111W        W47405   1.870  37.951  12.364
88112W        W47406  42.400  30.106  13.337
88113W        W47407  37.994  28.065   0.819
88114W        W47408  15.098  16.644   0.406
88115W        W47409  35.560   9.357   2.739
88116W        W47410  38.356  14.764   3.685
88117W        W47411  13.834   4.314   2.830
88118W        W47412  14.808  18.618  14.388
88119W        W47413  41.879   5.760   4.178
88120W        W47414  38.555  15.233  13.036
88121W        W47415  11.313  35.469  10.492
88122W        W47416  30.062  17.180  14.307
88123W        W47417   9.248   7.398   1.701
88124W        W47418  24.046  42.525  13.958
88125W        W47419  11.296  22.657   2.677
88126W        W47420  11.138   1.955  12.911
88127W        W47421  37.074  12.732   1.242
88128W        W47422  44.335  29.472  13.825
88129W        W47423  10.210  44.470   3.692
88130W        W47424   8.688  31.934  13.395
88131W        W47425   5.212  22.695   3.644
88132W        W47426  27.593  26.085   2.739
88133W        W47427   1.278  12.155  13.520
88134W        W47428  24.151  43.408   4.266
88135W        W47429  31.972  42.028   2.348
88136W        W47430  38.895  14.328   0.752
88137W        W47431  14.340   9.271   0.411
88138W        W47432  10.750   1.774   9.658
88139W        W47433  13.344  40.453  14.373
88140W        W47434  37.867   2.805  14.764
88141W        W47435  17.191  11.179   0.829
88142W        W47436  27.051  42.780   2.776
88143W        W47437  36.433  37.506  13.391
88144W        W47438  39.970  30.065   3.715
88145W        W47439  23.560  43.369   0.752
88146W        W47440   3.815  31.453  14.478
88147W        W47441  35.089  32.079   2.269
88148W        W47442  43.015  33.415   5.203
88149W        W47443  29.143  41.291   0.246
88150W        W47444   2.835  26.512   2.734
88151W        W47445  20.599  22.667  10.542
88152W        W47446  31.036   2.935  12.830
88153W        W47447  10.266  23.215  14.469
88154W        W47448  11.723  14.340  14.001
88155W        W47449  39.975   5.425   4.746
88156W        W47450  42.902  35.585   4.731
88157W        W47451   0.255  43.918   0.260
88158W        W47452  44.274  19.266   3.820
88159W        W47453  40.797   1.459   3.667
88160W        W47454   0.747  22.548   3.862
88161W        W47455  20.623  36.954  14.027
88162W        W47456  11.167   9.753  13.888
88163W        W47457  11.282   0.917  13.523
88164W        W47458  39.952  44.996  11.094
88165W        W47459  20.068  12.716  10.413
88166W        W47460  13.825  11.357  11.535
88167W        W47461  44.927  29.128   4.725
88168W        W47462   5.349  25.963   4.289
88169W        W47463  11.162   1.831  10.410
88170W        W47464  36.558  31.977  10.628
88171W        W47465  28.531  30.562   3.776
88172W        W47466  13.782  32.072  13.937
88173W        W47467  26.550   8.272   1.769
88174W        W47468  32.430  29.935  12.087
88175W        W47469   6.833  19.280  11.552
88176W        W47470  22.168  40.903   0.259
88177W        W47471  14.826  24.988  10.033
88178W        W47472   2.402  18.597  10.934
88179W        W47473  42.505   6.805   2.211
88180W        W47474  37.062  24.223   0.853
88181W        W47475  17.790  15.685  14.512
88182W        W47476  38.069  13.245   0.340
88183W        W47477  10.694   0.775   4.287
88184W        W47478  35.440  35.385   0.304
88185W        W47479   4.228  21.739   3.240
88186W        W47480  20.130  39.435   2.903
88187W        W47481  14.676  39.860   1.865
88188W        W47482   4.894  32.585   3.763
88189W        W47483  38.373   1.478  10.899
88190W        W47484  13.298   9.251  12.049
88191W        W47485  19.751  29.602   3.233
88192W        W47486  35.011  29.576  14.394
88193W        W47487  10.151  16.278   3.782
88194W        W47488  27.184   4.821   0.746
88195W        W47489  13.655  39.908  11.603
88196W        W47490  25.575  10.285  14.900
88197W        W47491  31.985  11.857   1.221
88198W        W47492  36.898  20.089  13.309
88199W        W47493   1.438  24.606  10.620
88200W        W47494  32.143  10.359  10.953
88201W        W47495  41.308  15.723   3.375
88202W        W47496  43.478  43.511   4.634
88203W        W47497  21.616  28.582   4.671
88204W        W47498  23.054  36.564  11.049
88205W        W47499  42.965   7.200  14.433
88206W        W47500   6.778  18.218   2.367
88207W        W47501  28.984  44.788   2.898
88208W        W47502  32.396   0.450  14.278
88209W        W47503   3.926  27.169   0.260
88210W        W47504  21.549  44.870  14.433
88211W        W47505  42.985  29.135   3.640
88212W        W47506  14.184  34.962  14.977
88213W        W47507  32.538   8.336  12.541
88214W        W47508  22.570  33.523  12.988
88215W        W47509   0.376   0.771  11.939
88216W        W47510  40.534   6.221  12.007
88217W        W47511  14.294  31.422   2.735
88218W        W47512   9.777  36.532   1.784
88219W        W47513  31.560  37.884  10.531
88220W        W47514  15.170  42.821  11.575
88221W        W47515  42.789  23.515   0.858
88222W        W47516  36.845  21.161  14.303
88223W        W47517  26.182  26.175  14.981
88224W        W47518  35.855  10.336  12.542
88225W        W47519   1.923  31.402  10.543
88226W        W47520  40.460  26.656   4.743
88227W        W47521  27.119  26.987   0.339
88228W        W47522  31.613   6.393  10.410
88229W        W47523  27.064  12.779  12.394
88230W        W47524   2.289  19.130   4.221
88231W        W47525  23.104  42.326  13.053
88232W        W47526  39.392  43.388   1.292
88233W        W47527  17.725   5.293  11.550
88234W        W47528  34.947   3.888  14.508
88235W        W47529  25.697  18.277  14.354
88236W        W47530  40.370  22.248  14.901
88237W        W47531  13.780  24.064   3.663
88238W        W47532  11.674  34.531   1.278
88239W        W47533  44.326  44.867  11.593
88240W        W47534   0.824  20.724   1.402
88241W        W47535  25.210  30.615   1.374
88242W        W47536  10.324  13.180  12.370
88243W        W47537  31.485  20.571   3.198
88244W        W47538   4.425  24.589   2.320
88245W        W47539  10.286  42.875  12.863
88246W        W47540  43.021   1.397   0.907
88247W        W47541  42.497   1.921   2.384
88248W        W47542  20.050  20.041   9.987
88249W        W47543  22.086  23.708  14.339
88250W        W47544  17.784  17.181   3.670
88251W        W47545  34.513  23.201   4.187
88252W        W47546  19.276   5.284  12.509
88253W        W47547   0.326  28.611   1.749
88254W        W47548   2.433  11.810   9.956
88255W        W47549  31.909  43.395   3.775
88256W        W47550  35.588  10.244  10.551
88257W        W47551  13.635  39.540  12.355
88258W        W47552  25.208   1.258   1.307
88259W        W47553  38.966  28.128  10.543
88260W        W47554  25.569  43.381   3.695
88261W        W47555  14.794  39.027   2.788
88262W        W47556  30.525  44.787  12.475
88263W        W47557  14.834  16.772  14.297
88264W        W47558   0.874   3.441  13.346
88265W        W47559  20.205  25.206   1.274
88266W        W47560  41.312  17.131   1.702
88267W        W47561  15.164  29.164   1.300
88268W        W47562  36.545  42.486  14.327
88269W        W47563  11.224  14.731  10.485
88270W        W47564  22.509  25.186   4.702
88271W        W47565  15.088  21.087   3.343
88272W        W47566  37.460  35.991  14.928
88273W        W47567  26.701  10.225  10.633
88274W        W47568  33.005  36.852   4.660
88275W        W47569  40.829  35.528   3.782
88276W        W47570  40.410  20.630   1.219
88277W        W47571  25.015  25.626   2.408
88278W        W47572   3.443  30.908  14.765
88279W        W47573  13.265  23.693  11.558
88280W        W47574  11.718  31.537   5.755
88281W        W47575   3.795  18.158   3.787
88282W        W47576  14.807  35.383   2.667
88283W        W47577  21.670  21.165  10.437
88284W        W47578   7.834  22.696  14.468
88285W        W47579  42.336  36.357  14.328
88286W        W47580  38.025  35.528   2.414
88287W        W47581   3.750  29.472   0.777
88288W        W47582  30.650  10.844  10.492
88289W        W47583  38.335   9.313   4.263
88290W        W47584  33.416   5.402  12.825
88291W        W47585  25.100  34.460  13.494
88292W        W47586  15.610  44.756  10.998
88293W        W47587   5.923  24.688  10.527
88294W        W47588  23.996   1.401  13.454
88295W        W47589  36.375  42.993  10.604
88296W        W47590   1.948  27.095   1.794
88297W        W47591   7.341  37.387   1.247
88298W        W47592  28.961  18.070   3.341
88299W        W47593   8.385  38.905  14.285
88300W        W47594  38.568  17.649   4.163
88301W        W47595   0.350  36.858  12.094
88302W        W47596  12.679  18.201   4.287
88303W        W47597  43.291  44.000  10.568
88304W        W47598  39.410  25.989  11.438
88305W        W47599  38.420  19.120  14.369
88306W        W47600  16.753   4.797  11.460
88307W        W47601   4.224  34.953  11.398
88308W        W47602  29.502  32.489  10.528
88309W        W47603   0.489  30.952   1.750
88310W        W47604  11.243  26.016  12.468
88311W        W47605  20.175  40.478  14.380
88312W        W47606   8.787  31.070  14.289
88313W        W47607   8.246  26.096  14.859
88314W        W47608  22.058  21.213  12.918
88315W        W47609   3.855  13.742   4.168
88316W        W47610  18.200   9.390  14.438
88317W        W47611  23.133  13.154  13.031
88318W        W47612  26.580  27.674   4.282
88319W        W47613  35.425  20.561   0.285
88320W        W47614  36.070   0.269  13.375
88321W        W47615  35.024  29.008  12.010
88322W        W47616  14.179  30.584   1.242
88323W        W47617  33.064  29.169  11.106
88324W        W47618  43.018  29.055   1.281
88325W        W47619   6.869   0.486  13.425
88326W        W47620   2.870  30.993   4.328
88327W        W47621  31.485  21.243   0.730
88328W        W47622  23.654  34.609  14.769
88329W        W47623   4.920  21.698   2.392
88330W        W47624  32.486   9.644   4.827
88331W        W47625  30.954  41.925   0.935
88332W        W47626  20.261  22.571   0.876
88333W        W47627  38.554   8.328  13.950
88334W        W47628  29.064   9.700  10.517
88335W        W47629   7.735  13.698   4.707
88336W        W47630  43.450   8.230   4.154
88337W        W47631  42.927  35.032   2.334
88338W        W47632  36.919  18.186   4.644
88339W        W47633  19.563  16.266  11.103
88340W        W47634  26.509   4.764   1.251
88341W        W47635  11.370  21.706  11.018
88342W        W47636  35.588  29.056   3.865
88343W        W47637  23.688  36.989  14.453
88344W        W47638   7.780  18.114   2.883
88345W        W47639  41.878   3.713  11.425
88346W        W47640   7.724  26.202   3.361
88347W        W47641   1.373   4.424   4.798
88348W        W47642  22.578   5.776   2.402
88349W        W47643  42.415  33.899  11.540
88350W        W47644  25.531  40.422   3.737
88351W        W47645  33.131  24.526  13.359
88352W        W47646  32.392  34.548   3.651
88353W        W47647  26.955  12.764   4.338
88354W        W47648  43.383  29.451  11.575
88355W        W47649  21.699  35.557   2.244
88356W        W47650  24.604  17.261   3.710
88357W        W47651   3.399   7.677  11.107
88358W        W47652  11.735  20.133   3.310
88359W        W47653  31.433  20.528   2.722
88360W        W47654  19.275   2.414   1.287
88361W        W47655  18.604  31.064   2.860
88362W        W47656   4.865   3.826   3.246
88363W        W47657  21.186  11.211  10.997
88364W        W47658   3.854  21.744   3.349
88365W        W47659  37.351   5.865   1.317
88366W        W47660   4.850  27.103   0.342
88367W        W47661  31.021  26.503   1.742
88368W        W47662  35.384  12.696  12.530
88369W        W47663  27.185  37.964  14.323
88370W        W47664   6.887   9.186  13.841
88371W        W47665  31.911   5.781   4.128
88372W        W47666  30.971   6.786  11.477
88373W        W47667  17.109  26.983   4.673
88374W        W47668  16.102  43.425   2.327
88375W        W47669  19.094  17.137   2.900
88376W        W47670  39.923  32.416  12.981
88377W        W47671  14.131  15.676  11.453
88378W        W47672   2.823   8.679   4.328
88379W        W47673  17.073  36.012   1.877
88380W        W47674  30.577  22.619   0.391
88381W        W47675  16.762  40.377  11.503
88382W        W47676  39.488  43.851  10.431
88383W        W47677  30.632  26.958  10.930
88384W        W47678   0.971  24.654  12.519
88385W        W47679  10.752  24.139   2.359
88386W        W47680  30.049   2.956  14.319
88387W        W47681  22.063  44.865   1.364
88388W        W47682  16.164  13.157   5.595
88389W        W47683  25.137  12.756   4.304
88390W        W47684  17.711  22.604   1.890
88391W        W47685   6.281  38.044   2.840
88392W        W47686  35.002   8.197   1.210
88393W        W47687  27.591  31.082  14.970
88394W        W47688  13.599  19.727  10.105
88395W        W47689  18.674  10.782   0.400
88396W        W47690  37.370  36.855  12.568
88397W        W47691  26.040   4.814   0.459
88398W        W47692  40.417  12.712   1.886
88399W        W47693  44.268  16.640   1.400
88400W        W47694  41.818   6.268  14.800
88401W        W47695  44.912   7.834  13.891
88402W        W47696   0.913  26.702  14.893
88403W        W47697  16.109  17.693   0.944
88404W        W47698   9.842  29.436  11.531
88405W        W47699  41.922   5.196   2.810
88406W        W47700  24.068   8.339  13.886
88407W        W47701  24.172  23.088  10.536
88408W        W47702   8.211  22.645   4.212
88409W        W47703   1.304   5.261   3.327
88410W        W47704  36.536  13.686   0.850
88411W        W47705   2.757   1.464  11.490
88412W        W47706  10.324  23.508   0.919
88413W        W47707  13.621   7.206  13.959
88414W        W47708  44.296   8.331  12.835
88415W        W47709   2.295  38.007  11.922
88416W        W47710   2.309  25.574   1.856
88417W        W47711  15.121  30.033  10.920
88418W        W47712  22.183  39.421   3.363
88419W        W47713   5.311  22.501  12.455
88420W        W47714  31.001   6.418   5.246
88421W        W47715   1.732  22.221  13.450
88422W        W47716  21.568   4.902  13.539
88423W        W47717   6.795  24.634   3.281
88424W        W47718  38.478  21.723  12.047
88425W        W47719  20.632  28.063  13.325
88426W        W47720  31.114   5.703   3.633
88427W        W47721  32.575  31.044  13.373
88428W        W47722  18.710   6.272   1.213
88429W        W47723  18.618  37.890   1.758
88430W        W47724   2.936  23.686  13.412
88431W        W47725   0.402  34.943   1.420
88432W        W47726  32.608   7.301  11.502
88433W        W47727  17.173   5.244  14.963
88434W        W47728  13.117  11.709   5.094
88435W        W47729  12.189  34.534   4.605
88436W        W47730  26.597  29.438   1.299
88437W        W47731  23.194  26.150   2.265
88438W        W47732  34.979  21.149   4.177
88439W        W47733  42.435  14.622   2.279
88440W        W47734  26.507  43.980  13.031
88441W        W47735  39.416  26.604  13.001
88442W        W47736  23.494  24.673  14.799
88443W        W47737  22.021  34.024  13.515
88444W        W47738  37.535  27.106   1.408
88445W        W47739  33.597  34.067   0.435
88446W        W47740  18.590  27.976   3.203
88447W        W47741  43.498  14.628  10.574
88448W        W47742   2.408  36.419  14.812
88449W        W47743  16.287  16.153   4.152
88450W        W47744  18.050   4.821   1.440
88451W        W47745  32.540   4.380  10.461
88452W        W47746  19.629   4.712   0.252
88453W        W47747  40.041  40.822   1.880
88454W        W47748  42.281   5.202   1.408
88455W        W47749  34.553   3.333  10.434
88456W        W47750  28.540  16.158  14.024
88457W        W47751  28.939  21.037  14.885
88458W        W47752  24.029  24.569  11.994
88459W        W47753   7.781  25.610  13.311
88460W        W47754  14.297  42.899   0.859
88461W        W47755  18.631  39.878   2.689
88462W        W47756  30.608  29.996   3.194
88463W        W47757  11.868  34.048   1.709
88464W        W47758  13.152   3.719  10.498
88465W        W47759  31.910   2.956   3.174
88466W        W47760   7.253  28.137  10.989
88467W        W47761  43.431  44.994   3.156
88468W        W47762  26.686  27.167   0.947
88469W        W47763   6.301  14.807  12.032
88470W        W47764  24.097  22.554   1.429
88471W        W47765  23.572  23.578   1.260
88472W        W47766  31.904  16.273   3.229
88473W        W47767  43.930  16.240   2.186
88474W        W47768  40.341   7.670   2.835
88475W        W47769  39.911  42.857  11.449
88476W        W47770  20.092  15.759  12.355
88477W        W47771  36.373  41.318   4.302
88478W        W47772  37.499  14.279  13.507
88479W        W47773   3.809  30.626  12.882
88480W        W47774  26.022   2.740   1.222
88481W        W47775  14.291  19.635  13.329
88482W        W47776  40.406  40.983  11.934
88483W        W47777  41.516  13.334  10.584
88484W        W47778  44.966   2.756   3.755
88485W        W47779  19.050   7.360   0.431
88486W        W47780   6.372  30.062  12.961
88487W        W47781  15.090  29.985   3.155
88488W        W47782  33.590  40.854   1.251
88489W        W47783   2.948  32.482   4.629
88490W        W47784  24.166  41.912  10.623
88491W        W47785  33.614  14.136   1.311
88492W        W47786  44.833   8.250  12.352
88493W        W47787  16.160   7.347  12.515
88494W        W47788  10.195  24.636  14.484
88495W        W47789  18.634  13.628   0.916
88496W        W47790   8.894  37.010  14.873
88497W        W47791  40.898  42.452   1.843
88498W        W47792  25.661  29.653   2.781
88499W        W47793  38.999  19.767  14.029
88500W        W47794   9.273  29.537  10.952
88501W        W47795  15.157  17.200   1.874
88502W        W47796  13.710  11.637   2.859
88503W        W47797  44.000  36.514  10.588
88504W        W47798  21.054  37.031   0.743
88505W        W47799  43.012  43.299   1.926
88506W        W47800  44.842  17.243   0.823
88507W        W47801  19.591   7.199  11.949
88508W        W47802  11.228  24.720   3.788
88509W        W47803   2.370  42.333   4.347
88510W        W47804  25.092  14.291  12.421
88511W        W47805  25.200  38.395   4.729
88512W        W47806   6.277  28.064   2.417
88513W        W47807  35.429  21.196  14.764
88514W        W47808  41.034   3.246  12.559
88515W        W47809  30.001  17.226   1.771
88516W        W47810  10.745   5.351   0.313
88517W        W47811  21.169  31.979   3.665
88518W        W47812   6.371  12.212   2.404
88519W        W47813  42.442  42.969   0.309
88520W        W47814  36.384  16.584  14.872
88521W        W47815  16.812  26.696   0.391
88522W        W47816  25.623  19.752  13.965
88523W        W47817  10.357  40.986   0.333
88524W        W47818   5.217   3.942  13.520
88525W        W47819   6.355  19.105  13.370
88526W        W47820   6.264   5.894   0.401
88527W        W47821  30.952  10.186  14.512
88528W        W47822   6.859  21.243  14.831
88529W        W47823  12.613  41.449   4.648
88530W        W47824  20.204   1.291  13.011
88531W        W47825  32.083  24.097  10.482
88532W        W47826  43.968   1.946   2.798
88533W        W47827  35.001  23.106  14.487
88534W        W47828  37.957  38.376   2.743
88535W        W47829  25.040  24.520   2.793
88536W        W47830   2.405   9.682  10.525
88537W        W47831  29.555   1.430   2.896
88538W        W47832  27.951   5.380  14.370
88539W        W47833  19.546   4.363   3.776
88540W        W47834  18.703  12.193   4.184
88541W        W47835  15.161  38.455  10.477
88542W        W47836  39.558  14.165   0.457
88543W        W47837  22.222  16.652   2.902
88544W        W47838   9.205  29.586   4.798
88545W        W47839  29.051  13.297   1.439
88546W        W47840  35.916  27.503  10.617
88547W        W47841  13.739  35.024   1.451
88548W        W47842  15.749  30.136   2.743
88549W        W47843   8.826  43.874  11.976
88550W        W47844  43.829   6.358  10.447
88551W        W47845  15.316  36.575  11.521
88552W        W47846  37.537  15.668   0.779
88553W        W47847   7.705  39.914   2.863
88554W        W47848  16.778  29.150  10.459
88555W        W47849  19.573  11.362  13.978
88556W        W47850  20.682  41.825  11.560
88557W        W47851  36.925  13.709   1.806
88558W        W47852  18.656  40.429   1.257
88559W        W47853  24.224  21.105   2.193
88560W        W47854  29.034   7.768   1.739
88561W        W47855  32.450  14.120   0.382
88562W        W47856   4.889  33.621   0.740
88563W        W47857   1.470  21.203  12.947
88564W        W47858  42.878  17.190  13.486
88565W        W47859  10.189   2.925   3.333
88566W        W47860  15.160   2.910  13.959
88567W        W47861  35.102  21.737  13.468
88568W        W47862  19.778   6.287  10.900
88569W        W47863  18.137  37.552   1.230
88570W        W47864   1.899  28.554  13.451
88571W        W47865  22.528  30.424   4.299
88572W        W47866  10.366  17.247   0.764
88573W        W47867   1.390   5.281  14.831
88574W        W47868   0.455  36.563   3.666
88575W        W47869   7.191   3.428   4.798
88576W        W47870  41.379   6.273  10.620
88577W        W47871  32.005  26.526  14.300
88578W        W47872  35.527  11.808   0.790
88579W        W47873  40.521  39.334   4.342
88580W        W47874  23.687  25.057   3.700
88581W        W47875   2.380  34.982  11.089
88582W        W47876  15.248  38.853   0.423
88583W        W47877  11.236  23.669   0.396
88584W        W47878  37.420  37.420   4.196
88585W        W47879  44.910   8.307   0.845
88586W        W47880  10.801  24.579  11.935
88587W        W47881  35.999  12.739  13.324
88588W        W47882   5.432  39.912  12.533
88589W        W47883  31.642   1.245  14.994
88590W        W47884  13.630  12.332   9.470
88591W        W47885   2.280  25.602   0.767
88592W        W47886  27.094  29.456   2.396
88593W        W47887  30.580  25.512   1.294
88594W        W47888   5.246  34.950   1.271
88595W        W47889  34.058  25.978   1.803
88596W        W47890   3.385  18.076  13.353
88597W        W47891  11.218  34.493  13.391
88598W        W47892   7.291   0.304   4.288
88599W        W47893  26.556  30.607  13.331
88600W        W47894   1.933   1.252  13.502
88601W        W47895   9.192  13.654  11.509
88602W        W47896  24.987  25.037   0.947
88603W        W47897  43.388   3.947   1.392
88604W        W47898  34.440  42.992   4.168
88605W        W47899   4.736  42.950   0.359
88606W        W47900  38.015  33.622   1.348
88607W        W47901  40.387  14.609  14.387
88608W        W47902  12.790  43.375  10.624
88609W        W47903  12.643  31.940  10.128
88610W        W47904  22.062   8.388  13.003
88611W        W47905  24.545  38.916   2.249
88612W        W47906   3.388  32.494   3.821
88613W        W47907  31.566  18.703   3.285
88614W        W47908  21.655  14.727   3.777
88615W        W47909  38.074  40.375  13.822
88616W        W47910  28.596  29.927  10.995
88617W        W47911  30.516  20.202  10.940
88618W        W47912  36.857  21.626  14.846
88619W        W47913  30.118  12.664   1.770
88620W        W47914  12.633  22.703  14.424
88621W        W47915   0.333   5.250  14.471
88622W        W47916  38.417  39.038   1.253
88623W        W47917  33.446  30.994   0.334
88624W        W47918  15.094  36.983   3.287
88625W        W47919  34.028  18.690   4.676
88626W        W47920  29.137  21.634  14.820
88627W        W47921  33.061  32.140   2.186
88628W        W47922  43.379  26.624   1.714
88629W        W47923  34.035   2.259  11.119
88630W        W47924  40.488  18.550  10.499
88631W        W47925  12.192  14.145  11.113
88632W        W47926  20.762  32.471  11.493
88633W        W47927  35.862  40.861   0.829
88634W        W47928  29.423  18.559   0.466
88635W        W47929   3.953  21.672   0.465
88636W        W47930  44.482  31.136   3.654
88637W        W47931  25.081  20.266  11.028
88638W        W47932  44.967   8.322  13.943
88639W        W47933  33.596  40.311   0.358
88640W        W47934  40.028   4.397   1.874
88641W        W47935  16.619   8.710  11.115
88642W        W47936  33.578  18.556   4.710
88643W        W47937  41.940  11.640   3.231
88644W        W47938   9.175   9.747   3.263
88645W        W47939   0.332  24.486  12.827
88646W        W47940  17.660  34.463  12.449
88647W        W47941  30.971  32.418  11.441
88648W        W47942  28.961   1.893  14.876
88649W        W47943  37.061  41.344   4.800
88650W        W47944  42.900  37.507  13.545
88651W        W47945  41.021  39.389   0.857
88652W        W47946  19.088   9.192  11.385
88653W        W47947  29.586  25.470  12.393
88654W        W47948  22.205   5.285   3.255
88655W        W47949  34.018   6.729  13.865
88656W        W47950  38.545  29.450   3.741
88657W        W47951   8.836  19.601  14.391
88658W        W47952  35.873  27.667   2.305
88659W        W47953  30.120  20.732  11.873
88660W        W47954  17.639  17.262  11.484
88661W        W47955   5.423  30.625   1.816
88662W        W47956  39.003  24.493  14.449
88663W        W47957   2.736  13.725   1.772
88664W        W47958   4.760  32.431   1.913
88665W        W47959  25.578  10.841  11.004
88666W        W47960  44.754  34.983   2.353
88667W        W47961  17.134  42.844   1.862
88668W        W47962  28.617  11.219   2.372
88669W        W47963   5.345  35.987   3.347
88670W        W47964  24.067   9.791  10.101
88671W        W47965  26.655  38.512   2.341
88672W        W47966  42.438  27.587  13.339
88673W        W47967   1.254  11.864   4.834
88674W        W47968  23.204   7.245  12.989
88675W        W47969  31.897  28.600  14.344
88676W        W47970   9.835  33.043   3.700
88677W        W47971   1.449  12.202  12.076
88678W        W47972  35.372  38.937  14.389
88679W        W47973  44.880   5.424  10.500
88680W        W47974   2.271  33.913  12.356
88681W        W47975  39.896  29.591  10.489
88682W        W47976  30.452  25.966  10.463
88683W        W47977   3.452  43.968  12.450
88684W        W47978  18.783  14.829   9.508
88685W        W47979   1.791  36.485  10.950
88686W        W47980   8.808   9.650  11.952
88687W        W47981  28.180  18.071   1.314
88688W        W47982  29.922  21.167   3.345
88689W        W47983  26.988   4.855  12.448
88690W        W47984  10.671  40.525  13.324
88691W        W47985   8.372  22.671   0.874
88692W        W47986   9.665  27.485  10.041
88693W        W47987  19.764  14.266   0.263
88694W        W47988   4.320   0.477   4.734
88695W        W47989  17.088  24.500  12.841
88696W        W47990  15.083  37.967   0.857
88697W        W47991  24.082   0.887   1.773
88698W        W47992  24.503   1.246   2.249
88699W        W47993   2.393  13.822   4.630
88700W        W47994  25.558  35.399   1.695
88701W        W47995   5.872  28.104   4.169
88702W        W47996   6.826  44.476   0.822
88703W        W47997  26.098  28.454  13.050
88704W        W47998   9.699  16.110   1.451
88705W        W47999  33.417  20.153   0.446
88706W        W48000  36.369  13.696   0.319
88707W        W48001  10.742  10.235  12.477
88708W        W48002   9.380   8.207   2.705
88709W        W48003  29.457  13.334   1.411
88710W        W48004  31.015  31.432  13.455
88711W        W48005  44.950  18.296   2.189
88712W        W48006  39.409  12.124  11.009
88713W        W48007  42.441  16.612  11.008
88714W        W48008  10.765   2.411   5.576
88715W        W48009  30.114  14.214   0.398
88716W        W48010  12.203  11.363   2.844
88717W        W48011  24.019  11.331  13.030
88718W        W48012  39.048  40.004  13.383
88719W        W48013  12.744  44.874   1.256
88720W        W48014  23.668  19.669   2.231
88721W        W48015  27.447   7.220  11.448
88722W        W48016  38.881   8.313  13.377
88723W        W48017  12.668  12.317  11.418
88724W        W48018  24.984  42.353   1.228
88725W        W48019  38.922  27.572  13.034
88726W        W48020  16.687  22.016   1.873
88727W        W48021  26.975   2.459  10.413
88728W        W48022  16.116  29.979  14.989
88729W        W48023  16.308  36.513  12.927
88730W        W48024  15.697  19.586  13.488
88731W        W48025  37.837  11.355   0.464
88732W        W48026   9.829   9.231   3.862
88733W        W48027  11.701   1.397  13.847
88734W        W48028   2.316  41.409  14.475
88735W        W48029  26.628  36.387   2.384
88736W        W48030  35.453  13.149  13.920
88737W        W48031  26.467  26.126   3.842
88738W        W48032   6.793   4.794  11.479
88739W        W48033   9.722  13.691  13.391
88740W        W48034   5.354  43.298   3.277
88741W        W48035   8.767  25.079  14.372
88742W        W48036  20.663   9.800  12.852
88743W        W48037  24.025  14.780   2.763
88744W        W48038  31.079  40.476   1.813
88745W        W48039  31.621  39.906   4.675
88746W        W48040  40.372  23.201  12.495
88747W        W48041  22.709  27.985   2.315
88748W        W48042  31.953  14.774   2.309
88749W        W48043  40.016  23.148   2.878
88750W        W48044   0.905  29.082   2.189
88751W        W48045   5.860  32.022   3.714
88752W        W48046   9.359  20.646  14.330
88753W        W48047  44.309   2.421   2.310
88754W        W48048   3.456   9.255  11.060
88755W        W48049  26.018   3.804   0.855
88756W        W48050   5.925   5.812  12.946
88757W        W48051  42.926   1.268   1.852
88758W        W48052  42.490  33.051   4.696
88759W        W48053  17.583  38.890  13.876
88760W        W48054   5.822  14.197  12.966
88761W        W48055   9.884  32.461   1.903
88762W        W48056  10.711  19.252   3.871
88763W        W48057  29.095  30.049   2.223
88764W        W48058  44.378  31.962   2.886
88765W        W48059  17.604  25.548  13.420
88766W        W48060  23.988  30.460   3.831
88767W        W48061  32.967  36.039   2.268
88768W        W48062   4.732  26.039  12.380
88769W        W48063  43.847  39.826  11.949
88770W        W48064   5.302  37.049   1.266
88771W        W48065  28.551  22.634  14.452
88772W        W48066  19.777  17.243  13.348
88773W        W48067   1.324  13.652   4.281
88774W        W48068  34.115  22.558   3.290
88775W        W48069  23.572   1.389   0.793
88776W        W48070  20.108  18.285   3.724
88777W        W48071   7.866  30.465   1.445
88778W        W48072   6.871   9.269   1.263
88779W        W48073   4.928  38.344   1.921
88780W        W48074  16.704  10.726   2.330
88781W        W48075  34.068  27.165  12.935
88782W        W48076  25.528  25.209   0.372
88783W        W48077  11.353   3.324   1.701
88784W        W48078  15.755  18.563   4.741
88785W        W48079  35.988  34.422  12.997
88786W        W48080  37.879  21.203   0.967
88787W        W48081  16.616  22.020   0.457
88788W        W48082  20.119  21.214   3.654
88789W        W48083  35.085  27.545   2.793
88790W        W48084   5.765  41.484   2.263
88791W        W48085  29.560  30.589   0.478
88792W        W48086  41.901   1.942   0.744
88793W        W48087   2.376  20.043   2.276
88794W        W48088  22.227  42.963  12.366
88795W        W48089   5.811   5.864   0.252
88796W        W48090  40.934  31.976   3.251
88797W        W48091   0.376   5.312  14.997
88798W        W48092   6.336  10.245   4.320
88799W        W48093  34.958  32.954   1.432
88800W        W48094  27.637   3.875   2.203
88801W        W48095  43.788   1.384  14.468
88802W        W48096  33.989  17.150   0.319
88803W        W48097  18.264  32.607  12.971
88804W        W48098  15.203  11.132   3.206
88805W        W48099  26.075  21.701  14.986
88806W        W48100  21.161   9.689   0.882
88807W        W48101  32.937  14.654   3.220
88808W        W48102  20.111  13.720  10.492
88809W        W48103  36.519   2.356  11.566
88810W        W48104   3.728   6.874  11.431
88811W        W48105  36.480   2.910   1.838
88812W        W48106  34.979   8.270   4.137
88813W        W48107   7.313  24.226   0.863
88814W        W48108  39.912  11.749   1.705
88815W        W48109   7.795   2.872  14.986
88816W        W48110  23.531  12.622  11.482
88817W        W48111  28.611  42.919  13.971
88818W        W48112  42.949  13.199   3.317
88819W        W48113  22.051  11.373  11.939
88820W        W48114  12.850  35.600  11.931
88821W        W48115  44.318  41.520   1.920
88822W        W48116  18.785  21.203   5.319
88823W        W48117  17.657  20.730  14.808
88824W        W48118  42.443  29.434   4.317
88825W        W48119  38.491  12.166  14.884
88826W        W48120  18.230  41.474  11.592
88827W        W48121  41.036  14.642  10.557
88828W        W48122  28.960   4.440   0.821
88829W        W48123  39.900   0.323   1.737
88830W        W48124  10.159   8.173   2.843
88831W        W48125  15.741  40.977   2.183
88832W        W48126  24.510  25.146   1.290
88833W        W48127   5.223  32.000  13.017
88834W        W48128  31.096  32.032   3.706
88835W        W48129  11.239  13.800   0.330
88836W        W48130  17.182  15.205  12.344
88837W        W48131  22.604  33.423   0.734
88838W        W48132  12.196   2.455  14.807
88839W        W48133  38.871  34.112  14.822
88840W        W48134  14.735  42.859   3.767
88841W        W48135   1.909  37.060  14.879
88842W        W48136  21.699   7.380   4.265
88843W        W48137  38.903   8.814   5.105
88844W        W48138  23.148  10.314  11.128
88845W        W48139  34.433  39.486  12.016
88846W        W48140  25.210  40.522   0.417
88847W        W48141   9.841  33.385   0.376
88848W        W48142  19.652  21.246  14.823
88849W        W48143  12.784  11.730  10.033
88850W        W48144  37.052  39.846  13.993
88851W        W48145  17.694   8.803  12.041
88852W        W48146  39.540  31.535  12.823
88853W        W48147  41.956  19.103   4.631
88854W        W48148  23.093   8.876  14.902
88855W        W48149  18.592  27.506   4.630
88856W        W48150   5.808  24.587   9.960
88857W        W48151   1.765  16.567  14.292
88858W        W48152  20.155  33.048   1.307
88859W        W48153  31.970   8.291   1.719
88860W        W48154  31.104   7.180   4.155
88861W        W48155   1.458  26.581  13.415
88862W        W48156   9.305  44.765  13.506
88863W        W48157  16.216   8.271   2.391
88864W        W48158   9.347  35.011  12.970
88865W        W48159  18.633  29.929  11.591
88866W        W48160  17.768  25.125   0.444
88867W        W48161   6.682  15.780  14.503
88868W        W48162  25.505   7.671   2.349
88869W        W48163  29.449  14.275  13.375
88870W        W48164  17.208  19.183  14.494
88871W        W48165  35.581  13.644  13.039
88872W        W48166  10.732   5.863  13.942
88873W        W48167  13.148   0.788   5.212
88874W        W48168   1.898  19.132  12.435
88875W        W48169   2.300  42.814   1.877
88876W        W48170  17.196   4.294   2.202
88877W        W48171   2.355  18.222  13.026
88878W        W48172  21.712  42.411  11.396
88879W        W48173  40.542  39.854  10.985
88880W        W48174   7.343  43.851   4.732
88881W        W48175  35.444  12.721   1.337
88882W        W48176  22.611  11.216  12.073
88883W        W48177   6.325   7.361   1.840
88884W        W48178   1.856  20.674   4.697
88885W        W48179  16.620   6.845   2.367
88886W        W48180  23.726  40.864   1.341
88887W        W48181  24.152  19.586   5.290
88888W        W48182   6.845  27.513   4.262
88889W        W48183  11.178  12.635   3.707
88890W        W48184  35.882  30.125   0.380
88891W        W48185  38.039  18.192   1.333
88892W        W48186  28.579  32.627   3.346
88893W        W48187  20.143  42.387   0.922
88894W        W48188  34.869  15.175  13.526
88895W        W48189  42.781  23.513   3.716
88896W        W48190   4.437  18.748  12.023
88897W        W48191   9.161  27.535   1.419
88898W        W48192  12.267  27.001  11.970
88899W        W48193   9.828  14.633   0.769
88900W        W48194  12.184  20.576  11.381
88901W        W48195  10.164   9.872  10.152
88902W        W48196  21.128  37.862   2.793
88903W        W48197   6.282   8.288   0.753
88904W        W48198  37.498  31.545   1.263
88905W        W48199  23.588  36.847  10.501
88906W        W48200  19.228  38.437   4.692
88907W        W48201  31.453  22.509  10.438
88908W        W48202  24.230  35.547  11.612
88909W        W48203  25.524  13.113  14.818
88910W        W48204  26.687  37.418   0.793
88911W        W48205   7.181   8.357   2.738
88912W        W48206   4.441  11.230   3.727
88913W        W48207  25.163  37.007   1.378
88914W        W48208  30.506   7.382   0.384
88915W        W48209   2.962  15.107   4.765
88916W        W48210   7.208   6.736   4.797
88917W        W48211  41.859  33.434  10.083
88918W        W48212   1.776  10.293  12.580
88919W        W48213  32.016   5.436   1.830
88920W        W48214  24.503  32.569   0.781
88921W        W48215  25.110  40.837  11.957
88922W        W48216  12.833  25.582   0.299
88923W        W48217  25.501  37.426  10.957
88924W        W48218  38.947   5.332   1.423
88925W        W48219  15.156  26.145   2.844
88926W        W48220  31.597  25.978  13.060
88927W        W48221  11.708  13.793  12.092
88928W        W48222  23.736   4.932   2.378
88929W        W48223  33.083  18.582  12.460
88930W        W48224  43.902  32.046  12.461
88931W        W48225  14.699  31.455   4.771
88932W        W48226  21.094  20.203  12.052
88933W        W48227  12.814   6.231  10.528
88934W        W48228  38.541   7.239   0.852
88935W        W48229  42.983  38.533  12.427
88936W        W48230   0.355  34.586  14.898
88937W        W48231  22.246  21.646   0.943
88938W        W48232  25.976  20.049   1.227
88939W        W48233  27.138  33.602  13.890
88940W        W48234  26.208  13.256  11.972
88941W        W48235  39.479   5.395   0.844
88942W        W48236  38.533  30.961  12.359
88943W        W48237   2.837  38.900  13.956
88944W        W48238   3.286  14.306   2.722
88945W        W48239  37.974  44.937  11.551
88946W        W48240  41.954   8.886  13.384
88947W        W48241  18.558  35.062   0.276
88948W        W48242  23.563  43.917   2.396
88949W        W48243  16.707  42.409  10.474
88950W        W48244   5.246  44.816  11.942
88951W        W48245  18.613   1.902  10.995
88952W        W48246  32.932   7.864   1.290
88953W        W48247  26.527  19.549   1.929
88954W        W48248  37.369  36.881   2.201
88955W        W48249  15.178   3.426  12.515
88956W        W48250  42.299  12.311   3.766
88957W        W48251  44.439  10.647   3.254
88958W        W48252  36.080   6.736  11.401
88959W        W48253   0.389  39.370  13.371
88960W        W48254  44.763  14.156   2.797
88961W        W48255  27.131  39.390  12.885
88962W        W48256  30.041  39.550   1.279
88963W        W48257  17.651  42.340  13.986
88964W        W48258  38.865   2.738   2.182
88965W        W48259  40.513   5.317  14.432
88966W        W48260  27.017   0.860  12.061
88967W        W48261   6.392  27.092   3.841
88968W        W48262  44.816  23.016   3.202
88969W        W48263  21.573  37.566   2.884
88970W        W48264   2.843   9.246  10.643
88971W        W48265  32.449  38.976  14.416
88972W        W48266   5.790   2.404  14.311
88973W        W48267  19.585  15.316  12.431
88974W        W48268  11.623  40.499   2.188
88975W        W48269  43.019  16.297  14.409
88976W        W48270  32.580  17.560   4.321
88977W        W48271  19.152  18.717  10.895
88978W        W48272   3.806  20.102   3.313
88979W        W48273  40.854  44.499   0.861
88980W        W48274   5.313  23.683   4.334
88981W        W48275  20.112  24.220   0.372
88982W        W48276  27.098   8.826   4.291
88983W        W48277  34.497  18.055   4.290
88984W        W48278  24.069  28.048  11.033
88985W        W48279  36.943   4.878  13.348
88986W        W48280  32.418  31.030  14.426
88987W        W48281  39.985  18.638   0.338
88988W        W48282   9.825   7.711   0.741
88989W        W48283  31.484  16.186  12.353
88990W        W48284  21.244   4.756   2.243
88991W        W48285   5.304  27.111   0.325
88992W        W48286   2.952  22.180   4.673
88993W        W48287   8.294  34.553  11.003
88994W        W48288   6.402   4.254  11.437
88995W        W48289  13.185   9.824   0.465
88996W        W48290  28.089  12.245  10.442
88997W        W48291  34.963  38.017  13.004
88998W        W48292   8.367  11.328   0.964
88999W        W48293   3.374  43.473   4.775
89000W        W48294  23.609  40.370   0.878
89001W        W48295   3.344  35.093   4.659
89002W        W48296  17.603  20.601   9.943
89003W        W48297   2.853  18.704  12.851
89004W        W48298  38.047  36.978   4.764
89005W        W48299  40.901  38.052  10.518
89006W        W48300  16.124   2.443  13.452
89007W        W48301  18.176  13.760  12.469
89008W        W48302  44.423  15.195  12.086
89009W        W48303   1.396  14.818   3.176
89010W        W48304  33.120   4.740   4.808
89011W        W48305   4.327  20.083   4.805
89012W        W48306  18.608   7.349  11.086
89013W        W48307  20.037  25.689  11.939
89014W        W48308  40.945   0.333  14.379
89015W        W48309  32.068  43.338  13.370
89016W        W48310  15.736  35.576  11.855
89017W        W48311  29.041   4.448   2.243
89018W        W48312   0.475  11.773   1.428
89019W        W48313  19.131  19.772   9.530
89020W        W48314   3.741  30.016   1.442
89021W        W48315   3.288  38.943  10.535
89022W        W48316   8.691  23.054   0.274
89023W        W48317  24.194   5.858  11.547
89024W        W48318  39.924   0.800  14.966
89025W        W48319   4.717  15.272  11.111
89026W        W48320  29.448  20.168  12.487
89027W        W48321  15.257  25.557  12.414
89028W        W48322   4.358  39.350   4.826
89029W        W48323  20.049  34.066   2.387
89030W        W48324  28.016  36.951  11.116
89031W        W48325  15.633   2.273   0.828
89032W        W48326  28.023   9.167   2.329
89033W        W48327  27.975  36.441   4.290
89034W        W48328   0.454   0.847   2.383
89035W        W48329  44.903  35.475  12.861
89036W        W48330  10.771   3.360  14.870
89037W        W48331  36.050  15.814  13.412
89038W        W48332  23.065  24.594  13.063
89039W        W48333   1.928  22.709  14.008
89040W        W48334   0.965  20.071   1.288
89041W        W48335  36.038  14.114   2.197
89042W        W48336   3.265  37.472  13.826
89043W        W48337  23.994  28.630   0.456
89044W        W48338  17.623   9.174  13.000
89045W        W48339  39.915   6.731  11.493
89046W        W48340  13.127  40.949   4.216
89047W        W48341  35.926  41.957  10.408
89048W        W48342  26.026  40.442   1.412
89049W        W48343  40.977  21.228   5.165
89050W        W48344  38.452  20.724  13.469
89051W        W48345   1.262  38.345   4.129
89052W        W48346  32.961  44.272  11.050
89053W        W48347   2.931  28.020  12.450
89054W        W48348  44.321   9.789  11.478
89055W        W48349  31.518   9.291   3.357
89056W        W48350  30.627  28.660  14.340
89057W        W48351   3.830  35.536   4.275
89058W        W48352  15.654  22.617  12.941
89059W        W48353  36.401   8.779  11.117
89060W        W48354  34.416  13.819   4.327
89061W        W48355   5.846  43.484  14.932
89062W        W48356  37.577  10.155   3.329
89063W        W48357   8.401  42.917   2.870
89064W        W48358  34.999  29.454  11.960
89065W        W48359   6.792  35.008   2.736
89066W        W48360  35.423  14.723  11.929
89067W        W48361  29.985  17.632   3.228
89068W        W48362   3.234  35.919   3.784
89069W        W48363   4.752  41.520  10.491
89070W        W48364   0.376  14.168   3.363
89071W        W48365  23.146  21.053  12.061
89072W        W48366  20.631  14.247  14.952
89073W        W48367   9.710  37.975   3.334
89074W        W48368  30.026   4.708  14.512
89075W        W48369  21.551  15.649   4.827
89076W        W48370  10.209  42.893  14.979
89077W        W48371   0.782  35.396   2.763
89078W        W48372  40.489  30.930  14.911
89079W        W48373   9.715  42.905  11.418
89080W        W48374  12.688  40.930  13.368
89081W        W48375  21.716  13.680   0.763
89082W        W48376  40.472  20.605   0.893
89083W        W48377  42.780  24.169  11.080
89084W        W48378   4.376  36.874  13.868
89085W        W48379   2.270  15.749   2.779
89086W        W48380   8.173  16.287   0.260
89087W        W48381  32.088  37.434  12.519
89088W        W48382  37.397  23.685  12.071
89089W        W48383   3.729  24.996   5.306
89090W        W48384  42.779  39.319  10.528
89091W        W48385  40.924  28.495   0.316
89092W        W48386   4.917  31.468   3.200
89093W        W48387  36.405  32.005   4.797
89094W        W48388  30.099  44.330   4.809
89095W        W48389   7.877  35.983   4.214
89096W        W48390  42.463  21.710  11.444
89097W        W48391  11.292  17.115   4.686
89098W        W48392  37.074  22.038  10.569
89099W        W48393  42.921  41.844   3.256
89100W        W48394  20.741  43.784   0.926
89101W        W48395  32.621  29.111  13.916
89102W        W48396  36.995  43.900  12.420
89103W        W48397   2.352  33.048  10.605
89104W        W48398   4.350  13.216  13.045
89105W        W48399  16.115  14.786   2.263
89106W        W48400   9.697  35.925  12.009
89107W        W48401  13.338  21.256   1.425
89108W        W48402  43.874  35.583   2.903
89109W        W48403  39.519   3.856  12.034
89110W        W48404  40.912  10.743   2.877
89111W        W48405  40.801  27.449  11.377
89112W        W48406  40.375  29.050  14.480
89113W        W48407  26.132  25.983  14.274
89114W        W48408  19.274  25.998   1.841
89115W        W48409  26.602  31.033  13.537
89116W        W48410  13.215   8.319  14.288
89117W        W48411  11.698  17.621   0.247
89118W        W48412  33.417  16.123   2.874
89119W        W48413   2.344  21.646   1.429
89120W        W48414   4.937  34.556   1.894
89121W        W48415  34.602  14.302   0.439
89122W        W48416  43.468  37.893   1.899
89123W        W48417  16.083  21.118   2.708
89124W        W48418  12.657  37.367   1.868
89125W        W48419  23.990   6.405   2.418
89126W        W48420  26.073   1.312   3.283
89127W        W48421  40.959  39.499   1.802
89128W        W48422  12.821   0.326  12.826
89129W        W48423  14.686   0.988   1.297
89130W        W48424  33.387  13.717   4.727
89131W        W48425  43.905  12.638   2.389
89132W        W48426  41.029  25.086  14.847
89133W        W48427  43.307  43.863  13.008
89134W        W48428  32.595  22.684  11.488
89135W        W48429   6.722   9.263  10.945
89136W        W48430  35.036  41.439   1.829
89137W        W48431   4.739  20.107  11.028
89138W        W48432  14.304  26.160  13.968
89139W        W48433  29.076  19.575   1.837
89140W        W48434  36.878   4.746   1.294
89141W        W48435  34.428   5.792   2.722
89142W        W48436  10.158  36.038  12.000
89143W        W48437  35.988  24.224  11.423
89144W        W48438  13.208  16.092  12.012
89145W        W48439  33.481   8.252  14.876
89146W        W48440   7.902  23.670   1.427
89147W        W48441  39.849   8.319  12.832
89148W        W48442  29.048   2.796   0.259
89149W        W48443  24.165  30.140   1.330
89150W        W48444  31.071  29.095  10.897
89151W        W48445  44.355  25.707  11.443
89152W        W48446  32.110  39.852  11.055
89153W        W48447  21.582  11.661  13.005
89154W        W48448  34.467  30.975   1.868
89155W        W48449  18.731  15.605   5.310
89156W        W48450  22.686   5.288  11.577
89157W        W48451   4.378   2.854   3.287
89158W        W48452  38.352  27.057   4.713
89159W        W48453  41.460  31.019   3.727
89160W        W48454  26.116  31.585  12.924
89161W        W48455  29.616   5.709  12.393
89162W        W48456  21.020  29.098   1.398
89163W        W48457   8.891  15.200  14.962
89164W        W48458   9.268  33.111   3.294
89165W        W48459  38.337  20.590   3.835
89166W        W48460  18.291  26.566   4.231
89167W        W48461   6.712  40.483  10.513
89168W        W48462  32.072  20.208   3.387
89169W        W48463   1.474   6.850  12.531
89170W        W48464  25.571  35.377  13.893
89171W        W48465  24.201  20.135  13.055
89172W        W48466   2.964  41.920  13.458
89173W        W48467   3.932  23.573  12.022
89174W        W48468  35.878  43.396  14.801
89175W        W48469  13.724  29.615  12.080
89176W        W48470  28.955  40.358   4.641
89177W        W48471  22.183  40.433  10.471
89178W        W48472  43.385  43.839  13.940
89179W        W48473  11.354  42.813   1.849
89180W        W48474  27.660  30.075   3.243
89181W        W48475  20.194  16.247   1.372
89182W        W48476  37.983  15.221   3.743
89183W        W48477   2.965  17.669  13.430
89184W        W48478  21.157   4.735  11.468
89185W        W48479  19.102  36.546   3.649
89186W        W48480  10.636  10.705   4.278
89187W        W48481  31.154  39.825  13.479
89188W        W48482  31.937  23.720  10.023
89189W        W48483  23.986  34.594   2.798
89190W        W48484  16.795  15.259  11.071
89191W        W48485  44.821  36.546   2.767
89192W        W48486  25.654  28.658   3.692
89193W        W48487  24.713  28.612   4.735
89194W        W48488  34.965  42.825  13.865
89195W        W48489  32.498  32.962  13.487
89196W        W48490  26.597   9.252   1.212
89197W        W48491  43.001   5.283  13.499
89198W        W48492  36.884  33.492  12.044
89199W        W48493   6.823  20.265  14.400
89200W        W48494  16.601  35.921   4.640
89201W        W48495  37.935  28.121   1.745
89202W        W48496   6.345  39.429   0.852
89203W        W48497   8.242   4.381   9.930
89204W        W48498   0.292   7.686   2.329
89205W        W48499  23.073  39.033  13.026
89206W        W48500   4.879  42.848   3.370
89207W        W48501  36.538   3.940   0.803
89208W        W48502  27.118  11.669   4.133
89209W        W48503  32.585  25.544  13.847
89210W        W48504   0.370   6.862  11.993
89211W        W48505   9.390  31.911  12.385
89212W        W48506  17.210  26.479   2.852
89213W        W48507  44.283  18.095  10.041
89214W        W48508  40.378   8.826  14.351
89215W        W48509  19.240  41.359  14.376
89216W        W48510  20.166  34.506  13.463
89217W        W48511  42.327  31.007  11.967
89218W        W48512   0.317  12.327  13.328
89219W        W48513  43.341  25.068  13.366
89220W        W48514   4.437  41.462   0.934
89221W        W48515  29.518  27.497   3.830
89222W        W48516  15.192  25.607   2.823
89223W        W48517   7.232   0.946   0.810
89224W        W48518  24.200   4.839   1.920
89225W        W48519  31.969  37.514   4.604
89226W        W48520  34.920  20.088  13.010
89227W        W48521   4.930  27.624   2.322
89228W        W48522  24.607  30.160   3.666
89229W        W48523  11.256  34.530   4.824
89230W        W48524   4.386  23.504  12.910
89231W        W48525   0.914  17.773   1.371
89232W        W48526  40.981  11.369   0.474
89233W        W48527  39.338  27.139  12.426
89234W        W48528  27.970  24.628  11.449
89235W        W48529  10.676  22.234   0.842
89236W        W48530  38.434  25.608  11.376
89237W        W48531   7.865  25.967  11.510
89238W        W48532  11.297  15.215  12.917
89239W        W48533  35.991  21.225   2.750
89240W        W48534  34.391  35.068  11.432
89241W        W48535  11.693  43.405  14.351
89242W        W48536  22.235  26.144   3.229
89243W        W48537  30.537  10.757  14.950
89244W        W48538  30.591  41.331   2.758
89245W        W48539   6.375  38.849   0.860
89246W        W48540  12.736   6.900   4.741
89247W        W48541  17.748  13.238   0.809
89248W        W48542  33.065  21.568  12.933
89249W        W48543   7.402  32.448  14.507
89250W        W48544  13.628  41.499   2.365
89251W        W48545  16.616   0.958  14.908
89252W        W48546  43.324  12.209  11.961
89253W        W48547  15.762  29.633  11.859
89254W        W48548  28.081  25.509  13.424
89255W        W48549  36.027  25.472  13.359
89256W        W48550   4.783  35.898   2.211
89257W        W48551  30.629  13.139  14.433
89258W        W48552  42.817  30.549   1.362
89259W        W48553  30.123  20.650   0.399
89260W        W48554  39.918   6.760  13.996
89261W        W48555  15.132   4.839   0.732
89262W        W48556  19.115   7.175  12.540
89263W        W48557  40.467  31.462  13.382
89264W        W48558  44.469  26.141  11.462
89265W        W48559   1.317  37.848   0.954
89266W        W48560  17.068  42.964   4.227
89267W        W48561  16.116  28.587   2.752
89268W        W48562  15.686  26.581   1.861
89269W        W48563  24.211  14.272   2.198
89270W        W48564  18.732  19.770   5.270
89271W        W48565  42.885   3.950   0.453
89272W        W48566   9.375  35.032  11.431
89273W        W48567  44.424  16.163   4.617
89274W        W48568  23.711  34.552   4.697
89275W        W48569  26.470   4.301  13.906
89276W        W48570  15.318  21.261   0.482
89277W        W48571  39.877  23.032  11.120
89278W        W48572  21.598  21.607  12.012
89279W        W48573  22.598   8.334   2.675
89280W        W48574  11.740  43.794   3.172
89281W        W48575  33.488   3.747  14.309
89282W        W48576  10.172  15.086  12.453
89283W        W48577  35.554  28.984  12.926
89284W        W48578  12.851   6.278  14.298
89285W        W48579  43.957   7.329   2.264
89286W        W48580  33.453  43.291  12.852
89287W        W48581  26.659  18.681   4.179
89288W        W48582  15.813  14.765   4.297
89289W        W48583  16.248  37.912  11.893
89290W        W48584  15.659  42.327  11.038
89291W        W48585   0.753   8.220  14.320
89292W        W48586  23.646  38.970  10.991
89293W        W48587  36.465   2.739  10.419
89294W        W48588  40.826  43.434  13.014
89295W        W48589  19.593  10.699   0.963
89296W        W48590   3.266  42.434  10.472
89297W        W48591   0.915  21.664  13.508
89298W        W48592  31.048  22.246  14.865
89299W        W48593  22.142  21.170   0.254
89300W        W48594  35.059  34.426   4.759
89301W        W48595  16.585  24.630  12.936
89302W        W48596  42.963  44.888   0.422
89303W        W48597   7.792   6.223   0.340
89304W        W48598   6.296  15.105   3.330
89305W        W48599  32.603  21.210   4.265
89306W        W48600  39.020  26.588   0.811
89307W        W48601  41.859  27.469  10.502
89308W        W48602  25.140  26.035  12.071
89309W        W48603  27.464  11.202   1.255
89310W        W48604   7.789  33.057  14.841
89311W        W48605  10.794  15.665  10.471
89312W        W48606  39.440  41.799   3.685
89313W        W48607  24.609  17.620  11.963
89314W        W48608  38.980   0.938  13.002
89315W        W48609   9.756  41.921  13.938
89316W        W48610   0.962  10.340  14.345
89317W        W48611   8.884   6.682  14.766
89318W        W48612  15.141   8.344  13.388
89319W        W48613  42.452  43.438   0.482
89320W        W48614  36.860  41.880  14.470
89321W        W48615  33.916  15.680   4.165
89322W        W48616   1.260   6.759   3.792
89323W        W48617  21.638  17.198  12.834
89324W        W48618  22.102  14.326   4.640
89325W        W48619  15.616  29.628  13.437
89326W        W48620  24.608  24.170  11.009
89327W        W48621  41.476  13.107  12.477
89328W        W48622   2.838  35.503  10.429
89329W        W48623   9.763  35.433   3.839
89330W        W48624   5.216   0.900   1.714
89331W        W48625   7.836  11.193  10.532
89332W        W48626  24.012  27.626  14.403
89333W        W48627  14.182  18.266   3.742
89334W        W48628  10.154   4.255  13.821
89335W        W48629   3.367  19.692   2.790
89336W        W48630  17.177  41.026  14.296
89337W        W48631  44.455  11.157   1.890
89338W        W48632  12.176  23.536   4.830
89339W        W48633  23.029  31.953  13.902
89340W        W48634  30.158  42.497  13.474
89341W        W48635  10.776  24.686  14.838
89342W        W48636  30.464  33.067  14.896
89343W        W48637  13.251  33.112  11.001
89344W        W48638   8.725  31.959   5.759
89345W        W48639   6.387   7.261   3.249
89346W        W48640   6.797  20.224   3.169
89347W        W48641  11.715  44.292   5.251
89348W        W48642   7.890  11.156   0.427
89349W        W48643  14.257  44.904   4.237
89350W        W48644  31.994   0.396  11.926
89351W        W48645  24.619  34.028   2.205
89352W        W48646  12.783  28.963   1.713
89353W        W48647  15.279  18.552   0.826
89354W        W48648  31.465  29.970  14.956
89355W        W48649  38.512   8.188  12.430
89356W        W48650  25.643  36.392   2.851
89357W        W48651  38.539   3.337  14.300
89358W        W48652  30.105  29.489  14.434
89359W        W48653   3.932  44.835   2.790
89360W        W48654   6.399  43.791  14.454
89361W        W48655  18.208  19.618   9.666
89362W        W48656  10.649  32.520  12.079
89363W        W48657   1.438   7.392   2.187
89364W        W48658  41.480  15.635   4.762
89365W        W48659  43.799   6.756  11.598
89366W        W48660   2.784   2.383  10.910
89367W        W48661   9.813  10.683   3.353
89368W        W48662  22.532  39.330   1.341
89369W        W48663   5.244  39.990   3.328
89370W        W48664  15.105  38.834  10.434
89371W        W48665  22.139  15.257  10.518
89372W        W48666   8.286  11.178  14.459
89373W        W48667  14.646  44.431   1.374
89374W        W48668  12.223  12.229  11.022
89375W        W48669  32.047   4.392  10.481
89376W        W48670  34.399   4.406  12.022
89377W        W48671   3.309  18.726   2.898
89378W        W48672  35.978  17.205  12.545
89379W        W48673  16.701  29.665   4.761
89380W        W48674  13.319  15.632  10.122
89381W        W48675  41.953  18.139   3.281
89382W        W48676  21.205  43.431   2.303
89383W        W48677  43.830   4.416   1.270
89384W        W48678   7.839  21.263  14.875
89385W        W48679   3.853  25.627   0.875
89386W        W48680  13.798  43.016   1.335
89387W        W48681  11.152   4.274  14.423
89388W        W48682  38.423   6.253  13.882
89389W        W48683   9.830  18.603   4.818
89390W        W48684   1.355  44.292   1.354
89391W        W48685   8.371   1.434  10.948
89392W        W48686  35.473  43.409  10.563
89393W        W48687  43.285  35.009   2.374
89394W        W48688  17.711   8.770  14.987
89395W        W48689   1.869  22.638   0.915
89396W        W48690  15.644  37.037  14.888
89397W        W48691  15.273  15.102   3.638
89398W        W48692   6.390  22.602   4.319
89399W        W48693  16.222   0.439  13.357
89400W        W48694  21.682  28.954   2.370
89401W        W48695  33.108  25.650  12.418
89402W        W48696  38.988   2.809   2.784
89403W        W48697  15.757  25.674  14.432
89404W        W48698  12.676  27.599   1.791
89405W        W48699   1.288  41.509  12.002
89406W        W48700  43.367   4.416   0.455
89407W        W48701  24.029  28.677   0.773
89408W        W48702   8.363   1.958  12.000
89409W        W48703  31.504  18.260   1.819
89410W        W48704   5.838   7.344  13.516
89411W        W48705  27.682   2.873  14.830
89412W        W48706  20.681  37.359  14.963
89413W        W48707  45.000  44.262   2.250
89414W        W48708  25.062  38.348   5.100
89415W        W48709  18.752  43.012   0.357
89416W        W48710  30.122  18.560   4.644
89417W        W48711  12.710  26.538  10.549
89418W        W48712  31.984   3.745   2.760
89419W        W48713   3.280  10.357   5.170
89420W        W48714  27.543  21.616  10.531
89421W        W48715   9.166   4.885  10.009
89422W        W48716   0.917  18.553   0.791
89423W        W48717   8.831  20.268   0.760
89424W        W48718   1.877  36.470  12.052
89425W        W48719  10.346  10.742   4.151
89426W        W48720  36.984  33.398  13.055
89427W        W48721   0.813   6.269  14.006
89428W        W48722  17.102   5.248   0.267
89429W        W48723  14.651  23.176   2.361
89430W        W48724  23.178  28.436  14.361
89431W        W48725   4.934  14.160  11.933
89432W        W48726  13.184  27.458   0.410
89433W        W48727  10.680  13.771   4.779
89434W        W48728   3.357   4.938   2.837
89435W        W48729  30.934  28.021   4.230
89436W        W48730  12.341  15.232   2.689
89437W        W48731  33.967  32.489   4.677
89438W        W48732  39.535  27.036   2.418
89439W        W48733  13.834  15.241   4.786
89440W        W48734   4.778  38.410  10.156
89441W        W48735  39.873  15.792  13.989
89442W        W48736  28.994  44.932  12.864
89443W        W48737  12.203  35.517  14.781
89444W        W48738  38.413  14.651  12.512
89445W        W48739   3.773  41.925  10.415
89446W        W48740   5.257   3.728   4.834
89447W        W48741  14.640  40.862   1.448
89448W        W48742  11.348  11.135  10.409
89449W        W48743  14.713  27.583   2.700
89450W        W48744  41.012  28.483  13.810
89451W        W48745   5.429  30.651  14.881
89452W        W48746  15.716  27.007   1.868
89453W        W48747  17.190   4.367   0.448
89454W        W48748   4.727  20.143  14.319
89455W        W48749   9.358  20.087  14.885
89456W        W48750  21.733  41.318   2.385
89457W        W48751   6.779   2.233   3.228
89458W        W48752  12.830  39.058  11.006
89459W        W48753  34.051  13.289   4.733
89460W        W48754   8.837  19.163   2.697
89461W        W48755  22.689  24.717  11.396
89462W        W48756  32.493  13.649  12.895
89463W        W48757  21.630  22.718   0.439
89464W        W48758   4.342  26.574  10.986
89465W        W48759  37.842  44.868   4.822
89466W        W48760   3.391  42.785  12.991
89467W        W48761  16.779   7.297  12.023
89468W        W48762   9.754  31.624   0.260
89469W        W48763  20.263  38.380   2.724
89470W        W48764  32.540  41.477   0.853
89471W        W48765  17.161  26.159  10.413
89472W        W48766  43.282  10.379   0.780
89473W        W48767  25.051  23.179   1.295
89474W        W48768   0.767   9.882   3.197
89475W        W48769  20.102  14.687   3.294
89476W        W48770   3.366   9.221   2.837
89477W        W48771  38.982  15.734  13.001
89478W        W48772  19.197  26.955  11.985
89479W        W48773   4.341  34.424   4.140
89480W        W48774  29.063  20.134  13.359
89481W        W48775   7.804  44.284   1.385
89482W        W48776  20.044  30.111   0.425
89483W        W48777  19.190  17.625  13.883
89484W        W48778  17.190   1.325   2.771
89485W        W48779   2.402  35.424  12.872
89486W        W48780  36.397  24.574   2.885
89487W        W48781  23.077  17.659  10.983
89488W        W48782  38.393  14.115   5.185
89489W        W48783  25.712  13.825   3.327
89490W        W48784  24.990  25.111  13.466
89491W        W48785  25.091   2.854  13.468
89492W        W48786  36.491  13.713  14.410
89493W        W48787   6.918  13.755  10.537
89494W        W48788  41.478  27.011  12.367
89495W        W48789  25.687  42.433   9.640
89496W        W48790  10.739  19.542   1.711
89497W        W48791   2.463  19.212   0.902
89498W        W48792  18.765   0.361  12.851
89499W        W48793  35.443  25.541  14.877
89500W        W48794  35.424  15.766   2.238
89501W        W48795   2.845   2.248  12.869
89502W        W48796  37.392  22.038   3.178
89503W        W48797   3.859  21.165   0.367
89504W        W48798  35.524  15.629  11.878
89505W        W48799  40.954  19.122   3.366
89506W        W48800  13.237  16.604  11.127
89507W        W48801  33.412  24.097   1.332
89508W        W48802   1.455   9.216  12.569
89509W        W48803   4.235  28.992   4.344
89510W        W48804   5.893  32.402  11.964
89511W        W48805  11.767   7.326  14.478
89512W        W48806  27.506  16.628   4.641
89513W        W48807  37.042   1.781   4.634
89514W        W48808  11.238  14.754   4.205
89515W        W48809  13.647   1.419   2.747
89516W        W48810   2.434   1.301  14.391
89517W        W48811   4.828  16.238  14.902
89518W        W48812  33.497  32.552   2.267
89519W        W48813  40.335   6.678  13.403
89520W        W48814  41.930  29.006   1.344
89521W        W48815  32.904  19.149  13.386
89522W        W48816  36.974  37.985   3.758
89523W        W48817  24.213  42.438  10.612
89524W        W48818   6.846   6.363   0.433
89525W        W48819   0.775  37.869   2.670
89526W        W48820  21.057  34.565   1.838
89527W        W48821  26.665  30.486  11.104
89528W        W48822   0.950  32.086   4.116
89529W        W48823  21.520   5.403   1.289
89530W        W48824  12.224   2.811   2.821
89531W        W48825   0.326  18.056  14.352
89532W        W48826   5.795  18.169   0.352
89533W        W48827  30.142  36.942   0.894
89534W        W48828  42.975  11.154  13.793
89535W        W48829  16.652  30.144  12.935
89536W        W48830  17.122   7.726  10.581
89537W        W48831   5.376   3.739  13.850
89538W        W48832  44.341   3.419  13.355
89539W        W48833  22.717   1.470  13.547
89540W        W48834   6.216  24.030   3.777
89541W        W48835  14.207   8.258   4.838
89542W        W48836  21.578  28.931  12.432
89543W        W48837  41.353  33.915   1.304
89544W        W48838  22.223   9.313  12.534
89545W        W48839   7.806  18.265  12.005
89546W        W48840  33.445   8.702  12.481
89547W        W48841  12.310  11.710  11.101
89548W        W48842  44.372   8.236   3.795
89549W        W48843  43.277  25.962  12.924
89550W        W48844  42.485  25.669  12.367
89551W        W48845  43.429  31.047   1.928
89552W        W48846  44.767  30.145   2.855
89553W        W48847  16.757  25.679   0.437
89554W        W48848  43.419  33.888   2.281
89555W        W48849  38.514  28.111   0.847
89556W        W48850  22.150  44.413   1.698
89557W        W48851   1.942  37.929   1.737
89558W        W48852  24.517  27.450  14.831
89559W        W48853  12.671  33.546  14.906
89560W        W48854  11.783  21.595  13.872
89561W        W48855  40.052  36.843  11.469
89562W        W48856  28.087  18.769  13.468
89563W        W48857   3.746  17.154   5.182
89564W        W48858   0.744  10.226  12.539
89565W        W48859   9.375  22.154  14.762
89566W        W48860   6.394  24.207  10.442
89567W        W48861  27.017  27.576   0.335
89568W        W48862  25.066  36.589   1.888
89569W        W48863  31.135  12.133  14.954
89570W        W48864  29.985  20.696   2.673
89571W        W48865  40.798  37.395  14.489
89572W        W48866   9.209  11.322  11.977
89573W        W48867  34.405   3.947  13.334
89574W        W48868   7.911   3.282   5.285
89575W        W48869  24.133  16.272   1.249
89576W        W48870  30.064  12.717   3.682
89577W        W48871  15.792  18.644  14.453
89578W        W48872  19.050  14.143   1.824
89579W        W48873  12.657  36.990   3.167
89580W        W48874   2.298  16.181  12.381
89581W        W48875  14.212  36.065  11.529
89582W        W48876  41.015  36.498  10.541
89583W        W48877  13.209  17.761  14.311
89584W        W48878  28.935  39.532   1.301
89585W        W48879  31.638  27.060  14.004
89586W        W48880  13.688  20.115   2.663
89587W        W48881  11.332  19.693   4.174
89588W        W48882  30.062   3.809   4.713
89589W        W48883  34.557  35.458   3.359
89590W        W48884  31.091  31.116   1.812
89591W        W48885  26.663  21.664  10.488
89592W        W48886  43.384  37.945   0.296
89593W        W48887  39.521   6.743   2.827
89594W        W48888  23.705  25.482   1.298
89595W        W48889  18.131  30.483   1.328
89596W        W48890  26.152   4.365   2.813
89597W        W48891  19.046  13.299  13.379
89598W        W48892  39.905  39.929   3.798
89599W        W48893  34.420   3.749  13.931
89600W        W48894  16.311  41.838  12.408
89601W        W48895  13.651  34.900   4.665
89602W        W48896  25.468   7.311  12.985
89603W        W48897   6.854  32.634   3.360
89604W        W48898  17.222   1.773   3.267
89605W        W48899   0.401  10.761   1.924
89606W        W48900   5.276  35.559   3.751
89607W        W48901  11.287  35.968  13.505
89608W        W48902  12.755  30.498   3.679
89609W        W48903  13.621  28.463  11.047
89610W        W48904  11.736  34.432  12.348
89611W        W48905  19.553  37.864  11.050
89612W        W48906  42.459  10.747  11.958
89613W        W48907  17.168  27.498   2.369
89614W        W48908  44.464  21.637   2.706
89615W        W48909  30.111   2.390   4.248
89616W        W48910   8.785   9.236  13.528
89617W        W48911  26.645  38.510   1.367
89618W        W48912   3.223  34.052  11.388
89619W        W48913   1.860  20.571   1.223
89620W        W48914  12.788   1.882  13.006
89621W        W48915  40.870  39.017  11.598
89622W        W48916  29.587  14.137   2.219
89623W        W48917  27.059  42.786   1.288
89624W        W48918  32.429  23.994   0.897
89625W        W48919   8.185  26.995   3.146
89626W        W48920   1.467   9.723   2.334
89627W        W48921  28.065  16.249  10.959
89628W        W48922  22.163  27.563  12.047
89629W        W48923  43.513  42.351  14.353
89630W        W48924  22.606   1.365  11.561
89631W        W48925   5.862  11.280  11.097
89632W        W48926  38.551  30.955  11.383
89633W        W48927  36.451  24.166   4.263
89634W        W48928  15.096  21.590   1.216
89635W        W48929  27.052  17.091  11.597
89636W        W48930  32.072  38.536   4.203
89637W        W48931  44.305  39.856  13.522
89638W        W48932   2.237  31.971   0.751
89639W        W48933  17.683  35.049   3.750
89640W        W48934  18.569   7.302  10.152
89641W        W48935   0.418  21.190   0.414
89642W        W48936  32.502   5.213  14.411
89643W        W48937   6.277   7.173  12.986
89644W        W48938  39.345  13.169   4.336
89645W        W48939  19.757  26.173   3.359
89646W        W48940  15.595   7.330  14.868
89647W        W48941  44.982   1.896  14.467
89648W        W48942   3.841   7.727   4.636
89649W        W48943  29.529  24.028   4.600
89650W        W48944  24.199   0.745  10.581
89651W        W48945  35.387  40.537   3.762
89652W        W48946  20.257  44.795  12.081
89653W        W48947  22.628  39.917   3.188
89654W        W48948  16.665  17.592   3.191
89655W        W48949  39.827   1.277  10.588
89656W        W48950  16.288   0.929  10.900
89657W        W48951  35.983  23.133  12.079
89658W        W48952  31.518  41.034  12.955
89659W        W48953  44.402  31.518  10.896
89660W        W48954  39.497  26.513   3.681
89661W        W48955  39.889  11.630   0.407
89662W        W48956  29.646  16.262   3.861
89663W        W48957  40.546  11.345  11.379
89664W        W48958  44.998  14.144   1.388
89665W        W48959  41.412  21.208  11.452
89666W        W48960  31.927  24.098   1.768
89667W        W48961  38.982   7.875   4.824
89668W        W48962   2.394  26.115   0.832
89669W        W48963  41.404  43.948   3.369
89670W        W48964  32.949  26.985   0.243
89671W        W48965  42.827  14.100   4.765
89672W        W48966   2.732   5.900   0.285
89673W        W48967  12.755   8.197  12.440
89674W        W48968  30.051  26.019   1.782
89675W        W48969  27.943   6.693   2.879
89676W        W48970  40.911  23.175   4.269
89677W        W48971  43.848  23.006  13.954
89678W        W48972  11.667  35.901  10.994
89679W        W48973  39.991  24.591   2.323
89680W        W48974  35.603  44.788  13.359
89681W        W48975   7.368  17.194  14.388
89682W        W48976   4.301  27.162  14.488
89683W        W48977   0.450  35.089   0.741
89684W        W48978  22.736  31.611   3.782
89685W        W48979  10.647  20.713   3.704
89686W        W48980   9.357  11.808   1.912
89687W        W48981  17.064   1.319   4.732
89688W        W48982  27.065  43.927   3.239
89689W        W48983  26.119  14.258  13.860
89690W        W48984   6.331  19.194  10.027
89691W        W48985  31.604  28.034  12.436
89692W        W48986  18.551  40.394   3.693
89693W        W48987   4.324  14.646  14.420
89694W        W48988  39.381  43.970   3.727
89695W        W48989  34.436  32.441   3.368
89696W        W48990  23.148  18.764  14.027
89697W        W48991   4.373   4.872   1.447
89698W        W48992  22.613  20.620  12.388
89699W        W48993  27.556  28.006  14.290
89700W        W48994  19.701   5.786   1.318
89701W        W48995  15.221  33.397  12.496
89702W        W48996  35.549  42.996  11.400
89703W        W48997  41.532  42.467   2.730
89704W        W48998  26.111  13.330   0.474
89705W        W48999  38.055   0.308  12.367
89706W        W49000  20.132  24.701  14.376
89707W        W49001   7.365  32.392   4.166
89708W        W49002  21.604  32.553   2.711
89709W        W49003  19.127  19.593   4.255
89710W        W49004  19.550  29.116   2.411
89711W        W49005  27.087   1.450   2.275
89712W        W49006   6.218  24.023  12.534
89713W        W49007   4.251   9.266   2.702
89714W        W49008  32.885  14.278  14.877
89715W        W49009  27.471  20.543   0.930
89716W        W49010   8.299  17.236   3.777
89717W        W49011  41.522  30.967  10.574
89718W        W49012  38.864  36.446   0.878
89719W        W49013  27.519  29.550  10.944
89720W        W49014   5.328  24.075   3.661
89721W        W49015   4.807  42.983  11.431
89722W        W49016  29.588  43.993  11.906
89723W        W49017   1.803   4.362  12.571
89724W        W49018  17.628  20.692   3.247
89725W        W49019  41.981   0.864  12.521
89726W        W49020  41.463  30.651  12.962
89727W        W49021  11.222  12.633   2.417
89728W        W49022  17.228   5.905  14.364
89729W        W49023  37.956  26.145  12.077
89730W        W49024   5.243  42.526   1.252
89731W        W49025   6.377  22.512  12.353
89732W        W49026  20.711  34.863   0.477
89733W        W49027  38.887  37.503   4.280
89734W        W49028  44.428  40.875   0.783
89735W        W49029   9.348  42.886  14.852
89736W        W49030  13.757  43.272  14.806
89737W        W49031  13.275  29.028   1.210
89738W        W49032  26.522  27.542  13.888
89739W        W49033  38.005   4.382   1.818
89740W        W49034  12.683  35.882  10.926
89741W        W49035  22.177  21.064   0.934
89742W        W49036  22.505  44.390   2.215
89743W        W49037   1.365  11.682   2.824
89744W        W49038  35.006  28.942   1.820
89745W        W49039  13.132   5.266   4.736
89746W        W49040  11.791  23.679  13.309
89747W        W49041  19.190  13.758   4.153
89748W        W49042   0.353  39.918  12.840
89749W        W49043  18.700  17.757   3.858
89750W        W49044  23.111  37.970  11.609
89751W        W49045  11.218  14.751  11.875
89752W        W49046  31.593  16.300  14.851
89753W        W49047  22.599  35.932   3.811
89754W        W49048  10.288  11.704   1.265
89755W        W49049   7.701  20.582   2.866
89756W        W49050  29.427  23.602   3.754
89757W        W49051   6.821  41.831  12.064
89758W        W49052  36.967   2.444   3.356
89759W        W49053   2.770  26.463  14.407
89760W        W49054  15.614  33.895   2.796
89761W        W49055  38.376  19.264  10.917
89762W        W49056  36.917   5.204  13.905
89763W        W49057  24.537  22.544  14.026
89764W        W49058   2.913   8.291   2.354
89765W        W49059  10.270  27.010   3.301
89766W        W49060  20.746  18.577  14.028
89767W        W49061  28.940  28.093   2.281
89768W        W49062  44.002  42.295   4.335
89769W        W49063  35.024  25.114  13.807
89770W        W49064  36.574  21.121  13.930
89771W        W49065  24.562  42.818  12.045
89772W        W49066  26.098  36.585   2.818
89773W        W49067   1.781  13.335  12.844
89774W        W49068  33.896   8.812   0.364
89775W        W49069   3.450   5.436  13.861
89776W        W49070  16.780  19.130   1.720
89777W        W49071  17.793  32.430   0.732
89778W        W49072  30.956   8.722  11.407
89779W        W49073  39.832  43.824   0.930
89780W        W49074  41.997  28.656  13.994
89781W        W49075  38.896  41.043   4.140
89782W        W49076   8.826  34.042   2.812
89783W        W49077  30.505  29.958   0.959
89784W        W49078  30.039  12.856   0.344
89785W        W49079  43.000  43.460   3.746
89786W        W49080  43.897  27.576  11.088
89787W        W49081  22.080  22.048  12.353
89788W        W49082  19.210   5.210  10.565
89789W        W49083  31.941   9.735   5.574
89790W        W49084   7.399  14.275   4.184
89791W        W49085  42.330  10.809  10.418
89792W        W49086  32.534   4.892  13.381
89793W        W49087  29.083   9.295  11.572
89794W        W49088  15.735  18.171  13.520
89795W        W49089   9.379  11.624   2.260
89796W        W49090  27.012   8.900   3.347
89797W        W49091  39.411  14.254  12.426
89798W        W49092  19.704  40.893   0.472
89799W        W49093   1.416  13.214  12.562
89800W        W49094  39.985   5.368   2.350
89801W        W49095  26.043  30.541   4.248
89802W        W49096   9.762  26.167   1.376
89803W        W49097  40.443  14.646   3.679
89804W        W49098  29.612  40.874  12.561
89805W        W49099   9.762  25.152  10.939
89806W        W49100  40.967  25.633  12.913
89807W        W49101   6.283  32.443   4.817
89808W        W49102   3.218  25.973  12.079
89809W        W49103  22.502  25.089  14.420
89810W        W49104  18.544  29.535   0.371
89811W        W49105  13.338  24.619  13.987
89812W        W49106  19.731  13.335   3.765
89813W        W49107  29.561  33.907  12.899
89814W        W49108  15.623   7.375  11.947
89815W        W49109  13.343  33.424  12.891
89816W        W49110  35.973  38.540  11.423
89817W        W49111  18.747  36.952   3.374
89818W        W49112   9.218   8.248   3.360
89819W        W49113  17.747   1.898   3.841
89820W        W49114  19.594  17.562   4.668
89821W        W49115  14.807  15.203   0.376
89822W        W49116  11.770   8.276   2.184
89823W        W49117  26.017   6.217   1.360
89824W        W49118   3.461  31.897   2.335
89825W        W49119  25.219  13.656   1.792
89826W        W49120   9.703   6.354  12.571
89827W        W49121  19.224  11.306  14.323
89828W        W49122  21.607   5.311  10.524
89829W        W49123   0.774  18.102  13.804
89830W        W49124  24.711  27.534   4.612
89831W        W49125  31.505  20.128  11.053
89832W        W49126  10.342  33.570  14.844
89833W        W49127  12.167  32.944   4.603
89834W        W49128  38.538  41.982  13.798
89835W        W49129  18.548   9.666  12.437
89836W        W49130  17.555  13.690  12.942
89837W        W49131   8.388   6.223   1.780
89838W        W49132   2.334  29.618  11.026
89839W        W49133  16.211   0.845   2.696
89840W        W49134  29.049  32.106  14.454
89841W        W49135   3.337  26.188   2.254
89842W        W49136  22.046  18.720  11.592
89843W        W49137  39.524  17.562   4.682
89844W        W49138  21.114  14.276   4.263
89845W        W49139   8.286  41.875  10.603
89846W        W49140  30.593  43.293   0.963
89847W        W49141  34.912  39.334  11.492
89848W        W49142  41.955   8.702  12.947
89849W        W49143   8.364  38.434   4.699
89850W        W49144  24.668  10.238  11.868
89851W        W49145  28.088  30.538   4.229
89852W        W49146  25.588  22.522  10.419
89853W        W49147  33.937  25.497   3.828
89854W        W49148  11.647  42.344  14.297
89855W        W49149  20.564   2.259  14.507
89856W        W49150  33.586   0.489  12.965
89857W        W49151   1.323  15.746   0.845
89858W        W49152  35.061  19.067   3.276
89859W        W49153  20.041  29.003  11.565
89860W        W49154  15.124  11.312   0.291
89861W        W49155   1.378  39.064  11.884
89862W        W49156  30.587  40.403   1.312
89863W        W49157  43.877  38.022  14.443
89864W        W49158  33.399  18.179   2.270
89865W        W49159  29.615  18.266  10.983
89866W        W49160  26.635  30.981   4.646
89867W        W49161  36.038  18.667  12.520
89868W        W49162  27.497  40.977  13.867
89869W        W49163  32.584  22.527  13.834
89870W        W49164  40.509  14.834  13.372
89871W        W49165  23.188   9.838  13.056
89872W        W49166  29.016  26.595  14.967
89873W        W49167  16.729  11.354   1.269
89874W        W49168   0.794  18.110  11.050
89875W        W49169   8.865  38.979   1.293
89876W        W49170  38.023  31.579   0.899
89877W        W49171  22.733  21.261  11.113
89878W        W49172  22.626  11.233  12.436
89879W        W49173   6.896  12.845   4.124
89880W        W49174  30.983   1.335  11.042
89881W        W49175  13.660  23.552  11.111
89882W        W49176   2.772   2.362   0.750
89883W        W49177  20.742  33.066   2.365
89884W        W49178  37.496   0.920  14.024
89885W        W49179  41.927  20.713   1.439
89886W        W49180  31.106  24.597   1.390
89887W        W49181  34.509   5.293   3.846
89888W        W49182  43.991  21.751  14.351
89889W        W49183  23.997  15.719   9.956
89890W        W49184  38.952  23.989  12.962
89891W        W49185   4.745  41.361   3.371
89892W        W49186   0.401  36.543  11.565
89893W        W49187   7.674  27.177   0.306
89894W        W49188   9.373  32.564  11.857
89895W        W49189  14.121  20.761   4.749
89896W        W49190   6.888  43.365  13.912
89897W        W49191  34.895  38.347   2.242
89898W        W49192  21.166   3.859  10.464
89899W        W49193  18.569  37.531   4.174
89900W        W49194   7.296  36.510   1.849
89901W        W49195  28.660  12.258   2.263
89902W        W49196  28.960  16.229   4.652
89903W        W49197   6.709  38.940   3.719
89904W        W49198   3.845  13.219   3.345
89905W        W49199  26.472   0.930   3.742
89906W        W49200  17.092   6.277   0.852
89907W        W49201   5.238  44.310   2.717
89908W        W49202  11.720  27.105   0.483
89909W        W49203   1.943   6.256   3.757
89910W        W49204  30.619  21.660   2.812
89911W        W49205   3.766  18.052  12.942
89912W        W49206  27.144  43.312   0.947
89913W        W49207  37.341   8.751  14.343
89914W        W49208   3.442  36.961   1.853
89915W        W49209   3.390   8.395   0.953
89916W        W49210  40.538  22.053   1.853
89917W        W49211   9.801   9.713  13.445
89918W        W49212  33.537   2.275  11.913
89919W        W49213  32.626  30.449   0.728
89920W        W49214  35.498   5.321  14.412
89921W        W49215   5.823   7.902   4.644
89922W        W49216  16.776  27.190   4.145
89923W        W49217  37.361   0.960   1.854
89924W        W49218  35.886   8.176   1.701
89925W        W49219  43.014  44.891   4.733
89926W        W49220   5.226  35.955  11.490
89927W        W49221  33.616  11.639   3.856
89928W        W49222  37.433  39.890  12.975
89929W        W49223   1.459  10.200   1.234
89930W        W49224  28.159  24.662  14.894
89931W        W49225  22.115  34.078   2.308
89932W        W49226   5.198  28.598   1.366
89933W        W49227  33.448  19.713   1.868
89934W        W49228  36.999  21.061   2.414
89935W        W49229  35.421  38.417  14.385
89936W        W49230   0.894  16.106  14.030
89937W        W49231   1.364   4.929  12.088
89938W        W49232  41.395  21.715  11.874
89939W        W49233   3.885  16.212   4.812
89940W        W49234  13.201  13.163  11.567
89941W        W49235  41.870  14.607   3.263
89942W        W49236  35.362  32.426  11.859
89943W        W49237  29.104   1.465   2.415
89944W        W49238  16.288  15.297   1.845
89945W        W49239  22.063  14.094  11.994
89946W        W49240  36.076   3.298   4.795
89947W        W49241  32.094  18.062  11.443
89948W        W49242  43.823  29.551   4.834
89949W        W49243   2.432  39.414  14.855
89950W        W49244  23.520   3.760  14.428
89951W        W49245   1.885   0.290   2.200
89952W        W49246  31.928  30.980   3.763
89953W        W49247  16.093  30.583   3.839
89954W        W49248  35.974  41.042  14.768
89955W        W49249  39.392  21.046   2.791
89956W        W49250  38.435  12.120  13.353
89957W        W49251  37.941  25.049  12.457
89958W        W49252  10.351  28.112  11.392
89959W        W49253   3.246  32.535  13.023
89960W        W49254  32.922   8.190   2.672
89961W        W49255   8.692  19.555   2.250
89962W        W49256  42.391  24.489   2.227
89963W        W49257   2.450  32.628   2.385
89964W        W49258  29.664  43.306   1.760
89965W        W49259   7.824   6.699  10.594
89966W        W49260   4.294   7.749   3.364
89967W        W49261  33.418  28.475   3.717
89968W        W49262  30.924  27.657  13.920
89969W        W49263  26.688   3.944  12.538
89970W        W49264  26.170   7.798  13.439
89971W        W49265   7.184   2.848   5.210
89972W        W49266  29.484  36.011  12.851
89973W        W49267   7.810  29.442   3.702
89974W        W49268  27.485  42.407  13.891
89975W        W49269  34.545  23.183   0.826
89976W        W49270  28.141  22.558   0.825
89977W        W49271  38.946  20.717   3.218
89978W        W49272  20.551  22.531   2.361
89979W        W49273  12.755  36.442  11.877
89980W        W49274   1.257  12.136   4.764
89981W        W49275  44.846   6.751   3.377
89982W        W49276  21.695  33.963   3.239
89983W        W49277  18.666  25.512  14.393
89984W        W49278   7.368  27.152   4.813
89985W        W49279  20.057  28.109  11.018
89986W        W49280   1.260  36.073   3.792
89987W        W49281  13.273  28.067  11.944
89988W        W49282  23.611  14.097  13.014
89989W        W49283  12.717  11.268  10.932
89990W        W49284   4.236   4.719   3.676
89991W        W49285  34.483  40.017   4.808
89992W        W49286  25.027  33.972   2.415
89993W        W49287  20.097  14.769   0.777
89994W        W49288  40.843  19.583  11.951
89995W        W49289  36.468  23.188   2.813
89996W        W49290  43.498  32.034  13.889
89997W        W49291  23.984  10.145  11.929
89998W        W49292  44.758  23.120   3.827
89999W        W49293   5.932  36.889   4.191
90000W        W49294  24.003  22.685  11.531
90001W        W49295  18.627  29.055  13.907
90002W        W49296  12.706  20.259   2.250
90003W        W49297  34.476  34.085   4.819
90004W        W49298  39.050   7.710  13.310
90005W        W49299   1.912  28.464   3.714
90006W        W49300  12.630  42.477  13.046
90007W        W49301   2.876  17.243   0.376
90008W        W49302   6.222  29.631  14.769
90009W        W49303   6.769  15.649  13.421
90010W        W49304  21.535  32.124  10.971
90011W        W49305  13.836  30.928   3.664
90012W        W49306  33.970  25.571  10.505
90013W        W49307  33.517   2.429   1.313
90014W        W49308  34.410   6.359   9.591
90015W        W49309  37.446  16.313  14.367
90016W        W49310   1.384  19.137   0.964
90017W        W49311  12.181  16.273  12.471
90018W        W49312  42.978  22.535  12.364
90019W        W49313   3.302   7.834  14.808
90020W        W49314  12.750  12.629   0.906
90021W        W49315  34.932  34.027  12.480
90022W        W49316  37.501   4.356  10.058
90023W        W49317  43.341  33.111  14.384
90024W        W49318  37.434  39.523  14.842
90025W        W49319  40.346  41.323   5.159
90026W        W49320  15.240  21.603   2.198
90027W        W49321  34.974  30.625  11.064
90028W        W49322  13.654  33.510  13.800
90029W        W49323  44.365  16.075  14.930
90030W        W49324   9.803  40.476  14.361
90031W        W49325  41.511   6.909   3.704
90032W        W49326   9.216  32.596  14.937
90033W        W49327  43.458   7.246  12.564
90034W        W49328  17.572   0.391   2.891
90035W        W49329  35.026  36.549  12.468
90036W        W49330   2.428  13.264  12.380
90037W        W49331   7.276  27.164   4.290
90038W        W49332  42.460   8.738  11.442
90039W        W49333  15.092  36.057   4.301
90040W        W49334  43.008  32.403  11.969
90041W        W49335   9.372  26.591   2.824
90042W        W49336  17.134   4.835  12.992
90043W        W49337  41.422  36.861  13.899
90044W        W49338  40.867  30.479  14.866
90045W        W49339  39.933  13.117  10.564
90046W        W49340  33.582  27.650  11.858
90047W        W49341  20.071  23.132   2.211
90048W        W49342   9.387  14.673   2.666
90049W        W49343   3.857  38.063  11.534
90050W        W49344  35.904  18.670   0.811
90051W        W49345  22.241  36.964   4.682
90052W        W49346  40.530   0.446   3.770
90053W        W49347  13.241  22.214  10.487
90054W        W49348   3.336  17.802  13.358
90055W        W49349  41.940  42.847   4.837
90056W        W49350   4.726  33.429   2.336
90057W        W49351  40.544   9.802   3.769
90058W        W49352  35.462  41.339   1.319
90059W        W49353  40.312  12.748  14.462
90060W        W49354  20.272  14.278  12.040
90061W        W49355   2.320   5.195   3.793
90062W        W49356  33.078  32.961  11.374
90063W        W49357  21.095   8.781  13.997
90064W        W49358  14.331  14.096  14.485
90065W        W49359   8.306   8.180   0.292
90066W        W49360  33.967  27.530   3.703
90067W        W49361  24.182  12.325  12.553
90068W        W49362   6.191   9.786  11.375
90069W        W49363  27.571   1.465   0.798
90070W        W49364  44.797  15.245  12.495
90071W        W49365  19.282  18.642  10.625
90072W        W49366  23.172  32.087  10.455
90073W        W49367   3.841  23.514  10.950
90074W        W49368  36.435  19.560   0.929
90075W        W49369   1.734  17.167   4.732
90076W        W49370  32.007  44.805  13.846
90077W        W49371  42.985  17.669   4.825
90078W        W49372  28.160   5.782   4.717
90079W        W49373  37.361   7.263  11.376
90080W        W49374   9.881  44.828   2.752
90081W        W49375  14.689  15.788  12.843
90082W        W49376  31.565  42.960   2.841
90083W        W49377  42.866  39.808  13.979
90084W        W49378  43.409  22.529  14.303
90085W        W49379  29.442  15.222  11.126
90086W        W49380  17.130  27.638   0.472
90087W        W49381  33.412  26.174   2.352
90088W        W49382  13.130  32.454   3.183
90089W        W49383  32.461  36.034  10.586
90090W        W49384  42.331  27.094  13.474
90091W        W49385   8.867  33.519   3.169
90092W        W49386  37.921  32.577  10.976
90093W        W49387   4.830  26.639   4.299
90094W        W49388  15.134   5.699  14.506
90095W        W49389  29.033  26.107  12.417
90096W        W49390  30.065  15.731   1.902
90097W        W49391  39.876  16.150  11.398
90098W        W49392  16.143   9.762  10.417
90099W        W49393  19.198  14.759   1.410
90100W        W49394  19.187  27.677   4.272
90101W        W49395  29.649  13.724   2.822
90102W        W49396  41.329   5.313   2.662
90103W        W49397  44.981  43.895  10.920
90104W        W49398  19.117   1.247  12.339
90105W        W49399   9.179  20.603  11.574
90106W        W49400  16.643  17.259   3.857
90107W        W49401  16.307  39.381   3.676
90108W        W49402   7.175   9.786  12.938
90109W        W49403  30.945  20.135  13.014
90110W        W49404  35.092   6.845  12.394
90111W        W49405   0.297  23.641   2.377
90112W        W49406  33.391  38.906   1.356
90113W        W49407  42.321  37.875   0.348
90114W        W49408  24.606  12.359  11.902
90115W        W49409  32.421   2.830   4.288
90116W        W49410  27.510  15.638  10.507
90117W        W49411  23.994  39.006  12.003
90118W        W49412  28.953  13.292   0.468
90119W        W49413  27.108  20.141  14.507
90120W        W49414  11.202   7.755   1.851
90121W        W49415  14.156  31.594  11.528
90122W        W49416  35.863  15.754   2.197
90123W        W49417  30.121  37.446  12.404
90124W        W49418  33.930  24.583  14.403
90125W        W49419   6.345   4.774   4.214
90126W        W49420  42.403  35.501  14.835
90127W        W49421  28.180  31.946  10.602
90128W        W49422  26.646  12.154  14.869
90129W        W49423   1.817   4.321  12.870
90130W        W49424  44.425   0.438   1.322
90131W        W49425  15.735  30.980   3.825
90132W        W49426  33.054  24.636   2.882
90133W        W49427  44.455  15.085  13.405
90134W        W49428  31.414  44.328  11.522
90135W        W49429  14.629  16.119  11.458
90136W        W49430  11.694   7.740   4.341
90137W        W49431   3.812  43.395   1.319
90138W        W49432  17.299  14.752   1.908
90139W        W49433   7.753  17.575  11.929
90140W        W49434  26.682  10.149  11.006
90141W        W49435  44.874  39.054  13.474
90142W        W49436  19.254  26.170  11.869
90143W        W49437  36.425   1.912  14.489
90144W        W49438  12.305  19.129  14.356
90145W        W49439  39.887  44.901   9.953
90146W        W49440  26.190  44.774   3.324
90147W        W49441  28.586  14.184  10.601
90148W        W49442   1.898  11.666   3.343
90149W        W49443  33.101   0.401  14.463
90150W        W49444  10.681  42.825  13.952
90151W        W49445  21.223  10.323   4.217
90152W        W49446   9.887  23.223  10.631
90153W        W49447  39.884  10.677  11.372
90154W        W49448  36.873   1.815  14.760
90155W        W49449  37.081  24.204   4.694
90156W        W49450  10.742  26.974   2.880
90157W        W49451  38.421  37.510  11.499
90158W        W49452  13.814  43.868  11.965
90159W        W49453  33.085   7.185   0.745
90160W        W49454  30.514  19.206  13.002
90161W        W49455  20.178  33.598  14.867
90162W        W49456  25.581  22.248   0.288
90163W        W49457  28.043   9.321  12.962
90164W        W49458   4.906  21.659   4.290
90165W        W49459  20.745  12.228  11.936
90166W        W49460   0.371  38.042   3.184
90167W        W49461   7.387  39.423   0.377
90168W        W49462  39.893  20.135   1.924
90169W        W49463  10.345  20.246  10.945
90170W        W49464   0.252  44.497  14.417
90171W        W49465  27.638  12.211  10.417
90172W        W49466  38.419  41.388   0.965
90173W        W49467   2.402  32.916  11.912
90174W        W49468  13.123  29.598   5.121
90175W        W49469  20.632   0.866   1.718
90176W        W49470  35.472  41.317   2.391
90177W        W49471  43.292  44.478  11.420
90178W        W49472  37.074   4.779   0.808
90179W        W49473  38.563   5.301  14.891
90180W        W49474  23.515  21.740   1.766
90181W        W49475  40.018  24.123  11.018
90182W        W49476  31.997  40.804   2.304
90183W        W49477   3.724  29.647  12.932
90184W        W49478  42.306  13.632  11.441
90185W        W49479   7.282   5.438   0.404
90186W        W49480  43.785  24.170   1.218
90187W        W49481  25.054  26.982   0.881
90188W        W49482  35.449   1.860   2.299
90189W        W49483  38.463  11.287  11.436
90190W        W49484  33.489  11.855   0.816
90191W        W49485  20.111  30.452  11.555
90192W        W49486  39.056  30.096   2.742
90193W        W49487  32.419  41.431  13.929
90194W        W49488  38.336   7.276   1.707
90195W        W49489   8.262  15.640   4.215
90196W        W49490  26.476  37.564  11.113
90197W        W49491  22.031  22.743  13.941
90198W        W49492   8.365  34.478  13.328
90199W        W49493  25.988  42.948  11.963
90200W        W49494   7.392   3.453  14.330
90201W        W49495  13.661  37.340  14.765
90202W        W49496  16.754   9.699  11.016
90203W        W49497   2.350  30.462  12.519
90204W        W49498  36.034   5.873   2.332
90205W        W49499  35.005  31.919   3.848
90206W        W49500  36.449  44.269   1.798
90207W        W49501  42.002  21.090  13.981
90208W        W49502  42.931  42.934  10.589
90209W        W49503   5.693  25.025   2.709
90210W        W49504  20.677   9.821  11.567
90211W        W49505  37.496  22.649  11.421
90212W        W49506  11.230  34.512   3.296
90213W        W49507  42.791  33.598  12.527
90214W        W49508   3.234   0.368   5.131
90215W        W49509  20.206  15.631   0.879
90216W        W49510  29.469   1.398  14.014
90217W        W49511  35.076   3.902   4.676
90218W        W49512  20.165  44.498   2.285
90219W        W49513  40.835  26.526   2.671
90220W        W49514  22.642  14.266   4.268
90221W        W49515  12.138  34.888  12.057
90222W        W49516  33.476  26.584  12.489
90223W        W49517  14.182  29.140   2.758
90224W        W49518  20.253   5.867  13.929
90225W        W49519   7.176   1.935  14.320
90226W        W49520  13.774  28.083  13.956
90227W        W49521  27.993  27.964   4.210
90228W        W49522  26.477   2.263   4.782
90229W        W49523  13.212  40.954  13.352
90230W        W49524  28.641  36.878  12.533
90231W        W49525  42.350  31.104   4.748
90232W        W49526  42.455  21.102   1.357
90233W        W49527  11.280   1.466  12.435
90234W        W49528  19.057  29.613  13.040
90235W        W49529   9.879  10.662  10.989
90236W        W49530   6.258   8.887   1.887
90237W        W49531  23.700  29.000   2.802
90238W        W49532  32.550  14.756   4.185
90239W        W49533  34.068  18.610   3.778
90240W        W49534   5.213   4.830  12.347
90241W        W49535  19.547  25.021   3.371
90242W        W49536  42.850  22.225   3.359
90243W        W49537  10.688   7.763  11.414
90244W        W49538  22.639  35.419  12.491
90245W        W49539   4.420  29.583  14.478
90246W        W49540   5.838  18.271  13.446
90247W        W49541  30.483  30.508   0.798
90248W        W49542  11.258  21.074   4.615
90249W        W49543   7.255  30.107   1.406
90250W        W49544  20.682  23.157   4.644
90251W        W49545  26.564   5.757   0.931
90252W        W49546   7.905  24.177   3.787
90253W        W49547  19.748  22.170  14.803
90254W        W49548  21.573  13.115   4.733
90255W        W49549  37.874   4.405  14.023
90256W        W49550  25.178   6.263  11.105
90257W        W49551   1.757  28.461  14.984
90258W        W49552  30.967  44.299  14.990
90259W        W49553  15.194  18.124   1.386
90260W        W49554   0.781  32.899  14.853
90261W        W49555  22.079  10.674  14.783
90262W        W49556  13.310  36.520   0.770
90263W        W49557  41.292  12.686  10.504
90264W        W49558   8.761  15.742  13.345
90265W        W49559  16.240   4.787  12.436
90266W        W49560  19.043  40.307   1.698
90267W        W49561  24.978   9.665  14.860
90268W        W49562  19.673   4.863   4.314
90269W        W49563  22.209  19.059  11.065
90270W        W49564  23.104  44.833  11.609
90271W        W49565  43.360  18.154  14.403
90272W        W49566   1.401  21.521  10.892
90273W        W49567  24.620  41.359   1.934
90274W        W49568   0.467  35.914  12.943
90275W        W49569   5.788  34.050  13.452
90276W        W49570  36.928  42.870   2.687
90277W        W49571   8.377   6.299  12.005
90278W        W49572  22.618  23.709   0.437
90279W        W49573  24.999  14.748  11.411
90280W        W49574  14.798  43.353   4.159
90281W        W49575  23.722   7.865  14.915
90282W        W49576  11.244  11.364   4.186
90283W        W49577  33.460  18.785   0.463
90284W        W49578   5.428  22.123  14.368
90285W        W49579  42.393  33.457  14.805
90286W        W49580  38.981  24.041   1.758
90287W        W49581  39.027  42.333  10.619
90288W        W49582  40.837  14.321  12.417
90289W        W49583  11.758  16.581   4.313
90290W        W49584  20.693  40.428  14.444
90291W        W49585  17.649  43.418   0.393
90292W        W49586  25.093  27.538  13.885
90293W        W49587  44.996  26.468   4.156
90294W        W49588  25.155  44.419   1.413
90295W        W49589  16.160  44.855   0.253
90296W        W49590  11.865  41.986  10.431
90297W        W49591  17.099  36.400   2.692
90298W        W49592  16.576   5.271   3.773
90299W        W49593  13.606  23.627  11.870
90300W        W49594  34.475  40.349   3.731
90301W        W49595  43.410  26.143   3.853
90302W        W49596  33.058  37.451  13.834
90303W        W49597  39.994  28.570  11.900
90304W        W49598  11.776  33.098  13.340
90305W        W49599  36.845  21.674   2.235
90306W        W49600  44.260   5.330   3.247
90307W        W49601  32.631  24.997  12.073
90308W        W49602   2.229  25.665  12.948
90309W        W49603  37.548   8.232   3.222
90310W        W49604  40.032  14.816  13.478
90311W        W49605  35.414  11.629  13.924
90312W        W49606  24.635  18.235   0.818
90313W        W49607  17.157   0.831  13.526
90314W        W49608  42.392  26.204  12.006
90315W        W49609  26.617  43.899   3.192
90316W        W49610  44.801  38.047   1.437
90317W        W49611  37.358   7.868  13.501
90318W        W49612  41.406  38.911   0.244
90319W        W49613  15.768  41.809   4.804
90320W        W49614  24.086  32.451   3.796
90321W        W49615  19.187  17.140  11.042
90322W        W49616  25.015   2.793   4.175
90323W        W49617  40.028   5.375  14.471
90324W        W49618   2.361  32.917  13.389
90325W        W49619  23.504  21.120   0.385
90326W        W49620   6.834  33.492  12.346
90327W        W49621  13.307  17.648   2.343
90328W        W49622  28.595  17.181   1.799
90329W        W49623   8.708   4.885  12.043
90330W        W49624  22.689  35.876  13.796
90331W        W49625  38.379  33.434  11.969
90332W        W49626  42.373  44.291   1.795
90333W        W49627  32.460  38.858  12.493
90334W        W49628  12.130  14.812  14.476
90335W        W49629   6.205  18.706   3.305
90336W        W49630  35.891  44.804  12.874
90337W        W49631  20.224  38.549   1.215
90338W        W49632  13.698  29.649   3.868
90339W        W49633  23.994  19.141  11.396
90340W        W49634  31.421  15.598   4.806
90341W        W49635   2.255  38.961   4.634
90342W        W49636  26.510  42.467  13.914
90343W        W49637  44.289  22.556   4.658
90344W        W49638  20.734  44.761  14.920
90345W        W49639  24.612  25.036  11.377
90346W        W49640  10.666  23.594  13.899
90347W        W49641  29.007  12.626  13.832
90348W        W49642  18.651   0.989  12.425
90349W        W49643  30.624  38.416   0.955
90350W        W49644  44.771  27.135   0.868
90351W        W49645   0.249  17.695  13.861
90352W        W49646  39.995   3.853   2.368
90353W        W49647  25.076  11.712  10.414
90354W        W49648   7.683   0.940   1.700
90355W        W49649  34.047   6.905   4.283
90356W        W49650  36.384  27.086  14.410
90357W        W49651  21.589  11.327   9.453
90358W        W49652  17.235   2.415  11.443
90359W        W49653  31.995  33.917   0.360
90360W        W49654  26.659  21.036   0.313
90361W        W49655   6.396  23.548   2.348
90362W        W49656   2.746  16.728  10.963
90363W        W49657  23.514  24.043  11.529
90364W        W49658  12.289  38.840  10.414
90365W        W49659  12.687   0.802   1.373
90366W        W49660   8.196  22.551  14.820
90367W        W49661   0.313  33.004  13.333
90368W        W49662   9.800  18.623  13.860
90369W        W49663  32.474   9.704  12.996
90370W        W49664   0.936  12.283  10.902
90371W        W49665  19.692  19.572  10.475
90372W        W49666  40.447  22.713  12.863
90373W        W49667  22.226  15.710  14.970
90374W        W49668   9.394  13.229  13.308
90375W        W49669  23.012  33.882   1.408
90376W        W49670  13.742  26.652  12.898
90377W        W49671  31.052  30.597   4.256
90378W        W49672  42.861  40.530   2.771
90379W        W49673  41.356   0.301   0.812
90380W        W49674  15.690  19.758   1.900
90381W        W49675  13.680  43.508   3.729
90382W        W49676  37.569  39.375   3.696
90383W        W49677  10.799  26.557   0.456
90384W        W49678  44.904  38.336  11.036
90385W        W49679  32.965  20.093  14.025
90386W        W49680   9.880  44.935  10.978
90387W        W49681  28.054   5.217  11.442
90388W        W49682  27.149  25.617   0.316
90389W        W49683  21.031  42.494  13.851
90390W        W49684  34.078   6.719  14.378
90391W        W49685   3.243  28.648  14.029
90392W        W49686   2.293  37.528   2.830
90393W        W49687  25.598  31.062  12.093
90394W        W49688  41.960  13.613  10.634
90395W        W49689  36.546  10.379   3.228
90396W        W49690   2.882   3.903   2.374
90397W        W49691  40.417  13.123  14.329
90398W        W49692  16.157  10.860   2.721
90399W        W49693  26.586  42.510   2.781
90400W        W49694  44.277  30.658  11.931
90401W        W49695  26.459  27.497   9.931
90402W        W49696  13.698  17.256  14.955
90403W        W49697  29.934  42.417  12.845
90404W        W49698  31.107   4.930   1.909
90405W        W49699  42.435  27.542  11.577
90406W        W49700  20.526  27.465   4.270
90407W        W49701  14.779  26.491  14.868
90408W        W49702  41.299  34.874   4.743
90409W        W49703  11.716  42.383  11.490
90410W        W49704  43.020  35.417  14.767
90411W        W49705  13.617  20.674   3.218
90412W        W49706   8.790  25.053   5.092
90413W        W49707  10.330  18.621   3.829
90414W        W49708  35.541   8.231  14.022
90415W        W49709  40.930  29.943   0.283
90416W        W49710  14.235   2.879   1.409
90417W        W49711  24.143  24.173   2.338
90418W        W49712  35.979  31.575  14.446
90419W        W49713  35.576  33.101  12.361
90420W        W49714  38.003  42.787  13.385
90421W        W49715  41.495   0.324  12.884
90422W        W49716  16.104  40.319   2.265
90423W        W49717  11.630  14.150   1.865
90424W        W49718  14.808   5.307  14.798
90425W        W49719  10.783  36.555   4.748
90426W        W49720  39.500   8.234   1.906
90427W        W49721  38.823   3.854  13.515
90428W        W49722  40.014  44.821   0.946
90429W        W49723  28.514  37.083  10.110
90430W        W49724  38.469  31.408  10.040
90431W        W49725  23.006  21.162  14.502
90432W        W49726  35.527   6.737  13.949
90433W        W49727  11.300   7.752  11.028
90434W        W49728  31.612  20.028  10.601
90435W        W49729  29.607  37.888   1.372
90436W        W49730  15.604  22.148   4.639
90437W        W49731  37.903  34.963   3.655
90438W        W49732  16.658  21.513   4.175
90439W        W49733  32.029  15.257   3.274
90440W        W49734  35.105  31.112   1.852
90441W        W49735  39.934   3.325  11.481
90442W        W49736  44.319  23.729   0.780
90443W        W49737  15.298  18.652   3.380
90444W        W49738  21.263  35.413   0.277
90445W        W49739  24.539  24.687   2.819
90446W        W49740  19.579  33.013  11.944
90447W        W49741  24.480   3.937  13.966
90448W        W49742  19.222   6.272   1.716
90449W        W49743  28.644   3.837  14.375
90450W        W49744   0.254  19.271   3.238
90451W        W49745  30.098  11.217   4.198
90452W        W49746  13.746  26.102   4.250
90453W        W49747  43.782  39.062  11.098
90454W        W49748   4.718   3.783  13.503
90455W        W49749  21.026  40.883   0.738
90456W        W49750   0.471  17.778  11.874
90457W        W49751  20.714   2.915  13.406
90458W        W49752   1.377  25.039  10.539
90459W        W49753  19.773  35.007   1.808
90460W        W49754  29.488  44.312   1.772
90461W        W49755  11.320  24.586  11.043
90462W        W49756   7.397  36.026   1.213
90463W        W49757  25.097  23.650   2.263
90464W        W49758   2.859  38.370  12.367
90465W        W49759  27.988  41.310  13.547
90466W        W49760   6.698   6.817   3.192
90467W        W49761  28.498  17.600   1.718
90468W        W49762   5.415  11.659   2.290
90469W        W49763  21.592  40.832   4.220
90470W        W49764  40.529  19.552  13.061
90471W        W49765  26.513  33.126   2.733
90472W        W49766  11.700  31.104  14.421
90473W        W49767  17.723   6.871   4.748
90474W        W49768  23.003  14.190  13.438
90475W        W49769  12.739  38.911  14.396
90476W        W49770  17.702  29.092  11.053
90477W        W49771   3.836  16.680  13.796
90478W        W49772   1.822   2.784   3.372
90479W        W49773  18.581  39.415  13.339
90480W        W49774   0.482  17.266   2.386
90481W        W49775  25.621  28.031   4.642
90482W        W49776   9.686  19.278  14.345
90483W        W49777  27.486   0.965  11.892
90484W        W49778   6.293  10.849   1.925
90485W        W49779   8.248   7.830   4.833
90486W        W49780   8.696  35.949   1.913
90487W        W49781  27.982  11.360  11.402
90488W        W49782  44.992   0.254  14.907
90489W        W49783   7.725  26.951   1.382
90490W        W49784  41.935  27.093  11.934
90491W        W49785  34.904   5.235   2.707
90492W        W49786  24.142  23.113   2.386
90493W        W49787  12.827   7.814   2.885
90494W        W49788  21.668  39.340  11.106
90495W        W49789  38.836   7.744   2.212
90496W        W49790  26.204  35.557   3.334
90497W        W49791  13.343  37.866   1.915
90498W        W49792  30.941   5.833   2.761
90499W        W49793  24.659  26.151   3.151
90500W        W49794  13.212  34.933   2.208
90501W        W49795  15.741  31.896  14.441
90502W        W49796  26.615  18.665  13.928
90503W        W49797  15.784  28.566  14.788
90504W        W49798  23.674  28.159   1.781
90505W        W49799  27.502  44.263  14.360
90506W        W49800  36.963  41.918   3.659
90507W        W49801   7.720   0.762   0.958
90508W        W49802  40.542  22.114   0.751
90509W        W49803  38.552  29.092   4.159
90510W        W49804   2.951  40.386  14.024
90511W        W49805   5.863  11.831   2.827
90512W        W49806  43.445   2.952   3.268
90513W        W49807  10.332   2.411  12.579
90514W        W49808   3.439  38.066   4.352
90515W        W49809  43.858  43.961  13.407
90516W        W49810  17.125   2.934   0.886
90517W        W49811  35.915  19.201   0.779
90518W        W49812  16.703  25.628   4.783
90519W        W49813  14.688   3.380  11.419
90520W        W49814  41.434  32.510   2.889
90521W        W49815   3.816   3.766   0.957
90522W        W49816   0.781  31.083  11.493
90523W        W49817  20.595  41.815  11.898
90524W        W49818  17.238  42.380   0.283
90525W        W49819  30.953  24.141   0.953
90526W        W49820  43.498  34.565   2.336
90527W        W49821   2.382   2.284  11.032
90528W        W49822  13.335   5.899   3.311
90529W        W49823  10.672  12.659   4.254
90530W        W49824   6.246  30.105  12.066
90531W        W49825  38.508  13.242  12.550
90532W        W49826  22.046  18.708   1.315
90533W        W49827   7.359  27.945  12.457
90534W        W49828  12.159  43.398  13.368
90535W        W49829  17.684   7.343   4.690
90536W        W49830  21.543  29.627   1.212
90537W        W49831  23.655  36.436   4.335
90538W        W49832  38.005  40.939   1.393
90539W        W49833  27.482  29.051   2.224
90540W        W49834  40.517  34.600  14.451
90541W        W49835   9.648  27.587   1.770
90542W        W49836   4.204  29.974   3.769
90543W        W49837  21.208   5.790   1.408
90544W        W49838   6.270  37.954  14.984
90545W        W49839  24.639  28.135   3.837
90546W        W49840  11.192  41.881   1.718
90547W        W49841   0.869  28.064  13.842
90548W        W49842  32.512  11.745  13.463
90549W        W49843  38.018  10.298   0.272
90550W        W49844   3.892  34.462  13.011
90551W        W49845  43.505   2.309  14.435
90552W        W49846  20.742   8.345  13.368
90553W        W49847   4.363   3.800   1.699
90554W        W49848  29.053  29.025   2.215
90555W        W49849  18.248  35.037  11.587
90556W        W49850   0.267  33.388   2.258
90557W        W49851   6.714   9.199   2.739
90558W        W49852  33.042   3.266   2.804
90559W        W49853  34.913  29.152   4.273
90560W        W49854  19.219  12.612   2.868
90561W        W49855  10.680  17.106   0.328
90562W        W49856  18.101  31.927  13.487
90563W        W49857  41.443  25.631   4.703
90564W        W49858  18.205  18.274   3.765
90565W        W49859  41.931  43.453  11.382
90566W        W49860  11.694  43.370  14.793
90567W        W49861  20.119  41.327  10.533
90568W        W49862  41.366  41.963  11.001
90569W        W49863  44.980   7.707   1.724
90570W        W49864   5.926  11.358  12.345
90571W        W49865  40.009  43.988   4.187
90572W        W49866  32.423   5.744   4.765
90573W        W49867  22.601  21.208  13.328
90574W        W49868  10.814  40.973  13.937
90575W        W49869  22.504  33.078  11.610
90576W        W49870  29.966  30.060   4.285
90577W        W49871  35.501   0.808   1.405
90578W        W49872  17.757  22.999   5.181
90579W        W49873  36.411  27.046  11.613
90580W        W49874  34.560  10.234   4.184
90581W        W49875  35.604  37.012  13.974
90582W        W49876  23.126   8.707   1.311
90583W        W49877   7.368  11.817   4.302
90584W        W49878  12.742  23.024   3.359
90585W        W49879   1.327  40.903   2.280
90586W        W49880   9.710  28.935  14.483
90587W        W49881  10.656  33.455  11.889
90588W        W49882   5.904  22.560   2.754
90589W        W49883  42.926  11.797  11.111
90590W        W49884  44.480  20.701  13.935
90591W        W49885   7.411  25.624   2.199
90592W        W49886  26.580  43.419  12.876
90593W        W49887  27.629   0.397   0.243
90594W        W49888  28.129   6.423  12.902
90595W        W49889  22.503  34.614  11.961
90596W        W49890  33.500  12.846   1.708
90597W        W49891   6.849  34.410  12.037
90598W        W49892  24.187  17.746  12.357
90599W        W49893  40.982  17.568  13.318
90600W        W49894  26.176   3.914  14.925
90601W        W49895  22.568  17.667  10.896
90602W        W49896  43.974  37.022   3.652
90603W        W49897  37.341  16.088   1.925
90604W        W49898  36.899  17.799  14.356
90605W        W49899  42.475  29.002   1.378
90606W        W49900   4.852  30.643  13.916
90607W        W49901  42.298   0.407   9.561
90608W        W49902  44.413  23.499  12.055
90609W        W49903  34.379  24.596  10.441
90610W        W49904  10.338  15.735  13.515
90611W        W49905  44.887  32.098  10.961
90612W        W49906  12.747  15.305   1.408
90613W        W49907   7.341  24.490  13.885
90614W        W49908  43.881  35.525   0.254
90615W        W49909  28.115  16.081   1.342
90616W        W49910  39.970  15.280  10.908
90617W        W49911   6.833  34.080   4.196
90618W        W49912  12.676  23.647   1.707
90619W        W49913   1.962  35.433  13.343
90620W        W49914  23.230   2.776  12.407
90621W        W49915  30.495  28.994   4.612
90622W        W49916  22.684  42.797   3.752
90623W        W49917  21.542  33.492   2.898
90624W        W49918  30.548   3.371   4.150
90625W        W49919  36.440  15.297   3.309
90626W        W49920  40.048   7.182   2.274
90627W        W49921  31.603  10.321   4.114
90628W        W49922   2.229  17.075  11.117
90629W        W49923  38.487   6.716  14.303
90630W        W49924  20.646   7.846  13.432
90631W        W49925  28.027  15.787   4.797
90632W        W49926  36.507   6.381   0.800
90633W        W49927  12.152   2.324   3.665
90634W        W49928  34.424   1.858  10.578
90635W        W49929   0.394  40.831  12.066
90636W        W49930  31.555  37.912  11.380
90637W        W49931  22.092  27.168  11.926
90638W        W49932   3.417  43.951  14.887
90639W        W49933  41.900  16.780  13.862
90640W        W49934   2.731  40.830   1.354
90641W        W49935   5.881  16.286  14.977
90642W        W49936   7.810  24.042   0.311
90643W        W49937  28.563  21.573  13.930
90644W        W49938  44.875  17.698  13.911
90645W        W49939  24.694  25.640  13.467
90646W        W49940   2.260  32.123  14.774
90647W        W49941  28.441   2.886  14.803
90648W        W49942  13.320  20.620  10.539
90649W        W49943   6.757  39.869   1.806
90650W        W49944  15.274  43.984  12.408
90651W        W49945   1.931  25.128  13.460
90652W        W49946  35.366  14.795   3.715
90653W        W49947  24.170  14.783  10.473
90654W        W49948  39.960  29.037   1.922
90655W        W49949  42.884  26.061   3.250
90656W        W49950  40.381   9.779   0.317
90657W        W49951  25.078   3.398  12.491
90658W        W49952  35.419  44.293   0.348
90659W        W49953  40.860  37.836   5.258
90660W        W49954  16.308  24.005  11.119
90661W        W49955  22.514  22.649   4.625
90662W        W49956  18.277   7.291  12.089
90663W        W49957  41.894   4.712   5.230
90664W        W49958  39.001   6.881  12.566
90665W        W49959  12.658  30.951   3.842
90666W        W49960   5.784  42.885  10.978
90667W        W49961  30.032  13.764   0.754
90668W        W49962  24.616   5.280  14.989
90669W        W49963  19.678  37.494  13.402
90670W        W49964  37.521  12.206  14.503
90671W        W49965  41.308   0.927   1.313
90672W        W49966   6.846   2.842  11.401
90673W        W49967  16.736   3.739  12.342
90674W        W49968   6.211  21.187  10.452
90675W        W49969   6.313  20.212   0.952
90676W        W49970   5.309  43.283   2.381
90677W        W49971   7.187  37.580  13.966
90678W        W49972   3.780   1.735  12.012
90679W        W49973  41.938  12.302  11.433
90680W        W49974  24.671  28.591  12.986
90681W        W49975   3.460  41.522   2.849
90682W        W49976   4.340  34.920   3.294
90683W        W49977  14.731  22.166   4.641
90684W        W49978   9.339  13.607   2.749
90685W        W49979  12.707  29.604  13.924
90686W        W49980   8.790  38.423   2.747
90687W        W49981  34.605  43.914  14.279
90688W        W49982  36.592  28.540  11.001
90689W        W49983  14.227   6.216   2.754
90690W        W49984   4.259   7.401  11.116
90691W        W49985  11.668   9.659   4.350
90692W        W49986  16.715  30.926   2.887
90693W        W49987  37.525  35.002   0.790
90694W        W49988   8.771  37.956  11.583
90695W        W49989  19.764  11.208  11.516
90696W        W49990  14.235  35.035  11.873
90697W        W49991  41.021   7.316   1.728
90698W        W49992  33.089  11.864  13.958
90699W        W49993  33.922   5.258   4.337
90700W        W49994  22.705   9.345   3.249
90701W        W49995  34.560  16.243  10.887
90702W        W49996  26.563  37.971  14.302
90703W        W49997  22.082  40.911   2.259
90704W        W49998  39.966  36.066  14.487
90705W        W49999  25.039  12.618   2.825
90706W        W50000  27.599  12.681  13.398
90707W        W50001  15.176  29.949  11.384
90708W        W50002  14.658  40.330  10.628
90709W        W50003  35.952  14.618  14.375
90710W        W50004  10.294  29.528  10.536
90711W        W50005  43.853  34.874  10.626
90712W        W50006  15.215  39.429   1.307
90713W        W50007  39.547   1.851  11.548
90714W        W50008  15.313  28.605   3.312
90715W        W50009  26.014   8.719   2.223
90716W        W50010  40.332  27.147  12.427
90717W        W50011  44.927   3.915  10.455
90718W        W50012  22.234   3.374  14.325
90719W        W50013  32.406  42.414  13.406
90720W        W50014  44.322  28.937   0.797
90721W        W50015  31.977  14.268  13.987
90722W        W50016   4.863  34.458   5.304
90723W        W50017  14.204  42.884   1.239
90724W        W50018   3.891  32.989   4.718
90725W        W50019  28.005  14.816  11.876
90726W        W50020   0.282  21.161  11.549
90727W        W50021  16.799   3.251  14.467
90728W        W50022  20.580  29.611   0.911
90729W        W50023  17.201  13.114  12.558
90730W        W50024  18.068  12.656  14.974
90731W        W50025  19.652  28.018  14.836
90732W        W50026  30.520  17.251  12.909
90733W        W50027  22.504  20.550   4.277
90734W        W50028   2.928  39.337  11.018
90735W        W50029  27.193   8.211  14.318
90736W        W50030   9.228  24.130   2.773
90737W        W50031  34.864  11.712   2.207
90738W        W50032  37.377   1.477   4.750
90739W        W50033  39.533  36.047   0.444
90740W        W50034  31.446  40.050  14.467
90741W        W50035  27.470  34.585   0.741
90742W        W50036  27.547   9.374  10.525
90743W        W50037  42.316  43.452   2.228
90744W        W50038  31.981  18.165  12.039
90745W        W50039  36.968  16.573  10.594
90746W        W50040  24.984   1.879  11.944
90747W        W50041   6.257  12.800   3.179
90748W        W50042  42.028   9.834  13.472
90749W        W50043  14.674  14.262  13.990
90750W        W50044  35.042  31.018   3.172
90751W        W50045  12.254  37.840   3.385
90752W        W50046   3.388  29.577   4.175
90753W        W50047  13.808   9.253   3.335
90754W        W50048   9.677  20.541  14.031
90755W        W50049  20.568  30.654   2.367
90756W        W50050  11.696  34.387  14.940
90757W        W50051  34.982  18.548  11.578
90758W        W50052  20.252  41.372  13.037
90759W        W50053   0.452  44.753   0.434
90760W        W50054  15.584  33.932  10.455
90761W        W50055  18.210  26.031  14.430
90762W        W50056  16.078  33.545  14.813
90763W        W50057  36.052   7.803  13.850
90764W        W50058  27.470  30.506  14.842
90765W        W50059  11.312  20.132   3.796
90766W        W50060  12.734  37.355  12.422
90767W        W50061   9.758  37.963  10.627
90768W        W50062   9.749  43.766   0.780
90769W        W50063  25.141  18.664   1.244
90770W        W50064  42.478  42.382   3.775
90771W        W50065   1.922  41.486  11.077
90772W        W50066  41.930  42.445  13.468
90773W        W50067  39.826  23.525   1.829
90774W        W50068  21.670  14.237   2.309
90775W        W50069   9.282  26.086  12.358
90776W        W50070   8.371  16.606  12.848
90777W        W50071  36.417  15.315  12.996
90778W        W50072  23.208   8.392  11.888
90779W        W50073  41.855  22.022  12.088
90780W        W50074  20.679  37.514  12.002
90781W        W50075  21.216   9.262   2.768
90782W        W50076  29.044  12.685  14.372
90783W        W50077  13.771  37.008  13.340
90784W        W50078   2.857  24.016   2.892
90785W        W50079  16.120  30.056   4.682
90786W        W50080  32.560  18.294  14.771
90787W        W50081  40.354   7.701   1.909
90788W        W50082   7.692  35.923   0.300
90789W        W50083  32.612  12.340  12.368
90790W        W50084   6.265   6.337  10.953
90791W        W50085   1.427  32.985  11.919
90792W        W50086  34.894  30.949   2.876
90793W        W50087  43.764   8.243   3.353
90794W        W50088  42.827  42.852   0.281
90795W        W50089  16.595   5.927   4.322
90796W        W50090   9.162   3.856  13.000
90797W        W50091  12.278  32.933  12.430
90798W        W50092   1.358  20.670  11.877
90799W        W50093  41.913   7.240  11.074
90800W        W50094  12.289  23.144  11.412
90801W        W50095   7.266  13.693  10.970
90802W        W50096   4.843   7.693   2.795
90803W        W50097  26.099  16.643   1.304
90804W        W50098   4.852  21.647   2.888
90805W        W50099  16.581  26.107   0.449
90806W        W50100   9.695  31.479   4.696
90807W        W50101  36.888  15.767  12.827
90808W        W50102  10.357  34.062   3.804
90809W        W50103  28.485   4.345   2.416
90810W        W50104  32.450  32.611  13.366
90811W        W50105  12.838  43.890   4.678
90812W        W50106  38.038  32.009  13.337
90813W        W50107   3.770  32.094  14.286
90814W        W50108  35.108  32.515  10.978
90815W        W50109   4.288  13.134  12.048
90816W        W50110  33.529   2.328   3.332
90817W        W50111   6.873   2.862   3.663
90818W        W50112  22.245  32.620   0.779
90819W        W50113   6.767  38.472   4.293
90820W        W50114   6.282  31.533  11.444
90821W        W50115  14.273  35.408  11.984
90822W        W50116   3.811   7.277   0.757
90823W        W50117  22.613  42.484   2.672
90824W        W50118  18.239  29.961   4.293
90825W        W50119   8.663  38.494   4.708
90826W        W50120  21.058  12.173  11.564
90827W        W50121  20.648   6.275   2.714
90828W        W50122  27.683  35.596  11.921
90829W        W50123  24.030  38.044   2.902
90830W        W50124   5.285  41.348  12.076
90831W        W50125   8.876  27.080   3.783
90832W        W50126  10.804  33.937  14.784
90833W        W50127  35.437  33.431  13.817
90834W        W50128  31.948  21.604  12.460
90835W        W50129  12.290  15.769   0.392
90836W        W50130   6.255  22.153  13.410
90837W        W50131   5.832  20.745  12.441
90838W        W50132   7.821  40.952   3.320
90839W        W50133  23.489  17.780  10.638
90840W        W50134  32.483  12.650   5.200
90841W        W50135  41.998  23.605   0.894
90842W        W50136  31.135  32.394  11.901
90843W        W50137  42.400  36.971   3.738
90844W        W50138   9.723   5.354  13.358
90845W        W50139  12.656  43.791  13.429
90846W        W50140  35.009  30.980  12.396
90847W        W50141  42.346  44.313   1.322
90848W        W50142  14.633  17.557  10.627
90849W        W50143   4.388  37.434   4.159
90850W        W50144   9.836  15.235   3.649
90851W        W50145  38.045  13.247   2.368
90852W        W50146  28.999  18.684   1.903
90853W        W50147  28.941   7.762  13.986
90854W        W50148  13.168   9.749  12.887
90855W        W50149  17.583  40.479   3.261
90856W        W50150  21.198  24.214  12.916
90857W        W50151  20.156   2.448  13.328
90858W        W50152  14.811  41.845   4.797
90859W        W50153  26.590  43.788  10.565
90860W        W50154   6.346   2.865   0.924
90861W        W50155  34.525   0.469  13.940
90862W        W50156   0.460  44.963   1.715
90863W        W50157   4.881  17.250   0.482
90864W        W50158  37.870  35.075  11.573
90865W        W50159  11.343  26.138  12.083
90866W        W50160  10.281  26.185  12.453
90867W        W50161  18.560  40.018  14.364
90868W        W50162  33.917   9.209   3.176
90869W        W50163  43.400  20.066   1.323
90870W        W50164  20.660  26.591  11.949
90871W        W50165  17.223  28.454   0.782
90872W        W50166  27.612  24.491  14.857
90873W        W50167  43.920  12.286   0.768
90874W        W50168  43.514  42.933  11.879
90875W        W50169  40.002  42.030   0.463
90876W        W50170   4.422  38.545   3.780
90877W        W50171  23.141  43.766   1.904
90878W        W50172  12.211  37.908   2.324
90879W        W50173   9.701  36.588  11.500
90880W        W50174  17.208  35.471   1.341
90881W        W50175  38.867  41.937   2.809
90882W        W50176   8.888   6.837  11.559
90883W        W50177  42.822   5.382  14.809
90884W        W50178  12.702  21.141  13.389
90885W        W50179  11.866  29.435   0.312
90886W        W50180  36.942  36.940  13.392
90887W        W50181  27.670  28.935   1.724
90888W        W50182   1.251  36.406   3.757
90889W        W50183  20.268  35.542   0.471
90890W        W50184  39.899  44.414   3.719
90891W        W50185  30.162   9.865  12.435
90892W        W50186   9.834  25.552   0.895
90893W        W50187  20.531   5.403  11.994
90894W        W50188  15.157  44.980  12.870
90895W        W50189  14.677  29.432   3.706
90896W        W50190  21.122  10.255   0.912
90897W        W50191  12.822  14.280  13.851
90898W        W50192  28.048  11.696  11.439
90899W        W50193  37.909  10.190  11.457
90900W        W50194  27.157   7.731  12.562
90901W        W50195   4.790   2.436  10.617
90902W        W50196  26.082  43.294   2.388
90903W        W50197  37.900  35.027   1.299
90904W        W50198  21.247   5.253   1.909
90905W        W50199  13.676   1.743   3.147
90906W        W50200   5.863  11.821  14.792
90907W        W50201  11.772   0.361   1.931
90908W        W50202  43.392  17.780   4.657
90909W        W50203  26.614  11.719  13.937
90910W        W50204  32.533  29.059  11.063
90911W        W50205  10.646   7.799   2.699
90912W        W50206  34.874  32.040   2.791
90913W        W50207  11.855  37.886  11.461
90914W        W50208  39.949  29.117  13.445
90915W        W50209  38.546  26.544   0.894
90916W        W50210  29.651  24.995   2.712
90917W        W50211   1.872  23.077  12.461
90918W        W50212   1.965   6.251   3.343
90919W        W50213  10.288  32.142   1.274
90920W        W50214  18.703  38.026  12.563
90921W        W50215  19.071  19.139  13.952
90922W        W50216   1.849  30.944  11.528
90923W        W50217  36.001  16.743  11.449
90924W        W50218   0.982  12.835   5.093
90925W        W50219   8.291  11.740   1.930
90926W        W50220  19.740   5.702  13.822
90927W        W50221  42.475  21.021  13.314
90928W        W50222  43.887  31.573   1.827
90929W        W50223  37.406   6.815  13.903
90930W        W50224   9.795  23.615   4.258
90931W        W50225   1.786  10.660  10.942
90932W        W50226  38.068  44.392   2.242
90933W        W50227  42.922  28.467   4.284
90934W        W50228  27.593   1.276   3.858
90935W        W50229  33.435  18.295  13.385
90936W        W50230  16.144  20.656   3.178
90937W        W50231  42.943  44.328   1.451
90938W        W50232  34.510  12.318  13.397
90939W        W50233  25.194  32.450   5.276
90940W        W50234  11.662   0.927   0.759
90941W        W50235   3.307  27.526  14.902
90942W        W50236   8.323  30.473   3.230
90943W        W50237   7.803  19.177   0.830
90944W        W50238   1.298  40.487   4.115
90945W        W50239  33.605  23.079   2.297
90946W        W50240   9.864  42.329   4.610
90947W        W50241  24.582  19.635   4.695
90948W        W50242   2.321  15.145   2.222
90949W        W50243  23.663   3.376  13.423
90950W        W50244   1.834  44.859  11.473
90951W        W50245  13.680  23.612  11.398
90952W        W50246  25.645  15.629  12.435
90953W        W50247  43.913  12.814   2.897
90954W        W50248  25.574   9.326   1.871
90955W        W50249  16.081  38.461  11.557
90956W        W50250   4.831  10.343  12.088
90957W        W50251  16.616  12.173  12.528
90958W        W50252  28.515   4.393   4.656
90959W        W50253  33.522   6.316  11.043
90960W        W50254  43.311  30.042   1.900
90961W        W50255  37.949  17.165   4.801
90962W        W50256   9.791  17.143  13.957
90963W        W50257  35.078  34.919   3.210
90964W        W50258  36.420   6.207  10.412
90965W        W50259  18.141   5.401   0.752
90966W        W50260  38.933  24.107   5.161
90967W        W50261  21.136  21.058  10.507
90968W        W50262  23.161   2.871   1.821
90969W        W50263  39.860  38.510   1.356
90970W        W50264  38.558  38.365  12.357
90971W        W50265  34.000  29.006  12.062
90972W        W50266  27.046  43.872  14.009
90973W        W50267  23.717   5.913   4.191
90974W        W50268  30.474  23.574   0.258
90975W        W50269  30.987   3.818   3.161
90976W        W50270  39.997  33.099  14.491
90977W        W50271  29.955  15.171   1.306
90978W        W50272   0.860   4.863   1.875
90979W        W50273  40.417  34.486  13.507
90980W        W50274  21.063  35.048  12.036
90981W        W50275  38.489   6.315   1.292
90982W        W50276  32.612  17.150   3.153
90983W        W50277  23.529  41.532   0.475
90984W        W50278   3.422  31.608   2.345
90985W        W50279  39.523  41.889  13.421
90986W        W50280  22.737  12.177   2.334
90987W        W50281  21.660   3.767   2.746
90988W        W50282  38.021  24.010   2.385
90989W        W50283  18.745  33.536  10.928
90990W        W50284  25.510  24.631   3.352
90991W        W50285  21.128  14.256   1.450
90992W        W50286  19.102   6.334   3.274
90993W        W50287   7.359  44.768  13.822
90994W        W50288   7.795  25.083  13.377
90995W        W50289  37.921  27.030  13.508
90996W        W50290   6.394  22.012  11.513
90997W        W50291  14.726  32.527   3.374
90998W        W50292  34.981   3.905   3.348
90999W        W50293  32.495  25.129  11.455
91000W        W50294  36.557  16.742   0.911
91001W        W50295  20.117  37.433  11.903
91002W        W50296  11.262   9.351   2.753
91003W        W50297  26.097  25.536   2.190
91004W        W50298  25.054  36.400   4.698
91005W        W50299  13.691  34.593   4.329
91006W        W50300   2.924  26.687  12.416
91007W        W50301   6.760  38.538   2.724
91008W        W50302  23.162   3.439   3.775
91009W        W50303  21.068  41.403   9.973
91010W        W50304   9.225  27.101  11.976
91011W        W50305   9.784  38.427   4.819
91012W        W50306   0.879  42.490  14.320
91013W        W50307  27.178   1.348   3.844
91014W        W50308   7.389  17.193  12.460
91015W        W50309  16.688   4.888  12.410
91016W        W50310   6.369  32.127  12.556
91017W        W50311  11.795   1.867   1.927
91018W        W50312  17.277  33.570  12.408
91019W        W50313   9.348  12.138   3.277
91020W        W50314  22.063  30.968  12.522
91021W        W50315  11.815  17.607   3.700
91022W        W50316   2.785  38.340   2.401
91023W        W50317  30.455  39.412  12.867
91024W        W50318  12.707   4.861   0.355
91025W        W50319  35.410  26.992  14.833
91026W        W50320   9.355  24.494  10.615
91027W        W50321  43.850  30.532   2.399
91028W        W50322  24.158  26.532  14.455
91029W        W50323  13.629  25.478  11.106
91030W        W50324  14.714  37.519   0.871
91031W        W50325  30.031  24.128   2.844
91032W        W50326   7.174  26.136   2.261
91033W        W50327  31.958  42.296  11.609
91034W        W50328  44.905  23.699  13.946
91035W        W50329  14.812   8.758  10.425
91036W        W50330   5.347   9.832  13.949
91037W        W50331  26.039  29.595  12.839
91038W        W50332  15.762   0.766   1.241
91039W        W50333  12.774  19.695  11.419
91040W        W50334  32.428  20.067  13.458
91041W        W50335  38.333  26.564  12.540
91042W        W50336  43.506   9.728   3.236
91043W        W50337  14.611  27.955  12.462
91044W        W50338  29.436  28.451  11.992
91045W        W50339   9.257  11.866  13.870
91046W        W50340  22.596  37.382   2.415
91047W        W50341   4.210  35.081  13.475
91048W        W50342  13.131  23.729  12.948
91049W        W50343   2.783  17.105   2.329
91050W        W50344  15.775  37.881  13.884
91051W        W50345  30.504  43.294  11.034
91052W        W50346  38.861  12.206  12.525
91053W        W50347  32.046   9.808   3.776
91054W        W50348  21.062  16.181   1.723
91055W        W50349  35.576  32.072   4.297
91056W        W50350   7.788   4.436   0.344
91057W        W50351  20.605   3.888  12.525
91058W        W50352   7.231  34.564  11.121
91059W        W50353  14.616  13.125  10.131
91060W        W50354  14.700  18.177   1.922
91061W        W50355   1.759   5.438  13.923
91062W        W50356  22.585  42.955   1.743
91063W        W50357  20.129  26.664  11.092
91064W        W50358   5.219  10.831  12.577
91065W        W50359  21.540  13.108   4.336
91066W        W50360  31.582  13.690   1.253
91067W        W50361  14.720  41.919   3.146
91068W        W50362  44.010  21.122  14.776
91069W        W50363  34.521  14.812  12.002
91070W        W50364  17.148  25.654  11.097
91071W        W50365  34.043  10.717   0.844
91072W        W50366  32.105  38.036  12.428
91073W        W50367  14.300  27.148   3.733
91074W        W50368  29.531  33.531   3.805
91075W        W50369  44.260  36.032   5.170
91076W        W50370   1.257  39.019   3.280
91077W        W50371  12.813   2.265   1.800
91078W        W50372  26.672  27.508   3.730
91079W        W50373   6.206  42.846   3.252
91080W        W50374  13.792  24.510   3.229
91081W        W50375  11.350   2.854  14.324
91082W        W50376  42.802  32.512   1.371
91083W        W50377  34.916  10.242   4.313
91084W        W50378  36.367   9.200  13.971
91085W        W50379  20.648  42.897   3.657
91086W        W50380  41.512   1.452   5.802
91087W        W50381  29.104  14.765   3.344
91088W        W50382  26.460  30.562   2.259
91089W        W50383  27.150  28.611  11.008
91090W        W50384  20.219  25.484   3.818
91091W        W50385  14.185   2.362   0.949
91092W        W50386   5.252  15.165  12.063
91093W        W50387   9.372  39.950  10.890
91094W        W50388   9.695  10.350   3.700
91095W        W50389  40.421   4.886   0.332
91096W        W50390   3.911  20.613  13.933
91097W        W50391  27.547  37.571   1.237
91098W        W50392  37.849  27.042  10.526
91099W        W50393  35.558  40.980  13.023
91100W        W50394  33.003   6.790   2.803
91101W        W50395  25.684  22.599   4.343
91102W        W50396  21.246  32.949  11.001
91103W        W50397  12.738  38.006  13.927
91104W        W50398  10.289  40.042  11.044
91105W        W50399  39.466  34.864   2.212
91106W        W50400   6.765  22.698   2.794
91107W        W50401  33.411  36.404  10.928
91108W        W50402  30.454  18.743  12.429
91109W        W50403  22.217  33.605  12.508
91110W        W50404   9.246  18.079   3.306
91111W        W50405  35.420  18.069   0.413
91112W        W50406  18.146   8.189   4.345
91113W        W50407  16.181  27.576  10.912
91114W        W50408  39.000   1.299  13.975
91115W        W50409  19.048  11.290   5.773
91116W        W50410  27.542  25.154  11.974
91117W        W50411  43.912  12.668  13.390
91118W        W50412  10.291  10.284   4.266
91119W        W50413  39.815  27.583  14.014
91120W        W50414  12.203  14.291  12.478
91121W        W50415   3.251  23.213   4.278
91122W        W50416   5.718  30.118  13.519
91123W        W50417   7.836  24.029   3.186
91124W        W50418  11.686  23.706  11.057
91125W        W50419  11.258  32.429  14.849
91126W        W50420  27.953  24.179  10.931
91127W        W50421   2.885   4.711  13.011
91128W        W50422   7.369  39.903  14.969
91129W        W50423  38.035  40.814  13.337
91130W        W50424  16.637  33.532  14.385
91131W        W50425   3.894   9.851  10.502
91132W        W50426   2.357  39.496   3.255
91133W        W50427  39.333  38.494   4.704
91134W        W50428  32.424   1.237  13.888
91135W        W50429  36.949   6.791   0.755
91136W        W50430  42.317  10.795  13.366
91137W        W50431  20.053  24.500  12.846
91138W        W50432  43.424  39.328  12.936
91139W        W50433  31.047   6.392   0.847
91140W        W50434  38.827  37.548  12.865
91141W        W50435  40.849  10.325  12.021
91142W        W50436  31.970   9.272   2.211
91143W        W50437  26.486  20.161  13.323
91144W        W50438   0.904  16.804  10.614
91145W        W50439  14.673  23.729  10.472
91146W        W50440  14.609  42.408  14.970
91147W        W50441  24.072   9.173  14.835
91148W        W50442  38.445  12.129   3.676
91149W        W50443   0.964  24.655   2.301
91150W        W50444  43.307  31.545   1.262
91151W        W50445   1.257   1.920   5.319
91152W        W50446  21.205  37.958   3.344
91153W        W50447   8.254   4.358  13.875
91154W        W50448  20.671   8.746   1.232
91155W        W50449  33.516  21.594  14.325
91156W        W50450   4.355  33.568   0.369
91157W        W50451   2.744  38.037   0.403
91158W        W50452  10.227  21.519   2.680
91159W        W50453  16.789  12.338  13.327
91160W        W50454  22.702   7.410   3.332
91161W        W50455  42.833  20.052  13.837
91162W        W50456  37.337  44.979  14.503
91163W        W50457  14.303  15.103  12.095
91164W        W50458  11.656  31.049  10.101
91165W        W50459  29.928  28.961  11.975
91166W        W50460  18.752  36.491  12.393
91167W        W50461  28.054  36.920  10.029
91168W        W50462  28.957   4.938  13.492
91169W        W50463  36.379  12.160   9.930
91170W        W50464   5.298  12.830   0.293
91171W        W50465  44.793   5.708   4.135
91172W        W50466  26.604   3.434   4.666
91173W        W50467  17.761  35.063  13.998
91174W        W50468  43.789  41.036   0.744
91175W        W50469  38.893   3.341   4.255
91176W        W50470  44.803  13.730  12.504
91177W        W50471  41.504   4.273  12.445
91178W        W50472   7.297   8.870  14.802
91179W        W50473  42.436  35.505  10.529
91180W        W50474  23.540  14.193   4.130
91181W        W50475  23.117   2.246   4.322
91182W        W50476  29.051  25.115   2.875
91183W        W50477  29.995  30.918   3.253
91184W        W50478   6.382  27.039  13.806
91185W        W50479   0.406  30.579  11.938
91186W        W50480  37.527  23.646  13.894
91187W        W50481  26.042  32.487   4.244
91188W        W50482  12.213  13.664   4.324
91189W        W50483   9.349  36.548   2.746
91190W        W50484  42.358  28.607  11.438
91191W        W50485  15.128  34.104   3.855
91192W        W50486   9.760  40.910  13.873
91193W        W50487  11.762  32.996   2.378
91194W        W50488  14.286  20.272  12.092
91195W        W50489  30.047  19.161  11.555
91196W        W50490  43.432  36.521   1.702
91197W        W50491  36.986  24.001   2.285
91198W        W50492  33.990  28.619   4.718
91199W        W50493  14.665   3.907  13.024
91200W        W50494  30.935  12.249   3.634
91201W        W50495  20.155   4.395  11.978
91202W        W50496   9.648   5.773   0.361
91203W        W50497  10.274  33.879  11.566
91204W        W50498  20.629  36.566   1.832
91205W        W50499  40.900  23.089  10.906
91206W        W50500  33.024  34.934  14.386
91207W        W50501   5.220  44.468  12.035
91208W        W50502  44.487   4.379  10.942
91209W        W50503  34.109  29.580  12.473
91210W        W50504  11.362  26.479   0.451
91211W        W50505  44.834  19.052  10.586
91212W        W50506  38.509  27.513  10.567
91213W        W50507   8.386  27.194  13.311
91214W        W50508  12.212  38.972  11.380
91215W        W50509   5.865   4.242   4.784
91216W        W50510  37.858  31.415   2.390
91217W        W50511  28.495  32.932  13.810
91218W        W50512   3.226  15.190  13.903
91219W        W50513  18.223  21.061  14.465
91220W        W50514   5.301  42.480  11.867
91221W        W50515  12.844  28.031   0.810
91222W        W50516  20.158  21.234   3.163
91223W        W50517  12.846  40.419  11.422
91224W        W50518   7.752  20.620  13.313
91225W        W50519  44.300  18.566  13.989
91226W        W50520  13.297  15.093  14.366
91227W        W50521   9.268  15.199   0.902
91228W        W50522   6.862  31.941   2.875
91229W        W50523  39.461  31.055   1.264
91230W        W50524  17.659  27.950   0.433
91231W        W50525  35.587  44.340   4.237
91232W        W50526  24.676  25.029   2.373
91233W        W50527  26.646   0.934   1.825
91234W        W50528  16.266  22.701   4.335
91235W        W50529  36.351  32.036  10.060
91236W        W50530  35.968   2.736   0.741
91237W        W50531   0.976   5.211  12.567
91238W        W50532   4.805   3.433   0.369
91239W        W50533  40.482  11.712   2.393
91240W        W50534  23.557  18.209   1.254
91241W        W50535  40.810   4.705  11.080
91242W        W50536   1.328  21.096  12.507
91243W        W50537  40.826  20.075   2.774
91244W        W50538  15.646  35.550  14.929
91245W        W50539  13.846  26.480  13.794
91246W        W50540   9.774   4.834   1.700
91247W        W50541   6.860  11.195   1.797
91248W        W50542  11.734  14.667   1.929
91249W        W50543  38.896  36.882   0.350
91250W        W50544   7.791  41.859  13.056
91251W        W50545  37.964  11.707   5.248
91252W        W50546   0.763  34.119   2.327
91253W        W50547  17.266  27.105   2.249
91254W        W50548  11.302  34.594   2.753
91255W        W50549   7.716  30.424  11.439
91256W        W50550  34.954   7.214  13.405
91257W        W50551  11.771  38.975   4.117
91258W        W50552  24.108  43.977   4.676
91259W        W50553  32.086  20.085   0.768
91260W        W50554   4.428  16.286   1.327
91261W        W50555  36.860  28.445   2.317
91262W        W50556  40.329  11.232  12.578
91263W        W50557  21.235  10.334   5.240
91264W        W50558  26.677   5.740   3.275
91265W        W50559  20.043   4.830  11.990
91266W        W50560  33.102  16.266  13.390
91267W        W50561  41.424  35.082   1.235
91268W        W50562  17.239   8.893  11.947
91269W        W50563  30.987  42.868   0.809
91270W        W50564  17.690   2.721  12.995
91271W        W50565  42.885  36.377   4.603
91272W        W50566  37.528  11.203   1.383
91273W        W50567   5.897  20.077  14.821
91274W        W50568  14.192  25.126   2.402
91275W        W50569  13.793  15.621   4.170
91276W        W50570   5.880  36.005  13.793
91277W        W50571  31.539  18.638  13.044
91278W        W50572  35.902  11.678   1.424
91279W        W50573  35.496  36.453   0.350
91280W        W50574  11.853  37.834  14.328
91281W        W50575  23.015  11.708  11.534
91282W        W50576  41.985   5.875  12.067
91283W        W50577   1.859  39.349  11.568
91284W        W50578  10.377  14.660  11.011
91285W        W50579  22.544  19.138   3.307
91286W        W50580  38.007  17.277  10.537
91287W        W50581   0.801  43.826   4.722
91288W        W50582  23.692   2.417   1.344
91289W        W50583  18.786  35.976   3.316
91290W        W50584  20.582  39.922  13.440
91291W        W50585   4.277  22.658   1.866
91292W        W50586  41.409  17.157  11.011
91293W        W50587  24.095   3.736   4.774
91294W        W50588  36.522  16.230   1.746
91295W        W50589  29.439   4.894  13.945
91296W        W50590  14.742  36.993   4.195
91297W        W50591  10.232   2.900  13.893
91298W        W50592  29.939  39.034  14.440
91299W        W50593  33.041   2.399  13.949
91300W        W50594  32.006  19.666   1.723
91301W        W50595  33.543  31.550   0.333
91302W        W50596  29.502   6.381  11.044
91303W        W50597  19.550  16.123  13.002
91304W        W50598  43.931  12.825   1.783
91305W        W50599  23.513  32.915  14.290
91306W        W50600  10.265  16.738  11.580
91307W        W50601  37.431  33.399   3.751
91308W        W50602   5.871  30.082  14.401
91309W        W50603  11.301  28.527  11.907
91310W        W50604  35.105  42.010  12.850
91311W        W50605  44.760  26.107  14.296
91312W        W50606  32.103   7.399  11.864
91313W        W50607  15.800  16.636   2.842
91314W        W50608  12.263   7.780   4.744
91315W        W50609  17.612  34.457   0.379
91316W        W50610  15.204   5.905  10.495
91317W        W50611  43.904  22.062  12.484
91318W        W50612  42.004   2.924   1.885
91319W        W50613   7.740  35.521  13.438
91320W        W50614  37.030  31.985  11.893
91321W        W50615  12.319  18.097  12.077
91322W        W50616  40.864  30.540   3.862
91323W        W50617  13.136  25.660   4.279
91324W        W50618  38.995  34.978  14.931
91325W        W50619  37.475  41.900  12.520
91326W        W50620   8.259  19.738  10.452
91327W        W50621  43.415  27.464  13.471
91328W        W50622  14.096  11.342  10.009
91329W        W50623  22.187   0.748   3.777
91330W        W50624   8.873  16.098  14.777
91331W        W50625   7.793  34.865   2.305
91332W        W50626  29.507  16.595   4.179
91333W        W50627  13.150  31.144   0.304
91334W        W50628   1.247  31.535  11.469
91335W        W50629  30.112  28.508   1.305
91336W        W50630  38.422  15.582  11.975
91337W        W50631  17.608  35.083  14.460
91338W        W50632   2.354  31.503   4.318
91339W        W50633   5.753  34.986  14.478
91340W        W50634  20.713   7.711   1.330
91341W        W50635   1.770  20.148   1.736
91342W        W50636  37.565  28.986  11.553
91343W        W50637  37.042  22.575  10.580
91344W        W50638  25.991  40.913  13.880
91345W        W50639   1.852  12.755  11.600
91346W        W50640   8.354  44.334   1.805
91347W        W50641  28.500  22.623  14.935
91348W        W50642  16.805   6.407  11.971
91349W        W50643  21.118  31.111  14.289
91350W        W50644   9.153  31.521   2.834
91351W        W50645  24.591   7.346  11.595
91352W        W50646   6.754  32.902   1.353
91353W        W50647   9.705  13.123   1.413
91354W        W50648   9.356  21.571   2.308
91355W        W50649   2.806  44.471   0.446
91356W        W50650   0.930  40.886  12.894
91357W        W50651   2.740   0.437   1.880
91358W        W50652  20.161  12.847  11.950
91359W        W50653  42.988  14.120  10.121
91360W        W50654  13.823  15.630  11.435
91361W        W50655  42.791  33.965   4.726
91362W        W50656   9.156   0.440  11.908
91363W        W50657  13.737  34.471   3.196
91364W        W50658  19.274  13.143   1.256
91365W        W50659  14.294   6.725   2.405
91366W        W50660  17.128  26.642   1.286
91367W        W50661  36.074   0.274   2.715
91368W        W50662  35.045  31.949  10.899
91369W        W50663   8.767  41.816   2.322
91370W        W50664  37.580  32.951  11.406
91371W        W50665  31.050   1.257  13.801
91372W        W50666  29.443  42.397   5.089
91373W        W50667  43.300   1.469   2.224
91374W        W50668  16.698  29.999   1.755
91375W        W50669  35.096  29.092  10.454
91376W        W50670  26.996  28.125   4.696
91377W        W50671  28.958   7.321  14.850
91378W        W50672  40.852  34.964   0.438
91379W        W50673   9.331  29.541   1.846
91380W        W50674  43.821   7.186  10.529
91381W        W50675  15.660  14.141  11.053
91382W        W50676  15.176  28.671  12.824
91383W        W50677  10.825  24.199   0.791
91384W        W50678  24.664  10.853  13.412
91385W        W50679  16.075  12.147  14.031
91386W        W50680  34.024  31.457  11.020
91387W        W50681  31.986  22.101   0.816
91388W        W50682   2.308  40.450   9.937
91389W        W50683   0.748   8.746   2.735
91390W        W50684   3.339  24.121  11.514
91391W        W50685  38.367   6.790   0.313
91392W        W50686   3.826   8.769  13.401
91393W        W50687  32.906   9.698   4.645
91394W        W50688  24.656   9.841   1.446
91395W        W50689   3.786   0.977  13.993
91396W        W50690   5.327  18.256  13.430
91397W        W50691   5.294   4.867   1.694
91398W        W50692  36.569  24.204  12.066
91399W        W50693  37.347  19.767  10.641
91400W        W50694  13.751  24.160   4.281
91401W        W50695  10.350  26.614  14.328
91402W        W50696   1.335  40.922   1.738
91403W        W50697  44.335  39.353   3.353
91404W        W50698  39.023  34.505   0.777
91405W        W50699  19.080   2.823   2.265
91406W        W50700  12.660   1.878   0.802
91407W        W50701  19.053  37.869   1.703
91408W        W50702  11.325  35.915   4.809
91409W        W50703   3.423  18.143  10.421
91410W        W50704  10.639  35.588  13.397
91411W        W50705  14.300  34.949  13.516
91412W        W50706   8.655   7.223   0.386
91413W        W50707  31.027  30.133  14.928
91414W        W50708  28.148  35.469  12.340
91415W        W50709  22.131   4.849  11.862
91416W        W50710  17.259  19.547  12.423
91417W        W50711  39.480  33.903  12.858
91418W        W50712  22.120   9.226  13.333
91419W        W50713  12.242  44.348  12.438
91420W        W50714  12.135  19.160   4.194
91421W        W50715   4.864  21.689  12.426
91422W        W50716  24.204  37.396   1.275
91423W        W50717   3.394  30.515  10.481
91424W        W50718   9.206  24.003   1.702
91425W        W50719  26.976  29.429   4.821
91426W        W50720  17.750  29.460  10.617
91427W        W50721  37.874  27.544   3.348
91428W        W50722  21.030  17.138   5.196
91429W        W50723  44.994  23.120  14.391
91430W        W50724   2.413   4.941   2.218
91431W        W50725   0.785  38.464   0.274
91432W        W50726  36.010  16.318   0.804
91433W        W50727   9.287  18.169  10.542
91434W        W50728   1.273  44.913  10.411
91435W        W50729   0.955  30.976   2.760
91436W        W50730  23.024  10.300  12.562
91437W        W50731  31.457   2.799   0.410
91438W        W50732  19.245  12.123   0.328
91439W        W50733  12.297  17.157  13.835
91440W        W50734   9.757  32.541  12.565
91441W        W50735  34.053   8.273  12.875
91442W        W50736   7.348  25.029  10.642
91443W        W50737  31.550  34.402  12.863
91444W        W50738  15.207  28.933  13.055
91445W        W50739   9.159  28.546   1.920
91446W        W50740  19.142  22.611  13.009
91447W        W50741  25.032  43.348  14.414
91448W        W50742  23.613  19.181  13.943
91449W        W50743  28.527  40.336   1.429
91450W        W50744   0.797  23.226  14.805
91451W        W50745  41.928  39.363   0.922
91452W        W50746  37.845  16.234   0.771
91453W        W50747  13.646  33.528  13.492
91454W        W50748  39.558  37.870   3.182
91455W        W50749  22.078  11.312   1.245
91456W        W50750  33.094   8.855   2.774
91457W        W50751  33.076  22.638   2.347
91458W        W50752  13.245  42.358   2.705
91459W        W50753  40.545  22.740  10.470
91460W        W50754   7.417  41.880  12.087
91461W        W50755   7.809   6.284  12.863
91462W        W50756  19.563   8.282   4.737
91463W        W50757   6.324  34.437  14.018
91464W        W50758  20.661  31.963  10.614
91465W        W50759  21.620  13.814  10.990
91466W        W50760  22.553   6.365   1.852
91467W        W50761  20.138  26.481  13.986
91468W        W50762  22.126  34.400  13.803
91469W        W50763  28.001  30.608  10.103
91470W        W50764  29.994  20.547   3.197
91471W        W50765  44.887  36.377  13.958
91472W        W50766  11.666  14.639   0.433
91473W        W50767  11.361  28.010  13.026
91474W        W50768   7.340  16.583  13.402
91475W        W50769  24.656  25.181  11.091
91476W        W50770  12.210   2.288  10.914
91477W        W50771  24.649  33.482   2.840
91478W        W50772  27.634  36.024   3.770
91479W        W50773  34.096  23.178  12.978
91480W        W50774  29.513  39.500  14.882
91481W        W50775  23.661  39.832   3.239
91482W        W50776   5.794  17.122   0.828
91483W        W50777   4.714  23.594  12.446
91484W        W50778  37.355  21.725   1.267
91485W        W50779  14.221  27.002  11.915
91486W        W50780  40.413   0.250   2.713
91487W        W50781  19.730  31.582   2.320
91488W        W50782  35.026  26.133   4.818
91489W        W50783  35.087  12.341  10.992
91490W        W50784  39.959  17.737  10.627
91491W        W50785  40.991  32.044  12.536
91492W        W50786  37.966  37.495  13.845
91493W        W50787  29.654  11.837  11.097
91494W        W50788  30.101  33.034  12.084
91495W        W50789   4.303  32.029  14.427
91496W        W50790  16.087  25.035   1.821
91497W        W50791  12.810  14.258  12.863
91498W        W50792   7.392  14.658  14.782
91499W        W50793  37.940  35.059  12.539
91500W        W50794  34.971   0.312   4.692
91501W        W50795   3.911  24.617  12.928
91502W        W50796  16.246   8.726  12.907
91503W        W50797  23.660  20.609  14.496
91504W        W50798  27.991  31.577  12.941
91505W        W50799  11.633  41.357  12.555
91506W        W50800  36.093   2.247   1.243
91507W        W50801  18.120  30.512  14.832
91508W        W50802  18.713  19.572  14.804
91509W        W50803  30.018  17.661   1.305
91510W        W50804  42.470  26.159  13.055
91511W        W50805   7.411  31.521   1.841
91512W        W50806  22.548   2.268  13.851
91513W        W50807  18.645   0.817   1.342
91514W        W50808  25.499  14.814   3.759
91515W        W50809  28.525   6.794   3.387
91516W        W50810  24.716  21.257   0.297
91517W        W50811  44.769   2.828   1.317
91518W        W50812   6.293   1.445   5.281
91519W        W50813  14.171  31.068   1.741
91520W        W50814   2.797  24.533   1.915
91521W        W50815  30.634  27.963  12.006
91522W        W50816  12.693  39.374   0.257
91523W        W50817   1.772  22.662  10.559
91524W        W50818  38.520  39.346   2.797
91525W        W50819   2.916  24.153   1.836
91526W        W50820  31.529  28.096   3.325
91527W        W50821   9.322  17.223  10.456
91528W        W50822  36.875  15.585   2.704
91529W        W50823  40.823  24.036  12.430
91530W        W50824  29.425  39.947   3.376
91531W        W50825  21.682  19.545   1.705
91532W        W50826  16.238  42.452  14.775
91533W        W50827  24.006  20.237   4.318
91534W        W50828   1.873  10.231   9.933
91535W        W50829   3.440  26.171  13.516
91536W        W50830  14.321  41.010   3.185
91537W        W50831   7.417  44.925  12.443
91538W        W50832  42.477  19.701  14.324
91539W        W50833   6.725  15.741  13.793
91540W        W50834  14.311  10.225   4.249
91541W        W50835  21.735  16.289   1.263
91542W        W50836   4.247  22.039   3.635
91543W        W50837  11.345  11.762  14.923
91544W        W50838  29.008  41.340   3.333
91545W        W50839  10.760  21.658   4.646
91546W        W50840   5.687   7.877   2.188
91547W        W50841  42.807  31.480   4.202
91548W        W50842   9.334  26.682  10.066
91549W        W50843   1.777  36.874  11.954
91550W        W50844   4.792  24.121   2.896
91551W        W50845  23.582   9.221  12.008
91552W        W50846  43.769   3.785  10.135
91553W        W50847  35.876  18.658   0.350
91554W        W50848  22.703  21.052   1.257
91555W        W50849   5.749   1.269  13.808
91556W        W50850  35.412  38.048  13.960
91557W        W50851  31.478  16.103   1.809
91558W        W50852  29.585  11.187  12.946
91559W        W50853  39.053  15.578  13.951
91560W        W50854  41.425  23.061  14.810
91561W        W50855  24.638  23.099   3.295
91562W        W50856   4.868  24.606   3.856
91563W        W50857  15.292  10.781   4.322
91564W        W50858  40.335  42.509   4.835
91565W        W50859  34.119  30.025  14.390
91566W        W50860  41.379  22.215   1.244
91567W        W50861   2.795  21.171  10.645
91568W        W50862  41.892   6.384  13.548
91569W        W50863  37.042  31.426  12.564
91570W        W50864   2.383  34.528  11.067
91571W        W50865  26.041  22.728  10.463
91572W        W50866   6.364  27.582   4.350
91573W        W50867   7.327  12.315   1.317
91574W        W50868  36.862   8.893  14.322
91575W        W50869  15.292  38.864  11.047
91576W        W50870  11.313  42.425  10.632
91577W        W50871  32.938   0.299  12.879
91578W        W50872  39.928  12.306  12.352
91579W        W50873  23.128   5.260  12.909
91580W        W50874  25.181  43.329  11.583
91581W        W50875  39.560  16.664  10.520
91582W        W50876  27.454  36.576   3.760
91583W        W50877  38.941  44.976   1.755
91584W        W50878  40.971   6.861  12.862
91585W        W50879  10.684  24.501  14.298
91586W        W50880  11.355   6.242   0.919
91587W        W50881  44.459   1.938   0.371
91588W        W50882  18.714   6.867   3.297
91589W        W50883  41.303   5.338   4.128
91590W        W50884  22.568  44.832  13.933
91591W        W50885  11.233  10.212  13.423
91592W        W50886  18.661  38.462   1.446
91593W        W50887  42.295   4.272   4.671
91594W        W50888  10.674  19.148  10.578
91595W        W50889  41.860  10.728  11.554
91596W        W50890  25.611  32.529  14.841
91597W        W50891  21.148  19.773  10.071
91598W        W50892  26.589   1.269  11.433
91599W        W50893  19.770  37.443   2.293
91600W        W50894  32.477  19.183   0.326
91601W        W50895  22.639  41.499  10.577
91602W        W50896   1.311   0.381  11.948
91603W        W50897  17.601  41.422  12.491
91604W        W50898  21.727  25.679   1.283
91605W        W50899   0.772  18.219  12.449
91606W        W50900   6.907  31.570  10.597
91607W        W50901  23.156  32.595   0.328
91608W        W50902  40.036  12.766   1.776
91609W        W50903   2.457  18.776  11.980
91610W        W50904  14.242  33.410  14.413
91611W        W50905  32.885  33.084   4.635
91612W        W50906  11.154  29.113  10.957
91613W        W50907  29.110  18.142   0.816
91614W        W50908  12.855  28.632   1.324
91615W        W50909  28.597  26.612   1.715
91616W        W50910   8.171  12.808   1.883
91617W        W50911  37.086   4.749  12.062
91618W        W50912  29.483  33.464   4.194
91619W        W50913  16.590  16.800  11.418
91620W        W50914  16.595  25.599   0.879
91621W        W50915  12.235  39.357   2.730
91622W        W50916  20.549  14.221  13.855
91623W        W50917  29.663   4.366   2.882
91624W        W50918  15.674  34.384   2.811
91625W        W50919  17.155  37.041   3.201
91626W        W50920   1.741  31.575  14.492
91627W        W50921  38.955  24.650   2.375
91628W        W50922   4.425   7.885  10.597
91629W        W50923  21.535   3.327   1.240
91630W        W50924  38.902  33.967   1.705
91631W        W50925  19.562  28.571  12.997
91632W        W50926  11.352  27.985  14.965
91633W        W50927  19.193  34.557  10.911
91634W        W50928  34.036  19.776  14.321
91635W        W50929  11.262  24.120  14.416
91636W        W50930  43.446  40.443   1.844
91637W        W50931  11.202  23.717  13.884
91638W        W50932  40.548  25.652   0.243
91639W        W50933   5.248  18.105   4.254
91640W        W50934   2.278   3.301   3.687
91641W        W50935  34.883  16.588  14.284
91642W        W50936  11.644  44.333  12.077
91643W        W50937  41.032  41.865  13.463
91644W        W50938  16.083  11.776   1.306
91645W        W50939  16.676  35.001   1.409
91646W        W50940   1.372  29.602   0.302
91647W        W50941  20.647  32.001   1.817
91648W        W50942  41.875  24.097  14.871
91649W        W50943  44.488  20.535  12.905
91650W        W50944   5.301   3.235   5.207
91651W        W50945   3.238  30.049  11.522
91652W        W50946  18.253  40.027   3.308
91653W        W50947  25.975  39.055  11.593
91654W        W50948   2.831  16.311  13.434
91655W        W50949  36.580   6.403   3.794
91656W        W50950  34.392  16.225  13.038
91657W        W50951  42.002  17.664   2.849
91658W        W50952  27.522  21.582   1.698
91659W        W50953  35.580   4.937   4.788
91660W        W50954   1.325  10.366  11.940
91661W        W50955  27.472   8.832  10.958
91662W        W50956   7.905  37.551   0.824
91663W        W50957  34.609  37.027   0.438
91664W        W50958  20.631  20.696   4.270
91665W        W50959   8.794  21.593   2.220
91666W        W50960  14.821   3.741   4.749
91667W        W50961  33.480   1.836   0.327
91668W        W50962   6.896   2.739   4.736
91669W        W50963  34.389  33.549  14.370
91670W        W50964  37.368  39.354   2.873
91671W        W50965   4.291  22.552  11.509
91672W        W50966  17.632  35.515  13.979
91673W        W50967   5.243   6.812   0.849
91674W        W50968  25.213  21.208  14.770
91675W        W50969  20.564  39.060  13.322
91676W        W50970  10.290  39.482   0.478
91677W        W50971  25.503  26.674   2.875
91678W        W50972  19.605  15.255  10.963
91679W        W50973   8.374  38.519  14.006
91680W        W50974  32.045   9.660  10.009
91681W        W50975  15.617  33.404   1.399
91682W        W50976  41.410  29.445  11.377
91683W        W50977  25.198  18.700  14.022
91684W        W50978  16.078   2.445  11.520
91685W        W50979  19.277  42.522   3.152
91686W        W50980  23.692  10.223  14.936
91687W        W50981  18.787   0.854   0.801
91688W        W50982   7.393  44.449   1.856
91689W        W50983  38.389  22.656   3.270
91690W        W50984   6.242  38.854   2.251
91691W        W50985   5.902   5.741  12.549
91692W        W50986  40.310  17.657   0.434
91693W        W50987   7.283  35.451  11.067
91694W        W50988  19.594  34.560   3.159
91695W        W50989  26.698   1.348  14.801
91696W        W50990  44.337  29.560   5.120
91697W        W50991  35.567   6.878  14.900
91698W        W50992  23.195   4.258   0.344
91699W        W50993   2.739  42.430   0.909
91700W        W50994  26.480  27.965   3.713
91701W        W50995  34.415   4.799  12.924
91702W        W50996  41.379   2.255  14.327
91703W        W50997  10.794  11.270   3.289
91704W        W50998   2.951  37.531  10.522
91705W        W50999  34.866  21.075  11.607
91706W        W51000  32.591  28.006  14.790
91707W        W51001  17.704  21.251   0.294
91708W        W51002  14.742  10.669   3.341
91709W        W51003   1.276  27.672  14.480
91710W        W51004  34.540  11.206  11.919
91711W        W51005  18.783  32.494   4.825
91712W        W51006  30.971  36.502  14.385
91713W        W51007  36.524  14.300  12.932
91714W        W51008   3.241  24.165   5.225
91715W        W51009   0.823  40.988   3.665
91716W        W51010  37.841   6.729  14.993
91717W        W51011  38.852  14.690   2.755
91718W        W51012  12.713   1.282   2.287
91719W        W51013  43.933  28.018  10.530
91720W        W51014  31.647   8.171   4.331
91721W        W51015  27.604  24.073   3.781
91722W        W51016  29.968  44.824   1.286
91723W        W51017  36.943  10.742   2.372
91724W        W51018  23.032  20.269   2.764
91725W        W51019  31.518   8.893   0.414
91726W        W51020  36.399  15.711  14.958
91727W        W51021  22.161   9.820   4.132
91728W        W51022  30.548  13.236   0.824
91729W        W51023   8.872  24.595  12.000
91730W        W51024  16.188  16.298   1.392
91731W        W51025  29.967  10.172  13.543
91732W        W51026  33.942  29.458   0.766
91733W        W51027   3.406  30.972   0.269
91734W        W51028  26.662  10.736  12.573
91735W        W51029  13.116  30.473   5.192
91736W        W51030  31.127   3.291  14.831
91737W        W51031  15.114  10.291   3.170
91738W        W51032  19.244  24.658   0.736
91739W        W51033  23.173  37.975  13.026
91740W        W51034   7.271  44.757   4.780
91741W        W51035  29.942  44.776  12.845
91742W        W51036   6.805   8.362   4.623
91743W        W51037  28.456  13.251  14.976
91744W        W51038  12.622  43.440   3.353
91745W        W51039  15.630  10.821  11.071
91746W        W51040   7.793  12.272   4.662
91747W        W51041  21.574  26.185   4.785
91748W        W51042   7.724  18.562   4.207
91749W        W51043  17.608  41.524  10.540
91750W        W51044  27.553   9.844   5.277
91751W        W51045  22.667   3.889   2.413
91752W        W51046  30.137   4.422  12.910
91753W        W51047  22.729   1.448  11.865
91754W        W51048  41.386  44.916  13.435
91755W        W51049  38.991  40.012  14.878
91756W        W51050  32.996  37.083  14.990
91757W        W51051   9.270  39.482   2.824
91758W        W51052  32.060  28.144   3.299
91759W        W51053  37.011  25.496  10.961
91760W        W51054  38.478  21.086   3.826
91761W        W51055   5.739  10.278   0.259
91762W        W51056  44.290  25.162  10.920
91763W        W51057  23.232  20.194  10.625
91764W        W51058  24.479  44.330   2.188
91765W        W51059  10.381  22.246  12.943
91766W        W51060  43.805  32.593   0.818
91767W        W51061  17.788  44.312   1.370
91768W        W51062  40.014   1.383   2.391
91769W        W51063  40.432  15.292   3.382
91770W        W51064  35.576   9.886  13.547
91771W        W51065   5.699   1.861   4.799
91772W        W51066  12.730   6.336  11.541
91773W        W51067   3.912  26.569   2.684
91774W        W51068   0.881  28.435   4.730
91775W        W51069  40.985  29.432   3.678
91776W        W51070  31.533   6.293   3.284
91777W        W51071   9.358  34.056   2.284
91778W        W51072  21.527   6.214   2.855
91779W        W51073   5.267  37.983   2.698
91780W        W51074   6.311   7.791   4.231
91781W        W51075   9.874  40.311   2.720
91782W        W51076  20.094  11.193  12.991
91783W        W51077  44.835  26.166  11.585
91784W        W51078  17.730  18.686   4.626
91785W        W51079  33.542  28.644  12.978
91786W        W51080  40.333  36.570   1.765
91787W        W51081   6.332  40.446   3.731
91788W        W51082  26.194  20.664  12.838
91789W        W51083   9.348  15.289   4.652
91790W        W51084  31.569  43.850  11.461
91791W        W51085   8.274  36.540   4.662
91792W        W51086  41.808   7.366   4.240
91793W        W51087  25.554  21.226  14.468
91794W        W51088  43.514  21.259  12.849
91795W        W51089  22.032  42.282  14.990
91796W        W51090  24.221  27.687  11.858
91797W        W51091   4.373  24.666   1.313
91798W        W51092  38.998  37.409   3.641
91799W        W51093  30.607  30.465  12.342
91800W        W51094   3.235   2.917  11.467
91801W        W51095   6.785  36.531  10.936
91802W        W51096  30.052   9.341   2.779
91803W        W51097  38.071  40.922   4.707
91804W        W51098  12.752  28.935  11.576
91805W        W51099  34.601  38.449  14.870
91806W        W51100  36.849   8.360  12.942
91807W        W51101  28.633   6.299   4.765
91808W        W51102  37.915   3.370  12.058
91809W        W51103  13.636  10.680   4.790
91810W        W51104  15.167  10.765   2.199
91811W        W51105  10.788  24.599   3.342
91812W        W51106  35.021  44.909  12.954
91813W        W51107  15.166  28.944   2.675
91814W        W51108  15.740  32.586   4.306
91815W        W51109  22.184  16.150   1.396
91816W        W51110  24.185   0.263   1.743
91817W        W51111   8.818   2.872   4.616
91818W        W51112  35.868  42.488   2.754
91819W        W51113  19.732  18.257   2.869
91820W        W51114   4.440  17.750   2.415
91821W        W51115  33.111   0.838  14.887
91822W        W51116   6.685  14.241   0.261
91823W        W51117   6.776   2.315   4.745
91824W        W51118  23.045  15.118   3.306
91825W        W51119  29.481  44.291   3.255
91826W        W51120  15.123  38.418  12.435
91827W        W51121  27.633  21.751  13.526
91828W        W51122  12.166   0.873  12.888
91829W        W51123  44.324  22.128   3.655
91830W        W51124  23.577  17.574   4.740
91831W        W51125  30.626  20.187  12.411
91832W        W51126  34.549  30.625   3.865
91833W        W51127  26.566  15.652   1.925
91834W        W51128  22.186   6.202   2.836
91835W        W51129  31.937  22.687   1.299
91836W        W51130  20.114   9.296   3.170
91837W        W51131  36.852  30.450  10.417
91838W        W51132  21.628   3.840   3.242
91839W        W51133  44.953  44.366  13.955
91840W        W51134  19.618   7.368   2.811
91841W        W51135  31.532  36.881  14.856
91842W        W51136   9.815   5.325   4.323
91843W        W51137   3.457  12.359   1.274
91844W        W51138   7.268   2.324  14.875
91845W        W51139  34.407   3.387   4.350
91846W        W51140   6.803  40.879  13.924
91847W        W51141  23.109  32.575  13.332
91848W        W51142   8.687  29.161   5.687
91849W        W51143   5.746   5.829  13.445
91850W        W51144  42.500  16.191   1.244
91851W        W51145  29.526  12.307  14.385
91852W        W51146   2.957  41.489   3.283
91853W        W51147  28.443   1.400   0.421
91854W        W51148  37.560  23.005  11.490
91855W        W51149  41.970  39.882   0.872
91856W        W51150   4.410  32.454   2.247
91857W        W51151  14.135  21.653  12.499
91858W        W51152  33.978  10.160  12.938
91859W        W51153  31.989  11.160   4.610
91860W        W51154  35.064  23.184   3.156
91861W        W51155   1.449  31.577  14.958
91862W        W51156  25.481  17.135  14.444
91863W        W51157  35.042  21.673  10.443
91864W        W51158  14.621  25.494  10.405
91865W        W51159  36.467  33.610  14.310
91866W        W51160  19.703   1.271   1.400
91867W        W51161   5.332  13.126  14.859
91868W        W51162  24.511   0.307  12.403
91869W        W51163  18.774  30.512   3.331
91870W        W51164  13.787  23.009   0.468
91871W        W51165  32.460  34.424   2.727
91872W        W51166  26.102  43.929  10.944
91873W        W51167  22.694  28.437  12.343
91874W        W51168  30.917  44.382   0.735
91875W        W51169  20.267  23.648  12.443
91876W        W51170  33.961  22.012   1.345
91877W        W51171  30.022  39.409  12.571
91878W        W51172   2.393  27.519  12.342
91879W        W51173  34.587   1.854  12.449
91880W        W51174  20.707  34.096   4.156
91881W        W51175  21.544   5.384  11.974
91882W        W51176  28.121   0.797   3.701
91883W        W51177   1.898  19.052   0.278
91884W        W51178  22.197  26.986   2.315
91885W        W51179  37.579   4.234   4.688
91886W        W51180  36.572  27.191  11.104
91887W        W51181  23.990  37.435  11.395
91888W        W51182  37.842   9.780  10.488
91889W        W51183  20.186  18.285  10.554
91890W        W51184  30.537   3.262   4.708
91891W        W51185  21.205  15.772  10.889
91892W        W51186  10.796  44.493   4.665
91893W        W51187  44.826  34.573  14.387
91894W        W51188  17.200  19.056   3.301
91895W        W51189  26.106  39.017   4.181
91896W        W51190  26.012  26.167  13.945
91897W        W51191  30.908  34.047  14.778
91898W        W51192  34.100  39.043   0.436
91899W        W51193  16.227  34.491  14.804
91900W        W51194  29.462   2.735  13.829
91901W        W51195  41.377  43.840   1.361
91902W        W51196   9.644  42.472  10.584
91903W        W51197  41.897   0.265   4.273
91904W        W51198  40.991  43.480   1.866
91905W        W51199  42.436  29.141   4.255
91906W        W51200  27.156  38.052   0.958
91907W        W51201  25.059  18.137   0.945
91908W        W51202   6.820   9.663   0.435
91909W        W51203   5.222  38.447  11.410
91910W        W51204   4.802  31.151   0.917
91911W        W51205   7.201  21.638   1.765
91912W        W51206  15.674  23.496   1.341
91913W        W51207  22.532  19.116   0.479
91914W        W51208  11.765  33.918   0.856
91915W        W51209  35.439   9.252   0.370
91916W        W51210  19.750   4.373   3.204
91917W        W51211   3.752  20.128   5.128
91918W        W51212   4.205  14.116  14.994
91919W        W51213  13.757  41.360  13.834
91920W        W51214   3.853  43.010   0.794
91921W        W51215  17.104   1.811   4.727
91922W        W51216   1.436  40.016  14.931
91923W        W51217   9.392  41.977   0.454
91924W        W51218  40.969  34.517  11.926
91925W        W51219   7.289  35.897   0.957
91926W        W51220  23.199  23.642  12.439
91927W        W51221   8.248  22.707   2.821
91928W        W51222  14.691   2.786  11.521
91929W        W51223  16.666  35.029  12.370
91930W        W51224  29.974  30.123  14.816
91931W        W51225   6.269  41.868  11.946
91932W        W51226  31.609  25.470   0.331
91933W        W51227   9.809  22.522   2.882
91934W        W51228  22.173  16.116  11.116
91935W        W51229  10.353  10.687  14.782
91936W        W51230  36.007  20.549  14.305
91937W        W51231   7.795  25.105   4.200
91938W        W51232  30.611  11.144   1.399
91939W        W51233  37.996   9.216  13.028
91940W        W51234  39.969  27.030   2.690
91941W        W51235  43.019   2.881  11.916
91942W        W51236  34.938  26.125   1.849
91943W        W51237  41.034  41.421   3.786
91944W        W51238  40.325  42.789   1.723
91945W        W51239  40.806  24.182  13.888
91946W        W51240  26.497  36.549   4.800
91947W        W51241  42.982  31.560  12.061
91948W        W51242  29.520  37.936   4.132
91949W        W51243   2.340  25.974   4.801
91950W        W51244  14.627  20.042   9.994
91951W        W51245  23.155   1.895   4.312
91952W        W51246  36.471  30.143  11.581
91953W        W51247  27.455   0.857  14.276
91954W        W51248  39.957  16.648  12.576
91955W        W51249  18.123  11.725  14.369
91956W        W51250  12.628  27.597  14.847
91957W        W51251  29.026   4.336  13.952
91958W        W51252  28.452  30.526  14.885
91959W        W51253  21.101  38.932  12.016
91960W        W51254  23.632  20.601   0.302
91961W        W51255  37.363  10.712   1.747
91962W        W51256  23.728  21.170   4.831
91963W        W51257  34.944   0.332  14.831
91964W        W51258   9.310  15.320   4.267
91965W        W51259  21.554  43.463  13.466
91966W        W51260  35.573  10.236   1.921
91967W        W51261  22.712  12.749  12.883
91968W        W51262  16.800  12.833   2.213
91969W        W51263  16.717  15.790   4.294
91970W        W51264   3.336  29.117  11.902
91971W        W51265  17.297  23.209   4.338
91972W        W51266  36.387   1.765  11.447
91973W        W51267  27.134   8.255  12.987
91974W        W51268  43.293   1.248  12.974
91975W        W51269  26.555  29.090  13.490
91976W        W51270   6.390  23.082   1.303
91977W        W51271   1.872  37.991   0.765
91978W        W51272  15.601   4.396  12.087
91979W        W51273  33.049   3.862  13.862
91980W        W51274   9.343  22.062   0.836
91981W        W51275  37.543  35.579  13.349
91982W        W51276  34.951  18.725   1.444
91983W        W51277  20.717  37.420  13.462
91984W        W51278  27.056  16.583  14.461
91985W        W51279  29.067   4.435   3.287
91986W        W51280  18.137  13.703   0.355
91987W        W51281  28.941  38.422   1.830
91988W        W51282  13.299  32.598   0.439
91989W        W51283  39.324  10.727  12.926
91990W        W51284   4.400  27.599  14.451
91991W        W51285   3.790  41.338  14.023
91992W        W51286  38.439  13.671  14.434
91993W        W51287   1.932   7.416  14.918
91994W        W51288   2.940   9.686   0.259
91995W        W51289  13.279  32.435   2.230
91996W        W51290   1.332  14.679   2.743
91997W        W51291  21.584  39.899   4.777
91998W        W51292  27.505  38.346   0.282
91999W        W51293  16.697  32.481  13.506
92000W        W51294   6.427   6.769   3.800
92001W        W51295  26.511   7.229  13.866
92002W        W51296  42.811   4.832  14.877
92003W        W51297  28.565  35.868   1.378
92004W        W51298  36.087  29.539  12.455
92005W        W51299  25.154  41.476   1.875
92006W        W51300   1.966  28.522  11.026
92007W        W51301  25.577   9.817  14.955
92008W        W51302  40.821  43.351   4.750
92009W        W51303   6.906   0.311  12.093
92010W        W51304   5.718  19.138  11.549
92011W        W51305   5.313  23.098   2.305
92012W        W51306  26.549   1.922   2.182
92013W        W51307  23.498  31.010  14.316
92014W        W51308  10.735   2.429   0.769
92015W        W51309   9.870  22.142   5.096
92016W        W51310  24.201  40.937   0.424
92017W        W51311  33.478  10.170   0.887
92018W        W51312  38.347  20.161  13.889
92019W        W51313  35.967  11.831   0.915
92020W        W51314  44.943  17.273  11.529
92021W        W51315  37.485  23.525   0.448
92022W        W51316  27.153  21.540   4.635
92023W        W51317  38.066  14.700  12.997
92024W        W51318  13.129   8.237  13.879
92025W        W51319  42.321  33.105   3.734
92026W        W51320  17.190   3.748   1.353
92027W        W51321  32.028  40.342  13.827
92028W        W51322  26.583  19.547  13.031
92029W        W51323  21.094   0.412  10.614
92030W        W51324   4.757  14.202   4.639
92031W        W51325  40.934  31.605  11.913
92032W        W51326  36.914  11.635  14.856
92033W        W51327  41.887   5.289  11.102
92034W        W51328  13.205  11.272  12.525
92035W        W51329  24.136  10.273   0.835
92036W        W51330  32.596  26.969   3.300
92037W        W51331  39.897  26.951   4.735
92038W        W51332  10.772  18.662  14.487
92039W        W51333  15.179  18.545  11.009
92040W        W51334  21.113  40.448  11.613
92041W        W51335  34.945   6.684  12.910
92042W        W51336  33.498  33.922  12.941
92043W        W51337   9.716   7.293   1.724
92044W        W51338  38.356  19.113   1.900
92045W        W51339   3.735  28.014   4.682
92046W        W51340  26.035  43.765   3.769
92047W        W51341  42.821   7.173   3.710
92048W        W51342   5.417  20.552  13.953
92049W        W51343  26.482  17.561   4.220
92050W        W51344   6.284  11.307   0.375
92051W        W51345  23.589  27.453  14.837
92052W        W51346  22.127  23.105   1.295
92053W        W51347   8.179  38.956  10.582
92054W        W51348  14.226  13.335   1.694
92055W        W51349   3.407  42.285  14.923
92056W        W51350  39.393  14.184   4.299
92057W        W51351  43.895  31.053   0.349
92058W        W51352  44.490  34.493   1.755
92059W        W51353  25.685  26.099  13.928
92060W        W51354  13.161  23.133   3.164
92061W        W51355  32.023  14.802  13.927
92062W        W51356  13.292  32.084  13.886
92063W        W51357  21.619   1.308  14.443
92064W        W51358  41.459  22.608  11.602
92065W        W51359  20.146  23.673   3.203
92066W        W51360  18.592   8.778  11.100
92067W        W51361  30.556   9.261   1.360
92068W        W51362  20.523  30.470   1.274
92069W        W51363   4.369  30.530   2.416
92070W        W51364  41.382  16.654   3.660
92071W        W51365  14.185  27.654  13.050
92072W        W51366  32.069  34.906   4.763
92073W        W51367  24.986  28.480  11.976
92074W        W51368  24.202  39.475   3.690
92075W        W51369  37.840  17.671   2.875
92076W        W51370  17.062  22.502  11.385
92077W        W51371  28.510  40.809   5.174
92078W        W51372  28.607  17.100  14.512
92079W        W51373  20.216  29.098  13.797
92080W        W51374  29.425  23.040  10.415
92081W        W51375  13.800   8.209   3.285
92082W        W51376   5.355   0.325  11.438
92083W        W51377  13.778  19.651   5.259
92084W        W51378  13.738  15.148  11.435
92085W        W51379  19.167  43.014   1.815
92086W        W51380  36.422   3.885   1.413
92087W        W51381  28.492   4.880  13.353
92088W        W51382  13.810  27.965   3.333
92089W        W51383  39.371  36.908   3.318
92090W        W51384  33.005  44.773  13.352
92091W        W51385   2.254  39.321  11.571
92092W        W51386   8.689  43.509  12.356
92093W        W51387  22.154  36.542   3.178
92094W        W51388  37.992  30.970   1.787
92095W        W51389  37.041  37.562   2.278
92096W        W51390  42.018  42.010  13.467
92097W        W51391   9.246  21.524  13.410
92098W        W51392   7.228  26.097   0.832
92099W        W51393   4.902  29.940   4.644
92100W        W51394  14.677  19.060  12.495
92101W        W51395  43.796  42.422  10.062
92102W        W51396  27.143  33.914  12.518
92103W        W51397  13.651   0.798  10.912
92104W        W51398  36.009  13.601   4.781
92105W        W51399  13.798  17.122  14.404
92106W        W51400  14.668  41.319  11.908
92107W        W51401   3.832  28.516   1.852
92108W        W51402  14.143  25.090   3.286
92109W        W51403  28.576   0.756   2.221
92110W        W51404   9.741  24.001  11.394
92111W        W51405   2.382   2.277  12.983
92112W        W51406  42.458  32.508   1.880
92113W        W51407  41.325  18.168  13.031
92114W        W51408  27.645  40.917  12.882
92115W        W51409  28.565   8.844   2.218
92116W        W51410   8.190  43.392  13.375
92117W        W51411  18.204  40.413  10.497
92118W        W51412   9.674   0.460   4.149
92119W        W51413  27.058  12.335  13.972
92120W        W51414  33.602  23.663  13.914
92121W        W51415  17.075  12.232  12.542
92122W        W51416  36.410  38.539  11.024
92123W        W51417  20.108  22.512  14.314
92124W        W51418  20.197   7.382   1.424
92125W        W51419  30.652  17.593   1.881
92126W        W51420  25.673  38.839  13.372
92127W        W51421  34.899  41.040   1.273
92128W        W51422  17.101   2.269   4.722
92129W        W51423  13.666  32.473   0.751
92130W        W51424  41.025  28.597   2.179
92131W        W51425  30.467  44.306   2.256
92132W        W51426   0.780  21.097   4.753
92133W        W51427   7.273  24.559   1.701
92134W        W51428  10.178  17.196   1.444
92135W        W51429  32.442  31.074   3.784
92136W        W51430  37.393  16.805  13.413
92137W        W51431  18.767  25.121  13.987
92138W        W51432   4.426  11.664  11.562
92139W        W51433  42.306  16.566  11.887
92140W        W51434  43.417  27.628  12.373
92141W        W51435   8.787  41.939  12.970
92142W        W51436  21.174  22.140   0.871
92143W        W51437   4.438  10.671  12.553
92144W        W51438  31.588   9.777  13.311
92145W        W51439   0.921  30.955  12.860
92146W        W51440  17.617  16.652  14.901
92147W        W51441  14.284  13.668   0.336
92148W        W51442  34.511   7.294  13.960
92149W        W51443  29.522  18.775  12.435
92150W        W51444  22.551  11.805   3.733
92151W        W51445  30.113   4.923   4.268
92152W        W51446   9.889  36.521  10.960
92153W        W51447   1.762   1.828  10.137
92154W        W51448   4.433  36.470  13.918
92155W        W51449  20.252  15.226  12.502
92156W        W51450  35.424   5.438  11.901
92157W        W51451   8.258  31.498   2.676
92158W        W51452  33.071  38.974  12.347
92159W        W51453  26.632  20.587   4.708
92160W        W51454  41.298   8.363   3.797
92161W        W51455   5.401   8.390  12.994
92162W        W51456  31.628  22.248  11.469
92163W        W51457  27.013  41.411   3.335
92164W        W51458  43.849   2.408  13.935
92165W        W51459  21.561  42.448   0.427
92166W        W51460   3.341  44.800   0.895
92167W        W51461  40.824  32.088   1.741
92168W        W51462  44.823   7.368  13.894
92169W        W51463  10.683  28.584  11.037
92170W        W51464  44.935  34.373   4.784
92171W        W51465  16.300  28.991  10.536
92172W        W51466  31.120  13.725   3.852
92173W        W51467  44.962  24.504   4.221
92174W        W51468  44.959   4.373  11.956
92175W        W51469  14.740   6.238   0.746
92176W        W51470   5.263   4.341   0.326
92177W        W51471  28.010  15.311   1.255
92178W        W51472  18.180  14.105   4.628
92179W        W51473   6.828  38.421  11.533
92180W        W51474  12.826  33.061   4.298
92181W        W51475  22.545  25.999  14.766
92182W        W51476  21.243  33.622   0.854
92183W        W51477  32.093  38.486   3.157
92184W        W51478  37.874  26.005   3.862
92185W        W51479  42.493   2.732  14.933
92186W        W51480   4.779   2.358  14.322
92187W        W51481  13.123  17.801   3.771
92188W        W51482  35.860  36.032  10.608
92189W        W51483  35.492   8.331   3.761
92190W        W51484   0.468  40.808  10.987
92191W        W51485  19.702  10.783  10.471
92192W        W51486  23.002   4.248  12.027
92193W        W51487  15.680  16.165  13.994
92194W        W51488  10.260  40.447   3.649
92195W        W51489  44.812   5.885   3.356
92196W        W51490  19.194  22.533  14.421
92197W        W51491  42.900  20.742  12.986
92198W        W51492  37.024  28.593   0.843
92199W        W51493  36.951  32.919   0.368
92200W        W51494  43.005  38.045   1.320
92201W        W51495  38.064  11.682   2.261
92202W        W51496   0.426   3.719  11.985
92203W        W51497  12.705   9.737   0.865
92204W        W51498  32.530  20.091  11.612
92205W        W51499  19.131  28.570   4.814
92206W        W51500   5.852  13.688  11.057
92207W        W51501   8.301  28.678  10.562
92208W        W51502  22.647  27.145   4.777
92209W        W51503  29.572  24.676  13.407
92210W        W51504  32.457   1.453   3.258
92211W        W51505   8.752  39.470  10.572
92212W        W51506  16.702  15.806   0.387
92213W        W51507  42.868   2.720   2.784
92214W        W51508   7.770   0.299  14.811
92215W        W51509   1.320  21.071   0.913
92216W        W51510  13.113  20.073  10.543
92217W        W51511  36.955  24.990  11.981
92218W        W51512   3.278  30.601  13.482
92219W        W51513  14.699  11.686  14.790
92220W        W51514   1.305  11.760   3.198
92221W        W51515  15.809  15.610  13.855
92222W        W51516  10.365  37.525   0.850
92223W        W51517  25.072  15.726   0.323
92224W        W51518  22.666  39.527   4.764
92225W        W51519  21.036  26.053  12.949
92226W        W51520  30.080  36.995   2.405
92227W        W51521  13.236   1.364   2.859
92228W        W51522   3.953  34.960   5.102
92229W        W51523  19.537  43.283  11.527
92230W        W51524  37.918  25.055  13.054
92231W        W51525  22.054  24.583   1.716
92232W        W51526  30.605  30.455   3.714
92233W        W51527  10.303   6.760   4.265
92234W        W51528   2.409  10.694   4.304
92235W        W51529   2.877   0.256  12.014
92236W        W51530  32.137  20.612   4.140
92237W        W51531  40.364  42.796   2.870
92238W        W51532  18.113   5.395  10.475
92239W        W51533  35.103  29.659   2.355
92240W        W51534  35.573  27.111   1.785
92241W        W51535  44.775  25.654   1.856
92242W        W51536  12.825  32.480   4.774
92243W        W51537  21.205  23.496   0.902
92244W        W51538  31.631  43.962  11.905
92245W        W51539  20.187  39.976  13.022
92246W        W51540  28.972  34.467  10.489
92247W        W51541  38.523  29.553   1.401
92248W        W51542  26.656  23.502   1.261
92249W        W51543  44.492  12.663  10.023
92250W        W51544  20.648  16.073   0.365
92251W        W51545  31.145  18.770  14.900
92252W        W51546  21.072  27.123   4.719
92253W        W51547  15.136  14.764  10.605
92254W        W51548  21.128  11.330  12.464
92255W        W51549   0.447  37.036  14.954
92256W        W51550  41.904  15.191  13.952
92257W        W51551  41.304  28.080   4.122
92258W        W51552   6.764  23.045  13.026
92259W        W51553  26.110  42.284  13.887
92260W        W51554  15.768  14.760   2.390
92261W        W51555   0.861  34.985  12.076
92262W        W51556  42.443  17.693   2.212
92263W        W51557  32.062   2.276  12.430
92264W        W51558  38.327  36.375   2.308
92265W        W51559  17.586  28.019  12.024
92266W        W51560  26.561  44.938   3.289
92267W        W51561  32.426  28.045   3.728
92268W        W51562  24.076  17.269   1.883
92269W        W51563  21.737  38.963   4.614
92270W        W51564   0.897  24.598  10.522
92271W        W51565  12.776  30.110   4.749
92272W        W51566  19.575   9.681   1.327
92273W        W51567  24.666  15.295  12.875
92274W        W51568  17.151  39.319  10.964
92275W        W51569  21.247  24.680   3.697
92276W        W51570   0.953  42.290   0.832
92277W        W51571  40.309   7.222  11.513
92278W        W51572   5.295   7.361   2.690
92279W        W51573  35.982  40.541   0.446
92280W        W51574  36.951  22.127  13.541
92281W        W51575  37.515  42.423   2.812
92282W        W51576  44.386  28.108   0.479
92283W        W51577   8.790  22.618  11.602
92284W        W51578  35.573  12.217  14.983
92285W        W51579  19.058  35.550   1.836
92286W        W51580  43.487  22.571  11.429
92287W        W51581  43.862  23.494   2.680
92288W        W51582  41.407  25.008  10.423
92289W        W51583  26.150  14.206   3.200
92290W        W51584  29.544  43.283  10.107
92291W        W51585   3.904  24.197  11.076
92292W        W51586  35.466  39.499  13.799
92293W        W51587  30.604  42.918   2.207
92294W        W51588   2.393  11.781  11.117
92295W        W51589  44.917  28.157  13.495
92296W        W51590   0.339  17.126  11.901
92297W        W51591  40.539  35.028  13.903
92298W        W51592  28.167  12.130  12.559
92299W        W51593  43.974   3.949  11.495
92300W        W51594  19.240   4.907  13.427
92301W        W51595  10.643  37.082   4.762
92302W        W51596  35.390  29.445  13.525
92303W        W51597   5.432   5.430  12.968
92304W        W51598  34.470   7.715  12.405
92305W        W51599  10.836  43.355   2.725
92306W        W51600  40.870  29.944   3.758
92307W        W51601   5.859  40.308   0.942
92308W        W51602   9.183  36.517  11.052
92309W        W51603  31.516   6.361  11.858
92310W        W51604   3.386  33.472  14.794
92311W        W51605  11.133  24.632   2.837
92312W        W51606  23.686   4.898   4.158
92313W        W51607  14.798   4.409   2.209
92314W        W51608  14.720  36.527  14.343
92315W        W51609   9.337  10.270  14.941
92316W        W51610  35.030   9.215  10.038
92317W        W51611  28.933  29.946   3.203
92318W        W51612  27.138  42.923  10.432
92319W        W51613   4.370  26.551   1.727
92320W        W51614  24.625  10.264   2.231
92321W        W51615  40.048  13.790  14.460
92322W        W51616  12.662   8.798  14.963
92323W        W51617  22.018  36.577  11.087
92324W        W51618  12.117  16.163  12.990
92325W        W51619  16.778  13.698   3.751
92326W        W51620  31.947  33.481   0.444
92327W        W51621  32.538  19.561   5.272
92328W        W51622   5.325   5.879   1.728
92329W        W51623  20.734  23.636   3.261
92330W        W51624  36.497  43.976   0.752
92331W        W51625   2.411  10.284   1.837
92332W        W51626  35.057  27.139   0.945
92333W        W51627  37.858  25.484   3.661
92334W        W51628   4.406  23.229  14.325
92335W        W51629  19.152  24.989  11.916
92336W        W51630  13.134  43.927  12.889
92337W        W51631  25.482  19.241  11.584
92338W        W51632  40.808   3.441   0.403
92339W        W51633   5.263  27.950  10.560
92340W        W51634  40.537  24.564   2.815
92341W        W51635   6.830  42.945  14.511
92342W        W51636  42.329  14.244   0.920
92343W        W51637  37.862   9.215   4.717
92344W        W51638  15.579   8.756  12.846
92345W        W51639  24.224  30.038   0.427
92346W        W51640  35.923  20.556   0.752
92347W        W51641  41.534  15.673   4.119
92348W        W51642  24.024  37.897  11.912
92349W        W51643   7.828  13.714  13.425
92350W        W51644  37.070  14.261  10.533
92351W        W51645  25.648  10.677   3.712
92352W        W51646  11.160  43.909  11.446
92353W        W51647  37.422  32.123  14.848
92354W        W51648  24.479   6.272   1.345
92355W        W51649   2.744  28.102  10.897
92356W        W51650  36.949  22.711   1.809
92357W        W51651  36.565  22.247  12.474
92358W        W51652  27.063  25.593   1.738
92359W        W51653   9.882   7.838   4.771
92360W        W51654  23.492  33.444  14.430
92361W        W51655  42.451  42.004   4.683
92362W        W51656  37.001  29.133  13.913
92363W        W51657  35.381  19.271   1.298
92364W        W51658   1.766  19.113  13.546
92365W        W51659  12.269  24.201  12.943
92366W        W51660   5.776  17.202   1.312
92367W        W51661  38.839  41.869   1.314
92368W        W51662  31.924  37.551  11.467
92369W        W51663  18.764  32.081  10.015
92370W        W51664  25.629  23.999  11.126
92371W        W51665   0.455  14.130  13.849
92372W        W51666  44.873  18.215   1.450
92373W        W51667  28.573  21.734  12.047
92374W        W51668   0.907  18.725   3.785
92375W        W51669  29.158  44.818  13.921
92376W        W51670   2.313  42.514  13.310
92377W        W51671   9.236  31.997   3.250
92378W        W51672  14.659   8.720   1.237
92379W        W51673  19.637  34.916  13.489
92380W        W51674  41.519  16.095  12.902
92381W        W51675   7.196  12.708  12.570
92382W        W51676  21.533  27.048  14.969
92383W        W51677  22.192  38.350   0.246
92384W        W51678  29.584  31.026   2.395
92385W        W51679  28.625  23.235   2.866
92386W        W51680  16.671  38.425  14.998
92387W        W51681  15.730   6.906  14.326
92388W        W51682  29.470  18.227  11.509
92389W        W51683  37.970   9.187  13.948
92390W        W51684   3.260  37.377   0.904
92391W        W51685  38.529  36.090   5.568
92392W        W51686   2.911  15.622  14.842
92393W        W51687   0.454  10.639   2.788
92394W        W51688  44.896  13.312   9.929
92395W        W51689   8.719   4.353   0.364
92396W        W51690  28.005  36.524  10.629
92397W        W51691  34.520  12.195   4.659
92398W        W51692  38.356   5.242   2.697
92399W        W51693  44.287  33.465   3.224
92400W        W51694  17.210  34.062   4.330
92401W        W51695   0.472   9.725  14.021
92402W        W51696  35.009   1.411  13.545
92403W        W51697  18.713  34.886  14.387
92404W        W51698  19.210  26.206   3.814
92405W        W51699  24.637   4.396   4.142
92406W        W51700  14.173  10.157  14.495
92407W        W51701   5.874   2.282   1.212
92408W        W51702  31.562  37.854  10.960
92409W        W51703  22.996  13.316  13.806
92410W        W51704  11.131  41.042  11.906
92411W        W51705   9.735  12.793  11.914
92412W        W51706   6.761  43.300   4.179
92413W        W51707  39.512  33.939  10.048
92414W        W51708   9.868  36.887   2.755
92415W        W51709  36.527  26.459   3.648
92416W        W51710   6.700  10.372   0.413
92417W        W51711  25.696  28.045   2.756
92418W        W51712  29.467  33.031  11.023
92419W        W51713  18.067   1.769   1.296
92420W        W51714  13.222  12.632   0.739
92421W        W51715   0.933  32.590   0.455
92422W        W51716  42.453  31.988   0.337
92423W        W51717  35.878  20.665   3.658
92424W        W51718  12.816  35.585   1.234
92425W        W51719   8.795   1.423   1.931
92426W        W51720  41.923  21.566  10.997
92427W        W51721  26.004  23.545  12.829
92428W        W51722  14.205  28.961   4.353
92429W        W51723   0.912  32.118  13.498
92430W        W51724   5.904  26.457   2.380
92431W        W51725   5.360  41.532   0.924
92432W        W51726   4.221   7.238  13.797
92433W        W51727  34.915  26.536  14.492
92434W        W51728  41.475  36.866   4.203
92435W        W51729  27.459   5.808  10.407
92436W        W51730   0.280  39.973   2.724
92437W        W51731  33.536  17.759  10.044
92438W        W51732  41.928  40.522  13.813
92439W        W51733  21.145  15.083  12.837
92440W        W51734  33.902  16.266   0.774
92441W        W51735  43.879  16.174  13.412
92442W        W51736  23.732  15.757   3.383
92443W        W51737  20.233  36.015  14.491
92444W        W51738  29.115  36.073   0.866
92445W        W51739   1.890   2.287   2.232
92446W        W51740  14.340  25.690   1.275
92447W        W51741  18.244  25.494  12.408
92448W        W51742  39.006  24.712  13.008
92449W        W51743   0.442  40.910  12.918
92450W        W51744   0.829  44.289   2.899
92451W        W51745  14.830  24.635   4.172
92452W        W51746  31.451  18.554   2.380
92453W        W51747  16.698  13.315   0.351
92454W        W51748  40.494  13.211  10.531
92455W        W51749  26.592  14.709   5.217
92456W        W51750  38.062  21.097   2.186
92457W        W51751  13.144   1.272  12.964
92458W        W51752  11.749  11.282  11.395
92459W        W51753   8.232  20.673   1.705
92460W        W51754  39.443  14.799  13.018
92461W        W51755  22.068  38.073  13.897
92462W        W51756   3.945  31.619   3.869
92463W        W51757   2.230   9.735  12.482
92464W        W51758  22.687  27.014   1.383
92465W        W51759  38.365   7.749   0.914
92466W        W51760  24.633  30.474   2.379
92467W        W51761  44.850  38.522   1.431
92468W        W51762  44.381  14.281  10.574
92469W        W51763  23.506  35.941   2.267
92470W        W51764   6.783  29.011  14.444
92471W        W51765  35.939  21.027  10.102
92472W        W51766  17.230   5.353   2.847
92473W        W51767   0.869   8.744  14.387
92474W        W51768  26.196   9.732   3.717
92475W        W51769  42.372  36.403   0.870
92476W        W51770  43.981   4.758  13.524
92477W        W51771  36.851  27.675  13.355
92478W        W51772  17.757  14.636   1.285
92479W        W51773  32.007  44.799   1.765
92480W        W51774  38.845  44.441  14.945
92481W        W51775  32.449  38.051   0.401
92482W        W51776  10.786  44.863   4.347
92483W        W51777  15.272  28.622   2.333
92484W        W51778  23.985   4.424  11.976
92485W        W51779  35.577  31.149   0.294
92486W        W51780   3.224  37.024  12.497
92487W        W51781  37.456  26.198   2.276
92488W        W51782  25.655  38.432   2.811
92489W        W51783  31.598  11.735   4.795
92490W        W51784  38.880   3.348   3.736
92491W        W51785   9.294  39.046  12.349
92492W        W51786  11.241  19.578  10.923
92493W        W51787   1.938  43.911  10.403
92494W        W51788  37.941   7.329  11.561
92495W        W51789   2.385   6.260   4.699
92496W        W51790  22.677   9.697   0.744
92497W        W51791  39.038  40.881   2.860
92498W        W51792  37.458  43.428  13.363
92499W        W51793   6.782   9.239  12.491
92500W        W51794  40.307  33.587  12.096
92501W        W51795  40.405  35.957  11.105
92502W        W51796  27.040  15.594  14.922
92503W        W51797  38.037  19.592  13.923
92504W        W51798   1.331  36.062  11.000
92505W        W51799  13.778   4.327   2.393
92506W        W51800  15.768  25.026   1.365
92507W        W51801  14.761  21.255  10.526
92508W        W51802  32.134   5.221   4.300
92509W        W51803   2.785  38.362  11.379
92510W        W51804  36.372  41.442  10.561
92511W        W51805   1.736   2.963  11.433
92512W        W51806  14.326  35.398  12.355
92513W        W51807  38.839  22.709  10.583
92514W        W51808  38.017  35.420  11.541
92515W        W51809   7.243  44.462   1.247
92516W        W51810  34.532  18.660   2.251
92517W        W51811  32.634  31.407  12.011
92518W        W51812  31.994  13.301   4.828
92519W        W51813  23.069  29.142  10.910
92520W        W51814  21.195  22.530   3.297
92521W        W51815  44.968   3.751  13.496
92522W        W51816  15.699  13.227  12.886
92523W        W51817  15.720   8.702   3.675
92524W        W51818  35.441  14.097   0.255
92525W        W51819  44.840  22.245  10.489
92526W        W51820  23.693   1.444   4.237
92527W        W51821  10.731   6.201  12.957
92528W        W51822  21.562  39.317  13.432
92529W        W51823  28.186   4.357  11.084
92530W        W51824  11.268  19.631  13.021
92531W        W51825  31.576  13.233  14.902
92532W        W51826  14.124  44.298   3.173
92533W        W51827   8.177   5.762  14.490
92534W        W51828  10.166   5.747  13.380
92535W        W51829   3.303   2.878   3.861
92536W        W51830   6.846   9.283   3.241
92537W        W51831  27.135  26.559  11.986
92538W        W51832  32.982  31.486  13.005
92539W        W51833  34.564   6.270   1.849
92540W        W51834  38.371  28.962  13.409
92541W        W51835  44.792  41.420  14.468
92542W        W51836  28.594  18.264  13.478
92543W        W51837  16.658   6.714   4.277
92544W        W51838  23.607   5.423   3.183
92545W        W51839  41.895  20.732   4.340
92546W        W51840  27.585  21.063   0.898
92547W        W51841  30.643  28.443  10.634
92548W        W51842  11.241   7.681   0.752
92549W        W51843  27.969  35.098   1.253
92550W        W51844   3.440  29.447  11.110
92551W        W51845  21.694  42.309   0.814
92552W        W51846  24.086  39.327  11.932
92553W        W51847  21.251  30.927   5.085
92554W        W51848  25.134  20.588   2.347
92555W        W51849  40.405  28.103   5.092
92556W        W51850  17.769  26.998   1.734
92557W        W51851  15.737  28.979  14.991
92558W        W51852  29.156   7.221  11.379
92559W        W51853   7.333   6.781  13.815
92560W        W51854  27.943  28.444   3.759
92561W        W51855  16.568  36.883   2.788
92562W        W51856  23.642   5.369   4.806
92563W        W51857  27.156  36.089   3.305
92564W        W51858   7.883   7.787   4.188
92565W        W51859  37.044  22.130   1.339
92566W        W51860  38.003  21.714  13.466
92567W        W51861  29.580  25.509   0.904
92568W        W51862  33.418   3.825  13.871
92569W        W51863   6.315  39.033   3.832
92570W        W51864  31.113  29.171   4.270
92571W        W51865  13.322  31.093  14.772
92572W        W51866  25.116  25.977  12.393
92573W        W51867  15.181  13.827   1.768
92574W        W51868  35.577  12.343  11.912
92575W        W51869  11.624  40.440  11.385
92576W        W51870  36.461  19.657   1.798
92577W        W51871  26.626  12.306  11.434
92578W        W51872  32.535  12.768  12.002
92579W        W51873   3.939  41.349  11.062
92580W        W51874  10.260  21.159   4.724
92581W        W51875  28.639  42.286   0.282
92582W        W51876   9.215   4.375   1.859
92583W        W51877   4.881  15.090   2.260
92584W        W51878  16.720  20.730   2.239
92585W        W51879  10.270   5.242   3.253
92586W        W51880  11.172  43.514   0.277
92587W        W51881  34.081  28.493  14.309
92588W        W51882  33.938  26.640   4.126
92589W        W51883  19.732   6.733   2.705
92590W        W51884  44.376  15.222  12.559
92591W        W51885  41.415  13.172   5.291
92592W        W51886   6.210   3.374  14.765
92593W        W51887  42.998  32.065   2.902
92594W        W51888  14.259   1.888   0.808
92595W        W51889  36.000   9.270   5.647
92596W        W51890  32.395  39.511  10.509
92597W        W51891  43.321  44.962  13.463
92598W        W51892   6.889  36.973   1.765
92599W        W51893  20.692  18.209  12.977
92600W        W51894  35.914  40.001   3.373
92601W        W51895  25.706  35.557  14.435
92602W        W51896  42.836  21.653  10.939
92603W        W51897  12.799  34.018   3.861
92604W        W51898  37.461  29.932  13.006
92605W        W51899   2.913   1.774  14.359
92606W        W51900  22.029  36.505   1.914
92607W        W51901  13.315  19.734   4.811
92608W        W51902  19.664  10.709  12.062
92609W        W51903  21.178   3.901   2.900
92610W        W51904  25.219  44.389   4.742
92611W        W51905   9.224  33.624   2.277
92612W        W51906  28.967   9.250  14.441
92613W        W51907   7.733  29.012  11.079
92614W        W51908  22.111  39.853  14.340
92615W        W51909  36.550  27.518   2.752
92616W        W51910  10.774   2.870   5.648
92617W        W51911  19.699   7.270  13.032
92618W        W51912  28.630  30.568  12.078
92619W        W51913  28.488  27.554   2.696
92620W        W51914  26.995  43.985  14.324
92621W        W51915  14.275  43.292   0.344
92622W        W51916  24.677   9.713  11.957
92623W        W51917  12.685  13.201   4.620
92624W        W51918  44.987  43.929   3.738
92625W        W51919  15.594   1.362  11.935
92626W        W51920   0.464  43.454   0.920
92627W        W51921   9.864   9.836   4.826
92628W        W51922   6.405  30.114  10.926
92629W        W51923   1.841   5.739   2.828
92630W        W51924  10.695  44.359  14.998
92631W        W51925  41.922  27.951   4.241
92632W        W51926  33.468   5.826  13.982
92633W        W51927  30.492  25.983  11.093
92634W        W51928  42.516  35.082   3.667
92635W        W51929  37.414  20.618  10.915
92636W        W51930  40.549  23.509  11.112
92637W        W51931   0.335  17.697  12.864
92638W        W51932  17.243  38.887  14.334
92639W        W51933  15.605  24.223  13.966
92640W        W51934  33.434  15.816  14.987
92641W        W51935  27.505  36.408  14.766
92642W        W51936  39.911  20.222  13.920
92643W        W51937  33.109  33.504  10.997
92644W        W51938   8.329  44.431  10.462
92645W        W51939  36.548  40.913  11.069
92646W        W51940  33.976   5.705   2.221
92647W        W51941  29.026   7.692   3.741
92648W        W51942   5.739  42.507  10.633
92649W        W51943  33.559  25.067   5.164
92650W        W51944   5.859  32.444   3.203
92651W        W51945  21.238  12.233   0.321
92652W        W51946  31.066  38.825  11.527
92653W        W51947   3.309  31.574  10.633
92654W        W51948   9.323  16.596   2.389
92655W        W51949  24.144  41.402   1.815
92656W        W51950   9.280  33.986  13.895
92657W        W51951   5.372   8.283   1.798
92658W        W51952  34.112   4.723  14.479
92659W        W51953  11.165  20.627  10.528
92660W        W51954  39.924   1.367   1.398
92661W        W51955  20.661  33.069  12.996
92662W        W51956  20.157  28.636  13.020
92663W        W51957  26.643  36.997  13.537
92664W        W51958   3.910  44.758   1.757
92665W        W51959   7.314  16.210   0.744
92666W        W51960  26.103  19.746   3.152
92667W        W51961  16.100  35.072   1.814
92668W        W51962   0.301  10.306  12.459
92669W        W51963  30.591  37.465  14.862
92670W        W51964   4.847  38.494   0.382
92671W        W51965  38.476  36.901  14.324
92672W        W51966  28.012  14.701  12.946
92673W        W51967  10.814   2.407  11.068
92674W        W51968  36.962  10.722  13.518
92675W        W51969   7.688  29.926   0.365
92676W        W51970  29.111   6.329  10.899
92677W        W51971  43.885   9.338   4.258
92678W        W51972   9.787  44.775  10.450
92679W        W51973  12.775  36.358   2.196
92680W        W51974  28.671  43.318   1.815
92681W        W51975  42.394  14.185  12.567
92682W        W51976  40.928  17.684  11.105
92683W        W51977  35.470   0.256   2.887
92684W        W51978  36.902  18.122  12.474
92685W        W51979   7.410  16.251   4.297
92686W        W51980  40.350   8.838  12.943
92687W        W51981  17.305  18.278   1.362
92688W        W51982  11.317   5.253   4.776
92689W        W51983  29.664  14.231  10.099
92690W        W51984  44.943  29.927  13.310
92691W        W51985   2.298  42.293   1.326
92692W        W51986  39.838  36.046   2.816
92693W        W51987  27.448  32.035   3.661
92694W        W51988  44.962  36.941   0.382
92695W        W51989  28.607  28.139  13.387
92696W        W51990  23.030  42.957   9.964
92697W        W51991   4.334  39.496  13.862
92698W        W51992  36.571  41.981  14.327
92699W        W51993   8.719  18.092   1.808
92700W        W51994  17.157  27.461   1.375
92701W        W51995  28.599  16.284  12.906
92702W        W51996  24.148  28.470   2.728
92703W        W51997  34.041  16.780   3.785
92704W        W51998   2.963  34.395  14.879
92705W        W51999  16.159   3.736   4.294
92706W        W52000   1.905  33.523  11.100
92707W        W52001  40.383  21.636  12.914
92708W        W52002  20.692  16.778  12.018
92709W        W52003   6.844  26.456   3.261
92710W        W52004  23.119   3.358   5.219
92711W        W52005  11.261  30.596  10.491
92712W        W52006  39.544  32.633   0.759
92713W        W52007  28.937  38.008  12.417
92714W        W52008  22.053   3.319  14.767
92715W        W52009  40.523   6.750   2.751
92716W        W52010  37.994  25.696   0.793
92717W        W52011  14.679  20.095   2.865
92718W        W52012  22.612   3.432   5.291
92719W        W52013   5.888  38.509   3.655
92720W        W52014  34.111  41.876   1.831
92721W        W52015  44.406  26.555   4.678
92722W        W52016  20.087  39.028  14.393
92723W        W52017  41.454   3.947   4.824
92724W        W52018  36.578  13.709  12.005
92725W        W52019   0.407   4.894  12.886
92726W        W52020  11.683   6.215   3.320
92727W        W52021  40.910  12.708   3.359
92728W        W52022  26.125  21.140  12.854
92729W        W52023  36.389  12.290  14.402
92730W        W52024  44.447   6.381   1.224
92731W        W52025   2.951  27.153   3.855
92732W        W52026  32.500  13.154  12.011
92733W        W52027  31.456  10.808  12.420
92734W        W52028  15.194  26.988  14.800
92735W        W52029  43.443  26.086   2.669
92736W        W52030  25.001   3.417   4.673
92737W        W52031  16.593  24.017  12.042
92738W        W52032  38.480   6.357   3.695
92739W        W52033  27.085  43.814   0.869
92740W        W52034  28.170  13.674   3.247
92741W        W52035  35.089  14.673   4.301
92742W        W52036  29.446  39.381  13.911
92743W        W52037   6.690  17.671   4.760
92744W        W52038  16.656  29.116   1.256
92745W        W52039  11.712  30.438   0.407
92746W        W52040  36.072   0.794  14.843
92747W        W52041  38.493  30.111   3.688
92748W        W52042  33.042  33.944   2.861
92749W        W52043  16.673  38.924   1.304
92750W        W52044  27.609  19.166  12.070
92751W        W52045  29.576  22.622  14.857
92752W        W52046  27.619  12.849  14.451
92753W        W52047  25.072   3.358   2.737
92754W        W52048   6.249  32.922  14.458
92755W        W52049  23.656  11.154  14.353
92756W        W52050   7.370   0.754  12.838
92757W        W52051  34.887   9.832   3.260
92758W        W52052   6.271   4.876  10.421
92759W        W52053  25.616   0.838   4.660
92760W        W52054  15.702  21.651   3.279
92761W        W52055  15.325  13.613  14.768
92762W        W52056  23.545  43.012  10.926
92763W        W52057   4.353  14.687   4.641
92764W        W52058  42.891   3.849   2.343
92765W        W52059  39.387  24.678   1.347
92766W        W52060  28.975  25.078  13.964
92767W        W52061  38.398  44.810   1.419
92768W        W52062  30.014  43.936  11.069
92769W        W52063   6.679  43.319   3.704
92770W        W52064  39.333  10.793  13.309
92771W        W52065  37.981  23.587   0.332
92772W        W52066  10.245   1.815  14.975
92773W        W52067   9.385  39.034  14.931
92774W        W52068  41.451   8.731  13.409
92775W        W52069  39.412   8.693  11.416
92776W        W52070   3.882   0.844  12.475
92777W        W52071  39.361  43.844  11.093
92778W        W52072  11.863  13.718   4.713
92779W        W52073  30.928  11.139   4.143
92780W        W52074  22.612  18.598   2.399
92781W        W52075  31.494  14.754  11.955
92782W        W52076   0.897   2.721   0.900
92783W        W52077  35.578  43.843   4.127
92784W        W52078  11.190  42.816   3.229
92785W        W52079   9.650   4.811  13.984
92786W        W52080   7.345   3.368  13.371
92787W        W52081  16.177  20.601   1.802
92788W        W52082  19.645  21.022   1.309
92789W        W52083  40.390  19.135   0.812
92790W        W52084  12.660  15.219  10.492
92791W        W52085  27.642  28.930   3.209
92792W        W52086  19.731   1.884   1.224
92793W        W52087  27.027  14.318   4.219
92794W        W52088  23.685   5.388  11.950
92795W        W52089  40.547  32.096  10.607
92796W        W52090  29.941   5.725  11.596
92797W        W52091  30.080  14.310  13.440
92798W        W52092  22.997  13.156  13.321
92799W        W52093   9.722  39.915   2.840
92800W        W52094  21.028  37.945   3.641
92801W        W52095  35.597  28.500  12.386
92802W        W52096  24.548  16.675   4.295
92803W        W52097  23.542  43.899   3.319
92804W        W52098  23.714   9.839  11.884
92805W        W52099  11.687  16.670   2.890
92806W        W52100   3.379  36.493   2.333
92807W        W52101  12.846  27.974   4.606
92808W        W52102  10.207  29.446   1.298
92809W        W52103  25.067   2.306  10.901
92810W        W52104  43.895  27.464   2.395
92811W        W52105   4.838  23.217  11.904
92812W        W52106  17.624  31.539   4.267
92813W        W52107  26.694   6.767  14.435
92814W        W52108  24.164   0.802   3.821
92815W        W52109   6.421   1.900   1.266
92816W        W52110  41.520   9.818   0.731
92817W        W52111   9.304   5.756   2.279
92818W        W52112  30.123  11.655  13.974
92819W        W52113  31.005  20.624  14.015
92820W        W52114   0.811  21.112   5.117
92821W        W52115   0.832  40.541   2.805
92822W        W52116   5.310   2.810   3.725
92823W        W52117   5.931  21.647   3.314
92824W        W52118   7.795   2.226  13.451
92825W        W52119   6.316   5.421  14.822
92826W        W52120   0.792   0.474   3.199
92827W        W52121  29.168  12.172  13.036
92828W        W52122  22.695  38.825  11.916
92829W        W52123  10.657  31.557   1.402
92830W        W52124  34.478   4.385  14.479
92831W        W52125   2.360  34.459   3.172
92832W        W52126  36.509  11.634   9.945
92833W        W52127  30.012  27.949   3.840
92834W        W52128  22.571   0.921  12.077
92835W        W52129  23.134   8.334   1.426
92836W        W52130  31.113  32.034  10.476
92837W        W52131  17.088  11.189  14.818
92838W        W52132  20.257  35.573  13.888
92839W        W52133   1.853  10.774   1.855
92840W        W52134  33.621  35.920  11.919
92841W        W52135   5.806   2.271  13.969
92842W        W52136  15.725  25.045   0.806
92843W        W52137  30.476  30.431  11.004
92844W        W52138  15.791  27.486   2.669
92845W        W52139  17.284   8.803   4.244
92846W        W52140  28.150  44.887  14.774
92847W        W52141   7.207   5.875   0.848
92848W        W52142  21.531  17.176   0.862
92849W        W52143  28.438  29.480  11.122
92850W        W52144  19.630   3.807  14.894
92851W        W52145  34.911  12.264  10.430
92852W        W52146  24.017  23.630   2.379
92853W        W52147  43.898  40.327   3.849
92854W        W52148  22.622  22.209   4.743
92855W        W52149  15.761  43.012   2.782
92856W        W52150  12.312  15.585   3.192
92857W        W52151  14.639  17.635  11.452
92858W        W52152  20.756  22.660  13.319
92859W        W52153   1.807  21.159  14.492
92860W        W52154  33.895  22.607   2.861
92861W        W52155   2.802  26.671  13.439
92862W        W52156   0.462  14.777  14.464
92863W        W52157   1.930   7.293   4.174
92864W        W52158  36.530  11.192   0.784
92865W        W52159  22.165  44.328  11.387
92866W        W52160  18.676  32.476   3.832
92867W        W52161  38.979  31.944  10.540
92868W        W52162   3.937  44.912   1.223
92869W        W52163   6.260  33.984  10.901
92870W        W52164  15.280  22.098  14.419
92871W        W52165  21.643  23.200  10.931
92872W        W52166  32.437  10.239  11.583
92873W        W52167  21.190  41.502  14.883
92874W        W52168  26.025  26.605  12.512
92875W        W52169  27.623  14.322   1.928
92876W        W52170  37.065  40.418   3.708
92877W        W52171  44.780  15.785   1.709
92878W        W52172   9.804   9.867  10.424
92879W        W52173  39.321   6.195  10.994
92880W        W52174  29.153  33.574  13.544
92881W        W52175  29.614  41.794  11.979
92882W        W52176  13.115   2.795   2.386
92883W        W52177  38.900  25.016  10.555
92884W        W52178   0.422   5.867   3.751
92885W        W52179  29.637  24.506  11.536
92886W        W52180   1.949   3.333   0.437
92887W        W52181  32.456  16.616  14.439
92888W        W52182  44.992  18.142   0.760
92889W        W52183  22.199  10.328   2.865
92890W        W52184   7.823  15.148   1.334
92891W        W52185  43.306  25.986  13.840
92892W        W52186  41.931  28.104  11.439
92893W        W52187   9.395  38.334   2.663
92894W        W52188   8.336  29.636   1.378
92895W        W52189   4.317  15.272  14.287
92896W        W52190  40.966  17.066   4.652
92897W        W52191  32.056  43.844   0.758
92898W        W52192  39.037  35.981  13.006
92899W        W52193  17.646  38.880   3.199
92900W        W52194  30.127  34.002  13.482
92901W        W52195  10.723   7.333   2.846
92902W        W52196   4.276   3.709   3.730
92903W        W52197   9.238  18.066  12.384
92904W        W52198  21.098  19.553  10.610
92905W        W52199  22.636   8.705  14.943
92906W        W52200  38.347  38.367  10.476
92907W        W52201  13.229   6.291  14.489
92908W        W52202  25.543   4.426   4.241
92909W        W52203  41.345   3.275  12.850
92910W        W52204  10.350  44.423  14.336
92911W        W52205  10.138  30.132   4.351
92912W        W52206   2.841  22.141   5.149
92913W        W52207  22.743  40.330   4.709
92914W        W52208  31.517   4.718  14.415
92915W        W52209  24.103   0.304  14.977
92916W        W52210   6.750  24.156   2.358
92917W        W52211  20.262  17.667   4.757
92918W        W52212  19.547  32.009  13.924
92919W        W52213  37.998  28.508  13.444
92920W        W52214  39.449  13.673  12.005
92921W        W52215  37.035   5.401   3.850
92922W        W52216  29.169  36.989  10.895
92923W        W52217   6.376  33.910  11.446
92924W        W52218  13.191  22.639   4.172
92925W        W52219  26.631  16.622   1.783
92926W        W52220  13.739  14.830   2.673
92927W        W52221  23.133  14.099  11.030
92928W        W52222   2.912   7.771  13.379
92929W        W52223  40.896  42.426   3.374
92930W        W52224  11.844  14.198   1.446
92931W        W52225  16.182  44.319   0.896
92932W        W52226   9.883   7.904   3.242
92933W        W52227  32.435   2.283   3.338
92934W        W52228  22.568  43.414   0.288
92935W        W52229  25.588  10.338  12.875
92936W        W52230  26.976  10.369  13.892
92937W        W52231   2.272  25.471  11.567
92938W        W52232  17.670  26.032   0.272
92939W        W52233  27.163  30.425   1.310
92940W        W52234  12.133  13.698  10.491
92941W        W52235   0.853  34.587  13.419
92942W        W52236  28.086  43.510  10.900
92943W        W52237  27.951   5.219  12.887
92944W        W52238  32.529  37.473   2.862
92945W        W52239  17.254  21.725  12.892
92946W        W52240   1.393  30.589   4.751
92947W        W52241  31.146  32.567  13.355
92948W        W52242  28.102   7.392  14.333
92949W        W52243   1.738  12.781   1.222
92950W        W52244  18.089   4.855  10.958
92951W        W52245   3.933  12.195  14.359
92952W        W52246  25.006  23.610  13.019
92953W        W52247   8.675  10.785   2.419
92954W        W52248   7.843   8.665  10.541
92955W        W52249  18.183   6.894   0.911
92956W        W52250  18.567   3.217   0.903
92957W        W52251  24.224   4.354  12.835
92958W        W52252   4.907  41.916  12.434
92959W        W52253   6.705  33.526   0.317
92960W        W52254  39.384   9.717   1.397
92961W        W52255  20.533  20.054   2.338
92962W        W52256  18.577  40.025   1.401
92963W        W52257   4.943   7.693  12.844
92964W        W52258  19.632  26.014  11.414
92965W        W52259   4.938  32.899  11.440
92966W        W52260  23.597  42.368   1.807
92967W        W52261   1.814  33.385   3.678
92968W        W52262   3.851  42.383  11.559
92969W        W52263   6.261  44.008   0.960
92970W        W52264  35.370   3.815   2.225
92971W        W52265  10.770   5.195   4.348
92972W        W52266  39.816  44.789   2.261
92973W        W52267  38.376   0.288   3.372
92974W        W52268  14.697  21.690   0.245
92975W        W52269  10.155  12.766   2.884
92976W        W52270  15.739  42.504  12.993
92977W        W52271   7.286   7.675  12.386
92978W        W52272  34.513  17.179   4.628
92979W        W52273  27.971  24.217  11.596
92980W        W52274  38.905  30.592  13.505
92981W        W52275   6.851  20.567   1.788
92982W        W52276  21.056  11.699   1.335
92983W        W52277  18.079  30.512   4.271
92984W        W52278  28.453  17.281   2.205
92985W        W52279  43.880  22.586   3.698
92986W        W52280  11.707  37.047  14.995
92987W        W52281  42.316  20.587   1.356
92988W        W52282  25.194  44.869   2.362
92989W        W52283   1.257  31.433  12.908
92990W        W52284  21.589   1.922  10.991
92991W        W52285  24.598  36.904  13.393
92992W        W52286  39.984  22.563  11.988
92993W        W52287  42.356   8.246   0.473
92994W        W52288  28.934   9.673  10.938
92995W        W52289  22.239  31.466  12.834
92996W        W52290  17.129   5.383  11.855
92997W        W52291  38.916  12.231  10.445
92998W        W52292  15.249   9.209   3.185
92999W        W52293   0.338   5.397  11.974
93000W        W52294  41.799  32.415  12.016
93001W        W52295  18.690  11.835   1.896
93002W        W52296  20.039  20.210  10.628
93003W        W52297  12.809  41.523  10.640
93004W        W52298  20.634   8.185   0.779
93005W        W52299   3.893  44.259   4.788
93006W        W52300  20.082  12.678   0.825
93007W        W52301  38.418  26.652  10.468
93008W        W52302  41.534  22.503   4.657
93009W        W52303  20.240  23.527  13.340
93010W        W52304  34.073  19.558  13.923
93011W        W52305  41.801  11.293  12.968
93012W        W52306  31.920  18.068  14.988
93013W        W52307  37.053  40.916   4.774
93014W        W52308  44.452  27.133  12.498
93015W        W52309  35.957  36.851   4.221
93016W        W52310  29.009  14.793  13.461
93017W        W52311  39.487  21.225  12.545
93018W        W52312  44.784  28.503  13.534
93019W        W52313  36.862   6.252   1.246
93020W        W52314   2.861  28.526  10.595
93021W        W52315  13.656  36.448  11.868
93022W        W52316  33.460  41.307   2.662
93023W        W52317  35.861   3.242  12.454
93024W        W52318  22.210   3.269  11.597
93025W        W52319  37.950  18.620   3.842
93026W        W52320  13.795  23.079   1.752
93027W        W52321  13.602  20.148   4.642
93028W        W52322  22.720   8.834  13.872
93029W        W52323  27.559  30.162   2.215
93030W        W52324  27.963  11.306   1.856
93031W        W52325   2.884  21.053  13.844
93032W        W52326  21.020  29.514  13.834
93033W        W52327   9.696  29.939  12.495
93034W        W52328  35.563  43.975   2.368
93035W        W52329  34.545   5.309   0.435
93036W        W52330  43.789   7.361  13.389
93037W        W52331  17.723  29.441  11.611
93038W        W52332   1.305  20.724   3.234
93039W        W52333  39.517  26.031   1.909
93040W        W52334   0.380  39.898   1.405
93041W        W52335  26.544  44.441  14.287
93042W        W52336  10.336  21.616  14.883
93043W        W52337  17.115  40.459   0.727
93044W        W52338   2.345   5.247   1.888
93045W        W52339   3.883  35.873   2.820
93046W        W52340  19.555   3.358  10.963
93047W        W52341  36.409  28.064  12.580
93048W        W52342  33.007   2.867  10.571
93049W        W52343   6.266   7.346  10.504
93050W        W52344   6.734  43.458  11.378
93051W        W52345  24.157  33.381   5.251
93052W        W52346   6.427  35.597   1.421
93053W        W52347  40.467  33.570   3.227
93054W        W52348  43.997  11.664  11.906
93055W        W52349  32.582  30.058  11.541
93056W        W52350  35.589   3.319  13.004
93057W        W52351   2.856  12.827  10.474
93058W        W52352  30.993  36.091   4.348
93059W        W52353  43.484  15.665  14.010
93060W        W52354  44.869   5.257  12.071
93061W        W52355  30.452   0.767  11.104
93062W        W52356  30.159  13.165   0.376
93063W        W52357  23.094  27.573   4.714
93064W        W52358  41.993  21.114   4.266
93065W        W52359  44.826  28.499  12.352
93066W        W52360  42.325  13.303  11.886
93067W        W52361  19.762  39.990  12.095
93068W        W52362  43.845   1.964  11.932
93069W        W52363  29.585  35.438   0.925
93070W        W52364  18.721  37.478  13.982
93071W        W52365  12.733   6.689  14.391
93072W        W52366  10.762   7.762  10.625
93073W        W52367  32.034  29.043  10.583
93074W        W52368  33.412   6.836  12.078
93075W        W52369  23.501   1.953   0.260
93076W        W52370  38.043  11.643   3.382
93077W        W52371  32.103  29.946   0.788
93078W        W52372  35.360  10.780  14.401
93079W        W52373   6.386  10.202  14.309
93080W        W52374  44.285   8.799  13.016
93081W        W52375  15.326  13.304   1.310
93082W        W52376  15.159  24.041  10.937
93083W        W52377  27.621  18.192   2.190
93084W        W52378  16.117  17.286   5.310
93085W        W52379  27.584  13.165  13.875
93086W        W52380   8.208  27.514   4.231
93087W        W52381  32.112  24.634   1.385
93088W        W52382   6.318  34.002   0.923
93089W        W52383  36.962  39.999  12.567
93090W        W52384  23.123  13.743   1.762
93091W        W52385   9.367  38.898   1.710
93092W        W52386  34.379  21.149   4.834
93093W        W52387   1.312  14.706  11.597
93094W        W52388  22.550  11.314  12.828
93095W        W52389  16.167  31.998   3.854
93096W        W52390  33.938   7.868  12.346
93097W        W52391   5.383  31.643   3.721
93098W        W52392  26.197  25.713   3.683
93099W        W52393   4.447  40.522  13.310
93100W        W52394  23.097  25.187  13.810
93101W        W52395  19.233  41.871  14.395
93102W        W52396  29.438  40.888   3.687
93103W        W52397  20.055  18.621  12.446
93104W        W52398  14.617   9.197  12.094
93105W        W52399  44.852  25.028  12.404
93106W        W52400  43.273  30.032  10.454
93107W        W52401  28.979  15.816   0.870
93108W        W52402  32.576  15.092   0.963
93109W        W52403   4.274  43.294   1.851
93110W        W52404  20.104  26.027  12.436
93111W        W52405  10.272  40.456   5.169
93112W        W52406   5.319  26.667  14.461
93113W        W52407  20.244  32.070   5.136
93114W        W52408  29.489  18.156   4.807
93115W        W52409  36.896  21.748  14.004
93116W        W52410  37.916  21.202  12.866
93117W        W52411   4.294  16.161  13.370
93118W        W52412  17.143  12.823  11.509
93119W        W52413  14.726  34.074   3.340
93120W        W52414  17.221  35.513   2.882
93121W        W52415  28.944  21.030  11.392
93122W        W52416  18.104   2.768   1.452
93123W        W52417   2.384  25.157   0.285
93124W        W52418  30.559   1.862   3.871
93125W        W52419  16.691  19.046   9.457
93126W        W52420  35.598  40.995   0.330
93127W        W52421  21.032  13.144   5.099
93128W        W52422  35.428   4.822   3.769
93129W        W52423   6.330  32.985   1.405
93130W        W52424  21.065  27.456   3.260
93131W        W52425  14.829  33.382  11.085
93132W        W52426  25.092  40.006   4.648
93133W        W52427  27.593   5.706  13.943
93134W        W52428  30.630  37.418  13.916
93135W        W52429  24.641  42.853  13.940
93136W        W52430  37.888  23.162   1.841
93137W        W52431   6.787   2.393  14.385
93138W        W52432  30.429  13.305   1.818
93139W        W52433   8.274   5.264   3.792
93140W        W52434  43.846  21.152  14.020
93141W        W52435  38.538  21.132  11.611
93142W        W52436  24.532   8.223   1.842
93143W        W52437  43.895  29.923  14.458
93144W        W52438  31.516  28.525   2.819
93145W        W52439  37.396   2.356   2.672
93146W        W52440   6.387  19.253  12.546
93147W        W52441   6.245  38.897   4.354
93148W        W52442  22.617  18.074  14.319
93149W        W52443   4.706  28.571   0.292
93150W        W52444  21.163  38.891  10.052
93151W        W52445  38.058  15.824  14.982
93152W        W52446  24.196   7.244  11.960
93153W        W52447  36.591  29.101  12.882
93154W        W52448  10.759  10.364   3.856
93155W        W52449  12.156  41.453   3.704
93156W        W52450   1.327  24.118   2.379
93157W        W52451  12.783  41.804  14.012
93158W        W52452  20.194  40.832  13.411
93159W        W52453  10.284  34.604  14.462
93160W        W52454  36.520  12.350   5.184
93161W        W52455  31.905  32.113   1.280
93162W        W52456   5.918  18.741   2.704
93163W        W52457  11.800  11.857  12.380
93164W        W52458   0.903  25.114   1.867
93165W        W52459   4.790  33.502  12.826
93166W        W52460  33.924   0.909  10.441
93167W        W52461  38.866  10.784   0.474
93168W        W52462   5.711  28.990  12.015
93169W        W52463   7.711  32.595   1.303
93170W        W52464  36.550  13.125  11.509
93171W        W52465  12.708  35.492  14.815
93172W        W52466  15.092  22.999  13.792
93173W        W52467  15.330  36.005   0.962
93174W        W52468  28.929  15.256   3.254
93175W        W52469   3.302  12.654  11.072
93176W        W52470  15.602  41.362   1.785
93177W        W52471  19.555  17.726  13.330
93178W        W52472  10.226   8.388   1.235
93179W        W52473  19.566   7.272  13.815
93180W        W52474  35.555  29.138   1.376
93181W        W52475  25.131  34.012   0.726
93182W        W52476  12.641  14.716   3.824
93183W        W52477  41.374  10.284  13.836
93184W        W52478  16.177   6.242   2.222
93185W        W52479   7.299  20.186  14.971
93186W        W52480  44.779  13.832   4.222
93187W        W52481   3.866  41.293   0.853
93188W        W52482   9.754   2.234  13.503
93189W        W52483  35.587  10.377   9.612
93190W        W52484   2.396   6.722  11.536
93191W        W52485  15.636  24.217   2.329
93192W        W52486  43.388  24.994  12.437
93193W        W52487  33.554  43.341  12.410
93194W        W52488   2.800  39.333  13.459
93195W        W52489  39.437  15.629   1.395
93196W        W52490  31.146  40.045  11.926
93197W        W52491  35.889  19.117   2.317
93198W        W52492  20.622  37.990  11.594
93199W        W52493  43.834  16.144   1.331
93200W        W52494  23.627  25.647  14.313
93201W        W52495  29.115  26.086  12.962
93202W        W52496  13.779  44.395   3.381
93203W        W52497  27.496   4.249  11.391
93204W        W52498  19.590   9.391   2.838
93205W        W52499  15.117  21.748   0.268
93206W        W52500  10.738  38.888  12.827
93207W        W52501  13.242  38.531  13.943
93208W        W52502   5.692  28.520   2.381
93209W        W52503  31.544  38.042   4.301
93210W        W52504  42.003  37.856   4.800
93211W        W52505  13.196  13.702   1.375
93212W        W52506  41.884  33.086  12.978
93213W        W52507  32.049  32.620  10.425
93214W        W52508   5.796  24.674   1.753
93215W        W52509   0.430  13.653  10.631
93216W        W52510  29.986  35.445  10.612
93217W        W52511   7.315   6.765   1.913
93218W        W52512  26.095  15.286  12.402
93219W        W52513  16.754  30.453  12.052
93220W        W52514  22.726  41.462  11.478
93221W        W52515   7.387   3.886   2.788
93222W        W52516  30.124   3.279  11.581
93223W        W52517  21.130   4.369   1.225
93224W        W52518  24.069  44.418   0.925
93225W        W52519   0.326  30.441   4.618
93226W        W52520  31.563   1.767  11.053
93227W        W52521  37.878  18.191   2.835
93228W        W52522   0.968  43.993  10.908
93229W        W52523  39.404  44.849  13.314
93230W        W52524  43.273  43.337  12.838
93231W        W52525  40.533   8.756  11.043
93232W        W52526  23.536  28.953   3.246
93233W        W52527  32.088   2.763  10.437
93234W        W52528  14.605  20.531  14.448
93235W        W52529  23.031  43.346   2.388
93236W        W52530   2.773  26.513   0.746
93237W        W52531  37.402  19.572   2.363
93238W        W52532  38.010   7.783  11.083
93239W        W52533  11.280  36.977   2.847
93240W        W52534  42.295  33.526  12.451
93241W        W52535  27.561  34.988  11.394
93242W        W52536  14.304   6.876  11.456
93243W        W52537  17.703  24.691   4.806
93244W        W52538  38.933  16.235  12.509
93245W        W52539  41.988  32.592  10.553
93246W        W52540   5.749  30.948  13.064
93247W        W52541  34.470  38.820   1.233
93248W        W52542   8.278  20.165   5.627
93249W        W52543  34.551  44.325  12.837
93250W        W52544   1.337  35.505   2.340
93251W        W52545  20.233  12.631  12.945
93252W        W52546  33.970   5.720   2.678
93253W        W52547  27.152  23.139  11.114
93254W        W52548   7.875   1.836   1.761
93255W        W52549  41.906  18.287  11.527
93256W        W52550  39.843  44.859  11.968
93257W        W52551   3.312  22.083  14.005
93258W        W52552  31.410  38.947  14.885
93259W        W52553  24.656  23.179  11.488
93260W        W52554  38.052  31.582  11.984
93261W        W52555  25.012  30.962   1.830
93262W        W52556   2.963  41.354   4.741
93263W        W52557  17.597  14.224  11.976
93264W        W52558   0.863  14.303   5.169
93265W        W52559  43.873  11.818   1.924
93266W        W52560  13.174  10.239  11.085
93267W        W52561  31.018  41.907   1.219
93268W        W52562   1.361   0.942  14.304
93269W        W52563  40.966   6.289  13.373
93270W        W52564  19.223  14.108   3.305
93271W        W52565  42.377  43.969  12.887
93272W        W52566  13.240  18.066   2.684
93273W        W52567  10.318  29.044  13.885
93274W        W52568  11.373  30.023  12.353
93275W        W52569  25.474   1.263  11.038
93276W        W52570  18.214  41.809  12.341
93277W        W52571  33.510  41.909   2.191
93278W        W52572  38.052  35.549   1.755
93279W        W52573   6.375  37.450   4.756
93280W        W52574  33.101  22.033  13.048
93281W        W52575  22.524  28.675   2.824
93282W        W52576   6.408  24.632   2.384
93283W        W52577  41.980  29.954  11.403
93284W        W52578  43.987  32.524   1.870
93285W        W52579  28.978  13.235  14.025
93286W        W52580  30.561  32.506   2.330
93287W        W52581   9.885  36.963   2.282
93288W        W52582  21.682  42.445  10.635
93289W        W52583  11.750  32.920   0.395
93290W        W52584  27.099   0.922  12.866
93291W        W52585  44.372  18.555   4.113
93292W        W52586  24.608  34.028  13.895
93293W        W52587   3.743  31.541   1.774
93294W        W52588  34.937   2.769   4.181
93295W        W52589  39.925  21.649  13.918
93296W        W52590  17.596  27.986  14.329
93297W        W52591  31.601   9.288   3.790
93298W        W52592  19.626  36.973   3.181
93299W        W52593  43.795  41.825  10.934
93300W        W52594  11.825  35.464  11.052
93301W        W52595   5.899  34.935  12.427
93302W        W52596  36.089  24.556  14.770
93303W        W52597   3.243   7.304   2.861
93304W        W52598  19.144  23.728   0.249
93305W        W52599  22.101  35.005  14.791
93306W        W52600  36.969  19.646   1.388
93307W        W52601   8.677   1.331  14.015
93308W        W52602  21.625  26.972   3.846
93309W        W52603  39.930  23.653  10.437
93310W        W52604  12.170   3.451  14.451
93311W        W52605  28.603  27.515   3.266
93312W        W52606  42.002  10.220   4.715
93313W        W52607  16.723  19.613   2.791
93314W        W52608  30.657  36.066  12.541
93315W        W52609   8.675   7.835   0.770
93316W        W52610  36.916   8.173   0.847
93317W        W52611  11.786  16.603  13.475
93318W        W52612  34.043  41.953  12.444
93319W        W52613  28.629  37.572   3.858
93320W        W52614  14.113  41.464  12.502
93321W        W52615  38.559  21.131  11.020
93322W        W52616   3.773  32.525   1.788
93323W        W52617   0.982  38.842   0.434
93324W        W52618   0.416   8.808  14.891
93325W        W52619  35.539  27.678  12.501
93326W        W52620   6.912  21.023   3.158
93327W        W52621   9.714  30.976   3.323
93328W        W52622   7.854  20.616  14.282
93329W        W52623  43.485  16.612   1.279
93330W        W52624  44.801  23.056  10.912
93331W        W52625  41.015  28.442   1.301
93332W        W52626   4.929  11.643  10.549
93333W        W52627  32.898   8.201   9.670
93334W        W52628  43.494   0.881  13.329
93335W        W52629  27.679  31.912  12.426
93336W        W52630   7.879   5.906   1.374
93337W        W52631   8.328  26.610   4.768
93338W        W52632  11.754   6.289  13.442
93339W        W52633   0.372  20.678  11.585
93340W        W52634  26.649   4.915  14.828
93341W        W52635  18.645  25.654  13.007
93342W        W52636  31.501  29.487   2.698
93343W        W52637  23.187  18.555   0.925
93344W        W52638  10.874  18.082  11.589
93345W        W52639  23.693  24.174  14.960
93346W        W52640  40.347  38.392  12.076
93347W        W52641   3.328  11.752  11.501
93348W        W52642  21.089   7.361   3.637
93349W        W52643  44.920  13.262   2.886
93350W        W52644  22.149  23.024   2.888
93351W        W52645  22.246  23.601   4.337
93352W        W52646  44.002  36.047  11.972
93353W        W52647  20.682  38.485  12.887
93354W        W52648   8.310   3.944   3.732
93355W        W52649  41.471   8.701  14.957
93356W        W52650   5.340  31.583   3.184
93357W        W52651  24.141  11.845   4.345
93358W        W52652   7.300   6.860  11.499
93359W        W52653  24.084  43.486  14.405
93360W        W52654  30.111  28.521  12.982
93361W        W52655  21.556  14.779  10.496
93362W        W52656  30.153  42.485  11.991
93363W        W52657  28.562  10.812   1.374
93364W        W52658  39.054  13.237  10.967
93365W        W52659   3.271   8.178  11.424
93366W        W52660   5.361  27.687  10.526
93367W        W52661  43.331  22.192   0.942
93368W        W52662   7.408  10.324   3.254
93369W        W52663   5.237  26.156   3.154
93370W        W52664  13.663  43.895   1.448
93371W        W52665  20.135   9.350   2.391
93372W        W52666  32.005   1.318  13.440
93373W        W52667  19.229  21.262  10.421
93374W        W52668  18.617  38.534  14.355
93375W        W52669  22.150  31.608   2.351
93376W        W52670  10.878  36.551   0.308
93377W        W52671  11.285  40.989  13.010
93378W        W52672  14.784  36.500  14.994
93379W        W52673  40.837  24.667  10.903
93380W        W52674  44.401  10.374   4.676
93381W        W52675  19.066   1.256   3.360
93382W        W52676   1.475   2.446   2.307
93383W        W52677  39.041  11.146   4.123
93384W        W52678   7.862  34.090  13.377
93385W        W52679  21.543  44.393  13.974
93386W        W52680   7.275   2.433   4.786
93387W        W52681  27.029  16.773   2.747
93388W        W52682   5.337  26.017  11.887
93389W        W52683  32.466  10.263   4.218
93390W        W52684  41.040   0.303   2.820
93391W        W52685  19.236  21.607  13.954
93392W        W52686   4.224   8.249  12.502
93393W        W52687  31.960  15.146   5.252
93394W        W52688   9.205  31.112  13.815
93395W        W52689   2.310  13.221   2.877
93396W        W52690  34.579  44.833  10.566
93397W        W52691  20.196  12.791   4.698
93398W        W52692  44.881   4.331  11.077
93399W        W52693  12.165  43.791   2.386
93400W        W52694  19.226  21.240   0.738
93401W        W52695  23.567  11.176  10.067
93402W        W52696  39.558  11.769   4.834
93403W        W52697   2.760  32.947  13.044
93404W        W52698  12.611  42.836  13.841
93405W        W52699   9.237  39.452   4.331
93406W        W52700  30.637  13.202   0.449
93407W        W52701  24.984  12.312   4.253
93408W        W52702  43.471   4.705   1.406
93409W        W52703  10.219  44.319   4.794
93410W        W52704  22.052  38.868  12.483
93411W        W52705   5.754   8.786   2.850
93412W        W52706   9.792   7.750  11.007
93413W        W52707  44.775  10.694  12.385
93414W        W52708  27.945  32.082  14.512
93415W        W52709  25.980  43.892  14.775
93416W        W52710  14.094  25.984  11.907
93417W        W52711  19.637   1.834  11.948
93418W        W52712   4.342  40.014  12.343
93419W        W52713  21.637  28.046  12.900
93420W        W52714  30.123  17.658  14.285
93421W        W52715  36.570  15.310   4.127
93422W        W52716  31.134  43.515  12.090
93423W        W52717   5.326  31.106   2.410
93424W        W52718  33.559   6.891  13.327
93425W        W52719  23.547  33.459  11.064
93426W        W52720  31.051  31.114   4.776
93427W        W52721   4.859  10.166   5.227
93428W        W52722   5.429  23.072  14.277
93429W        W52723  23.992   9.730   3.777
93430W        W52724  17.603  23.623   2.198
93431W        W52725  31.603  32.055   2.883
93432W        W52726  16.708  39.034   3.267
93433W        W52727  15.712  21.578   0.832
93434W        W52728  23.728  43.889  13.338
93435W        W52729  32.587  41.833   0.965
93436W        W52730  33.507   6.735   1.300
93437W        W52731  31.911   2.256   3.349
93438W        W52732   5.205  42.359  10.632
93439W        W52733  13.244  10.785  13.009
93440W        W52734   4.843  35.071   0.861
93441W        W52735  11.806   5.828   2.368
93442W        W52736  29.515   6.344   5.187
93443W        W52737  43.850  41.346   3.856
93444W        W52738   6.918  33.072   2.417
93445W        W52739  34.871  28.545  14.332
93446W        W52740  39.975  15.672   3.634
93447W        W52741  25.045  17.100   1.716
93448W        W52742  24.005  19.276   1.446
93449W        W52743  26.473  23.230  12.575
93450W        W52744   9.266  27.957   1.302
93451W        W52745  18.762  38.457  12.346
93452W        W52746  19.720   3.780   2.348
93453W        W52747  38.849  16.138   4.817
93454W        W52748  11.647  18.252   0.287
93455W        W52749  38.373   6.402   4.260
93456W        W52750   3.333  42.868   2.782
93457W        W52751  34.551  14.252  10.457
93458W        W52752  22.076   9.369  14.940
93459W        W52753  19.262  32.970  14.792
93460W        W52754  31.623  41.295  11.610
93461W        W52755   1.365  13.278  11.479
93462W        W52756  12.736  32.024   0.944
93463W        W52757  28.039   3.723   4.618
93464W        W52758  20.594  16.571  12.393
93465W        W52759  11.737   9.747  12.881
93466W        W52760  25.676  31.135  10.888
93467W        W52761  19.284   6.228  13.925
93468W        W52762  28.064  17.662  11.566
93469W        W52763  16.749  42.018  12.525
93470W        W52764   9.242  12.731   3.305
93471W        W52765  25.676   7.193   3.795
93472W        W52766  44.939  36.591  12.932
93473W        W52767  24.007  18.197   4.132
93474W        W52768  44.815  41.904   4.264
93475W        W52769  31.474   5.322   2.309
93476W        W52770  18.573  23.148   2.265
93477W        W52771  40.027  23.137  11.508
93478W        W52772   3.921  22.666   3.384
93479W        W52773  14.636  35.947  14.430
93480W        W52774  39.042  21.247   0.764
93481W        W52775  28.994  11.796   3.692
93482W        W52776  32.059   9.773   4.634
93483W        W52777  31.074  33.912  10.515
93484W        W52778  18.574  13.684  10.465
93485W        W52779   8.765  38.560  11.537
93486W        W52780  36.593  12.803  12.339
93487W        W52781  43.825  29.058  13.438
93488W        W52782   6.399  15.111  11.601
93489W        W52783   1.283  40.969   2.870
93490W        W52784  33.951  43.494  10.442
93491W        W52785  44.409  20.723  10.903
93492W        W52786  15.577  15.643   3.307
93493W        W52787  11.260  34.439   1.747
93494W        W52788  24.136  22.066  13.341
93495W        W52789   5.307  17.735   1.899
93496W        W52790  16.103  13.302   1.216
93497W        W52791  37.863   0.892   4.621
93498W        W52792  31.905   2.765  13.523
93499W        W52793  19.605  44.836  11.895
93500W        W52794  39.545  17.204   2.719
93501W        W52795  33.122  14.736   2.414
93502W        W52796  13.787   8.863  12.919
93503W        W52797   3.719   0.462   2.737
93504W        W52798   2.311  20.694   1.304
93505W        W52799  21.665  38.352  13.917
93506W        W52800  33.495  26.477   1.410
93507W        W52801  30.568  38.990  11.044
93508W        W52802  26.643   6.725   2.345
93509W        W52803  38.928  29.973   3.818
93510W        W52804  26.502  11.345  12.344
93511W        W52805  20.094  25.693  12.921
93512W        W52806   8.865  24.212  11.429
93513W        W52807  34.012  20.112  11.493
93514W        W52808  34.477   0.965   2.347
93515W        W52809  12.243   9.666   4.268
93516W        W52810  32.579  43.439  13.853
93517W        W52811   1.253  25.564  11.472
93518W        W52812  37.393  29.487  12.895
93519W        W52813  24.091   8.886   4.710
93520W        W52814  26.092  13.651  11.936
93521W        W52815  18.253  26.169   0.798
93522W        W52816  22.141  13.153   1.389
93523W        W52817   8.722  41.955  11.993
93524W        W52818  33.924  29.029   2.811
93525W        W52819  13.634  36.551  13.493
93526W        W52820  39.425  11.329   1.230
93527W        W52821  40.457  13.319  12.008
93528W        W52822  40.815  33.514   3.381
93529W        W52823   3.950  15.209  13.042
93530W        W52824  22.728  39.376   3.167
93531W        W52825  33.875  12.817   4.790
93532W        W52826  30.511  11.629   1.364
93533W        W52827  19.545  43.983  13.828
93534W        W52828  12.797  25.162   3.806
93535W        W52829  20.523   9.874   3.673
93536W        W52830  30.017   3.388   1.212
93537W        W52831  38.337  26.155  12.457
93538W        W52832   5.916  29.562   0.419
93539W        W52833  41.926  29.476   0.418
93540W        W52834  23.165  34.607  11.435
93541W        W52835  15.712  17.298  12.484
93542W        W52836  28.448  20.042  14.886
93543W        W52837  11.717  19.636   1.922
93544W        W52838  42.973  21.681   3.660
93545W        W52839  22.218  25.051  12.383
93546W        W52840  40.531   0.953  14.032
93547W        W52841  23.072  31.629   4.683
93548W        W52842  18.598  14.174   3.771
93549W        W52843   6.192   2.230  14.512
93550W        W52844  16.629  36.904  11.592
93551W        W52845  42.521  23.636  14.357
93552W        W52846  30.603  34.594  13.914
93553W        W52847  37.050  23.515   0.808
93554W        W52848  17.620  41.941  11.087
93555W        W52849  23.689  13.133  12.091
93556W        W52850  24.079  17.225  14.813
93557W        W52851  26.208  42.989   1.256
93558W        W52852  21.025  37.021   2.204
93559W        W52853  34.441   0.957  10.958
93560W        W52854  24.635   7.413   3.275
93561W        W52855  41.327  32.903   2.364
93562W        W52856   7.228  31.927   2.783
93563W        W52857  23.513  17.744   4.138
93564W        W52858  39.879  28.597  10.602
93565W        W52859  19.622  31.131  14.967
93566W        W52860   7.783   9.768   0.477
93567W        W52861  34.600  26.616  10.492
93568W        W52862  21.222  23.093   3.236
93569W        W52863  12.748  23.628  13.875
93570W        W52864   3.384  31.104  11.469
93571W        W52865  37.551  40.532  11.396
93572W        W52866  40.912  18.080   1.412
93573W        W52867   0.753  27.134  12.932
93574W        W52868  39.479  31.513  14.410
93575W        W52869  38.379  22.707  12.959
93576W        W52870  44.307  35.495   0.446
93577W        W52871  39.023  43.512   1.258
93578W        W52872  38.947   4.259  10.986
93579W        W52873  21.026   7.384   4.803
93580W        W52874  34.109  26.668  14.943
93581W        W52875  42.982   3.438   4.256
93582W        W52876   6.246  43.964   1.878
93583W        W52877  19.729   0.361   4.612
93584W        W52878  11.753   1.935  12.503
93585W        W52879  13.327  11.638   0.872
93586W        W52880   6.706  13.757  14.512
93587W        W52881  32.522   2.287  14.917
93588W        W52882  10.177  17.109  13.794
93589W        W52883  15.728  12.327   4.603
93590W        W52884  23.620  29.140  14.443
93591W        W52885  34.050  42.032  14.843
93592W        W52886  14.315   4.731   3.698
93593W        W52887   7.325  31.513   5.600
93594W        W52888  22.221   1.390   4.631
93595W        W52889  12.740   1.973  12.479
93596W        W52890  34.028  42.797   0.441
93597W        W52891  39.045  42.293  14.428
93598W        W52892   3.411   8.834   4.260
93599W        W52893  10.361  17.704  13.809
93600W        W52894  22.687  30.619  10.465
93601W        W52895  32.060  29.018   2.678
93602W        W52896  11.847  27.644   3.763
93603W        W52897  27.504   8.795   4.272
93604W        W52898  14.282  22.995   3.326
93605W        W52899  12.828  28.538   3.319
93606W        W52900   2.329  17.078  13.388
93607W        W52901  14.183   1.784  12.422
93608W        W52902  25.023  44.003   3.855
93609W        W52903  43.341  13.351   0.255
93610W        W52904   6.232  39.325   1.246
93611W        W52905   4.712  35.450  13.031
93612W        W52906  38.852  13.716   1.769
93613W        W52907  12.144  16.105   4.652
93614W        W52908  32.019   6.781  14.820
93615W        W52909  28.092   8.887   1.929
93616W        W52910  11.191  26.622  11.394
93617W        W52911   1.295  35.525  10.971
93618W        W52912  32.140   4.870  11.586
93619W        W52913  29.058  28.475   1.247
93620W        W52914  23.584  30.634  11.400
93621W        W52915  21.618  16.219   4.298
93622W        W52916  11.761  38.955   9.979
93623W        W52917  20.108  26.989  10.585
93624W        W52918  16.630   4.769   3.756
93625W        W52919  21.105  12.792   3.869
93626W        W52920  34.398  21.637  14.951
93627W        W52921  36.075  10.207   4.116
93628W        W52922  15.661  32.101  13.961
93629W        W52923   1.346   1.861  13.996
93630W        W52924  17.224  14.231   3.869
93631W        W52925  19.617  41.934  11.568
93632W        W52926  37.507   9.335  14.387
93633W        W52927  11.781  22.526   2.301
93634W        W52928  23.503  39.472  14.906
93635W        W52929  22.713  13.688   0.860
93636W        W52930  28.668   6.425   4.138
93637W        W52931  12.357  16.286   3.671
93638W        W52932   4.370  29.109  13.409
93639W        W52933  25.989   0.470  13.931
93640W        W52934  44.445  33.995   0.860
93641W        W52935  27.666  34.393  11.488
93642W        W52936  34.925  22.711   1.279
93643W        W52937  10.351   5.892  14.421
93644W        W52938   4.928  28.571   1.299
93645W        W52939  28.062  35.603  10.945
93646W        W52940  38.011  40.541   1.697
93647W        W52941  27.575  31.544  11.448
93648W        W52942   0.486  27.096  14.355
93649W        W52943  29.468   9.715   4.164
93650W        W52944  32.036  17.767  13.050
93651W        W52945   8.206   3.355  13.491
93652W        W52946  22.101  25.629  14.929
93653W        W52947  25.650  32.055   9.923
93654W        W52948  20.169  34.991  13.502
93655W        W52949   9.254  13.657  10.598
93656W        W52950   7.194   6.699   2.409
93657W        W52951  26.625  34.053   2.198
93658W        W52952  19.254   4.351   4.628
93659W        W52953  15.729   7.217   3.348
93660W        W52954  31.569  21.698   4.766
93661W        W52955  29.668  32.002  11.865
93662W        W52956  27.161  30.969  13.917
93663W        W52957  41.370  19.760   4.726
93664W        W52958  42.293  11.642   4.733
93665W        W52959  23.669   8.235  14.276
93666W        W52960  40.361  39.393  13.435
93667W        W52961  33.950   9.207   0.380
93668W        W52962  21.078  13.345   0.408
93669W        W52963  18.633  32.910  14.438
93670W        W52964   7.716  22.532   1.400
93671W        W52965  38.425   8.401  11.904
93672W        W52966  20.655  44.959   0.371
93673W        W52967  37.870  16.193  10.479
93674W        W52968  31.109  17.640  11.031
93675W        W52969   5.338  22.156   2.798
93676W        W52970  10.698   1.355   3.186
93677W        W52971  23.003   2.958   3.315
93678W        W52972  29.938  22.222  10.919
93679W        W52973  35.981  11.253  13.954
93680W        W52974  16.612   4.284  12.859
93681W        W52975  41.345  20.059  13.540
93682W        W52976   7.874   0.437  12.929
93683W        W52977  14.225   3.944  13.894
93684W        W52978   3.779  36.962  12.475
93685W        W52979  14.125  16.164  10.536
93686W        W52980  23.011  44.786  12.434
93687W        W52981  30.594  29.480   3.192
93688W        W52982  43.360   5.794   0.821
93689W        W52983  15.694  37.080  10.019
93690W        W52984  28.478  26.653  11.597
93691W        W52985  22.194   0.779  12.470
93692W        W52986  41.861   3.807  13.415
93693W        W52987   2.268  36.545  13.909
93694W        W52988  22.518   8.844   2.256
93695W        W52989  26.105  32.114   5.132
93696W        W52990  37.014   4.206   2.836
93697W        W52991  40.037  24.199  13.455
93698W        W52992  23.574  43.415   0.280
93699W        W52993  21.097  28.965  14.512
93700W        W52994   3.775  12.351  10.980
93701W        W52995   9.828  43.384   1.775
93702W        W52996  27.044  30.543  11.432
93703W        W52997  18.639  44.766   4.783
93704W        W52998  12.675  14.826  12.860
93705W        W52999  15.609  41.038  13.906
93706W        W53000  28.518  28.121  12.388
93707W        W53001  13.708   0.352  12.845
93708W        W53002  15.615  33.089  11.379
93709W        W53003  30.016  27.958  11.563
93710W        W53004  19.050  24.487  11.073
93711W        W53005  16.204  41.294  14.507
93712W        W53006   8.370  41.012  11.013
93713W        W53007  29.510  29.130  12.404
93714W        W53008  27.488  22.035  11.430
93715W        W53009   9.232  26.466   4.735
93716W        W53010  12.324  40.518  10.512
93717W        W53011  29.059  40.340  10.614
93718W        W53012  43.767  11.678  14.436
93719W        W53013  16.666  34.896   2.791
93720W        W53014   6.807  31.094   3.691
93721W        W53015  22.552  42.914  10.927
93722W        W53016  26.984  41.027   1.282
93723W        W53017  19.602  35.938   4.350
93724W        W53018  41.485  25.647  14.003
93725W        W53019  14.322  44.267  13.353
93726W        W53020   2.890  15.747  14.320
93727W        W53021  38.856  14.261   2.210
93728W        W53022  38.846  20.738   4.272
93729W        W53023  24.207   2.404  12.502
93730W        W53024  41.466  42.851  10.587
93731W        W53025  16.192  44.367   4.686
93732W        W53026  36.968  12.246  14.397
93733W        W53027  32.000  38.367   3.853
93734W        W53028  29.106  37.976   5.693
93735W        W53029  13.181   2.878  13.059
93736W        W53030  24.560  35.369   1.877
93737W        W53031  31.585  23.683   3.181
93738W        W53032  44.380  36.044   3.704
93739W        W53033  24.099  11.684   4.722
93740W        W53034  39.905  44.757  10.422
93741W        W53035  19.564  37.911  13.853
93742W        W53036  13.647   6.388  11.983
93743W        W53037  10.818  30.931  14.013
93744W        W53038  34.377   5.730  12.461
93745W        W53039  13.785   4.861   3.290
93746W        W53040  31.152   4.268  13.389
93747W        W53041  23.494  12.342   1.733
93748W        W53042  23.574  29.041  14.821
93749W        W53043  14.133   3.800  12.946
93750W        W53044  13.195   2.281  14.387
93751W        W53045   8.392  28.450   3.760
93752W        W53046  44.360   6.227   1.746
93753W        W53047  15.274  27.999   1.424
93754W        W53048  18.142  38.954   2.279
93755W        W53049  29.947   8.835  12.049
93756W        W53050  10.313   8.206  14.351
93757W        W53051  13.604  11.671   0.918
93758W        W53052  39.508  34.440  14.290
93759W        W53053   5.271  36.514   1.911
93760W        W53054  40.937  13.785   4.349
93761W        W53055  39.926  42.778  12.578
93762W        W53056  31.986  25.481  12.828
93763W        W53057  19.159  26.110  13.888
93764W        W53058  39.053  14.596   0.917
93765W        W53059  10.836  29.058   2.895
93766W        W53060  15.161   3.230   0.474
93767W        W53061  13.343  11.772  14.295
93768W        W53062  21.100  25.560   4.276
93769W        W53063   9.719  35.457   4.336
93770W        W53064  31.453  44.414  14.778
93771W        W53065  27.963  21.754   0.891
93772W        W53066   1.360  18.122  12.980
93773W        W53067  14.719  15.673   3.352
93774W        W53068   7.309  40.005   4.660
93775W        W53069  34.878  27.183   3.861
93776W        W53070   0.979  42.914   0.940
93777W        W53071   2.330  19.096  14.383
93778W        W53072  26.203  22.147  13.897
93779W        W53073  33.945  14.098  10.605
93780W        W53074   5.319  24.214  13.473
93781W        W53075  11.276  19.538   0.744
93782W        W53076  10.698   6.401  11.032
93783W        W53077  17.582  37.881   2.791
93784W        W53078  12.179  33.592   4.673
93785W        W53079  44.884  36.926  12.056
93786W        W53080  21.531   9.867   0.882
93787W        W53081   9.326  38.563  13.348
93788W        W53082  10.719  37.899   1.413
93789W        W53083  33.507  21.111  14.020
93790W        W53084  26.512  22.625  14.023
93791W        W53085   3.772  18.695   1.767
93792W        W53086   6.684  42.395   3.359
93793W        W53087  22.511  42.472  13.436
93794W        W53088  26.639  16.577   0.935
93795W        W53089  10.379  29.457  14.515
93796W        W53090  16.163  33.884   0.278
93797W        W53091  18.767  24.651   1.715
93798W        W53092  33.981  27.526   2.405
93799W        W53093  32.941  33.570  10.501
93800W        W53094  31.041  34.529  13.322
93801W        W53095  27.515  36.353  12.095
93802W        W53096  40.377  25.062   2.714
93803W        W53097   6.281  17.086  11.462
93804W        W53098  12.287  17.617   4.653
93805W        W53099  10.743   6.850   0.891
93806W        W53100  11.253  17.225  12.979
93807W        W53101   0.390  44.914   0.855
93808W        W53102  41.495  22.649   2.415
93809W        W53103  10.671  15.194  10.543
93810W        W53104  26.988   7.406  11.094
93811W        W53105  19.634   0.885  14.404
93812W        W53106  37.527   4.383   4.347
93813W        W53107  42.335   1.780   3.157
93814W        W53108  20.032  42.479   4.681
93815W        W53109  27.963   5.200  13.999
93816W        W53110  33.607  26.128   1.389
93817W        W53111  21.202  14.227  10.626
93818W        W53112  34.410  34.033  10.618
93819W        W53113  28.943   7.376   4.278
93820W        W53114  17.295  40.530  12.436
93821W        W53115   9.261  16.164   2.218
93822W        W53116  22.710  42.502   1.722
93823W        W53117  36.007   4.845   5.202
93824W        W53118  44.775   1.318  11.993
93825W        W53119  43.906  20.078  10.410
93826W        W53120  16.082  36.519   1.905
93827W        W53121  16.592  41.941  12.049
93828W        W53122   1.938   3.785  11.026
93829W        W53123  41.402  11.630  12.873
93830W        W53124   6.421  26.703  11.068
93831W        W53125  22.026  30.546   1.410
93832W        W53126  40.994  18.639   4.138
93833W        W53127  23.605  42.315  11.097
93834W        W53128  29.529  31.914  14.850
93835W        W53129  18.273  16.572  13.012
93836W        W53130   8.690   6.749   1.443
93837W        W53131  26.569  25.136   2.325
93838W        W53132   6.248  38.545  14.937
93839W        W53133  44.839  16.081  10.641
93840W        W53134  25.053  43.935   3.249
93841W        W53135  30.043  24.541   2.255
93842W        W53136  10.142   8.270  12.365
93843W        W53137   0.484   4.900   1.727
93844W        W53138  28.452  41.413  12.913
93845W        W53139   2.386  13.709  11.531
93846W        W53140  42.369  40.004   2.790
93847W        W53141   1.910  25.173  12.839
93848W        W53142   2.441  43.510   4.745
93849W        W53143   8.770  42.991   3.823
93850W        W53144  21.685  39.818  12.992
93851W        W53145  24.678  43.993  12.385
93852W        W53146  39.054  21.744  10.126
93853W        W53147  16.216  11.637   0.311
93854W        W53148  23.014   1.908   1.388
93855W        W53149  37.852   9.747   0.455
93856W        W53150  18.674  40.373   9.951
93857W        W53151   8.300  17.249   1.906
93858W        W53152  31.976   4.840   3.248
93859W        W53153   1.796  37.000   3.263
93860W        W53154  35.086   2.930   2.759
93861W        W53155  20.091   1.340  14.417
93862W        W53156   2.325  30.612   4.269
93863W        W53157  38.008   5.207  13.502
93864W        W53158  11.691  44.381   3.676
93865W        W53159   4.755  10.650  13.330
93866W        W53160  25.056   6.346   1.856
93867W        W53161  42.357  30.543   1.727
93868W        W53162  30.086  20.610  11.439
93869W        W53163  20.049  29.072  13.345
93870W        W53164  44.931  35.369   4.658
93871W        W53165   7.885   3.721  13.996
93872W        W53166  38.055  42.010  14.807
93873W        W53167  33.079   7.830  12.063
93874W        W53168  35.908  25.127   2.673
93875W        W53169  10.188  38.989   2.903
93876W        W53170  44.494   4.248  14.461
93877W        W53171   0.373  25.650  12.545
93878W        W53172  25.609  34.377  14.848
93879W        W53173  36.021   2.229  12.474
93880W        W53174  25.485  29.020   3.645
93881W        W53175  29.644  41.839   4.712
93882W        W53176  10.280  21.047   4.139
93883W        W53177  37.874  37.938   1.401
93884W        W53178  28.438  44.357   1.854
93885W        W53179  40.034  16.606   4.689
93886W        W53180  20.078  44.987   4.786
93887W        W53181  17.798  10.374  12.524
93888W        W53182  36.446  17.266  11.462
93889W        W53183  32.128   7.899  10.938
93890W        W53184   6.832   3.366  13.506
93891W        W53185  30.607   0.788   3.831
93892W        W53186  39.330  28.648  13.997
93893W        W53187  10.348  37.061   3.659
93894W        W53188  18.593  39.882   1.787
93895W        W53189   2.428   8.284  13.538
93896W        W53190  44.286  38.868   0.295
93897W        W53191  11.738   4.405   4.275
93898W        W53192  22.138  25.629  14.330
93899W        W53193  31.937  34.536   2.681
93900W        W53194  36.592   5.809  12.884
93901W        W53195  39.992  20.621  10.540
93902W        W53196  44.500   7.911   1.871
93903W        W53197  10.862  10.154   4.656
93904W        W53198   5.731  14.133  14.929
93905W        W53199  13.686   4.291   1.279
93906W        W53200   4.347  16.791   2.710
93907W        W53201  22.062  15.754   0.941
93908W        W53202  38.493  37.057  12.987
93909W        W53203   8.220  24.084   3.675
93910W        W53204  38.016   9.160  10.587
93911W        W53205  35.428  30.485  13.421
93912W        W53206   9.744  23.724  13.876
93913W        W53207   7.328  37.018  13.894
93914W        W53208   4.864  17.234   4.715
93915W        W53209  37.945   2.344   3.373
93916W        W53210  15.762   9.230   2.256
93917W        W53211  40.039  13.325  12.426
93918W        W53212   6.251   0.462   1.306
93919W        W53213   0.266  10.680   0.748
93920W        W53214   9.662  32.917   1.430
93921W        W53215   0.830  37.831   0.479
93922W        W53216  32.936  32.930   4.281
93923W        W53217  44.992  44.469  11.568
93924W        W53218  41.916   2.246   2.389
93925W        W53219  20.060  19.648   1.931
93926W        W53220  39.942  35.979  13.347
93927W        W53221  24.576   0.911   4.120
93928W        W53222  34.468  42.815  12.349
93929W        W53223  21.098   0.320  11.551
93930W        W53224  36.500  28.144  10.968
93931W        W53225  33.468  39.042  12.062
93932W        W53226   8.667  19.542   4.127
93933W        W53227  10.644   5.218  14.427
93934W        W53228  32.088  23.526  14.322
93935W        W53229  32.569  16.608  12.875
93936W        W53230   8.716  10.774  12.499
93937W        W53231  15.299  43.467  14.856
93938W        W53232  29.098  26.490  11.554
93939W        W53233  25.655  17.157   1.782
93940W        W53234  23.085  24.040   1.752
93941W        W53235  38.481  35.927  13.489
93942W        W53236  34.004  18.231   1.761
93943W        W53237   8.709  35.534   3.686
93944W        W53238  10.338  37.488   3.635
93945W        W53239   1.453  22.505   2.770
93946W        W53240  13.673  42.415   3.852
93947W        W53241   7.801  44.831  11.898
93948W        W53242  11.837  20.038  14.386
93949W        W53243  19.726  16.217  11.856
93950W        W53244   5.874  38.821   3.742
93951W        W53245  16.811   9.315  11.434
93952W        W53246   7.680  43.851   4.160
93953W        W53247  44.281  12.807  10.577
93954W        W53248   3.286  43.851   4.264
93955W        W53249  22.136  42.372   2.791
93956W        W53250  20.086  30.528   4.683
93957W        W53251  27.550  10.190  13.450
93958W        W53252  11.142  39.969  11.595
93959W        W53253   2.408  23.164  12.908
93960W        W53254  25.685  27.173  10.952
93961W        W53255  21.079  18.765   0.871
93962W        W53256  31.466  14.693   3.177
93963W        W53257  18.716  38.012  13.357
93964W        W53258   9.364  40.312  13.919
93965W        W53259  21.041  19.761   2.678
93966W        W53260  31.533   3.320   0.363
93967W        W53261  34.926   3.344   9.993
93968W        W53262  22.733   0.295  10.902
93969W        W53263  40.804  13.302   0.258
93970W        W53264  19.729   9.251   3.365
93971W        W53265   9.663   1.372   2.826
93972W        W53266  16.097   2.851   0.402
93973W        W53267  19.613  29.655  11.524
93974W        W53268   8.865   2.379   0.744
93975W        W53269  18.135  44.837   2.770
93976W        W53270  20.266  30.611   3.803
93977W        W53271  27.105  30.090   3.681
93978W        W53272   0.757  26.559  12.346
93979W        W53273  17.221  27.072  13.339
93980W        W53274  44.972   1.316   3.653
93981W        W53275  13.644  27.072   0.284
93982W        W53276   1.474   5.874  12.055
93983W        W53277  31.996  36.090   9.976
93984W        W53278  16.647  19.570   4.209
93985W        W53279  38.427  25.996   4.177
93986W        W53280  33.029  35.518  14.461
93987W        W53281  25.141  12.253  12.969
93988W        W53282  39.950  27.592  14.919
93989W        W53283  11.348  15.263   1.727
93990W        W53284  22.207   4.906   0.756
93991W        W53285   5.888  35.042   2.269
93992W        W53286  41.524  14.631   0.324
93993W        W53287  34.374  21.142   0.964
93994W        W53288  16.285   6.294   1.228
93995W        W53289  16.796  40.354   1.345
93996W        W53290  40.926   6.701   3.802
93997W        W53291  26.524   6.722   4.791
93998W        W53292  12.668   2.441  13.982
93999W        W53293  10.301  15.592   0.856
94000W        W53294  28.122  25.555  14.376
94001W        W53295  39.463  38.916  14.026
94002W        W53296  30.659   4.384  10.493
94003W        W53297  21.111   4.311   2.885
94004W        W53298  25.603  40.939  14.331
94005W        W53299  32.988   9.274  14.377
94006W        W53300  42.503  16.700  14.896
94007W        W53301  18.164  18.113  13.423
94008W        W53302  35.512  12.686  14.025
94009W        W53303  14.254   2.947  10.435
94010W        W53304  19.083   8.744  14.875
94011W        W53305  12.698  41.476  13.361
94012W        W53306  23.647   5.922  11.412
94013W        W53307  41.817  22.558   0.445
94014W        W53308  40.376  36.019   0.369
94015W        W53309  25.586  43.472   0.919
94016W        W53310  36.011   0.261   1.273
94017W        W53311   9.166  27.572  11.583
94018W        W53312  40.537  28.064  10.599
94019W        W53313  14.094  21.537   2.835
94020W        W53314  11.291  14.113   3.261
94021W        W53315  31.135  37.845   4.608
94022W        W53316  27.109  44.280   3.778
94023W        W53317  11.340  26.009  13.812
94024W        W53318  28.973  42.966   3.317
94025W        W53319  11.178  40.054  12.532
94026W        W53320  14.594  21.641   1.831
94027W        W53321   9.333  11.273   3.320
94028W        W53322   4.769  24.163   1.225
94029W        W53323  24.548  14.209  14.889
94030W        W53324  35.876  32.493  13.439
94031W        W53325  43.282   5.922   2.750
94032W        W53326  32.894  10.337   0.292
94033W        W53327  30.964  28.177   4.679
94034W        W53328  36.876  13.113  11.018
94035W        W53329  14.732  33.484   4.283
94036W        W53330  30.437  11.364   3.318
94037W        W53331  43.325   5.397   0.892
94038W        W53332  20.730  32.098   3.712
94039W        W53333  39.832   8.363   3.784
94040W        W53334  44.849   0.867   1.308
94041W        W53335  29.026  28.544   3.285
94042W        W53336  18.075  10.284   3.839
94043W        W53337  11.861  15.772  12.557
94044W        W53338  39.356  28.012  14.370
94045W        W53339  33.542   7.347   0.295
94046W        W53340  23.150   7.346   1.360
94047W        W53341  32.946  31.439   0.252
94048W        W53342  40.517  15.725   4.743
94049W        W53343   1.402  39.382   4.750
94050W        W53344  18.266  36.946  14.320
94051W        W53345  37.009   9.230  10.061
94052W        W53346  23.100  25.040  14.962
94053W        W53347  18.593  41.808  14.334
94054W        W53348  32.065  25.095   2.417
94055W        W53349  10.378   0.370  10.999
94056W        W53350  40.909   8.654   3.377
94057W        W53351  43.904  28.532  14.332
94058W        W53352  26.022   5.299   3.327
94059W        W53353  28.977   6.239  14.844
94060W        W53354  18.668   1.924   0.298
94061W        W53355  33.492  20.757   4.646
94062W        W53356   3.951  35.391  11.573
94063W        W53357  20.542  25.036  12.885
94064W        W53358  40.962   8.740   4.751
94065W        W53359  10.254  43.951   0.843
94066W        W53360  31.922   2.962   1.319
94067W        W53361   1.419  36.010   0.922
94068W        W53362   9.247  29.961  11.557
94069W        W53363   4.300   0.413   0.826
94070W        W53364  36.867  11.795  11.936
94071W        W53365  24.228  17.572  14.474
94072W        W53366   3.909  14.589   1.738
94073W        W53367  44.953  40.902   0.907
94074W        W53368  44.873  11.306   3.333
94075W        W53369   2.887  15.750  13.389
94076W        W53370  27.151   7.774   9.610
94077W        W53371  14.200  24.572   0.950
94078W        W53372  18.626   9.725  11.519
94079W        W53373  27.077  44.403   9.964
94080W        W53374  13.174  43.511  13.002
94081W        W53375  31.427  20.043   0.778
94082W        W53376  22.195  20.724   2.790
94083W        W53377  41.901  23.644   0.456
94084W        W53378  13.804   0.348  13.536
94085W        W53379  42.859  27.057  13.383
94086W        W53380  27.048  14.636  13.400
94087W        W53381  34.005  26.004   3.695
94088W        W53382  12.218  42.898  13.928
94089W        W53383  43.294  41.479   2.729
94090W        W53384  11.751  18.593  14.937
94091W        W53385  29.078  38.565   9.497
94092W        W53386   6.296  37.997   1.909
94093W        W53387   6.766  34.054   1.748
94094W        W53388  35.414   8.696  13.355
94095W        W53389   5.247   4.788  10.433
94096W        W53390  20.231  39.418  12.050
94097W        W53391  37.501  36.896  11.061
94098W        W53392   0.386  10.310   3.154
94099W        W53393  27.614  19.246  11.533
94100W        W53394  16.580  22.708  12.868
94101W        W53395   3.944  26.478  12.025
94102W        W53396  20.762  15.203  14.399
94103W        W53397   6.258   1.915  12.469
94104W        W53398   5.894  17.559   4.601
94105W        W53399  36.348  38.955  10.425
94106W        W53400   8.371   2.365   3.280
94107W        W53401  24.501  36.524   3.174
94108W        W53402  16.643  23.532   0.309
94109W        W53403  43.445  40.546  13.809
94110W        W53404   9.810  15.305  12.955
94111W        W53405  11.178  31.575  14.971
94112W        W53406  22.071   3.318   0.399
94113W        W53407   6.917   9.657   0.809
94114W        W53408  12.826  20.234  13.460
94115W        W53409  10.812  24.041  12.429
94116W        W53410  15.138  31.613  13.509
94117W        W53411  34.475  43.456  13.365
94118W        W53412  16.688  20.160  14.488
94119W        W53413  31.967  37.337   1.788
94120W        W53414  13.182   9.368   1.779
94121W        W53415  38.894  24.522   1.715
94122W        W53416   9.756   8.274  11.889
94123W        W53417  39.032  29.052  13.810
94124W        W53418  26.105  36.525  14.889
94125W        W53419  15.209  16.714  14.366
94126W        W53420  27.578   2.846   3.704
94127W        W53421  35.061  29.556  12.536
94128W        W53422  42.320  22.150   4.236
94129W        W53423  30.067   7.394   4.654
94130W        W53424  39.870   8.272  13.503
94131W        W53425  28.147  20.031   0.886
94132W        W53426  39.348  13.637  14.959
94133W        W53427   8.321  34.047  13.518
94134W        W53428  42.790   2.439   3.278
94135W        W53429  16.684  26.505  14.493
94136W        W53430  29.090  21.215   3.359
94137W        W53431  36.914  38.924   2.343
94138W        W53432   4.762   0.444  14.921
94139W        W53433  24.623   1.352  10.538
94140W        W53434   1.848  25.160   4.714
94141W        W53435   1.338   9.243  11.586
94142W        W53436  30.112  43.316  12.999
94143W        W53437  40.815   9.721  13.803
94144W        W53438   5.234  21.689  12.392
94145W        W53439  44.895  35.063  14.863
94146W        W53440  36.988   0.951   1.724
94147W        W53441  32.606  16.313  11.390
94148W        W53442  22.711  41.342  12.092
94149W        W53443  19.660  21.224  13.986
94150W        W53444  25.989   0.297   2.390
94151W        W53445   8.845  13.256  11.554
94152W        W53446  31.921  21.604   1.259
94153W        W53447   0.253  44.382   4.245
94154W        W53448  13.274  41.920   2.188
94155W        W53449  42.020  14.648  12.863
94156W        W53450   5.824   7.792  12.421
94157W        W53451  33.091  36.012  11.428
94158W        W53452   4.777  26.186   0.397
94159W        W53453  32.425  13.323   0.904
94160W        W53454   0.465  40.469  12.939
94161W        W53455  19.761  30.507   0.354
94162W        W53456  38.932   5.797   3.213
94163W        W53457  39.962  42.022  11.606
94164W        W53458  22.109  19.119   0.864
94165W        W53459   3.306  12.199  10.587
94166W        W53460  36.549  28.105   0.306
94167W        W53461  44.922  32.543  12.886
94168W        W53462  38.888  20.731  14.433
94169W        W53463  17.744  36.043   0.769
94170W        W53464  24.579  27.577   0.430
94171W        W53465  21.130  15.682   3.838
94172W        W53466  34.933  32.042  13.964
94173W        W53467  11.684  38.359   4.162
94174W        W53468  38.566   2.379   2.196
94175W        W53469  15.217  44.785   0.839
94176W        W53470   7.853  30.606   9.478
94177W        W53471  24.479  32.452   0.473
94178W        W53472  35.064  42.830  14.935
94179W        W53473  16.083  39.424   4.815
94180W        W53474   8.297  10.214  11.048
94181W        W53475  35.544   6.890   0.805
94182W        W53476  23.682  17.561   1.868
94183W        W53477   6.856  34.088  10.933
94184W        W53478  20.211  30.928   2.229
94185W        W53479   7.281  23.210   3.633
94186W        W53480  10.333  18.715   4.175
94187W        W53481  23.082  13.814  11.527
94188W        W53482  39.836   7.843   3.805
94189W        W53483  26.599   4.711   4.354
94190W        W53484  42.311  35.447   2.725
94191W        W53485  21.183  35.890   1.892
94192W        W53486   2.848   4.860  11.476
94193W        W53487  27.689   1.449  14.937
94194W        W53488   2.245  35.890  11.541
94195W        W53489  37.070  20.229  11.118
94196W        W53490  42.443  25.555  14.776
94197W        W53491  35.018  43.973  14.327
94198W        W53492  33.017   6.807  12.470
94199W        W53493  34.593  30.994   0.815
94200W        W53494  43.930  19.702  14.297
94201W        W53495  19.040  40.832   0.820
94202W        W53496  25.562   2.752   1.702
94203W        W53497  43.345   8.343  14.788
94204W        W53498  11.252   8.303  14.797
94205W        W53499  12.177   7.746  13.502
94206W        W53500  27.094  30.030  12.910
94207W        W53501  20.542  30.940  11.998
94208W        W53502  32.105   1.939   2.228
94209W        W53503  25.597   8.379   2.221
94210W        W53504  12.161  17.681  11.968
94211W        W53505  18.748  21.118   3.839
94212W        W53506   7.839   6.842   0.471
94213W        W53507  12.844  44.269   3.378
94214W        W53508   9.777   2.288   3.194
94215W        W53509  37.911  22.061  12.520
94216W        W53510  44.350  42.316  12.532
94217W        W53511   9.247  23.533  11.917
94218W        W53512  10.323   1.838   2.228
94219W        W53513  13.789  33.487   4.671
94220W        W53514  25.047  20.671  14.986
94221W        W53515  43.884  43.484  14.332
94222W        W53516  22.664  36.920   4.266
94223W        W53517  11.274  29.135   1.432
94224W        W53518  42.028  14.669   4.166
94225W        W53519   6.341   4.771  11.074
94226W        W53520  33.914  21.257   2.721
94227W        W53521  40.452  38.958  14.469
94228W        W53522   0.763  31.064   0.804
94229W        W53523  12.658  24.702  11.018
94230W        W53524   5.319   9.774  11.970
94231W        W53525  35.502  34.930   2.802
94232W        W53526   6.283  24.126   1.885
94233W        W53527  34.558  36.922  12.436
94234W        W53528  26.109  26.090  13.422
94235W        W53529   5.863  44.327   0.331
94236W        W53530  42.014  25.046  14.927
94237W        W53531   0.315  33.056   3.165
94238W        W53532  31.429  15.733  14.895
94239W        W53533  14.238  37.491  13.975
94240W        W53534  19.093   9.379  14.288
94241W        W53535   4.811  11.170   1.353
94242W        W53536  40.544   1.280   4.759
94243W        W53537   8.290  27.687  10.602
94244W        W53538  19.542   0.414  13.062
94245W        W53539  26.591   2.728  14.501
94246W        W53540  28.164  18.547  12.054
94247W        W53541  40.320  21.673   3.723
94248W        W53542   2.923  35.477  11.439
94249W        W53543  25.478  13.825  13.809
94250W        W53544   5.430  21.648  11.928
94251W        W53545  40.407  40.384   1.755
94252W        W53546  15.108   0.966  13.044
94253W        W53547  13.113  44.913  12.073
94254W        W53548  43.425  40.985   2.221
94255W        W53549  14.148   2.813   3.747
94256W        W53550  32.490  40.436  13.339
94257W        W53551  35.884  18.665   2.702
94258W        W53552   1.306  10.148   3.306
94259W        W53553  41.479  43.486   4.636
94260W        W53554  33.913  15.585  11.111
94261W        W53555  40.441  13.680   3.235
94262W        W53556  16.604  20.542  13.470
94263W        W53557   6.741  12.641  14.770
94264W        W53558  43.458   0.971   3.315
94265W        W53559  37.885   5.294  14.456
94266W        W53560  10.702  27.681   2.717
94267W        W53561   7.253  32.959   2.302
94268W        W53562  18.289  18.716   1.324
94269W        W53563  20.556  42.000  14.870
94270W        W53564   1.366  22.230   3.739
94271W        W53565  32.063  15.621   2.289
94272W        W53566  36.880  43.492  13.036
94273W        W53567  21.685   7.295   2.366
94274W        W53568  19.577  13.297  10.890
94275W        W53569   7.244  14.738  10.594
94276W        W53570  22.653  35.862  10.090
94277W        W53571  20.072  23.722  12.946
94278W        W53572  12.175   3.312   4.343
94279W        W53573  40.401  27.570  13.039
94280W        W53574  33.930  31.518  14.022
94281W        W53575  32.893  39.515  11.404
94282W        W53576  14.685  34.051   2.705
94283W        W53577  14.628  18.688  11.057
94284W        W53578   3.357  22.533   4.304
94285W        W53579  44.273   8.379  12.057
94286W        W53580  25.039  24.048  11.021
94287W        W53581  27.482  44.398  11.858
94288W        W53582   0.904  30.917  14.872
94289W        W53583   6.781   7.372  12.341
94290W        W53584  38.067  11.700   3.787
94291W        W53585  40.893  21.228  10.021
94292W        W53586  20.033   3.384   3.633
94293W        W53587  35.584   0.339   1.408
94294W        W53588   9.789  10.299  13.484
94295W        W53589  40.435   6.363   2.348
94296W        W53590  42.385   3.928   3.201
94297W        W53591  17.299  13.318  13.018
94298W        W53592  43.911  44.479   1.820
94299W        W53593  31.963  28.032  11.559
94300W        W53594  11.264  15.579  12.399
94301W        W53595   3.956  31.615  13.465
94302W        W53596  37.476  44.930  12.383
94303W        W53597  20.738  41.538   4.781
94304W        W53598  13.260  41.296  12.847
94305W        W53599  35.909   6.216  13.317
94306W        W53600  38.487  37.982  14.494
94307W        W53601  35.011  31.448  14.000
94308W        W53602   2.930  33.390  10.529
94309W        W53603  38.525  28.110  11.026
94310W        W53604  34.957  39.850   0.274
94311W        W53605   1.298  27.127   4.645
94312W        W53606  31.404  12.328  11.987
94313W        W53607  26.004  31.448  13.815
94314W        W53608  29.944  33.448   4.187
94315W        W53609  16.124  22.115  14.948
94316W        W53610  31.464  37.859  13.404
94317W        W53611  39.051  22.733   0.258
94318W        W53612  32.520   1.374   0.313
94319W        W53613  35.856  19.538  13.038
94320W        W53614  30.922   8.365   1.365
94321W        W53615  44.896  18.190  12.072
94322W        W53616   5.313  25.178   1.348
94323W        W53617  38.053  36.573  13.341
94324W        W53618  23.068   5.341   1.805
94325W        W53619  29.468  12.124   3.853
94326W        W53620  38.974  41.786  12.435
94327W        W53621   2.385  26.192   1.451
94328W        W53622  14.282  23.152  11.480
94329W        W53623  17.068   5.277  13.977
94330W        W53624  29.446  42.356   0.881
94331W        W53625  28.081  17.219   1.729
94332W        W53626  34.918   6.339   3.305
94333W        W53627  13.122  43.475   0.330
94334W        W53628  34.089  29.496  10.420
94335W        W53629   8.221  27.449  14.931
94336W        W53630   2.895  21.524   3.170
94337W        W53631  30.532  28.446   4.118
94338W        W53632  26.961  29.538  10.514
94339W        W53633  33.502  40.312   0.756
94340W        W53634  10.193   8.659   1.423
94341W        W53635  37.985   3.876   0.424
94342W        W53636  21.744   4.877  10.587
94343W        W53637  20.215  38.943   4.639
94344W        W53638  36.917  27.065  11.125
94345W        W53639   8.283  38.000  13.364
94346W        W53640  26.607  19.567  11.559
94347W        W53641  44.274  30.995   3.382
94348W        W53642   2.958  29.609   0.317
94349W        W53643  35.002  33.918   4.323
94350W        W53644  29.587  33.039   3.821
94351W        W53645  17.145  34.988  11.076
94352W        W53646  43.787  14.246   0.860
94353W        W53647  10.743  36.853  14.889
94354W        W53648  35.098  37.377   4.130
94355W        W53649  24.711  15.797  12.452
94356W        W53650   5.390   2.781  13.321
94357W        W53651  39.522  26.599   2.300
94358W        W53652   3.804  32.085  13.031
94359W        W53653  36.539  13.788  12.541
94360W        W53654  36.353  24.094   2.367
94361W        W53655   6.688  41.536  11.467
94362W        W53656  36.588  29.141   2.895
94363W        W53657  41.976  42.288  12.886
94364W        W53658  30.087  10.310  13.796
94365W        W53659  33.441  11.172   1.283
94366W        W53660  27.498  42.526  12.453
94367W        W53661  36.453  25.665  13.441
94368W        W53662  12.299  28.134  10.506
94369W        W53663  13.190  29.094  14.765
94370W        W53664  43.334  41.468  11.897
94371W        W53665  40.528  33.397  10.618
94372W        W53666  23.052  11.373   0.892
94373W        W53667  18.296  17.682  10.549
94374W        W53668  34.374  10.714  10.993
94375W        W53669  26.049   2.756   2.345
94376W        W53670  35.580  27.942  11.953
94377W        W53671  42.476  35.955  12.370
94378W        W53672  16.202  34.099   1.754
94379W        W53673  13.836  44.445  11.029
94380W        W53674  17.641   6.330  11.548
94381W        W53675  29.997  26.038  12.975
94382W        W53676  18.229  23.993   0.296
94383W        W53677  35.371  34.110  12.464
94384W        W53678  29.995   2.398   2.191
94385W        W53679  19.194  18.629   3.713
94386W        W53680  20.731  26.199   0.949
94387W        W53681  26.012  30.102  12.924
94388W        W53682  22.711   7.784   2.385
94389W        W53683  20.119  21.580  10.528
94390W        W53684  24.085  22.230   1.348
94391W        W53685  22.200  26.493  14.826
94392W        W53686   5.197  30.987   1.710
94393W        W53687  35.410  32.636  13.867
94394W        W53688  44.800  44.838  11.988
94395W        W53689  23.710  20.041   3.822
94396W        W53690  38.524  11.296   4.691
94397W        W53691  32.495  28.511   3.239
94398W        W53692  42.290  21.723   1.808
94399W        W53693  23.534  17.666   1.303
94400W        W53694  42.479   4.849   2.292
94401W        W53695  25.561  34.889   2.389
94402W        W53696  14.105  33.017  11.065
94403W        W53697  14.777  19.652  12.565
94404W        W53698  11.750   2.376  14.287
94405W        W53699  20.035   7.193   4.224
94406W        W53700  11.286   0.464   1.701
94407W        W53701  41.388  11.715   2.241
94408W        W53702  13.812  32.002   4.288
94409W        W53703  16.075  38.821   2.806
94410W        W53704  41.404  27.007   4.242
94411W        W53705  43.836  42.402   5.113
94412W        W53706  28.008  27.013   1.813
94413W        W53707   8.311  37.868  14.942
94414W        W53708   8.279  30.031   4.704
94415W        W53709  11.294  12.224  14.362
94416W        W53710   3.283  25.714   0.414
94417W        W53711  40.390   2.919  11.020
94418W        W53712  13.742  30.520  11.377
94419W        W53713  42.398  39.499   1.344
94420W        W53714  24.093   8.276   3.641
94421W        W53715  11.240  19.152  13.544
94422W        W53716  39.432  15.307   1.363
94423W        W53717  29.064  23.540   2.863
94424W        W53718  29.624  43.874  12.860
94425W        W53719   0.324  14.277  13.383
94426W        W53720  37.365   8.865   3.805
94427W        W53721   2.242  38.857   3.718
94428W        W53722  42.292  26.084  12.437
94429W        W53723  25.588  19.070   1.696
94430W        W53724  33.543  25.479  14.815
94431W        W53725  12.294  11.265  11.508
94432W        W53726   4.725   0.428   2.399
94433W        W53727  31.450  37.441  14.917
94434W        W53728  19.620  21.098  13.334
94435W        W53729  31.625  36.369  13.358
94436W        W53730  16.254  40.394  12.073
94437W        W53731  26.662  19.752  14.405
94438W        W53732  30.618   0.987  14.510
94439W        W53733  30.598  17.246   4.201
94440W        W53734  19.233  25.660  12.437
94441W        W53735  25.480  17.189   4.149
94442W        W53736   9.201  19.745   4.253
94443W        W53737   0.803  37.499  12.972
94444W        W53738  20.085  38.344  10.910
94445W        W53739  31.927  26.190  10.098
94446W        W53740  41.347   7.824  12.999
94447W        W53741  22.160  15.744  13.371
94448W        W53742  23.624  36.360  11.103
94449W        W53743  28.066   5.380  10.993
94450W        W53744  17.305  25.217   0.881
94451W        W53745  38.423  43.784   4.819
94452W        W53746  36.906  26.016  13.919
94453W        W53747  20.229  20.072  13.425
94454W        W53748   9.388  31.559  14.342
94455W        W53749  38.438  33.409  10.961
94456W        W53750  35.103  37.346  12.481
94457W        W53751   1.271  36.999   0.863
94458W        W53752  24.481  32.948   3.802
94459W        W53753  26.162   5.835   1.422
94460W        W53754  33.937   0.761   4.610
94461W        W53755  16.648  29.620  14.469
94462W        W53756  28.441  40.406   2.225
94463W        W53757  23.070  44.479   1.732
94464W        W53758  37.388  23.151   1.858
94465W        W53759   8.205  41.827   1.424
94466W        W53760  25.644  27.515  11.869
94467W        W53761   3.307  39.524  13.516
94468W        W53762  36.951   0.969  10.440
94469W        W53763   3.273  39.493  10.614
94470W        W53764  25.549  41.434  13.345
94471W        W53765   1.783  11.139   1.869
94472W        W53766  28.112  14.780   3.735
94473W        W53767  25.011  44.327   4.120
94474W        W53768  28.157  13.222  11.457
94475W        W53769  25.193   5.723  14.364
94476W        W53770  15.776  16.689  10.590
94477W        W53771  42.805  23.227  14.422
94478W        W53772  22.089  41.449  14.322
94479W        W53773  30.577  11.751   3.181
94480W        W53774  27.964  31.450  14.764
94481W        W53775  24.170  16.251  14.767
94482W        W53776  17.295   5.417   3.198
94483W        W53777   3.351  34.911  13.452
94484W        W53778   6.712  29.554  10.898
94485W        W53779  29.106  24.054   4.789
94486W        W53780  29.012   6.881   2.856
94487W        W53781  36.964  39.030  12.519
94488W        W53782  22.242  18.699   0.781
94489W        W53783   2.903  10.367   0.345
94490W        W53784  30.991   9.294   0.364
94491W        W53785  22.154  38.915   2.253
94492W        W53786  38.820  39.064  13.030
94493W        W53787  35.990   9.820   0.411
94494W        W53788  19.080  28.645   0.466
94495W        W53789  44.437   7.399  11.084
94496W        W53790  19.276  24.501  14.781
94497W        W53791  17.789   0.834  13.983
94498W        W53792  22.562  21.105  13.983
94499W        W53793   5.850  17.307   0.447
94500W        W53794   2.853  37.544   4.221
94501W        W53795  34.968  18.759  12.481
94502W        W53796   5.845  37.506  10.913
94503W        W53797  41.041  39.944   1.733
94504W        W53798   4.275   3.872   4.609
94505W        W53799   8.321   8.331  11.982
94506W        W53800  25.505  30.085  12.566
94507W        W53801  37.912   1.786   3.220
94508W        W53802  30.110  42.394  12.427
94509W        W53803  14.279   8.825  12.478
94510W        W53804  37.482  29.937  14.862
94511W        W53805  13.680  18.788  13.442
94512W        W53806   0.862  17.188  14.432
94513W        W53807  29.950  43.897  11.561
94514W        W53808  11.260  39.447  12.410
94515W        W53809  27.456  28.599  12.853
94516W        W53810  23.233  17.617  12.361
94517W        W53811  22.169   1.437  14.455
94518W        W53812  13.633  24.997  11.558
94519W        W53813   6.696  25.162  10.515
94520W        W53814  11.857  10.340  12.917
94521W        W53815   6.372  32.475   3.328
94522W        W53816  31.137   7.388  12.344
94523W        W53817  42.511   7.772  10.978
94524W        W53818  17.090  33.967  13.409
94525W        W53819  28.135  37.498   2.265
94526W        W53820   5.801  41.021   4.822
94527W        W53821   8.742  30.107  10.436
94528W        W53822  26.671  24.218   3.672
94529W        W53823  42.996  41.475   0.891
94530W        W53824  43.370  18.566   2.877
94531W        W53825  30.586  39.448   1.909
94532W        W53826  25.472   3.914   3.345
94533W        W53827  34.369  38.522  13.951
94534W        W53828  41.489  20.029   2.843
94535W        W53829  36.926  20.205  10.575
94536W        W53830  29.140  18.633  13.804
94537W        W53831   0.856  43.978  13.360
94538W        W53832  18.282  25.670   1.439
94539W        W53833   0.872  16.110  12.959
94540W        W53834  39.926   2.365   1.846
94541W        W53835  23.045  39.385   2.799
94542W        W53836  39.026  11.325  13.837
94543W        W53837  32.517  20.636   2.875
94544W        W53838  31.952  36.057  14.288
94545W        W53839  22.701   4.373  14.277
94546W        W53840  28.473  12.752  10.463
94547W        W53841  31.517  13.318  10.949
94548W        W53842   1.321  40.428   1.385
94549W        W53843  32.508  30.957   0.946
94550W        W53844  32.018  10.231   2.709
94551W        W53845  29.642   4.289  11.949
94552W        W53846  22.142  42.392   3.266
94553W        W53847   2.781  12.228  11.977
94554W        W53848  27.964  27.567  14.393
94555W        W53849  33.430  25.640   1.930
94556W        W53850  22.571  24.094   0.439
94557W        W53851  32.555  25.192   3.225
94558W        W53852  16.594  10.754   0.825
94559W        W53853   6.734  27.493   0.387
94560W        W53854  42.802  43.003  14.434
94561W        W53855  26.487  40.014   0.325
94562W        W53856  10.192  26.612  11.558
94563W        W53857  26.085   1.259   4.627
94564W        W53858  27.991  17.117   1.423
94565W        W53859  22.159   6.917  14.961
94566W        W53860  43.290  36.489  13.971
94567W        W53861  13.235   8.760   4.651
94568W        W53862  10.366  34.479  13.459
94569W        W53863   3.401  40.469  11.881
94570W        W53864  10.776  41.386  13.896
94571W        W53865   5.885   3.831   2.244
94572W        W53866   2.237  20.597   4.726
94573W        W53867   6.904  11.832   3.713
94574W        W53868  29.111  21.633   3.794
94575W        W53869   2.249   0.248   2.292
94576W        W53870  43.417  37.936   4.276
94577W        W53871  33.068   4.892  14.353
94578W        W53872  35.363  18.649   2.714
94579W        W53873  16.243  32.458  14.485
94580W        W53874  33.564  37.871   3.382
94581W        W53875  44.389  25.073   4.318
94582W        W53876  37.988  43.390  11.478
94583W        W53877  35.024  31.411  12.490
94584W        W53878   2.255  11.624  14.319
94585W        W53879  18.638  15.708   2.685
94586W        W53880  37.931   8.397   0.813
94587W        W53881  42.888  37.964   4.613
94588W        W53882   8.285   5.689  10.623
94589W        W53883  11.731   5.923   1.728
94590W        W53884  32.391   6.191  10.111
94591W        W53885  38.055   9.792  14.802
94592W        W53886  38.971  33.520  11.602
94593W        W53887  29.601  25.056  12.344
94594W        W53888  39.844  12.774  14.950
94595W        W53889   2.313  39.330   3.858
94596W        W53890  22.074  17.303  14.472
94597W        W53891  43.892  28.500  13.487
94598W        W53892   2.771  41.841   4.704
94599W        W53893  23.532  39.929   2.336
94600W        W53894   1.897  28.668  13.999
94601W        W53895  30.124  27.187  14.965
94602W        W53896  25.065  42.380   1.895
94603W        W53897  14.334  21.030   0.427
94604W        W53898  21.565  36.995   3.721
94605W        W53899  31.106  24.184   4.124
94606W        W53900  21.263  38.351  14.352
94607W        W53901  26.072  34.930   4.805
94608W        W53902   0.319  41.367   3.377
94609W        W53903  43.502   6.797   1.320
94610W        W53904  44.009  35.872  11.118
94611W        W53905   4.390  22.654  14.027
94612W        W53906  21.517   8.710   1.801
94613W        W53907  13.209  24.619   3.163
94614W        W53908  26.200  28.126   1.435
94615W        W53909   6.386  32.606   9.985
94616W        W53910  41.347  43.000   3.324
94617W        W53911  42.287  15.699  11.890
94618W        W53912  13.623  32.912   1.236
94619W        W53913  26.538  15.787  13.979
94620W        W53914  38.967   1.896  13.860
94621W        W53915  43.793   6.412  10.893
94622W        W53916  40.448  17.627  13.475
94623W        W53917   5.209   8.806   0.321
94624W        W53918   4.265  30.946   0.387
94625W        W53919  41.982   3.834   2.678
94626W        W53920  32.931   2.941   2.740
94627W        W53921  21.028  28.967   3.787
94628W        W53922   6.822   4.771  13.875
94629W        W53923  18.143  39.402  11.544
94630W        W53924  38.007  22.033   1.311
94631W        W53925   0.484  44.262   2.189
94632W        W53926  15.643  15.735  14.950
94633W        W53927   8.390  43.275   4.759
94634W        W53928  19.115  39.011  11.483
94635W        W53929  15.172   4.387  14.385
94636W        W53930  24.179  15.612  11.995
94637W        W53931  39.958  19.627  12.940
94638W        W53932  44.862   7.413  12.341
94639W        W53933  29.482   6.266   0.934
94640W        W53934  20.738  32.537  12.405
94641W        W53935  35.382  21.572  12.872
94642W        W53936  21.059  36.096   1.407
94643W        W53937   5.875   4.926  10.598
94644W        W53938  33.538   4.798  13.963
94645W        W53939  25.058  19.086   3.376
94646W        W53940  40.420  15.201   0.845
94647W        W53941  42.019  41.859   0.334
94648W        W53942  25.535  27.492  12.948
94649W        W53943  29.633  44.957  12.057
94650W        W53944  17.291  17.597   5.120
94651W        W53945  24.118  32.130   0.477
94652W        W53946   3.240  23.578   2.237
94653W        W53947  12.125  29.021   4.349
94654W        W53948  37.948  40.489  14.456
94655W        W53949  24.045  15.253   3.673
94656W        W53950  24.047  26.543  11.099
94657W        W53951  36.385  35.598  10.416
94658W        W53952  12.706   7.776  10.598
94659W        W53953  37.853   5.200   0.843
94660W        W53954  19.106  16.168   0.926
94661W        W53955  40.457  29.112  14.768
94662W        W53956   4.742  35.438  13.370
94663W        W53957  34.579  16.617   2.182
94664W        W53958  43.963  19.753  12.491
94665W        W53959  21.714   2.764  14.410
94666W        W53960  28.128  29.986   3.248
94667W        W53961  14.720  22.661   2.796
94668W        W53962  21.091  44.764   2.379
94669W        W53963  40.938  41.490  11.859
94670W        W53964  21.170  13.181  13.800
94671W        W53965   1.447   7.741  12.400
94672W        W53966   3.303   2.259   0.849
94673W        W53967  14.303  38.461  12.514
94674W        W53968  34.607  22.116   1.446
94675W        W53969  39.039  40.414  13.536
94676W        W53970  42.390   5.224  13.041
94677W        W53971  39.359  30.644  14.007
94678W        W53972  40.910  20.579   4.238
94679W        W53973  38.027  37.382  11.450
94680W        W53974  42.025  13.109  11.886
94681W        W53975   5.348  28.116  14.458
94682W        W53976  10.866  21.030   0.265
94683W        W53977  26.187  35.041  13.516
94684W        W53978  40.865  27.599   4.205
94685W        W53979  29.573  27.053  13.525
94686W        W53980   7.855  11.213   4.181
94687W        W53981  39.849  12.827  11.498
94688W        W53982  41.313  17.566   4.220
94689W        W53983  32.623   1.886  11.052
94690W        W53984  36.034   0.410  13.798
94691W        W53985  31.518  37.389   3.664
94692W        W53986  35.032  34.527   2.249
94693W        W53987  12.284  18.198   1.344
94694W        W53988  34.872  36.406   9.634
94695W        W53989  28.034  42.291   0.454
94696W        W53990   0.936  24.515  13.028
94697W        W53991  26.534  26.484  14.450
94698W        W53992  44.296  41.899   3.154
94699W        W53993  12.145  26.549  11.916
94700W        W53994  14.213  12.263   0.454
94701W        W53995   1.421   4.830   2.753
94702W        W53996  40.317  11.808  11.505
94703W        W53997  35.386  43.372   4.211
94704W        W53998   2.331  28.582   3.203
94705W        W53999  34.373  27.029   4.641
94706W        W54000   1.374  31.058   2.719
94707W        W54001  30.425  35.001  12.840
94708W        W54002  41.812  36.936   2.785
94709W        W54003   7.814  10.195   3.674
94710W        W54004   4.793  13.158  14.774
94711W        W54005  24.719  43.292   3.649
94712W        W54006  35.993  10.296   2.723
94713W        W54007  32.990  14.139  11.491
94714W        W54008  38.061  25.625  12.859
94715W        W54009  23.660  22.524  12.949
94716W        W54010  18.658  44.865   2.757
94717W        W54011  22.246  39.477   0.905
94718W        W54012  33.016  35.603   2.219
94719W        W54013   1.275   8.175  12.053
94720W        W54014   6.181  37.050   0.333
94721W        W54015  23.222  19.626   0.469
94722W        W54016  17.107  30.616  10.589
94723W        W54017  27.457   8.856   3.866
94724W        W54018   0.968  12.155   0.274
94725W        W54019  12.696  14.125  14.899
94726W        W54020  12.244   1.261  13.403
94727W        W54021  38.510  41.828   3.261
94728W        W54022   8.214   2.898  12.001
94729W        W54023  34.024  11.257   4.134
94730W        W54024  11.361  27.158  12.088
94731W        W54025  38.032  19.664   4.760
94732W        W54026  13.350   4.868  10.160
94733W        W54027  39.525   9.149  12.386
94734W        W54028  42.907  17.305   1.224
94735W        W54029  37.009  38.369   2.719
94736W        W54030  22.015  38.963   0.921
94737W        W54031  31.403  27.475  14.379
94738W        W54032  21.556  38.018  12.552
94739W        W54033   4.758  29.660   0.254
94740W        W54034  42.843  21.575   0.879
94741W        W54035  20.620  11.251   0.469
94742W        W54036   8.848  23.624   1.229
94743W        W54037  15.279   9.662  12.358
94744W        W54038  11.796  40.532   1.831
94745W        W54039  18.237  43.293  12.961
94746W        W54040  38.434  37.087   0.926
94747W        W54041  36.032  44.278   4.670
94748W        W54042  22.030   6.799  13.541
94749W        W54043  26.956  31.955  14.292
94750W        W54044  33.042  18.295   0.900
94751W        W54045  33.604  31.474  12.358
94752W        W54046   0.366  13.658  12.572
94753W        W54047  12.777  35.594   0.364
94754W        W54048  20.712   7.715  10.023
94755W        W54049   8.722  29.967  10.961
94756W        W54050  15.601   6.240  11.953
94757W        W54051  29.053   8.757   0.378
94758W        W54052  20.067  37.875  10.578
94759W        W54053  10.674  18.230  13.426
94760W        W54054  23.148  31.454  11.051
94761W        W54055  20.654  36.587   4.298
94762W        W54056  29.013  14.259  14.945
94763W        W54057  38.940   5.721   4.121
94764W        W54058  24.174  23.231   1.719
94765W        W54059   7.326   9.359  11.458
94766W        W54060  12.200  31.987   4.604
94767W        W54061  21.113  12.137   4.143
94768W        W54062  20.524  11.156  10.535
94769W        W54063   7.358  38.416   3.635
94770W        W54064   9.325  36.057   5.172
94771W        W54065   2.267   3.284   0.923
94772W        W54066  39.938  41.536   4.225
94773W        W54067   0.863  34.980   4.741
94774W        W54068  15.152  30.655   4.207
94775W        W54069  38.570  23.233   1.896
94776W        W54070  16.575  18.258  14.837
94777W        W54071   0.404  40.001  10.511
94778W        W54072  31.590  34.103  13.380
94779W        W54073   4.319   8.734  12.420
94780W        W54074  22.687   3.428   2.216
94781W        W54075   2.369  32.625   2.716
94782W        W54076  36.400  36.023   2.354
94783W        W54077   3.323  13.794   4.793
94784W        W54078  20.644  32.894  13.862
94785W        W54079  24.720  16.595  10.600
94786W        W54080  13.812  34.013  14.516
94787W        W54081  16.311  15.725   3.869
94788W        W54082  16.281  23.040  14.360
94789W        W54083  39.901  16.678   0.837
94790W        W54084  22.059  12.152   1.253
94791W        W54085  20.682  39.863  12.493
94792W        W54086  35.105   2.423   1.361
94793W        W54087  24.166  28.620  14.472
94794W        W54088  15.277  30.951  13.453
94795W        W54089  29.978   9.786  14.784
94796W        W54090  15.208  30.637  12.440
94797W        W54091  28.554  28.046  12.881
94798W        W54092  18.777   8.861  11.517
94799W        W54093  20.138  13.822  12.515
94800W        W54094  19.636  44.381   0.266
94801W        W54095  15.133  19.267   4.228
94802W        W54096  38.333  15.739   2.334
94803W        W54097  24.508  43.791  10.535
94804W        W54098  10.801  26.106   1.363
94805W        W54099   3.804  34.475  14.906
94806W        W54100   7.278  11.245  14.279
94807W        W54101  39.336   2.412   2.185
94808W        W54102  23.718   1.839  14.782
94809W        W54103  40.889  23.590  11.946
94810W        W54104   0.818  18.545  14.319
94811W        W54105  17.136  44.481  10.961
94812W        W54106  39.428  44.358   4.260
94813W        W54107  24.134   6.278   0.757
94814W        W54108  41.532  16.666   2.376
94815W        W54109   9.843  28.558  14.467
94816W        W54110  32.474  34.071   2.900
94817W        W54111  12.806  23.239   3.685
94818W        W54112  33.083  42.944   3.157
94819W        W54113  43.849  28.947  13.886
94820W        W54114   2.840  40.882   4.190
94821W        W54115  38.397  14.808   2.839
94822W        W54116  23.588   8.683   2.304
94823W        W54117  23.146  20.195   2.337
94824W        W54118  36.488   5.334  13.391
94825W        W54119  16.148  14.310   5.138
94826W        W54120  39.339   3.404  13.953
94827W        W54121  28.529  30.002  11.437
94828W        W54122   3.749   5.819   1.731
94829W        W54123  30.419  40.518   3.734
94830W        W54124  32.042  21.020  10.460
94831W        W54125  41.451  23.165   3.785
94832W        W54126  11.785  29.053  14.481
94833W        W54127   7.768  39.810   1.931
94834W        W54128  43.332  31.963  11.128
94835W        W54129   1.249   9.171   0.802
94836W        W54130   1.321  19.700  11.111
94837W        W54131  15.608  20.151  14.406
94838W        W54132  20.190   6.851  12.083
94839W        W54133  32.577   3.819   4.181
94840W        W54134  26.666  37.425  12.021
94841W        W54135  29.564  42.362  10.129
94842W        W54136   1.855  41.910   1.241
94843W        W54137  36.355  11.262  10.043
94844W        W54138  26.954  33.434  13.394
94845W        W54139  19.060  40.325  12.019
94846W        W54140  30.643  28.173   1.242
94847W        W54141  11.340  27.609   1.780
94848W        W54142  32.559  20.094  10.618
94849W        W54143  23.676  26.147   4.177
94850W        W54144  26.459   5.435   3.203
94851W        W54145  36.578   7.908   1.814
94852W        W54146  32.588  43.920   3.865
94853W        W54147  31.584  39.967  14.910
94854W        W54148  18.771   3.797  11.085
94855W        W54149  37.905  26.679  13.436
94856W        W54150  40.485   4.417  12.968
94857W        W54151  13.815  34.089   3.734
94858W        W54152  30.982  25.970  14.973
94859W        W54153   2.360  28.010   2.836
94860W        W54154  33.596  20.550   3.219
94861W        W54155   1.751  12.118  11.496
94862W        W54156  17.223  28.165   5.310
94863W        W54157  26.620  36.471  13.393
94864W        W54158  37.054  42.324   3.729
94865W        W54159  37.975  29.046   4.242
94866W        W54160   3.408   0.404   4.354
94867W        W54161  19.280   3.330   0.271
94868W        W54162   7.324  22.579  13.011
94869W        W54163  35.544   2.809  10.412
94870W        W54164  14.267  15.791   1.863
94871W        W54165  40.406  39.940  11.966
94872W        W54166  37.574  36.086  12.031
94873W        W54167  24.057  42.031   0.272
94874W        W54168  29.563  22.162   3.698
94875W        W54169  19.053  11.746   1.755
94876W        W54170   4.310  40.854  13.920
94877W        W54171  13.663  39.973   4.119
94878W        W54172  34.579  27.675  14.865
94879W        W54173  22.737  10.702   1.767
94880W        W54174  27.487  11.242   0.426
94881W        W54175   3.227   5.753   1.889
94882W        W54176  41.520  20.060   1.861
94883W        W54177   9.780  42.839   3.752
94884W        W54178  33.976  24.716   1.716
94885W        W54179  38.866   7.315   4.825
94886W        W54180  24.554  22.589   3.147
94887W        W54181  17.731  42.848  11.090
94888W        W54182   7.761   2.953   2.394
94889W        W54183  16.602  30.521  10.973
94890W        W54184  23.530  26.576  12.413
94891W        W54185   0.446  30.609   1.891
94892W        W54186  29.134  30.613   2.777
94893W        W54187  26.559   8.334  12.986
94894W        W54188   6.288  33.945   4.191
94895W        W54189  44.789  22.069   4.308
94896W        W54190   7.768  44.468   5.634
94897W        W54191  42.286  44.828   2.668
94898W        W54192  19.538  39.318  11.866
94899W        W54193   1.833  26.986  10.488
94900W        W54194  15.788  25.112   3.728
94901W        W54195  19.534  21.627  13.866
94902W        W54196  40.330   4.325  11.010
94903W        W54197  35.994  40.974   2.280
94904W        W54198  20.061  27.536   3.674
94905W        W54199  40.838  29.616   1.218
94906W        W54200   4.441  15.278   3.232
94907W        W54201  15.738  36.905  13.463
94908W        W54202  40.384   8.389  14.838
94909W        W54203  35.396  29.570  12.520
94910W        W54204  23.223  16.274   3.741
94911W        W54205  38.463  17.615   1.439
94912W        W54206  40.800  22.013   1.364
94913W        W54207  33.561   5.422  11.541
94914W        W54208   7.861  33.977   0.442
94915W        W54209  21.183  42.397  10.546
94916W        W54210  11.258  14.272  10.453
94917W        W54211   7.851  13.185  14.867
94918W        W54212  31.128  43.429   3.734
94919W        W54213  10.357  39.368   0.847
94920W        W54214   9.889  29.919   1.894
94921W        W54215  25.670  13.318   5.151
94922W        W54216  19.574   2.308  13.897
94923W        W54217  29.456  21.744   4.349
94924W        W54218   2.900   6.778  11.414
94925W        W54219  15.245   4.728  13.487
94926W        W54220  18.600  18.265   0.729
94927W        W54221  26.197  26.999   2.837
94928W        W54222  20.099  29.594   0.837
94929W        W54223   2.378   5.777  13.981
94930W        W54224  11.169  40.886  13.470
94931W        W54225  27.182  22.672   0.768
94932W        W54226  20.199  29.116  13.011
94933W        W54227  33.578  34.455   3.641
94934W        W54228  27.470  24.983  11.425
94935W        W54229  14.829   4.909  14.947
94936W        W54230   0.834  27.496   2.242
94937W        W54231  11.281  32.007   2.896
94938W        W54232   9.696   4.886  14.309
94939W        W54233  25.560  31.101   1.743
94940W        W54234   4.749  42.995   2.415
94941W        W54235  35.862  27.470  12.871
94942W        W54236   9.344  14.217  13.954
94943W        W54237  20.630  21.566  13.898
94944W        W54238   1.859  31.039   3.214
94945W        W54239  32.968   2.841   0.881
94946W        W54240  27.173  27.458  14.877
94947W        W54241  22.047  19.693   3.243
94948W        W54242  43.012   8.267   4.254
94949W        W54243  33.910  37.038   3.234
94950W        W54244   1.432  26.515  11.506
94951W        W54245  37.507  42.984  14.912
94952W        W54246  34.045  18.650  14.862
94953W        W54247  41.001   0.907   4.741
94954W        W54248  11.777  20.230  13.536
94955W        W54249  44.802   7.314  10.960
94956W        W54250   2.829  29.486  13.868
94957W        W54251  11.167  41.962   3.220
94958W        W54252  14.642  22.679  12.374
94959W        W54253  15.740  31.622  14.408
94960W        W54254  26.691  15.802  10.529
94961W        W54255  19.252  29.551  12.068
94962W        W54256  20.095   9.211   1.800
94963W        W54257  16.628  31.095   1.435
94964W        W54258  44.315  35.938   1.889
94965W        W54259  10.302  10.170  12.021
94966W        W54260   8.862  11.645   1.438
94967W        W54261  44.004  25.201   1.904
94968W        W54262  27.124  13.775  11.447
94969W        W54263  40.885  43.907   0.850
94970W        W54264  43.337  32.032  14.989
94971W        W54265  29.656  21.588  13.833
94972W        W54266  20.089  13.304   0.242
94973W        W54267  17.609  44.915  14.367
94974W        W54268  14.755   9.828  11.511
94975W        W54269  21.197  12.626  12.572
94976W        W54270  24.485  40.881   3.226
94977W        W54271  11.820   9.173   1.881
94978W        W54272   2.370  33.413  14.481
94979W        W54273   7.285  29.952  14.459
94980W        W54274   8.160  28.186   5.585
94981W        W54275  16.232  17.211   0.892
94982W        W54276  37.519  18.559  11.006
94983W        W54277  21.113  10.747  13.465
94984W        W54278   4.741  22.051  11.494
94985W        W54279  40.518  38.895  10.614
94986W        W54280  21.062  24.605  13.445
94987W        W54281  10.341  33.924  12.088
94988W        W54282   7.180  42.434   4.257
94989W        W54283  40.466   7.702  13.341
94990W        W54284  34.597   8.745  14.500
94991W        W54285  44.801  14.778  14.451
94992W        W54286  39.015  40.797   3.782
94993W        W54287  43.998  20.194   1.314
94994W        W54288   7.709   9.867   2.872
94995W        W54289   7.273  18.225  12.072
94996W        W54290   0.954   6.763   1.901
94997W        W54291   4.699  34.482  10.077
94998W        W54292  10.191  13.219  12.991
94999W        W54293  41.917  34.574   0.430
95000W        W54294  28.577  41.343  10.930
95001W        W54295   9.327   0.877   3.817
95002W        W54296  23.105  31.139  14.334
95003W        W54297  10.155  31.898  12.979
95004W        W54298   0.275  33.919   2.290
95005W        W54299  42.968  36.891  13.408
95006W        W54300  21.678  40.449  14.285
95007W        W54301  19.601   6.411  14.481
95008W        W54302   2.865  38.424   3.632
95009W        W54303  38.850  27.588   2.901
95010W        W54304  14.673  21.101   3.676
95011W        W54305  17.751  36.024  14.919
95012W        W54306  30.502  30.117  14.293
95013W        W54307   4.897   9.239  12.012
95014W        W54308  25.664  10.741   1.364
95015W        W54309  12.846  20.158  10.101
95016W        W54310  36.044  18.094  12.362
95017W        W54311  20.628   5.881  12.398
95018W        W54312  27.994  33.505   1.233
95019W        W54313   6.706  37.538   3.336
95020W        W54314  37.470  32.465  13.455
95021W        W54315   2.356  30.642   3.700
95022W        W54316   2.768  29.094   2.742
95023W        W54317  13.193  35.428   3.383
95024W        W54318  18.620  17.756  12.962
95025W        W54319  18.652  31.008   1.771
95026W        W54320   1.406  39.816   3.826
95027W        W54321  26.162  24.230   3.288
95028W        W54322  15.803  19.693  14.505
95029W        W54323  13.181  39.451  12.079
95030W        W54324  27.941  29.568  11.058
95031W        W54325  25.020  30.125  10.430
95032W        W54326  18.129  32.966  11.492
95033W        W54327  11.766  31.091  12.826
95034W        W54328  14.638  11.338   1.843
95035W        W54329  11.802  39.427  14.827
95036W        W54330  21.061   0.448   0.359
95037W        W54331  14.741   1.772   0.443
95038W        W54332   4.340  10.199   0.750
95039W        W54333   2.314  11.215  13.490
95040W        W54334  44.840  10.253  14.431
95041W        W54335  31.963  13.218  13.932
95042W        W54336  32.538  44.852   4.655
95043W        W54337  40.505   5.254  12.907
95044W        W54338  26.044  39.455  11.520
95045W        W54339  37.376  15.636   4.780
95046W        W54340   3.946  21.226   1.416
95047W        W54341  37.446  37.437  13.398
95048W        W54342  28.930  25.002  11.405
95049W        W54343  19.237  24.507  12.832
95050W        W54344  17.671  23.198   9.975
95051W        W54345   2.297  13.295   0.418
95052W        W54346  10.331   0.426  13.055
95053W        W54347  32.583  28.016  10.152
95054W        W54348  27.447   9.884  14.859
95055W        W54349  10.240   4.329  12.543
95056W        W54350  20.271  31.555   2.812
95057W        W54351   3.756  24.161   2.193
95058W        W54352   0.376  34.106   0.888
95059W        W54353  28.128   3.429   4.232
95060W        W54354  28.633  25.583   3.256
95061W        W54355  29.967  30.431  11.407
95062W        W54356  10.682  33.124  13.795
95063W        W54357   2.948  43.775   4.296
95064W        W54358  32.614  23.664   4.119
95065W        W54359  33.078  29.587  11.559
95066W        W54360  21.673   1.973  12.847
95067W        W54361   1.854  23.663   2.852
95068W        W54362   7.751   9.315   4.309
95069W        W54363  14.119  42.935   4.684
95070W        W54364  17.783  16.114   3.659
95071W        W54365   9.682  38.433   1.793
95072W        W54366  13.692   5.811  13.934
95073W        W54367   1.405  12.644  10.598
95074W        W54368  33.486   1.360   4.144
95075W        W54369  33.444  30.611   4.348
95076W        W54370  36.861   7.349  11.918
95077W        W54371  21.553  41.403   0.420
95078W        W54372  27.520  24.082   0.799
95079W        W54373  10.830  35.410   3.278
95080W        W54374  34.050   5.770  13.841
95081W        W54375   2.826   8.680   0.435
95082W        W54376   5.276   9.156   0.271
95083W        W54377  26.179  12.792  10.587
95084W        W54378   4.282  34.433   1.262
95085W        W54379  20.537  26.538   0.317
95086W        W54380   8.165  26.652   0.308
95087W        W54381  24.104   3.411   0.445
95088W        W54382   2.253  38.977   3.175
95089W        W54383  44.371  20.203   2.377
95090W        W54384   6.803  22.157  11.563
95091W        W54385   1.313  41.532  13.896
95092W        W54386  13.614   4.349  11.076
95093W        W54387  27.602  36.878   2.766
95094W        W54388  29.082  18.243  11.424
95095W        W54389  24.657  17.086   3.338
95096W        W54390   6.861   3.767  12.435
95097W        W54391  33.035  37.963   1.306
95098W        W54392  42.956   8.805  11.509
95099W        W54393   6.272  42.280  14.400
95100W        W54394   8.882  18.775  12.558
95101W        W54395  33.428   1.813  13.468
95102W        W54396  43.948   0.453   1.245
95103W        W54397  10.810   4.762   1.872
95104W        W54398  28.148  29.046   4.683
95105W        W54399  19.737   8.706   0.824
95106W        W54400  37.991  21.714   3.266
95107W        W54401  44.971   6.804  10.923
95108W        W54402  15.314  39.516  13.542
95109W        W54403  22.709  14.133  13.318
95110W        W54404  13.600  29.446  14.982
95111W        W54405   4.379  16.811   0.780
95112W        W54406  13.242   4.327   0.886
95113W        W54407  41.899  37.413   2.669
95114W        W54408  28.042  12.716  10.113
95115W        W54409   9.289  39.901  12.422
95116W        W54410  30.448  34.936   1.772
95117W        W54411  22.515  22.180  14.305
95118W        W54412  36.047  37.931   0.402
95119W        W54413   2.445  29.465   0.353
95120W        W54414  37.461  43.285  11.092
95121W        W54415  12.778  14.199   0.910
95122W        W54416   5.330   7.196  14.445
95123W        W54417  43.815  30.913   1.714
95124W        W54418  32.458  23.151   0.389
95125W        W54419  19.606   3.806  13.015
95126W        W54420  13.846  41.318  10.956
95127W        W54421  23.602  25.991   1.773
95128W        W54422  15.694  31.108  14.455
95129W        W54423   8.894  20.086   3.331
95130W        W54424   7.403  25.571  10.031
95131W        W54425  25.024  27.037   1.272
95132W        W54426  33.387   4.263  13.490
95133W        W54427   9.387  17.183  14.029
95134W        W54428  22.192  43.447   1.721
95135W        W54429  42.295  24.483  11.432
95136W        W54430  37.904  37.057  14.482
95137W        W54431  18.697  39.377   2.184
95138W        W54432  25.498  12.117  13.806
95139W        W54433  31.420   8.165   3.165
95140W        W54434   6.846  40.903  10.552
95141W        W54435  26.187  20.562  11.029
95142W        W54436   6.259  25.133   0.765
95143W        W54437  41.452  36.475  10.627
95144W        W54438   1.334   1.959   2.771
95145W        W54439  15.250  42.960  12.482
95146W        W54440   1.345  21.093   0.304
95147W        W54441   0.771  10.180  11.542
95148W        W54442  23.511  17.796  11.080
95149W        W54443  23.085  39.397  13.418
95150W        W54444  43.309   8.756   3.293
95151W        W54445  23.143  12.336  13.804
95152W        W54446  44.961  25.525  12.419
95153W        W54447  30.093  24.516  10.620
95154W        W54448   4.866  22.692  11.563
95155W        W54449  19.220  27.598   0.847
95156W        W54450  21.031  29.133  12.963
95157W        W54451  10.695  20.746  11.965
95158W        W54452  38.452  25.964  11.042
95159W        W54453  30.453  11.809  14.498
95160W        W54454   4.237  37.947   4.162
95161W        W54455  12.763  31.990  11.862
95162W        W54456  12.691  43.983   0.266
95163W        W54457  41.479  18.699   1.777
95164W        W54458   7.366  23.224  13.422
95165W        W54459  15.684  27.524  12.452
95166W        W54460  44.839  42.909   3.323
95167W        W54461  39.055   3.419  12.369
95168W        W54462  24.614   6.363  13.996
95169W        W54463  25.658  43.802   3.746
95170W        W54464  44.925  18.676  12.382
95171W        W54465   9.284  40.350   0.428
95172W        W54466  23.985  39.338   3.368
95173W        W54467  23.984  30.584   0.854
95174W        W54468  41.945  29.104   0.256
95175W        W54469   1.766  36.053   0.315
95176W        W54470  20.728   3.427  10.472
95177W        W54471  22.690   7.782  10.546
95178W        W54472   2.876  15.300  13.022
95179W        W54473  36.406  13.225  11.873
95180W        W54474  34.004  39.535   0.251
95181W        W54475  11.857  11.289  14.778
95182W        W54476   0.765  24.111   1.406
95183W        W54477  26.679   2.393  13.512
95184W        W54478   0.375  25.500  10.467
95185W        W54479  11.316   7.718   2.853
95186W        W54480  42.971  27.085   0.477
95187W        W54481  31.037  30.165   0.399
95188W        W54482  11.331  39.881  10.547
95189W        W54483   6.406  11.806   2.292
95190W        W54484  20.191   5.217   3.366
95191W        W54485  28.568  12.256   4.730
95192W        W54486  35.469  18.741  12.955
95193W        W54487  14.741   6.182   5.255
95194W        W54488  34.515  44.434   3.262
95195W        W54489  44.781  37.079  14.922
95196W        W54490   6.417  36.498  11.029
95197W        W54491  22.606  30.506  11.007
95198W        W54492  36.880   7.682   1.419
95199W        W54493  38.037   6.715  13.404
95200W        W54494  33.480  25.030  14.030
95201W        W54495  31.432  21.067  14.466
95202W        W54496  11.704  33.406   1.306
95203W        W54497  24.551  10.786   0.752
95204W        W54498  25.588  39.836  10.556
95205W        W54499  41.806  21.143  14.463
95206W        W54500  11.313  24.702   2.402
95207W        W54501  36.957  31.444   5.278
95208W        W54502  37.526  16.655   2.860
95209W        W54503  24.169  17.263  13.462
95210W        W54504  43.917  33.546  11.028
95211W        W54505  38.436  40.537   0.823
95212W        W54506  44.758   9.778   0.321
95213W        W54507  17.643   3.771  12.358
95214W        W54508  18.229   8.360  14.771
95215W        W54509  15.714  31.533   1.875
95216W        W54510  43.398   3.231   4.627
95217W        W54511  11.809  14.785   2.343
95218W        W54512   5.817   1.971   0.372
95219W        W54513  44.325  26.473  13.524
95220W        W54514  25.471  37.046  12.436
95221W        W54515  20.611  43.328   0.455
95222W        W54516  36.348  42.779   2.765
95223W        W54517  22.134  33.516   0.960
95224W        W54518  25.199  28.618   4.602
95225W        W54519  18.274  30.150  13.361
95226W        W54520   7.720   3.843   2.361
95227W        W54521  43.489  27.028  14.807
95228W        W54522   5.732   1.944  11.956
95229W        W54523  13.324  19.557   4.324
95230W        W54524  22.540  40.001   0.478
95231W        W54525  26.570  21.668  14.499
95232W        W54526  43.372  29.502  13.463
95233W        W54527   0.963   3.866   0.407
95234W        W54528   5.824   4.720  13.437
95235W        W54529  11.296  10.833   3.788
95236W        W54530  35.586   7.691  12.949
95237W        W54531   1.771  36.086   2.723
95238W        W54532  31.915  37.032   1.335
95239W        W54533   7.824   4.891   0.821
95240W        W54534   9.361  39.359   4.726
95241W        W54535   3.441   9.647  14.335
95242W        W54536   8.285  33.494  14.908
95243W        W54537  37.972  37.445   3.783
95244W        W54538  27.641  20.680  11.859
95245W        W54539   4.929  15.777   3.150
95246W        W54540  14.726  33.888   4.821
95247W        W54541  41.534  40.546  12.541
95248W        W54542  35.393  37.035  11.937
95249W        W54543  42.418   7.871  13.966
95250W        W54544  12.120  43.773  13.055
95251W        W54545  28.978  32.138   1.393
95252W        W54546  21.031  33.535  11.512
95253W        W54547  44.885   5.844  11.430
95254W        W54548   7.302  37.891  11.988
95255W        W54549  17.259   1.956  11.877
95256W        W54550  16.162  27.186  13.993
95257W        W54551  34.507  41.454  11.608
95258W        W54552  12.846  16.266   0.296
95259W        W54553  10.209  40.872   2.686
95260W        W54554  10.838  29.148   0.845
95261W        W54555  41.929  30.502   4.803
95262W        W54556  26.576   6.362   5.221
95263W        W54557   7.414  36.069   4.180
95264W        W54558  30.444  12.722  11.120
95265W        W54559  36.374  33.011   3.699
95266W        W54560  32.425  31.580  13.995
95267W        W54561   6.761   7.233   1.742
95268W        W54562  37.479  12.627   2.730
95269W        W54563  44.278   4.883   1.341
95270W        W54564   4.944   3.953   4.132
95271W        W54565  15.664  12.293  13.938
95272W        W54566  40.400  37.555  12.354
95273W        W54567  22.597  27.948   0.789
95274W        W54568  35.389  23.688  12.529
95275W        W54569  26.133  34.570  12.513
95276W        W54570  13.228  16.227  14.304
95277W        W54571  11.645  26.651  11.522
95278W        W54572  21.127   9.682  13.876
95279W        W54573  42.440  10.276   1.933
95280W        W54574  32.900   3.409   4.220
95281W        W54575  15.298  34.092   0.336
95282W        W54576  22.526  11.751  12.027
95283W        W54577  15.131  26.657  12.510
95284W        W54578  40.015  38.033  13.356
95285W        W54579  26.539  29.551  14.341
95286W        W54580   8.166  15.582  12.581
95287W        W54581  39.420  26.145   0.363
95288W        W54582   0.250   3.224   3.725
95289W        W54583  31.643  30.415  12.094
95290W        W54584  42.342  28.606  10.483
95291W        W54585  26.618  33.544  11.117
95292W        W54586   3.455  44.484  12.037
95293W        W54587  25.184  23.228  14.769
95294W        W54588  15.598   6.305   1.867
95295W        W54589  30.638  18.600  10.952
95296W        W54590  35.564  40.981  10.905
95297W        W54591  32.116  28.474  12.367
95298W        W54592  37.520  17.201   0.747
95299W        W54593   5.723  15.666   4.637
95300W        W54594  38.986   5.722   2.761
95301W        W54595  30.162  29.462  11.612
95302W        W54596  29.470  21.220  12.847
95303W        W54597   0.845  26.554  10.115
95304W        W54598   7.226  25.538   1.274
95305W        W54599   7.763  44.860   1.319
95306W        W54600  11.298  32.438  12.560
95307W        W54601   4.440   7.235   0.888
95308W        W54602  20.105  11.278   4.822
95309W        W54603   8.216  14.775  14.364
95310W        W54604  39.337  22.617  14.385
95311W        W54605   1.303  25.501  10.626
95312W        W54606   2.799  19.071  13.011
95313W        W54607  28.450  32.928  12.361
95314W        W54608  11.331  16.220  14.827
95315W        W54609  43.923  39.050  14.823
95316W        W54610  44.407  29.437  11.559
95317W        W54611  29.119  15.753   9.972
95318W        W54612   7.205  40.897  14.778
95319W        W54613   4.298  17.078  13.032
95320W        W54614  13.266   5.839  11.931
95321W        W54615  20.642   6.247   2.191
95322W        W54616   6.845  42.816   3.162
95323W        W54617  32.947  35.097  11.063
95324W        W54618  35.098  24.589  12.373
95325W        W54619  35.589  34.422  14.355
95326W        W54620  22.052   2.811  13.312
95327W        W54621  12.700  33.526  12.884
95328W        W54622  40.539   1.822  12.453
95329W        W54623  39.437   5.895   0.914
95330W        W54624   0.404  37.397  11.561
95331W        W54625   0.917  41.025  11.022
95332W        W54626  40.886  10.292   0.460
95333W        W54627  17.602   6.385   1.342
95334W        W54628  11.762  27.503   0.282
95335W        W54629   5.933  22.183  12.021
95336W        W54630  18.188  34.557  13.863
95337W        W54631  10.377  25.164  14.883
95338W        W54632   6.821  22.731   0.900
95339W        W54633  12.116  27.074  10.585
95340W        W54634  35.971  31.998   1.739
95341W        W54635  38.380  15.214  10.932
95342W        W54636  13.717  27.592   0.782
95343W        W54637  35.461  29.991   2.790
95344W        W54638  26.491  23.219  11.116
95345W        W54639  19.733  34.575  14.382
95346W        W54640   9.802  36.003   2.199
95347W        W54641  35.538  33.903   4.288
95348W        W54642  42.363   7.773   4.141
95349W        W54643  26.969  22.732  12.986
95350W        W54644   7.399  19.115  11.057
95351W        W54645  41.344   6.911  11.859
95352W        W54646  33.544  34.943   0.399
95353W        W54647  28.115   9.720   4.785
95354W        W54648  31.109  36.021   0.840
95355W        W54649  32.132  43.821   3.743
95356W        W54650  31.038  39.026   3.640
95357W        W54651  10.372  33.601   0.404
95358W        W54652  28.001  22.650  13.338
95359W        W54653  36.534  30.057  11.013
95360W        W54654   5.795   5.321   4.158
95361W        W54655  19.769  42.882  13.832
95362W        W54656  39.030  22.128  11.588
95363W        W54657  38.941   8.279  10.985
95364W        W54658  18.624   2.921   2.898
95365W        W54659  39.952  13.113  11.096
95366W        W54660  43.316  33.526  13.448
95367W        W54661  25.501  44.463   2.774
95368W        W54662   2.894  36.495   0.441
95369W        W54663  30.417   2.963  13.530
95370W        W54664   7.383  25.207   3.169
95371W        W54665  14.164   3.859   2.813
95372W        W54666  18.123  34.910   2.858
95373W        W54667  29.587  44.461  12.514
95374W        W54668  30.043  17.583   4.261
95375W        W54669   7.253  12.182  10.604
95376W        W54670   3.320  12.799  12.402
95377W        W54671  41.871   8.255   2.252
95378W        W54672  33.477   7.344  11.473
95379W        W54673  34.972   0.421  10.500
95380W        W54674   0.306  22.029  13.393
95381W        W54675  44.366  14.726   2.205
95382W        W54676  13.176   8.664   2.221
95383W        W54677  30.658  39.829   1.255
95384W        W54678  30.143   4.784   3.740
95385W        W54679   9.347  14.202  12.568
95386W        W54680  43.006  28.563  11.874
95387W        W54681  44.330   6.806   3.356
95388W        W54682  10.215  41.495   3.317
95389W        W54683  31.450  33.958  14.823
95390W        W54684  19.059  31.457   2.874
95391W        W54685  15.782  31.519   4.828
95392W        W54686   6.186  24.096   0.387
95393W        W54687  36.098   8.305  13.828
95394W        W54688  29.481  28.066   0.351
95395W        W54689  25.537  32.043  10.897
95396W        W54690  18.693  34.530  11.879
95397W        W54691  25.179  34.010   1.744
95398W        W54692  39.908  35.397   3.656
95399W        W54693  39.313   7.815  10.926
95400W        W54694  22.031  32.026  10.940
95401W        W54695  29.616   1.282  14.451
95402W        W54696  13.183  35.060  12.086
95403W        W54697   4.741  32.088  10.519
95404W        W54698   7.710  27.158  14.793
95405W        W54699   3.366   4.710   3.318
95406W        W54700  17.587  18.211   3.870
95407W        W54701  20.640   4.398   2.748
95408W        W54702  28.671  15.628  13.057
95409W        W54703  41.451   0.429   3.648
95410W        W54704  38.434  35.524   1.906
95411W        W54705  27.050  43.864  11.061
95412W        W54706  27.962  39.322  14.295
95413W        W54707   4.289  15.248  12.549
95414W        W54708  22.069  41.506  11.979
95415W        W54709  30.476  24.672   3.146
95416W        W54710   1.764  23.649  14.295
95417W        W54711  15.589  27.675  12.094
95418W        W54712  29.160  13.265  13.059
95419W        W54713  16.208  14.203   0.765
95420W        W54714   1.750  18.601   1.707
95421W        W54715  33.425  28.060  11.894
95422W        W54716  37.995  25.599  13.314
95423W        W54717   4.351  40.946   4.262
95424W        W54718  34.992  31.980   4.260
95425W        W54719  10.321   7.796   0.939
95426W        W54720  42.325  26.998  11.903
95427W        W54721  13.120  14.723  10.576
95428W        W54722  41.403  36.540   9.983
95429W        W54723  37.887  42.779   1.377
95430W        W54724   9.349  28.187   3.213
95431W        W54725  25.569  21.518  14.006
95432W        W54726  12.631   4.445   1.262
95433W        W54727   2.313  32.931   4.168
95434W        W54728  38.955  19.734   9.922
95435W        W54729  30.918   6.891   1.211
95436W        W54730  28.597  31.023  13.916
95437W        W54731   8.346  39.939  11.117
95438W        W54732  27.072  14.184  10.515
95439W        W54733  19.745  34.046   3.692
95440W        W54734   8.161  40.938   0.751
95441W        W54735  34.949  24.015  11.923
95442W        W54736  29.075  41.899   1.846
95443W        W54737  29.657  15.234   4.711
95444W        W54738  25.130  41.351  13.406
95445W        W54739  11.694  39.411   0.726
95446W        W54740   5.399   2.242   2.794
95447W        W54741  30.972  34.514  12.036
95448W        W54742  12.666  37.031   1.745
95449W        W54743   9.645  25.988  12.560
95450W        W54744  10.771   2.754   0.810
95451W        W54745  10.245  35.479  12.481
95452W        W54746   4.874  22.670   2.241
95453W        W54747  37.987  41.459   4.144
95454W        W54748  42.820  27.994  11.067
95455W        W54749  29.446   1.392   1.332
95456W        W54750  11.285  37.043  12.953
95457W        W54751  44.476  31.639  10.543
95458W        W54752  37.397   1.461  12.885
95459W        W54753   1.770  25.536  12.070
95460W        W54754  36.899   9.790  14.993
95461W        W54755  31.042  43.982   4.820
95462W        W54756   0.916  37.042   4.213
95463W        W54757   7.804  43.840  12.046
95464W        W54758  23.184   6.414   0.320
95465W        W54759  39.908   1.752  14.004
95466W        W54760  29.148  40.925   5.620
95467W        W54761  18.285  34.534  12.059
95468W        W54762  34.013  37.353   3.817
95469W        W54763  28.112  19.645   0.793
95470W        W54764  21.138  27.667   1.404
95471W        W54765  33.007  13.629  12.497
95472W        W54766  42.471  42.866  10.549
95473W        W54767  31.031  17.686   1.895
95474W        W54768   8.868  37.579  10.107
95475W        W54769   6.715  31.902  13.463
95476W        W54770  39.363  24.102  14.029
95477W        W54771  27.446  20.765  10.901
95478W        W54772  22.714  26.990   3.684
95479W        W54773  22.151  15.688  12.556
95480W        W54774  24.037  39.385   0.733
95481W        W54775  36.530  21.629  13.530
95482W        W54776  14.123   9.393  13.916
95483W        W54777  41.333   6.870  12.450
95484W        W54778   6.759  28.936   0.418
95485W        W54779  31.067  40.011   3.659
95486W        W54780  15.719   2.393  12.556
95487W        W54781  21.212  38.442   4.233
95488W        W54782   2.955  35.023  14.388
95489W        W54783  42.011  44.488   0.935
95490W        W54784  24.624  26.591   0.303
95491W        W54785   3.776   8.878   4.238
95492W        W54786  25.177  11.263  12.040
95493W        W54787  13.288   8.176   2.294
95494W        W54788  18.130   6.697  13.822
95495W        W54789  40.800  38.899  14.294
95496W        W54790  13.350   0.450   0.741
95497W        W54791  22.193  21.099   3.666
95498W        W54792  27.549  38.017  13.387
95499W        W54793  38.424  29.448  11.976
95500W        W54794   0.299  42.816  10.893
95501W        W54795  41.848  33.926  10.450
95502W        W54796  14.124   9.887   2.876
95503W        W54797  32.019   9.795  13.052
95504W        W54798  43.420  28.038   0.326
95505W        W54799  24.047  29.952  11.885
95506W        W54800  15.107  41.296  10.904
95507W        W54801   7.714  31.621   2.671
95508W        W54802  42.410   8.264  11.612
95509W        W54803  17.120  38.009   3.176
95510W        W54804  13.756  10.834  14.320
95511W        W54805  29.135  33.608   2.299
95512W        W54806  37.836  22.022   4.732
95513W        W54807  36.885  14.751  13.525
95514W        W54808  17.686  23.054   0.254
95515W        W54809  14.310  13.322   3.670
95516W        W54810  44.464  37.359  13.942
95517W        W54811  30.433  26.623  10.953
95518W        W54812  22.176  29.974  12.555
95519W        W54813  43.340  23.027   4.143
95520W        W54814  38.555   3.458   1.900
95521W        W54815   0.429  29.615  12.016
95522W        W54816  18.757  44.760  11.115
95523W        W54817  23.185  41.425   1.436
95524W        W54818  20.231   2.927  10.494
95525W        W54819  27.151  18.109   3.183
95526W        W54820   6.422  28.082  12.399
95527W        W54821  12.354  27.008   1.256
95528W        W54822  39.485   3.936   2.184
95529W        W54823   6.709   3.301  12.880
95530W        W54824  32.907   9.239   3.269
95531W        W54825  43.016  42.521   2.189
95532W        W54826  37.988   0.297   2.263
95533W        W54827  12.789  15.195  11.032
95534W        W54828  26.168  10.667  14.821
95535W        W54829  30.075  31.413  11.934
95536W        W54830  40.857  26.626  12.889
95537W        W54831  35.876  12.197   4.242
95538W        W54832   8.722  28.576  11.567
95539W        W54833  20.686   4.879  14.313
95540W        W54834  22.065   4.752  11.390
95541W        W54835  34.576  19.268  13.385
95542W        W54836   1.371  13.749  14.019
95543W        W54837  26.632   4.242   3.226
95544W        W54838  10.249   5.419   2.700
95545W        W54839   0.366  20.271   2.744
95546W        W54840   4.307  42.486   2.751
95547W        W54841  37.414  21.155  10.540
95548W        W54842  19.687  19.234  14.453
95549W        W54843  42.004   3.865   0.374
95550W        W54844  35.427  24.019   1.712
95551W        W54845  31.454  31.012  12.072
95552W        W54846   2.448   8.213   3.217
95553W        W54847  19.533   7.791  14.823
95554W        W54848   3.259  21.235   0.816
95555W        W54849  13.745  44.375   0.253
95556W        W54850   9.292  41.790   3.360
95557W        W54851   5.358  23.605   3.169
95558W        W54852   6.220  22.173   2.835
95559W        W54853  20.702   0.384  12.926
95560W        W54854   8.179   9.839  13.996
95561W        W54855   5.727  10.667  12.026
95562W        W54856  11.175  13.727  13.014
95563W        W54857   5.243   7.272   4.648
95564W        W54858  19.771  18.084   3.252
95565W        W54859  43.901   9.391   1.289
95566W        W54860  31.065  12.763  11.986
95567W        W54861  30.082  17.110  13.380
95568W        W54862  32.406  28.513  12.511
95569W        W54863  11.786  41.841   3.740
95570W        W54864   5.763  37.941   1.697
95571W        W54865  23.506  28.573   2.777
95572W        W54866  19.231  43.373  11.521
95573W        W54867  14.205   7.891   2.902
95574W        W54868  12.626  26.208   2.679
95575W        W54869  41.831  23.656   1.366
95576W        W54870  10.341  33.444   3.785
95577W        W54871  16.744  43.472  14.826
95578W        W54872  24.700  25.178  12.406
95579W        W54873   0.832  18.608   3.173
95580W        W54874  35.449   0.291   3.194
95581W        W54875   9.229   4.207  12.086
95582W        W54876  23.664  36.883  10.913
95583W        W54877  31.958  42.010   0.808
95584W        W54878  13.647  11.683   5.761
95585W        W54879  25.500  20.647  12.417
95586W        W54880  18.755   1.940   3.347
95587W        W54881  19.267  15.595   4.290
95588W        W54882  17.608  18.609   3.257
95589W        W54883   2.894  18.180  11.121
95590W        W54884  16.289  28.579   4.290
95591W        W54885  14.807  21.223  14.934
95592W        W54886   0.967   4.865   3.267
95593W        W54887  13.802  22.066   3.176
95594W        W54888  35.905  14.677  11.926
95595W        W54889  23.511  19.755  12.080
95596W        W54890  12.344  12.747   3.184
95597W        W54891  42.849  18.710   1.784
95598W        W54892   3.391  20.111  10.060
95599W        W54893  12.131   1.429   4.130
95600W        W54894  14.742  23.691   5.120
95601W        W54895  38.914  16.193  10.520
95602W        W54896  19.040  32.556   4.252
95603W        W54897  36.413  11.784   9.526
95604W        W54898  10.205  19.743  11.510
95605W        W54899  40.892   1.322   5.766
95606W        W54900   4.265   0.982   2.200
95607W        W54901   2.299  19.640   1.254
95608W        W54902  42.826  24.195   4.836
95609W        W54903  24.611  10.750   0.475
95610W        W54904   2.848  41.387   3.740
95611W        W54905  10.816  44.407  13.008
95612W        W54906  44.295  43.794  12.372
95613W        W54907  28.616  36.062   2.247
95614W        W54908   2.426  33.920   3.859
95615W        W54909   2.940  39.814   2.750
95616W        W54910  37.551  29.927  13.422
95617W        W54911  44.381  43.899  13.539
95618W        W54912  28.569  29.112   3.754
95619W        W54913  44.866  20.134  10.609
95620W        W54914  16.290  28.151  12.057
95621W        W54915  12.279  11.247   4.182
95622W        W54916  34.373  35.010   4.671
95623W        W54917  32.028  34.984  14.318
95624W        W54918  17.650  32.421  14.459
95625W        W54919  17.786  38.381   2.765
95626W        W54920  36.405  14.322  10.483
95627W        W54921  20.028  24.110  11.558
95628W        W54922  27.943  26.035   4.638
95629W        W54923  21.748   1.423  13.454
95630W        W54924  13.229  44.491   3.207
95631W        W54925  38.970  23.127  11.561
95632W        W54926   0.879  29.618   2.241
95633W        W54927  40.880   9.767  14.935
95634W        W54928  28.063   9.748  12.060
95635W        W54929  13.747  30.085   4.216
95636W        W54930  15.766   5.737   0.319
95637W        W54931   3.847  40.842   3.730
95638W        W54932  32.943  37.517  10.562
95639W        W54933   9.826   8.783   4.601
95640W        W54934  26.192  16.253  14.907
95641W        W54935  11.252  10.860  12.934
95642W        W54936   3.444  20.168  13.971
95643W        W54937   5.877  16.235   0.848
95644W        W54938   6.271  16.793   2.395
95645W        W54939  34.603   3.437  12.829
95646W        W54940   1.298   0.317  11.606
95647W        W54941  43.508  25.531  13.848
95648W        W54942  35.054  41.848  10.430
95649W        W54943  22.100  27.468   1.904
95650W        W54944  25.664  40.961  11.610
95651W        W54945  44.833   1.251  14.857
95652W        W54946  28.030  32.470  11.128
95653W        W54947  41.398  18.141  12.386
95654W        W54948  21.027  25.002   0.892
95655W        W54949  25.101  30.055  14.331
95656W        W54950  44.925  11.299   4.676
95657W        W54951  38.843  43.445  13.951
95658W        W54952   6.399  44.845  13.903
95659W        W54953  36.916  13.626  10.900
95660W        W54954  39.961  29.458   1.258
95661W        W54955  24.681  41.952   3.630
95662W        W54956   0.265  18.661   1.857
95663W        W54957   2.962  20.680   9.987
95664W        W54958   3.844  15.604  12.459
95665W        W54959  23.706  26.205  13.449
95666W        W54960  19.066  13.783  12.974
95667W        W54961  39.852   6.784   0.450
95668W        W54962   0.894   2.343  14.780
95669W        W54963   7.387  26.573   4.188
95670W        W54964  29.065   3.243  10.016
95671W        W54965  40.822  12.335   4.274
95672W        W54966  31.577  23.686   1.842
95673W        W54967  44.943  10.658   2.701
95674W        W54968  25.476  36.554  13.934
95675W        W54969   4.361  36.507   4.685
95676W        W54970  38.895  21.686  13.901
95677W        W54971   4.274  32.094   1.358
95678W        W54972   7.886  30.577   0.366
95679W        W54973  14.758  16.083  10.595
95680W        W54974  40.469  30.425  12.504
95681W        W54975  40.366  33.932  13.533
95682W        W54976  37.017  12.813  11.523
95683W        W54977  41.504  25.649  11.067
95684W        W54978  33.460  43.360   0.780
95685W        W54979  24.559  32.930   3.257
95686W        W54980  11.747  15.249  14.844
95687W        W54981   7.679   8.886   4.827
95688W        W54982  14.257  30.979  13.025
95689W        W54983   8.862  28.994  13.005
95690W        W54984   6.709  17.297  13.876
95691W        W54985   6.418  36.005  11.977
95692W        W54986  43.990  42.927   3.357
95693W        W54987  37.908  18.289   3.173
95694W        W54988  14.596  15.096  14.385
95695W        W54989  42.789  44.355  11.373
95696W        W54990  34.597   4.406   4.669
95697W        W54991   2.734  38.836  12.389
95698W        W54992  12.256  19.256  12.470
95699W        W54993  22.236   4.796  12.939
95700W        W54994  33.481  14.189  13.926
95701W        W54995  43.952  37.444  12.434
95702W        W54996  16.802  11.784   1.418
95703W        W54997  14.663  29.520  14.773
95704W        W54998  29.146  32.886  13.944
95705W        W54999  25.688   6.727  11.412
95706W        W55000  18.630  11.836  11.063
95707W        W55001  16.248   1.837   1.826
95708W        W55002  21.063  20.640  11.564
95709W        W55003  24.149  13.227  12.579
95710W        W55004  39.453  17.764  13.896
95711W        W55005  10.377  22.124  10.478
95712W        W55006  14.607  27.973  10.051
95713W        W55007  40.967   7.809  11.893
95714W        W55008  28.067   4.243   0.252
95715W        W55009  39.824  39.525   0.313
95716W        W55010  14.201  34.037   0.856
95717W        W55011   1.883   6.689  14.897
95718W        W55012   7.371  12.306  14.511
95719W        W55013  16.230  28.460   0.887
95720W        W55014  38.865  32.050  11.467
95721W        W55015  20.177  12.749   2.229
95722W        W55016  29.039  15.249  14.323
95723W        W55017   9.358  10.205  13.922
95724W        W55018   6.355  15.582   5.285
95725W        W55019  24.577  18.638   1.727
95726W        W55020  19.560  36.507   1.773
95727W        W55021  43.474  41.983  11.858
95728W        W55022   4.415  21.258  13.534
95729W        W55023   0.280  14.282  10.913
95730W        W55024  26.131  28.971  12.559
95731W        W55025  25.542  26.953  11.924
95732W        W55026  44.818   8.736   1.262
95733W        W55027  34.002  34.948   2.179
95734W        W55028  37.342  14.136   1.384
95735W        W55029  16.238   6.857  13.930
95736W        W55030  41.852   2.959   4.725
95737W        W55031  12.195  35.584  13.527
95738W        W55032  19.576   5.221   0.299
95739W        W55033  38.340  15.227   3.277
95740W        W55034   9.377  41.810   4.741
95741W        W55035  32.992  11.140  10.994
95742W        W55036   7.825  12.704   0.363
95743W        W55037   1.876  20.705   2.190
95744W        W55038   6.214  41.900   2.736
95745W        W55039  42.292  28.948   3.845
95746W        W55040  27.994  12.646   1.351
95747W        W55041   9.165  16.281  14.952
95748W        W55042   2.403   3.423  11.521
95749W        W55043  21.107   1.334  13.908
95750W        W55044  17.586  11.645   3.644
95751W        W55045   6.394  30.501   2.411
95752W        W55046  31.505  25.185   2.275
95753W        W55047  33.571  16.628  10.515
95754W        W55048  44.009  40.350  14.984
95755W        W55049  20.681  39.928  10.416
95756W        W55050  17.767   3.327  12.991
95757W        W55051  11.650  22.226  14.805
95758W        W55052  31.104   2.943   1.295
95759W        W55053   2.723  10.799  12.825
95760W        W55054  35.593  43.937  11.516
95761W        W55055   6.754  28.565  10.903
95762W        W55056  27.677  42.912   1.225
95763W        W55057   5.354  30.919   4.307
95764W        W55058   2.953  26.014  11.062
95765W        W55059  34.097  12.731   1.334
95766W        W55060  30.132  25.037  11.504
95767W        W55061  34.084   2.419   4.123
95768W        W55062  28.676   5.304  14.922
95769W        W55063  25.196  23.241   3.639
95770W        W55064   3.449  34.073  14.998
95771W        W55065  24.178  28.600  13.025
95772W        W55066  27.948  20.082  13.991
95773W        W55067  44.439   4.314  12.891
95774W        W55068   0.281  13.269   0.452
95775W        W55069  39.827  10.243  13.420
95776W        W55070   5.726  20.201  13.322
95777W        W55071  33.466  40.453  13.978
95778W        W55072  12.126   1.280   3.367
95779W        W55073   7.855  15.777   4.665
95780W        W55074   2.413  17.304   2.189
95781W        W55075  15.784  11.865  12.853
95782W        W55076  42.822  18.141   2.187
95783W        W55077  40.045  21.598   0.938
95784W        W55078  25.540   6.413   4.747
95785W        W55079  42.869  27.985  11.905
95786W        W55080  29.090  24.158  11.995
95787W        W55081  30.420  17.063  12.554
95788W        W55082  18.591  12.271   2.281
95789W        W55083  29.446   2.908  12.965
95790W        W55084  25.704  39.893   0.801
95791W        W55085  31.012  33.954   2.352
95792W        W55086  42.461  11.730  11.571
95793W        W55087   5.353  22.246   5.181
95794W        W55088  42.786  33.562   0.807
95795W        W55089   0.753   8.725  12.418
95796W        W55090  15.276   7.234  13.530
95797W        W55091  36.489  35.558  13.010
95798W        W55092  25.096  33.029  14.992
95799W        W55093   6.877  36.004  13.887
95800W        W55094  41.864  28.036   5.130
95801W        W55095  26.076  20.149   0.285
95802W        W55096  33.526  25.980   4.707
95803W        W55097  15.792  37.857  12.839
95804W        W55098  12.218  29.467  13.546
95805W        W55099  38.892  25.031   4.282
95806W        W55100   9.679  43.918  12.567
95807W        W55101  23.646  18.782   2.748
95808W        W55102  17.558   9.752  12.535
95809W        W55103  30.061   1.477  14.447
95810W        W55104  20.745  24.043   0.284
95811W        W55105  16.593  16.705  13.530
95812W        W55106  21.231  32.405  13.951
95813W        W55107   0.834  29.649  10.614
95814W        W55108  16.172  29.101   3.657
95815W        W55109  33.521  39.530   2.780
95816W        W55110  31.142  43.381   1.401
95817W        W55111  21.044  39.914  14.834
95818W        W55112   1.871  41.509  10.441
95819W        W55113  13.347  21.141  10.935
95820W        W55114  30.473  14.307  12.373
95821W        W55115  33.928  36.948  12.937
95822W        W55116   2.283  16.630   1.374
95823W        W55117  15.629   9.727   2.247
95824W        W55118  36.546  17.199   4.813
95825W        W55119  34.379   9.883  10.968
95826W        W55120  17.706  21.147  13.864
95827W        W55121  20.615  38.328   0.823
95828W        W55122   5.740  39.514  13.330
95829W        W55123   4.222  43.453   3.292
95830W        W55124  10.778  31.422   1.866
95831W        W55125  35.573  40.033  12.999
95832W        W55126  14.101  18.588  10.463
95833W        W55127  34.429   8.326   3.172
95834W        W55128  39.983  10.805  14.836
95835W        W55129  34.599  38.039   2.709
95836W        W55130  10.878   4.388   1.220
95837W        W55131  26.546  42.804  11.071
95838W        W55132  24.136  35.569  11.866
95839W        W55133  44.974   3.895  10.148
95840W        W55134   2.438  24.555  13.528
95841W        W55135  28.588  18.110  11.915
95842W        W55136  31.589  40.410  14.838
95843W        W55137   0.929  22.080   0.255
95844W        W55138  37.385   9.243   2.339
95845W        W55139   3.781   1.288  11.490
95846W        W55140  16.783   0.423  10.967
95847W        W55141   6.335   5.290  13.462
95848W        W55142  23.132  24.164  13.447
95849W        W55143  35.435  11.254  12.857
95850W        W55144  23.984  15.653   3.843
95851W        W55145  12.837  40.852  14.814
95852W        W55146  38.551  11.854   1.720
95853W        W55147   7.716  38.070   2.879
95854W        W55148  41.469  20.090  13.004
95855W        W55149  30.066   0.304  14.484
95856W        W55150  17.093   5.890   2.743
95857W        W55151  20.722  19.780   3.205
95858W        W55152  19.110  42.940   2.699
95859W        W55153  42.362   9.765   4.772
95860W        W55154  44.825   9.794  11.045
95861W        W55155   9.261   6.811  12.366
95862W        W55156   4.402   0.303  14.963
95863W        W55157  36.537  10.675   0.413
95864W        W55158   9.798  24.077  12.829
95865W        W55159  44.970  19.242   1.807
95866W        W55160  41.837   2.351   1.808
95867W        W55161  28.183   2.273   3.301
95868W        W55162  24.663  18.666  14.930
95869W        W55163  39.914  28.570   1.895
95870W        W55164  10.153  31.076  14.383
95871W        W55165  13.661  32.062   1.375
95872W        W55166  27.462  41.385  11.063
95873W        W55167  37.039  11.853   3.798
95874W        W55168   8.296  17.138   1.314
95875W        W55169  24.555   6.912   1.249
95876W        W55170  44.898  43.473   1.422
95877W        W55171  19.243   0.842   3.681
95878W        W55172   2.348  44.967  10.445
95879W        W55173   3.784  26.464   3.787
95880W        W55174  25.057  25.122   1.385
95881W        W55175  33.432  10.356  12.911
95882W        W55176  21.181  22.240  14.409
95883W        W55177  17.724  15.749  13.832
95884W        W55178  35.458  19.246  11.970
95885W        W55179  36.988  28.549  12.923
95886W        W55180  36.479  32.521   2.373
95887W        W55181  17.145  13.705   1.436
95888W        W55182  20.589  14.678  14.355
95889W        W55183   1.368  22.710   1.784
95890W        W55184  42.855  16.662   2.285
95891W        W55185  24.665   2.361  10.542
95892W        W55186  42.930  34.040  12.917
95893W        W55187  39.946   2.780   4.797
95894W        W55188  14.210  37.925   2.216
95895W        W55189  24.015  22.220   0.728
95896W        W55190  27.486  39.533   0.255
95897W        W55191  43.021  40.493   0.286
95898W        W55192  15.807  16.664   0.257
95899W        W55193  33.487  32.415   0.926
95900W        W55194  24.076  24.098  14.794
95901W        W55195  12.322   7.374   1.255
95902W        W55196  16.112  32.418   1.755
95903W        W55197   5.338  19.096   2.196
95904W        W55198   3.318  32.931  11.537
95905W        W55199  23.659  21.188  13.510
95906W        W55200  10.335   8.821   4.279
95907W        W55201  18.248  15.097   1.865
95908W        W55202  26.020  41.995  13.335
95909W        W55203  39.523  13.696   3.285
95910W        W55204  44.777   4.911  11.480
95911W        W55205  32.468   4.823   0.750
95912W        W55206  20.594  26.972   3.375
95913W        W55207  32.091   0.970   2.775
95914W        W55208  21.667  44.392   3.701
95915W        W55209  29.429  13.246   2.363
95916W        W55210  35.001   3.278   4.836
95917W        W55211  19.174  32.989  13.060
95918W        W55212   9.155  27.461  10.592
95919W        W55213  30.531   6.799   2.684
95920W        W55214  21.721   9.296  12.538
95921W        W55215  38.896  41.949   9.951
95922W        W55216   4.743  24.147   4.314
95923W        W55217  35.456  35.556  13.921
95924W        W55218  19.205   8.291  10.924
95925W        W55219  39.422   6.372   1.416
95926W        W55220  14.605  16.575  12.976
95927W        W55221  35.398  28.570  13.355
95928W        W55222  35.024  35.438   1.878
95929W        W55223  30.958  16.240   4.245
95930W        W55224  14.652   5.232   2.894
95931W        W55225  34.998   0.934   1.795
95932W        W55226   6.199  30.004   4.215
95933W        W55227  26.172  14.146  10.945
95934W        W55228  31.450   1.940  10.559
95935W        W55229  34.512  33.091  13.799
95936W        W55230  31.570   4.906   4.813
95937W        W55231   6.320  19.684   5.598
95938W        W55232  15.679  10.192  12.502
95939W        W55233  12.728  32.485  14.969
95940W        W55234  21.052  33.888  11.502
95941W        W55235  42.891  21.137   3.786
95942W        W55236  43.887  24.001  14.791
95943W        W55237  32.473  37.439   0.392
95944W        W55238  26.674  21.091  13.487
95945W        W55239   5.720  40.974   0.379
95946W        W55240   3.222   9.741  10.894
95947W        W55241   5.888   2.381   0.747
95948W        W55242  31.124  16.172   3.779
95949W        W55243  15.611   7.195   2.380
95950W        W55244   7.187   9.347  12.879
95951W        W55245  12.257  37.579  11.611
95952W        W55246   4.891  22.510   1.750
95953W        W55247  21.178  41.426  10.891
95954W        W55248  29.081   3.756  12.028
95955W        W55249   6.733  37.525  12.568
95956W        W55250   2.465   5.264   2.679
95957W        W55251  19.255   7.379  12.960
95958W        W55252  21.553  14.795   3.347
95959W        W55253  20.056  26.548  14.299
95960W        W55254   6.195   2.472   4.640
95961W        W55255  32.443   6.690   1.293
95962W        W55256  19.161  14.193   2.804
95963W        W55257  32.073  21.247  12.544
95964W        W55258  21.610  35.856  11.015
95965W        W55259  31.608  15.615  10.906
95966W        W55260  39.362  15.316  13.004
95967W        W55261  42.896   9.197   3.230
95968W        W55262  21.741  25.673   0.864
95969W        W55263  30.413  25.045  11.572
95970W        W55264  20.654   2.857  10.501
95971W        W55265  10.766  36.909  11.989
95972W        W55266  35.600  21.074  14.370
95973W        W55267   2.429   5.752  11.499
95974W        W55268  12.851  17.290  13.399
95975W        W55269  44.306  20.110   0.922
95976W        W55270  14.271  24.575   2.680
95977W        W55271  16.667  21.108   2.676
95978W        W55272  43.277   2.743  12.926
95979W        W55273   0.860   5.202   2.321
95980W        W55274   6.422  13.186  11.859
95981W        W55275  35.522  11.348  12.374
95982W        W55276   7.209  37.848  14.472
95983W        W55277  13.328   1.254   4.162
95984W        W55278  23.108  30.918  13.903
95985W        W55279  17.648   2.244  10.555
95986W        W55280  23.023   9.860  14.016
95987W        W55281   5.808  13.769   1.827
95988W        W55282  18.249   0.853  14.351
95989W        W55283  29.558  43.865  13.341
95990W        W55284  11.655  12.643   4.254
95991W        W55285  20.591  43.393  10.999
95992W        W55286  22.616  43.470   4.167
95993W        W55287  40.540  41.451  14.991
95994W        W55288  21.209   3.215   1.694
95995W        W55289   0.332  12.227  12.055
95996W        W55290  15.584  14.272  14.358
95997W        W55291  10.758  24.185  11.859
95998W        W55292  29.988  10.807   2.720
95999W        W55293  19.270   2.279  14.905
96000W        W55294  15.771  16.095  13.059
96001W        W55295  20.128  21.628   5.779
96002W        W55296  41.818  14.127   2.883
96003W        W55297   1.305  23.175  10.924
96004W        W55298  11.699  44.806   1.378
96005W        W55299  12.119  14.666  11.104
96006W        W55300  14.827  36.953  13.371
96007W        W55301  24.599  26.473   1.721
96008W        W55302  27.665  28.988   4.258
96009W        W55303   2.778   5.744  11.019
96010W        W55304  17.300  31.554   1.714
96011W        W55305  17.675  18.690   4.246
96012W        W55306   8.832  44.982  11.055
96013W        W55307  18.153  42.292   4.178
96014W        W55308  25.213   6.708  13.833
96015W        W55309  25.127   8.160   2.233
96016W        W55310  36.423  43.462  11.432
96017W        W55311  37.373   1.806  13.373
96018W        W55312  16.704  13.195  12.863
96019W        W55313  10.786   2.243  10.541
96020W        W55314   5.342  18.779  10.030
96021W        W55315   5.419  23.735  12.420
96022W        W55316  42.292  34.000  14.468
96023W        W55317  15.588  14.175  14.857
96024W        W55318  18.053  27.088  14.961
96025W        W55319  40.857  12.650  12.552
96026W        W55320  14.673  23.114  13.857
96027W        W55321  32.038  28.533   4.603
96028W        W55322  41.313  26.538   1.427
96029W        W55323  18.162  14.271  13.887
96030W        W55324  19.749  26.689  13.387
96031W        W55325   8.290  29.017  14.380
96032W        W55326  23.194  13.247   0.938
96033W        W55327  27.969  28.086   0.309
96034W        W55328  27.687  27.525  11.502
96035W        W55329   2.355  35.920  13.990
96036W        W55330   3.405  38.949   1.703
96037W        W55331  33.497  31.047   1.403
96038W        W55332  10.673  20.583   0.280
96039W        W55333  32.575  35.580   4.195
96040W        W55334  11.214  10.739  11.408
96041W        W55335  21.629   1.804   4.792
96042W        W55336  43.456  39.499   2.277
96043W        W55337  10.369  39.814   2.215
96044W        W55338  15.183  32.442  13.495
96045W        W55339  35.879  26.523  10.464
96046W        W55340   3.358   3.399   3.695
96047W        W55341  32.100  22.083  14.317
96048W        W55342  11.319  26.138  12.827
96049W        W55343   7.354  11.131   4.818
96050W        W55344  27.025  36.403   2.895
96051W        W55345   6.427   8.209  11.893
96052W        W55346  17.222  20.173  11.578
96053W        W55347   3.406  43.915  14.468
96054W        W55348  17.241  37.957  11.862
96055W        W55349  13.754  16.579   1.778
96056W        W55350  13.300  33.028   0.339
96057W        W55351   9.185   8.164  11.567
96058W        W55352  19.719  41.393  13.362
96059W        W55353  44.503  34.031   3.164
96060W        W55354  25.067  30.113  10.983
96061W        W55355   2.908   5.395  11.580
96062W        W55356   4.449  27.635   0.289
96063W        W55357  21.173  14.276  13.477
96064W        W55358  29.517   2.795  14.818
96065W        W55359  26.610  30.529   0.908
96066W        W55360  18.599   5.825  13.531
96067W        W55361   2.244  43.510  14.803
96068W        W55362  31.923  23.716   3.200
96069W        W55363  10.360  20.072  12.482
96070W        W55364  27.668   4.847  10.524
96071W        W55365  19.220  33.107   0.809
96072W        W55366  22.197   5.414  14.289
96073W        W55367   6.226  12.734   2.835
96074W        W55368  40.860  29.447  14.004
96075W        W55369  37.395  30.619   3.332
96076W        W55370   5.336  20.131   2.210
96077W        W55371  36.386  21.734  11.877
96078W        W55372  17.231  26.007  11.541
96079W        W55373  39.364  28.548  13.526
96080W        W55374  22.732  40.827  12.870
96081W        W55375  19.123  13.268   9.990
96082W        W55376   8.269  38.853  11.989
96083W        W55377   8.261  32.140  11.971
96084W        W55378   2.951  21.605  14.808
96085W        W55379  16.697   1.901   1.423
96086W        W55380   3.918   9.809  13.412
96087W        W55381  16.673   5.706  10.598
96088W        W55382  33.579  28.080  14.378
96089W        W55383  12.281  31.518   2.353
96090W        W55384  33.422  44.852  14.483
96091W        W55385   6.859  39.848  11.583
96092W        W55386  13.214  36.885  11.381
96093W        W55387   0.390  14.178  14.440
96094W        W55388  43.853  43.374   4.335
96095W        W55389  27.108  15.204   2.274
96096W        W55390  38.835   7.718   3.228
96097W        W55391   3.245  22.727   2.732
96098W        W55392  29.663  30.553  13.895
96099W        W55393  33.593  21.027  10.542
96100W        W55394  22.744  37.028  14.835
96101W        W55395  26.518  25.622  11.883
96102W        W55396   2.965  29.072   3.663
96103W        W55397  10.269  26.119   3.630
96104W        W55398  25.211  33.441   1.218
96105W        W55399  24.064  26.502  11.572
96106W        W55400  12.128  25.689  14.280
96107W        W55401  14.149   7.897  13.859
96108W        W55402  26.539   5.761  10.549
96109W        W55403   2.330   3.357  14.793
96110W        W55404  30.611   9.166   4.793
96111W        W55405  32.118  12.290  13.345
96112W        W55406   1.264   7.372   4.807
96113W        W55407  16.196  16.585   2.726
96114W        W55408  16.599   6.708  12.968
96115W        W55409  35.035  20.536  11.008
96116W        W55410  42.803   3.757   1.730
96117W        W55411   0.406   5.285  10.973
96118W        W55412   8.194  17.077  11.079
96119W        W55413  44.806  13.122   0.268
96120W        W55414  17.129  21.175  11.920
96121W        W55415   6.402   3.366   0.353
96122W        W55416  41.501   8.758  11.505
96123W        W55417   2.380   8.292  11.410
96124W        W55418  20.032  28.560  11.445
96125W        W55419  29.528   3.930  11.924
96126W        W55420  26.482  17.627  12.366
96127W        W55421   1.746  20.737   0.249
96128W        W55422  42.003  42.832  13.037
96129W        W55423  31.643  28.172   2.807
96130W        W55424  16.795  25.162   0.822
96131W        W55425  38.826  10.181  14.296
96132W        W55426  33.476  33.566  14.341
96133W        W55427  35.079  35.056  14.420
96134W        W55428  35.460   5.715   0.797
96135W        W55429  42.833  19.273  13.805
96136W        W55430  25.058  16.690   0.421
96137W        W55431   8.831  27.450  14.358
96138W        W55432  11.779   8.881   4.242
96139W        W55433   0.815  16.668  14.486
96140W        W55434  23.576  35.037  10.930
96141W        W55435   2.938  15.789  13.903
96142W        W55436  21.114   4.943   4.785
96143W        W55437  40.534  26.962   4.326
96144W        W55438  34.614   5.392   2.763
96145W        W55439   6.771   7.264  14.955
96146W        W55440   7.716  23.727   1.761
96147W        W55441  31.062   5.910   2.388
96148W        W55442  22.123  28.532  13.343
96149W        W55443   6.219  10.848   1.376
96150W        W55444  28.135  14.119  14.814
96151W        W55445  16.315  12.240   1.918
96152W        W55446  18.087   7.278   3.194
96153W        W55447  19.627  11.668   4.738
96154W        W55448  31.116   6.255   1.733
96155W        W55449   3.766  38.894  13.378
96156W        W55450  34.480  24.655  13.023
96157W        W55451  43.983  37.054   2.262
96158W        W55452  24.553  26.606   3.335
96159W        W55453  33.479   4.713   3.660
96160W        W55454  18.755  30.070   4.793
96161W        W55455   8.656  32.988   3.224
96162W        W55456  39.964   8.719  11.036
96163W        W55457  42.873  25.043   1.323
96164W        W55458  32.092  12.315  11.440
96165W        W55459  14.143  16.665   2.789
96166W        W55460   7.317  38.876   2.300
96167W        W55461  35.483   9.803  14.768
96168W        W55462   2.359   4.816   1.341
96169W        W55463   9.316  33.431   2.788
96170W        W55464  24.139  32.977   1.772
96171W        W55465  34.589  23.081   3.813
96172W        W55466  31.061  38.912  10.989
96173W        W55467  26.634   2.238   0.868
96174W        W55468  26.522  11.267  13.818
96175W        W55469  42.886  24.613   3.360
96176W        W55470  11.196  22.710   1.313
96177W        W55471  37.898   3.457   3.721
96178W        W55472  22.022  31.415  14.889
96179W        W55473  29.630  42.948  14.410
96180W        W55474  13.138  43.966  14.790
96181W        W55475   6.730   3.276  14.479
96182W        W55476  44.828   0.437   3.167
96183W        W55477   3.356  41.019   1.278
96184W        W55478  31.931  29.099   0.404
96185W        W55479   5.754  22.173   2.290
96186W        W55480  34.887   0.849  12.362
96187W        W55481  11.851  27.984   4.634
96188W        W55482  32.465  17.276  11.983
96189W        W55483  39.407   1.374   2.747
96190W        W55484  35.488   9.250  13.816
96191W        W55485  14.196   5.810   1.934
96192W        W55486  10.876  41.851   4.721
96193W        W55487  41.801  15.114  14.818
96194W        W55488  16.122   0.747  12.025
96195W        W55489  28.937  12.352   2.306
96196W        W55490   5.761  24.537  11.084
96197W        W55491  11.649  21.559   1.278
96198W        W55492  14.630   3.257  14.855
96199W        W55493  21.116  30.418   3.656
96200W        W55494  16.719  44.287  14.783
96201W        W55495  22.608  37.566  14.303
96202W        W55496  19.681  20.545   9.979
96203W        W55497  14.258  31.108   0.414
96204W        W55498  43.498  29.524  11.085
96205W        W55499  29.658  43.283   0.774
96206W        W55500  23.530   4.801   4.628
96207W        W55501  21.729  37.948  11.543
96208W        W55502   2.449   1.904  10.475
96209W        W55503  17.099   8.405  11.490
96210W        W55504   3.772  19.725  10.942
96211W        W55505  11.311  43.338  14.871
96212W        W55506  31.932  40.447   0.469
96213W        W55507  33.396  33.875  10.473
96214W        W55508   6.879  22.079   3.752
96215W        W55509  12.789   4.268   2.716
96216W        W55510  43.324   8.168   3.382
96217W        W55511  23.054  39.937   0.767
96218W        W55512  22.010  36.412   2.875
96219W        W55513  34.103  40.418  14.795
96220W        W55514  12.845   4.760  12.980
96221W        W55515  36.986  31.505  10.504
96222W        W55516  21.682   0.911  11.061
96223W        W55517  15.642  24.196   1.246
96224W        W55518   5.795  23.521   3.831
96225W        W55519  36.965  12.277   0.749
96226W        W55520  35.558  34.576   2.255
96227W        W55521  17.670  31.086   1.422
96228W        W55522  41.337  35.872   4.215
96229W        W55523   0.341  25.996   2.370
96230W        W55524  39.030  14.223  14.030
96231W        W55525   0.834  32.020  10.932
96232W        W55526  22.643  42.882  12.938
96233W        W55527   3.724   6.704   2.754
96234W        W55528  34.959  17.080   2.715
96235W        W55529   1.421  16.256   2.903
96236W        W55530  19.227  27.564   3.282
96237W        W55531  22.157  44.382  13.930
96238W        W55532  31.426  26.094   0.470
96239W        W55533   4.214   9.767   3.189
96240W        W55534  13.740   4.397  12.983
96241W        W55535  24.503  15.316  13.489
96242W        W55536   5.788  30.145   1.749
96243W        W55537  29.153  18.266   1.796
96244W        W55538  43.011  31.150  13.398
96245W        W55539  22.728  21.160   3.373
96246W        W55540  24.046  13.630   1.740
96247W        W55541   2.337   7.874  13.816
96248W        W55542  11.701  38.373   3.686
96249W        W55543  32.528   9.156   1.340
96250W        W55544  20.607  22.686  14.898
96251W        W55545  12.762  11.342   0.754
96252W        W55546  12.652  19.711  12.016
96253W        W55547   4.443  31.562  14.478
96254W        W55548  38.823   9.666   9.492
96255W        W55549  22.514  32.943  11.954
96256W        W55550  40.305   4.304  14.941
96257W        W55551  41.344  38.910  13.400
96258W        W55552  29.130  14.181  13.339
96259W        W55553  16.646  11.155   0.807
96260W        W55554  44.455  32.918   9.965
96261W        W55555  34.045  22.548  14.782
96262W        W55556   0.985  43.317  13.453
96263W        W55557  20.157  36.542   1.346
96264W        W55558  22.076  14.676  11.090
96265W        W55559  28.534  25.529   3.810
96266W        W55560   4.808  21.736  10.503
96267W        W55561  17.131  39.864   3.833
96268W        W55562   5.197  42.327   3.637
96269W        W55563  40.934  18.152   0.334
96270W        W55564  25.587  20.534  13.460
96271W        W55565  14.735  28.603  11.063
96272W        W55566   1.276  14.708   0.479
96273W        W55567  32.631  28.479   4.784
96274W        W55568  18.144   9.806   0.461
96275W        W55569  35.538  39.392  10.913
96276W        W55570   6.230  13.191  13.869
96277W        W55571  41.893  39.508   2.738
96278W        W55572  20.193  15.650   4.253
96279W        W55573  32.596  24.200  13.951
96280W        W55574  18.720  18.648   3.334
96281W        W55575  25.467  18.112   4.648
96282W        W55576  30.996  32.443  11.114
96283W        W55577  12.836  41.029  10.446
96284W        W55578  15.642  26.579  12.980
96285W        W55579   5.845  39.041   0.804
96286W        W55580   6.390  38.872   2.839
96287W        W55581   8.188  30.472   2.784
96288W        W55582  24.038  22.572   2.847
96289W        W55583  21.653  19.255   0.334
96290W        W55584  39.889  38.981  12.886
96291W        W55585  34.533   3.938   3.669
96292W        W55586  28.631  40.492  10.607
96293W        W55587  28.635  32.519   2.875
96294W        W55588   3.865   1.279   1.216
96295W        W55589  37.969  26.634  11.468
96296W        W55590  28.592  10.811   2.402
96297W        W55591   8.187   4.810   3.683
96298W        W55592  42.401  29.924   2.216
96299W        W55593   5.428  40.948  14.346
96300W        W55594  34.500  40.004   4.119
96301W        W55595  27.461  31.992  12.891
96302W        W55596  29.093  22.601   1.859
96303W        W55597  22.075  39.341   4.630
96304W        W55598  24.046  16.650   3.237
96305W        W55599  25.594  21.069   4.133
96306W        W55600   3.410  44.286   3.324
96307W        W55601  44.772   4.881   2.885
96308W        W55602  39.419  41.527   4.353
96309W        W55603  37.555   3.409   2.804
96310W        W55604  24.548  33.132  11.421
96311W        W55605   7.355  31.571   5.321
96312W        W55606  13.740   2.418   3.252
96313W        W55607  37.553  30.954  14.309
96314W        W55608  34.416  16.102   2.228
96315W        W55609   0.315  34.940   3.177
96316W        W55610  31.150  14.694  14.330
96317W        W55611  29.436  25.072  12.063
96318W        W55612  36.471  23.184  12.073
96319W        W55613  30.067   0.459   3.631
96320W        W55614  15.727  34.961  10.128
96321W        W55615  11.845  31.978  13.954
96322W        W55616  23.708  26.595   0.466
96323W        W55617   6.184  35.504   2.767
96324W        W55618  25.113  42.432  13.936
96325W        W55619  16.313  21.710   1.328
96326W        W55620  14.592  43.922   0.390
96327W        W55621   0.303  21.752  13.996
96328W        W55622   7.321   6.731   0.416
96329W        W55623  39.938  31.639  14.432
96330W        W55624  12.815  24.550  11.564
96331W        W55625  25.687  39.968   2.377
96332W        W55626  32.929  15.115   0.358
96333W        W55627  27.556  32.978  14.870
96334W        W55628  21.693   1.913   5.273
96335W        W55629  24.639  35.520  14.370
96336W        W55630   1.869   2.386   4.351
96337W        W55631   1.973  20.089  14.761
96338W        W55632  15.736  36.871   2.857
96339W        W55633  16.167   4.764  12.079
96340W        W55634   1.844  19.675   3.755
96341W        W55635  18.566   3.320  12.458
96342W        W55636  42.984  36.474   1.311
96343W        W55637  36.422   0.357   2.379
96344W        W55638  11.789  14.277   3.747
96345W        W55639  42.883  42.511   0.880
96346W        W55640  15.822  35.393   1.825
96347W        W55641  44.401  27.129   0.450
96348W        W55642  17.253  28.620   3.719
96349W        W55643  31.603  26.620   4.711
96350W        W55644  40.495  39.833  13.477
96351W        W55645   5.392  26.085  13.437
96352W        W55646  31.067  12.271  14.477
96353W        W55647  43.279  37.349  10.149
96354W        W55648  33.978  31.574   4.269
96355W        W55649  41.537  22.051   2.800
96356W        W55650   4.927  16.597   4.612
96357W        W55651  22.209  14.620  12.949
96358W        W55652  27.059  39.876   0.313
96359W        W55653  43.773  40.942   1.236
96360W        W55654  26.020  12.817   2.249
96361W        W55655  32.119   7.367  13.913
96362W        W55656  43.317  16.148   0.847
96363W        W55657  42.509  41.926   0.404
96364W        W55658  27.981  24.214   1.759
96365W        W55659  38.954   5.717  13.828
96366W        W55660  17.212  37.882   2.321
96367W        W55661  43.384   1.309   3.791
96368W        W55662  33.979  40.339   1.313
96369W        W55663   1.312   9.191  13.927
96370W        W55664  27.532  34.085   2.860
96371W        W55665   5.872  43.495   1.302
96372W        W55666  44.897  18.613   3.373
96373W        W55667   8.346  35.478   2.344
96374W        W55668  21.182  23.206  12.520
96375W        W55669  20.109  40.018  13.381
96376W        W55670   2.945   0.987  14.338
96377W        W55671   5.847  11.308   1.845
96378W        W55672  14.144   6.914   4.152
96379W        W55673  10.294  38.350  10.622
96380W        W55674  27.105  34.417  13.382
96381W        W55675  22.168  39.398  14.832
96382W        W55676  34.969  36.937   1.868
96383W        W55677   4.400  25.059   2.765
96384W        W55678  18.265  37.494  12.044
96385W        W55679   2.448   4.940   3.755
96386W        W55680  33.415  11.177  12.066
96387W        W55681  18.736  13.318  14.325
96388W        W55682  32.392   7.314   1.394
96389W        W55683   2.268   3.314   1.382
96390W        W55684  22.214  11.370   2.782
96391W        W55685  30.427   8.358   1.315
96392W        W55686  39.967  15.245   3.769
96393W        W55687  13.711  31.907   4.777
96394W        W55688   6.404  19.083  14.331
96395W        W55689  13.621   8.879  14.488
96396W        W55690  21.096  27.541  13.997
96397W        W55691  21.678  43.918  11.581
96398W        W55692   4.744  13.610  11.527
96399W        W55693  30.132   1.972  12.527
96400W        W55694  35.029  31.901  14.802
96401W        W55695  36.006  32.619  11.557
96402W        W55696  36.908   6.732  11.410
96403W        W55697  25.676   9.264   1.248
96404W        W55698  10.820  28.076  12.932
96405W        W55699  28.478  39.048  12.407
96406W        W55700  16.746   1.312  14.312
96407W        W55701  10.324   3.932   3.719
96408W        W55702   2.273  34.416   0.359
96409W        W55703  12.357   5.884  14.947
96410W        W55704  14.663  40.338  14.293
96411W        W55705  12.776   0.807  13.993
96412W        W55706   4.867   3.427  13.454
96413W        W55707   0.344  32.052   2.296
96414W        W55708  23.128   8.317   1.763
96415W        W55709  30.037   8.695   3.345
96416W        W55710  13.809  21.596  12.979
96417W        W55711  10.150  13.296   4.637
96418W        W55712  38.871  28.586  14.838
96419W        W55713  44.280  42.013  13.319
96420W        W55714  44.408  20.728  10.559
96421W        W55715  14.727  22.127  12.952
96422W        W55716  19.740  10.185   2.407
96423W        W55717   4.829  28.631  12.451
96424W        W55718  10.332  33.048   3.170
96425W        W55719  42.007   6.716  13.874
96426W        W55720  36.465  25.713   1.236
96427W        W55721  38.547  37.460   0.260
96428W        W55722  12.810  15.099  13.403
96429W        W55723  20.261  34.563   2.374
96430W        W55724  14.222  27.659   3.247
96431W        W55725  38.512  20.111   1.857
96432W        W55726  38.521  44.907   0.933
96433W        W55727  35.557  33.961  14.450
96434W        W55728  42.390  27.988   1.320
96435W        W55729  26.983   4.938  12.042
96436W        W55730  41.520  18.607  13.824
96437W        W55731  18.103  31.581   3.294
96438W        W55732   4.429  24.622  12.945
96439W        W55733   0.750   9.178  14.326
96440W        W55734  12.182  41.421  13.990
96441W        W55735  40.507  34.452   2.223
96442W        W55736  31.980  19.270   4.293
96443W        W55737   1.445  42.284   3.379
96444W        W55738   8.750  22.563   0.385
96445W        W55739   5.836   6.685  13.870
96446W        W55740   2.259  29.442   1.264
96447W        W55741  37.514  37.381   4.746
96448W        W55742   6.287  13.174  14.926
96449W        W55743  26.172   7.851  14.945
96450W        W55744  44.817  42.918  12.932
96451W        W55745  22.536  43.874  14.437
96452W        W55746  14.612  44.268   4.132
96453W        W55747  12.815  24.712  13.831
96454W        W55748  30.913   7.760  11.989
96455W        W55749  26.090  25.684   1.891
96456W        W55750  23.072  34.372   4.652
96457W        W55751  18.632  11.864  11.508
96458W        W55752  22.746  34.080   3.201
96459W        W55753  20.032   0.289   1.865
96460W        W55754  28.977  38.447  14.503
96461W        W55755   7.287   3.247   3.301
96462W        W55756  38.441   5.750   4.761
96463W        W55757   9.222  39.977   4.803
96464W        W55758  14.256  21.537  10.529
96465W        W55759  20.244  30.150  12.405
96466W        W55760  22.995  28.505  12.997
96467W        W55761  12.650  30.435   5.321
96468W        W55762  28.454   3.452  12.881
96469W        W55763  35.464  32.120  10.891
96470W        W55764  14.758  14.227  14.388
96471W        W55765   9.662  35.580   2.266
96472W        W55766  43.425   9.711  11.055
96473W        W55767  32.895  31.899   1.444
96474W        W55768  36.089  36.425   3.794
96475W        W55769  38.464  38.392   1.725
96476W        W55770  42.310  43.908  11.919
96477W        W55771   5.357   1.901  11.431
96478W        W55772  12.640  39.447  13.328
96479W        W55773   0.467  14.738   1.811
96480W        W55774  25.670  40.813   9.920
96481W        W55775  11.255  10.246  14.488
96482W        W55776  37.898  26.078  14.865
96483W        W55777  35.881  12.702  14.032
96484W        W55778  22.156  17.264   2.868
96485W        W55779  33.593  28.950  13.961
96486W        W55780  13.680  10.168  14.012
96487W        W55781  27.685  24.181   2.773
96488W        W55782  29.625  13.714  14.474
96489W        W55783  12.656   0.378   4.627
96490W        W55784  11.262  17.136   2.415
96491W        W55785   5.308  16.283   3.269
96492W        W55786  43.331  21.054   2.848
96493W        W55787   6.782  12.139   4.720
96494W        W55788  14.320  24.190   9.985
96495W        W55789  17.250  21.686   4.773
96496W        W55790  17.231  22.156  12.036
96497W        W55791  29.642   3.870   1.241
96498W        W55792  41.449   7.683  10.993
96499W        W55793  37.888   3.261  11.410
96500W        W55794  21.018  32.589  11.076
96501W        W55795   5.313  21.099   0.333
96502W        W55796  32.981  20.554  10.612
96503W        W55797  11.759  11.632   3.763
96504W        W55798   1.766  18.746  10.963
96505W        W55799  23.574  11.371  12.824
96506W        W55800   8.673  21.054  12.412
96507W        W55801  41.490  39.446  14.870
96508W        W55802  41.392  36.359   0.337
96509W        W55803  41.342  40.932  11.970
96510W        W55804  28.066  44.760   2.184
96511W        W55805  41.846  36.406  11.100
96512W        W55806   9.184  18.292   0.437
96513W        W55807  25.981  33.885   4.259
96514W        W55808  25.495  32.978   4.603
96515W        W55809  19.732   0.276   1.926
96516W        W55810  42.527  25.175   3.342
96517W        W55811   8.883  17.143   3.671
96518W        W55812  21.178   2.403  11.940
96519W        W55813   9.669  18.703  14.877
96520W        W55814  31.516  33.603   0.336
96521W        W55815  24.064  23.046   0.786
96522W        W55816  31.565  44.492   2.334
96523W        W55817  12.194  40.800  12.448
96524W        W55818  30.657  11.801  12.366
96525W        W55819   9.172  25.113  12.003
96526W        W55820   9.375  44.420   3.762
96527W        W55821  40.506  24.111  11.538
96528W        W55822   4.240  24.996   0.788
96529W        W55823  34.533  18.055  12.539
96530W        W55824  36.989  16.768   4.673
96531W        W55825  39.808   1.390  13.818
96532W        W55826  17.593  24.573   1.698
96533W        W55827  26.045  23.650  12.388
96534W        W55828  25.533  28.653   1.250
96535W        W55829  17.687  32.471  11.897
96536W        W55830  16.168  16.176   0.294
96537W        W55831  23.229  21.599   1.804
96538W        W55832   6.352  23.162  14.478
96539W        W55833  27.085  34.998   2.207
96540W        W55834  20.055   4.446   3.700
96541W        W55835   8.187   7.338  13.831
96542W        W55836  11.233  44.815  12.027
96543W        W55837  38.427   7.758   3.187
96544W        W55838  35.477  43.808   3.152
96545W        W55839  30.510   9.216   1.706
96546W        W55840   6.212  25.530  11.942
96547W        W55841  24.703  23.504  14.819
96548W        W55842  35.051  12.131   0.372
96549W        W55843  27.184   0.266   2.850
96550W        W55844  23.195   9.763   3.305
96551W        W55845   4.753  37.472  14.030
96552W        W55846  32.943  18.580   1.699
96553W        W55847  40.334  25.194  13.932
96554W        W55848  20.135  34.411  11.867
96555W        W55849  44.002   2.320  10.976
96556W        W55850  42.519   4.214   3.842
96557W        W55851   4.369   9.747   0.480
96558W        W55852  34.393  10.217  11.092
96559W        W55853  22.190  41.898  14.923
96560W        W55854  37.000   5.252   1.709
96561W        W55855  36.026  16.271   4.761
96562W        W55856  25.120   5.875   0.370
96563W        W55857  37.059  27.949   3.816
96564W        W55858  35.400  12.224   0.416
96565W        W55859  11.760  26.516  10.934
96566W        W55860   5.827  23.558   3.295
96567W        W55861  31.619  20.529   0.876
96568W        W55862  14.289   5.297   3.691
96569W        W55863   1.876  14.190  10.959
96570W        W55864  17.248  13.130   1.432
96571W        W55865  11.362  28.965  14.489
96572W        W55866  20.081  20.115   1.359
96573W        W55867   7.742  26.568   2.204
96574W        W55868  37.493  39.505   4.607
96575W        W55869  36.560  33.436   4.636
96576W        W55870  20.251   6.860  11.082
96577W        W55871  34.574  14.689   2.272
96578W        W55872  30.040  26.067  10.535
96579W        W55873  42.298  16.183   3.833
96580W        W55874  38.353  35.366   3.264
96581W        W55875  32.133  11.781  12.572
96582W        W55876  26.632  18.073   0.440
96583W        W55877  42.830  42.434   1.449
96584W        W55878  26.097  29.620  12.078
96585W        W55879   0.787  39.540   3.254
96586W        W55880  11.306  17.573   3.757
96587W        W55881   2.456  36.844   2.416
96588W        W55882  11.368  24.169   2.413
96589W        W55883  38.023   1.435  12.353
96590W        W55884  16.739  44.984  13.955
96591W        W55885  20.544  22.597   1.326
96592W        W55886  12.310  44.369  14.433
96593W        W55887  38.402  24.162   1.910
96594W        W55888  38.477  40.932  11.964
96595W        W55889  11.321  37.036   4.794
96596W        W55890  12.174  13.681   5.757
96597W        W55891  34.525  23.106  11.937
96598W        W55892  30.550  12.343   4.769
96599W        W55893  27.649  24.988  12.962
96600W        W55894  22.181  30.143  14.899
96601W        W55895   3.746   3.942  14.969
96602W        W55896   9.228  10.202   2.792
96603W        W55897  17.645  17.298   3.319
96604W        W55898   5.335  29.015  10.560
96605W        W55899  25.616   0.263   1.914
96606W        W55900  13.812   3.849  13.957
96607W        W55901  17.112  11.767  12.412
96608W        W55902  39.319  41.033   2.763
96609W        W55903  12.792  19.275   1.333
96610W        W55904   4.909  15.122   2.899
96611W        W55905  26.192  25.063   4.210
96612W        W55906  35.439   7.264  11.537
96613W        W55907   4.822  32.625  12.464
96614W        W55908  25.029  11.735   1.767
96615W        W55909   1.792  31.624  14.934
96616W        W55910  22.617   1.849  10.148
96617W        W55911  24.115   1.367   3.634
96618W        W55912  15.650  43.444  11.986
96619W        W55913  39.011   0.363   1.356
96620W        W55914  25.614  15.589  12.969
96621W        W55915  19.078  12.170  13.545
96622W        W55916  42.296   6.831   1.330
96623W        W55917   6.680  26.099  13.930
96624W        W55918  15.182  34.437   1.262
96625W        W55919  17.125  15.582  10.003
96626W        W55920   4.306  17.208  12.405
96627W        W55921  23.713   0.817   0.843
96628W        W55922  35.525   5.859   4.648
96629W        W55923   2.458  33.955  10.920
96630W        W55924  43.296   8.384  14.394
96631W        W55925   5.266  19.263   5.132
96632W        W55926  43.384   2.261   5.131
96633W        W55927  41.397  13.605  11.406
96634W        W55928  12.784   1.463  14.310
96635W        W55929  12.186  42.877   2.728
96636W        W55930  11.806  12.329   0.310
96637W        W55931  16.126  28.533  14.841
96638W        W55932  23.161  23.545   4.690
96639W        W55933   4.217  42.891  13.499
96640W        W55934  16.749  16.707  14.874
96641W        W55935  15.607   0.272   1.372
96642W        W55936   3.788  10.274   4.298
96643W        W55937  21.740  16.090  11.938
96644W        W55938  17.234  41.319   1.828
96645W        W55939  38.476  27.493   2.223
96646W        W55940  22.656   8.328   1.795
96647W        W55941  18.581   7.275   4.280
96648W        W55942  24.094  42.898  14.798
96649W        W55943   1.269  17.169   2.725
96650W        W55944  17.234  33.929  13.001
96651W        W55945  19.731  25.504   0.785
96652W        W55946  30.491  28.095   2.764
96653W        W55947  38.355  20.598   4.660
96654W        W55948  35.920   8.692   0.935
96655W        W55949  30.524  27.497  13.496
96656W        W55950   4.914   6.808  14.763
96657W        W55951  22.032  15.299  12.533
96658W        W55952  23.673  33.589  14.019
96659W        W55953   4.849  19.574  12.358
96660W        W55954  15.792  40.423  11.584
96661W        W55955  26.595  14.821   4.626
96662W        W55956   3.758   7.332   3.279
96663W        W55957   7.873  20.096   1.708
96664W        W55958  41.519  36.043  14.891
96665W        W55959  33.520  41.355  11.486
96666W        W55960   6.216  28.949  10.498
96667W        W55961  13.148   7.266   2.182
96668W        W55962   4.354  15.772   4.737
96669W        W55963   2.752  27.549   2.297
96670W        W55964   9.350  18.155   0.780
96671W        W55965  33.482  18.148  12.028
96672W        W55966  14.601  39.954   1.241
96673W        W55967  19.186   6.189  10.418
96674W        W55968   6.293  26.040   0.453
96675W        W55969  20.158  10.363   3.643
96676W        W55970  44.503  29.539   0.451
96677W        W55971  35.510   1.374   2.883
96678W        W55972  39.874  11.685   2.181
96679W        W55973  27.491  32.528  11.428
96680W        W55974  11.321  17.575   1.723
96681W        W55975  21.245   3.773  12.901
96682W        W55976  19.047  18.789   4.721
96683W        W55977  18.058   5.274   2.766
96684W        W55978   4.428   4.309   4.819
96685W        W55979  24.699   6.823  13.404
96686W        W55980  15.736  29.094   1.858
96687W        W55981  41.024  37.051  13.926
96688W        W55982   3.260  23.723  14.297
96689W        W55983  42.918  36.463  12.067
96690W        W55984  29.481  43.785   0.427
96691W        W55985  15.307  24.139  13.007
96692W        W55986  37.392  27.017   0.828
96693W        W55987  15.679  29.626   3.679
96694W        W55988  29.491  33.974   4.351
96695W        W55989  41.967   8.700  13.974
96696W        W55990  43.348  17.594   0.788
96697W        W55991   3.837  37.489  14.959
96698W        W55992  34.449  38.967   0.945
96699W        W55993  24.209  27.093   4.182
96700W        W55994  19.123  41.369   2.291
96701W        W55995  23.085  17.295   2.273
96702W        W55996  13.775  44.345  12.049
96703W        W55997  14.831  40.480  13.848
96704W        W55998  38.420  42.968   5.088
96705W        W55999  44.756  25.175  12.050
96706W        W56000  26.045  12.190  11.552
96707W        W56001   9.853  18.111  12.441
96708W        W56002  44.994  37.970  13.398
96709W        W56003  15.813  37.546  12.090
96710W        W56004   3.765  13.603   2.189
96711W        W56005  32.900   6.763   1.818
96712W        W56006  43.467  23.110   1.823
96713W        W56007  32.001  38.346   0.822
96714W        W56008  13.843  34.381  13.933
96715W        W56009   2.930   6.756  11.879
96716W        W56010  22.541  29.142  13.791
96717W        W56011  19.111   0.426  10.624
96718W        W56012  34.576  12.733  14.333
96719W        W56013   9.179  28.073   2.352
96720W        W56014  27.167  28.568   2.844
96721W        W56015  44.764  11.182  14.481
96722W        W56016  36.359   4.783  10.982
96723W        W56017  14.811  27.546  12.936
96724W        W56018  34.518   2.323  14.306
96725W        W56019  24.211  27.633  14.923
96726W        W56020  26.458  41.000   4.634
96727W        W56021  36.963  22.124   2.751
96728W        W56022   4.304   8.244   3.239
96729W        W56023  21.140   6.319   3.331
96730W        W56024   0.323  41.957  12.547
96731W        W56025  35.051  17.283  14.881
96732W        W56026  32.576  27.509   1.354
96733W        W56027   4.307  43.510   0.389
96734W        W56028  16.209  43.805   2.807
96735W        W56029  25.545  44.462  13.807
96736W        W56030  25.084  10.683  11.612
96737W        W56031  25.082  37.547  10.556
96738W        W56032  44.314  38.479  13.034
96739W        W56033   6.376  38.465   3.258
96740W        W56034  23.007  24.176  13.920
96741W        W56035  33.555   6.773   1.772
96742W        W56036  35.551  18.118   1.429
96743W        W56037   6.249  40.489  12.578
96744W        W56038  15.795   5.768  12.935
96745W        W56039  30.973  44.273  14.440
96746W        W56040  11.191  20.166  13.057
96747W        W56041   0.768  19.769   0.294
96748W        W56042  29.615   9.757   0.285
96749W        W56043  28.126  39.322   3.377
96750W        W56044   6.308  30.466  14.000
96751W        W56045  29.484  18.677  10.896
96752W        W56046   1.477  16.250  12.545
96753W        W56047   9.833  16.792  10.536
96754W        W56048  30.507  12.857  10.435
96755W        W56049  41.511  22.599   0.826
96756W        W56050  19.704  24.685   4.314
96757W        W56051   7.408   7.238   3.801
96758W        W56052  44.991   4.409   2.321
96759W        W56053  21.754  17.602  13.988
96760W        W56054  37.518  41.375   4.646
96761W        W56055   3.947   6.291  11.524
96762W        W56056  44.325  43.279  14.333
96763W        W56057  25.038  31.613  11.543
96764W        W56058  44.796  16.592  11.460
96765W        W56059  21.747  23.500   2.205
96766W        W56060  40.955  23.717   1.756
96767W        W56061  22.122  44.493  11.918
96768W        W56062  38.995  10.364   4.803
96769W        W56063  23.635  36.956   0.729
96770W        W56064  20.220  28.541   0.858
96771W        W56065  27.666  33.044  11.583
96772W        W56066  21.095  29.106  13.533
96773W        W56067  18.694  21.580   3.312
96774W        W56068  38.466  12.150  11.559
96775W        W56069  31.026   8.784   3.186
96776W        W56070  36.525  38.017  14.383
96777W        W56071  29.634  15.588   1.828
96778W        W56072  29.098  27.661  14.004
96779W        W56073  10.195  11.755  10.895
96780W        W56074  41.813  10.714   0.254
96781W        W56075  11.347  36.516   0.946
96782W        W56076  28.005   2.908  14.932
96783W        W56077  17.080  43.879  10.499
96784W        W56078   9.240  12.757  13.364
96785W        W56079   8.744   2.908   2.666
96786W        W56080  34.593   6.767  10.931
96787W        W56081  17.207  35.955  11.058
96788W        W56082   6.414   3.859  11.406
96789W        W56083  12.362  36.400   0.281
96790W        W56084   2.900  34.005  14.982
96791W        W56085  13.752   4.889  12.960
96792W        W56086   4.801  40.807   4.791
96793W        W56087  44.472  35.978  14.307
96794W        W56088  40.361  10.761   1.851
96795W        W56089  11.835  41.309  11.952
96796W        W56090  12.347  16.670  10.532
96797W        W56091  29.579  44.274  11.080
96798W        W56092  35.363  38.385  10.925
96799W        W56093  26.962  38.030  10.894
96800W        W56094   0.311  42.877  14.864
96801W        W56095  24.003  14.626   0.903
96802W        W56096   0.846  33.556  14.001
96803W        W56097  28.082  33.113  12.986
96804W        W56098  37.859  29.452  11.534
96805W        W56099   6.339  39.817   0.338
96806W        W56100  17.219  35.022   2.810
96807W        W56101  29.559  38.004   3.266
96808W        W56102  22.099  35.445  14.776
96809W        W56103  30.640  11.130  11.939
96810W        W56104  13.349  23.504   0.334
96811W        W56105   8.763   0.413   1.330
96812W        W56106  39.925   7.367   1.920
96813W        W56107  15.699   7.905   4.289
96814W        W56108  37.072   1.289  14.427
96815W        W56109   4.359   9.263  13.412
96816W        W56110  35.502   4.932   4.181
96817W        W56111  16.139  23.073  13.034
96818W        W56112  18.074   1.888  12.907
96819W        W56113  23.557  26.039  10.609
96820W        W56114  33.885  40.418  10.442
96821W        W56115  18.706  13.157   3.860
96822W        W56116   7.232   8.776   3.233
96823W        W56117  14.813  12.279   1.274
96824W        W56118  37.570  25.558   3.248
96825W        W56119   3.328  34.084  12.942
96826W        W56120  14.249  44.831   4.770
96827W        W56121   4.806  21.677  14.807
96828W        W56122   0.973  14.207  11.424
96829W        W56123  40.335   9.724   4.786
96830W        W56124  38.009  42.425  11.982
96831W        W56125   3.254  39.440  11.043
96832W        W56126   8.714  35.980   0.954
96833W        W56127   7.768   1.243  14.354
96834W        W56128  39.497   9.225  10.131
96835W        W56129   1.771   6.319  10.434
96836W        W56130   3.737   8.221  11.543
96837W        W56131  28.946  19.657  11.410
96838W        W56132  37.895  26.032  13.963
96839W        W56133  20.681   3.904  13.515
96840W        W56134   9.754  29.987  10.533
96841W        W56135  18.210   9.180  14.848
96842W        W56136   9.161  15.231   1.255
96843W        W56137   4.268  19.244  12.511
96844W        W56138   7.334  30.942   2.300
96845W        W56139   5.424  24.125  10.544
96846W        W56140  39.838   8.696   2.259
96847W        W56141  33.582   9.888  10.971
96848W        W56142  28.081  34.061  13.450
96849W        W56143  39.489   3.887   4.630
96850W        W56144  18.628   8.399  10.928
96851W        W56145  44.388  17.077  14.017
96852W        W56146  16.199  12.309   0.871
96853W        W56147   5.822  24.705   0.919
96854W        W56148  16.778  21.078  13.949
96855W        W56149  39.534   4.299   0.412
96856W        W56150  13.821   6.912   1.801
96857W        W56151  36.018  34.596  11.862
96858W        W56152  34.552  32.008   3.303
96859W        W56153  17.067  18.225   0.769
96860W        W56154  36.506  39.835  14.864
96861W        W56155  12.824  10.206   4.169
96862W        W56156  38.478   4.373  12.421
96863W        W56157  28.479  16.176   1.348
96864W        W56158  21.654  30.606  11.912
96865W        W56159  27.499  24.652  13.902
96866W        W56160  31.418  14.800  10.633
96867W        W56161   2.284  20.109  10.432
96868W        W56162   5.828  37.991   2.678
96869W        W56163  26.981  10.778  12.050
96870W        W56164  29.477  44.951   1.401
96871W        W56165  23.549  20.527   3.254
96872W        W56166   5.916  12.131  14.412
96873W        W56167  30.079  35.529   4.284
96874W        W56168   8.760  35.518   1.240
96875W        W56169  39.377   2.954  14.333
96876W        W56170  40.492   6.909   4.226
96877W        W56171  17.694  38.444  13.916
96878W        W56172   5.733   2.357  10.447
96879W        W56173  29.161  16.182  12.412
96880W        W56174  35.588   8.312   2.276
96881W        W56175  29.584  38.984   1.413
96882W        W56176  28.935  30.941   0.960
96883W        W56177   7.836  16.694  13.810
96884W        W56178  15.186  16.604   3.785
96885W        W56179  36.056  15.617  14.001
96886W        W56180   2.821  22.996   2.699
96887W        W56181   3.914  33.496   2.292
96888W        W56182   7.745  16.172   4.236
96889W        W56183  43.924   0.798   2.710
96890W        W56184   0.950  32.961  12.980
96891W        W56185  35.881  26.677  13.845
96892W        W56186  20.085  39.021  12.931
96893W        W56187  27.601  27.130   2.290
96894W        W56188  22.525  31.031  14.871
96895W        W56189  34.575  21.707  11.127
96896W        W56190  20.239  42.929  10.000
96897W        W56191  34.615  30.023  13.309
96898W        W56192  34.901  18.629   0.743
96899W        W56193  23.694   4.240  11.403
96900W        W56194   3.861  32.043  14.857
96901W        W56195  30.117   3.744  14.420
96902W        W56196  26.955  19.559  10.899
96903W        W56197   1.934   3.461   0.862
96904W        W56198   2.346  21.713  11.093
96905W        W56199   8.833   4.358  12.480
96906W        W56200  44.403  13.309   0.892
96907W        W56201  42.791  10.740   4.229
96908W        W56202   6.333  17.143   4.610
96909W        W56203  17.692  42.298  13.042
96910W        W56204  14.601   4.438  11.102
96911W        W56205  26.681  13.620  14.439
96912W        W56206  31.472  17.763  11.087
96913W        W56207  24.558  13.739   1.407
96914W        W56208  42.408   9.395  14.905
96915W        W56209  22.685  19.249  12.416
96916W        W56210  23.598  27.048   0.961
96917W        W56211  10.637  44.984  10.523
96918W        W56212   9.189  33.488   3.209
96919W        W56213  34.880  36.383   1.887
96920W        W56214   9.775  17.084  12.573
96921W        W56215   9.307  11.644  12.882
96922W        W56216  22.057   8.395   4.600
96923W        W56217  27.539  21.082   4.735
96924W        W56218  16.628  42.494   1.341
96925W        W56219  13.693  21.252  10.576
96926W        W56220  41.454   9.274  12.357
96927W        W56221  41.796  43.272   1.272
96928W        W56222  39.397  26.145   2.220
96929W        W56223   6.900  32.065  11.395
96930W        W56224  17.138  20.649   4.620
96931W        W56225  43.451  30.916   2.357
96932W        W56226  29.585  32.118  13.371
96933W        W56227  14.689  42.929  14.959
96934W        W56228   5.431  17.290   1.801
96935W        W56229   3.783  30.068  10.561
96936W        W56230  42.289  14.119   4.122
96937W        W56231  14.325   4.389   0.273
96938W        W56232  26.672  20.642  13.435
96939W        W56233  33.887  42.798  10.956
96940W        W56234  44.801  11.333   2.291
96941W        W56235  18.156  11.274   2.188
96942W        W56236  39.922  35.481   0.781
96943W        W56237  25.085  40.308   5.169
96944W        W56238  21.592  27.026  13.849
96945W        W56239  41.330  44.321   3.709
96946W        W56240  28.458  22.081   3.176
96947W        W56241  28.973  35.537  13.935
96948W        W56242  39.848  33.559  10.643
96949W        W56243  27.948  10.144   3.187
96950W        W56244   7.221   3.436   2.796
96951W        W56245  25.703  36.348   0.741
96952W        W56246  43.330  36.019   3.667
96953W        W56247  41.933  25.552  11.129
96954W        W56248  40.025  22.040   1.890
96955W        W56249  33.011  27.571  13.806
96956W        W56250  34.421  22.086   2.243
96957W        W56251  43.821  36.502  13.535
96958W        W56252  40.539  13.321  13.046
96959W        W56253  30.565   5.790  13.925
96960W        W56254  10.284  26.026  14.376
96961W        W56255  34.471   9.391   1.725
96962W        W56256   1.802  10.850  13.891
96963W        W56257   3.794  18.281   1.369
96964W        W56258  29.097  24.575  10.621
96965W        W56259  29.547   9.750   2.803
96966W        W56260  30.642  17.155  11.108
96967W        W56261   7.717  37.437  10.051
96968W        W56262  19.149  14.241   3.732
96969W        W56263  33.949  32.904   4.619
96970W        W56264  29.928  14.331   1.704
96971W        W56265  10.737  18.137   3.776
96972W        W56266  18.093   7.260   4.811
96973W        W56267  39.396  32.130   1.212
96974W        W56268  31.037  40.518  13.017
96975W        W56269  33.405   4.823   0.398
96976W        W56270  17.710  12.205   9.581
96977W        W56271  29.581  19.186   1.731
96978W        W56272  13.767   2.937   3.855
96979W        W56273  44.938  22.523   0.469
96980W        W56274  14.157   5.774   9.920
96981W        W56275  25.694  33.131  10.561
96982W        W56276  21.684  19.182   2.826
96983W        W56277  29.578  33.477   0.452
96984W        W56278  42.460  17.654   4.310
96985W        W56279   7.667  40.320  10.918
96986W        W56280   9.841  44.003  14.484
96987W        W56281   8.756  13.318   1.892
96988W        W56282  26.114  21.575  10.479
96989W        W56283  14.262  38.528  14.305
96990W        W56284  40.482  18.657   0.437
96991W        W56285  32.952  24.576  14.784
96992W        W56286  12.333  11.814   4.780
96993W        W56287  43.862  11.224   0.316
96994W        W56288  23.072  32.902   0.909
96995W        W56289  17.295   9.694   0.371
96996W        W56290   7.869  40.513   2.181
96997W        W56291  19.683  10.767   4.321
96998W        W56292  19.641  39.815  11.017
96999W        W56293  25.493  37.358   4.259
97000W        W56294  11.820  33.411  10.119
97001W        W56295   0.321  41.439   4.348
97002W        W56296  30.981  13.808  11.443
97003W        W56297   9.663  35.949  11.441
97004W        W56298  36.354  36.351   0.801
97005W        W56299  31.976  41.835  11.050
97006W        W56300  19.195   2.784   0.364
97007W        W56301  26.155  10.278   3.282
97008W        W56302  34.596  41.514  14.006
97009W        W56303  22.185  28.558  10.898
97010W        W56304  33.913  20.744   2.261
97011W        W56305  23.122  37.438   4.645
97012W        W56306  14.212  42.015  14.916
97013W        W56307  44.936   6.265   4.130
97014W        W56308   4.402  43.382   2.865
97015W        W56309  11.294  13.626  10.544
97016W        W56310  41.475   2.417   0.469
97017W        W56311  33.487  31.933  13.350
97018W        W56312   4.328  13.261   4.687
97019W        W56313  43.278  19.206  13.838
97020W        W56314  31.523  23.219  11.112
97021W        W56315  42.396  13.761   2.275
97022W        W56316  30.415  19.270   1.228
97023W        W56317   5.753  16.239   3.194
97024W        W56318  20.573  14.799  13.915
97025W        W56319   9.393   9.206  14.370
97026W        W56320  11.827  43.338   4.808
97027W        W56321  24.096  32.481  10.599
97028W        W56322  26.101  23.543   4.208
97029W        W56323   7.849  26.646   3.743
97030W        W56324  11.353  36.512  14.888
97031W        W56325  16.707  30.083   3.174
97032W        W56326  14.760  10.258   0.743
97033W        W56327  14.311  35.599   1.900
97034W        W56328  16.211  37.390  13.948
97035W        W56329  39.544  17.670   0.363
97036W        W56330  44.501  21.607   0.730
97037W        W56331  40.041  19.242   4.259
97038W        W56332  35.030  35.492   2.844
97039W        W56333  42.786  10.169  11.588
97040W        W56334   8.339  28.128   1.332
97041W        W56335   7.175   0.283  13.824
97042W        W56336  32.049  22.514   0.257
97043W        W56337  31.581  11.127  10.938
97044W        W56338  35.587  43.329   0.915
97045W        W56339  43.805  28.065  11.092
97046W        W56340   7.247   1.864   2.411
97047W        W56341  15.808  36.570   2.311
97048W        W56342  38.456   9.846   2.756
97049W        W56343  24.492  23.526  11.475
97050W        W56344  38.851   2.290  14.765
97051W        W56345   4.728  42.000   5.154
97052W        W56346  10.856  21.615   3.340
97053W        W56347  37.551  36.365   3.712
97054W        W56348   2.753  31.447   3.174
97055W        W56349  24.187  25.590  13.842
97056W        W56350  37.394   1.336   2.885
97057W        W56351  29.511  29.030   1.845
97058W        W56352   1.904  12.742   2.710
97059W        W56353  39.372  44.901  14.824
97060W        W56354  18.587  34.038  11.541
97061W        W56355  25.104  26.200  10.936
97062W        W56356   5.304  35.934  14.436
97063W        W56357  40.443   4.906   4.761
97064W        W56358   2.777  11.846   1.918
97065W        W56359  39.897  42.434  13.916
97066W        W56360  11.298  42.825  12.055
97067W        W56361  21.181  39.452  14.916
97068W        W56362  38.839  11.832   0.836
97069W        W56363  32.888   1.244  14.957
97070W        W56364  29.041  18.183   1.228
97071W        W56365  11.849  35.083  12.860
97072W        W56366  19.645   1.317  14.356
97073W        W56367  26.493  34.505  12.080
97074W        W56368   2.911  42.518   3.709
97075W        W56369  13.698  26.997  13.323
97076W        W56370  38.404  42.373  11.541
97077W        W56371  42.962  15.668   0.357
97078W        W56372  28.151   6.753  10.588
97079W        W56373  31.416   3.255   3.311
97080W        W56374  34.895   2.785   0.734
97081W        W56375  15.774  39.379  11.520
97082W        W56376  30.479   0.888   5.312
97083W        W56377  39.331  20.676  10.548
97084W        W56378  33.565  15.187   0.767
97085W        W56379   2.252   0.385   4.269
97086W        W56380  20.524  22.624  14.281
97087W        W56381  33.062   2.724   2.209
97088W        W56382  28.001  39.921   0.827
97089W        W56383  12.752   8.829   0.785
97090W        W56384  24.128  24.176   4.271
97091W        W56385  15.261  12.800   1.251
97092W        W56386  27.669  36.947   0.878
97093W        W56387  35.475  42.894   4.186
97094W        W56388   7.202   0.348   0.820
97095W        W56389   4.703   8.194   1.802
97096W        W56390  32.029  40.018   0.778
97097W        W56391  26.606  37.852   1.889
97098W        W56392  36.465  38.475   1.360
97099W        W56393  23.601  28.536   3.168
97100W        W56394  37.370  22.190  11.110
97101W        W56395  43.491   3.832  14.465
97102W        W56396  25.041  35.921  13.318
97103W        W56397  13.222  15.092   3.697
97104W        W56398  34.538  36.478   0.945
97105W        W56399  44.435  36.888   2.686
97106W        W56400  25.505   6.402   4.214
97107W        W56401  12.148  20.697   2.687
97108W        W56402   7.331  40.909   0.787
97109W        W56403  39.349  17.557  13.434
97110W        W56404  28.178  37.506   9.468
97111W        W56405   9.700  10.831   0.814
97112W        W56406   8.858  35.107   1.773
97113W        W56407  42.948   9.724  12.095
97114W        W56408  42.794   8.823   3.750
97115W        W56409   6.693   3.225   2.218
97116W        W56410  16.615  37.384  12.455
97117W        W56411  16.788  22.106  14.446
97118W        W56412  38.020   5.702   5.091
97119W        W56413  42.883  20.723   2.239
97120W        W56414  25.551  22.219  10.984
97121W        W56415  12.162  43.862   1.721
97122W        W56416  34.072  18.558  11.129
97123W        W56417  40.970  21.677   4.824
97124W        W56418  22.086  39.061   1.310
97125W        W56419  14.642  17.101  11.601
97126W        W56420  33.898  30.467   2.713
97127W        W56421  39.380  42.973   0.452
97128W        W56422  36.516  25.987   1.229
97129W        W56423  40.925   7.283  10.408
97130W        W56424  27.604  16.700  13.413
97131W        W56425   8.227  24.705   4.785
97132W        W56426  39.906  22.083   4.170
97133W        W56427  34.974  17.123  12.955
97134W        W56428  29.564  44.432   1.348
97135W        W56429   5.325  13.290   2.715
97136W        W56430  14.668  24.018  14.331
97137W        W56431  31.427  38.018  14.841
97138W        W56432  31.100   8.705  14.402
97139W        W56433  28.667  33.986  11.446
97140W        W56434  41.802  32.961   9.512
97141W        W56435  20.621  10.756  11.961
97142W        W56436  29.123   2.861   2.207
97143W        W56437  31.996  33.492  10.473
97144W        W56438  11.858  36.363   2.836
97145W        W56439  27.106   5.439   2.710
97146W        W56440  39.978  12.803   2.369
97147W        W56441  16.762   7.343   4.324
97148W        W56442  43.406  28.938   1.742
97149W        W56443  25.988  25.153  14.281
97150W        W56444   2.919  17.252   0.827
97151W        W56445  37.373   2.298   4.296
97152W        W56446  15.203   6.186  13.546
97153W        W56447  16.798   3.721  11.372
97154W        W56448  15.618   6.278   4.635
97155W        W56449  42.907  39.412   3.187
97156W        W56450  20.145  33.446   1.388
97157W        W56451  31.007  10.200   0.461
97158W        W56452   9.671  37.065  11.405
97159W        W56453  26.640  37.836  11.539
97160W        W56454  40.973  38.442  11.067
97161W        W56455   1.760  39.910  12.435
97162W        W56456  37.483  34.485   2.299
97163W        W56457   5.336  15.107  10.622
97164W        W56458  25.489  38.993   0.478
97165W        W56459  32.482  19.259   2.410
97166W        W56460   9.370  44.371   4.294
97167W        W56461   9.219  31.054   1.393
97168W        W56462  25.471   3.324   2.412
97169W        W56463  14.236   8.786   3.385
97170W        W56464  34.959  39.394  12.456
97171W        W56465  21.546  29.633  12.983
97172W        W56466  26.554  43.387  13.873
97173W        W56467   9.167   7.874   1.428
97174W        W56468   0.420  18.749   2.180
97175W        W56469  40.954  44.927   4.768
97176W        W56470  41.040  23.710   0.954
97177W        W56471  32.923  35.461   1.822
97178W        W56472  23.609   8.331  13.015
97179W        W56473  42.017  30.498   2.843
97180W        W56474  26.508  35.073  11.880
97181W        W56475  21.658   8.773  14.471
97182W        W56476  27.121  39.454  13.411
97183W        W56477  41.437  26.547   4.639
97184W        W56478  10.758  40.399   1.919
97185W        W56479  34.390  33.462  10.072
97186W        W56480  36.954  37.069   0.313
97187W        W56481  34.111  35.025   0.288
97188W        W56482  40.408   2.324  10.612
97189W        W56483  15.719  28.965  11.918
97190W        W56484  41.836  18.276   0.881
97191W        W56485  12.136   4.418  13.865
97192W        W56486  43.885  10.855  11.936
97193W        W56487  20.549  28.966   3.383
97194W        W56488  37.503   3.765  13.875
97195W        W56489  16.758  10.272  13.835
97196W        W56490  21.679  19.727  11.109
97197W        W56491  29.023  31.447  11.563
97198W        W56492  27.055   1.816   1.717
97199W        W56493  26.652  14.719  13.951
97200W        W56494  41.477  28.458   4.667
97201W        W56495  18.198  28.981   3.731
97202W        W56496  29.996  19.691  12.939
97203W        W56497  14.207   8.219  12.346
97204W        W56498  36.523  10.733   2.186
97205W        W56499  17.660  22.137   1.705
97206W        W56500  33.393  28.962   4.713
97207W        W56501  28.017  17.709   1.753
97208W        W56502  26.663  39.915   3.852
97209W        W56503  18.581  20.768   3.310
97210W        W56504  38.982   5.769  14.958
97211W        W56505   9.368  11.295  14.926
97212W        W56506   7.395  10.748  12.887
97213W        W56507  18.585  27.603  13.382
97214W        W56508  14.793  34.101   1.801
97215W        W56509  24.663  10.241   2.798
97216W        W56510   1.453  38.820   4.741
97217W        W56511  26.517  41.356   1.922
97218W        W56512  26.525   7.356   0.367
97219W        W56513  41.945  41.963  12.521
97220W        W56514  12.823  13.627  14.947
97221W        W56515  18.723  16.131  13.031
97222W        W56516   9.756  27.541  10.983
97223W        W56517  32.131  16.637  11.117
97224W        W56518   6.283  22.240   1.725
97225W        W56519   3.952   8.318  11.931
97226W        W56520  13.201   3.311   4.273
97227W        W56521  35.939  30.004   3.632
97228W        W56522  12.799  21.615   2.664
97229W        W56523   5.876   8.871   4.151
97230W        W56524  26.076  42.779   1.929
97231W        W56525   3.925  23.170  13.946
97232W        W56526  21.676  28.466   3.748
97233W        W56527  21.681  26.545  12.011
97234W        W56528  34.942  17.702   1.347
97235W        W56529  44.976  34.483  14.021
97236W        W56530  28.146  31.080   4.348
97237W        W56531   5.733  17.127   4.260
97238W        W56532  25.044  14.671  14.922
97239W        W56533   6.711  23.507  13.321
97240W        W56534  31.497  35.983   4.751
97241W        W56535  19.671  43.945   2.183
97242W        W56536  35.482  14.694  10.555
97243W        W56537  37.431  23.202   3.212
97244W        W56538  23.586  33.389  10.639
97245W        W56539   7.740  15.195   2.880
97246W        W56540   5.294  42.388  11.511
97247W        W56541  44.287  40.361  12.418
97248W        W56542  11.815  16.180   4.719
97249W        W56543   0.368  35.513   2.855
97250W        W56544  15.753  41.318   0.750
97251W        W56545   3.741   6.238  10.580
97252W        W56546  34.607   9.854  13.800
97253W        W56547  32.413   3.769   4.777
97254W        W56548  26.697  42.334  11.992
97255W        W56549  21.737  19.562  14.890
97256W        W56550  44.892  44.297  13.408
97257W        W56551  12.643   7.776   3.771
97258W        W56552  40.042  26.678   2.852
97259W        W56553  10.662  37.898  12.035
97260W        W56554  33.009   8.659  14.914
97261W        W56555  17.279  17.749  10.000
97262W        W56556   1.878  27.521   0.463
97263W        W56557  36.509  15.131   0.727
97264W        W56558  32.915   1.882   1.841
97265W        W56559  34.421  12.832   0.863
97266W        W56560  16.312  33.110  13.819
97267W        W56561   6.855   4.284   0.324
97268W        W56562  19.674  38.009   0.810
97269W        W56563  20.042  23.589   0.467
97270W        W56564  27.191  12.204  13.059
97271W        W56565  43.279   9.355   3.637
97272W        W56566  41.345  21.669  14.835
97273W        W56567  25.666  37.023  13.459
97274W        W56568  17.296  39.995   0.256
97275W        W56569  12.120   7.218   3.744
97276W        W56570   8.724  44.754  12.075
97277W        W56571  25.029  16.741  14.787
97278W        W56572   6.770  44.992   0.276
97279W        W56573  33.987   5.733  13.479
97280W        W56574  18.103  15.776   4.188
97281W        W56575  32.892  31.641  14.024
97282W        W56576  32.942  26.176  14.437
97283W        W56577  39.368   7.390   3.652
97284W        W56578  24.497  14.171  13.975
97285W        W56579  14.707  18.653   2.766
97286W        W56580  26.673   4.251   0.920
97287W        W56581   3.802   0.417  12.015
97288W        W56582  20.043  31.980  14.999
97289W        W56583  27.648  29.546   3.276
97290W        W56584  19.107   3.343   2.765
97291W        W56585  16.296  15.785  11.021
97292W        W56586  44.452  28.059   4.753
97293W        W56587   7.384   2.457   4.139
97294W        W56588  30.447  15.783   2.883
97295W        W56589   2.289  25.525  13.920
97296W        W56590  26.107  10.791   4.830
97297W        W56591  15.189  29.613  13.961
97298W        W56592   6.771   5.250   1.830
97299W        W56593  20.161  35.584   1.432
97300W        W56594  35.079  16.222   3.726
97301W        W56595  29.978  41.365   4.259
97302W        W56596   2.286  44.944   0.338
97303W        W56597  28.100   0.923  11.100
97304W        W56598  33.485  21.707  10.027
97305W        W56599   9.155  12.281   0.737
97306W        W56600  36.856  13.200   0.246
97307W        W56601  20.742  18.085   1.920
97308W        W56602  10.826   0.836   3.834
97309W        W56603  43.967  25.092  14.468
97310W        W56604  34.891  26.172   0.742
97311W        W56605   4.719  30.489   4.626
97312W        W56606  36.488   9.757  13.368
97313W        W56607  12.727  40.042  14.825
97314W        W56608  23.072  28.603   2.284
97315W        W56609   0.344  15.590   2.677
97316W        W56610   5.390   0.336  12.519
97317W        W56611  30.091  36.883  14.028
97318W        W56612  22.245  14.239   3.233
97319W        W56613  29.576  16.568   1.233
97320W        W56614  28.593  14.629   0.792
97321W        W56615   8.771  24.009  13.385
97322W        W56616  14.286  26.594   3.197
97323W        W56617  22.628  38.370  10.516
97324W        W56618  35.429   5.221   0.767
97325W        W56619  28.627  32.043   4.341
97326W        W56620  43.785  29.425  14.317
97327W        W56621   1.422  21.082   4.237
97328W        W56622   7.735  44.004   3.265
97329W        W56623  17.643  44.286   2.705
97330W        W56624   0.415   6.715  12.864
97331W        W56625  29.058  28.676  10.635
97332W        W56626  12.847   1.770  11.037
97333W        W56627  38.473  39.872  11.993
97334W        W56628  25.141  39.004  11.432
97335W        W56629  24.543  17.708   2.757
97336W        W56630  27.001  37.356   2.869
97337W        W56631  12.174   6.710   2.875
97338W        W56632   2.321   4.421  12.904
97339W        W56633  44.928  39.517  14.853
97340W        W56634  11.284  27.601  12.077
97341W        W56635  17.221  44.500  11.452
97342W        W56636  10.239   7.802  11.008
97343W        W56637  33.035   6.330  11.563
97344W        W56638  32.918  29.576   1.910
97345W        W56639   6.277  28.499  14.910
97346W        W56640  42.915  25.213   1.917
97347W        W56641  30.110  37.410   0.769
97348W        W56642   4.765  19.068  12.924
97349W        W56643  23.707   2.932  13.312
97350W        W56644  26.068  23.987   3.821
97351W        W56645  41.530  17.198  13.546
97352W        W56646   6.700  12.792  10.581
97353W        W56647  30.604   3.454  14.512
97354W        W56648  29.959  13.155  14.299
97355W        W56649  35.443  30.616   3.317
97356W        W56650   2.314  18.651  13.948
97357W        W56651   4.836   9.226  10.082
97358W        W56652  39.386  18.221  13.444
97359W        W56653  19.153  33.401  12.525
97360W        W56654   5.926  28.475  14.031
97361W        W56655  16.077   4.316   4.727
97362W        W56656  30.588  16.121   4.785
97363W        W56657  42.005   5.919   2.669
97364W        W56658   0.970  30.575  10.093
97365W        W56659  41.875  22.152  13.814
97366W        W56660  29.448  29.023   3.738
97367W        W56661  26.492   8.803  10.439
97368W        W56662  42.388  34.419   2.310
97369W        W56663   7.171  24.480  13.060
97370W        W56664   5.798  27.637  11.030
97371W        W56665  35.100  23.533   2.688
97372W        W56666   3.909  14.741  11.562
97373W        W56667  34.062  44.289   1.370
97374W        W56668  31.068  17.087   0.266
97375W        W56669   9.726  37.875   3.683
97376W        W56670  24.693  18.286  13.893
97377W        W56671  21.561  29.630   1.892
97378W        W56672  30.558  42.931   0.247
97379W        W56673   6.778  21.054   1.842
97380W        W56674  26.179  23.645  10.447
97381W        W56675   5.222  27.649  13.047
97382W        W56676  13.794  42.336   2.295
97383W        W56677   3.234  22.195  11.375
97384W        W56678  42.401   2.455   2.244
97385W        W56679  35.872   7.187  12.561
97386W        W56680  17.105  16.644  14.481
97387W        W56681  10.360   7.375   0.332
97388W        W56682  37.891  34.038  10.081
97389W        W56683  18.626  18.706   2.253
97390W        W56684   8.245  43.992  10.531
97391W        W56685  26.466  26.588   2.395
97392W        W56686  39.860  42.776   1.770
97393W        W56687  39.319   2.313  10.625
97394W        W56688   7.360  35.044   3.247
97395W        W56689  19.233  10.806  13.904
97396W        W56690  30.093  12.694  10.645
97397W        W56691  13.656   9.241  10.630
97398W        W56692  26.097  13.161  10.618
97399W        W56693  43.987  44.361   4.777
97400W        W56694  11.215  31.632  13.442
97401W        W56695   1.395  44.289  14.399
97402W        W56696  33.388   8.365  13.837
97403W        W56697  38.069  44.951   0.809
97404W        W56698   8.397   3.779   3.371
97405W        W56699  20.718  35.065  13.023
97406W        W56700  41.867   3.800  12.503
97407W        W56701   9.183  41.969   1.345
97408W        W56702  40.483  24.690   3.778
97409W        W56703  12.825  25.522  14.342
97410W        W56704  39.534  18.151  10.421
97411W        W56705  17.258  42.996  13.351
97412W        W56706  33.951   5.407  12.348
97413W        W56707  38.040  27.589   4.662
97414W        W56708   8.375  39.906  14.779
97415W        W56709  16.104  15.163   0.476
97416W        W56710  37.470  29.488   4.789
97417W        W56711  28.169  31.585  12.417
97418W        W56712  15.787  10.376  11.481
97419W        W56713  27.690  44.481  10.603
97420W        W56714  39.988   7.756  13.387
97421W        W56715  36.434   8.309   2.816
97422W        W56716  34.001  44.995  11.586
97423W        W56717  17.152  16.305  10.486
97424W        W56718  29.960  20.528   4.297
97425W        W56719  36.411  40.996   4.279
97426W        W56720  12.291  43.478   4.616
97427W        W56721  39.922  14.260   0.889
97428W        W56722  40.366  15.205  10.558
97429W        W56723  36.919  20.202   2.731
97430W        W56724  23.991  12.721   3.212
97431W        W56725  20.668   8.852  12.558
97432W        W56726  32.942  25.693  11.121
97433W        W56727  21.677  43.299   1.332
97434W        W56728  32.924  20.140  13.401
97435W        W56729  16.591  22.740   1.261
97436W        W56730  42.808  44.272  12.826
97437W        W56731   2.322  31.440   3.783
97438W        W56732   1.407   6.878   1.433
97439W        W56733  14.216  32.972  11.927
97440W        W56734  28.486  36.006  13.425
97441W        W56735  34.066   0.920   1.226
97442W        W56736  41.962   8.881  10.536
97443W        W56737  22.127  21.746   4.798
97444W        W56738  23.212  39.447  12.353
97445W        W56739  32.039  23.210  13.385
97446W        W56740   2.958  26.042   0.757
97447W        W56741  16.114  31.644   0.885
97448W        W56742  43.367  38.390  11.046
97449W        W56743   5.287  22.533   4.228
97450W        W56744  28.607  29.928  10.522
97451W        W56745  27.478  27.150   4.288
97452W        W56746  41.035  31.472   3.249
97453W        W56747  29.484  31.146  12.993
97454W        W56748   3.807  28.970  10.972
97455W        W56749  15.255   0.456  14.412
97456W        W56750  14.663  17.674  12.855
97457W        W56751  33.038   6.195   4.798
97458W        W56752   6.402  32.908   0.806
97459W        W56753  19.244  35.991   2.715
97460W        W56754  26.466  17.217  13.932
97461W        W56755  19.214  21.743   4.153
97462W        W56756  39.943  34.609  11.062
97463W        W56757  20.235   9.653   0.450
97464W        W56758  38.400  33.592   2.793
97465W        W56759   4.698   9.855  14.888
97466W        W56760  29.977  41.902   4.348
97467W        W56761  44.959  20.119   3.374
97468W        W56762  39.374  33.108  14.470
97469W        W56763   6.733  14.177   1.323
97470W        W56764  31.004  21.711   4.212
97471W        W56765  25.200  32.560  11.067
97472W        W56766   2.964  43.774   3.721
97473W        W56767  23.149  29.094  11.606
97474W        W56768  25.038  30.482   3.748
97475W        W56769  18.285  26.642  14.406
97476W        W56770  16.177  39.917   0.312
97477W        W56771   6.834  22.091   5.161
97478W        W56772  35.979  38.014  11.033
97479W        W56773  23.061  14.276   4.815
97480W        W56774  42.440  40.885   1.406
97481W        W56775   4.812  15.108  13.039
97482W        W56776  19.648  38.456   0.726
97483W        W56777  19.751  16.645   0.301
97484W        W56778   3.949  21.215   4.680
97485W        W56779  33.978  36.349  13.979
97486W        W56780  37.037  22.569  14.979
97487W        W56781  38.853  24.696   2.804
97488W        W56782   8.793  16.583   0.958
97489W        W56783  37.939  17.237   9.929
97490W        W56784   3.412  32.888   0.252
97491W        W56785   4.212  31.602   2.362
97492W        W56786  35.604  25.539  12.444
97493W        W56787   3.720  30.421   3.808
97494W        W56788  33.403  34.971  11.415
97495W        W56789   2.353  10.841   0.763
97496W        W56790  17.254  35.876  10.143
97497W        W56791  27.038  41.340   2.672
97498W        W56792  24.567  40.886  12.036
97499W        W56793  31.127  44.890   4.174
97500W        W56794  30.082  29.008  14.925
97501W        W56795   5.902  36.073  14.774
97502W        W56796  21.715  39.001  10.143
97503W        W56797  39.394   4.762  13.511
97504W        W56798  17.159   5.843  10.604
97505W        W56799   0.823  14.287  14.000
97506W        W56800  24.500  41.902   0.409
97507W        W56801  38.024   2.461   1.835
97508W        W56802  18.103  22.557  13.939
97509W        W56803  21.196  27.539  11.066
97510W        W56804   2.762  22.162  11.612
97511W        W56805  40.977   9.889   1.806
97512W        W56806  33.588  13.791  10.439
97513W        W56807  20.615  39.058   3.732
97514W        W56808  43.433  17.798  11.010
97515W        W56809  25.517   2.888   1.299
97516W        W56810  13.688  19.572  11.969
97517W        W56811  41.982  14.760   3.777
97518W        W56812  30.658  13.163  11.601
97519W        W56813  25.573  29.024   5.109
97520W        W56814   1.365   2.465  11.863
97521W        W56815   6.906  16.600  12.537
97522W        W56816  23.177  38.981   1.288
97523W        W56817  33.993  19.569  10.629
97524W        W56818   9.376   4.898  10.461
97525W        W56819  23.060  15.597   4.791
97526W        W56820   6.381  11.155  11.054
97527W        W56821  39.978  22.705  14.784
97528W        W56822  13.336  21.689   3.743
97529W        W56823  35.953   4.367  12.515
97530W        W56824  34.603  16.614   0.420
97531W        W56825  28.609  39.046   0.751
97532W        W56826   5.691  40.829  13.381
97533W        W56827  30.014  29.434   0.304
97534W        W56828  17.118  25.699  11.961
97535W        W56829  23.491  31.151  14.809
97536W        W56830   2.905  37.872   1.242
97537W        W56831   8.682  19.213   4.150
97538W        W56832  13.767  39.367  14.389
97539W        W56833  12.238  34.008  12.343
97540W        W56834  33.884  42.376  14.480
97541W        W56835  29.094  33.447  11.929
97542W        W56836  35.110  25.199   4.114
97543W        W56837   7.880   2.725   3.358
97544W        W56838  31.986  19.560  10.624
97545W        W56839   1.400  31.957  14.829
97546W        W56840  10.858  26.032   2.367
97547W        W56841  18.238  42.328   4.630
97548W        W56842  13.637  37.552  10.981
97549W        W56843  20.137  34.439  14.845
97550W        W56844  16.302  27.191   0.439
97551W        W56845  15.709   0.487  14.806
97552W        W56846  28.676   9.317  13.986
97553W        W56847  17.177  21.581   0.781
97554W        W56848   0.252  35.593   0.308
97555W        W56849  32.124  29.175  13.545
97556W        W56850  38.375  31.417  14.296
97557W        W56851  16.231  32.919  10.434
97558W        W56852  21.144  33.454   0.293
97559W        W56853   9.185  17.293  12.461
97560W        W56854  38.048  26.530  12.840
97561W        W56855  14.331  38.981  12.880
97562W        W56856  17.149  25.170  11.975
97563W        W56857  28.970  26.528   5.101
97564W        W56858  36.517  33.579  13.003
97565W        W56859  29.553   4.224   3.295
97566W        W56860  17.763  32.926  11.970
97567W        W56861  29.048  37.346  13.493
97568W        W56862  20.727  32.112  13.327
97569W        W56863  43.405  44.302  14.874
97570W        W56864  28.547  31.975   3.385
97571W        W56865   8.220  14.095  13.307
97572W        W56866  19.195  42.297  10.485
97573W        W56867  12.835  12.720   4.730
97574W        W56868   0.793   4.753  11.049
97575W        W56869  43.874   0.439   4.688
97576W        W56870  36.062  30.992   3.271
97577W        W56871   2.354  14.328   3.789
97578W        W56872  29.491  23.203  11.086
97579W        W56873  34.020  26.642   0.399
97580W        W56874  10.287  24.177   4.801
97581W        W56875  43.981  24.684  14.503
97582W        W56876  14.327  30.473   0.311
97583W        W56877  28.663  17.648   3.206
97584W        W56878  14.785  20.178   0.443
97585W        W56879  23.178   0.984  11.069
97586W        W56880   8.203   2.751  12.463
97587W        W56881  10.241   1.868  11.068
97588W        W56882   2.895  13.283   0.299
97589W        W56883  23.132  40.042  10.535
97590W        W56884  14.282  16.144  11.880
97591W        W56885  26.582  44.314  12.387
97592W        W56886   4.783  28.525   3.753
97593W        W56887  15.631  24.147  12.912
97594W        W56888  31.132  24.177   1.356
97595W        W56889  30.635  14.652   3.386
97596W        W56890  39.547  12.830  12.342
97597W        W56891  25.485  41.293   0.797
97598W        W56892  27.584   8.377   1.909
97599W        W56893   5.325  13.820   0.309
97600W        W56894  44.482   7.834  12.050
97601W        W56895  12.203  33.116   1.878
97602W        W56896   7.244  35.553  13.027
97603W        W56897  42.921  44.447   3.730
97604W        W56898  26.496  19.212  14.870
97605W        W56899  35.108  29.605  13.485
97606W        W56900   4.712  17.651   2.786
97607W        W56901  38.021  18.237  10.565
97608W        W56902  42.293  23.045   1.376
97609W        W56903  14.247  34.064  10.931
97610W        W56904  26.113  18.720   1.918
97611W        W56905  42.364  23.130   3.286
97612W        W56906  32.406  16.316  10.434
97613W        W56907   5.860  36.570   1.272
97614W        W56908  19.684  31.490   3.641
97615W        W56909  42.031  43.315   0.336
97616W        W56910  28.643  34.417   3.148
97617W        W56911  36.582   1.421  14.820
97618W        W56912  25.126  24.527  14.504
97619W        W56913  31.034  29.175   4.686
97620W        W56914  11.273  17.721  11.903
97621W        W56915  25.109  28.111   4.638
97622W        W56916  22.506  14.656  13.457
97623W        W56917  12.752  27.120  12.457
97624W        W56918  14.620  16.289  13.387
97625W        W56919   2.375  33.396   5.310
97626W        W56920  32.005  43.407  12.943
97627W        W56921   9.716  26.137   3.717
97628W        W56922  38.492  29.446   2.801
97629W        W56923  16.194  40.875  11.084
97630W        W56924  22.599  20.584   2.869
97631W        W56925   7.672  34.519  10.509
97632W        W56926  36.425  32.432   0.366
97633W        W56927  12.293  34.915   1.880
97634W        W56928  16.110  14.255   4.148
97635W        W56929  21.086  42.440  11.611
97636W        W56930  44.387  25.970   3.349
97637W        W56931  30.025  38.075  10.580
97638W        W56932   0.293   0.363  11.013
97639W        W56933  21.125  26.483  11.582
97640W        W56934  26.548  41.538  13.824
97641W        W56935   9.852  28.124  11.985
97642W        W56936   1.867  43.365   4.667
97643W        W56937  22.072  35.400  12.096
97644W        W56938   6.418  27.464   0.816
97645W        W56939  25.494  17.601   3.356
97646W        W56940   7.798  44.843  13.895
97647W        W56941   6.188  34.074   0.250
97648W        W56942  17.147  42.919   0.826
97649W        W56943  21.141   5.763  11.585
97650W        W56944  30.608   4.357  11.601
97651W        W56945  21.621  30.625   0.892
97652W        W56946  25.559  18.240  12.503
97653W        W56947  35.452  28.939   4.284
97654W        W56948  32.022  28.061   3.813
97655W        W56949   5.354  12.830  10.619
97656W        W56950   1.836   1.779  11.610
97657W        W56951   9.192  36.487  13.450
97658W        W56952  36.088  17.076   1.342
97659W        W56953  38.479  25.698   0.903
97660W        W56954  37.059  23.017   1.418
97661W        W56955  16.225  44.787  14.488
97662W        W56956  43.339   8.835  13.428
97663W        W56957  31.074   7.904  12.861
97664W        W56958   8.747  23.544  12.485
97665W        W56959  30.073  14.687   4.297
97666W        W56960  44.309  19.631   5.185
97667W        W56961  31.048  43.906   0.910
97668W        W56962   7.834  37.516   4.732
97669W        W56963  11.856  18.571  11.052
97670W        W56964   1.476   7.357   4.211
97671W        W56965  32.124  30.040   1.901
97672W        W56966  15.141   1.774  11.917
97673W        W56967  12.274  19.698  14.296
97674W        W56968  17.120  19.637   1.388
97675W        W56969  16.117  23.095   0.743
97676W        W56970  17.621  17.158  14.356
97677W        W56971  18.119  40.046  14.858
97678W        W56972   5.927  16.809   1.838
97679W        W56973  15.734  27.633  10.538
97680W        W56974   7.864   2.313   4.679
97681W        W56975  41.963  18.775   0.398
97682W        W56976   8.798  44.957  10.109
97683W        W56977  20.735   1.886  14.880
97684W        W56978   0.872  11.294   2.815
97685W        W56979  41.977  29.481   5.316
97686W        W56980  33.506  11.638   2.800
97687W        W56981   8.381   8.683  10.436
97688W        W56982  30.002   3.288   0.730
97689W        W56983  44.003  35.956  13.930
97690W        W56984   8.275   7.860   2.866
97691W        W56985  30.498  43.294   1.368
97692W        W56986   1.482  35.392   3.345
97693W        W56987  11.282  27.945   0.901
97694W        W56988  13.751   0.331   3.826
97695W        W56989   3.898  19.706  11.510
97696W        W56990  18.243  39.870  13.920
97697W        W56991   7.804  43.823  12.412
97698W        W56992  13.647  22.176  12.511
97699W        W56993  26.047   9.864   0.363
97700W        W56994  34.980  15.203   3.291
97701W        W56995  42.875  36.020  14.856
97702W        W56996  31.407  14.729   0.313
97703W        W56997  42.861  12.322  12.357
97704W        W56998  28.481  25.978   0.959
97705W        W56999  26.081  27.668   2.685
97706W        W57000  17.567   5.325   2.803
97707W        W57001  17.130   6.689  12.970
97708W        W57002  21.604  38.397  11.463
97709W        W57003   8.218   3.357  10.908
97710W        W57004   4.360   7.392  12.356
97711W        W57005  25.590  26.625  13.514
97712W        W57006  21.546  31.919  13.411
97713W        W57007  38.005   6.685   3.838
97714W        W57008  38.904  12.615   2.302
97715W        W57009  16.749  18.585   1.447
97716W        W57010  37.558  18.081  14.999
97717W        W57011  35.468  40.417  13.037
97718W        W57012  21.704  32.579  13.343
97719W        W57013   3.393  19.559  14.368
97720W        W57014   5.887   3.818  13.397
97721W        W57015  44.984   7.699  11.466
97722W        W57016   0.255  24.228   3.257
97723W        W57017  17.717  31.969  14.902
97724W        W57018  33.411   3.431  14.806
97725W        W57019  24.159  11.625   2.225
97726W        W57020  33.537  12.797   5.183
97727W        W57021  22.043  12.625  12.026
97728W        W57022  35.099  11.135  13.795
97729W        W57023   4.206  18.124  13.864
97730W        W57024  44.840   5.197   9.666
97731W        W57025  33.480  16.146  13.947
97732W        W57026  35.485  27.004   0.881
97733W        W57027  30.163  10.817   3.679
97734W        W57028  35.495  18.586   0.349
97735W        W57029  43.006  18.781  11.401
97736W        W57030  34.117  37.901  12.909
97737W        W57031  36.853  32.574   2.418
97738W        W57032  28.103  24.658  11.070
97739W        W57033  42.939  25.618  14.308
97740W        W57034   0.378  11.200   1.762
97741W        W57035  32.953  32.629   2.825
97742W        W57036  19.641   0.450  12.092
97743W        W57037   5.427  28.660   1.907
97744W        W57038  28.179  31.625  13.895
97745W        W57039  18.202  19.231   4.610
97746W        W57040  41.336   6.707   2.874
97747W        W57041   8.827   0.986  12.874
97748W        W57042  29.543  24.722  14.305
97749W        W57043   8.279  28.050  12.895
97750W        W57044  15.819  41.445  14.499
97751W        W57045  11.254  40.972  11.377
97752W        W57046  13.297  41.928   0.880
97753W        W57047  23.699  11.823  10.094
97754W        W57048   5.395  39.328   1.213
97755W        W57049   8.223  44.854   1.242
97756W        W57050  29.949   3.845   2.239
97757W        W57051  42.894  14.639   0.450
97758W        W57052  40.990   4.807  14.468
97759W        W57053  23.552  11.841  14.378
97760W        W57054  29.080  14.179   1.880
97761W        W57055  30.518  22.508   3.810
97762W        W57056   4.241  29.139  11.440
97763W        W57057  44.777  33.496   0.740
97764W        W57058  26.115  16.632  12.459
97765W        W57059  20.059  13.200   2.316
97766W        W57060  22.164  43.005   3.789
97767W        W57061  41.851  25.189  11.128
97768W        W57062  41.016  44.824  14.418
97769W        W57063  18.787  40.833   1.827
97770W        W57064  13.703   7.343   2.201
97771W        W57065  12.311  17.747  10.984
97772W        W57066  18.170  31.090  12.407
97773W        W57067  10.350   7.305  13.366
97774W        W57068  13.717  20.721  14.014
97775W        W57069  14.266  43.411  11.905
97776W        W57070   5.388   2.746   4.756
97777W        W57071  28.475  38.357   0.446
97778W        W57072  12.804  14.683  11.582
97779W        W57073  33.503   9.262  10.121
97780W        W57074  28.490  37.911   9.567
97781W        W57075  21.591  32.520   3.838
97782W        W57076  10.170   0.797  12.979
97783W        W57077  39.878  42.352   0.951
97784W        W57078  40.855   6.248   3.376
97785W        W57079   1.480  35.973  13.546
97786W        W57080  32.984  15.664  11.539
97787W        W57081   6.739  40.809   1.384
97788W        W57082  33.985  32.020  14.941
97789W        W57083  19.756  17.632   3.295
97790W        W57084  41.962   6.370   9.985
97791W        W57085  40.994  33.955   4.246
97792W        W57086  13.709  42.494   4.182
97793W        W57087   7.879  16.701   4.682
97794W        W57088  18.640  13.766  13.441
97795W        W57089  10.221  23.059   0.789
97796W        W57090  27.147  40.526   0.769
97797W        W57091  13.836  32.111  12.985
97798W        W57092  31.128   7.887   3.809
97799W        W57093  36.853   0.366  12.875
97800W        W57094   6.425  33.884  12.349
97801W        W57095  36.517   7.237  11.103
97802W        W57096  25.104  11.743   1.264
97803W        W57097  27.025  43.912   4.129
97804W        W57098  43.908  42.503  13.010
97805W        W57099  14.696  31.153   2.844
97806W        W57100  44.903   4.885   9.560
97807W        W57101  35.954   4.797  12.968
97808W        W57102  12.856   2.817  14.505
97809W        W57103  43.379   7.362   4.323
97810W        W57104   6.751  37.359   4.649
97811W        W57105  32.625  39.870  14.977
97812W        W57106  37.411   1.751  11.985
97813W        W57107  16.600  18.772  12.550
97814W        W57108  40.329   9.261  12.021
97815W        W57109  21.058   8.782   5.109
97816W        W57110  42.874  26.701  12.416
97817W        W57111  38.980  19.549   3.820
97818W        W57112   4.749   1.808  12.839
97819W        W57113  43.925  42.954   0.748
97820W        W57114  31.404  11.859   1.887
97821W        W57115  33.118  35.051   3.315
97822W        W57116   1.748  33.542  12.965
97823W        W57117  44.308  26.119  12.945
97824W        W57118   4.279  23.159   0.358
97825W        W57119  14.657   8.698  11.381
97826W        W57120   9.830   0.885  12.358
97827W        W57121  30.925   0.786   2.773
97828W        W57122  33.892   5.693   4.241
97829W        W57123  40.869  14.107   3.348
97830W        W57124  14.288  34.598  14.373
97831W        W57125   8.290  42.352  10.593
97832W        W57126   7.875  22.041  12.894
97833W        W57127  27.954   4.249  11.978
97834W        W57128  28.161  29.125   3.795
97835W        W57129  16.179  40.329  14.355
97836W        W57130  43.480   4.347   1.806
97837W        W57131  36.076  10.670  11.466
97838W        W57132  36.531  29.537  14.459
97839W        W57133  23.019  10.291   0.787
97840W        W57134  38.013  33.129   0.883
97841W        W57135  44.965  44.932   3.793
97842W        W57136   3.918  36.451   1.845
97843W        W57137  13.123  31.539   2.268
97844W        W57138  43.021  12.154  13.893
97845W        W57139  21.722  35.372  11.043
97846W        W57140  44.450   9.360   2.754
97847W        W57141  12.818  34.393  10.555
97848W        W57142  36.988  10.876   3.637
97849W        W57143  19.615   0.984  12.912
97850W        W57144  17.084  20.630  12.076
97851W        W57145  41.489  12.761  11.600
97852W        W57146  31.604  34.027   2.815
97853W        W57147  22.590   6.185   2.347
97854W        W57148  21.614  39.402  12.059
97855W        W57149  35.098  42.429  10.982
97856W        W57150  15.111   9.250  13.982
97857W        W57151   5.422  10.659   1.274
97858W        W57152  15.697  42.003  11.100
97859W        W57153  44.403   8.377   0.780
97860W        W57154  31.562  29.458  10.948
97861W        W57155  20.673  19.060  10.612
97862W        W57156  30.014  12.831   4.740
97863W        W57157  15.120  28.086  11.604
97864W        W57158  15.150  20.533   1.319
97865W        W57159   6.819  12.235   4.125
97866W        W57160  28.171  27.557   4.126
97867W        W57161   8.870  39.422  13.795
97868W        W57162  39.047  23.619   0.964
97869W        W57163  44.442  21.191  12.365
97870W        W57164   6.744   7.763   1.351
97871W        W57165   4.216   0.429  14.466
97872W        W57166  40.535  43.270  12.025
97873W        W57167  32.076   6.265   4.352
97874W        W57168  29.046  11.215  11.112
97875W        W57169   5.802  16.136  13.832
97876W        W57170  17.126  19.578  13.398
97877W        W57171  38.053  35.467  10.947
97878W        W57172   9.268  14.273  10.489
97879W        W57173  28.040   6.347  13.379
97880W        W57174   8.829   4.407   0.913
97881W        W57175  17.584   8.194  12.827
97882W        W57176  38.428  44.863  10.474
97883W        W57177  24.030  42.949  12.391
97884W        W57178  27.560  38.035   4.693
97885W        W57179  16.626  12.736  13.978
97886W        W57180  36.015  17.782  14.877
97887W        W57181  33.950  25.692   4.632
97888W        W57182  34.933  27.605  13.495
97889W        W57183  33.474  19.608  10.594
97890W        W57184   7.835  18.732   2.691
97891W        W57185   7.385  13.149  13.399
97892W        W57186  14.769  11.173  10.064
97893W        W57187  28.956  19.589  11.884
97894W        W57188   5.692  39.938   2.903
97895W        W57189   4.903  36.439  13.873
97896W        W57190  23.232  11.825   3.374
97897W        W57191  31.425  26.673   4.189
97898W        W57192  33.975  28.962   4.179
97899W        W57193  23.717  23.103  12.854
97900W        W57194   8.233  31.421   0.832
97901W        W57195  23.556  24.677  12.543
97902W        W57196  18.277  37.573  13.792
97903W        W57197  33.590  14.821  14.491
97904W        W57198  23.507  16.140  12.077
97905W        W57199  32.476   7.702   4.679
97906W        W57200  11.149  36.376  13.378
97907W        W57201  41.490  20.566  14.831
97908W        W57202   2.885  16.107  12.055
97909W        W57203   3.369  19.538  14.006
97910W        W57204  32.549   6.389  11.098
97911W        W57205  16.287   6.394  11.940
97912W        W57206  20.547  36.995   4.799
97913W        W57207  33.550   6.744  12.580
97914W        W57208  42.515  29.447   3.333
97915W        W57209  27.600  13.160  11.008
97916W        W57210  26.149   9.795  14.849
97917W        W57211  25.486   2.781  11.477
97918W        W57212  23.030  44.493   0.438
97919W        W57213  26.021  37.997  14.426
97920W        W57214  21.637  32.902  12.497
97921W        W57215  23.614  31.509  10.934
97922W        W57216   6.215  22.118   4.663
97923W        W57217  19.130   1.809  13.899
97924W        W57218  34.490  21.041  13.958
97925W        W57219  30.094  36.457  12.872
97926W        W57220  43.826  44.482   5.582
97927W        W57221  42.910   6.188  13.529
97928W        W57222  23.650  23.570  14.894
97929W        W57223   4.315  26.043  11.889
97930W        W57224   3.940  32.561  14.023
97931W        W57225  20.251  12.628  13.883
97932W        W57226  26.958  19.255   0.356
97933W        W57227  11.332  25.079  10.622
97934W        W57228  13.298   1.260  11.566
97935W        W57229  24.537  14.812   2.703
97936W        W57230   9.331  20.095  11.859
97937W        W57231   2.452   3.297  14.384
97938W        W57232  39.947  41.390   0.398
97939W        W57233  34.967  39.355  10.488
97940W        W57234  13.830  26.628   1.826
97941W        W57235  35.377   1.443  12.079
97942W        W57236   1.757  12.322  10.978
97943W        W57237  19.543  33.047  12.997
97944W        W57238  33.095  14.309  12.070
97945W        W57239  20.597  43.993  11.465
97946W        W57240  44.945   1.385   0.946
97947W        W57241  28.545  14.753   2.304
97948W        W57242  37.546  29.436   2.779
97949W        W57243  40.474   5.852  10.922
97950W        W57244  19.169   6.881  10.913
97951W        W57245   5.927   4.241  14.844
97952W        W57246  36.580  20.527   0.908
97953W        W57247   6.755  31.525  10.110
97954W        W57248   2.361  35.567   1.302
97955W        W57249  20.686  25.181  11.429
97956W        W57250  44.261  41.042  12.438
97957W        W57251   9.825  20.685  14.318
97958W        W57252  36.372  23.665   1.293
97959W        W57253   9.876  41.913   1.334
97960W        W57254  40.027  10.865   3.266
97961W        W57255  12.185  26.461   4.617
97962W        W57256  29.543   2.251   0.871
97963W        W57257  33.435  32.033  11.011
97964W        W57258  37.953  36.956  10.061
97965W        W57259  22.731  34.459  12.996
97966W        W57260  24.182  23.027  11.948
97967W        W57261   3.252  33.502   4.761
97968W        W57262  25.131   5.790  10.633
97969W        W57263  33.587  36.957  13.346
97970W        W57264  40.810   4.698  12.468
97971W        W57265  10.691  43.469  10.571
97972W        W57266  44.346   9.763  13.528
97973W        W57267  40.426  33.060  12.528
97974W        W57268  22.741  37.002  14.355
97975W        W57269  44.457  41.346   4.212
97976W        W57270  43.484  42.004  10.908
97977W        W57271  12.353  10.757  11.012
97978W        W57272  37.071  40.866   0.827
97979W        W57273  23.638  20.540  13.978
97980W        W57274  16.273  43.407   4.688
97981W        W57275  13.166  28.439  13.877
97982W        W57276  37.348  35.427  13.911
97983W        W57277  30.449  23.616   1.281
97984W        W57278  40.542  12.788  13.818
97985W        W57279  22.519  11.843   2.681
97986W        W57280  33.457  35.424   2.789
97987W        W57281   8.332  30.096  12.927
97988W        W57282  29.488  38.015  12.549
97989W        W57283   5.371  26.542  11.083
97990W        W57284  22.527  13.134   2.243
97991W        W57285  12.141  23.709   1.346
97992W        W57286  23.079   0.847   4.121
97993W        W57287  17.164  10.833   3.865
97994W        W57288  22.660  43.413  13.363
97995W        W57289  21.518  21.256   2.880
97996W        W57290  35.506   9.698  13.826
97997W        W57291  18.643  43.953   1.441
97998W        W57292  21.184  41.510   0.309
97999W        W57293  37.833   6.384  12.452
98000W        W57294  36.042   7.894   2.383
98001W        W57295  38.984  26.604   2.336
98002W        W57296   5.825  40.990  13.857
98003W        W57297  41.933  31.931   4.813
98004W        W57298   9.654   1.252   1.854
98005W        W57299  23.707  28.499  13.844
98006W        W57300   0.484  38.411  14.779
98007W        W57301  32.088  43.812   4.244
98008W        W57302  25.497  16.733  12.985
98009W        W57303   4.339  29.440   0.349
98010W        W57304  10.749   7.754  14.329
98011W        W57305  21.221  43.904  14.500
98012W        W57306  12.820  29.440   0.447
98013W        W57307  33.055   9.350  12.001
98014W        W57308  35.022  42.300  11.408
98015W        W57309  17.277   0.270   1.818
98016W        W57310  30.461  21.070  11.434
98017W        W57311  43.376  24.120   2.664
98018W        W57312   3.379  27.184  10.624
98019W        W57313  25.706  42.287  11.452
98020W        W57314  24.047  12.334  14.793
98021W        W57315   7.903   0.407   4.207
98022W        W57316  27.559  40.828  14.286
98023W        W57317  24.157  27.000   4.728
98024W        W57318  29.973  34.954   0.931
98025W        W57319   0.331  32.574   4.761
98026W        W57320  36.884  29.472  13.890
98027W        W57321  43.515  21.226   0.262
98028W        W57322  39.389  40.815  12.967
98029W        W57323  14.253  32.457   4.683
98030W        W57324  10.691  26.030  10.897
98031W        W57325  15.136  28.452   0.406
98032W        W57326  35.417  41.931   2.754
98033W        W57327  27.555  39.938  13.461
98034W        W57328   1.297  23.560   1.791
98035W        W57329  31.512  43.400   2.885
98036W        W57330  43.774   2.810  11.524
98037W        W57331   9.646  18.730  13.505
98038W        W57332  29.082  31.006   1.267
98039W        W57333  14.292  18.206  12.843
98040W        W57334  43.832  21.631  14.944
98041W        W57335  28.005   8.319  11.010
98042W        W57336  43.514   6.901  10.602
98043W        W57337  19.256  11.685  13.376
98044W        W57338  18.695  15.275  12.072
98045W        W57339  36.893   2.410  13.427
98046W        W57340   9.717  25.530   4.684
98047W        W57341  16.643  44.494  13.791
98048W        W57342  15.266  11.768  13.018
98049W        W57343  38.417  34.103   2.703
98050W        W57344  31.955  27.085  12.354
98051W        W57345   7.171  34.441   4.745
98052W        W57346   8.312  22.744   3.239
98053W        W57347   7.838   6.407  11.082
98054W        W57348  36.998  18.062   0.473
98055W        W57349  31.126  26.542  11.030
98056W        W57350   5.845  35.922   4.790
98057W        W57351  44.930  39.437  10.986
98058W        W57352  14.330   8.857   2.392
98059W        W57353  39.863   9.766  11.881
98060W        W57354   0.961  17.179  12.561
98061W        W57355  21.709  28.151  14.310
98062W        W57356  18.785  20.572   2.188
98063W        W57357  41.851  26.178  14.986
98064W        W57358  10.152   8.890   3.664
98065W        W57359  18.082  10.668  13.021
98066W        W57360  14.762  10.866   0.735
98067W        W57361  33.067  11.208   4.323
98068W        W57362   3.361  28.501   0.300
98069W        W57363  24.575   4.889  12.394
98070W        W57364  12.653   7.415  14.433
98071W        W57365   2.931  31.538  11.031
98072W        W57366  29.622   5.897  14.399
98073W        W57367  14.791  25.667  12.487
98074W        W57368  32.964   6.368   4.191
98075W        W57369   6.702   9.713  11.483
98076W        W57370   8.725  20.156  14.002
98077W        W57371   7.845   3.904   0.423
98078W        W57372   5.345  12.221   1.732
98079W        W57373   1.954  38.424   2.268
98080W        W57374  11.287   8.829   4.783
98081W        W57375  37.339  11.225   0.925
98082W        W57376   6.380  40.910  13.056
98083W        W57377   4.341  11.150  14.893
98084W        W57378  11.300  16.192   1.244
98085W        W57379  29.096  31.899  12.887
98086W        W57380  39.377  33.444  10.610
98087W        W57381  19.077  18.593   3.294
98088W        W57382  23.633   3.412   3.160
98089W        W57383  28.058  34.000   3.861
98090W        W57384  39.538  37.875  11.480
98091W        W57385  43.287  39.470   1.929
98092W        W57386  10.825  18.633   3.387
98093W        W57387  32.003  13.182  10.455
98094W        W57388  13.702   1.237   4.732
98095W        W57389  14.803  33.935  12.483
98096W        W57390  24.625  29.623   4.265
98097W        W57391  43.961  27.464  12.388
98098W        W57392  30.598  10.741  14.321
98099W        W57393   1.292   6.193   1.821
98100W        W57394  24.661  24.031   2.285
98101W        W57395  31.621  27.114   4.195
98102W        W57396  41.476  19.693  12.364
98103W        W57397  22.623  18.261  11.117
98104W        W57398  40.400  30.925   2.884
98105W        W57399   8.735   5.763  14.388
98106W        W57400  12.276   4.299   4.320
98107W        W57401  15.706  22.141  14.336
98108W        W57402  15.628  19.042   0.766
98109W        W57403   5.758  32.535   4.183
98110W        W57404  31.487  40.954  10.510
98111W        W57405  18.789  16.113   0.753
98112W        W57406  14.314  44.313   3.829
98113W        W57407  28.532  14.638   4.744
98114W        W57408  32.108   6.302  13.016
98115W        W57409   7.263   5.863  12.495
98116W        W57410  14.315  21.615   1.934
98117W        W57411  35.078  20.033  14.997
98118W        W57412   8.880  19.661  12.469
98119W        W57413  20.609  15.269   1.360
98120W        W57414  15.594  41.417   2.714
98121W        W57415  41.814  34.052  11.918
98122W        W57416  15.248  13.746   3.849
98123W        W57417   8.320  39.809  11.425
98124W        W57418  16.181  28.556   4.790
98125W        W57419  14.215  13.722  11.888
98126W        W57420   8.164  16.283   2.344
98127W        W57421  22.096   9.677  13.898
98128W        W57422  18.617   2.283   1.802
98129W        W57423  20.074  33.433  12.058
98130W        W57424  21.030  43.956   1.911
98131W        W57425   8.760  34.039  11.016
98132W        W57426  10.657  12.324  12.441
98133W        W57427  38.532   8.398  11.470
98134W        W57428  13.157  18.757   2.400
98135W        W57429   6.833  14.771   4.272
98136W        W57430  39.343  18.125   4.273
98137W        W57431  36.947  40.811  10.480
98138W        W57432  33.007  29.020  10.533
98139W        W57433  23.733   3.459   4.343
98140W        W57434  36.438  33.527   3.716
98141W        W57435   1.812  43.807   3.298
98142W        W57436  36.870  38.360   2.335
98143W        W57437  38.356  10.180   3.771
98144W        W57438  15.638  44.976  13.478
98145W        W57439  43.513  31.090  11.886
98146W        W57440   9.163  31.646  12.351
98147W        W57441  15.182  16.281  13.477
98148W        W57442   2.947  37.939  14.484
98149W        W57443  38.379  11.133   3.761
98150W        W57444  10.211  15.666   1.383
98151W        W57445   5.393  14.235  13.902
98152W        W57446   1.883  21.081  13.864
98153W        W57447   6.894  37.401   2.187
98154W        W57448  29.476  35.441  14.404
98155W        W57449  23.583  39.842  13.060
98156W        W57450  20.233  36.078  14.904
98157W        W57451  11.230   4.858   2.348
98158W        W57452  35.539  27.099   3.741
98159W        W57453  41.440  31.567  13.508
98160W        W57454  19.711  42.015   4.716
98161W        W57455  22.605  28.935   4.813
98162W        W57456  24.708   2.776   2.275
98163W        W57457  42.994  39.958   2.828
98164W        W57458  39.873  14.609  12.398
98165W        W57459  15.323  27.950   0.935
98166W        W57460  28.049  31.463  14.377
98167W        W57461  26.134   9.165   5.611
98168W        W57462   1.271   2.852  14.983
98169W        W57463  14.831  40.461   3.268
98170W        W57464  25.695  39.533  12.398
98171W        W57465  14.098   2.460  14.929
98172W        W57466  20.607  10.318  14.505
98173W        W57467  32.927  24.690  11.396
98174W        W57468  21.114  20.155   2.851
98175W        W57469  33.957  39.821  14.295
98176W        W57470  36.561  28.544  13.504
98177W        W57471  19.169  28.578  12.402
98178W        W57472   2.328   2.838  10.510
98179W        W57473  19.675  35.455   2.323
98180W        W57474  19.632  24.586  13.376
98181W        W57475  20.525  13.346   1.813
98182W        W57476  40.377   7.342   0.737
98183W        W57477  17.665   1.402   0.771
98184W        W57478  18.580   8.304   1.778
98185W        W57479  18.291  38.509   0.914
98186W        W57480   9.808  18.158  10.994
98187W        W57481  25.578  34.455  12.925
98188W        W57482  37.984  25.468   2.715
98189W        W57483  15.191  21.659  14.783
98190W        W57484  28.654  36.994   2.295
98191W        W57485  19.126   5.734   1.345
98192W        W57486  13.797  42.442  14.460
98193W        W57487  33.459  16.686  13.420
98194W        W57488   2.355  40.341  14.339
98195W        W57489  34.113  10.260  12.571
98196W        W57490  38.415  10.373  12.392
98197W        W57491  40.336  26.691  11.434
98198W        W57492  11.770   2.917   3.339
98199W        W57493   9.235  44.900   1.263
98200W        W57494  20.645  37.565   4.351
98201W        W57495  10.218  13.844   2.409
98202W        W57496  41.984   0.466   9.641
98203W        W57497  25.483   2.742   3.846
98204W        W57498  12.325  12.315   1.299
98205W        W57499   4.235  22.192  13.829
98206W        W57500  24.121   4.359   0.781
98207W        W57501  18.582   6.680  14.965
98208W        W57502   1.825  18.663  12.841
98209W        W57503  15.166   8.267   1.350
98210W        W57504   8.362  35.420  11.952
98211W        W57505  38.455   3.325  12.380
98212W        W57506  17.664  16.773   2.671
98213W        W57507  26.580  30.102   2.262
98214W        W57508  35.985   5.295  13.859
98215W        W57509   8.268  30.944  13.388
98216W        W57510  29.504  12.641   2.274
98217W        W57511  42.989  22.702  10.989
98218W        W57512  17.064   8.251  14.852
98219W        W57513  18.603  22.123   2.359
98220W        W57514  35.998  18.771  10.615
98221W        W57515  33.062   5.768   1.805
98222W        W57516  44.390  43.806   0.275
98223W        W57517  39.940   0.963  13.056
98224W        W57518  32.571  26.112   1.399
98225W        W57519  21.691  43.997  13.447
98226W        W57520  35.374   6.700  11.018
98227W        W57521  13.314  11.825  12.096
98228W        W57522  24.173  12.750   0.425
98229W        W57523  35.994  17.637   4.822
98230W        W57524  40.994  32.622   2.703
98231W        W57525  14.788   6.869  13.030
98232W        W57526  17.261  13.834  14.829
98233W        W57527  42.804  14.123  12.492
98234W        W57528   1.752  37.360  12.997
98235W        W57529  28.661  20.628  12.967
98236W        W57530  24.666  29.515  11.972
98237W        W57531  22.613  28.587  12.906
98238W        W57532  41.017   2.901  12.401
98239W        W57533   1.790  31.055   1.368
98240W        W57534   4.702   6.863  12.084
98241W        W57535  12.825  30.935   2.867
98242W        W57536   0.746  30.098  12.979
98243W        W57537  16.701   0.775  14.438
98244W        W57538  17.621   9.775   3.777
98245W        W57539  11.315  12.290   4.174
98246W        W57540  25.079  34.517  12.998
98247W        W57541   2.876  32.633  11.590
98248W        W57542   4.822  16.634  10.017
98249W        W57543  16.121  30.117   1.924
98250W        W57544  33.094  23.636  14.790
98251W        W57545  35.398  39.994   3.775
98252W        W57546   8.799  15.593   5.224
98253W        W57547  22.648  37.830   0.777
98254W        W57548   6.286  18.208   0.377
98255W        W57549  32.404  13.705  12.040
98256W        W57550  34.612  31.565   0.835
98257W        W57551  40.894  35.932  14.357
98258W        W57552  36.547  34.886  13.906
98259W        W57553  39.041  19.265   4.703
98260W        W57554  29.133  39.025   0.272
98261W        W57555  18.662  42.327  14.298
98262W        W57556  22.559  31.564  14.855
98263W        W57557   2.896  16.618   4.178
98264W        W57558  40.406   3.717   3.784
98265W        W57559  31.535   8.673  14.901
98266W        W57560   9.206  25.590   2.865
98267W        W57561  28.979   5.793  13.856
98268W        W57562  26.584   1.926   4.284
98269W        W57563  17.676  12.768   5.187
98270W        W57564   5.756  19.570  11.397
98271W        W57565  42.821   8.690   0.243
98272W        W57566  21.713  44.304   2.857
98273W        W57567  43.786  11.333  14.414
98274W        W57568  43.003  22.161   3.870
98275W        W57569  25.966  14.751  12.481
98276W        W57570  38.822  33.923  13.978
98277W        W57571  20.054  18.280   3.371
98278W        W57572  17.219  32.020  14.327
98279W        W57573  13.787  15.122  11.100
98280W        W57574  16.714  12.266   0.927
98281W        W57575  29.129  43.494  10.921
98282W        W57576  30.588  29.535   4.656
98283W        W57577   0.765  41.800   0.340
98284W        W57578  44.983  34.983  12.450
98285W        W57579  34.569  11.768   1.445
98286W        W57580  16.181   2.907   3.703
98287W        W57581   2.402   4.764   1.774
98288W        W57582  18.251   5.901  12.522
98289W        W57583   5.798  25.212   2.206
98290W        W57584  24.127  14.801  13.018
98291W        W57585  37.484  14.286  14.864
98292W        W57586  10.714  23.537   3.838
98293W        W57587  43.841  42.501   2.844
98294W        W57588  17.675  30.509   0.757
98295W        W57589   7.789  43.843   0.942
98296W        W57590  33.600  17.607  11.127
98297W        W57591  37.367  42.995  11.515
98298W        W57592  17.067  17.123   2.750
98299W        W57593  44.294  28.936  11.475
98300W        W57594  32.141  11.300   9.984
98301W        W57595   1.752  15.142  11.060
98302W        W57596   4.240   7.714  14.357
98303W        W57597  29.433  17.630  10.532
98304W        W57598  28.081  32.576   1.346
98305W        W57599  39.960  21.237  11.862
98306W        W57600  28.042  30.593   0.337
98307W        W57601  19.267  31.476   2.402
98308W        W57602  11.238   1.331   2.414
98309W        W57603  44.338  11.259   4.303
98310W        W57604  30.131  35.952  14.004
98311W        W57605  25.522   9.880  13.992
98312W        W57606  43.966   9.347  12.930
98313W        W57607  29.645  14.614  13.852
98314W        W57608  33.957  10.371  14.923
98315W        W57609  14.650  32.472   1.833
98316W        W57610  25.145  43.371  10.917
98317W        W57611  14.757  28.949   0.799
98318W        W57612   5.846  22.087   3.366
98319W        W57613  22.156   8.680   1.844
98320W        W57614  21.063   3.816   3.794
98321W        W57615  38.847  37.967   5.222
98322W        W57616  33.980  29.968  11.866
98323W        W57617  22.050  18.218  14.003
98324W        W57618  24.185  27.657  11.405
98325W        W57619  16.295  39.047  11.000
98326W        W57620  13.736  18.113  13.041
98327W        W57621  43.350   3.239  13.531
98328W        W57622  16.609   6.357   2.667
98329W        W57623  11.313   4.449   2.409
98330W        W57624   6.197   3.775   2.682
98331W        W57625  17.794  13.244   1.768
98332W        W57626  27.097  39.486   2.805
98333W        W57627  20.238   3.723  11.414
98334W        W57628  18.103  17.752  14.775
98335W        W57629   3.916   9.705  12.385
98336W        W57630  43.895  42.291   3.285
98337W        W57631  34.526  23.202  10.960
98338W        W57632  36.558  39.390  13.535
98339W        W57633  14.224  39.026  13.350
98340W        W57634  10.849  34.472  11.433
98341W        W57635  19.071  15.292  12.032
98342W        W57636  29.083  43.880  11.079
98343W        W57637   0.373  14.778   4.339
98344W        W57638  29.615   0.928   1.891
98345W        W57639   8.308   9.726   3.823
98346W        W57640  41.899  25.659  12.498
98347W        W57641  22.078  36.465   4.290
98348W        W57642   2.841  36.956   3.868
98349W        W57643  39.849  35.103  12.006
98350W        W57644  11.157  35.970  11.374
98351W        W57645  13.132  39.438  11.072
98352W        W57646   5.408  18.616   0.815
98353W        W57647  22.121  21.711  11.900
98354W        W57648  30.593  38.973   1.398
98355W        W57649  31.965  11.643  14.837
98356W        W57650  43.991  35.534  11.000
98357W        W57651  16.719   5.436   1.304
98358W        W57652  25.641  22.713   3.231
98359W        W57653  40.815  39.919  11.019
98360W        W57654  28.605  17.612  11.458
98361W        W57655  17.086   8.383   2.875
98362W        W57656  40.867  21.107  12.988
98363W        W57657  24.657  39.427   1.355
98364W        W57658  29.586  38.825  12.012
98365W        W57659  37.550  27.603  10.527
98366W        W57660  44.917  26.044   1.734
98367W        W57661  39.397  10.194  11.900
98368W        W57662  22.235  19.576  14.339
98369W        W57663   3.756  13.815  13.949
98370W        W57664  39.343  42.427  11.604
98371W        W57665   8.369  39.897  10.642
98372W        W57666  31.124   4.450  12.347
98373W        W57667  40.476  12.117  13.930
98374W        W57668   2.792   7.716  10.958
98375W        W57669  32.072  14.332  13.461
98376W        W57670  11.719  24.101   0.841
98377W        W57671  18.740   6.824  13.509
98378W        W57672  32.072  17.790  12.362
98379W        W57673  38.964  23.225   1.413
98380W        W57674  36.484  16.621  12.341
98381W        W57675  20.635  10.241  11.417
98382W        W57676  32.011  12.243  12.434
98383W        W57677  21.096   5.833   4.715
98384W        W57678   7.708   4.393  12.968
98385W        W57679  38.414   4.824   4.759
98386W        W57680   3.326  38.511  14.503
98387W        W57681  33.564  42.912  10.920
98388W        W57682  34.601  11.660  12.349
98389W        W57683  25.157  36.946  13.509
98390W        W57684  17.302  27.995  10.149
98391W        W57685  29.019  36.399  11.045
98392W        W57686  40.012   5.904   0.781
98393W        W57687  36.946  29.434   4.636
98394W        W57688  28.575  37.513   5.746
98395W        W57689  17.749  17.736  13.841
98396W        W57690  33.435  43.930   3.746
98397W        W57691  25.703   7.763   2.772
98398W        W57692   0.981   8.702   2.184
98399W        W57693  41.476  15.278  14.974
98400W        W57694  19.630  18.633   0.940
98401W        W57695  29.108  24.635   3.779
98402W        W57696   7.750  40.803  14.863
98403W        W57697  23.153  30.160   1.778
98404W        W57698  31.530   1.850   2.397
98405W        W57699  38.931  14.197   2.825
98406W        W57700   5.270  19.267  13.957
98407W        W57701  25.665   8.178   3.361
98408W        W57702   8.351   7.220   4.208
98409W        W57703   3.262  10.721  14.914
98410W        W57704  28.623  42.008   1.795
98411W        W57705  42.418   3.312   0.815
98412W        W57706   8.721  42.918   4.753
98413W        W57707  43.941  32.103  13.841
98414W        W57708  17.177   1.888  10.960
98415W        W57709  27.495  10.172  10.447
98416W        W57710  11.131   6.402  10.937
98417W        W57711  14.735   0.488  11.576
98418W        W57712  14.647  39.063   2.357
98419W        W57713  35.930  31.997   4.215
98420W        W57714  37.519  30.994   0.442
98421W        W57715  21.522  18.279  14.868
98422W        W57716  19.739  41.916   1.298
98423W        W57717  34.017  28.532   4.348
98424W        W57718  13.298  11.193   0.385
98425W        W57719  35.378  26.487  14.326
98426W        W57720  10.754   2.326   1.365
98427W        W57721  32.475  30.141  14.857
98428W        W57722  17.137  19.543  14.838
98429W        W57723  35.567   4.774   2.245
98430W        W57724   1.950  40.309   0.736
98431W        W57725  22.154  10.828   4.350
98432W        W57726   1.476   5.698   4.152
98433W        W57727  31.567  19.175   3.859
98434W        W57728  11.681  17.149  13.795
98435W        W57729   4.769  24.512  11.995
98436W        W57730  34.376  17.569   3.217
98437W        W57731  39.321  40.409  13.952
98438W        W57732  14.764  24.574  13.003
98439W        W57733  17.651   2.430   1.306
98440W        W57734  39.860  35.534   2.303
98441W        W57735  35.375   2.302   0.837
98442W        W57736  15.596  27.577  14.332
98443W        W57737  40.467  18.108  10.609
98444W        W57738  15.749  34.937  10.562
98445W        W57739  33.976   2.849   4.637
98446W        W57740   4.305  14.115  10.552
98447W        W57741  10.245  20.252  14.787
98448W        W57742  29.992  22.514   1.829
98449W        W57743   6.771   3.904   3.325
98450W        W57744  30.072  32.588  10.974
98451W        W57745  37.078  39.820   0.771
98452W        W57746  13.342  10.260   3.279
98453W        W57747   7.864  42.960   3.372
98454W        W57748   5.749  44.952   3.196
98455W        W57749   9.825  31.522  10.923
98456W        W57750  34.033  25.155   4.623
98457W        W57751  29.584   5.215  13.910
98458W        W57752  21.127  22.696  13.834
98459W        W57753  28.054  11.141  12.011
98460W        W57754   4.397  35.556  14.471
98461W        W57755   0.927  41.489  11.082
98462W        W57756  42.842   6.342  11.021
98463W        W57757  21.188  10.780   2.313
98464W        W57758  20.751   0.908   2.858
98465W        W57759   3.394  36.900  14.488
98466W        W57760   6.370  24.053   2.382
98467W        W57761  21.587  11.237   0.847
98468W        W57762  36.460  38.561   3.154
98469W        W57763  33.553  37.548  13.535
98470W        W57764  26.163  18.578  11.088
98471W        W57765   7.763  29.605  10.933
98472W        W57766  30.442  31.932   0.252
98473W        W57767  34.434  16.182   3.320
98474W        W57768  19.704  41.897  10.944
98475W        W57769  11.821   3.842  12.463
98476W        W57770  38.908  12.695   4.221
98477W        W57771   8.769  30.907   0.807
98478W        W57772  32.625  44.287   2.388
98479W        W57773  10.358  32.117   2.310
98480W        W57774  31.022  13.792  13.032
98481W        W57775  35.042   8.829  11.948
98482W        W57776  36.914  12.345  10.971
98483W        W57777  16.232  15.247   2.411
98484W        W57778  26.700  42.009   4.739
98485W        W57779  43.933  26.598  14.003
98486W        W57780   9.295  43.833  12.492
98487W        W57781  27.058  40.965  12.873
98488W        W57782  27.487  21.627  12.453
98489W        W57783  12.647  39.324   3.790
98490W        W57784  21.662  34.438  12.555
98491W        W57785  27.622  27.168   3.173
98492W        W57786  36.349  12.759  10.619
98493W        W57787  27.566  12.215   2.255
98494W        W57788  28.047  42.826  10.057
98495W        W57789  42.486  28.979  10.889
98496W        W57790  42.286  28.602  14.495
98497W        W57791  27.065   2.241  14.501
98498W        W57792  26.989   3.430  10.940
98499W        W57793  30.967   4.836   4.215
98500W        W57794   4.732   8.188   4.301
98501W        W57795  27.462  35.906   2.194
98502W        W57796  24.716   3.222   1.263
98503W        W57797   4.216  15.612  11.996
98504W        W57798   1.769   0.341  13.471
98505W        W57799  33.922  39.330  14.782
98506W        W57800  30.420  33.415   2.736
98507W        W57801  10.813  38.964  10.119
98508W        W57802   9.688   1.847   2.761
98509W        W57803  14.222  42.988   3.631
98510W        W57804   7.317  39.867   1.745
98511W        W57805  31.536   5.792   3.783
98512W        W57806   3.848   5.856  14.008
98513W        W57807  44.960  37.367   3.712
98514W        W57808  44.337  30.513   3.632
98515W        W57809  41.840  33.889   3.747
98516W        W57810  32.532   3.413  13.483
98517W        W57811  12.779  37.858  11.913
98518W        W57812  31.098  14.207  12.491
98519W        W57813  22.126  15.649   3.842
98520W        W57814  36.441  35.583  14.347
98521W        W57815  33.986   4.722  11.374
98522W        W57816  19.119  40.911   0.483
98523W        W57817  35.034  16.665   4.315
98524W        W57818  28.606  31.535   3.214
98525W        W57819  13.193  35.007   4.681
98526W        W57820   4.390  39.546  14.455
98527W        W57821  28.486   1.977  14.929
98528W        W57822  19.068  13.168   3.329
98529W        W57823   2.885  16.798   0.937
98530W        W57824  25.579  41.348   3.663
98531W        W57825  34.872  14.197   1.247
98532W        W57826  44.775  17.681  14.918
98533W        W57827  11.290  35.440   1.261
98534W        W57828  15.209  44.003  14.798
98535W        W57829  39.513  18.133   2.878
98536W        W57830  43.952  24.600  12.007
98537W        W57831  34.570  34.501   3.775
98538W        W57832  38.361  29.943  10.919
98539W        W57833  38.480   6.844   4.603
98540W        W57834  40.024  37.904  12.522
98541W        W57835  16.769  16.239   0.396
98542W        W57836   0.967  43.505  11.016
98543W        W57837  40.974  41.447   1.326
98544W        W57838  21.681   2.355   0.336
98545W        W57839  44.789  43.506   2.331
98546W        W57840  10.147  26.688   3.841
98547W        W57841  11.236  34.060  14.025
98548W        W57842  26.530  25.175   1.737
98549W        W57843  20.626  25.111   0.857
98550W        W57844  17.661  42.812   4.685
98551W        W57845  15.743  14.163   4.621
98552W        W57846  26.697   9.211  10.441
98553W        W57847  21.229  23.707  11.554
98554W        W57848  42.019  36.877   1.269
98555W        W57849  21.230  20.590  13.841
98556W        W57850   7.179  44.441   4.643
98557W        W57851  43.969   4.365   4.778
98558W        W57852  38.042  17.156   0.742
98559W        W57853  12.315  32.462   3.256
98560W        W57854  12.240   8.864   4.831
98561W        W57855  29.554   4.266  10.959
98562W        W57856   9.670  13.798   4.663
98563W        W57857   7.787  35.903  13.980
98564W        W57858  10.330  12.207   0.806
98565W        W57859  19.220   6.899  14.379
98566W        W57860   0.801  41.952   1.760
98567W        W57861  12.159  31.483  10.058
98568W        W57862  21.252  44.899  13.979
98569W        W57863  23.988  11.361   0.888
98570W        W57864  32.939   1.362  13.958
98571W        W57865  23.550  12.248  13.002
98572W        W57866  12.156  18.170   2.898
98573W        W57867  16.121   5.804  12.060
98574W        W57868  12.654   1.890  14.393
98575W        W57869  16.150  17.704  11.991
98576W        W57870  30.921  15.674   2.722
98577W        W57871  27.075  21.112   4.794
98578W        W57872  24.216   4.910  10.458
98579W        W57873  26.065  28.460   4.282
98580W        W57874  20.215  32.535  13.384
98581W        W57875   8.730  26.475  10.916
98582W        W57876  43.469  40.809  14.281
98583W        W57877  26.553  14.665  10.546
98584W        W57878  40.916  33.445   0.252
98585W        W57879  28.009  10.355   4.833
98586W        W57880  37.020  24.036  14.360
98587W        W57881  36.578  27.050   0.737
98588W        W57882  14.712   3.442  14.427
98589W        W57883  12.171  36.047  12.519
98590W        W57884  13.615   6.380   1.349
98591W        W57885  38.010  39.978   2.311
98592W        W57886   8.235  32.941  12.831
98593W        W57887  31.034   6.902  14.443
98594W        W57888  30.031  21.651   2.344
98595W        W57889  38.029  10.333   3.239
98596W        W57890   7.672  41.432  10.134
98597W        W57891  39.328  35.366  13.465
98598W        W57892  38.544  32.543  14.510
98599W        W57893   3.397  26.592  12.473
98600W        W57894  14.817  30.935  11.947
98601W        W57895  26.112  32.590  10.947
98602W        W57896  44.842  38.942   0.870
98603W        W57897  13.187   0.830  11.902
98604W        W57898  14.597  39.440  13.023
98605W        W57899  17.639  12.807   3.211
98606W        W57900  17.799  33.950  10.971
98607W        W57901  17.097  18.105  10.095
98608W        W57902  35.999   4.870   2.882
98609W        W57903  28.941  35.452   3.711
98610W        W57904  39.454   2.782  11.579
98611W        W57905   9.870  26.655  14.910
98612W        W57906  15.697   5.841   2.264
98613W        W57907  31.959  23.228  12.461
98614W        W57908   1.924  29.533  14.865
98615W        W57909  44.475   7.252   0.299
98616W        W57910  21.091  32.886   2.741
98617W        W57911   1.973  11.843   0.803
98618W        W57912  15.165   1.285   3.177
98619W        W57913  41.448  44.452   1.787
98620W        W57914  12.277   3.936  10.899
98621W        W57915  40.505   4.368  11.905
98622W        W57916  40.928  14.265  13.898
98623W        W57917  35.991  31.541  12.500
98624W        W57918   5.278  40.960   0.783
98625W        W57919  18.270   4.364   2.193
98626W        W57920  32.899  34.988   0.819
98627W        W57921  24.533  21.731  14.489
98628W        W57922  30.957  35.002  11.378
98629W        W57923  38.021  18.778  11.547
98630W        W57924   3.444  20.138   4.232
98631W        W57925  36.947   8.886   2.875
98632W        W57926  32.410  29.591  12.882
98633W        W57927  18.576  39.495   4.802
98634W        W57928  30.449  22.037  12.408
98635W        W57929   9.759   6.794   1.772
98636W        W57930   8.168  14.803  13.020
98637W        W57931   3.421  36.591  14.415
98638W        W57932  22.996  20.257   3.287
98639W        W57933   2.255  22.525  13.340
98640W        W57934  33.532  25.014   2.836
98641W        W57935  30.598  33.006   2.364
98642W        W57936  27.602   5.844  12.359
98643W        W57937   8.887  18.631  11.128
98644W        W57938  38.375  21.540  12.426
98645W        W57939  30.007   8.763   4.208
98646W        W57940  35.860  36.355  10.485
98647W        W57941  12.235  28.658   4.197
98648W        W57942  25.018   1.939  12.468
98649W        W57943  17.256  38.450   2.704
98650W        W57944   4.741   4.743  12.489
98651W        W57945  44.909  41.329   0.833
98652W        W57946  24.012  35.404  12.415
98653W        W57947  21.250  38.974   4.725
98654W        W57948   8.773  12.188  11.558
98655W        W57949   1.304  16.108   4.162
98656W        W57950   6.199  25.636  13.486
98657W        W57951  39.026  23.138  11.126
98658W        W57952  37.024  31.933   2.825
98659W        W57953   7.772   1.475   3.290
98660W        W57954  25.678  37.579  10.155
98661W        W57955  18.058  27.654   0.961
98662W        W57956  43.349   2.884   2.802
98663W        W57957  34.529  23.120   3.343
98664W        W57958  16.692  40.509  11.086
98665W        W57959  28.631  41.894  11.965
98666W        W57960  22.214  38.446   3.720
98667W        W57961   1.266  29.440   2.193
98668W        W57962  44.889  44.400   0.269
98669W        W57963  36.409  18.198  12.942
98670W        W57964  21.027  41.810   4.761
98671W        W57965  31.124  28.442  12.363
98672W        W57966  25.666  20.115  13.926
98673W        W57967   2.249  25.641   1.262
98674W        W57968  29.125  15.723   4.316
98675W        W57969   6.858   4.392  14.004
98676W        W57970   3.307  27.017   4.609
98677W        W57971  15.132  44.279  14.870
98678W        W57972   5.342  18.204  13.836
98679W        W57973  23.233  24.596  14.361
98680W        W57974   9.295   8.807  11.923
98681W        W57975   8.673  39.001  13.444
98682W        W57976  34.110   8.275   0.841
98683W        W57977  27.172  42.515   0.459
98684W        W57978   4.935  35.433  11.588
98685W        W57979  16.088  11.829  14.982
98686W        W57980  34.412  33.050  11.865
98687W        W57981  40.402  39.854  12.944
98688W        W57982  13.604  19.079  14.983
98689W        W57983  24.022  40.918  11.999
98690W        W57984   6.741   4.235  10.425
98691W        W57985  18.112  40.535   3.386
98692W        W57986  19.042  39.400  11.089
98693W        W57987  34.536   7.212   1.830
98694W        W57988   7.220   9.348  12.497
98695W        W57989  35.411  22.625  13.059
98696W        W57990   0.404   1.770   4.612
98697W        W57991   1.336  20.717   4.788
98698W        W57992  41.028  14.098  10.898
98699W        W57993  41.478  41.993  14.887
98700W        W57994  44.824  39.018  11.902
98701W        W57995  30.093  34.114  14.460
98702W        W57996  30.006  35.357   2.686
98703W        W57997  39.329  39.493  13.804
98704W        W57998  30.432  15.211   2.729
98705W        W57999  38.008   8.738   9.929
98706W        W58000  13.671  36.932  14.829
98707W        W58001  44.006  34.974   0.260
98708W        W58002  36.041  26.690  11.496
98709W        W58003  14.109  36.520   3.300
98710W        W58004   7.176  29.109  14.459
98711W        W58005  35.414  10.276  14.337
98712W        W58006  15.296  10.312   4.171
98713W        W58007   5.385  26.610  13.332
98714W        W58008  38.402  11.627   3.283
98715W        W58009  38.036  22.247  13.872
98716W        W58010  23.568  26.988   2.875
98717W        W58011  38.542  15.146  13.424
98718W        W58012   8.210  38.044  11.088
98719W        W58013  27.532   4.323  10.991
98720W        W58014   1.333  12.327  12.878
98721W        W58015  21.063  20.157   5.210
98722W        W58016  17.696  27.628  13.990
98723W        W58017  41.037   9.326  12.422
98724W        W58018   7.676   7.854  12.008
98725W        W58019  22.212  39.866  12.049
98726W        W58020  43.348  25.552   1.846
98727W        W58021  29.590  38.497  13.523
98728W        W58022  38.403  27.468   3.681
98729W        W58023  24.995  39.541   1.246
98730W        W58024   6.205  29.583  11.590
98731W        W58025  30.049  13.624   2.302
98732W        W58026  32.011  28.002   2.281
98733W        W58027   4.706  44.335  11.035
98734W        W58028  15.096  32.971  13.994
98735W        W58029  21.672  39.011   1.700
98736W        W58030  43.014  34.892  14.029
98737W        W58031  39.982   2.375  10.520
98738W        W58032  24.582  12.644   2.399
98739W        W58033  38.982   3.763  11.969
98740W        W58034  27.952  36.402  13.009
98741W        W58035  35.907   2.791  11.551
98742W        W58036   6.710  18.575   0.477
98743W        W58037  11.713   2.862  14.951
98744W        W58038   9.808   5.267  14.407
98745W        W58039  35.084  26.604   0.468
98746W        W58040  34.505  20.680  14.435
98747W        W58041  33.492   4.722  11.877
98748W        W58042   7.397  40.408  14.783
98749W        W58043  26.607  11.685   3.778
98750W        W58044  23.511  34.570   3.319
98751W        W58045  20.050  26.040   3.261
98752W        W58046  17.683  33.530   3.316
98753W        W58047  42.845   9.335   2.212
98754W        W58048  10.823  19.209  12.931
98755W        W58049  17.644  33.114  10.441
98756W        W58050   6.319   8.311  13.410
98757W        W58051  10.370  44.794   3.310
98758W        W58052   3.738  38.335   3.307
98759W        W58053  29.148  27.159  11.491
98760W        W58054  41.885  17.123  12.853
98761W        W58055  29.445  43.897   4.601
98762W        W58056  22.661  22.046   2.780
98763W        W58057   2.251   2.327  13.422
98764W        W58058  28.950  20.178  14.787
98765W        W58059  14.777  15.770   5.149
98766W        W58060  16.805   4.722  13.995
98767W        W58061  41.916   7.238   9.959
98768W        W58062   0.359  38.998   3.314
98769W        W58063   0.803  17.556  14.004
98770W        W58064   1.462   7.673   1.369
98771W        W58065  13.216  33.096  12.945
98772W        W58066  29.960  38.039   0.400
98773W        W58067  17.585   3.867  11.044
98774W        W58068  26.058  37.042   2.417
98775W        W58069  44.762  37.942  10.519
98776W        W58070  14.638  27.050  13.370
98777W        W58071  40.826  40.414   2.783
98778W        W58072  26.524   4.825  13.917
98779W        W58073  10.168  14.697   4.281
98780W        W58074  34.962   3.298   5.243
98781W        W58075  38.523   6.738   1.392
98782W        W58076  19.695  29.548  12.911
98783W        W58077  15.654  17.240   9.626
98784W        W58078  39.007  43.831   4.213
98785W        W58079   7.737   5.741  11.013
98786W        W58080  27.106   9.262  13.976
98787W        W58081   3.883  33.040   0.319
98788W        W58082  37.481   6.275   0.444
98789W        W58083  24.986  33.552  10.452
98790W        W58084  18.566  44.853  14.337
98791W        W58085  20.256  21.246   1.736
98792W        W58086   1.295  27.191  11.553
98793W        W58087   5.886  40.045  13.456
98794W        W58088  22.171  34.456  10.892
98795W        W58089  24.721  30.992  10.502
98796W        W58090  14.669   7.318   0.423
98797W        W58091  25.662  16.794  13.465
98798W        W58092  25.085   6.336   4.753
98799W        W58093  17.566  19.189  12.983
98800W        W58094  28.099  19.633   4.744
98801W        W58095  25.143  39.379   5.294
98802W        W58096   3.444  31.124  13.493
98803W        W58097  33.121  27.001  14.502
98804W        W58098  25.478  20.579  10.488
98805W        W58099  23.071  27.952   3.837
98806W        W58100  39.988  30.043   1.277
98807W        W58101   3.773  17.697   0.325
98808W        W58102  25.007  11.701  11.084
98809W        W58103   5.194  40.941  13.909
98810W        W58104  33.436  23.541   3.632
98811W        W58105  34.469   4.930   3.710
98812W        W58106  12.250  31.003  13.538
98813W        W58107  33.926  40.327  14.469
98814W        W58108  24.226   7.186   4.687
98815W        W58109  14.778  19.198  12.969
98816W        W58110  20.739  16.243  14.494
98817W        W58111  30.092  33.541   2.402
98818W        W58112  21.580  29.053   0.288
98819W        W58113   0.813  35.996  12.405
98820W        W58114  28.088  16.750   0.373
98821W        W58115  32.463  37.475   3.787
98822W        W58116  16.751  16.312  10.112
98823W        W58117  42.906   8.166  14.021
98824W        W58118   9.281  19.048  13.455
98825W        W58119  37.905  11.183  13.380
98826W        W58120  39.418  10.322  10.029
98827W        W58121  21.055  18.694   3.645
98828W        W58122  13.267  37.535  11.001
98829W        W58123  25.991  42.886  11.095
98830W        W58124   7.899  41.989   0.396
98831W        W58125  29.661  21.689   1.710
98832W        W58126  36.018  10.680   2.694
98833W        W58127  10.142  30.923   0.873
98834W        W58128  16.675  12.242   0.410
98835W        W58129  44.780  21.031  14.481
98836W        W58130   8.256  37.578   0.891
98837W        W58131  15.618  42.032  13.545
98838W        W58132  39.512  26.636   0.955
98839W        W58133  21.084   2.839   3.292
98840W        W58134  21.024   7.182  14.313
98841W        W58135  43.013  41.966   2.877
98842W        W58136   4.334  10.277  13.828
98843W        W58137   9.761  40.318   0.786
98844W        W58138   1.909  39.915  13.845
98845W        W58139   6.714  29.943  13.910
98846W        W58140  17.686  32.498  10.569
98847W        W58141   4.883  16.766   1.212
98848W        W58142  25.633  12.723   0.953
98849W        W58143   4.898   0.861   3.663
98850W        W58144  19.240  10.730   2.268
98851W        W58145  37.513  41.021   4.778
98852W        W58146  44.420  23.200  12.078
98853W        W58147  11.738  22.711   4.203
98854W        W58148  25.505  43.476   4.329
98855W        W58149  23.661  13.282   3.641
98856W        W58150  32.116   7.883   3.302
98857W        W58151  26.951  44.869   4.277
98858W        W58152   6.918  18.645   3.801
98859W        W58153  29.587   4.935   0.292
98860W        W58154   7.399  12.625   0.923
98861W        W58155   7.177  10.333  13.991
98862W        W58156  14.638  16.786   2.256
98863W        W58157  32.070  43.963  12.364
98864W        W58158  22.146  20.676   3.814
98865W        W58159  22.153  37.081   0.451
98866W        W58160   4.883  15.294  14.957
98867W        W58161  15.655   3.905   2.286
98868W        W58162  20.217  36.983   2.315
98869W        W58163  31.122  26.084   3.348
98870W        W58164   5.262  19.054   4.126
98871W        W58165  14.281  32.124  11.933
98872W        W58166  32.124   7.202   4.172
98873W        W58167  37.411  13.838   4.187
98874W        W58168  14.304  32.572   3.333
98875W        W58169  28.016  42.443   4.306
98876W        W58170  41.357   2.398   1.718
98877W        W58171  16.740  18.596   1.867
98878W        W58172   9.306  44.488  13.014
98879W        W58173  16.792  42.865  11.422
98880W        W58174  19.133  42.429  12.932
98881W        W58175  15.294  14.720   1.391
98882W        W58176  19.535   2.397   5.198
98883W        W58177   3.769  29.500   1.255
98884W        W58178  39.443  44.406   0.303
98885W        W58179  38.420   7.677   1.748
98886W        W58180  24.107  30.111   2.194
98887W        W58181  10.180  20.758   4.760
98888W        W58182  17.800  30.428  13.885
98889W        W58183  11.160  27.953  11.444
98890W        W58184   8.663  25.218   1.881
98891W        W58185  11.795   0.810   0.275
98892W        W58186  16.285   5.742   2.755
98893W        W58187  15.283  30.554   3.869
98894W        W58188  43.487  37.901  10.458
98895W        W58189   3.309  15.706   4.797
98896W        W58190  24.114  42.791   3.356
98897W        W58191  24.725   6.306  11.414
98898W        W58192   3.279  33.552   2.886
98899W        W58193  21.127  15.148  10.415
98900W        W58194  26.608   6.911   3.750
98901W        W58195  20.198  19.570   5.676
98902W        W58196  18.729   4.230   1.212
98903W        W58197  25.080  42.323   2.404
98904W        W58198  24.485  12.737   3.653
98905W        W58199  33.080  32.895   0.377
98906W        W58200  22.134  30.123  11.890
98907W        W58201  12.653   6.868  11.105
98908W        W58202  33.575  17.222  12.374
98909W        W58203  16.676  29.519  13.472
98910W        W58204  32.064  35.954   2.772
98911W        W58205  34.578   9.648  12.558
98912W        W58206  37.879  14.621   4.296
98913W        W58207  37.833   3.370   2.679
98914W        W58208  22.735  22.095   3.744
98915W        W58209  26.532   4.725  10.601
98916W        W58210  26.021  29.496  10.617
98917W        W58211  39.350  13.639  11.542
98918W        W58212   2.884  13.602  10.629
98919W        W58213   0.886  29.159   3.235
98920W        W58214   7.749  36.988   1.226
98921W        W58215  38.070  29.013   0.779
98922W        W58216  33.008   4.844  13.383
98923W        W58217  13.303  22.048  10.903
98924W        W58218  23.068  13.842   1.330
98925W        W58219  42.300   8.236   3.296
98926W        W58220  41.391  41.976  10.505
98927W        W58221   9.362   1.863   0.901
98928W        W58222   1.342  41.869  11.077
98929W        W58223  24.125  27.974  10.018
98930W        W58224  13.253   6.350   9.956
98931W        W58225  14.253  38.978   3.707
98932W        W58226   6.327   5.844   1.932
98933W        W58227   7.739   7.791  14.379
98934W        W58228  12.226  41.472   1.295
98935W        W58229  13.821   9.668  13.502
98936W        W58230  35.020  22.095   4.271
98937W        W58231  31.050  37.463   5.127
98938W        W58232  38.443  20.645  12.096
98939W        W58233  43.903  36.017  13.394
98940W        W58234  11.760  26.538   2.825
98941W        W58235  17.128  11.316   1.744
98942W        W58236  34.890   8.396  14.915
98943W        W58237  34.901  44.948   3.324
98944W        W58238  30.988  18.076  13.372
98945W        W58239  14.255   3.861   0.899
98946W        W58240   4.934  34.493  10.430
98947W        W58241  12.848  18.224  12.987
98948W        W58242  39.486  33.985   2.662
98949W        W58243   1.796  26.082  13.414
98950W        W58244   8.816   0.405  13.061
98951W        W58245   9.673  33.489  10.076
98952W        W58246  35.483  43.326  13.459
98953W        W58247  39.888  26.473   4.837
98954W        W58248   9.740  31.408   2.705
98955W        W58249  23.509  25.137   1.881
98956W        W58250   3.410   0.778   1.413
98957W        W58251  44.425  15.244  13.915
98958W        W58252  19.655  37.884   2.871
98959W        W58253   0.347  36.474   4.801
98960W        W58254   6.406  30.541   4.244
98961W        W58255  16.180  14.289   1.786
98962W        W58256  27.986  25.214   4.210
98963W        W58257  29.603  41.305   2.772
98964W        W58258  28.151  10.157   3.741
98965W        W58259  31.967   8.400   2.760
98966W        W58260  20.202  27.074  13.425
98967W        W58261  33.998  12.351   0.882
98968W        W58262  17.094  14.754   0.817
98969W        W58263  31.139   2.454   1.766
98970W        W58264  13.152   3.820  12.347
98971W        W58265  19.565  22.996  13.406
98972W        W58266  10.338  44.305   0.845
98973W        W58267  21.535  23.160  11.432
98974W        W58268  38.453  19.565  14.822
98975W        W58269  11.805   9.733   4.719
98976W        W58270  41.302  15.594   1.409
98977W        W58271   9.768  15.744  11.447
98978W        W58272  19.251  10.683  13.317
98979W        W58273  38.914  42.328   0.959
98980W        W58274  41.890  29.432  10.993
98981W        W58275  34.514   1.869   4.809
98982W        W58276   4.273  37.495  10.468
98983W        W58277  13.798  27.451  10.432
98984W        W58278  33.563  43.427   0.395
98985W        W58279  44.815  39.376   2.259
98986W        W58280  42.512   0.448  14.468
98987W        W58281  38.973  24.108  11.470
98988W        W58282  15.152  41.318   1.236
98989W        W58283  43.779   0.374  10.978
98990W        W58284  42.923  18.647  14.881
98991W        W58285  25.158  10.857   1.415
98992W        W58286  20.130  36.382   2.824
98993W        W58287  15.084  12.258   2.801
98994W        W58288   9.259  38.493   0.867
98995W        W58289  32.988  18.291   2.252
98996W        W58290  36.569  32.943   4.275
98997W        W58291   7.330  39.952   3.691
98998W        W58292  14.681  22.053  10.478
98999W        W58293  18.576  27.171  14.479
99000W        W58294  37.431  29.149   2.228
99001W        W58295  22.681   8.318  12.523
99002W        W58296   2.382  23.730   4.128
99003W        W58297  24.016   7.866  10.908
99004W        W58298  39.402   3.734  11.391
99005W        W58299  39.387  21.525   0.313
99006W        W58300  29.499   1.872   4.328
99007W        W58301  29.492  22.530   1.817
99008W        W58302   7.687  30.413   2.793
99009W        W58303  26.641  14.195  11.910
99010W        W58304   0.886  39.538   4.680
99011W        W58305  15.647  28.089  12.568
99012W        W58306   7.297  43.862   1.847
99013W        W58307  36.020  31.476  10.503
99014W        W58308  23.036  13.673   4.181
99015W        W58309  20.092   8.694   5.104
99016W        W58310  43.999  34.463   1.331
99017W        W58311  42.922  22.628   3.299
99018W        W58312   8.340   9.269   3.200
99019W        W58313  41.341   8.314   3.270
99020W        W58314  31.909  34.387  12.397
99021W        W58315   6.884  16.267  11.531
99022W        W58316  28.981   6.336  13.929
99023W        W58317  28.463   6.863  11.566
99024W        W58318   9.336  35.897  12.513
99025W        W58319   9.346  42.886  13.910
99026W        W58320   8.894  18.709  13.525
99027W        W58321   2.721  14.771   2.666
99028W        W58322  21.749   7.697  11.921
99029W        W58323  35.556   5.423  11.563
99030W        W58324  26.582   9.677  12.046
99031W        W58325  33.386  41.511  14.987
99032W        W58326  12.636  43.321  13.852
99033W        W58327  42.910  41.805  14.497
99034W        W58328  39.533  13.190  12.878
99035W        W58329   7.726   8.242  11.572
99036W        W58330  37.368  28.673  14.516
99037W        W58331  10.276   0.418   4.691
99038W        W58332   1.866  19.613   4.631
99039W        W58333  21.047  40.010   3.633
99040W        W58334  15.597  11.132   3.373
99041W        W58335  17.098   6.293   3.785
99042W        W58336  29.500  27.008   3.340
99043W        W58337   3.921  31.639  12.868
99044W        W58338  23.984   4.219  11.544
99045W        W58339  24.525  33.474  11.060
99046W        W58340  10.353   0.919   5.617
99047W        W58341  10.272  16.214  10.950
99048W        W58342   0.423   8.230  13.832
99049W        W58343  25.531  41.831  14.007
99050W        W58344  12.717  13.653   3.684
99051W        W58345   0.984  29.442  13.527
99052W        W58346  27.664  27.052   1.267
99053W        W58347  21.682   7.776   4.276
99054W        W58348   3.233  25.152  11.968
99055W        W58349  27.009  33.456   9.995
99056W        W58350   1.454   3.354   4.152
99057W        W58351  20.180   4.214   1.712
99058W        W58352  37.909  41.501  11.549
99059W        W58353  11.317  32.511   1.927
99060W        W58354  31.072  13.836   0.898
99061W        W58355  32.061  28.024   4.806
99062W        W58356  39.542  31.485  13.408
99063W        W58357  12.775  31.581   0.907
99064W        W58358  40.811   0.925   1.400
99065W        W58359  21.565  36.405   4.287
99066W        W58360  41.478  20.766   0.924
99067W        W58361  19.733  24.175  12.374
99068W        W58362  26.101   0.976  10.412
99069W        W58363  36.872  28.601  11.483
99070W        W58364  35.359  15.168   2.255
99071W        W58365   2.317   2.865   1.374
99072W        W58366  14.598   6.695   1.414
99073W        W58367  19.746  41.444  11.499
99074W        W58368   7.192  38.843   4.176
99075W        W58369  28.561  19.701  12.858
99076W        W58370  44.902  36.956  14.003
99077W        W58371  31.139  19.257  11.065
99078W        W58372  20.047  26.120   4.713
99079W        W58373  43.893  33.978   1.267
99080W        W58374   5.871   6.770  14.468
99081W        W58375  36.936   7.262   5.312
99082W        W58376  44.924  40.951   0.475
99083W        W58377  40.375  34.027   3.355
99084W        W58378  18.155   7.223  13.448
99085W        W58379  27.556   2.805  14.485
99086W        W58380  28.460  35.867   4.672
99087W        W58381  25.008   6.714   1.791
99088W        W58382  13.133  32.573   1.306
99089W        W58383   4.726   7.363  12.545
99090W        W58384   2.961  38.011  11.931
99091W        W58385  21.717  11.344   0.262
99092W        W58386  34.615  33.017   4.818
99093W        W58387  17.114  25.205   4.722
99094W        W58388  38.961  23.217  13.330
99095W        W58389  11.863  21.574   3.632
99096W        W58390  19.603  38.898   3.149
99097W        W58391  19.092  36.479  10.431
99098W        W58392   5.754  37.469   4.313
99099W        W58393   8.765  30.085  14.020
99100W        W58394   4.405  15.761   0.450
99101W        W58395  19.191  44.363   0.301
99102W        W58396  26.102  39.009   3.832
99103W        W58397  23.984  23.162  12.579
99104W        W58398   7.194   4.881  12.343
99105W        W58399   1.385  12.197  11.085
99106W        W58400   3.933  23.698   1.783
99107W        W58401  14.789  42.017  11.995
99108W        W58402  12.781  37.519  10.433
99109W        W58403   0.834   4.850  10.457
99110W        W58404  38.341  16.657  12.344
99111W        W58405   7.868   4.710   1.720
99112W        W58406   4.252  30.510  11.596
99113W        W58407  44.925  34.391   3.284
99114W        W58408  36.060  28.972  13.847
99115W        W58409  21.714  33.109  11.070
99116W        W58410  35.554   2.260  12.932
99117W        W58411  24.139  10.344  11.380
99118W        W58412  40.934   4.784   3.743
99119W        W58413  43.399  18.770   4.727
99120W        W58414   4.278   6.323   0.740
99121W        W58415  35.985  36.033   1.736
99122W        W58416  18.546   7.377   3.272
99123W        W58417  11.799  12.351  11.972
99124W        W58418  17.100  17.084  14.002
99125W        W58419  43.805  43.376  12.027
99126W        W58420  14.274  24.197   1.220
99127W        W58421  32.457  18.131  11.559
99128W        W58422   0.292  39.856   0.331
99129W        W58423  30.936  36.417  12.953
99130W        W58424   5.236  35.885  14.895
99131W        W58425  15.671   3.893   4.620
99132W        W58426  43.979  35.483   3.305
99133W        W58427  39.476  21.562   3.314
99134W        W58428   8.214  42.841   2.289
99135W        W58429   5.828  37.494   4.677
99136W        W58430  36.011   5.812  10.529
99137W        W58431  23.187  37.546   2.336
99138W        W58432  18.259  38.478  13.310
99139W        W58433  30.445  20.655   3.168
99140W        W58434  36.521  16.257   4.624
99141W        W58435  30.648  38.007  14.511
99142W        W58436   5.288  27.014   1.337
99143W        W58437   2.859  38.387   4.826
99144W        W58438   4.730  37.506   1.918
99145W        W58439   5.310   5.397   4.713
99146W        W58440  24.660  43.845   4.668
99147W        W58441  39.962  21.701   2.307
99148W        W58442   5.311  25.010  12.462
99149W        W58443  15.643  12.834  11.593
99150W        W58444  15.128  17.078   1.344
99151W        W58445  15.167  30.427  11.085
99152W        W58446  36.580  21.686   3.336
99153W        W58447  33.426  30.470  13.338
99154W        W58448   6.918  30.543  11.121
99155W        W58449  10.703  35.002   0.366
99156W        W58450   9.305  25.158   0.927
99157W        W58451  40.381  33.058  12.060
99158W        W58452  38.519   4.918  13.511
99159W        W58453  34.060  15.186   1.728
99160W        W58454  44.829   9.387   4.769
99161W        W58455  11.222  18.619   4.185
99162W        W58456  28.086   0.822   2.292
99163W        W58457  26.132   3.936   4.230
99164W        W58458  12.716  34.040   1.414
99165W        W58459  30.512  21.198   3.804
99166W        W58460  19.534  11.127   0.904
99167W        W58461   3.282   3.225  11.544
99168W        W58462  26.119   8.354   3.168
99169W        W58463   7.867  32.033   2.203
99170W        W58464  28.944   5.388   4.753
99171W        W58465  28.610   5.778  14.848
99172W        W58466  17.225  37.410   1.930
99173W        W58467  44.882  34.942   0.270
99174W        W58468  16.287  25.006  13.837
99175W        W58469  31.010  25.670   0.255
99176W        W58470   1.828  21.178   3.196
99177W        W58471  41.883   4.892  12.823
99178W        W58472  42.502  30.164   3.638
99179W        W58473  23.070  31.975  14.872
99180W        W58474   2.828  39.521  12.529
99181W        W58475  21.253  29.516   0.794
99182W        W58476  19.701  28.459   1.755
99183W        W58477  19.641  37.047  12.409
99184W        W58478  23.218   0.896  11.494
99185W        W58479   9.240  31.628  11.455
99186W        W58480  41.476   1.248   2.897
99187W        W58481  33.421  17.072  14.814
99188W        W58482  40.367  32.520  10.146
99189W        W58483  26.582  31.422  11.973
99190W        W58484  11.338  15.823   3.841
99191W        W58485  10.283   8.230  11.547
99192W        W58486  33.482  41.348  10.986
99193W        W58487  28.152  36.957  12.841
99194W        W58488   4.728  25.496  13.905
99195W        W58489  19.132  32.575  14.796
99196W        W58490  34.981  38.927   2.731
99197W        W58491  29.434  23.504   0.477
99198W        W58492  26.700  25.627   4.216
99199W        W58493  29.533   5.783  12.082
99200W        W58494  33.603  42.420   4.678
99201W        W58495  17.307   3.422   4.163
99202W        W58496  13.236  13.254   0.834
99203W        W58497   0.477  24.529  11.608
99204W        W58498   8.225   7.369   0.866
99205W        W58499  29.651  34.895   0.930
99206W        W58500   2.375  22.104   2.888
99207W        W58501  13.168   1.806  13.986
99208W        W58502  40.532  30.991  14.422
99209W        W58503   4.327   4.924   2.289
99210W        W58504  16.228   9.203   1.355
99211W        W58505  13.631  18.621   4.294
99212W        W58506   4.775  24.657  13.000
99213W        W58507   8.395  41.852   1.881
99214W        W58508  20.746  24.190   3.668
99215W        W58509  12.243  40.988   4.236
99216W        W58510  33.448  38.497   2.207
99217W        W58511  33.391  39.897  12.345
99218W        W58512   2.338  30.916  11.024
99219W        W58513  37.479  40.525   2.182
99220W        W58514   7.840  23.060  14.329
99221W        W58515  13.215  22.063   1.433
99222W        W58516   0.866  43.883   3.215
99223W        W58517  20.591  10.191  12.339
99224W        W58518  17.215   4.252  12.920
99225W        W58519   3.383  12.825   1.882
99226W        W58520  39.511   1.360  13.435
99227W        W58521  27.589  31.645   1.431
99228W        W58522  28.181  32.991  12.534
99229W        W58523  36.887  14.654  14.809
99230W        W58524  30.623   5.252   2.712
99231W        W58525   1.246  33.482  13.883
99232W        W58526  35.943  18.731  11.378
99233W        W58527  34.932  29.042   1.262
99234W        W58528  22.170  20.208  13.457
99235W        W58529  22.721  16.121   0.338
99236W        W58530  44.378  14.176   0.870
99237W        W58531  25.612   5.796  12.960
99238W        W58532   1.768  17.653  11.513
99239W        W58533   5.700   8.804  13.369
99240W        W58534  14.253   9.861  11.602
99241W        W58535  24.186  19.175  10.454
99242W        W58536  37.472  32.550   1.917
99243W        W58537  28.981  12.303  11.924
99244W        W58538  29.980  16.799   2.824
99245W        W58539  20.229  13.823  13.039
99246W        W58540  32.564   2.344  12.478
99247W        W58541  13.701  24.559   4.307
99248W        W58542   5.748  23.660   1.757
99249W        W58543  41.929  14.296  10.144
99250W        W58544  12.144   6.856  12.919
99251W        W58545  11.304   9.873   1.380
99252W        W58546   7.182  37.513   1.927
99253W        W58547  28.070  19.546  13.902
99254W        W58548   4.424  29.581  10.611
99255W        W58549  19.184   1.830  10.929
99256W        W58550  17.720  15.792  12.065
99257W        W58551  20.274  19.183   4.789
99258W        W58552  16.749  33.494   0.339
99259W        W58553  10.757   1.358  13.525
99260W        W58554   1.905   9.821  12.342
99261W        W58555  16.189  22.636   3.315
99262W        W58556  21.558   3.346  11.577
99263W        W58557   0.299  42.414  12.024
99264W        W58558  22.586  14.642   2.371
99265W        W58559  36.366  20.265   3.375
99266W        W58560   7.778  22.687  13.983
99267W        W58561   6.281  17.251  12.353
99268W        W58562  22.535   5.885   4.128
99269W        W58563  27.197   0.930   2.330
99270W        W58564   0.468  36.363  14.894
99271W        W58565  22.077   6.695  10.983
99272W        W58566  32.112  31.955   5.250
99273W        W58567  24.637  34.904   3.215
99274W        W58568  17.754  38.820   1.308
99275W        W58569  11.357   9.311  11.372
99276W        W58570   8.775  39.394   4.133
99277W        W58571  29.476  20.088  11.936
99278W        W58572  13.760  18.235   1.283
99279W        W58573   0.314  14.715   0.927
99280W        W58574   5.381  12.700  11.534
99281W        W58575   8.768  26.132   2.884
99282W        W58576   3.315  11.251   4.247
99283W        W58577  27.940  41.357   2.864
99284W        W58578   7.202  10.866  13.359
99285W        W58579  41.914  41.416  13.399
99286W        W58580  39.035  32.584   3.183
99287W        W58581  23.146   0.327  14.405
99288W        W58582  37.513   7.710  12.093
99289W        W58583  22.652  41.481   1.308
99290W        W58584   8.396  12.282  13.521
99291W        W58585  25.053  11.154  10.951
99292W        W58586  41.476   7.907   0.826
99293W        W58587  28.164   7.309  10.618
99294W        W58588  20.666  13.291  14.300
99295W        W58589  18.272  23.715  11.573
99296W        W58590  26.117  37.967   3.801
99297W        W58591   7.221  11.713  13.055
99298W        W58592   5.710  17.645   3.830
99299W        W58593  31.031  43.012  14.011
99300W        W58594  42.424  14.620  13.536
99301W        W58595  43.956  42.398  12.365
99302W        W58596  26.983  32.621  14.019
99303W        W58597   9.759  37.923  11.065
99304W        W58598  32.405  31.559  12.359
99305W        W58599  12.140   7.300  13.882
99306W        W58600   8.382  17.745   0.841
99307W        W58601  38.486  30.637   4.807
99308W        W58602   9.888   3.910  12.078
99309W        W58603   3.401  13.706  12.865
99310W        W58604  18.276   0.921   4.295
99311W        W58605  32.436  23.627  11.597
99312W        W58606  23.693  36.858   3.842
99313W        W58607  35.999   5.312  14.477
99314W        W58608  42.470  12.826  14.856
99315W        W58609  22.097  29.099   0.359
99316W        W58610  38.925  35.411   3.264
99317W        W58611  42.933   9.238   1.270
99318W        W58612   0.950  39.840  12.522
99319W        W58613   2.364   3.817  12.966
99320W        W58614   2.364  29.021   2.878
99321W        W58615  13.349  25.582  14.769
99322W        W58616  37.926   6.864  14.430
99323W        W58617  44.491  10.228   2.234
99324W        W58618   2.955   0.977  11.120
99325W        W58619  30.964  29.648   3.382
99326W        W58620  36.522   0.833  10.922
99327W        W58621   9.217   1.455   2.891
99328W        W58622  13.754  26.539  10.623
99329W        W58623  15.752  42.508   1.879
99330W        W58624  43.788  16.781   3.289
99331W        W58625   3.227   3.252  12.416
99332W        W58626  15.153  30.455   2.412
99333W        W58627   6.783  39.357   0.311
99334W        W58628  15.601  27.508   3.337
99335W        W58629  27.188   9.268  13.020
99336W        W58630  12.823  12.815  14.946
99337W        W58631  21.262  29.964  12.494
99338W        W58632  27.478   6.215   3.649
99339W        W58633  21.666  37.560  12.572
99340W        W58634  14.221   5.706   0.944
99341W        W58635  11.196  16.760   1.367
99342W        W58636   1.446   3.740   2.875
99343W        W58637  17.685   3.276  12.016
99344W        W58638  29.443  41.399  12.084
99345W        W58639  40.824  27.565  11.993
99346W        W58640  32.574  31.927   4.197
99347W        W58641  11.204   5.897   0.803
99348W        W58642  20.643   2.270   3.736
99349W        W58643  40.038  41.938  12.557
99350W        W58644  44.336  23.560  12.532
99351W        W58645  32.959  13.238  14.323
99352W        W58646  25.025   3.367   1.877
99353W        W58647  23.703  40.402  14.834
99354W        W58648   9.322  23.536   0.797
99355W        W58649  40.951  30.914  14.917
99356W        W58650   0.794  24.979   3.703
99357W        W58651  28.447  29.151  10.537
99358W        W58652   7.831  30.572  12.499
99359W        W58653  14.696   9.807  13.493
99360W        W58654  41.475   6.856  13.421
99361W        W58655  31.593  15.220  11.952
99362W        W58656  14.592  12.185   1.875
99363W        W58657   2.408  36.506  10.506
99364W        W58658  18.152  16.280  12.413
99365W        W58659  13.290  30.488  13.048
99366W        W58660  40.053  27.084   2.227
99367W        W58661  34.381  14.802   1.347
99368W        W58662   1.473  32.506  14.292
99369W        W58663  38.376  14.105  13.882
99370W        W58664  25.681  29.970   3.278
99371W        W58665  32.480  33.997  11.121
99372W        W58666   6.737  10.149  12.862
99373W        W58667  39.343  26.143  13.406
99374W        W58668  11.735  33.030  11.007
99375W        W58669  11.257  24.624  11.988
99376W        W58670  32.531   9.847   4.188
99377W        W58671  39.551  22.168  12.030
99378W        W58672  25.090  41.390  11.041
99379W        W58673  15.239  42.004   0.916
99380W        W58674  17.249  24.697   3.198
99381W        W58675  20.049   6.801   4.196
99382W        W58676  29.490   1.426  10.961
99383W        W58677  22.505  40.482  12.871
99384W        W58678  24.486  22.581   0.463
99385W        W58679   5.772  28.038  13.404
99386W        W58680  14.296  13.610  13.412
99387W        W58681  11.675  44.368  11.430
99388W        W58682  44.269  36.570  11.488
99389W        W58683   9.189   1.769   2.263
99390W        W58684   0.342  12.694  11.094
99391W        W58685  13.300   3.859  10.931
99392W        W58686  16.644  26.174  13.514
99393W        W58687   2.830  28.593   4.285
99394W        W58688   0.849  37.416   5.114
99395W        W58689  40.821   1.857   0.311
99396W        W58690  40.510   0.410  10.481
99397W        W58691  36.509  26.034   0.387
99398W        W58692  22.699  14.761   0.409
99399W        W58693   9.760  32.928   0.252
99400W        W58694  32.010  25.997  14.796
99401W        W58695  17.783   7.872  14.927
99402W        W58696   1.824  33.397  12.007
99403W        W58697   1.923   3.320   9.563
99404W        W58698  22.624  16.267   4.810
99405W        W58699   6.700   7.813   3.699
99406W        W58700  33.039   1.290  12.980
99407W        W58701   4.208  21.602  12.454
99408W        W58702  35.549   1.876   2.833
99409W        W58703  17.764  34.927  10.445
99410W        W58704  37.022  16.273  10.946
99411W        W58705  42.778  22.090   1.869
99412W        W58706  34.594  29.109  13.824
99413W        W58707  24.156  17.154   2.203
99414W        W58708  10.331  12.710   1.236
99415W        W58709  21.599  42.355   3.320
99416W        W58710  30.029  38.013  13.845
99417W        W58711  13.207  18.118   0.316
99418W        W58712  29.609  26.542  12.950
99419W        W58713  10.335  32.972   0.948
99420W        W58714  44.340  38.040  13.477
99421W        W58715  35.919  26.986  13.023
99422W        W58716  29.079  22.610  14.791
99423W        W58717  17.580  16.602   0.318
99424W        W58718  27.528  19.128   2.701
99425W        W58719  18.554   4.785  12.938
99426W        W58720   5.901  44.997  10.068
99427W        W58721   4.294  22.071   1.880
99428W        W58722   8.822  16.676  13.985
99429W        W58723  30.560   7.253   4.262
99430W        W58724  36.513  42.802   1.385
99431W        W58725   6.889  12.196   3.335
99432W        W58726  13.806  22.051  10.915
99433W        W58727   3.795   7.801  10.627
99434W        W58728   9.286  38.970   3.273
99435W        W58729  30.482   8.899   0.457
99436W        W58730   8.191   2.893  13.434
99437W        W58731  42.006  25.980   3.674
99438W        W58732  14.675  30.005  14.501
99439W        W58733  35.556  35.574   1.250
99440W        W58734   2.445   5.721   0.285
99441W        W58735  40.902   2.871   1.792
99442W        W58736   4.820  17.613  13.064
99443W        W58737   4.386   7.734   2.261
99444W        W58738  43.495   5.307   3.636
99445W        W58739   2.827  42.507  10.964
99446W        W58740   3.776   8.816   2.290
99447W        W58741   4.812   6.321  12.512
99448W        W58742  10.207  23.574  10.031
99449W        W58743   7.251   6.846  13.511
99450W        W58744  17.759  23.640  13.335
99451W        W58745  14.831  38.865  11.945
99452W        W58746  24.507  43.381   4.353
99453W        W58747  44.395  29.658   2.273
99454W        W58748  25.512  17.135  14.793
99455W        W58749  18.652  18.658  13.355
99456W        W58750  29.474  23.106   2.881
99457W        W58751  21.078  18.632   1.831
99458W        W58752  44.344  31.631   4.251
99459W        W58753  15.218  10.225   5.646
99460W        W58754  14.245  39.889  10.524
99461W        W58755  20.272   4.405   1.403
99462W        W58756   5.773   7.807  13.931
99463W        W58757  20.766   4.411   3.817
99464W        W58758  37.365  22.140   1.407
99465W        W58759   2.915  20.033   3.699
99466W        W58760  18.546  25.570   2.325
99467W        W58761  34.946  14.147   1.706
99468W        W58762  22.048  28.132  13.878
99469W        W58763  13.289  39.044   4.190
99470W        W58764  31.542  38.483  13.909
99471W        W58765   0.334   0.290  13.836
99472W        W58766  12.207  21.215   4.743
99473W        W58767   0.743   9.885   1.873
99474W        W58768  20.567  38.438   4.218
99475W        W58769   7.846  14.674   2.251
99476W        W58770  21.157  23.077  11.986
99477W        W58771  35.406  24.627  10.498
99478W        W58772  26.654   0.473  12.529
99479W        W58773  30.629   4.345   4.702
99480W        W58774  41.473  36.568   2.849
99481W        W58775  33.960   6.404   3.845
99482W        W58776   8.873  25.706   3.291
99483W        W58777  11.218  32.919   0.326
99484W        W58778  43.450  28.063  10.528
99485W        W58779  35.945  37.534   0.954
99486W        W58780   1.815  36.395   0.391
99487W        W58781  10.235  31.905  13.384
99488W        W58782  43.916  14.769  10.907
99489W        W58783  42.345  43.456  13.835
99490W        W58784  27.532  38.932  13.933
99491W        W58785   0.382  23.178  11.037
99492W        W58786  37.404  30.499   1.709
99493W        W58787   8.776   3.319   0.940
99494W        W58788  11.672  36.904   2.345
99495W        W58789  39.942  39.389  14.507
99496W        W58790  18.573  36.939  12.417
99497W        W58791  26.066   4.833  14.933
99498W        W58792  36.005  14.116  10.964
99499W        W58793   5.265  42.441  12.574
99500W        W58794  31.925  23.101  11.582
99501W        W58795  16.299  19.230  12.343
99502W        W58796   4.422  38.930  10.614
99503W        W58797  27.118  10.185  14.830
99504W        W58798   9.371  36.393  12.849
99505W        W58799  36.593  26.630   5.212
99506W        W58800   6.279  32.939   1.726
99507W        W58801  17.119   9.211  14.787
99508W        W58802  37.921  39.409  13.036
99509W        W58803  39.958  30.048   3.209
99510W        W58804  29.930  33.925  11.492
99511W        W58805   7.336  10.249   4.116
99512W        W58806  28.588  29.515   3.285
99513W        W58807  39.329  41.499   2.791
99514W        W58808  19.772  33.570  12.479
99515W        W58809  40.491  36.976   2.742
99516W        W58810  24.654  33.563   4.609
99517W        W58811   1.790  40.975  14.328
99518W        W58812   7.174   2.313   1.924
99519W        W58813  23.180   8.200  13.879
99520W        W58814  30.456   9.285  11.866
99521W        W58815   8.664  31.475   2.265
99522W        W58816  32.570  27.033  10.406
99523W        W58817  13.104  19.285   1.345
99524W        W58818   5.859  33.946  10.496
99525W        W58819   1.871   0.861  13.369
99526W        W58820  44.757  14.330   4.290
99527W        W58821   6.747  23.196  10.594
99528W        W58822  33.083  41.873  10.404
99529W        W58823  34.484   6.700   2.750
99530W        W58824   9.215  19.168  11.101
99531W        W58825  39.419  22.545  10.592
99532W        W58826  30.515  35.984   1.839
99533W        W58827  27.470  25.098  11.118
99534W        W58828  31.430  41.967   4.809
99535W        W58829  38.513  30.658   2.381
99536W        W58830  44.271  32.442   3.799
99537W        W58831  28.093   9.644  12.569
99538W        W58832  33.539   6.255   2.201
99539W        W58833   7.255  19.154  12.375
99540W        W58834  44.776  23.007   0.771
99541W        W58835  10.687  31.917   5.742
99542W        W58836  15.609  17.086  11.599
99543W        W58837   4.246  12.126   3.766
99544W        W58838   8.177  12.210  12.855
99545W        W58839  20.528  26.503   9.962
99546W        W58840  19.099  35.945   0.780
99547W        W58841  20.041  19.594   4.765
99548W        W58842   0.830  32.001  10.491
99549W        W58843  24.102  24.636   3.692
99550W        W58844  27.188   8.396  13.883
99551W        W58845   0.811  25.012   4.784
99552W        W58846  25.706  29.073   2.245
99553W        W58847  17.194  26.646   3.277
99554W        W58848  44.760   4.357   1.823
99555W        W58849  11.285  16.739  11.571
99556W        W58850  30.523  12.827   2.356
99557W        W58851   4.834  31.049  10.601
99558W        W58852  27.568   5.343   1.759
99559W        W58853  13.291  32.095  13.321
99560W        W58854   8.720   4.814  13.936
99561W        W58855  35.992  37.505   2.419
99562W        W58856  32.536  15.591   0.764
99563W        W58857  25.014  12.276   3.246
99564W        W58858  11.154  39.498  11.863
99565W        W58859  30.482  10.293  12.998
99566W        W58860  43.842  10.171  13.538
99567W        W58861  22.157  30.576  14.326
99568W        W58862  38.425  27.500  14.994
99569W        W58863  10.352   9.220  13.419
99570W        W58864   4.244  35.480   0.764
99571W        W58865  12.702  12.764   2.747
99572W        W58866  44.896  43.516  12.527
99573W        W58867  44.336  41.440  13.507
99574W        W58868  37.429  21.535  11.906
99575W        W58869  14.788  24.508   1.351
99576W        W58870  43.855  14.670  12.346
99577W        W58871   4.424  37.935  14.988
99578W        W58872   7.381  33.985  13.870
99579W        W58873  10.290  31.411   1.926
99580W        W58874   1.934   2.405   0.252
99581W        W58875  11.809  23.056  14.350
99582W        W58876  42.919  20.138   2.709
99583W        W58877   7.235  10.839  14.897
99584W        W58878  30.035  28.477   0.301
99585W        W58879  33.120  25.103  12.056
99586W        W58880   6.913   1.271   2.802
99587W        W58881  40.952  31.580  11.374
99588W        W58882  22.236  12.726   0.758
99589W        W58883  44.350   3.243  13.043
99590W        W58884   8.166  36.038   2.715
99591W        W58885  11.660  32.493   2.366
99592W        W58886  36.488  13.805   1.789
99593W        W58887  12.164  30.519  14.307
99594W        W58888  22.588   3.839  11.443
99595W        W58889   2.926  16.250   1.310
99596W        W58890  20.060   2.854   0.380
99597W        W58891  37.026  22.733   4.669
99598W        W58892   8.747  10.234   1.799
99599W        W58893  38.513  42.847   3.313
99600W        W58894  38.348  26.504  10.940
99601W        W58895  34.943  15.197   4.330
99602W        W58896  20.069  33.530   9.949
99603W        W58897  12.264   6.393   3.310
99604W        W58898  16.707  23.235   1.833
99605W        W58899  36.589  33.940  12.832
99606W        W58900  12.292   0.917  11.430
99607W        W58901   9.735  31.645  12.444
99608W        W58902  27.105   9.316   2.772
99609W        W58903  25.694  14.296  13.001
99610W        W58904  42.927  44.285   0.277
99611W        W58905   9.720  15.600  13.797
99612W        W58906  29.587  37.830  13.881
99613W        W58907   3.435  36.547   1.829
99614W        W58908  19.605  25.061   2.207
99615W        W58909  34.585  12.342   1.424
99616W        W58910  30.954  16.214  12.969
99617W        W58911  42.427  24.043  12.977
99618W        W58912  12.124  43.289   1.306
99619W        W58913  38.942  25.609  12.914
99620W        W58914  13.798  27.633  14.380
99621W        W58915  44.444  29.568   1.435
99622W        W58916  19.743  42.335  11.919
99623W        W58917  26.533  39.044   3.369
99624W        W58918  20.111  38.980   1.752
99625W        W58919  28.995   2.448   2.813
99626W        W58920  28.609  38.963   3.155
99627W        W58921  43.393  17.724   0.262
99628W        W58922   0.271  12.277   2.360
99629W        W58923   6.252  20.043  12.341
99630W        W58924  11.359  14.096   4.724
99631W        W58925   8.370  24.223   3.185
99632W        W58926  13.825  24.587   3.670
99633W        W58927  28.050  29.925   1.264
99634W        W58928  38.938  33.080   1.315
99635W        W58929  33.916  14.229   3.223
99636W        W58930  34.973  20.731  10.425
99637W        W58931  41.524  39.905   0.319
99638W        W58932  35.858   5.848   0.475
99639W        W58933   5.322  18.702   0.272
99640W        W58934  21.582  21.188   5.206
99641W        W58935  44.909   4.433   5.745
99642W        W58936   0.901  10.750  12.049
99643W        W58937  21.574  12.784  14.458
99644W        W58938  11.853  42.416   2.204
99645W        W58939  39.548  21.066   1.846
99646W        W58940  40.400  19.671   0.858
99647W        W58941  32.532  25.674  10.612
99648W        W58942  24.708  28.666  11.894
99649W        W58943  36.461   3.392  13.502
99650W        W58944   7.298   2.904   4.624
99651W        W58945  36.396   8.782   1.389
99652W        W58946  26.507  43.320   4.733
99653W        W58947  20.178  41.908   0.845
99654W        W58948  20.687  23.226  10.931
99655W        W58949  11.354  40.963  13.922
99656W        W58950   1.771   3.311   1.849
99657W        W58951  25.550  42.419   0.355
99658W        W58952  26.962  40.916   2.669
99659W        W58953  26.525  42.971   4.685
99660W        W58954   8.870  18.621   1.857
99661W        W58955   1.921  27.974  12.484
99662W        W58956  32.404  33.951   4.649
99663W        W58957   8.269  44.942  12.004
99664W        W58958   4.321  34.376  10.490
99665W        W58959   0.874  31.083  14.480
99666W        W58960  44.324  28.049   3.169
99667W        W58961  34.439  38.003  13.440
99668W        W58962   2.800   6.402   0.925
99669W        W58963  21.240   8.832  13.462
99670W        W58964  40.887  15.149  13.797
99671W        W58965  34.497  22.739   1.331
99672W        W58966  38.399  17.285  12.001
99673W        W58967  35.051   0.283  12.918
99674W        W58968  11.184  19.747   0.474
99675W        W58969  33.585   4.880  10.623
99676W        W58970  32.130   0.969  12.087
99677W        W58971   6.190  27.170   2.772
99678W        W58972  33.594  15.231  13.471
99679W        W58973  29.434  31.958   1.698
99680W        W58974  12.153   5.897  10.488
99681W        W58975  44.365  31.553  14.296
99682W        W58976  25.036  11.864   4.300
99683W        W58977  22.646   5.693  10.953
99684W        W58978  31.590  28.443   4.703
99685W        W58979  26.049  36.489   3.782
99686W        W58980  12.359   6.355   0.783
99687W        W58981  44.978  44.810   2.801
99688W        W58982   4.404  13.837  12.503
99689W        W58983  16.244  21.619   0.839
99690W        W58984   1.443  31.097  10.890
99691W        W58985   0.906  22.024  12.011
99692W        W58986  24.150  39.814  10.932
99693W        W58987   1.862  18.657  14.847
99694W        W58988  43.355  37.066  10.607
99695W        W58989  12.634   4.903   1.374
99696W        W58990  28.635   5.720   0.251
99697W        W58991  20.618  11.242  14.769
99698W        W58992  31.516  32.610   4.131
99699W        W58993  31.050  30.470  14.370
99700W        W58994  23.666  41.426  11.611
99701W        W58995  33.439  14.227  12.467
99702W        W58996  16.660   7.232   2.888
99703W        W58997  32.893   0.419  13.495
99704W        W58998  27.011  33.460   3.278
99705W        W58999   6.742  27.690   2.800
99706W        W59000  11.253  15.731  10.984
99707W        W59001  18.235  41.847   4.633
99708W        W59002  35.488  12.205   0.851
99709W        W59003  32.530  30.937  10.453
99710W        W59004  37.388  22.571  11.932
99711W        W59005  17.257   3.890  11.000
99712W        W59006  40.350  33.487   0.252
99713W        W59007   6.679  37.979  13.436
99714W        W59008  11.723   6.827  14.287
99715W        W59009  24.030   8.899  14.024
99716W        W59010  17.631  21.137  10.624
99717W        W59011  12.667  40.026   4.720
99718W        W59012  18.212   0.918   0.270
99719W        W59013  16.663  28.500   0.866
99720W        W59014   9.177  40.493  14.791
99721W        W59015  28.100   2.729   4.778
99722W        W59016   7.710   3.344  10.411
99723W        W59017   7.380  39.413  10.961
99724W        W59018  30.140  16.726  14.297
99725W        W59019   6.856  43.807   3.867
99726W        W59020  38.919  10.306  11.459
99727W        W59021  14.731  30.924   0.836
99728W        W59022  27.520  10.839   3.383
99729W        W59023  24.687  29.457  14.993
99730W        W59024  20.263  19.542  14.426
99731W        W59025  17.223  14.776   9.592
99732W        W59026  20.207   9.870  12.462
99733W        W59027  33.501   3.916  11.514
99734W        W59028  25.058  38.497   3.351
99735W        W59029  25.077  22.155  12.370
99736W        W59030  18.125  21.117  13.975
99737W        W59031  44.860  30.959  12.516
99738W        W59032  12.141  37.953   4.604
99739W        W59033  41.844  19.110   2.212
99740W        W59034  30.439   0.303  12.919
99741W        W59035  17.757   1.444  14.768
99742W        W59036  26.200   5.252   3.748
99743W        W59037  26.111   0.265  14.880
99744W        W59038  43.515  43.010  14.932
99745W        W59039   5.762  36.554   2.307
99746W        W59040  29.998  26.621  10.623
99747W        W59041   3.722  39.331   0.813
99748W        W59042  40.841  27.157  11.903
99749W        W59043   9.219  32.597   4.644
99750W        W59044   0.299  27.989  13.518
99751W        W59045  33.493  26.997  12.910
99752W        W59046   6.891  23.226   3.723
99753W        W59047  25.512   9.804  11.389
99754W        W59048  15.617  37.411  11.021
99755W        W59049  16.742  32.992  10.557
99756W        W59050  22.690  22.684  14.415
99757W        W59051  21.179  23.238   1.316
99758W        W59052   3.431  30.458   1.845
99759W        W59053   0.953  18.627   4.821
99760W        W59054  26.153  26.959  11.392
99761W        W59055  18.258   0.465  14.930
99762W        W59056  29.561  17.645   4.793
99763W        W59057  15.760  41.350  10.984
99764W        W59058  22.022  18.132  11.048
99765W        W59059  28.106  33.964   1.344
99766W        W59060   7.677  17.637   2.797
99767W        W59061  33.077  23.551   3.223
99768W        W59062   8.658  33.081   3.831
99769W        W59063   5.853  14.626   2.681
99770W        W59064  27.580  26.189   4.287
99771W        W59065  24.551   7.908   9.995
99772W        W59066  11.692   5.431  12.020
99773W        W59067   8.843   2.449  13.403
99774W        W59068  14.229   5.241   2.841
99775W        W59069  31.090   3.271   0.408
99776W        W59070  13.829  42.389   1.340
99777W        W59071  17.106  19.208   4.657
99778W        W59072  27.996  23.688   3.307
99779W        W59073  18.149   3.330   4.642
99780W        W59074  31.514   1.757   2.731
99781W        W59075  13.650   2.345  14.284
99782W        W59076  29.525  22.569  10.409
99783W        W59077  33.939  12.349   1.793
99784W        W59078  29.012   6.283   3.821
99785W        W59079  41.525  10.877  14.379
99786W        W59080   8.691  24.230   2.837
99787W        W59081  39.383  34.916   0.281
99788W        W59082  17.739  38.822   1.845
99789W        W59083  10.850   1.791  13.393
99790W        W59084  42.822  42.861  11.531
99791W        W59085   3.334  18.164  14.991
99792W        W59086   5.746  24.084   1.909
99793W        W59087  24.213  21.048   4.790
99794W        W59088   6.856  37.560  10.561
99795W        W59089  19.162   2.450   4.243
99796W        W59090  33.026  43.309   1.358
99797W        W59091  10.832  10.139   2.298
99798W        W59092   0.309   4.246   3.671
99799W        W59093  19.671  19.664  11.125
99800W        W59094  43.336  21.134   9.924
99801W        W59095  32.114  43.321   0.361
99802W        W59096  13.222  18.651  10.897
99803W        W59097  15.157  30.083  11.972
99804W        W59098  23.105   6.879   3.150
99805W        W59099  28.477  34.983   2.780
99806W        W59100   9.280   0.886  13.913
99807W        W59101   7.186   4.318   0.756
99808W        W59102  34.057  11.195  12.515
99809W        W59103  36.430  36.409  11.402
99810W        W59104  37.915  29.945   1.434
99811W        W59105  14.712  18.737  12.889
99812W        W59106   9.712  32.039   0.852
99813W        W59107  21.553   4.820  11.902
99814W        W59108  31.998  44.457   3.193
99815W        W59109  27.692  19.752   1.429
99816W        W59110  25.200  42.424  14.478
99817W        W59111  15.622  36.029  13.976
99818W        W59112  26.174  24.519  13.049
99819W        W59113   5.381  44.405   9.981
99820W        W59114  17.701  17.738   3.808
99821W        W59115  23.495  33.123  10.487
99822W        W59116  44.766  39.044   2.351
99823W        W59117   6.329   2.305  13.036
99824W        W59118  24.091  34.461   4.599
99825W        W59119  21.106  11.249   2.254
99826W        W59120  16.102  40.308   4.755
99827W        W59121  41.380  37.432   3.174
99828W        W59122  18.631   4.827   3.300
99829W        W59123  28.517  44.353  11.415
99830W        W59124  37.539  19.760   5.116
99831W        W59125  40.949   5.760  10.618
99832W        W59126  43.487  20.747  13.478
99833W        W59127  30.493  30.996   2.289
99834W        W59128  42.837  20.629  10.991
99835W        W59129  40.469  25.020  13.484
99836W        W59130   7.197  29.033  12.930
99837W        W59131   5.882  29.979  11.071
99838W        W59132  44.351  31.419   1.924
99839W        W59133  41.817  16.568   2.315
99840W        W59134  17.170  43.328  14.466
99841W        W59135  20.193  40.842  14.357
99842W        W59136  22.521  32.442  14.967
99843W        W59137   0.818  42.808  14.814
99844W        W59138  26.672  25.146   3.241
99845W        W59139  14.713  26.591  13.051
99846W        W59140  41.381  31.405   0.427
99847W        W59141  21.194   5.413   4.118
99848W        W59142  25.616   4.356   4.597
99849W        W59143   3.948  32.121   4.675
99850W        W59144  35.526  24.635  14.789
99851W        W59145   1.970  22.098  13.034
99852W        W59146  26.583  41.343  14.811
99853W        W59147   8.358  15.819  10.415
99854W        W59148  31.595  38.033   1.830
99855W        W59149  35.953  34.953   2.401
99856W        W59150  28.012  41.893  14.805
99857W        W59151   1.428  24.488  11.038
99858W        W59152  15.721   7.745   0.346
99859W        W59153  39.970   9.196   2.258
99860W        W59154  40.816   6.414   0.911
99861W        W59155   8.720  28.002   1.315
99862W        W59156  12.124   0.254   0.448
99863W        W59157  41.030  22.565   3.653
99864W        W59158   8.197  13.214  13.851
99865W        W59159  36.902   1.874   4.236
99866W        W59160  13.273  40.947  11.610
99867W        W59161  42.396  15.297   0.938
99868W        W59162  40.911  39.479   0.328
99869W        W59163  17.664  38.905  12.357
99870W        W59164  16.140  10.711   4.291
99871W        W59165  42.458  28.009  10.493
99872W        W59166  16.122  20.666  14.419
99873W        W59167  22.062  19.049  12.536
99874W        W59168  23.697   4.900  11.867
99875W        W59169  33.529  14.272   3.160
99876W        W59170   4.931   9.765   2.280
99877W        W59171  21.627  14.623   0.316
99878W        W59172   8.367   5.270  12.340
99879W        W59173  21.643  30.490  14.916
99880W        W59174  36.581   8.881   1.903
99881W        W59175  33.547  29.104  14.506
99882W        W59176  17.745   4.731   3.676
99883W        W59177  41.531  22.225  13.954
99884W        W59178   7.189  19.067  13.813
99885W        W59179  35.477  39.403  11.411
99886W        W59180  14.811  26.471   2.309
99887W        W59181  33.110  18.724  14.830
99888W        W59182   3.773  32.590   0.283
99889W        W59183  37.543   3.924   2.335
99890W        W59184   5.389  43.495   4.150
99891W        W59185   4.922  28.951   0.353
99892W        W59186  22.585  31.487  11.376
99893W        W59187  18.666   1.809  13.412
99894W        W59188  38.930  20.031  13.915
99895W        W59189   1.957  13.728   3.653
99896W        W59190  17.302  17.744   3.797
99897W        W59191  26.657  25.191  11.475
99898W        W59192  30.146  38.847  13.844
99899W        W59193  13.320  21.658   2.813
99900W        W59194  31.592   7.314  13.927
99901W        W59195  26.672  30.054  10.461
99902W        W59196  22.678  19.727   5.102
99903W        W59197   1.738   7.749  14.392
99904W        W59198  24.986  27.106  10.888
99905W        W59199   2.841  26.540   3.805
99906W        W59200   3.441  19.679  13.528
99907W        W59201  40.997  11.158   3.197
99908W        W59202  38.394  28.968   0.311
99909W        W59203  10.705   3.450   4.794
99910W        W59204  42.379  37.878  11.383
99911W        W59205   9.216   3.395  12.879
99912W        W59206  22.184   9.780  11.607
99913W        W59207  12.345  19.262   1.832
99914W        W59208  32.901  43.834  10.497
99915W        W59209  30.974  20.111  12.401
99916W        W59210  44.781  23.137  14.793
99917W        W59211  22.744  20.750  10.434
99918W        W59212   7.301  35.543   3.818
99919W        W59213  13.138  20.569   3.832
99920W        W59214  37.512  12.271  12.917
99921W        W59215  19.074  14.835  14.024
99922W        W59216  41.898  18.153   4.166
99923W        W59217  11.674  41.303   4.278
99924W        W59218  43.793   6.743  13.861
99925W        W59219  37.857   5.285   1.391
99926W        W59220  23.164  37.868   4.609
99927W        W59221   0.950  37.387   3.808
99928W        W59222  40.432  14.106  13.954
99929W        W59223   4.912  21.723  14.346
99930W        W59224   9.240  11.854  11.867
99931W        W59225  11.683  13.839   2.311
99932W        W59226  44.760   8.370   3.321
99933W        W59227   3.882   6.393   2.335
99934W        W59228  33.097  40.307   3.772
99935W        W59229  10.712   7.752  11.860
99936W        W59230  13.259  18.644   3.317
99937W        W59231   2.775  35.018   4.173
99938W        W59232   8.897  23.178  13.038
99939W        W59233   5.877  16.165   0.421
99940W        W59234  37.850  12.689   0.381
99941W        W59235  38.390   7.903  10.112
99942W        W59236  18.769  11.698  12.079
99943W        W59237  35.943   7.236   5.175
99944W        W59238  35.465  14.258  14.939
99945W        W59239  12.742   9.757   4.287
99946W        W59240  32.505  42.306   0.445
99947W        W59241  44.987  40.439  14.858
99948W        W59242   7.669   4.242   0.901
99949W        W59243  19.714   0.251  13.845
99950W        W59244  17.609   3.911  14.790
99951W        W59245  34.065  35.556  14.776
99952W        W59246  39.943  41.484  13.431
99953W        W59247   8.820   9.829   3.289
99954W        W59248  32.408  28.106  14.380
99955W        W59249  32.917  13.677   0.829
99956W        W59250  30.445  12.329   0.402
99957W        W59251   4.270  18.620  14.372
99958W        W59252  16.577   6.336   3.787
99959W        W59253  17.742  32.544   1.377
99960W        W59254  30.923   1.284  14.853
99961W        W59255  19.543  34.076   1.311
99962W        W59256   9.318   2.234   2.376
99963W        W59257   4.792   6.219  11.497
99964W        W59258  14.273  29.060   1.845
99965W        W59259  41.954  23.086  11.608
99966W        W59260   0.477  28.048  11.883
99967W        W59261   5.216  19.643   1.884
99968W        W59262   4.365  44.983  14.005
99969W        W59263  13.673  42.843   3.642
99970W        W59264   2.907  21.755  13.360
99971W        W59265  12.262  24.540   2.256
99972W        W59266  24.058   1.924  10.452
99973W        W59267   5.346  13.796  10.416
99974W        W59268  42.943  33.474  11.030
99975W        W59269   7.234  41.934  10.491
99976W        W59270   3.933  20.633  13.386
99977W        W59271  20.616  34.401  10.990
99978W        W59272   8.319  34.008  12.479
99979W        W59273  11.827  42.900   4.753
99980W        W59274  26.569  32.063  11.116
99981W        W59275   6.752  17.114   2.678
99982W        W59276   1.943  31.553   4.654
99983W        W59277   1.252   5.372   4.327
99984W        W59278  34.391  14.779   2.903
99985W        W59279  24.627  22.665   0.847
99986W        W59280  11.293  23.154  12.533
99987W        W59281   1.882  43.319  11.908
99988W        W59282  11.668   3.296  14.864
99989W        W59283  38.351  33.453   2.294
99990W        W59284  41.919   1.479   2.183
99991W        W59285  18.206  16.633  14.830
99992W        W59286  42.312  22.565   2.739
99993W        W59287  12.271   1.266   2.385
99994W        W59288  31.056  40.829  14.424
99995W        W59289  27.669  12.644   2.395
99996W        W59290  38.998  38.448   3.806
99997W        W59291  36.418   2.234  11.992
99998W        W59292  13.326  23.728   0.759
99999W        W59293  17.284   1.802   2.321
    0W        W59294  41.330  10.314   4.240
    1W        W59295  12.254  24.093   2.829
    2W        W59296  23.552  28.588   3.867
    3W        W59297  29.517   3.736   0.304
    4W        W59298  12.698  15.277  12.842
    5W        W59299  10.319  28.636  12.870
    6W        W59300  26.099  17.108  14.999
    7W        W59301  32.041  17.666  13.392
    8W        W59302  41.024   4.374   1.393
    9W        W59303  34.107  26.959   0.873
   10W        W59304  10.161  23.533   3.271
   11W        W59305  21.221  44.847  14.862
   12W        W59306  35.058  27.120  13.374
   13W        W59307  42.867  20.114   0.326
   14W        W59308  41.937  29.555   0.913
   15W        W59309  11.198   1.782   1.326
   16W        W59310  16.593  12.171   2.835
   17W        W59311   7.783   6.413   4.631
   18W        W59312  39.934  30.619  14.834
   19W        W59313  37.563  41.794   5.216
   20W        W59314  18.790  21.038   2.753
   21W        W59315  24.570  31.622   4.728
   22W        W59316   6.408  44.990   0.795
   23W        W59317  39.332  38.399  10.451
   24W        W59318  32.106   8.314   2.383
   25W        W59319  38.047  16.118  14.397
   26W        W59320  40.022  43.878  14.773
   27W        W59321  33.430   9.390   4.607
   28W        W59322  22.668  33.437   4.730
   29W        W59323  36.490  44.457  10.471
   30W        W59324  40.034  35.525   9.953
   31W        W59325  43.501  19.601  10.064
   32W        W59326   4.224  12.300  13.445
   33W        W59327  15.165  26.156  14.843
   34W        W59328  19.149  18.560   1.853
   35W        W59329  27.985   2.952   1.303
   36W        W59330  11.672  28.455  12.454
   37W        W59331  42.381  38.915   4.185
   38W        W59332  27.561  19.573  10.890
   39W        W59333  31.118  22.616  10.154
   40W        W59334  36.895  34.553  13.045
   41W        W59335  35.386   3.455  12.385
   42W        W59336  34.894  12.643   2.289
   43W        W59337  34.888  32.899   0.903
   44W        W59338  24.557  42.527  14.012
   45W        W59339  20.624  32.625   0.946
   46W        W59340  14.805  30.035   4.639
   47W        W59341  29.959  38.853  12.959
   48W        W59342  30.424   9.395   0.770
   49W        W59343  10.344  28.105   1.731
   50W        W59344  43.415  16.233   3.740
   51W        W59345   9.219  38.472   1.299
   52W        W59346   1.324  34.085   4.665
   53W        W59347  32.110  15.594  14.880
   54W        W59348  12.254  30.602   3.375
   55W        W59349  31.051  41.941   0.261
   56W        W59350  30.565  26.615  10.547
   57W        W59351  26.673  16.604  11.587
   58W        W59352  31.999  42.324  11.123
   59W        W59353  21.690  38.528   0.828
   60W        W59354  17.281  16.798   4.780
   61W        W59355  25.193  33.062   4.772
   62W        W59356   5.822   0.754   1.741
   63W        W59357  28.673  11.211  10.474
   64W        W59358  12.361   1.358   0.420
   65W        W59359  42.428   4.713  11.551
   66W        W59360  40.818  22.638  11.437
   67W        W59361  25.680   0.846   9.955
   68W        W59362  19.200  13.631  12.394
   69W        W59363  40.008  16.630  14.786
   70W        W59364  15.798  13.123   4.296
   71W        W59365  44.769  41.505   1.240
   72W        W59366  31.554  13.349  14.394
   73W        W59367  11.167  21.044  13.901
   74W        W59368  34.472  27.955  10.888
   75W        W59369  27.602  21.198  10.508
   76W        W59370  44.263  25.997   3.687
   77W        W59371  13.713  42.923   2.319
   78W        W59372  26.520  26.956   3.856
   79W        W59373  10.829   3.713  14.914
   80W        W59374  34.965  15.763   2.240
   81W        W59375  29.523  35.926   3.661
   82W        W59376  21.721   6.351  10.405
   83W        W59377  44.435  35.375   3.164
   84W        W59378   1.317  36.847   2.882
   85W        W59379   3.860  30.957   1.353
   86W        W59380   6.366  31.957   3.256
   87W        W59381   6.835  28.068  13.941
   88W        W59382   0.423  35.884   2.666
   89W        W59383  23.544  41.993   3.373
   90W        W59384  31.406  30.959  12.353
   91W        W59385  19.106   5.360   0.287
   92W        W59386  10.330   1.738  14.275
   93W        W59387  17.643  40.513  12.961
   94W        W59388  15.776  36.510   0.283
   95W        W59389  35.496   2.755   3.342
   96W        W59390  29.053  12.773  12.942
   97W        W59391  41.357   7.240  12.968
   98W        W59392  23.023  34.511   0.954
   99W        W59393  11.821  42.796  11.432
  100W        W59394  14.638  25.601  12.828
  101W        W59395  35.057   6.772   9.619
  102W        W59396  18.715  22.248  12.535
  103W        W59397  34.886   7.670   0.361
  104W        W59398  19.548  11.196   1.396
  105W        W59399   7.208   9.781   3.666
  106W        W59400  30.457  26.643   3.271
  107W        W59401  43.776  25.111  12.558
  108W        W59402  10.663  26.479   1.809
  109W        W59403  44.777  21.632  14.873
  110W        W59404  28.977  38.387   0.470
  111W        W59405  32.428   5.719  11.432
  112W        W59406  40.825   7.401   2.836
  113W        W59407   9.880   4.411   4.675
  114W        W59408   3.790  24.219  11.943
  115W        W59409  37.997   0.853  12.962
  116W        W59410  36.953  20.164   2.286
  117W        W59411  18.689  29.469   4.192
  118W        W59412  25.544   7.201  10.954
  119W        W59413  20.531  11.277   0.939
  120W        W59414  44.498   4.292   1.299
  121W        W59415  19.258  19.179   2.868
  122W        W59416  22.508  37.398  12.974
  123W        W59417  28.634  33.045  11.466
  124W        W59418  33.956  34.370   0.397
  125W        W59419   0.880   4.410  12.449
  126W        W59420  12.679  24.636   2.753
  127W        W59421  29.093  22.109  10.928
  128W        W59422  26.621   6.280   1.361
  129W        W59423  12.130  21.117  12.359
  130W        W59424   6.750  17.662  12.379
  131W        W59425  32.975  16.713   1.229
  132W        W59426  41.981  17.161   0.812
  133W        W59427  21.743  41.509  11.588
  134W        W59428  43.459  18.562   0.444
  135W        W59429   4.738  21.630   9.920
  136W        W59430  22.240   7.413  14.999
  137W        W59431  25.010  41.332   1.210
  138W        W59432  11.760  23.163   4.827
  139W        W59433  21.676  26.955   3.171
  140W        W59434  18.686  22.248   2.813
  141W        W59435  24.571   2.290  12.988
  142W        W59436  12.361  17.142  12.078
  143W        W59437  18.757  19.778   3.176
  144W        W59438  13.735  12.274   0.916
  145W        W59439  12.755  36.369  14.446
  146W        W59440  40.309  24.976   4.626
  147W        W59441  29.053  16.076   1.408
  148W        W59442  17.257  12.355   3.319
  149W        W59443  35.593  13.674   3.165
  150W        W59444   1.737  32.041  12.568
  151W        W59445  17.747  33.554  11.993
  152W        W59446  12.844   6.206   1.318
  153W        W59447  24.983   1.871  13.396
  154W        W59448  18.639  26.622   0.886
  155W        W59449   0.306  11.219  14.495
  156W        W59450  21.242   5.713  12.972
  157W        W59451   2.254  27.554   4.730
  158W        W59452  35.865  11.299  12.435
  159W        W59453  37.465  33.050   9.611
  160W        W59454  25.523  25.178   1.319
  161W        W59455  15.621   6.368   4.194
  162W        W59456  22.536   6.698   1.449
  163W        W59457   5.904   7.718  10.438
  164W        W59458  37.438   1.340   4.248
  165W        W59459  13.834  10.649   0.935
  166W        W59460  36.953   7.695  12.061
  167W        W59461  36.098  20.149   4.815
  168W        W59462  33.034  11.172   4.622
  169W        W59463  27.039   5.723  14.819
  170W        W59464   5.260   8.228  13.847
  171W        W59465  11.838  13.827  13.308
  172W        W59466  29.029  17.575   4.690
  173W        W59467  27.139   2.768  13.478
  174W        W59468  22.600  29.957  11.471
  175W        W59469  28.985  21.129   3.740
  176W        W59470  41.352  20.210   0.408
  177W        W59471  35.890   8.795  12.340
  178W        W59472  35.415  39.489   0.791
  179W        W59473  34.919  13.149   1.448
  180W        W59474  36.494  30.454  14.769
  181W        W59475   1.326   0.879  12.880
  182W        W59476  39.872  43.419   0.921
  183W        W59477  28.499  42.415  13.023
  184W        W59478  10.161   8.283   0.912
  185W        W59479   8.268  34.988  14.462
  186W        W59480  20.611  31.436  10.435
  187W        W59481  10.172   4.905  12.379
  188W        W59482  10.139  23.110   2.289
  189W        W59483   8.691  35.097  14.367
  190W        W59484   5.293  40.827   2.763
  191W        W59485   3.231   9.790   1.440
  192W        W59486  21.514  34.399   3.770
  193W        W59487  43.923  41.303   0.855
  194W        W59488   4.279   8.796   1.435
  195W        W59489  13.180   3.376   2.724
  196W        W59490  10.873  35.438  12.486
  197W        W59491   9.761  29.581  12.836
  198W        W59492  27.043   9.725   2.843
  199W        W59493   2.433  27.513   1.705
  200W        W59494  28.457  24.638  10.948
  201W        W59495  25.007   3.859   4.738
  202W        W59496  36.392  38.470  10.551
  203W        W59497  23.005   5.430   2.186
  204W        W59498   9.823  41.410   3.255
  205W        W59499   9.182   1.256   5.627
  206W        W59500   4.247  21.736   0.407
  207W        W59501  27.051  37.018   4.330
  208W        W59502  25.508  39.371   4.233
  209W        W59503  18.628  13.339  13.001
  210W        W59504  25.966  22.133  11.606
  211W        W59505   3.774   7.224   3.703
  212W        W59506  34.905  43.774   0.461
  213W        W59507  43.426  26.053  10.986
  214W        W59508  44.261  43.420   3.364
  215W        W59509  39.436  23.090   2.843
  216W        W59510  19.713   2.877   0.806
  217W        W59511  24.998  20.574   4.824
  218W        W59512   8.243  27.066  14.469
  219W        W59513  32.021  24.144  12.997
  220W        W59514  19.262  21.172   5.175
  221W        W59515   8.199  41.953  12.889
  222W        W59516   4.419   3.409   3.247
  223W        W59517  33.564  35.562  11.971
  224W        W59518  10.304  17.088  11.093
  225W        W59519   5.342  37.856   4.741
  226W        W59520  12.697  28.503  11.012
  227W        W59521  43.923  16.292  14.429
  228W        W59522  39.552  40.839   0.857
  229W        W59523  13.122  29.615  13.510
  230W        W59524  10.710  33.126   1.892
  231W        W59525   5.435  20.574   3.174
  232W        W59526   4.217  23.591  10.081
  233W        W59527  31.974  32.588   1.239
  234W        W59528  41.389  38.532   3.265
  235W        W59529  31.907  38.347  12.851
  236W        W59530  41.010  36.856  11.895
  237W        W59531  23.986  13.845   3.305
  238W        W59532  22.998  25.173  12.951
  239W        W59533  26.001  11.726   2.719
  240W        W59534  19.605  38.988   2.371
  241W        W59535  23.240  36.402   1.279
  242W        W59536   5.803  33.611   1.385
  243W        W59537  16.588  12.133  14.476
  244W        W59538  42.294  41.454   1.907
  245W        W59539   9.363  34.552  14.378
  246W        W59540   8.712  27.605  10.538
  247W        W59541  21.521  27.578  14.828
  248W        W59542  42.282   5.193  12.440
  249W        W59543  16.128  20.214  12.009
  250W        W59544  39.019  42.780  11.915
  251W        W59545  33.562  35.922  13.404
  252W        W59546   3.326   3.905   2.360
  253W        W59547   6.212  27.551   1.355
  254W        W59548  15.251   4.355   3.818
  255W        W59549  43.995  32.990  11.609
  256W        W59550  15.287  30.053   3.675
  257W        W59551  31.647  23.143  12.504
  258W        W59552  27.950  31.052  11.511
  259W        W59553   4.349  35.022   1.705
  260W        W59554  11.238  16.212   1.831
  261W        W59555  41.465  19.134  12.953
  262W        W59556  28.121  23.645  11.072
  263W        W59557  27.144  44.753  11.871
  264W        W59558  27.077  21.224   2.356
  265W        W59559   9.188  33.899   1.933
  266W        W59560  40.858  26.000   4.681
  267W        W59561   2.946  13.637  10.936
  268W        W59562  10.661  41.361  13.504
  269W        W59563  38.415  37.896   2.315
  270W        W59564   4.432   8.848  14.896
  271W        W59565  42.346  26.479   0.942
  272W        W59566  31.411  38.536   4.174
  273W        W59567  26.690  34.891   1.876
  274W        W59568  22.651  19.215   2.821
  275W        W59569   4.889  43.869   3.370
  276W        W59570  16.613  37.414  14.281
  277W        W59571   0.758  39.986  13.475
  278W        W59572  34.019  32.494  12.453
  279W        W59573  29.132  21.645  13.374
  280W        W59574  18.214  39.432  10.891
  281W        W59575  34.570  21.177   2.873
  282W        W59576  28.991  12.317   4.639
  283W        W59577  21.227  37.503  14.803
  284W        W59578   4.764  43.840   2.864
  285W        W59579  24.585   5.930   0.247
  286W        W59580  34.083   7.252  13.045
  287W        W59581  17.607  27.537   4.791
  288W        W59582  13.657  22.109   9.561
  289W        W59583   5.706  31.924  10.050
  290W        W59584   9.386  36.988  14.782
  291W        W59585  42.451  19.708   1.263
  292W        W59586  10.785  20.101   2.252
  293W        W59587   9.787  30.570  13.948
  294W        W59588  22.250  14.672   0.818
  295W        W59589   6.732  27.671  13.523
  296W        W59590  20.196  13.833  14.774
  297W        W59591   7.336  40.481   0.268
  298W        W59592  36.969   1.934  11.375
  299W        W59593  34.967  21.243   1.756
  300W        W59594  35.488  26.608  12.922
  301W        W59595  40.495   8.270  12.828
  302W        W59596  33.115   5.698  14.895
  303W        W59597  10.147  26.022   4.723
  304W        W59598  30.112  14.206  14.802
  305W        W59599  22.134   7.775  14.004
  306W        W59600   7.204  37.544  14.913
  307W        W59601  16.182  18.610   3.378
  308W        W59602  38.472  19.154   2.368
  309W        W59603  17.171  39.399   4.746
  310W        W59604  29.027  15.598  11.593
  311W        W59605   6.718  42.355   1.817
  312W        W59606  28.617  42.510  13.338
  313W        W59607   2.759   6.790   1.815
  314W        W59608  16.567  30.444  13.031
  315W        W59609   4.323  12.620  13.818
  316W        W59610  23.640  32.636   1.270
  317W        W59611  30.011  17.134   4.223
  318W        W59612  19.744  25.566   0.368
  319W        W59613  29.615   1.276  12.897
  320W        W59614   0.823  15.107   4.266
  321W        W59615  31.003  31.588  10.434
  322W        W59616  41.994  18.781   4.292
  323W        W59617   2.263  10.294   5.166
  324W        W59618  20.057  15.657  14.768
  325W        W59619  13.619  22.617  10.580
  326W        W59620  35.993   6.402   3.843
  327W        W59621   0.798  31.497   4.181
  328W        W59622  14.296  25.552   2.215
  329W        W59623  12.748  18.623  11.610
  330W        W59624  44.839  32.959   0.334
  331W        W59625   1.903   1.293   2.215
  332W        W59626  28.674  15.209  12.979
  333W        W59627  31.940  25.166  13.496
  334W        W59628  40.348  36.924   3.828
  335W        W59629  19.235  17.636   3.861
  336W        W59630  40.388  13.150  10.933
  337W        W59631   9.761  23.101   2.414
  338W        W59632   6.718  14.305   3.243
  339W        W59633  34.908  17.799   4.717
  340W        W59634   1.350  17.300   3.719
  341W        W59635  38.827   8.361   1.294
  342W        W59636   8.201  27.681  11.411
  343W        W59637  34.577  29.169   3.253
  344W        W59638   9.761  18.765   2.404
  345W        W59639  13.715  24.532  13.839
  346W        W59640  13.645  23.144   1.358
  347W        W59641  29.009  33.382  12.374
  348W        W59642  18.614  20.761   0.964
  349W        W59643   4.309  20.127   2.810
  350W        W59644   5.761  17.674   2.300
  351W        W59645  32.028  17.146  11.049
  352W        W59646  17.230  18.180  13.974
  353W        W59647  19.552  31.911  14.407
  354W        W59648  15.134  24.530   0.276
  355W        W59649  44.865   7.779   3.667
  356W        W59650  35.409  19.085  11.450
  357W        W59651  27.581  42.936   2.720
  358W        W59652  12.269  11.754  13.424
  359W        W59653  42.012  10.352  10.561
  360W        W59654  42.484   8.311  11.859
  361W        W59655   2.904   1.272   1.289
  362W        W59656  38.821  44.803  10.931
  363W        W59657  10.358  43.790   2.832
  364W        W59658   9.744  44.963  12.091
  365W        W59659   2.840  30.498   4.335
  366W        W59660  26.027  16.680   0.249
  367W        W59661  19.177  38.388   2.377
  368W        W59662   0.474   3.395  14.503
  369W        W59663  20.713   2.442   0.269
  370W        W59664  16.267  23.241   4.645
  371W        W59665  27.531   1.368   4.822
  372W        W59666  38.942   7.286   2.726
  373W        W59667  40.958  13.663   2.266
  374W        W59668  35.440  11.734  13.312
  375W        W59669  31.563  35.916  13.319
  376W        W59670  17.634  17.781  13.056
  377W        W59671  41.504  38.050  12.918
  378W        W59672   6.829  26.620  14.837
  379W        W59673  28.673  10.338  12.378
  380W        W59674  29.530  14.658   3.197
  381W        W59675  11.705  22.082   2.277
  382W        W59676   8.868  14.296   4.188
  383W        W59677  20.651  41.381   2.666
  384W        W59678  38.352  39.029   4.718
  385W        W59679  15.307  19.111   1.792
  386W        W59680  39.506  13.236   2.805
  387W        W59681  13.659  41.356  11.544
  388W        W59682  36.361  44.003  14.864
  389W        W59683  14.254  34.094   2.831
  390W        W59684  13.149  23.692  10.477
  391W        W59685  38.422  12.707   3.288
  392W        W59686   9.180   9.816  11.910
  393W        W59687  29.947   4.205   0.930
  394W        W59688   5.738  30.983  14.963
  395W        W59689  39.444   2.363   4.152
  396W        W59690  24.644  20.755  12.491
  397W        W59691  20.143  31.528   4.616
  398W        W59692  39.317  17.137  11.569
  399W        W59693  32.569  44.860   0.893
  400W        W59694  25.017   5.257  14.375
  401W        W59695   9.804  38.564  12.580
  402W        W59696  29.647  25.163  13.932
  403W        W59697  18.656  34.027  12.370
  404W        W59698  28.181  27.026   4.729
  405W        W59699  33.528  21.086   5.198
  406W        W59700  23.583  29.981   0.842
  407W        W59701  17.164  32.012  12.967
  408W        W59702  26.053   5.433   2.771
  409W        W59703  43.325  14.727   0.263
  410W        W59704  27.507  42.917   3.222
  411W        W59705  36.475  32.455  14.435
  412W        W59706  44.755  11.184  11.541
  413W        W59707  11.214  37.878   2.197
  414W        W59708  42.853  15.087  14.905
  415W        W59709   6.249   7.285  13.412
  416W        W59710  33.971  14.255  14.977
  417W        W59711  32.096  24.222   3.271
  418W        W59712  21.593  44.962  10.519
  419W        W59713   5.403  19.729   9.968
  420W        W59714   4.429  42.777  12.009
  421W        W59715   7.795   7.697   4.736
  422W        W59716  11.348  31.085   2.777
  423W        W59717  38.849  29.459  14.943
  424W        W59718  10.685  21.565  14.921
  425W        W59719   0.840  38.975  14.407
  426W        W59720  13.331  28.169   4.337
  427W        W59721   5.841  15.684  11.597
  428W        W59722   5.387  14.594   3.247
  429W        W59723  32.399  25.709   2.243
  430W        W59724  16.219  34.878   4.834
  431W        W59725   6.747   3.779   4.128
  432W        W59726  29.972   2.292  14.501
  433W        W59727   9.338  36.503  11.859
  434W        W59728  11.656  15.820  14.434
  435W        W59729  27.955  29.031   4.280
  436W        W59730  10.144  15.684   2.217
  437W        W59731  23.493   0.338   2.792
  438W        W59732   8.725  36.979   0.450
  439W        W59733  37.958   9.798  13.870
  440W        W59734  17.274  35.403   0.335
  441W        W59735  26.650   3.839   5.278
  442W        W59736  29.949   4.220  11.545
  443W        W59737   6.269  41.399   2.380
  444W        W59738  26.117  16.214  11.022
  445W        W59739  35.456  13.255  13.347
  446W        W59740  27.193  14.172   2.348
  447W        W59741   0.445  38.569   4.781
  448W        W59742   7.351  36.592   4.609
  449W        W59743   0.389  43.985  13.797
  450W        W59744  23.505  38.431   3.216
  451W        W59745  36.891  18.786  12.413
  452W        W59746  24.647   7.785   1.411
  453W        W59747  33.933  37.878   2.257
  454W        W59748   0.792   1.807   0.242
  455W        W59749  27.976   0.403   1.210
  456W        W59750  43.996   9.715   0.755
  457W        W59751  29.521  40.009  11.504
  458W        W59752  34.079   2.467  10.591
  459W        W59753  37.568  16.741   3.767
  460W        W59754  43.958  28.982  14.993
  461W        W59755  36.061  13.194  14.794
  462W        W59756   3.818   7.854  12.384
  463W        W59757   6.768  25.073   1.797
  464W        W59758  23.629  26.596  11.069
  465W        W59759  30.502  30.973   1.308
  466W        W59760  10.358   2.737   4.284
  467W        W59761  17.239  31.417   4.646
  468W        W59762  33.387  13.769  14.376
  469W        W59763  21.098  41.481   3.256
  470W        W59764   9.774   2.780   0.968
  471W        W59765  30.423   5.245  13.856
  472W        W59766  30.912  44.304   2.385
  473W        W59767  28.527   2.468   1.216
  474W        W59768  29.929   9.368   0.847
  475W        W59769  43.477  22.219   1.443
  476W        W59770   3.327  16.133  13.437
  477W        W59771   0.294  16.311   1.324
  478W        W59772   1.825  22.019   4.835
  479W        W59773  36.413   9.393   0.301
  480W        W59774  29.618   6.350  12.039
  481W        W59775  26.674   5.769   9.923
  482W        W59776  37.549  11.848  10.439
  483W        W59777   6.848   9.786  14.870
  484W        W59778   1.408  38.909   0.314
  485W        W59779  39.490  10.327  13.889
  486W        W59780  27.955   8.368   3.377
  487W        W59781  15.736  30.125   4.230
  488W        W59782  22.711   7.786  13.908
  489W        W59783  34.069  19.657  13.336
  490W        W59784  43.972  23.026   1.403
  491W        W59785  23.023  17.128   4.147
  492W        W59786   3.875   9.377  11.491
  493W        W59787  22.650  17.259  11.442
  494W        W59788  37.060  29.490  12.981
  495W        W59789  12.743  10.155   0.804
  496W        W59790  31.108  19.638   1.239
  497W        W59791  40.471  37.553   3.157
  498W        W59792  43.848  31.011   3.789
  499W        W59793   9.793  27.129   2.852
  500W        W59794  35.418  26.166   3.645
  501W        W59795  33.916  21.588   3.154
  502W        W59796  37.348   9.296  14.917
  503W        W59797  37.903  30.615  13.414
  504W        W59798  37.020  25.069  11.492
  505W        W59799  29.508  17.145   4.153
  506W        W59800  29.934  14.607  13.331
  507W        W59801   5.843  11.654   4.677
  508W        W59802  43.347  20.205  13.343
  509W        W59803  16.234  28.489   0.252
  510W        W59804   7.908   8.663  13.931
  511W        W59805  41.877  22.070  12.474
  512W        W59806  11.231  27.466   4.222
  513W        W59807  39.887  34.558   2.679
  514W        W59808  19.682  34.485  13.473
  515W        W59809  27.617  28.620   4.681
  516W        W59810  25.623  44.321  14.447
  517W        W59811  19.075  37.426  10.590
  518W        W59812  19.666  26.986  14.497
  519W        W59813  27.172  28.021  10.404
  520W        W59814  12.320  31.627   4.822
  521W        W59815   4.855   8.803  12.997
  522W        W59816   7.789  22.643  14.982
  523W        W59817  15.169  27.544   4.758
  524W        W59818  34.377  43.342   2.752
  525W        W59819   2.811  18.604  14.825
  526W        W59820  22.209  25.194  14.881
  527W        W59821  25.484  19.725  11.522
  528W        W59822  25.589  27.089  14.387
  529W        W59823  15.790  23.111   2.220
  530W        W59824  20.155  19.098  13.354
  531W        W59825  10.153  36.058  12.350
  532W        W59826  42.033  44.395  14.363
  533W        W59827   3.297  20.762  14.479
  534W        W59828   4.842  34.088  13.548
  535W        W59829   2.406  38.887  12.966
  536W        W59830  12.244  32.574  11.918
  537W        W59831   6.418  12.362  10.052
  538W        W59832  28.145  13.274  14.328
  539W        W59833  44.299  19.144  11.539
  540W        W59834  19.143   6.356   2.845
  541W        W59835  14.245  17.142  12.467
  542W        W59836  14.721   4.933  10.945
  543W        W59837  43.505  29.432   1.735
  544W        W59838  24.668  32.041   2.811
  545W        W59839  40.460  34.432   0.352
  546W        W59840  18.737  30.047   3.265
  547W        W59841  15.122  25.152  11.987
  548W        W59842  21.028  40.870  13.062
  549W        W59843  43.003  42.312   4.808
  550W        W59844  25.038  41.813  11.020
  551W        W59845   8.744   5.344   4.268
  552W        W59846   9.882  43.889   4.700
  553W        W59847  19.067  30.639   1.350
  554W        W59848  23.574   1.320  11.435
  555W        W59849   5.742  16.665   2.819
  556W        W59850  35.869  15.279  10.902
  557W        W59851  21.596  43.797   0.467
  558W        W59852  32.002   7.397  14.991
  559W        W59853  33.538  36.376  13.907
  560W        W59854  18.284  13.327  13.341
  561W        W59855  18.618  24.973  10.046
  562W        W59856  12.127  39.340  12.084
  563W        W59857   9.284   6.771  14.796
  564W        W59858  23.113   5.798  10.422
  565W        W59859  33.928   2.393  13.885
  566W        W59860  27.560  13.647   4.207
  567W        W59861   4.901  43.007  10.997
  568W        W59862  28.951  32.512   4.262
  569W        W59863   8.804  17.153  12.925
  570W        W59864   8.746  16.276   0.895
  571W        W59865  19.726   7.735   1.434
  572W        W59866  35.875   7.889  12.885
  573W        W59867  18.642  43.858   0.444
  574W        W59868   8.229  33.504   3.214
  575W        W59869  39.444  31.139   0.774
  576W        W59870  44.380  13.769   3.267
  577W        W59871   3.902  20.695   2.273
  578W        W59872  15.673   5.890   1.414
  579W        W59873   5.269   0.814   2.801
  580W        W59874  10.706   2.255  11.953
  581W        W59875   4.415   2.234   2.794
  582W        W59876  23.498  15.267   1.845
  583W        W59877  21.517  43.917   2.332
  584W        W59878  35.460  25.584   0.329
  585W        W59879  11.725   3.216  14.485
  586W        W59880  44.414  38.911  14.393
  587W        W59881  37.059  13.794  14.824
  588W        W59882  26.494   5.217  14.953
  589W        W59883   5.749  33.623   2.324
  590W        W59884  36.851  26.148   0.825
  591W        W59885  21.713  29.631  13.891
  592W        W59886   2.257   4.799   4.287
  593W        W59887   0.329  31.508   3.847
  594W        W59888  17.213   1.915   0.450
  595W        W59889  20.749  25.582  14.900
  596W        W59890   1.462  38.503  13.939
  597W        W59891  15.115  20.696   3.153
  598W        W59892   6.402  14.099  11.438
  599W        W59893  44.427  39.328  12.567
  600W        W59894  33.946  23.546  14.315
  601W        W59895  10.285  14.799  12.918
  602W        W59896  42.949   9.673   0.299
  603W        W59897  13.318  38.513   2.379
  604W        W59898   1.363  25.050   3.180
  605W        W59899  29.605  11.164  14.990
  606W        W59900  44.400   8.299  14.809
  607W        W59901  10.739  15.771  10.018
  608W        W59902  19.679  22.085  11.450
  609W        W59903  12.323  28.976  12.444
  610W        W59904  15.157  21.176   4.753
  611W        W59905  11.172  41.892   3.671
  612W        W59906   2.271  43.504   1.827
  613W        W59907  35.038  40.311  11.426
  614W        W59908  11.303  36.578  14.336
  615W        W59909   7.264  36.419   0.363
  616W        W59910  30.058  40.403  14.321
  617W        W59911  27.105  41.911  12.881
  618W        W59912  29.660   2.954   4.657
  619W        W59913  44.343  42.369   3.655
  620W        W59914  37.531  32.631  14.852
  621W        W59915  20.523  29.092   2.809
  622W        W59916  41.362   4.346   4.718
  623W        W59917  43.284   5.690  14.811
  624W        W59918  24.490  11.140  13.929
  625W        W59919  17.686  28.942   2.299
  626W        W59920  42.030  21.531  11.390
  627W        W59921  15.585   0.349   4.198
  628W        W59922   5.836   0.262   1.305
  629W        W59923  18.656   7.799  13.863
  630W        W59924  41.884  11.326   3.182
  631W        W59925  37.083   2.309  11.414
  632W        W59926   4.771   9.195  11.466
  633W        W59927   7.700  21.665   9.666
  634W        W59928  29.107  11.156   2.819
  635W        W59929  36.989   1.763   1.932
  636W        W59930  22.029  41.342   4.339
  637W        W59931  27.668   0.335  10.949
  638W        W59932  10.281   9.229   3.718
  639W        W59933   2.845  29.106   3.381
  640W        W59934  25.549   6.362   1.820
  641W        W59935  34.470  28.590   3.865
  642W        W59936   3.443  44.807   1.920
  643W        W59937  10.247   2.368  10.463
  644W        W59938   0.971   3.848  12.464
  645W        W59939  18.178  15.198  10.946
  646W        W59940  13.132   5.289   0.311
  647W        W59941  26.123   3.419  10.913
  648W        W59942  16.281  36.560   0.397
  649W        W59943  28.957  26.010  11.867
  650W        W59944   4.424  30.089  11.553
  651W        W59945  33.407  16.598   3.334
  652W        W59946  34.538  23.609   2.339
  653W        W59947   8.789  17.230  11.442
  654W        W59948   6.795  36.495  12.455
  655W        W59949  10.715   1.291  12.909
  656W        W59950  22.225  28.945   4.622
  657W        W59951  12.263  10.204   4.347
  658W        W59952  19.710  26.176  14.405
  659W        W59953  15.797  44.456   0.802
  660W        W59954   7.394  33.079  11.432
  661W        W59955   7.325  42.996  10.459
  662W        W59956   5.370  31.087   0.292
  663W        W59957  32.064  23.710   2.846
  664W        W59958  28.060  30.498   2.315
  665W        W59959  24.212  40.461  10.989
  666W        W59960  35.955  44.882   1.439
  667W        W59961  33.544  23.504  12.364
  668W        W59962  30.476   8.341   3.367
  669W        W59963  21.019  41.331  12.888
  670W        W59964  31.425  34.914   2.842
  671W        W59965  18.096  35.555   0.330
  672W        W59966  10.334   0.294   1.281
  673W        W59967   9.791  19.093   0.477
  674W        W59968  17.599  20.753  10.565
  675W        W59969  19.054  31.960   4.604
  676W        W59970  25.639   1.972   3.274
  677W        W59971  43.993  28.181  12.438
  678W        W59972  15.618   1.788   3.326
  679W        W59973  11.848  23.653  12.513
  680W        W59974   2.931   5.918   3.283
  681W        W59975  43.013  30.058  13.806
  682W        W59976  42.479  32.140  12.921
  683W        W59977   0.444  11.293   2.814
  684W        W59978  19.217   9.373   2.213
  685W        W59979  35.468  17.697  13.834
  686W        W59980  16.078  35.521  11.068
  687W        W59981  28.957  31.089   2.219
  688W        W59982   4.246  34.558   1.801
  689W        W59983   6.328  27.631  13.926
  690W        W59984  38.008   6.768  10.451
  691W        W59985  17.772   5.373   0.753
  692W        W59986   4.875  20.089  12.391
  693W        W59987  32.133  36.923  14.812
  694W        W59988  25.189  35.057  13.804
  695W        W59989   8.304  40.044   2.380
  696W        W59990  37.506  30.079   4.242
  697W        W59991  10.753  13.302   0.961
  698W        W59992  25.111  34.420   1.839
  699W        W59993  17.092  35.493   3.833
  700W        W59994  16.247  15.679  13.519
  701W        W59995  20.677  11.779   0.406
  702W        W59996  37.445   9.761  12.491
  703W        W59997  44.287  40.820   1.751
  704W        W59998   1.769  40.036   1.426
  705W        W59999  12.256  25.587   0.430
  706W        W60000  11.868  14.640  10.587
  707W        W60001  32.074  42.951   3.838
  708W        W60002   2.811  38.939   1.350
  709W        W60003  34.492  28.550   2.331
  710W        W60004  34.073  12.317  12.352
  711W        W60005  30.008   6.408  13.520
  712W        W60006   1.325  32.064   9.972
  713W        W60007  41.000  29.495   0.431
  714W        W60008  28.964  15.290  10.565
  715W        W60009   1.843  11.181  13.347
  716W        W60010  36.005  23.528  11.976
  717W        W60011  43.777  38.895   3.716
  718W        W60012  30.650  35.567  14.844
  719W        W60013  39.331  11.653   3.183
  720W        W60014  21.696  43.969  14.943
  721W        W60015  20.522  37.894  13.862
  722W        W60016  19.282  14.809   4.335
  723W        W60017  11.657  41.837  14.459
  724W        W60018  39.056  22.719   1.910
  725W        W60019  17.572  18.204  11.515
  726W        W60020  32.422  21.083   3.197
  727W        W60021   7.312  28.065   0.827
  728W        W60022  16.080  16.658  11.893
  729W        W60023  21.540  34.470   0.366
  730W        W60024  44.908   6.376   3.161
  731W        W60025  27.183  16.118   1.235
  732W        W60026  25.181  37.577   3.813
  733W        W60027  20.136  22.637   1.794
  734W        W60028  44.908  10.145   2.804
  735W        W60029   4.262  18.580  12.560
  736W        W60030  32.502  21.206   2.838
  737W        W60031   6.262  30.620  10.901
  738W        W60032  26.562  16.247  10.972
  739W        W60033  27.025  40.463   1.357
  740W        W60034  12.324  21.248  10.949
  741W        W60035  24.219  44.395  10.454
  742W        W60036  41.377  12.274   2.672
  743W        W60037  25.156   5.788   3.276
  744W        W60038  38.920  34.055  11.868
  745W        W60039  10.141  11.856  12.456
  746W        W60040  22.108  13.679  11.982
  747W        W60041  37.001  25.218   0.828
  748W        W60042   1.828  43.446   0.961
  749W        W60043   4.873  37.538  14.813
  750W        W60044   7.690  21.691   2.746
  751W        W60045  16.572  28.666   3.677
  752W        W60046  40.358   1.439   0.304
  753W        W60047  18.189   4.939  11.387
  754W        W60048  18.177  38.039   2.840
  755W        W60049  35.874  34.465  11.423
  756W        W60050  36.536  38.830   2.703
  757W        W60051  40.977  25.540  13.315
  758W        W60052  14.255  35.875   3.855
  759W        W60053  38.011  24.613  12.830
  760W        W60054  42.863  38.875  10.449
  761W        W60055   5.879  31.574   3.238
  762W        W60056  40.912  33.114   4.328
  763W        W60057  17.298  27.554  13.322
  764W        W60058  16.107  39.477  11.513
  765W        W60059  25.475  27.963   1.709
  766W        W60060   4.792  15.602  11.517
  767W        W60061  10.802  27.175  11.915
  768W        W60062  36.059  35.511  12.987
  769W        W60063  26.051   2.852  13.791
  770W        W60064  43.871  41.385   2.211
  771W        W60065  43.289  34.961   3.321
  772W        W60066  11.298  28.664  12.430
  773W        W60067   2.782  22.039   0.439
  774W        W60068   7.720   8.839   5.158
  775W        W60069  40.042  31.619  13.021
  776W        W60070  30.421  33.921   3.707
  777W        W60071  43.384  43.360  14.762
  778W        W60072  23.521  14.827  14.971
  779W        W60073  17.142  16.246   1.851
  780W        W60074   9.747  37.028  13.978
  781W        W60075   8.159  43.845  12.472
  782W        W60076  37.847  32.919  10.403
  783W        W60077  23.232   4.802   0.294
  784W        W60078  36.361  38.852   1.345
  785W        W60079  43.835  24.602   2.767
  786W        W60080  17.632   1.871   0.876
  787W        W60081   6.316  33.521  10.460
  788W        W60082   6.194  20.672  13.935
  789W        W60083  11.672  43.859  11.021
  790W        W60084  16.126  11.774   3.783
  791W        W60085  24.667  35.900  14.813
  792W        W60086  14.156  32.889   4.151
  793W        W60087  23.018  16.751  13.331
  794W        W60088  38.994   9.854  12.395
  795W        W60089  35.998  39.915   3.703
  796W        W60090  29.089  18.242  10.925
  797W        W60091   3.948  24.111  13.531
  798W        W60092  36.377   6.899  13.480
  799W        W60093  13.270  13.647   3.354
  800W        W60094  13.221  31.561   0.322
  801W        W60095  10.187  27.040   1.894
  802W        W60096  35.027   4.943   3.759
  803W        W60097  17.179  36.555  13.344
  804W        W60098  33.917  30.958   2.782
  805W        W60099  22.072  30.120   4.663
  806W        W60100   9.213   1.291   3.723
  807W        W60101  38.550  18.136   3.160
  808W        W60102  24.042   3.389  11.578
  809W        W60103  37.391  38.053   4.150
  810W        W60104  26.475  31.055   2.265
  811W        W60105  24.550  32.903  12.542
  812W        W60106   6.310  16.737  13.870
  813W        W60107  21.564  29.124   1.840
  814W        W60108  27.559  28.652  11.057
  815W        W60109  10.870  41.856  10.416
  816W        W60110  23.178  26.992   2.206
  817W        W60111  37.354  16.604   1.368
  818W        W60112  25.640  37.443   2.382
  819W        W60113  28.608  27.600  10.561
  820W        W60114   6.235  19.623  13.434
  821W        W60115   7.908   6.375  11.607
  822W        W60116  19.677  17.650  13.916
  823W        W60117  41.834  35.580  11.450
  824W        W60118   0.281   6.317  11.929
  825W        W60119  16.290  26.137   0.476
  826W        W60120  41.498  19.701   1.920
  827W        W60121  37.041  14.804  12.885
  828W        W60122   8.332  11.779  12.879
  829W        W60123  27.981  13.713  13.445
  830W        W60124   0.479  20.087  12.084
  831W        W60125  36.513  39.840   4.745
  832W        W60126   1.942  40.942   2.679
  833W        W60127  33.513  35.869   2.217
  834W        W60128  16.122  19.722   0.305
  835W        W60129  16.717  33.875  14.789
  836W        W60130  29.484  37.065   3.650
  837W        W60131  39.351  12.776  10.477
  838W        W60132  42.431  44.791  12.986
  839W        W60133  31.014  22.032   1.844
  840W        W60134  43.869  17.588   0.376
  841W        W60135  19.262   1.855   1.441
  842W        W60136  22.528  24.708   0.445
  843W        W60137   0.766  10.675   4.169
  844W        W60138  29.057  28.499  13.015
  845W        W60139   8.722   6.765  13.805
  846W        W60140   1.920   0.751   0.427
  847W        W60141  44.922  16.305   0.290
  848W        W60142  37.061  29.544   3.288
  849W        W60143  35.975   2.284  11.473
  850W        W60144  24.104  18.098   4.777
  851W        W60145  34.544   2.409  12.835
  852W        W60146  15.694  11.197   0.844
  853W        W60147  44.859  20.134  13.794
  854W        W60148   2.396  15.252  11.452
  855W        W60149   1.439   7.842  11.007
  856W        W60150  32.577  17.740   2.780
  857W        W60151  11.835  27.978  14.822
  858W        W60152  13.761  32.032   0.875
  859W        W60153   7.899  15.329  14.368
  860W        W60154  21.527  22.134  13.962
  861W        W60155  31.083   5.235   0.893
  862W        W60156  12.824  19.043   1.896
  863W        W60157  13.652  26.521  10.887
  864W        W60158  19.228  28.478   3.229
  865W        W60159  25.681  37.546   2.788
  866W        W60160   2.405   3.368   0.266
  867W        W60161   7.173   7.277  14.452
  868W        W60162  39.887  31.501  13.350
  869W        W60163  25.097  24.705  12.924
  870W        W60164  31.073  28.075  12.429
  871W        W60165  22.195   1.780   4.156
  872W        W60166  37.368  32.599   0.299
  873W        W60167   8.178  24.138   1.424
  874W        W60168  34.513   0.288  11.122
  875W        W60169  22.248  36.406  13.546
  876W        W60170  44.991  13.792  11.010
  877W        W60171  31.929  14.712   4.621
  878W        W60172  12.242  26.483  12.368
  879W        W60173  25.581  19.559  12.426
  880W        W60174  15.327   1.455  14.029
  881W        W60175  11.327  26.678   2.351
  882W        W60176   7.289  31.940  12.876
  883W        W60177   6.327  31.953  10.946
  884W        W60178  22.648  20.172   2.212
  885W        W60179  40.310  25.991   2.205
  886W        W60180   0.456  18.780   0.292
  887W        W60181   3.922  21.599   1.302
  888W        W60182   8.759  12.128   2.186
  889W        W60183  35.437  12.618   4.773
  890W        W60184  21.160  35.074   4.166
  891W        W60185  11.265  10.332   3.792
  892W        W60186  26.665  35.446   4.117
  893W        W60187  17.672  30.572   4.768
  894W        W60188  36.572  23.628  10.411
  895W        W60189  44.503  21.182   4.777
  896W        W60190  12.695  41.355  11.097
  897W        W60191   2.788   8.242   4.208
  898W        W60192   3.359  25.030  12.499
  899W        W60193  36.962  23.594  13.515
  900W        W60194  19.697  20.524   0.268
  901W        W60195   3.286  10.861  11.383
  902W        W60196  44.321  42.009   1.757
  903W        W60197  17.676  12.177  14.335
  904W        W60198   8.382  39.537  14.444
  905W        W60199   5.222  32.100   2.802
  906W        W60200   5.411  24.688   0.458
  907W        W60201  13.351  22.697   4.730
  908W        W60202   7.788  43.800   1.273
  909W        W60203  40.375  28.453   4.838
  910W        W60204  21.212  40.053  11.392
  911W        W60205  19.602   9.342  13.441
  912W        W60206  20.565  42.340  14.940
  913W        W60207  19.736  20.195   4.277
  914W        W60208  31.952  26.494   4.623
  915W        W60209  11.723  28.102   4.121
  916W        W60210  23.636  30.512   5.289
  917W        W60211  40.469  12.203   1.213
  918W        W60212  13.334  39.906   4.666
  919W        W60213  18.147   9.700  12.903
  920W        W60214  38.537   9.159  10.450
  921W        W60215   1.411  13.753  11.612
  922W        W60216  20.226  20.620  10.565
  923W        W60217  13.122  41.417   0.344
  924W        W60218   7.172  22.561   2.741
  925W        W60219  42.363   2.448   3.309
  926W        W60220   7.678   1.371   2.270
  927W        W60221   4.250  44.419  12.479
  928W        W60222   7.819  41.520  11.978
  929W        W60223  33.895  22.510   1.843
  930W        W60224  20.055  33.898   3.807
  931W        W60225  24.217  35.032   4.738
  932W        W60226  15.677  41.453  12.854
  933W        W60227  40.344  42.009   3.314
  934W        W60228  39.997  28.535  12.859
  935W        W60229   8.377  16.664  12.012
  936W        W60230  20.618  12.139  13.399
  937W        W60231  12.255  12.240  12.879
  938W        W60232  19.200  10.338  12.380
  939W        W60233  25.001  39.044   5.125
  940W        W60234  25.140  21.206  11.101
  941W        W60235   3.895  11.284  11.537
  942W        W60236  10.373  23.034  11.396
  943W        W60237  30.620  16.743  13.835
  944W        W60238  21.257  20.146   4.315
  945W        W60239   0.960   2.923   0.361
  946W        W60240  30.434  10.878  12.552
  947W        W60241  33.443  32.498  13.903
  948W        W60242  22.124   7.242  11.016
  949W        W60243  44.866  29.542   1.436
  950W        W60244  33.550  28.649   2.891
  951W        W60245  43.371   0.385   2.392
  952W        W60246  13.167  23.018   2.836
  953W        W60247  18.091  37.578   2.722
  954W        W60248  36.425  39.374   0.473
  955W        W60249  28.446  37.054   0.279
  956W        W60250  12.290   7.860   0.967
  957W        W60251  29.639  43.985  14.503
  958W        W60252  29.653  34.376  11.869
  959W        W60253   5.886  33.603  14.930
  960W        W60254  12.782  15.273  14.423
  961W        W60255  33.108  14.691   1.226
  962W        W60256  26.199  19.753   4.810
  963W        W60257  41.033   7.750  12.871
  964W        W60258   0.921   5.331   3.236
  965W        W60259  27.172  19.743  10.636
  966W        W60260   1.956   6.826   2.225
  967W        W60261  29.078  29.138  11.063
  968W        W60262  24.487  18.267   0.483
  969W        W60263  30.930  12.314  11.949
  970W        W60264  32.415  30.602   1.929
  971W        W60265   1.905   9.264   3.190
  972W        W60266  41.947   5.323  12.886
  973W        W60267  20.139  26.043   0.447
  974W        W60268  29.483  22.251  13.795
  975W        W60269  18.242  21.175   3.221
  976W        W60270  33.521  28.024   0.480
  977W        W60271  44.505   1.256  11.994
  978W        W60272  11.852  20.695   0.904
  979W        W60273  44.773  42.299  12.900
  980W        W60274   5.837  23.009   4.157
  981W        W60275  17.710   7.708   1.434
  982W        W60276  21.229  41.793   3.308
  983W        W60277  24.990  13.691   3.725
  984W        W60278  32.000  16.156  12.932
  985W        W60279   9.192  44.376   3.304
  986W        W60280  37.004  35.922  14.968
  987W        W60281  27.116  40.406   2.317
  988W        W60282  33.036  36.029  10.531
  989W        W60283  11.802  26.583  14.281
  990W        W60284  18.068   3.248  12.965
  991W        W60285  18.723  22.585  13.506
  992W        W60286  32.599   0.945  11.991
  993W        W60287  13.259  28.964  10.036
  994W        W60288  42.998  14.211  11.999
  995W        W60289  20.634  35.411  13.524
  996W        W60290  27.582  36.376  14.330
  997W        W60291  38.047  39.523   2.843
  998W        W60292  14.797  10.172  10.908
  999W        W60293  22.242  32.057  12.955
 1000W        W60294  24.546  34.912  14.925
 1001W        W60295  12.812   9.823  11.908
 1002W        W60296  18.775  27.988  12.425
 1003W        W60297  26.620   0.849   4.738
 1004W        W60298  22.059  23.122   1.879
 1005W        W60299  27.100  30.432  14.370
 1006W        W60300   3.834  15.795   3.224
 1007W        W60301  10.653  17.591  14.783
 1008W        W60302   2.768  40.438   1.371
 1009W        W60303   0.386  32.484  12.959
 1010W        W60304  38.820  25.499   4.294
 1011W        W60305  26.468   0.919  10.447
 1012W        W60306  33.528  44.851  13.437
 1013W        W60307  11.291  26.597  14.925
 1014W        W60308  38.419  24.622   1.887
 1015W        W60309  22.171  34.954  13.482
 1016W        W60310  18.732  28.523  14.864
 1017W        W60311  26.492  39.017   3.743
 1018W        W60312  41.001  28.055  13.405
 1019W        W60313  22.006  27.520   2.874
 1020W        W60314   1.441  14.671  12.901
 1021W        W60315  26.617  26.034   3.149
 1022W        W60316  19.197   7.906  13.020
 1023W        W60317   8.266  39.487   1.392
 1024W        W60318  10.826   7.349   3.209
 1025W        W60319  30.508  38.552  11.427
 1026W        W60320  27.050   2.831  11.957
 1027W        W60321  22.230  44.469  13.371
 1028W        W60322  12.637   5.298   3.274
 1029W        W60323  21.625   0.472  10.997
 1030W        W60324   7.771  12.195  14.352
 1031W        W60325  31.554  15.270   2.293
 1032W        W60326  13.704  29.547   4.352
 1033W        W60327  24.525  27.647  10.557
 1034W        W60328  23.510  16.583  11.611
 1035W        W60329   4.730  28.595   1.785
 1036W        W60330   7.794  38.432   3.758
 1037W        W60331   4.266  44.473   3.279
 1038W        W60332  11.855  30.539  12.023
 1039W        W60333  32.945   1.358   4.773
 1040W        W60334  29.994  31.127  14.300
 1041W        W60335  21.175   4.278   4.193
 1042W        W60336   5.357  33.069   4.770
 1043W        W60337   3.709   6.395   1.752
 1044W        W60338  36.066  39.962   4.716
 1045W        W60339  23.185  19.205   0.317
 1046W        W60340  30.530  42.375   4.229
 1047W        W60341   0.251  32.499   0.326
 1048W        W60342  13.123  36.399   2.715
 1049W        W60343   6.371  33.885  14.895
 1050W        W60344  34.476  35.524  12.853
 1051W        W60345   8.732  17.199  11.902
 1052W        W60346  33.874  24.714  10.936
 1053W        W60347   9.855  41.885  12.914
 1054W        W60348  16.658  13.345   5.779
 1055W        W60349   0.971   2.305  11.567
 1056W        W60350  18.745   6.788  12.076
 1057W        W60351   2.346  43.330  12.950
 1058W        W60352   8.714  44.873  12.398
 1059W        W60353   5.723  17.631   1.360
 1060W        W60354  28.090  32.538   2.367
 1061W        W60355  35.515  11.270   1.257
 1062W        W60356   8.298   9.192  13.853
 1063W        W60357  11.798   4.281   2.290
 1064W        W60358   6.712  22.087  11.959
 1065W        W60359  12.356   2.854   3.807
 1066W        W60360  11.166   0.256  13.450
 1067W        W60361  31.119  41.794  12.522
 1068W        W60362  26.053  10.288  11.864
 1069W        W60363  38.963   3.359  13.417
 1070W        W60364  13.776  42.987   1.728
 1071W        W60365   4.445  27.475  10.512
 1072W        W60366  13.677  31.608   1.246
 1073W        W60367   6.387  39.559   4.320
 1074W        W60368  39.358  44.943   1.932
 1075W        W60369  40.928  12.796  14.759
 1076W        W60370  15.715  13.692  10.577
 1077W        W60371  42.817  18.557   5.192
 1078W        W60372  19.263  39.411   0.867
 1079W        W60373   2.414   8.222   3.814
 1080W        W60374  39.995  43.860   0.397
 1081W        W60375  30.621  19.069  14.435
 1082W        W60376  38.001  19.056   4.241
 1083W        W60377  43.010  37.038  11.412
 1084W        W60378  24.225  12.641  11.393
 1085W        W60379  27.604  42.292   1.795
 1086W        W60380  18.224  40.824  14.784
 1087W        W60381  40.841  29.137   2.306
 1088W        W60382  25.499   1.467  11.898
 1089W        W60383  16.618   3.931   3.775
 1090W        W60384   6.265  16.293   0.803
 1091W        W60385  28.601  22.229   2.392
 1092W        W60386   3.283   6.852   1.212
 1093W        W60387  15.579  43.910   3.305
 1094W        W60388   8.733  25.003   2.270
 1095W        W60389  14.682  20.606   0.733
 1096W        W60390  35.987  20.738  10.537
 1097W        W60391   5.316   5.192   4.253
 1098W        W60392   4.890  27.067  11.039
 1099W        W60393  10.268   6.710   3.863
 1100W        W60394  40.322  14.127   3.281
 1101W        W60395  44.934  35.992  10.592
 1102W        W60396   7.230   5.834  13.046
 1103W        W60397   2.241   1.360   1.799
 1104W        W60398   9.694  36.579  13.446
 1105W        W60399   4.375  14.775   3.762
 1106W        W60400  21.716  11.828  10.636
 1107W        W60401   8.231   0.311  11.924
 1108W        W60402  28.109  42.323   1.439
 1109W        W60403  23.589  12.788  12.561
 1110W        W60404  11.622  15.291  10.996
 1111W        W60405   2.812  23.131  10.488
 1112W        W60406   5.221  33.032  10.598
 1113W        W60407  11.728  35.964   1.742
 1114W        W60408   8.300   0.864  12.961
 1115W        W60409  11.649  21.123   3.345
 1116W        W60410  14.106  19.110   0.245
 1117W        W60411  42.506  31.585  12.869
 1118W        W60412  41.426   3.222   2.253
 1119W        W60413  41.484  25.134   1.269
 1120W        W60414  41.824  16.188  14.506
 1121W        W60415  26.016  37.978  11.540
 1122W        W60416  22.569   7.839  14.861
 1123W        W60417   2.363  36.587   2.668
 1124W        W60418  37.035  34.402  11.901
 1125W        W60419  43.292  22.602   3.172
 1126W        W60420   3.916   0.391  10.447
 1127W        W60421  18.658  40.493  13.989
 1128W        W60422  17.616   2.413  13.535
 1129W        W60423  25.690  34.076   4.815
 1130W        W60424  14.744  15.295  11.015
 1131W        W60425  39.424   5.194  12.352
 1132W        W60426  43.348  39.999  12.910
 1133W        W60427  12.193  36.886   1.766
 1134W        W60428  25.047   9.861   9.955
 1135W        W60429  43.416  27.155  14.483
 1136W        W60430  33.954  38.462   0.293
 1137W        W60431  32.523  20.692   3.364
 1138W        W60432  19.649  20.214   4.826
 1139W        W60433  35.045   7.318   4.188
 1140W        W60434  12.615  17.199   2.202
 1141W        W60435   8.222  18.227  13.866
 1142W        W60436  32.120  38.381  14.382
 1143W        W60437  20.029  44.757   0.790
 1144W        W60438  27.534  23.564  13.874
 1145W        W60439  39.483   5.401  11.951
 1146W        W60440   2.231  30.103   4.218
 1147W        W60441  13.231  27.463   0.960
 1148W        W60442   5.689   9.198   0.790
 1149W        W60443  13.109  18.567  14.296
 1150W        W60444  42.518  10.250   4.599
 1151W        W60445  20.137  11.849  10.546
 1152W        W60446  10.726  26.077  13.864
 1153W        W60447  31.488   8.699   1.382
 1154W        W60448   1.450  35.467  11.556
 1155W        W60449   6.419  17.776   3.362
 1156W        W60450   7.790  14.739   2.719
 1157W        W60451   0.813   9.854  14.503
 1158W        W60452   5.241  30.627  12.519
 1159W        W60453  29.503  11.808   2.337
 1160W        W60454  39.510   4.794  11.999
 1161W        W60455  40.448  38.961   3.267
 1162W        W60456  28.490  12.643   3.843
 1163W        W60457  42.353  29.036  12.935
 1164W        W60458  18.612  30.533   2.356
 1165W        W60459  16.083  12.670  11.898
 1166W        W60460   0.481  31.469  12.849
 1167W        W60461  26.603  14.189   9.976
 1168W        W60462  29.634  29.922  11.491
 1169W        W60463  40.956  31.613   3.804
 1170W        W60464  18.119   7.903  11.049
 1171W        W60465   1.458   9.738   3.665
 1172W        W60466  10.235   1.294   0.911
 1173W        W60467  28.012  38.468  13.008
 1174W        W60468  26.563  36.080  11.547
 1175W        W60469   9.825  41.940   3.718
 1176W        W60470  17.076  16.694   3.253
 1177W        W60471  39.053   6.213   0.812
 1178W        W60472  33.983   6.851  11.983
 1179W        W60473  31.591   9.648   9.436
 1180W        W60474  41.826  11.191   4.673
 1181W        W60475  25.055  12.736  13.409
 1182W        W60476   7.682  24.574   3.264
 1183W        W60477  12.617   8.856   2.301
 1184W        W60478  43.444  14.129   1.332
 1185W        W60479  27.020  12.610   1.829
 1186W        W60480  43.314  25.492   4.312
 1187W        W60481   7.702  44.758  12.886
 1188W        W60482   0.920  19.054   3.779
 1189W        W60483  14.814  19.146   5.094
 1190W        W60484  16.309  11.759  13.876
 1191W        W60485  41.349  22.554  13.447
 1192W        W60486  36.025  41.377  12.949
 1193W        W60487  12.333  34.432  11.054
 1194W        W60488  41.516   0.961  11.973
 1195W        W60489  34.088  14.167  12.507
 1196W        W60490  32.436   8.701   0.470
 1197W        W60491  35.949  41.922   0.891
 1198W        W60492  11.835  42.943   2.859
 1199W        W60493  21.119  44.932   1.269
 1200W        W60494  10.828  44.816   2.232
 1201W        W60495  39.010  13.701   4.633
 1202W        W60496   6.855  41.485  11.997
 1203W        W60497  35.384  41.799   1.307
 1204W        W60498  31.576  32.597   2.771
 1205W        W60499  36.570  41.391   1.801
 1206W        W60500   8.288  10.230   0.914
 1207W        W60501  24.667  23.126   0.448
 1208W        W60502   4.877   2.870   2.270
 1209W        W60503  14.726  17.674  13.903
 1210W        W60504   6.804  27.681  11.044
 1211W        W60505  12.761  34.578  14.836
 1212W        W60506  18.094  31.928   4.693
 1213W        W60507  39.431  34.923  12.866
 1214W        W60508  12.154  26.474  14.514
 1215W        W60509   2.807  39.953   1.396
 1216W        W60510  10.209  15.241  11.874
 1217W        W60511  17.792   9.335   4.278
 1218W        W60512   4.791  26.175   1.300
 1219W        W60513   3.354  15.600   4.310
 1220W        W60514  20.706  17.241  12.391
 1221W        W60515  28.559  33.415  13.510
 1222W        W60516   0.266   1.389  11.585
 1223W        W60517  38.893  18.123   4.188
 1224W        W60518   3.918  16.652  10.905
 1225W        W60519  10.820  34.406  10.610
 1226W        W60520   5.824  27.462   2.785
 1227W        W60521  15.313  19.545  12.560
 1228W        W60522  12.819  42.797   0.791
 1229W        W60523  19.129  25.209   0.851
 1230W        W60524  34.954  35.551   0.786
 1231W        W60525   8.335  15.180   4.217
 1232W        W60526   3.840  10.787  14.760
 1233W        W60527  16.080  19.122   4.620
 1234W        W60528  30.147  31.108  10.509
 1235W        W60529  16.219   9.672  13.986
 1236W        W60530   6.306   0.476  14.429
 1237W        W60531  13.600  31.521   2.375
 1238W        W60532  18.223  17.780   3.303
 1239W        W60533  13.746  30.911  12.852
 1240W        W60534  19.731  30.136   2.282
 1241W        W60535  12.350  35.087   3.270
 1242W        W60536  40.808  25.068   0.926
 1243W        W60537   0.249  21.253   2.832
 1244W        W60538  12.259  22.140   2.403
 1245W        W60539  37.889  41.292   1.931
 1246W        W60540  23.642  41.924  14.788
 1247W        W60541   0.825  27.482   1.232
 1248W        W60542  15.296  26.685   3.364
 1249W        W60543  40.844  10.321   0.952
 1250W        W60544  24.097  23.043  14.419
 1251W        W60545  33.515   6.230   0.937
 1252W        W60546  20.095  42.920   2.690
 1253W        W60547   0.436  35.359  10.523
 1254W        W60548  17.181   6.366  12.049
 1255W        W60549  43.012  37.838   2.874
 1256W        W60550  15.251  14.269   3.751
 1257W        W60551  10.710  36.508  13.420
 1258W        W60552  12.699   0.476   0.966
 1259W        W60553   0.370  31.140   2.324
 1260W        W60554  22.503  41.527  12.869
 1261W        W60555  25.087  35.002  11.991
 1262W        W60556   6.365   3.858  13.813
 1263W        W60557   3.414  12.321   0.810
 1264W        W60558  16.637   5.766  10.911
 1265W        W60559  37.063  30.923  10.527
 1266W        W60560  30.507  16.729   1.810
 1267W        W60561  34.873  13.760  14.009
 1268W        W60562  27.113   8.719  12.842
 1269W        W60563  19.040  39.532   3.324
 1270W        W60564  31.024  22.073  11.565
 1271W        W60565  40.524  14.175  14.285
 1272W        W60566  40.893  34.477  10.909
 1273W        W60567   9.663  42.491  11.524
 1274W        W60568  12.751  35.923   4.269
 1275W        W60569  20.113  44.362   0.765
 1276W        W60570  25.211  12.774   4.743
 1277W        W60571  11.150  38.864  14.389
 1278W        W60572  37.957  21.534   2.179
 1279W        W60573  21.741  26.665  12.419
 1280W        W60574  43.800  40.426  11.458
 1281W        W60575  30.536  35.854  12.044
 1282W        W60576   3.911  12.263   2.847
 1283W        W60577  38.385  38.861  14.444
 1284W        W60578   6.889  10.839  14.939
 1285W        W60579  44.971  36.948  12.394
 1286W        W60580  30.937  11.142   3.269
 1287W        W60581  37.374   5.374   1.866
 1288W        W60582  24.159  40.547   3.330
 1289W        W60583  44.791  36.473  14.834
 1290W        W60584  27.564   7.902   1.273
 1291W        W60585  26.990  41.479  11.954
 1292W        W60586   8.342   6.384  14.972
 1293W        W60587  21.186  42.399   5.248
 1294W        W60588  23.050  34.961   3.713
 1295W        W60589  38.530  16.669   4.165
 1296W        W60590  24.516  25.096  14.435
 1297W        W60591  43.503   6.757  13.537
 1298W        W60592  30.577  28.438  12.083
 1299W        W60593  11.688  11.323  14.448
 1300W        W60594   2.930   8.238  12.420
 1301W        W60595  26.206  19.104  13.856
 1302W        W60596  42.432  33.108  11.961
 1303W        W60597   4.381   6.208  12.070
 1304W        W60598  40.413  29.447  10.644
 1305W        W60599  37.561  39.316   2.240
 1306W        W60600  25.471   0.765   2.867
 1307W        W60601  32.491  21.023  14.463
 1308W        W60602  30.116  37.875   1.317
 1309W        W60603  39.375  19.625   0.759
 1310W        W60604  43.407  19.063  10.888
 1311W        W60605  34.457  26.476  11.602
 1312W        W60606  25.067  14.131  12.031
 1313W        W60607  22.146  23.556   2.880
 1314W        W60608  15.806  44.841  14.907
 1315W        W60609  33.485  15.712   2.838
 1316W        W60610  25.593  15.791  13.397
 1317W        W60611  17.130  31.479  11.887
 1318W        W60612  30.582  36.052   2.763
 1319W        W60613  39.009  13.734  11.598
 1320W        W60614   9.265  20.269   3.314
 1321W        W60615   0.459  25.141  12.977
 1322W        W60616   5.350  42.398  13.045
 1323W        W60617  28.086  17.717  12.465
 1324W        W60618  22.021  43.909   2.370
 1325W        W60619  29.644  32.907   1.437
 1326W        W60620  21.028  27.597  13.461
 1327W        W60621  11.291   0.328  14.308
 1328W        W60622  15.732  17.065  14.484
 1329W        W60623   1.810  37.918  11.017
 1330W        W60624  34.476   8.396   0.247
 1331W        W60625   0.433  17.096   4.761
 1332W        W60626  43.820  12.264  11.020
 1333W        W60627  32.094  38.395   5.178
 1334W        W60628  27.985  20.745   4.675
 1335W        W60629   8.368   7.193   4.775
 1336W        W60630   6.785  18.683   2.663
 1337W        W60631  38.030  36.526  12.001
 1338W        W60632  20.628   8.897  12.826
 1339W        W60633   2.826   4.430  14.917
 1340W        W60634  38.532   7.286   3.776
 1341W        W60635  26.104  27.690   4.633
 1342W        W60636  36.522  21.036   4.659
 1343W        W60637  44.398  23.493  11.126
 1344W        W60638  43.859   1.423   4.254
 1345W        W60639  20.557   3.792   3.634
 1346W        W60640  20.155  17.302  11.105
 1347W        W60641  23.156  13.724   3.257
 1348W        W60642  43.497  32.100  12.857
 1349W        W60643   0.762   4.205  12.847
 1350W        W60644  16.661  14.331   2.309
 1351W        W60645  13.260  43.511   2.854
 1352W        W60646  12.206  12.639  12.365
 1353W        W60647  23.128  11.283   1.331
 1354W        W60648   0.823  27.482   0.860
 1355W        W60649  23.185   3.352  14.408
 1356W        W60650  27.532  21.742   0.958
 1357W        W60651   4.868  36.572   0.925
 1358W        W60652  24.993   3.300  14.833
 1359W        W60653  26.640  27.543  13.014
 1360W        W60654  40.511  21.721   1.248
 1361W        W60655  25.533  24.064   4.247
 1362W        W60656   1.792  42.443   3.174
 1363W        W60657  19.714  35.045  10.901
 1364W        W60658  20.102   5.324   2.697
 1365W        W60659  25.526  21.573   3.705
 1366W        W60660  28.015  21.185   1.880
 1367W        W60661   0.382  11.322   4.238
 1368W        W60662   2.877  34.555   3.715
 1369W        W60663  34.060  26.497   2.772
 1370W        W60664  38.874  33.552  11.874
 1371W        W60665   1.454  26.467   3.696
 1372W        W60666  31.954   0.817   1.785
 1373W        W60667  28.679  30.538   4.756
 1374W        W60668  32.507  42.801   1.399
 1375W        W60669  22.730  25.503  12.498
 1376W        W60670  11.625   7.772  12.369
 1377W        W60671   1.931  36.081  11.885
 1378W        W60672  24.549   3.831  11.069
 1379W        W60673  37.956   5.902  12.943
 1380W        W60674  33.027  36.536   1.264
 1381W        W60675  28.484  31.567   2.836
 1382W        W60676  24.567  37.850   3.797
 1383W        W60677  26.018  22.216  14.873
 1384W        W60678  44.385  23.197   1.336
 1385W        W60679  17.170  43.358  11.922
 1386W        W60680   6.712  41.418  13.486
 1387W        W60681  26.657  23.180  12.851
 1388W        W60682  20.696  35.435   4.612
 1389W        W60683  28.440  41.804  12.958
 1390W        W60684  14.192  35.047  11.035
 1391W        W60685  17.292  43.842   2.806
 1392W        W60686  42.960  29.927  12.054
 1393W        W60687  37.059   1.827  13.387
 1394W        W60688  39.472  28.175   3.273
 1395W        W60689  16.292   3.455  14.396
 1396W        W60690  24.119  38.036   0.245
 1397W        W60691  16.600  36.356  10.928
 1398W        W60692  20.560  16.645   0.440
 1399W        W60693  21.536   0.896   4.761
 1400W        W60694  39.927  30.989  14.819
 1401W        W60695  41.865  15.604   0.965
 1402W        W60696  12.187  11.782   0.316
 1403W        W60697  15.166   0.780   4.226
 1404W        W60698  27.175  24.032   1.262
 1405W        W60699  17.294   3.935   4.170
 1406W        W60700  23.201   5.415  13.955
 1407W        W60701  33.046  34.553   4.704
 1408W        W60702   9.768  16.684  13.467
 1409W        W60703  20.734  27.599   0.904
 1410W        W60704  23.223  16.146   3.250
 1411W        W60705   9.174  38.895  14.447
 1412W        W60706   4.831  30.531   4.248
 1413W        W60707  29.659   6.197   1.931
 1414W        W60708  43.922  30.572   4.152
 1415W        W60709  22.108  30.951   3.663
 1416W        W60710  20.767  12.824  12.522
 1417W        W60711   6.694   5.884  10.639
 1418W        W60712  24.132  10.646  12.992
 1419W        W60713  10.165  38.361   2.679
 1420W        W60714  42.301   7.837   3.676
 1421W        W60715   4.940  26.134  13.494
 1422W        W60716  17.752  10.157   3.179
 1423W        W60717  15.249  33.993  13.491
 1424W        W60718  40.487  22.574  14.983
 1425W        W60719  21.525   4.257   2.382
 1426W        W60720  26.979  31.012  12.055
 1427W        W60721   7.889  24.707   9.919
 1428W        W60722  29.458  39.317   0.802
 1429W        W60723  17.158  24.529   3.678
 1430W        W60724  38.344  30.065  13.459
 1431W        W60725  42.894  38.423   3.815
 1432W        W60726  28.176  13.351   1.751
 1433W        W60727  42.292  33.132  11.532
 1434W        W60728  40.988  21.716   0.873
 1435W        W60729  30.059   2.959  14.903
 1436W        W60730   8.377  44.975  13.879
 1437W        W60731  16.786  32.072  11.400
 1438W        W60732  44.913  27.026  12.394
 1439W        W60733  22.168  13.192  12.866
 1440W        W60734  44.918  16.266  12.373
 1441W        W60735   5.352  44.835   3.719
 1442W        W60736  29.123   2.892   3.760
 1443W        W60737  39.835   2.251   1.318
 1444W        W60738  24.483  41.945   2.294
 1445W        W60739  15.150   3.326   0.853
 1446W        W60740  21.167  37.453  13.462
 1447W        W60741  27.650  32.986  10.569
 1448W        W60742  13.804  11.162  13.410
 1449W        W60743  33.882  34.552  11.871
 1450W        W60744  27.188   4.390  11.945
 1451W        W60745  19.701  19.171   2.875
 1452W        W60746  23.727  24.083   0.788
 1453W        W60747  27.010   8.808  13.423
 1454W        W60748  35.076   1.741   2.890
 1455W        W60749  26.150  42.862   4.143
 1456W        W60750  34.048   9.384   4.204
 1457W        W60751   7.391   0.307  14.383
 1458W        W60752  27.475  13.728   0.773
 1459W        W60753  37.918  39.896   1.779
 1460W        W60754   8.379  44.316  14.017
 1461W        W60755  25.200   1.947   4.172
 1462W        W60756   7.846  44.437   4.650
 1463W        W60757  28.583  42.836  14.306
 1464W        W60758  24.715  36.379   2.678
 1465W        W60759  38.566  14.315  13.045
 1466W        W60760   1.908  23.128  12.918
 1467W        W60761  23.720  43.958  13.926
 1468W        W60762  23.176  28.564   2.744
 1469W        W60763  41.524   4.312   0.854
 1470W        W60764  28.089  17.678  13.851
 1471W        W60765  15.226  44.967   2.279
 1472W        W60766  31.061  31.407   0.869
 1473W        W60767   2.430  34.075  13.456
 1474W        W60768  25.665  25.040  12.565
 1475W        W60769  20.140  29.990  14.950
 1476W        W60770  11.653  33.069  14.365
 1477W        W60771  28.605  28.048  12.036
 1478W        W60772  28.608  17.199  10.089
 1479W        W60773   2.749  27.097   1.733
 1480W        W60774  30.034  11.668   0.325
 1481W        W60775  29.007  28.029  11.374
 1482W        W60776   2.262  33.045   4.780
 1483W        W60777  24.559   7.315  12.843
 1484W        W60778  17.111  33.582  14.435
 1485W        W60779   6.428  24.614   3.249
 1486W        W60780  41.404  35.565   3.773
 1487W        W60781  40.318  22.605   1.261
 1488W        W60782  15.580  36.351   0.760
 1489W        W60783   3.285  16.644  13.854
 1490W        W60784  35.485  16.802   1.291
 1491W        W60785  32.037   4.300   3.215
 1492W        W60786   2.949  11.803   1.258
 1493W        W60787  30.916  25.009  14.817
 1494W        W60788  13.759   6.788   4.695
 1495W        W60789  22.650  21.544   0.369
 1496W        W60790  40.999   0.940  11.576
 1497W        W60791  16.273  20.168  12.926
 1498W        W60792  22.734  18.545  13.966
 1499W        W60793   2.757  16.596   3.303
 1500W        W60794  29.448  38.385   2.384
 1501W        W60795  25.993   9.331  14.869
 1502W        W60796  44.894   3.281   4.335
 1503W        W60797  22.521  26.060   2.239
 1504W        W60798   0.985  24.662  14.855
 1505W        W60799  32.412  14.279   1.278
 1506W        W60800  31.129  32.996  13.912
 1507W        W60801  22.237  23.581   4.693
 1508W        W60802  30.045  34.474  12.378
 1509W        W60803  41.908  26.512   1.246
 1510W        W60804   4.738  43.510  14.832
 1511W        W60805  11.660  44.312  14.434
 1512W        W60806  24.591  10.674  12.078
 1513W        W60807  17.131   3.387  12.985
 1514W        W60808   7.764  30.568   5.092
 1515W        W60809  33.112   3.861  12.927
 1516W        W60810  43.426  18.718  10.926
 1517W        W60811  25.564  29.110   1.831
 1518W        W60812  28.143  27.082   3.378
 1519W        W60813  22.698  20.275  13.392
 1520W        W60814   7.237   7.833   0.313
 1521W        W60815  41.905  37.948   2.412
 1522W        W60816  44.390   9.213  11.927
 1523W        W60817  31.593   0.348   2.288
 1524W        W60818  17.294  41.031  12.854
 1525W        W60819  28.947   9.818   4.625
 1526W        W60820  32.438   7.818  13.915
 1527W        W60821  37.510   2.838   1.432
 1528W        W60822  44.921   1.913  10.642
 1529W        W60823   1.858   8.203  12.525
 1530W        W60824  21.659  37.417   2.380
 1531W        W60825  36.990  32.460   5.126
 1532W        W60826  26.701  34.470   4.169
 1533W        W60827  37.847   4.787  10.486
 1534W        W60828  32.118   7.735   1.441
 1535W        W60829  14.588  41.505   2.294
 1536W        W60830   6.764   0.375   1.250
 1537W        W60831  34.395  35.567   2.367
 1538W        W60832  32.093  41.932  12.563
 1539W        W60833  41.024  23.565  13.366
 1540W        W60834  23.718  13.793   3.373
 1541W        W60835  39.432  42.973  12.405
 1542W        W60836  23.607  30.480  13.054
 1543W        W60837  32.519  20.767  13.506
 1544W        W60838  18.631  21.123   2.208
 1545W        W60839   0.389  28.673   4.315
 1546W        W60840  35.411  17.077   3.845
 1547W        W60841  14.656  41.535  11.607
 1548W        W60842   7.693  37.835   1.888
 1549W        W60843   6.788  25.470  11.489
 1550W        W60844  42.003  15.684  14.867
 1551W        W60845  32.107  30.434   0.318
 1552W        W60846  19.152  16.789   2.374
 1553W        W60847   7.791  19.630   4.811
 1554W        W60848   4.882  30.031  13.036
 1555W        W60849   9.257   9.771  11.117
 1556W        W60850   1.840  29.988   1.777
 1557W        W60851  19.057  32.508   0.351
 1558W        W60852  34.496  44.815  14.942
 1559W        W60853  31.550  21.086   2.278
 1560W        W60854  15.697  36.418   1.259
 1561W        W60855  33.123   6.677  13.345
 1562W        W60856  36.440  15.704   3.639
 1563W        W60857  37.971  21.094   1.404
 1564W        W60858  16.574  31.083  14.473
 1565W        W60859   7.726  10.835   1.875
 1566W        W60860  19.703  43.915  14.419
 1567W        W60861  40.034   1.807   4.314
 1568W        W60862  26.464  18.756   4.633
 1569W        W60863  26.563  12.848  13.488
 1570W        W60864  26.113   8.373   1.713
 1571W        W60865  18.207  35.518  10.892
 1572W        W60866  28.526  17.167  13.982
 1573W        W60867  11.843  12.734   0.939
 1574W        W60868  40.336  38.392   4.624
 1575W        W60869  11.850  18.135   4.146
 1576W        W60870  16.580  36.364   3.286
 1577W        W60871  40.488   2.777  12.354
 1578W        W60872  43.920  44.459   2.745
 1579W        W60873  29.022  31.492  12.987
 1580W        W60874  34.496   7.370  12.529
 1581W        W60875   4.233  40.842  14.377
 1582W        W60876  18.564   5.773  14.844
 1583W        W60877   8.211  19.045   4.225
 1584W        W60878  28.458  25.615   1.748
 1585W        W60879  41.455  12.360  11.441
 1586W        W60880  15.294  24.990   3.162
 1587W        W60881   0.879  31.907  13.950
 1588W        W60882   3.436   1.785  12.553
 1589W        W60883  35.893  24.645   2.753
 1590W        W60884   2.961  43.014  14.828
 1591W        W60885  30.098  14.675   0.889
 1592W        W60886   4.325  41.811  12.985
 1593W        W60887  35.033  25.539  10.980
 1594W        W60888  43.883  40.886  12.374
 1595W        W60889  22.567  42.875   0.803
 1596W        W60890  33.510  33.466   2.845
 1597W        W60891  44.362  18.267   3.258
 1598W        W60892  40.322  39.063   3.705
 1599W        W60893   0.835  41.893  12.064
 1600W        W60894  28.482  32.058  12.501
 1601W        W60895  13.630   3.712   0.948
 1602W        W60896  14.793  37.877   4.831
 1603W        W60897  39.405  44.936  11.400
 1604W        W60898   1.361   3.254  13.819
 1605W        W60899  29.943  11.221  14.354
 1606W        W60900  39.462  44.343  13.939
 1607W        W60901  38.070  35.494  12.065
 1608W        W60902  31.452  21.098   0.311
 1609W        W60903  27.087  17.576   3.199
 1610W        W60904   7.261  44.385  14.379
 1611W        W60905  15.102  38.406   4.128
 1612W        W60906  11.178   2.453   5.669
 1613W        W60907  32.914  32.465  10.550
 1614W        W60908  39.315  40.976  14.465
 1615W        W60909   3.880  27.944  12.982
 1616W        W60910   3.868   4.269  12.965
 1617W        W60911  32.138  44.985   4.633
 1618W        W60912  35.925  42.893  11.959
 1619W        W60913  35.951  18.238   2.816
 1620W        W60914   6.357  11.721   2.765
 1621W        W60915   5.836   3.411   0.757
 1622W        W60916  14.104  23.037  11.869
 1623W        W60917  31.128  15.193  13.027
 1624W        W60918  33.615  33.589   4.314
 1625W        W60919  24.008  16.634  13.862
 1626W        W60920  36.364  26.032  13.369
 1627W        W60921  33.527  13.612  11.593
 1628W        W60922  40.035  32.589   0.882
 1629W        W60923  11.198  20.064  11.593
 1630W        W60924  14.225  35.914   1.264
 1631W        W60925  39.525  32.619   1.846
 1632W        W60926  42.820   0.270  13.848
 1633W        W60927  37.483  15.320  10.098
 1634W        W60928  41.534  15.605  10.012
 1635W        W60929  22.046  36.982   3.761
 1636W        W60930  19.655   7.882  10.460
 1637W        W60931   2.827  34.939   2.768
 1638W        W60932  31.901  22.174   9.967
 1639W        W60933  14.588  21.624   4.638
 1640W        W60934   3.264  23.212   4.729
 1641W        W60935  43.314   4.309  11.084
 1642W        W60936  32.896  43.804   1.769
 1643W        W60937   6.316  32.445   9.538
 1644W        W60938  37.040  31.911   5.148
 1645W        W60939  12.262  32.970   2.748
 1646W        W60940  37.382  24.640  11.980
 1647W        W60941  12.186  14.243  13.473
 1648W        W60942  29.616  41.493  10.953
 1649W        W60943   3.948  10.213   3.277
 1650W        W60944  16.107   0.759  10.112
 1651W        W60945  24.059  38.431   4.347
 1652W        W60946  20.200  26.088   2.827
 1653W        W60947  42.483   6.890  13.979
 1654W        W60948  26.557   7.348  11.979
 1655W        W60949  37.931   4.883   0.948
 1656W        W60950  31.139   7.222  10.615
 1657W        W60951  14.256  40.993   3.777
 1658W        W60952  29.109  27.004   2.227
 1659W        W60953  30.004   5.323   1.291
 1660W        W60954  43.769  17.174   2.888
 1661W        W60955   7.768  28.076  12.910
 1662W        W60956   1.285  39.444  14.439
 1663W        W60957  25.642  18.062   3.195
 1664W        W60958  36.018   9.780  13.538
 1665W        W60959  36.585   9.309   2.874
 1666W        W60960  35.109   4.879  10.456
 1667W        W60961  28.173   9.274  14.873
 1668W        W60962  15.614  16.796   2.311
 1669W        W60963  14.280  21.534  10.036
 1670W        W60964  39.037   7.885   5.212
 1671W        W60965  39.497  22.174  14.889
 1672W        W60966  10.689  13.188   0.266
 1673W        W60967  30.121  42.862  13.002
 1674W        W60968  21.661  12.784   3.243
 1675W        W60969  44.342  19.085  14.410
 1676W        W60970  16.081  25.111  14.913
 1677W        W60971   0.367  37.569   0.866
 1678W        W60972   5.757  19.216  12.385
 1679W        W60973   5.698  43.806  11.113
 1680W        W60974  25.673  21.243   3.725
 1681W        W60975  44.881  16.259   2.902
 1682W        W60976  33.944  14.660   3.758
 1683W        W60977  35.025  33.405   1.905
 1684W        W60978  38.822  39.363  10.971
 1685W        W60979  38.520  32.044   9.991
 1686W        W60980   7.212   8.844   1.834
 1687W        W60981  10.169  20.164  13.850
 1688W        W60982  26.657   5.251   4.756
 1689W        W60983  21.653  42.367   3.647
 1690W        W60984  38.383  35.002   1.347
 1691W        W60985   8.874  33.391   1.338
 1692W        W60986  40.843  22.640   0.445
 1693W        W60987  36.026  26.135  10.963
 1694W        W60988  23.055  38.529   0.454
 1695W        W60989  16.281  39.984  12.406
 1696W        W60990   7.317  24.077   2.745
 1697W        W60991  21.515  37.034  13.486
 1698W        W60992  17.148  33.923   2.202
 1699W        W60993  35.103  41.451   4.746
 1700W        W60994   0.253  14.158  10.591
 1701W        W60995   2.254   6.783   3.723
 1702W        W60996  16.618  41.354  10.497
 1703W        W60997  21.610   8.373   3.640
 1704W        W60998  13.348   7.194  13.032
 1705W        W60999   1.942  43.287   3.355
 1706W        W61000  33.076   3.301  12.548
 1707W        W61001  44.501  38.324   3.835
 1708W        W61002  42.410  26.129   2.361
 1709W        W61003  23.066  15.090  14.902
 1710W        W61004  11.660  15.661   2.887
 1711W        W61005  42.817  43.371  14.459
 1712W        W61006  30.497  22.612   2.327
 1713W        W61007  40.865   6.208   1.771
 1714W        W61008   1.269   0.793   4.184
 1715W        W61009  34.494  14.169  14.438
 1716W        W61010   4.719  23.561   0.342
 1717W        W61011  25.188  16.724   4.630
 1718W        W61012  30.546   7.356  13.808
 1719W        W61013  18.578  21.162  10.096
 1720W        W61014  43.958   7.670   0.371
 1721W        W61015  19.563   6.359   4.770
 1722W        W61016  38.859   3.788   2.339
 1723W        W61017  30.918  44.874  12.093
 1724W        W61018  21.077  43.930  14.945
 1725W        W61019  19.157  11.846   1.219
 1726W        W61020  20.579  39.320  12.386
 1727W        W61021   3.883  33.898  12.841
 1728W        W61022   6.265  12.739  10.125
 1729W        W61023  35.527  34.393  14.795
 1730W        W61024   0.871  36.572   4.265
 1731W        W61025   2.407  14.650   0.859
 1732W        W61026   0.303   7.809  13.838
 1733W        W61027  29.531  26.190   3.634
 1734W        W61028  21.104  38.374   1.844
 1735W        W61029  36.433  30.954   4.154
 1736W        W61030  36.565  31.506  12.875
 1737W        W61031  33.428   1.938   2.308
 1738W        W61032  15.796  30.978  10.533
 1739W        W61033  40.039  26.072   3.220
 1740W        W61034   0.918  37.984  14.945
 1741W        W61035   0.883   0.361   1.749
 1742W        W61036  33.953  24.484   1.220
 1743W        W61037   1.377  33.894  13.846
 1744W        W61038  30.659   2.759  12.064
 1745W        W61039  42.877  13.135   1.357
 1746W        W61040  35.950  24.070   5.119
 1747W        W61041  21.543  32.924   4.126
 1748W        W61042  11.666  32.485  14.784
 1749W        W61043  29.014   6.772   1.290
 1750W        W61044  42.840  32.020   3.761
 1751W        W61045  30.118  43.394   4.268
 1752W        W61046  15.199  32.392   4.612
 1753W        W61047  44.434  20.151   4.818
 1754W        W61048  25.150  17.652   0.331
 1755W        W61049  10.345  20.035   2.349
 1756W        W61050  25.680  28.170  12.848
 1757W        W61051  24.992   4.752  13.378
 1758W        W61052  18.690  18.276  14.295
 1759W        W61053  24.529  15.743  11.424
 1760W        W61054  25.146  30.426   2.259
 1761W        W61055  43.869  38.917  11.477
 1762W        W61056  24.524   8.844   1.306
 1763W        W61057  22.064  19.106   4.609
 1764W        W61058  34.454   0.879  10.495
 1765W        W61059  26.505  24.678  10.452
 1766W        W61060  23.566  44.348  13.446
 1767W        W61061  39.514  24.220   3.281
 1768W        W61062  43.848  44.892   3.789
 1769W        W61063  21.700  20.110  13.529
 1770W        W61064  38.034  15.705  12.502
 1771W        W61065  13.604   9.258   0.773
 1772W        W61066  31.897  19.130  12.887
 1773W        W61067  20.267  37.348  10.502
 1774W        W61068  41.004  34.061  10.909
 1775W        W61069   6.828  36.088  12.461
 1776W        W61070   7.208  26.488   4.760
 1777W        W61071  23.136  25.156   1.810
 1778W        W61072   7.856  31.909  13.808
 1779W        W61073  18.554  18.672   1.836
 1780W        W61074  26.543   4.218  10.420
 1781W        W61075  10.673   9.260  11.871
 1782W        W61076  16.663  22.079  10.043
 1783W        W61077   4.837  10.140   0.440
 1784W        W61078  23.612  39.834  11.096
 1785W        W61079  34.870  25.683   1.921
 1786W        W61080  44.435  33.071   0.434
 1787W        W61081  20.627   7.880  11.882
 1788W        W61082  30.045   7.857   2.308
 1789W        W61083  17.622  31.114   2.862
 1790W        W61084  38.017  24.550   0.847
 1791W        W61085  22.142  24.979  14.384
 1792W        W61086  40.853  43.911  14.376
 1793W        W61087   3.781  25.089   4.171
 1794W        W61088  14.160  21.082  11.887
 1795W        W61089  27.548  36.532   4.751
 1796W        W61090  40.841  26.982   3.823
 1797W        W61091  13.234  42.975   2.212
 1798W        W61092  37.906  33.579   2.901
 1799W        W61093  11.208  14.270  14.891
 1800W        W61094  23.686  42.518   3.723
 1801W        W61095  27.962  15.675   2.379
 1802W        W61096  17.152  21.191  12.837
 1803W        W61097   6.358  14.183  12.357
 1804W        W61098  30.004  39.867  14.301
 1805W        W61099  35.925  28.943  10.404
 1806W        W61100  41.910   2.278  11.864
 1807W        W61101  31.063  39.899   5.167
 1808W        W61102  15.794  29.019   3.236
 1809W        W61103  25.672  12.328   0.450
 1810W        W61104  39.977  36.923  14.464
 1811W        W61105   0.445  20.563  12.531
 1812W        W61106  38.889   4.846   4.603
 1813W        W61107  37.062  43.499   3.789
 1814W        W61108  38.002  44.439  13.812
 1815W        W61109   4.842  36.903   1.751
 1816W        W61110   8.899  31.099  14.790
 1817W        W61111  36.053  31.468   2.278
 1818W        W61112   7.242  13.764  13.057
 1819W        W61113  35.987   2.390   2.879
 1820W        W61114  11.670   9.374   1.342
 1821W        W61115  37.930   1.903   0.313
 1822W        W61116   5.331  23.025   3.868
 1823W        W61117  44.802  37.552  13.988
 1824W        W61118   4.804  13.840   2.288
 1825W        W61119  25.194   3.725   3.158
 1826W        W61120   2.843   4.810  11.970
 1827W        W61121   5.713  17.619  14.838
 1828W        W61122   0.926  43.400  11.477
 1829W        W61123  22.245  28.186   3.774
 1830W        W61124  33.578   3.317   2.352
 1831W        W61125  21.644   6.847  11.018
 1832W        W61126  22.181  12.167  14.434
 1833W        W61127  39.412  29.547  10.896
 1834W        W61128  12.186  20.654  13.004
 1835W        W61129  25.559  44.401  14.979
 1836W        W61130  27.005  33.384   4.630
 1837W        W61131  32.096   1.924  11.465
 1838W        W61132  33.458   3.307  10.924
 1839W        W61133  24.150   4.768   5.259
 1840W        W61134  29.994  24.569   4.815
 1841W        W61135  43.981  42.818   4.163
 1842W        W61136  22.009  42.809   0.359
 1843W        W61137  33.077   7.886   5.243
 1844W        W61138  24.136  12.197   4.808
 1845W        W61139  28.094  28.572   1.435
 1846W        W61140  44.837  28.079  14.877
 1847W        W61141   2.329  36.469  12.077
 1848W        W61142  15.223  39.833  13.925
 1849W        W61143   4.398  40.325  11.893
 1850W        W61144  24.981  24.495  11.045
 1851W        W61145  14.692  28.589   4.732
 1852W        W61146  24.983  15.112  12.992
 1853W        W61147  23.695  11.806   2.864
 1854W        W61148  28.071  36.093  12.504
 1855W        W61149   3.870  37.065   3.162
 1856W        W61150  27.651  44.490   0.295
 1857W        W61151  14.230   2.345   2.228
 1858W        W61152  38.824  30.615  14.315
 1859W        W61153  30.452  12.846   0.842
 1860W        W61154  30.483  13.226  12.563
 1861W        W61155  21.019   9.708   1.916
 1862W        W61156  11.840  33.548  11.946
 1863W        W61157  35.863  31.042  11.374
 1864W        W61158  41.837  43.322  14.006
 1865W        W61159  34.952  14.167  14.509
 1866W        W61160  34.865  14.169   0.729
 1867W        W61161  39.418  26.158  10.513
 1868W        W61162  19.173  18.102  11.455
 1869W        W61163  21.652  36.385  11.018
 1870W        W61164  35.916  25.487   4.141
 1871W        W61165  24.581   3.454   3.680
 1872W        W61166  27.462  28.577   0.272
 1873W        W61167  10.876  36.411   4.187
 1874W        W61168   7.326  33.129   0.943
 1875W        W61169  34.464  12.813   4.779
 1876W        W61170  29.460  28.599  10.477
 1877W        W61171  16.730  27.075   4.649
 1878W        W61172  42.463  26.650   2.398
 1879W        W61173   8.666  37.932  10.554
 1880W        W61174  11.193  31.088  11.893
 1881W        W61175  31.470  35.549   3.280
 1882W        W61176  20.149  29.557  12.828
 1883W        W61177  14.232  30.574   4.128
 1884W        W61178  34.386  16.292  12.555
 1885W        W61179  27.666  42.812   4.226
 1886W        W61180  14.154  44.866   2.299
 1887W        W61181  17.280   1.262  12.045
 1888W        W61182   9.661  19.098   1.234
 1889W        W61183  42.516  23.000  14.825
 1890W        W61184   5.352  37.007  14.966
 1891W        W61185  12.335   8.667   4.342
 1892W        W61186  22.160  29.100   3.843
 1893W        W61187  44.478  18.144  14.775
 1894W        W61188  34.537   7.405   9.641
 1895W        W61189  17.750  25.532   0.300
 1896W        W61190  27.594  44.386   1.872
 1897W        W61191  13.276  24.490  11.885
 1898W        W61192  13.196  26.536   3.707
 1899W        W61193  16.078   8.753   1.399
 1900W        W61194  26.490  19.176  13.338
 1901W        W61195  30.463  31.583  11.078
 1902W        W61196  18.165   6.325   1.275
 1903W        W61197  29.447  24.077   0.834
 1904W        W61198  38.068  15.609  10.096
 1905W        W61199  16.297  17.167   3.349
 1906W        W61200   3.854  21.681   3.784
 1907W        W61201  18.095  40.443   1.714
 1908W        W61202  11.769  32.509   3.329
 1909W        W61203  32.448  19.730  12.981
 1910W        W61204   4.703   8.276   0.832
 1911W        W61205  41.825  31.084   3.220
 1912W        W61206  27.525  17.117   1.420
 1913W        W61207  18.668  21.608  13.541
 1914W        W61208  22.252  36.419  12.514
 1915W        W61209   2.940   1.285  12.446
 1916W        W61210  34.982  30.648   4.628
 1917W        W61211  28.929  29.504   3.149
 1918W        W61212   4.211  34.563   2.272
 1919W        W61213  24.631  14.642   4.202
 1920W        W61214  29.997  32.579   2.358
 1921W        W61215  33.947  35.890   0.375
 1922W        W61216  32.117  17.751   1.809
 1923W        W61217   1.304   8.761   0.743
 1924W        W61218   0.852  28.549   0.372
 1925W        W61219  25.146  12.354   2.775
 1926W        W61220   1.731   9.758   1.810
 1927W        W61221   0.768  28.594  14.881
 1928W        W61222  34.372  38.515  11.465
 1929W        W61223  35.575  23.127  11.600
 1930W        W61224  19.735  23.530   1.344
 1931W        W61225  25.000  40.526   1.903
 1932W        W61226  37.443   1.755   2.824
 1933W        W61227  34.088  26.503   2.300
 1934W        W61228   9.755  25.201   1.394
 1935W        W61229   6.879  29.976   1.852
 1936W        W61230   9.181  10.296  10.563
 1937W        W61231   5.758  21.175   1.346
 1938W        W61232  10.146  17.095   0.249
 1939W        W61233  34.454  35.403  13.860
 1940W        W61234   5.207  10.165  13.872
 1941W        W61235  41.913  10.700   2.892
 1942W        W61236   8.344  43.484  12.835
 1943W        W61237  21.741   0.474   0.902
 1944W        W61238  40.016  26.587  11.940
 1945W        W61239  40.315  20.101   3.173
 1946W        W61240   7.753  28.962   0.443
 1947W        W61241  19.680  26.464  13.997
 1948W        W61242  27.692  14.180  12.077
 1949W        W61243  14.300  26.963   1.812
 1950W        W61244  10.256  27.063   4.313
 1951W        W61245  20.064  37.883   2.309
 1952W        W61246  44.383  11.830  12.987
 1953W        W61247  32.589   9.214  12.962
 1954W        W61248  30.916  33.430   1.830
 1955W        W61249  33.118  14.787  11.004
 1956W        W61250   5.342  12.362  14.956
 1957W        W61251  21.026   2.456   0.417
 1958W        W61252  43.272  29.047  10.906
 1959W        W61253  23.216  19.666   3.719
 1960W        W61254   9.199   5.706   4.655
 1961W        W61255  11.708  34.485   4.190
 1962W        W61256   6.803  13.704   0.817
 1963W        W61257  35.505  42.857  11.034
 1964W        W61258  24.076  14.756  11.477
 1965W        W61259  28.066   3.886   3.680
 1966W        W61260  30.504  44.487   0.348
 1967W        W61261  37.444  10.856   3.282
 1968W        W61262  17.740  39.932  10.962
 1969W        W61263   7.775  36.869  11.376
 1970W        W61264  18.270  29.128  11.872
 1971W        W61265   0.796  35.086  14.284
 1972W        W61266  13.723   5.435   1.232
 1973W        W61267   0.954  32.434   4.695
 1974W        W61268   0.968  36.507   2.698
 1975W        W61269  12.633  36.447   1.845
 1976W        W61270  31.925   9.344  10.616
 1977W        W61271  22.054  10.226  14.776
 1978W        W61272   2.843  12.768   2.385
 1979W        W61273  23.115  15.216  13.924
 1980W        W61274   5.227  16.317   2.183
 1981W        W61275  32.607   4.315  11.582
 1982W        W61276  43.390  30.056   3.671
 1983W        W61277  19.600  20.224   3.220
 1984W        W61278  44.763   2.228  14.861
 1985W        W61279  28.510   6.219  12.389
 1986W        W61280  40.345  37.866   0.338
 1987W        W61281  38.908  38.822   5.630
 1988W        W61282  27.165  14.612  14.306
 1989W        W61283  43.821  31.418   1.421
 1990W        W61284  15.123  39.902   4.773
 1991W        W61285  30.605  34.918   0.305
 1992W        W61286  36.059  16.715   1.269
 1993W        W61287  23.095  15.629   3.854
 1994W        W61288  14.270  26.599   1.265
 1995W        W61289   0.897  15.190  13.452
 1996W        W61290  40.874  20.543  12.564
 1997W        W61291  19.122  16.160  13.519
 1998W        W61292   0.307  13.693   0.384
 1999W        W61293  23.518  32.437   4.765
 2000W        W61294  19.284  20.699   2.419
 2001W        W61295  35.523  14.606   4.780
 2002W        W61296  30.606  22.728   4.617
 2003W        W61297  10.349   8.769   3.348
 2004W        W61298   4.920  39.913   2.277
 2005W        W61299   7.688  12.123   3.250
 2006W        W61300  13.306  16.306  13.837
 2007W        W61301  24.171  18.716   0.432
 2008W        W61302  42.284  28.655  12.924
 2009W        W61303   8.225  25.171  12.416
 2010W        W61304  30.093  23.552   2.304
 2011W        W61305  11.144  10.277  14.954
 2012W        W61306  11.806   4.778   1.813
 2013W        W61307  21.087  18.601  13.400
 2014W        W61308  24.215  39.944   1.781
 2015W        W61309   4.876  35.548  11.915
 2016W        W61310  10.853   1.789   4.648
 2017W        W61311  39.519  36.945  13.426
 2018W        W61312  28.498  15.294   3.157
 2019W        W61313   9.295  15.613   3.259
 2020W        W61314  13.350  24.703  10.919
 2021W        W61315  37.524  12.136  14.889
 2022W        W61316   0.780  36.958   3.717
 2023W        W61317  40.846   1.964  12.061
 2024W        W61318   5.355  36.064   2.698
 2025W        W61319  25.565  18.750   2.685
 2026W        W61320   8.403  29.063   5.747
 2027W        W61321  10.775  36.565  11.061
 2028W        W61322  12.212  34.032   2.820
 2029W        W61323   8.806  17.267   3.308
 2030W        W61324   8.178  22.636  12.524
 2031W        W61325  25.517  12.148  12.942
 2032W        W61326  17.244  41.832  11.121
 2033W        W61327  41.812  22.700   4.190
 2034W        W61328  33.068  17.209   0.913
 2035W        W61329  32.545  27.668   3.264
 2036W        W61330   4.717  42.303  13.979
 2037W        W61331  15.690  36.362   4.713
 2038W        W61332  37.038   7.690  12.425
 2039W        W61333  31.097  21.122  14.494
 2040W        W61334  31.578  12.669   2.854
 2041W        W61335  11.311  27.125   0.480
 2042W        W61336  11.717  14.763   0.788
 2043W        W61337  32.117  28.512  14.961
 2044W        W61338  27.687  39.545   0.865
 2045W        W61339  33.896   9.258  11.523
 2046W        W61340   3.313   8.805   0.860
 2047W        W61341  19.580  20.254  14.496
 2048W        W61342  23.143  12.145  11.536
 2049W        W61343  24.512  34.966   3.757
 2050W        W61344  12.140  11.861   2.381
 2051W        W61345   7.374  12.675   3.664
 2052W        W61346  42.904  35.078  12.426
 2053W        W61347   9.725  44.940  14.345
 2054W        W61348  44.948  17.084   3.864
 2055W        W61349   4.204   6.217  10.625
 2056W        W61350   4.755  42.448  12.459
 2057W        W61351  44.375  35.382   2.379
 2058W        W61352  17.791  17.064   4.320
 2059W        W61353  37.381   2.944   3.261
 2060W        W61354  29.456   8.161   2.333
 2061W        W61355  12.663   8.256   4.300
 2062W        W61356  32.943  32.511   2.301
 2063W        W61357   3.457  38.501  13.970
 2064W        W61358   1.912  10.238  12.920
 2065W        W61359  28.459  19.576   3.241
 2066W        W61360  34.536  27.625   2.868
 2067W        W61361   8.379   4.716  10.138
 2068W        W61362   5.833  44.783  13.056
 2069W        W61363  35.988  16.664  14.937
 2070W        W61364  35.067  14.309  11.576
 2071W        W61365  17.100   3.387  10.452
 2072W        W61366  29.026  42.392  10.633
 2073W        W61367  25.200  21.141  14.474
 2074W        W61368  43.939  37.000   1.831
 2075W        W61369  19.535  27.567   4.698
 2076W        W61370  37.581  39.925   4.334
 2077W        W61371   5.909   3.759   4.277
 2078W        W61372   1.914  36.389   4.718
 2079W        W61373   4.726  36.380   4.790
 2080W        W61374  36.989  18.614  11.599
 2081W        W61375  32.905  27.590  14.765
 2082W        W61376   1.879  23.168   1.305
 2083W        W61377  40.036  10.272   2.344
 2084W        W61378  15.736  15.125   4.183
 2085W        W61379  20.622  44.911  11.931
 2086W        W61380   0.350  39.479   2.202
 2087W        W61381  40.426  30.451   0.379
 2088W        W61382  39.049   4.437  11.899
 2089W        W61383  34.376   9.863   3.240
 2090W        W61384  28.450  42.977   2.305
 2091W        W61385  18.138   0.956   4.628
 2092W        W61386  32.087   1.826  10.427
 2093W        W61387  15.632  35.364  13.484
 2094W        W61388   7.171  20.686   1.260
 2095W        W61389  11.150  25.077   2.371
 2096W        W61390  40.370  19.631  10.954
 2097W        W61391  41.371  13.817  12.872
 2098W        W61392  13.643   0.464  14.940
 2099W        W61393   5.930  18.123  10.641
 2100W        W61394   1.889  26.128  12.837
 2101W        W61395  38.969  11.367   0.965
 2102W        W61396  25.660  28.473  13.517
 2103W        W61397  38.012  29.518   4.709
 2104W        W61398  13.292  27.486   3.634
 2105W        W61399  15.203   5.925   1.450
 2106W        W61400  31.143   9.186   2.892
 2107W        W61401  39.851  22.200  11.545
 2108W        W61402  19.698  20.237   2.217
 2109W        W61403  25.058  19.560  13.910
 2110W        W61404  40.472   4.900   3.709
 2111W        W61405  25.052  39.989  13.856
 2112W        W61406   6.217   2.750  11.393
 2113W        W61407  21.737  40.392  11.977
 2114W        W61408  31.593  17.581   2.881
 2115W        W61409  20.707  30.537   3.863
 2116W        W61410   2.750  11.741  13.836
 2117W        W61411  14.653  15.634   0.453
 2118W        W61412  27.105  21.732   1.694
 2119W        W61413  20.057  40.370   1.234
 2120W        W61414   1.868  22.016   3.746
 2121W        W61415  25.652  25.539   3.823
 2122W        W61416  34.542  37.541   2.715
 2123W        W61417  33.621  11.842   1.704
 2124W        W61418  36.568  42.394   0.435
 2125W        W61419   6.229  32.392  14.893
 2126W        W61420  10.742  11.660   2.293
 2127W        W61421  28.625  32.929   3.753
 2128W        W61422  34.866  37.553  14.951
 2129W        W61423  39.057   2.848  13.544
 2130W        W61424  10.349  24.556   2.831
 2131W        W61425  37.369   8.695   1.425
 2132W        W61426  32.405  22.633   1.276
 2133W        W61427  35.857  31.064  14.870
 2134W        W61428   4.386   4.396   1.396
 2135W        W61429  26.045  12.307   5.280
 2136W        W61430  16.155  25.001   1.385
 2137W        W61431  14.737  34.505  13.868
 2138W        W61432  20.083  38.844  10.985
 2139W        W61433  36.916  23.087  10.887
 2140W        W61434  32.609  24.721  14.961
 2141W        W61435   7.302  11.725  14.032
 2142W        W61436  36.437   5.375   4.604
 2143W        W61437   3.448  19.624   0.417
 2144W        W61438  22.630  39.315   0.919
 2145W        W61439   0.829  21.754   4.607
 2146W        W61440   5.252   2.857  14.314
 2147W        W61441  15.135   6.914  11.858
 2148W        W61442  14.670   2.264   0.815
 2149W        W61443   2.415  18.159  14.351
 2150W        W61444  40.460  21.146   9.925
 2151W        W61445   8.318  41.376  11.396
 2152W        W61446  19.056  16.574  10.983
 2153W        W61447   1.915  41.489   2.744
 2154W        W61448   7.698  30.061   2.191
 2155W        W61449  44.393   5.254  10.149
 2156W        W61450  43.356   4.255   2.693
 2157W        W61451  42.903  42.825   2.256
 2158W        W61452  22.656  17.271  10.447
 2159W        W61453  42.447  30.487   2.402
 2160W        W61454   4.890  14.807  11.958
 2161W        W61455  19.062  16.773  11.878
 2162W        W61456  23.198  36.562  14.847
 2163W        W61457   7.175   9.206   2.882
 2164W        W61458  28.122   3.415   3.750
 2165W        W61459  22.198  16.662   0.435
 2166W        W61460  30.557  23.047   4.174
 2167W        W61461   6.904  20.260   3.808
 2168W        W61462  25.169  11.796   4.658
 2169W        W61463  29.642  13.189  11.589
 2170W        W61464  18.190   4.389  14.312
 2171W        W61465  17.179  39.890  13.443
 2172W        W61466  42.477   9.809   2.803
 2173W        W61467  41.878  30.162   1.783
 2174W        W61468   7.890   1.876  14.397
 2175W        W61469  25.085  38.029  12.428
 2176W        W61470  23.208  44.819  10.566
 2177W        W61471  33.990  23.984   1.297
 2178W        W61472  19.095  17.781  12.054
 2179W        W61473   1.974  16.285   0.737
 2180W        W61474  12.684  29.480   9.922
 2181W        W61475  18.781  12.253  12.475
 2182W        W61476  30.431  40.381  14.948
 2183W        W61477   1.747  23.183  13.918
 2184W        W61478  25.573  36.558  12.033
 2185W        W61479  16.274  34.052   1.296
 2186W        W61480  15.611  24.572   4.775
 2187W        W61481  26.539  40.498  13.990
 2188W        W61482  37.956  39.444  13.525
 2189W        W61483  22.030   1.780   1.901
 2190W        W61484  38.570   2.920  13.891
 2191W        W61485  16.149  44.490  14.821
 2192W        W61486   3.284  16.195   1.735
 2193W        W61487   6.823  40.897   2.314
 2194W        W61488   2.275  43.339  13.921
 2195W        W61489  19.283  18.086   3.157
 2196W        W61490   7.273   1.914   4.729
 2197W        W61491   1.385  39.008   4.312
 2198W        W61492  40.423  26.182   3.160
 2199W        W61493  16.271  10.284   9.452
 2200W        W61494  28.445   4.259   4.310
 2201W        W61495  38.427   5.361  10.984
 2202W        W61496  25.646  16.259  13.869
 2203W        W61497   6.224  42.384   3.832
 2204W        W61498   5.728  33.507  11.932
 2205W        W61499  22.151  16.274  13.837
 2206W        W61500  41.379  23.512  11.471
 2207W        W61501  31.401  27.456  10.553
 2208W        W61502  37.943  20.192  14.778
 2209W        W61503  18.719  31.087   3.828
 2210W        W61504  34.020  28.049   1.818
 2211W        W61505   1.814   4.373   3.241
 2212W        W61506   8.166  29.512   3.641
 2213W        W61507  24.072   5.309   4.236
 2214W        W61508  34.992  15.300   3.839
 2215W        W61509   6.711  41.998   0.466
 2216W        W61510  41.478  36.006   9.465
 2217W        W61511   8.381  36.879  14.410
 2218W        W61512  34.897  10.215   2.178
 2219W        W61513  14.619  29.160  14.355
 2220W        W61514  12.120  29.610  10.920
 2221W        W61515  33.983  37.027  11.530
 2222W        W61516   7.845  40.448  14.803
 2223W        W61517  22.695  30.632  14.480
 2224W        W61518  40.843   1.933  14.859
 2225W        W61519  20.678  42.336   3.863
 2226W        W61520   8.308   7.743  12.835
 2227W        W61521  25.084  32.468  13.536
 2228W        W61522  10.873  28.483  10.625
 2229W        W61523  12.854  38.568  13.984
 2230W        W61524  10.771  14.151   1.269
 2231W        W61525  40.516  27.017  14.395
 2232W        W61526  26.457  35.003  11.441
 2233W        W61527   4.391   0.843   3.651
 2234W        W61528  43.806   3.366  12.877
 2235W        W61529  37.933  15.320   4.834
 2236W        W61530  34.967  28.453  12.877
 2237W        W61531   8.724  10.221   0.924
 2238W        W61532  27.690   5.334   1.326
 2239W        W61533  22.194  22.564   1.779
 2240W        W61534  34.996  26.036  10.455
 2241W        W61535  11.278  30.425  10.095
 2242W        W61536  16.577  25.657  12.420
 2243W        W61537   0.383  11.774  11.410
 2244W        W61538   9.173   9.192  13.307
 2245W        W61539  41.399  20.674   1.399
 2246W        W61540  21.747  41.883  13.815
 2247W        W61541  13.732   2.762  14.496
 2248W        W61542   3.439  27.195   2.310
 2249W        W61543   5.701   8.344   1.426
 2250W        W61544  35.050  10.170   3.734
 2251W        W61545  23.996   0.948   4.240
 2252W        W61546  43.797  37.496   0.753
 2253W        W61547   0.858  14.196   1.744
 2254W        W61548  28.599  16.141   4.113
 2255W        W61549  31.500   7.208  12.912
 2256W        W61550  15.261  25.100  13.884
 2257W        W61551  39.551   0.257   2.725
 2258W        W61552  24.629  10.318   1.251
 2259W        W61553  19.071  34.034   4.277
 2260W        W61554   3.812  35.014   0.825
 2261W        W61555  38.366   1.874   4.727
 2262W        W61556  29.436   5.708  12.841
 2263W        W61557  20.229  18.148  13.951
 2264W        W61558  42.506  43.932   3.250
 2265W        W61559  21.188   7.335  14.913
 2266W        W61560  35.523  12.760  10.054
 2267W        W61561  40.043  43.998  12.366
 2268W        W61562   5.386  28.487  13.409
 2269W        W61563  24.099  17.656  11.952
 2270W        W61564  43.882  34.977  14.986
 2271W        W61565  15.754  21.021  13.051
 2272W        W61566  20.181  41.413   3.838
 2273W        W61567   2.853  16.667   1.379
 2274W        W61568   0.747  25.512   3.193
 2275W        W61569  40.528  23.521  14.991
 2276W        W61570  32.506  16.717   3.210
 2277W        W61571  17.229  23.107  11.046
 2278W        W61572  25.679  12.132   3.641
 2279W        W61573  26.081  13.131  11.542
 2280W        W61574  15.754  11.721   3.639
 2281W        W61575   7.325  31.415  13.013
 2282W        W61576  16.187  38.075  10.436
 2283W        W61577  21.261  35.548  11.069
 2284W        W61578   7.709  16.302  12.563
 2285W        W61579   5.264  31.087   2.886
 2286W        W61580  24.489  31.469  14.856
 2287W        W61581  38.504  36.408  14.473
 2288W        W61582  37.887  31.088   0.931
 2289W        W61583  35.366  36.427  13.490
 2290W        W61584  22.512  20.065   0.324
 2291W        W61585  34.396  29.612   1.927
 2292W        W61586  30.012  32.898  14.971
 2293W        W61587  17.127  44.851   4.650
 2294W        W61588  14.645   4.739   3.808
 2295W        W61589  17.249  33.580  10.994
 2296W        W61590  42.357  36.002   3.329
 2297W        W61591  35.896  39.540  14.364
 2298W        W61592  26.106  30.514  11.557
 2299W        W61593  30.460  40.506  14.279
 2300W        W61594  34.498   1.755   3.661
 2301W        W61595  36.047  30.547   1.315
 2302W        W61596  14.325   7.820  14.949
 2303W        W61597  18.261   4.929  12.557
 2304W        W61598  42.409  12.178   1.241
 2305W        W61599   6.749  36.963   1.242
 2306W        W61600  37.055  36.054  13.888
 2307W        W61601  31.043  12.664  13.358
 2308W        W61602  29.171  43.300   4.328
 2309W        W61603   5.823  12.312   2.276
 2310W        W61604  19.248  12.135   2.825
 2311W        W61605  15.226  18.689   2.233
 2312W        W61606   1.823  19.218   1.784
 2313W        W61607  11.821   8.213   4.821
 2314W        W61608  19.592  34.935  12.965
 2315W        W61609  15.756  44.908   1.289
 2316W        W61610  33.972  18.552   0.321
 2317W        W61611  39.496  13.801   4.275
 2318W        W61612  33.006  13.665   4.263
 2319W        W61613  39.502  21.168  13.869
 2320W        W61614  21.529  13.283   0.883
 2321W        W61615  22.521  37.521  10.577
 2322W        W61616  37.350  23.503   2.285
 2323W        W61617   9.272   1.867   4.113
 2324W        W61618  17.677  14.618   3.679
 2325W        W61619  22.745  24.686   2.214
 2326W        W61620  19.741  23.050   2.827
 2327W        W61621  33.957   2.404   2.769
 2328W        W61622  24.489  21.643  12.080
 2329W        W61623  10.757  27.598  14.307
 2330W        W61624  42.965  28.490   3.637
 2331W        W61625  36.446  24.519   0.931
 2332W        W61626  25.126  26.519   3.264
 2333W        W61627  10.861  35.958   0.743
 2334W        W61628   7.197  12.647   2.254
 2335W        W61629   7.225  26.639   5.153
 2336W        W61630  25.688   3.908  13.380
 2337W        W61631  18.688   1.817   2.825
 2338W        W61632   2.366  40.353   4.658
 2339W        W61633  32.539  24.101   4.239
 2340W        W61634  23.196  26.079  10.446
 2341W        W61635  20.259  16.621  10.641
 2342W        W61636   7.825  15.246   4.832
 2343W        W61637  32.627   4.308   2.722
 2344W        W61638  32.036  32.636  14.954
 2345W        W61639  18.271  30.946   3.361
 2346W        W61640  23.161  16.166  12.481
 2347W        W61641  36.067   8.397   1.367
 2348W        W61642  29.596  36.887   1.821
 2349W        W61643   0.462   1.418   2.207
 2350W        W61644  26.621  10.338   3.324
 2351W        W61645  33.463  35.026   2.791
 2352W        W61646  24.130  11.185  13.481
 2353W        W61647  43.845  19.656   3.362
 2354W        W61648   8.757  35.383  12.351
 2355W        W61649  25.714  17.070  13.413
 2356W        W61650  26.508   2.397  11.902
 2357W        W61651  34.430  40.030  11.607
 2358W        W61652  36.518   1.798   1.705
 2359W        W61653  43.429  18.172  14.828
 2360W        W61654  26.516  15.621  13.336
 2361W        W61655  10.191   1.460  13.919
 2362W        W61656  13.643  30.434   1.799
 2363W        W61657  44.419  10.845  14.986
 2364W        W61658  37.522   2.733  14.322
 2365W        W61659  19.233  21.605  11.467
 2366W        W61660  42.320   1.809  14.798
 2367W        W61661  37.973  36.467   2.193
 2368W        W61662  42.878  19.241  12.039
 2369W        W61663  26.076  11.306  11.597
 2370W        W61664  32.435  33.967   1.925
 2371W        W61665   3.794  28.571   4.714
 2372W        W61666  19.705  12.638   0.900
 2373W        W61667  42.025  19.255  14.812
 2374W        W61668  37.573   1.866   2.272
 2375W        W61669  31.110  27.625   3.253
 2376W        W61670   1.259  13.610  12.946
 2377W        W61671  33.122   0.829  13.426
 2378W        W61672  11.724  21.150  12.460
 2379W        W61673  41.518  32.436  11.971
 2380W        W61674  17.603  37.991  10.595
 2381W        W61675  35.987  34.094   0.309
 2382W        W61676  37.528  36.380  14.369
 2383W        W61677   4.396   2.819  14.920
 2384W        W61678   7.756  38.476  11.521
 2385W        W61679  43.403  36.018  12.565
 2386W        W61680   4.435  37.019  14.304
 2387W        W61681  37.556  10.292  12.997
 2388W        W61682  12.311  44.818  11.533
 2389W        W61683  41.871  31.147  13.056
 2390W        W61684  17.273   0.383   0.825
 2391W        W61685  12.800  41.454  12.880
 2392W        W61686  12.615  44.851   1.879
 2393W        W61687   4.303  33.909   0.867
 2394W        W61688  28.527  43.442  12.904
 2395W        W61689  38.964  43.864  10.448
 2396W        W61690  27.601  27.566  13.055
 2397W        W61691  17.268  39.560   0.316
 2398W        W61692  22.559  13.229   3.859
 2399W        W61693   1.242  26.023   4.690
 2400W        W61694  27.007   1.303   1.925
 2401W        W61695  40.033  37.518   3.247
 2402W        W61696  41.465  41.001   1.402
 2403W        W61697  41.451  24.148  13.516
 2404W        W61698  43.428   5.857  11.951
 2405W        W61699  26.971   3.382   0.472
 2406W        W61700  13.118  40.338  13.521
 2407W        W61701  36.559  33.567  12.444
 2408W        W61702  10.211  26.140  14.957
 2409W        W61703  43.370  23.690   2.836
 2410W        W61704  12.186  13.105  12.482
 2411W        W61705   4.923   4.784   0.403
 2412W        W61706   7.305  10.743   2.895
 2413W        W61707  10.294  37.998   3.374
 2414W        W61708  18.237  41.843   1.712
 2415W        W61709  36.929  25.688   1.827
 2416W        W61710   1.247  11.718  11.082
 2417W        W61711   3.260  23.167  12.405
 2418W        W61712  21.057  33.513   2.204
 2419W        W61713   0.409  19.051   1.255
 2420W        W61714   8.377  21.031  12.974
 2421W        W61715   0.853  36.966  14.300
 2422W        W61716  12.287  20.112   1.897
 2423W        W61717  21.036  15.087   0.356
 2424W        W61718  21.555  13.808  14.791
 2425W        W61719  15.312   6.265   2.678
 2426W        W61720  20.724  16.170  11.384
 2427W        W61721  37.844   2.929   0.259
 2428W        W61722  33.507   9.807   0.400
 2429W        W61723  39.952  44.815  13.483
 2430W        W61724  24.687  43.009  14.367
 2431W        W61725  30.952  27.468   4.756
 2432W        W61726  29.072  17.297   0.396
 2433W        W61727  20.226  12.362  12.096
 2434W        W61728  42.819   8.692  13.952
 2435W        W61729  19.091  35.000  12.847
 2436W        W61730  37.915  17.150   1.749
 2437W        W61731  36.505  30.104   1.824
 2438W        W61732  12.707  26.528  12.513
 2439W        W61733  26.078  32.975  11.399
 2440W        W61734  20.058   1.780   4.272
 2441W        W61735  12.321   5.193  13.419
 2442W        W61736   4.442   2.894   2.712
 2443W        W61737   5.832  42.502  12.501
 2444W        W61738   2.800   4.933  14.446
 2445W        W61739   3.393  29.109  12.379
 2446W        W61740   7.198  39.833   0.790
 2447W        W61741  36.066   9.149  12.563
 2448W        W61742  44.329  16.263   1.855
 2449W        W61743   5.740  14.633  11.924
 2450W        W61744  29.532  31.632  13.910
 2451W        W61745   0.315   0.960   3.855
 2452W        W61746  31.486   4.233  12.400
 2453W        W61747   8.668   7.717  14.900
 2454W        W61748   4.919  37.000  13.961
 2455W        W61749  31.548  39.440   4.698
 2456W        W61750  35.378   1.797   3.235
 2457W        W61751  36.920   5.199   0.321
 2458W        W61752  13.249  24.125   1.797
 2459W        W61753   3.942  44.391  13.537
 2460W        W61754   9.181  27.563  11.887
 2461W        W61755   2.864  10.684   4.818
 2462W        W61756  30.479  19.581  13.943
 2463W        W61757  14.264  27.113  12.864
 2464W        W61758  24.542  30.942   0.808
 2465W        W61759  34.553  14.189  11.453
 2466W        W61760   9.668  16.288   2.259
 2467W        W61761   6.358   2.386  13.456
 2468W        W61762   1.336  12.342  11.449
 2469W        W61763  39.830   0.428   4.229
 2470W        W61764   4.361   9.295   1.837
 2471W        W61765  39.432  21.621  11.498
 2472W        W61766  37.845  38.016  13.315
 2473W        W61767  35.402  32.902  10.969
 2474W        W61768   3.864  37.835  10.569
 2475W        W61769  19.071  31.538   4.269
 2476W        W61770  23.141  44.806  13.794
 2477W        W61771  43.471  14.743   3.871
 2478W        W61772  35.939   3.724   4.783
 2479W        W61773  25.021  11.688  12.884
 2480W        W61774  31.404  26.160  13.998
 2481W        W61775  29.075  36.886   4.205
 2482W        W61776  37.874   3.323  10.603
 2483W        W61777  29.478  36.061   2.198
 2484W        W61778   6.711  24.694   1.729
 2485W        W61779   5.377   8.317   2.286
 2486W        W61780  25.585   3.878   0.782
 2487W        W61781  42.028  29.170   3.692
 2488W        W61782   4.733  21.030   3.303
 2489W        W61783  40.868  11.623   2.190
 2490W        W61784  32.026  25.641   5.203
 2491W        W61785   4.357  40.419  11.466
 2492W        W61786   2.229  32.610   4.326
 2493W        W61787   6.394  21.051  12.862
 2494W        W61788   3.857  21.240   2.889
 2495W        W61789  18.092  29.479   0.936
 2496W        W61790  19.116  42.813  13.047
 2497W        W61791   1.748   2.892   1.415
 2498W        W61792   7.358  43.869  13.433
 2499W        W61793   6.758  29.990  14.994
 2500W        W61794   8.780  24.485   3.806
 2501W        W61795  28.122   2.802   0.927
 2502W        W61796  30.606  37.995  14.954
 2503W        W61797   4.248  22.694  12.930
 2504W        W61798  22.143  19.069   2.819
 2505W        W61799  38.455  30.523  11.992
 2506W        W61800  25.095   7.739  11.983
 2507W        W61801  10.826  39.366   4.745
 2508W        W61802  16.627  21.639   0.452
 2509W        W61803  34.539  28.621  14.508
 2510W        W61804   3.900  43.277   4.677
 2511W        W61805   6.299  27.543   2.744
 2512W        W61806  43.852   8.202  14.354
 2513W        W61807   3.328  10.253   4.601
 2514W        W61808  36.903  16.679   1.842
 2515W        W61809  39.830  36.853  11.046
 2516W        W61810  39.403   8.190  12.857
 2517W        W61811  25.120  28.625  13.519
 2518W        W61812  19.056  44.437  11.082
 2519W        W61813  23.178  18.230   1.888
 2520W        W61814  25.122  16.634   3.162
 2521W        W61815  26.093   7.183  11.428
 2522W        W61816  38.841  34.543   1.756
 2523W        W61817  43.994  23.021   1.779
 2524W        W61818  14.661  20.135   1.339
 2525W        W61819  19.651  29.058   4.153
 2526W        W61820   7.286  14.291   1.791
 2527W        W61821   0.465   3.929   1.885
 2528W        W61822  16.725  23.242   9.522
 2529W        W61823  33.998  32.076   1.925
 2530W        W61824  33.538  18.664  12.511
 2531W        W61825   2.820   2.335  13.460
 2532W        W61826  38.057  18.200  12.920
 2533W        W61827  30.552  13.820  13.372
 2534W        W61828  16.599   0.959  12.402
 2535W        W61829   4.383  22.033  14.977
 2536W        W61830   2.301  37.005  12.539
 2537W        W61831  12.644  21.632   4.776
 2538W        W61832  11.300  17.566  12.985
 2539W        W61833  31.060  29.964  13.317
 2540W        W61834  36.982  31.073  11.049
 2541W        W61835  28.655  27.179   0.454
 2542W        W61836  26.988  34.997   1.766
 2543W        W61837  26.042  33.507  12.002
 2544W        W61838  30.628  16.302  10.546
 2545W        W61839  44.410   5.764  13.475
 2546W        W61840  27.453   1.941   2.750
 2547W        W61841  43.375  18.551   3.634
 2548W        W61842  39.049   3.322   1.340
 2549W        W61843   1.880  27.619   1.250
 2550W        W61844  30.543  22.717   1.392
 2551W        W61845   7.665  35.913   1.368
 2552W        W61846  43.868   2.238   4.127
 2553W        W61847  16.645  33.052  13.831
 2554W        W61848  14.712  22.198  14.949
 2555W        W61849   6.232  37.375  12.429
 2556W        W61850  36.426  14.781   1.906
 2557W        W61851  19.155   0.494   0.317
 2558W        W61852  31.469  16.272  13.325
 2559W        W61853  25.975   4.831  12.847
 2560W        W61854  28.159   9.722  13.060
 2561W        W61855  40.377  28.991  10.430
 2562W        W61856  20.051  32.392   0.482
 2563W        W61857  31.065  30.418   2.201
 2564W        W61858  35.896  30.512  13.442
 2565W        W61859  36.997  21.243   9.951
 2566W        W61860  34.430  26.086   0.856
 2567W        W61861  33.107  20.125   3.839
 2568W        W61862  42.430  30.508  13.505
 2569W        W61863  16.154  36.960   1.364
 2570W        W61864  37.455  15.812  10.949
 2571W        W61865  30.042  21.600  11.584
 2572W        W61866  34.463  25.494   0.772
 2573W        W61867   3.952  39.868   9.932
 2574W        W61868   8.659  39.317   4.789
 2575W        W61869  39.970  10.355   4.285
 2576W        W61870  28.563  40.033   2.279
 2577W        W61871  41.993  34.568   2.752
 2578W        W61872  10.256  29.606  11.930
 2579W        W61873  21.216   7.861   3.166
 2580W        W61874  40.548  13.637  13.995
 2581W        W61875   4.362  22.114  10.589
 2582W        W61876  16.645  44.315  14.378
 2583W        W61877  21.654  23.534   1.866
 2584W        W61878  28.934  16.779  12.019
 2585W        W61879  18.563  28.944   0.811
 2586W        W61880  20.046  43.501   4.689
 2587W        W61881  44.877  16.698   0.433
 2588W        W61882  37.466  25.072   2.362
 2589W        W61883  31.979  44.932   2.285
 2590W        W61884  11.372   8.845   1.917
 2591W        W61885  30.971   6.277   0.269
 2592W        W61886  26.195  39.956  12.347
 2593W        W61887   5.767  11.792   1.922
 2594W        W61888  33.876  41.953  13.335
 2595W        W61889  20.136  13.337   3.181
 2596W        W61890  32.118  40.966  12.019
 2597W        W61891  29.072  40.833   3.374
 2598W        W61892  24.569   5.688   0.800
 2599W        W61893  34.554  30.103   3.862
 2600W        W61894  37.838   8.826  14.494
 2601W        W61895   3.711  17.174   4.646
 2602W        W61896   4.447  30.540   3.805
 2603W        W61897  19.197  28.988   3.286
 2604W        W61898  30.606  43.990   1.761
 2605W        W61899  16.661   5.835   4.765
 2606W        W61900   4.843  11.135  13.459
 2607W        W61901  32.621  15.585  14.861
 2608W        W61902   7.187  22.641  13.929
 2609W        W61903  27.034  39.925  12.459
 2610W        W61904  39.011  13.294  13.898
 2611W        W61905  13.238  18.639   1.414
 2612W        W61906   0.748  18.223   4.246
 2613W        W61907  26.070  41.473  14.831
 2614W        W61908  15.739  19.187  10.892
 2615W        W61909   0.841  27.990   4.157
 2616W        W61910  15.591  19.662   0.359
 2617W        W61911   8.234  11.331  11.539
 2618W        W61912   3.908   3.250   3.360
 2619W        W61913  16.210  16.212  12.568
 2620W        W61914   7.911  41.331  11.601
 2621W        W61915  30.572  27.564  14.955
 2622W        W61916  11.723  24.981   3.302
 2623W        W61917  28.438  32.937   4.343
 2624W        W61918  44.460  44.321   4.766
 2625W        W61919  25.157   4.393  10.598
 2626W        W61920  33.471  10.232   4.760
 2627W        W61921   8.817  34.898   1.222
 2628W        W61922  33.563  34.566  11.915
 2629W        W61923  34.372  37.043   4.675
 2630W        W61924  42.782   7.686   3.667
 2631W        W61925   3.830  43.833  13.477
 2632W        W61926  32.135  35.033  11.435
 2633W        W61927  10.643   5.765   0.288
 2634W        W61928  35.560  22.510   3.856
 2635W        W61929  28.989   0.346   4.165
 2636W        W61930  11.653  31.642   3.333
 2637W        W61931   4.399  13.210   2.232
 2638W        W61932  41.510  42.524  11.488
 2639W        W61933   8.860  34.493   2.849
 2640W        W61934  41.320   5.369   1.449
 2641W        W61935  37.037  13.713   2.354
 2642W        W61936  15.208  30.484  14.958
 2643W        W61937  11.313   5.387   1.783
 2644W        W61938  12.817  30.125  14.913
 2645W        W61939  26.186  16.185   0.804
 2646W        W61940  21.563  40.465   4.806
 2647W        W61941   4.339  38.429   2.711
 2648W        W61942  28.582  28.131  13.884
 2649W        W61943  13.160  44.948  11.041
 2650W        W61944  25.486   3.263   4.749
 2651W        W61945   0.828  16.195   4.301
 2652W        W61946  30.012   1.812   2.312
 2653W        W61947   9.150  19.054   3.761
 2654W        W61948   8.167  29.149   1.758
 2655W        W61949  15.625  36.903   3.835
 2656W        W61950  43.768  20.686   4.678
 2657W        W61951  23.156  32.578   0.920
 2658W        W61952  39.460  27.943   1.318
 2659W        W61953  19.774  39.972   1.889
 2660W        W61954   5.415  18.178   0.333
 2661W        W61955  35.929  12.711  11.418
 2662W        W61956  35.039   6.199   1.424
 2663W        W61957  34.975   3.833  11.486
 2664W        W61958  28.044   1.321   2.717
 2665W        W61959   6.295  31.943   1.409
 2666W        W61960  41.849   4.908  12.462
 2667W        W61961  27.079  24.539  13.029
 2668W        W61962  28.494  23.701   3.683
 2669W        W61963  35.953  14.235  14.477
 2670W        W61964  37.380  28.053   4.653
 2671W        W61965   4.942  43.013  10.490
 2672W        W61966  30.489   6.271  10.412
 2673W        W61967  36.851  38.007  11.585
 2674W        W61968  41.325  44.271  10.926
 2675W        W61969  12.259  23.573   3.663
 2676W        W61970  26.056  15.172   4.142
 2677W        W61971  12.349  18.250   0.887
 2678W        W61972  40.818  40.396  12.988
 2679W        W61973  36.911   2.463   1.897
 2680W        W61974  10.829  15.806  12.520
 2681W        W61975  32.010   5.689   1.815
 2682W        W61976   2.371  23.048   0.869
 2683W        W61977   7.900  18.559  13.048
 2684W        W61978  37.505  36.385  13.913
 2685W        W61979  41.462   5.284   4.763
 2686W        W61980  36.009  40.469  14.331
 2687W        W61981  26.573  43.808  12.007
 2688W        W61982  20.219  19.546  12.498
 2689W        W61983   4.764  17.176  14.484
 2690W        W61984  34.114  44.413  13.363
 2691W        W61985  19.144   8.875   3.236
 2692W        W61986  12.308  32.051   9.441
 2693W        W61987  13.721  24.583  13.490
 2694W        W61988  24.700  22.539   1.710
 2695W        W61989  26.071  34.466  11.535
 2696W        W61990  24.190  42.524   3.671
 2697W        W61991  43.473  10.211   3.244
 2698W        W61992  34.040  10.671  11.571
 2699W        W61993  28.608   6.824  12.341
 2700W        W61994  30.019   9.307  12.429
 2701W        W61995   3.859  17.222   0.276
 2702W        W61996  26.169  39.396   1.927
 2703W        W61997  39.506  29.922  10.557
 2704W        W61998   6.369   6.289   3.733
 2705W        W61999  39.815  23.171   0.926
 2706W        W62000  31.029  17.662   3.693
 2707W        W62001   0.905  37.048   4.686
 2708W        W62002  44.454   2.744   1.451
 2709W        W62003   8.185  13.168  11.530
 2710W        W62004  24.102   4.812  14.327
 2711W        W62005   8.709  20.552   1.744
 2712W        W62006   5.299  28.966   1.344
 2713W        W62007  32.948  43.952   4.744
 2714W        W62008   8.691  29.045   4.688
 2715W        W62009  31.110  20.194  14.910
 2716W        W62010  32.062  44.888  12.575
 2717W        W62011  32.094   4.886  14.820
 2718W        W62012  29.043  41.884  13.009
 2719W        W62013   7.382  25.109  11.025
 2720W        W62014   0.285  11.653  11.030
 2721W        W62015  17.241   2.385  12.419
 2722W        W62016  23.595  44.765  11.576
 2723W        W62017   9.726  36.449   0.780
 2724W        W62018  13.660  37.430   3.853
 2725W        W62019  20.761   8.729  13.827
 2726W        W62020  23.020  30.011   1.238
 2727W        W62021  38.957   6.873  14.765
 2728W        W62022   5.230  13.206  12.529
 2729W        W62023  35.457  16.638   1.858
 2730W        W62024  31.086   2.469   4.684
 2731W        W62025   2.288   4.346  13.823
 2732W        W62026  10.180  16.309  13.874
 2733W        W62027   2.722  44.361   4.135
 2734W        W62028  23.629  10.228  14.011
 2735W        W62029  37.886  30.079   1.834
 2736W        W62030   9.706   1.941   4.302
 2737W        W62031  27.179  36.046  10.594
 2738W        W62032   2.950  25.584  13.905
 2739W        W62033  35.416  13.712   4.223
 2740W        W62034   5.864  17.610   2.741
 2741W        W62035   8.834  35.376  13.918
 2742W        W62036   4.708   7.748  11.021
 2743W        W62037  26.483  38.986   2.735
 2744W        W62038  19.577  10.765  12.579
 2745W        W62039  33.035   6.248   0.840
 2746W        W62040  22.724  18.653  13.525
 2747W        W62041  31.062  10.200  14.858
 2748W        W62042  39.480  12.202   2.897
 2749W        W62043  15.183   5.255  13.963
 2750W        W62044  29.136   5.856  11.529
 2751W        W62045   9.155  22.172   3.147
 2752W        W62046   8.282   1.821   2.677
 2753W        W62047   6.795  34.083   3.806
 2754W        W62048  40.950   2.836   4.298
 2755W        W62049  38.937  12.179   1.794
 2756W        W62050   1.896  24.980  13.892
 2757W        W62051  38.832  37.450   3.275
 2758W        W62052   9.393  32.965  13.456
 2759W        W62053  44.934  34.945   4.793
 2760W        W62054   7.197  24.001  10.053
 2761W        W62055  20.613  33.916  13.517
 2762W        W62056  21.669   8.843   3.794
 2763W        W62057   6.919  26.050  12.943
 2764W        W62058  21.693  44.955  11.478
 2765W        W62059  10.283  16.716   2.707
 2766W        W62060   0.474  15.667  12.913
 2767W        W62061  27.156  30.658  11.022
 2768W        W62062  28.461  40.896   0.862
 2769W        W62063  21.708   9.388  12.066
 2770W        W62064  24.531  19.066  12.823
 2771W        W62065  42.428  21.127   0.288
 2772W        W62066  26.069  39.919   1.330
 2773W        W62067  41.007   5.718   1.920
 2774W        W62068  32.424  27.659   4.141
 2775W        W62069   2.440  15.223  13.475
 2776W        W62070  22.084  39.383  10.528
 2777W        W62071  36.887  43.508   4.117
 2778W        W62072  23.155  14.264  11.938
 2779W        W62073  33.046  32.941  11.100
 2780W        W62074  40.008  33.605  13.966
 2781W        W62075  38.994   1.460   0.949
 2782W        W62076   2.294  30.062  11.608
 2783W        W62077  13.628  10.229   3.762
 2784W        W62078  39.926  31.451  11.906
 2785W        W62079  37.910  31.466   3.163
 2786W        W62080   7.378  21.068   0.483
 2787W        W62081   8.851  40.912  11.004
 2788W        W62082  44.416  34.607  14.422
 2789W        W62083  21.255  30.482  13.394
 2790W        W62084  29.438  24.984   4.786
 2791W        W62085  31.110  21.232  13.331
 2792W        W62086  27.486   7.780   0.924
 2793W        W62087  42.857  12.677  12.964
 2794W        W62088   1.752   0.417  11.008
 2795W        W62089  40.967  25.189   3.273
 2796W        W62090  16.235  21.662  13.944
 2797W        W62091   9.711  33.961  13.399
 2798W        W62092  29.949  14.738  10.519
 2799W        W62093  15.738  44.811  11.607
 2800W        W62094  12.787  30.533  13.835
 2801W        W62095  17.766   2.288  12.920
 2802W        W62096  43.886  35.091  11.376
 2803W        W62097   5.223   7.733  10.638
 2804W        W62098   5.700  30.561   0.773
 2805W        W62099   0.413  13.774  12.063
 2806W        W62100  24.024   4.408   0.422
 2807W        W62101  19.746   8.379  14.944
 2808W        W62102  16.250  11.362   0.470
 2809W        W62103  16.115  10.349   0.890
 2810W        W62104   4.260   1.894  11.405
 2811W        W62105   9.712   0.250   1.302
 2812W        W62106  37.000  16.164  14.002
 2813W        W62107  30.509  33.008  12.990
 2814W        W62108   6.806  12.771  12.832
 2815W        W62109  15.320  14.833  13.836
 2816W        W62110  11.188  21.260   2.679
 2817W        W62111  36.473  25.562  13.971
 2818W        W62112  11.833  19.057   0.294
 2819W        W62113  31.516  19.615  12.476
 2820W        W62114  23.699  14.290   1.236
 2821W        W62115  26.032   1.785   1.344
 2822W        W62116  27.642  18.706  13.985
 2823W        W62117   5.699   0.924   0.828
 2824W        W62118  40.008  15.136  10.551
 2825W        W62119  29.490  37.939  14.413
 2826W        W62120   9.229  29.437   0.342
 2827W        W62121  31.533   0.485  14.400
 2828W        W62122   7.743  16.706   2.248
 2829W        W62123  28.512   3.932   3.786
 2830W        W62124  21.549  32.091  12.021
 2831W        W62125   9.150  20.193   0.809
 2832W        W62126  39.459   6.343   2.805
 2833W        W62127   9.186  15.821   2.204
 2834W        W62128  26.121  33.533  10.903
 2835W        W62129  39.342  14.119   1.392
 2836W        W62130  31.458  33.941  10.499
 2837W        W62131   9.862  42.803  12.558
 2838W        W62132  27.960   7.219  13.948
 2839W        W62133  27.662  36.444  12.932
 2840W        W62134  15.096   7.849  14.429
 2841W        W62135  43.964  39.909  12.887
 2842W        W62136  23.205   5.888   0.937
 2843W        W62137   9.742  29.172  12.532
 2844W        W62138   3.895  24.525  10.528
 2845W        W62139  15.119  24.607  14.854
 2846W        W62140  10.165  13.249  10.944
 2847W        W62141  37.397  40.449   1.748
 2848W        W62142  32.427  23.113  14.777
 2849W        W62143  37.376  20.207   2.332
 2850W        W62144  33.389  18.622   2.311
 2851W        W62145  14.328   2.447  13.396
 2852W        W62146  27.632  13.771  14.861
 2853W        W62147   2.242  27.609   2.276
 2854W        W62148  27.099  14.675  11.924
 2855W        W62149   3.258  35.029  12.487
 2856W        W62150  34.452   8.257  14.989
 2857W        W62151  36.357   5.888  12.019
 2858W        W62152  27.465  44.327   0.808
 2859W        W62153   7.176  33.526   4.276
 2860W        W62154  28.981  35.976  12.417
 2861W        W62155  27.535  18.743   0.262
 2862W        W62156   9.792  13.348   0.733
 2863W        W62157  20.105  10.635   2.872
 2864W        W62158  35.898  21.103   4.258
 2865W        W62159  21.132  13.637  14.298
 2866W        W62160   2.959  40.965   3.172
 2867W        W62161  33.888  20.670   0.423
 2868W        W62162  40.466   3.333   3.359
 2869W        W62163  32.995  41.803   3.732
 2870W        W62164   7.757  41.434   4.129
 2871W        W62165   8.680  34.926   9.980
 2872W        W62166   8.733  39.846  14.778
 2873W        W62167  44.854   8.241  10.558
 2874W        W62168  22.513  42.015   0.792
 2875W        W62169  17.171  18.684   2.816
 2876W        W62170  26.202  25.562  13.356
 2877W        W62171  12.303  15.787  11.045
 2878W        W62172  22.676  26.685  14.953
 2879W        W62173  16.597  22.717  14.357
 2880W        W62174  10.338   7.351  11.064
 2881W        W62175  35.908  10.292   1.280
 2882W        W62176  22.013  32.461   2.884
 2883W        W62177  39.536  17.181  11.958
 2884W        W62178  26.655  13.278  14.278
 2885W        W62179  23.076   1.279   4.136
 2886W        W62180  16.672   9.815   0.765
 2887W        W62181  38.932  22.523  10.000
 2888W        W62182  21.206  17.153   4.257
 2889W        W62183  42.793  42.465   1.916
 2890W        W62184  21.718   8.167  10.970
 2891W        W62185  34.520  40.894   4.632
 2892W        W62186   2.339  41.313  11.536
 2893W        W62187   7.365  38.529   0.967
 2894W        W62188   3.430  34.582   0.774
 2895W        W62189  33.018  15.099  11.570
 2896W        W62190  18.249  32.535   1.348
 2897W        W62191  44.417   8.339  14.341
 2898W        W62192  34.028  27.017   2.734
 2899W        W62193  23.128  21.570  11.579
 2900W        W62194  38.501  18.081  13.507
 2901W        W62195  40.815   9.821  11.081
 2902W        W62196   2.354  28.021  11.094
 2903W        W62197  42.994  35.961  11.978
 2904W        W62198   9.304  23.584   2.841
 2905W        W62199  32.617  26.602   1.877
 2906W        W62200  25.521  41.037  14.924
 2907W        W62201  38.509  44.376   4.325
 2908W        W62202  38.030  41.001   2.394
 2909W        W62203   2.743  21.263   2.369
 2910W        W62204  31.955  15.261   2.199
 2911W        W62205  19.713  41.036   1.913
 2912W        W62206  31.470  23.598  13.467
 2913W        W62207   1.360   8.677   1.283
 2914W        W62208   5.915  44.754   2.353
 2915W        W62209  38.379   0.912   0.243
 2916W        W62210  14.818  31.499   2.341
 2917W        W62211  44.969  34.372  13.321
 2918W        W62212  13.825  44.880   3.240
 2919W        W62213   6.850   4.818  11.972
 2920W        W62214  33.905  38.490  12.504
 2921W        W62215   7.807   7.297  13.893
 2922W        W62216  43.781  37.949  12.021
 2923W        W62217  25.978  10.741   2.704
 2924W        W62218  16.749  25.976   2.409
 2925W        W62219  12.339  19.589   0.404
 2926W        W62220   7.226  25.169  13.326
 2927W        W62221  30.578  26.200  11.534
 2928W        W62222  31.920  19.209   4.685
 2929W        W62223  11.862  11.648   2.734
 2930W        W62224  21.612  33.877   2.323
 2931W        W62225  43.970  26.200  13.022
 2932W        W62226  27.107  32.447  11.039
 2933W        W62227  32.892  36.438  13.943
 2934W        W62228   3.746  27.670   4.284
 2935W        W62229  41.511  27.137   4.702
 2936W        W62230   7.667  19.078   2.347
 2937W        W62231  35.094   3.722  12.923
 2938W        W62232   8.836  19.124   1.709
 2939W        W62233   7.247  21.629  13.843
 2940W        W62234  14.225  40.991   0.771
 2941W        W62235   3.905  11.643  10.008
 2942W        W62236  25.642  43.475  14.984
 2943W        W62237  12.786  43.930   2.235
 2944W        W62238   4.852  32.054   1.861
 2945W        W62239  29.551  12.682   1.307
 2946W        W62240  44.900  12.339  13.040
 2947W        W62241   3.788   5.243  14.975
 2948W        W62242  42.817  29.961   4.129
 2949W        W62243  35.078   2.451   0.370
 2950W        W62244  10.769  33.557  11.019
 2951W        W62245  15.222  36.577   4.215
 2952W        W62246  42.833  32.015   1.233
 2953W        W62247  13.251  19.193  14.507
 2954W        W62248  41.363  10.222   3.702
 2955W        W62249  34.949  20.045  11.034
 2956W        W62250  26.624  32.406  12.556
 2957W        W62251  13.326  11.680   4.295
 2958W        W62252  18.570  22.585  12.053
 2959W        W62253   5.914  23.496  10.487
 2960W        W62254  41.317  24.699   2.702
 2961W        W62255   8.778  16.741   1.420
 2962W        W62256   8.402  10.327   2.292
 2963W        W62257   8.729  17.710  13.532
 2964W        W62258  18.111   3.325  12.375
 2965W        W62259  44.302  30.501  13.524
 2966W        W62260  15.680   5.337  11.410
 2967W        W62261  21.228  19.544   3.280
 2968W        W62262  10.802   8.824   1.423
 2969W        W62263  24.976   8.200   2.709
 2970W        W62264  30.083  18.730   1.440
 2971W        W62265  26.648  37.897   1.243
 2972W        W62266  41.388  23.498  13.437
 2973W        W62267  19.126  27.005  11.588
 2974W        W62268  18.769  10.754   0.855
 2975W        W62269   7.788  29.643   0.462
 2976W        W62270  10.361  12.624   3.759
 2977W        W62271   9.712  31.001  14.975
 2978W        W62272  17.735  29.560   3.312
 2979W        W62273  12.766   3.935  14.972
 2980W        W62274  13.200  29.143   1.823
 2981W        W62275  16.107  17.187   1.748
 2982W        W62276   7.822  30.001   1.364
 2983W        W62277  40.887  28.678   3.334
 2984W        W62278  39.949  25.632  11.387
 2985W        W62279  34.553  35.924   4.725
 2986W        W62280  36.061  32.472  14.791
 2987W        W62281  14.612  17.756   2.244
 2988W        W62282   3.931  30.087  11.921
 2989W        W62283  31.568  40.434   3.685
 2990W        W62284  36.435  26.685  11.859
 2991W        W62285  36.019  41.951   4.329
 2992W        W62286  17.630  36.464  14.947
 2993W        W62287   3.416  37.407  10.585
 2994W        W62288  19.186  34.438   1.391
 2995W        W62289  12.267  14.774   2.806
 2996W        W62290  31.926  10.380  13.947
 2997W        W62291  35.439  43.505  12.001
 2998W        W62292  29.149  35.532   2.224
 2999W        W62293  35.357  16.252   2.319
 3000W        W62294  33.563  10.262   4.246
 3001W        W62295  12.730  10.721  10.455
 3002W        W62296   7.372  20.758  13.990
 3003W        W62297  33.590  21.637  14.922
 3004W        W62298  31.570  30.420  14.419
 3005W        W62299  34.377  40.492  13.061
 3006W        W62300  18.556  44.841   1.300
 3007W        W62301  15.797  35.519   1.237
 3008W        W62302  27.168  38.472  13.950
 3009W        W62303  33.988  16.306  11.472
 3010W        W62304   7.208  29.135   1.262
 3011W        W62305  23.198  11.295  12.959
 3012W        W62306  16.166  17.257   4.643
 3013W        W62307   4.775  11.866   1.783
 3014W        W62308  20.683  37.879  11.111
 3015W        W62309  34.442  20.717   3.662
 3016W        W62310   0.451  14.256  14.799
 3017W        W62311  20.650  33.955  10.413
 3018W        W62312  44.356  44.279  10.156
 3019W        W62313  17.753   9.818  12.070
 3020W        W62314   9.732  24.165   1.874
 3021W        W62315  32.956  40.390   4.699
 3022W        W62316  15.096   8.181   1.917
 3023W        W62317  34.947  34.000   2.289
 3024W        W62318   0.823  12.836   1.885
 3025W        W62319  33.942  20.538   3.696
 3026W        W62320  33.009  14.691  12.526
 3027W        W62321   6.263  14.178   5.311
 3028W        W62322  12.754   5.823   2.761
 3029W        W62323  12.613  26.666  13.955
 3030W        W62324  41.904   0.250  14.281
 3031W        W62325  36.091   6.191   1.437
 3032W        W62326  41.440  10.745   3.161
 3033W        W62327   8.171   6.377   3.666
 3034W        W62328  37.927  35.999  13.061
 3035W        W62329  22.551  43.839   4.635
 3036W        W62330  11.813  11.248   0.247
 3037W        W62331  39.952  38.434  12.392
 3038W        W62332  13.282   4.271   1.250
 3039W        W62333  35.003  18.716   4.838
 3040W        W62334  39.528  42.412  14.421
 3041W        W62335  36.570  11.367   1.887
 3042W        W62336   8.684  26.619  14.442
 3043W        W62337  34.490   5.322  12.554
 3044W        W62338  13.655  22.728  14.773
 3045W        W62339  42.459  21.617   4.742
 3046W        W62340  36.402  23.056  10.550
 3047W        W62341  42.836  33.568   1.822
 3048W        W62342  37.578  10.343   3.708
 3049W        W62343  32.086  14.313  11.026
 3050W        W62344   4.442  23.519  11.478
 3051W        W62345  29.165  42.389   1.365
 3052W        W62346  41.317   3.794   5.137
 3053W        W62347  44.768  26.075   1.331
 3054W        W62348  20.669  10.356   1.932
 3055W        W62349  19.167  36.006  10.969
 3056W        W62350  14.626  14.142  11.398
 3057W        W62351  42.355  18.759  14.936
 3058W        W62352  28.174  28.130   0.737
 3059W        W62353   7.912  17.170   1.744
 3060W        W62354   5.291  30.939  11.436
 3061W        W62355  37.059  20.694   2.380
 3062W        W62356   3.761   7.877   2.668
 3063W        W62357  34.379  33.454  11.934
 3064W        W62358  27.538  16.140   4.336
 3065W        W62359  12.298   1.434   1.418
 3066W        W62360   9.841  31.068   4.136
 3067W        W62361   1.314  30.535   4.347
 3068W        W62362  39.541   3.315  14.459
 3069W        W62363  32.448  41.892   2.719
 3070W        W62364  44.408  33.116  14.346
 3071W        W62365   7.193  20.526  14.278
 3072W        W62366   9.845  19.234   4.302
 3073W        W62367  17.775  20.694   0.452
 3074W        W62368  35.391  37.834  14.323
 3075W        W62369  11.851  34.482  13.410
 3076W        W62370  29.100  26.143   0.326
 3077W        W62371   2.738   0.401  14.456
 3078W        W62372  12.731  43.906  12.461
 3079W        W62373  25.118  16.698  12.491
 3080W        W62374  41.332  23.513  14.904
 3081W        W62375  20.234  43.784  10.442
 3082W        W62376  19.680  34.576  14.957
 3083W        W62377  33.436  35.083  10.902
 3084W        W62378  37.888  23.634   3.324
 3085W        W62379  33.963  29.986   3.325
 3086W        W62380  14.657  20.752  12.493
 3087W        W62381  30.009  24.515  11.450
 3088W        W62382   1.420  11.746  14.922
 3089W        W62383  36.842  17.093   4.255
 3090W        W62384  24.510   9.819   2.367
 3091W        W62385  38.916  40.840  11.855
 3092W        W62386  10.255  40.476  12.413
 3093W        W62387  19.759  12.219   4.832
 3094W        W62388   2.273  23.576   4.634
 3095W        W62389  41.488  11.221  11.110
 3096W        W62390  37.997  17.145  11.008
 3097W        W62391  29.437  43.392  10.600
 3098W        W62392  39.036   8.867   3.749
 3099W        W62393  38.005  42.818   4.299
 3100W        W62394  29.436  35.912   0.415
 3101W        W62395  19.628  19.149  14.910
 3102W        W62396  20.536  21.186  10.036
 3103W        W62397  31.102  14.643  12.349
 3104W        W62398  17.637  38.020   4.813
 3105W        W62399  30.013  23.187  14.355
 3106W        W62400  32.909  38.899  14.513
 3107W        W62401  32.472  21.750   1.732
 3108W        W62402  39.984  17.277   2.690
 3109W        W62403  36.526  15.782  14.464
 3110W        W62404  33.018  36.957   4.326
 3111W        W62405   0.283  27.677  11.466
 3112W        W62406  17.715   5.843   0.926
 3113W        W62407  13.239  32.033   4.661
 3114W        W62408  24.664  37.520  10.451
 3115W        W62409  30.082  40.000   2.863
 3116W        W62410   0.451  22.637   2.767
 3117W        W62411  17.648  34.056  11.594
 3118W        W62412  21.100  27.022   0.955
 3119W        W62413  10.182  35.393   4.796
 3120W        W62414  44.285  42.351  14.369
 3121W        W62415  11.367  11.733  10.480
 3122W        W62416  36.380  35.574  12.472
 3123W        W62417   8.774  23.685   0.298
 3124W        W62418  22.713  18.650  14.383
 3125W        W62419  23.697  16.111  12.417
 3126W        W62420  17.133  31.560  14.497
 3127W        W62421  23.016  20.700   2.311
 3128W        W62422  33.092  17.730   2.276
 3129W        W62423  21.029  32.134  10.969
 3130W        W62424  17.216  36.404  11.399
 3131W        W62425  38.935  37.410  13.877
 3132W        W62426   9.684  15.818   1.224
 3133W        W62427  12.158  43.856   0.331
 3134W        W62428   5.851  18.630  12.089
 3135W        W62429   3.758  14.753  13.820
 3136W        W62430  20.243  20.199   0.439
 3137W        W62431  39.353  36.401   0.291
 3138W        W62432  11.151   5.694  11.100
 3139W        W62433  38.971  20.548   1.898
 3140W        W62434   0.813  15.147  12.948
 3141W        W62435   9.652  13.764   3.324
 3142W        W62436  10.331  10.240  12.855
 3143W        W62437  11.288  26.053   0.895
 3144W        W62438  25.167  21.746   5.258
 3145W        W62439  29.537   7.255  13.936
 3146W        W62440   0.456  29.565  14.006
 3147W        W62441  28.977  15.096   2.382
 3148W        W62442  22.564   6.183  10.888
 3149W        W62443  19.652  21.138   3.290
 3150W        W62444  33.053  22.592  10.439
 3151W        W62445  40.860   7.804  14.319
 3152W        W62446  12.348  23.654  13.894
 3153W        W62447   5.723  18.164  11.893
 3154W        W62448  16.580  42.295  13.391
 3155W        W62449  24.027  11.174   1.902
 3156W        W62450   5.311  22.245  14.917
 3157W        W62451  22.085  35.960   2.802
 3158W        W62452  43.370  42.437   0.407
 3159W        W62453  24.697   5.231   4.239
 3160W        W62454   7.220  38.868  11.895
 3161W        W62455   4.713  25.013   1.709
 3162W        W62456  10.858   3.354  14.382
 3163W        W62457  39.065  18.080   1.773
 3164W        W62458   4.776  33.477  12.498
 3165W        W62459  22.067  11.219  14.020
 3166W        W62460  18.567   8.332   4.171
 3167W        W62461   8.312  29.003  14.871
 3168W        W62462  24.974  17.107   2.865
 3169W        W62463  16.582   1.344  14.792
 3170W        W62464  18.756  20.221   2.328
 3171W        W62465  44.294  14.252  14.441
 3172W        W62466  12.716  33.935  14.827
 3173W        W62467  35.921  33.897  14.973
 3174W        W62468  10.328  34.962   1.294
 3175W        W62469  32.473  32.922  10.487
 3176W        W62470  16.315  41.293  13.910
 3177W        W62471  20.692  37.427   3.639
 3178W        W62472   2.464  23.050   4.620
 3179W        W62473  36.005  39.375  13.966
 3180W        W62474  14.796  26.492  13.843
 3181W        W62475  31.450  41.935   3.337
 3182W        W62476  16.298  28.111  14.453
 3183W        W62477  12.198   2.254   4.710
 3184W        W62478  42.854  29.657   2.241
 3185W        W62479  36.366  34.997  11.380
 3186W        W62480  17.569  13.140   3.208
 3187W        W62481  44.275  12.735   1.361
 3188W        W62482   8.720  24.051   3.204
 3189W        W62483  27.682  34.033  14.477
 3190W        W62484  18.666   6.225   2.384
 3191W        W62485  22.675  44.880   0.301
 3192W        W62486  44.310  42.414   0.757
 3193W        W62487  22.716  36.078  13.497
 3194W        W62488  40.328   8.858   1.348
 3195W        W62489  31.465  11.323   0.355
 3196W        W62490  37.533  41.424  12.073
 3197W        W62491   4.446  20.534  13.836
 3198W        W62492  41.953  15.691  13.533
 3199W        W62493  26.481  31.959   1.926
 3200W        W62494  11.797  17.794  12.547
 3201W        W62495  38.452  29.453   4.165
 3202W        W62496  30.141  22.548   2.178
 3203W        W62497  35.552  25.151  13.411
 3204W        W62498  39.882  31.557   2.817
 3205W        W62499   3.460  21.618   0.462
 3206W        W62500  42.012  13.644  13.807
 3207W        W62501   8.711  33.383  13.463
 3208W        W62502  29.016   6.346   2.290
 3209W        W62503  33.042   9.681   4.171
 3210W        W62504   2.936  11.337   4.651
 3211W        W62505   7.373  17.595  13.973
 3212W        W62506   2.893  42.447   3.190
 3213W        W62507  27.637  40.542   1.756
 3214W        W62508  24.678   2.336  11.492
 3215W        W62509  18.233  27.508   0.469
 3216W        W62510  28.586   0.462   0.372
 3217W        W62511  17.195   3.302   1.222
 3218W        W62512  15.814  43.008  10.625
 3219W        W62513  31.126  37.370   0.913
 3220W        W62514  38.852  22.026  10.639
 3221W        W62515  39.486  29.513  10.450
 3222W        W62516   2.289  24.691   3.700
 3223W        W62517   1.289  44.801   3.853
 3224W        W62518  18.777   0.799  14.395
 3225W        W62519  41.369   4.216   2.737
 3226W        W62520  39.399  21.058  11.908
 3227W        W62521  14.340  14.303   2.661
 3228W        W62522   2.773  19.663   3.262
 3229W        W62523  24.659  20.250  12.090
 3230W        W62524   5.868  34.495  11.977
 3231W        W62525  15.219  18.177  11.550
 3232W        W62526  20.073  19.253   1.795
 3233W        W62527  41.456  33.552   0.948
 3234W        W62528   0.920  29.136   0.402
 3235W        W62529  11.360  25.204  12.012
 3236W        W62530  22.733  28.960   1.911
 3237W        W62531  40.434  23.558   1.408
 3238W        W62532  43.359  15.170  10.630
 3239W        W62533  10.259  42.955  13.951
 3240W        W62534  15.798   9.705  13.832
 3241W        W62535  12.682   7.222  12.923
 3242W        W62536  20.123  38.409  12.947
 3243W        W62537  14.272   6.678   1.324
 3244W        W62538  12.758  23.704   1.305
 3245W        W62539  35.090   4.400  11.126
 3246W        W62540  28.489  26.543  10.069
 3247W        W62541   7.225  27.537   3.716
 3248W        W62542   3.789  27.073  13.371
 3249W        W62543  39.321  44.953   0.747
 3250W        W62544  43.977  36.562   2.180
 3251W        W62545  27.686   6.312   0.381
 3252W        W62546  29.089  16.223  12.078
 3253W        W62547   3.843  25.137   1.342
 3254W        W62548  25.538  16.072  10.935
 3255W        W62549   4.219  19.180  11.045
 3256W        W62550   1.875  37.462   4.685
 3257W        W62551  13.147   1.478  13.388
 3258W        W62552  19.103   8.246   1.737
 3259W        W62553  31.077  16.279   3.361
 3260W        W62554  44.475  32.995  11.386
 3261W        W62555  38.406  18.726  13.930
 3262W        W62556  17.121  37.883  10.643
 3263W        W62557  24.169  19.266   3.679
 3264W        W62558  36.480  24.616  12.402
 3265W        W62559  12.839  17.231   0.409
 3266W        W62560   2.384  32.925   0.442
 3267W        W62561   7.714  40.010   4.609
 3268W        W62562  24.684  26.580  10.923
 3269W        W62563  28.471  32.394  10.450
 3270W        W62564  35.027  32.555  12.397
 3271W        W62565  41.440  41.357  11.878
 3272W        W62566  41.417  15.771   0.938
 3273W        W62567  15.691   7.820  10.544
 3274W        W62568  21.561  29.058   4.283
 3275W        W62569   1.467   3.357   0.434
 3276W        W62570  44.768  22.611  11.889
 3277W        W62571  22.739  28.658   3.776
 3278W        W62572  36.975  11.227   2.346
 3279W        W62573   4.745  32.467  14.907
 3280W        W62574  24.040  18.269   1.750
 3281W        W62575   2.472  42.962  10.601
 3282W        W62576  13.730  22.725   3.790
 3283W        W62577  42.007  12.818  12.483
 3284W        W62578  22.627   5.350  14.780
 3285W        W62579  34.517  27.470  11.958
 3286W        W62580   8.822  36.467  13.922
 3287W        W62581  22.016  43.396  13.395
 3288W        W62582  27.040  14.691   3.293
 3289W        W62583   7.811  34.545   1.295
 3290W        W62584  14.222  41.488  13.467
 3291W        W62585  14.222  13.125  10.069
 3292W        W62586  18.719  35.454  11.075
 3293W        W62587  17.700  30.116  13.915
 3294W        W62588  19.182  37.361   3.181
 3295W        W62589   9.707   5.208  12.451
 3296W        W62590  44.333  37.342   1.711
 3297W        W62591  19.085  11.694   3.148
 3298W        W62592  40.335  25.709   2.709
 3299W        W62593  20.096   0.282  11.077
 3300W        W62594   0.327  43.959  12.926
 3301W        W62595  42.362   1.738  12.563
 3302W        W62596  37.563  14.629   2.234
 3303W        W62597   4.708   4.889  14.314
 3304W        W62598  15.272  38.440   3.256
 3305W        W62599  36.905   8.664   3.145
 3306W        W62600  44.380  24.539   0.263
 3307W        W62601  37.038   2.234  10.530
 3308W        W62602  12.251  28.181  12.853
 3309W        W62603  13.231  29.103  11.884
 3310W        W62604  22.705  41.981  10.141
 3311W        W62605  12.827  23.127   4.241
 3312W        W62606  40.013  37.540  11.917
 3313W        W62607  15.137  28.972  12.438
 3314W        W62608  29.522  22.163  13.389
 3315W        W62609  26.525  17.573   3.207
 3316W        W62610  30.989  25.698   3.830
 3317W        W62611   3.844  29.545  10.926
 3318W        W62612  42.996   0.402  13.412
 3319W        W62613   9.210  36.513   2.354
 3320W        W62614  21.521   7.200   4.744
 3321W        W62615  39.541   8.737   2.265
 3322W        W62616  28.622  11.684  12.484
 3323W        W62617  34.537  10.783   1.807
 3324W        W62618  15.161   6.358   1.816
 3325W        W62619  23.605  44.417   0.915
 3326W        W62620  44.941  21.224  13.804
 3327W        W62621  37.400   2.732   0.377
 3328W        W62622  39.002  43.776   0.244
 3329W        W62623   4.708  10.759  10.496
 3330W        W62624  42.824  27.496  14.859
 3331W        W62625   0.926  16.792  11.585
 3332W        W62626  41.336   1.447   0.917
 3333W        W62627  40.917  42.834   4.743
 3334W        W62628   0.417   2.239  10.590
 3335W        W62629  34.889  31.939   4.751
 3336W        W62630  31.949   7.310   3.668
 3337W        W62631  33.051  11.290   1.718
 3338W        W62632  16.681   0.329   2.232
 3339W        W62633  25.607   0.924   2.348
 3340W        W62634   8.711  35.011   2.330
 3341W        W62635  34.091  32.979   0.884
 3342W        W62636  27.008  43.396   4.331
 3343W        W62637  39.857  31.035  11.865
 3344W        W62638   2.830  34.042   3.361
 3345W        W62639  32.980  16.228   1.212
 3346W        W62640   7.864  27.171   2.698
 3347W        W62641  24.503  36.944  10.478
 3348W        W62642   6.392  37.060   2.890
 3349W        W62643  30.987  28.109  10.961
 3350W        W62644  12.653   8.369  12.832
 3351W        W62645  24.229  22.157  10.526
 3352W        W62646   3.864  42.820  14.512
 3353W        W62647  43.992  15.820   2.311
 3354W        W62648  37.992   6.393   0.734
 3355W        W62649  14.706  32.072   1.925
 3356W        W62650  23.193  33.047   2.201
 3357W        W62651  22.616  13.305  10.121
 3358W        W62652  15.212  11.806   1.412
 3359W        W62653  23.720   6.339   0.778
 3360W        W62654   6.417  39.956  14.778
 3361W        W62655   8.711  19.708  13.922
 3362W        W62656   7.703  17.113  13.016
 3363W        W62657  17.665  38.340   1.256
 3364W        W62658  26.546  36.982  10.577
 3365W        W62659  25.682  12.232   2.403
 3366W        W62660  16.270  11.693   2.277
 3367W        W62661  30.491  34.554  13.461
 3368W        W62662  15.329  19.571   0.865
 3369W        W62663  21.613  23.495  11.487
 3370W        W62664   8.374   6.829   1.269
 3371W        W62665   6.891  15.184  12.344
 3372W        W62666   8.363   1.328   0.475
 3373W        W62667  20.679  10.299  12.882
 3374W        W62668  10.223  24.137  14.028
 3375W        W62669   1.392   8.195   3.662
 3376W        W62670  21.194  33.094  14.865
 3377W        W62671  11.679  34.372   0.419
 3378W        W62672  20.696  17.234  11.023
 3379W        W62673  26.111  31.625   0.890
 3380W        W62674  44.929  26.471   2.293
 3381W        W62675   1.917  29.522  11.548
 3382W        W62676   1.825   3.841  14.946
 3383W        W62677  33.467  20.131   3.663
 3384W        W62678  20.556   7.316   4.805
 3385W        W62679  27.470  11.744   0.836
 3386W        W62680  43.816  22.163  13.992
 3387W        W62681   6.757   1.942   2.337
 3388W        W62682  20.606  15.284   1.729
 3389W        W62683  24.548  39.506   4.819
 3390W        W62684  19.250  37.451  14.809
 3391W        W62685  24.088  34.446  14.904
 3392W        W62686  13.204  43.781   2.407
 3393W        W62687  27.449  15.759  13.461
 3394W        W62688  17.673  25.588   1.921
 3395W        W62689   0.485  14.602   2.720
 3396W        W62690  23.506  28.675   2.394
 3397W        W62691  10.146  36.451  12.944
 3398W        W62692  26.652  31.063   5.225
 3399W        W62693  22.588   9.755   5.283
 3400W        W62694  22.249  26.465   4.164
 3401W        W62695  25.527   5.765   0.905
 3402W        W62696   8.810   8.707  13.064
 3403W        W62697  31.548  42.390  12.075
 3404W        W62698  13.227  20.197  10.040
 3405W        W62699  38.398  28.038   1.389
 3406W        W62700   9.318   8.870  13.850
 3407W        W62701  44.900  19.586  12.348
 3408W        W62702  23.110  39.011   4.647
 3409W        W62703  38.984  36.914  12.437
 3410W        W62704  40.925  41.445  12.899
 3411W        W62705   0.801  44.269  12.096
 3412W        W62706  41.821  30.651   1.264
 3413W        W62707  37.453  39.820   0.337
 3414W        W62708  19.711  15.192  10.585
 3415W        W62709  35.449   9.294  10.460
 3416W        W62710  41.953  18.226   1.934
 3417W        W62711  13.742  20.145  14.843
 3418W        W62712   3.886   0.760   2.729
 3419W        W62713   0.489  33.580   0.275
 3420W        W62714  39.847  22.237  11.116
 3421W        W62715  29.030  40.483  14.978
 3422W        W62716  40.381  35.095  12.863
 3423W        W62717   8.888  29.983   4.137
 3424W        W62718  41.820  37.858  12.982
 3425W        W62719   0.827  33.104   2.197
 3426W        W62720  39.034  32.630   4.746
 3427W        W62721  20.077  43.768  13.523
 3428W        W62722  30.031  19.633   3.738
 3429W        W62723  16.700  32.967   0.464
 3430W        W62724   4.406  42.870   2.416
 3431W        W62725  16.627   2.722   0.901
 3432W        W62726  10.141  32.418   5.583
 3433W        W62727  42.001  43.775  12.517
 3434W        W62728  32.096  44.370   4.212
 3435W        W62729   0.322   2.427  13.370
 3436W        W62730  10.702  16.289  13.365
 3437W        W62731  32.417  44.493   2.713
 3438W        W62732  16.582  18.691  13.911
 3439W        W62733  11.661   4.710  12.353
 3440W        W62734  21.514   9.347   0.947
 3441W        W62735  28.499  34.497  11.063
 3442W        W62736  21.732   7.303   0.429
 3443W        W62737  34.872   5.393   2.312
 3444W        W62738  13.844  28.458   3.720
 3445W        W62739   4.402  41.888   3.153
 3446W        W62740  14.636  18.732  11.993
 3447W        W62741  37.526  30.489   2.802
 3448W        W62742  31.101  24.601  14.807
 3449W        W62743  17.784  11.289  11.488
 3450W        W62744  42.901  40.917  13.507
 3451W        W62745  29.131  27.474   0.394
 3452W        W62746  33.487  43.930   2.892
 3453W        W62747  43.843   7.667   0.773
 3454W        W62748  12.356  39.977  11.892
 3455W        W62749  36.015  25.082  10.979
 3456W        W62750   1.782  39.335   0.264
 3457W        W62751  18.592   1.297   3.645
 3458W        W62752  35.557  12.754   5.117
 3459W        W62753  17.064  29.580  13.366
 3460W        W62754  37.893  19.115  13.426
 3461W        W62755   1.276  34.946   1.240
 3462W        W62756   7.738  27.454  12.968
 3463W        W62757  41.976  39.458  12.481
 3464W        W62758  27.501  43.788   3.229
 3465W        W62759  39.031  44.354  10.962
 3466W        W62760  15.218  39.984  10.645
 3467W        W62761  40.347  21.220   5.294
 3468W        W62762  34.955  38.894  10.591
 3469W        W62763   9.731   6.416   1.236
 3470W        W62764  40.420   5.437   2.248
 3471W        W62765  20.098  12.761   0.320
 3472W        W62766  31.561  15.814   2.407
 3473W        W62767  41.911  15.132   2.774
 3474W        W62768  40.842  17.673   2.204
 3475W        W62769  16.115  44.284   1.334
 3476W        W62770  44.785  36.090   3.738
 3477W        W62771  19.584  22.116  11.932
 3478W        W62772  30.481  41.355  11.446
 3479W        W62773   6.700   7.841   2.728
 3480W        W62774  40.841  22.234  12.349
 3481W        W62775  26.129  17.152  13.869
 3482W        W62776  28.057  27.533  13.520
 3483W        W62777  26.095  29.604  13.536
 3484W        W62778  18.222  25.008  12.562
 3485W        W62779  10.792  19.658  11.044
 3486W        W62780  42.349  36.361  14.839
 3487W        W62781   9.702   6.835  10.534
 3488W        W62782   6.900  37.989   1.796
 3489W        W62783   7.204  32.142   0.939
 3490W        W62784  19.762  22.031   0.253
 3491W        W62785  23.091  21.688  12.381
 3492W        W62786  37.569  27.060   1.791
 3493W        W62787  34.478  21.244  13.022
 3494W        W62788   3.807  41.417  11.603
 3495W        W62789   7.754  12.308   2.402
 3496W        W62790  33.046  34.520  10.515
 3497W        W62791   2.849  38.396  13.046
 3498W        W62792  24.723   7.738  14.959
 3499W        W62793  38.922  17.634   1.257
 3500W        W62794  17.666   8.303  14.817
 3501W        W62795  13.817  23.002  14.921
 3502W        W62796  37.044  38.540  13.972
 3503W        W62797  31.064  35.421   4.216
 3504W        W62798   5.861   3.428   2.784
 3505W        W62799  21.030  23.565   0.391
 3506W        W62800  27.473   2.441   0.848
 3507W        W62801  32.534  34.542  11.419
 3508W        W62802   9.223  23.658   3.803
 3509W        W62803  27.082  33.005   1.904
 3510W        W62804  31.529  36.380  10.409
 3511W        W62805  23.531  22.513  13.458
 3512W        W62806   0.392  36.509  14.376
 3513W        W62807  43.329  12.362  13.355
 3514W        W62808  30.041  41.462   2.884
 3515W        W62809  25.521  41.040   4.672
 3516W        W62810  35.504  11.642   0.389
 3517W        W62811  29.115   4.306   3.631
 3518W        W62812  41.978  35.030  13.938
 3519W        W62813   8.800  14.801  12.852
 3520W        W62814  42.794   7.787   2.870
 3521W        W62815   2.795  36.577  14.370
 3522W        W62816  18.770  39.824  12.527
 3523W        W62817  20.090  42.974  11.973
 3524W        W62818  38.829   2.730   3.374
 3525W        W62819  19.745  25.078  11.561
 3526W        W62820  42.476  10.817  13.923
 3527W        W62821  26.579  26.689  11.959
 3528W        W62822  21.052  16.599  11.523
 3529W        W62823  19.258  23.113  10.993
 3530W        W62824  32.621  37.988  13.881
 3531W        W62825  43.501   7.176  11.498
 3532W        W62826  31.952  37.906  11.885
 3533W        W62827  10.823   5.799  14.874
 3534W        W62828  30.643   3.381   2.318
 3535W        W62829  33.590  40.463  12.413
 3536W        W62830  23.735  18.569  14.779
 3537W        W62831   9.758  41.799  10.968
 3538W        W62832   1.856  23.994   0.907
 3539W        W62833   4.270  19.644  11.029
 3540W        W62834   0.968   1.237   1.730
 3541W        W62835  35.913  44.978   3.262
 3542W        W62836  35.859  18.132   1.812
 3543W        W62837  30.948  39.354   1.328
 3544W        W62838  42.996  29.474  10.561
 3545W        W62839  37.426  18.225  14.021
 3546W        W62840  24.041   4.330  12.381
 3547W        W62841  28.099  32.054   0.404
 3548W        W62842   4.439  39.452   0.300
 3549W        W62843  41.924   7.352  12.349
 3550W        W62844  31.120  32.943  11.461
 3551W        W62845  42.418   1.290  13.363
 3552W        W62846  35.045  29.958  11.897
 3553W        W62847   6.234  25.975  11.509
 3554W        W62848  31.598  27.149   3.374
 3555W        W62849  37.991   6.817   2.750
 3556W        W62850  10.358  39.361  11.517
 3557W        W62851  23.985   5.813  12.387
 3558W        W62852   1.370  31.048   3.688
 3559W        W62853   4.412   3.442   1.699
 3560W        W62854  44.969  27.678   3.164
 3561W        W62855  33.611  30.534  14.435
 3562W        W62856   6.833  30.592  10.485
 3563W        W62857  29.654  12.153  10.434
 3564W        W62858  29.502   3.369   5.093
 3565W        W62859  13.348   5.912  10.445
 3566W        W62860  30.916  27.449  14.843
 3567W        W62861  15.151  11.145  12.463
 3568W        W62862  32.980  31.637  14.278
 3569W        W62863  14.174  38.016   1.839
 3570W        W62864  33.465  10.671   0.365
 3571W        W62865   9.749  22.729   9.498
 3572W        W62866  38.343  18.748   2.833
 3573W        W62867   9.267  34.556   0.364
 3574W        W62868  28.170  26.026   0.428
 3575W        W62869  27.020  42.882   0.449
 3576W        W62870   3.334  27.538  11.862
 3577W        W62871  23.667  15.226  12.985
 3578W        W62872   8.712  14.214   2.672
 3579W        W62873  13.794  31.073  14.011
 3580W        W62874  42.489  44.491  14.887
 3581W        W62875   8.700  29.067   4.307
 3582W        W62876  20.080  18.096  10.084
 3583W        W62877  22.692  38.847  14.348
 3584W        W62878   6.760  17.726  10.009
 3585W        W62879   4.364   4.205  11.432
 3586W        W62880  37.022  22.224  13.854
 3587W        W62881  29.080   4.440   1.742
 3588W        W62882  28.530  24.153   3.349
 3589W        W62883   0.400  40.929   0.473
 3590W        W62884   0.418  40.879  13.905
 3591W        W62885   7.393  24.519   5.722
 3592W        W62886  22.160  13.696  11.461
 3593W        W62887  34.543  10.722   2.411
 3594W        W62888  38.895   2.377  12.010
 3595W        W62889   6.182  18.054  12.342
 3596W        W62890  25.104   2.298  11.957
 3597W        W62891  35.942   6.348   4.266
 3598W        W62892   0.479  38.509   1.280
 3599W        W62893   8.767  22.684   2.262
 3600W        W62894  40.985  18.133  14.917
 3601W        W62895  27.012  11.278   1.788
 3602W        W62896  41.442  16.602   3.289
 3603W        W62897  26.190  41.889   0.353
 3604W        W62898  15.207  22.009  13.012
 3605W        W62899   2.439  25.514   2.846
 3606W        W62900  26.560  18.271   0.873
 3607W        W62901   0.806  37.463   4.601
 3608W        W62902  17.063  44.973   2.276
 3609W        W62903   3.362  23.646  11.434
 3610W        W62904  14.614  40.821  11.591
 3611W        W62905   9.664   5.250   3.333
 3612W        W62906  19.611  27.962  14.507
 3613W        W62907  33.482  26.578  13.868
 3614W        W62908  42.983  38.010  12.050
 3615W        W62909  12.186  13.291  12.092
 3616W        W62910  13.167  13.222   0.412
 3617W        W62911  17.070   8.219   4.642
 3618W        W62912  10.294  22.059   4.682
 3619W        W62913  11.179  44.919  11.499
 3620W        W62914  35.360  10.231   1.410
 3621W        W62915  31.478  29.948   4.252
 3622W        W62916  38.844  30.984   3.378
 3623W        W62917  43.890  28.988  10.637
 3624W        W62918   3.934  11.834  12.880
 3625W        W62919  14.680  37.508   1.216
 3626W        W62920   7.716   8.275   0.438
 3627W        W62921  16.671  32.944  13.515
 3628W        W62922  11.218  14.229   0.921
 3629W        W62923  16.626  43.830   1.698
 3630W        W62924  36.441  18.289  14.288
 3631W        W62925  28.169  13.697   2.297
 3632W        W62926  28.668  25.469   4.114
 3633W        W62927   6.824   6.264  12.408
 3634W        W62928  43.798  42.917  14.901
 3635W        W62929  36.512  33.434   0.283
 3636W        W62930  35.895  39.460   4.702
 3637W        W62931  35.471  20.615   4.348
 3638W        W62932  40.919  42.886  10.566
 3639W        W62933  26.968  26.470  10.915
 3640W        W62934  11.368  37.472  12.418
 3641W        W62935   5.725  38.826   3.226
 3642W        W62936  25.685   7.406   4.138
 3643W        W62937  12.793   3.721  13.901
 3644W        W62938   8.291  20.116  13.483
 3645W        W62939  13.802  39.315   0.420
 3646W        W62940  17.717  28.574  13.836
 3647W        W62941   4.248  42.776   3.846
 3648W        W62942  12.615  38.833   3.837
 3649W        W62943  15.266  20.114  14.959
 3650W        W62944  40.950  39.061   0.837
 3651W        W62945  11.168  11.163   4.637
 3652W        W62946  14.245  10.147  13.425
 3653W        W62947  30.065  14.228   4.749
 3654W        W62948  34.532  24.079   0.729
 3655W        W62949  13.756   6.770   3.181
 3656W        W62950  14.655  21.091   9.515
 3657W        W62951  38.328  18.207   1.415
 3658W        W62952   7.829  43.817   4.713
 3659W        W62953  30.583  12.639  12.439
 3660W        W62954  31.095  25.562  11.006
 3661W        W62955  10.746  17.617   0.762
 3662W        W62956   2.303   1.254   1.359
 3663W        W62957  33.061  38.900   3.738
 3664W        W62958   1.370  24.546  11.992
 3665W        W62959   1.831  30.977  12.965
 3666W        W62960   6.844   3.927  13.858
 3667W        W62961  16.138  42.984  13.440
 3668W        W62962   1.895  40.836   3.375
 3669W        W62963  22.019  21.193   3.211
 3670W        W62964  16.185  12.244   3.366
 3671W        W62965  25.063  22.680   4.225
 3672W        W62966  16.120   9.852   3.318
 3673W        W62967   0.890  14.664  13.419
 3674W        W62968   5.434  41.896   0.363
 3675W        W62969  31.978  36.460  12.093
 3676W        W62970  30.079  13.286  12.918
 3677W        W62971  39.527  34.403  12.343
 3678W        W62972   3.873  36.486  12.554
 3679W        W62973  41.829   9.883  10.485
 3680W        W62974  25.012  24.151   2.322
 3681W        W62975  25.184   7.832   5.576
 3682W        W62976  15.761  36.372  11.534
 3683W        W62977  21.685  30.955  13.879
 3684W        W62978  11.700  43.021   3.866
 3685W        W62979  20.733  12.849  13.516
 3686W        W62980  23.670  35.528   0.401
 3687W        W62981   3.954   3.365   1.711
 3688W        W62982  39.888  27.556   4.820
 3689W        W62983  16.807  14.253   4.644
 3690W        W62984  24.669  42.391   2.735
 3691W        W62985  15.710  35.911   3.210
 3692W        W62986   5.321  32.091  14.775
 3693W        W62987  14.142  24.025   4.713
 3694W        W62988   7.734   0.761  14.435
 3695W        W62989  38.332   8.213  10.513
 3696W        W62990  26.052  16.269   0.479
 3697W        W62991  12.116   6.889  11.067
 3698W        W62992  19.272   2.268  11.523
 3699W        W62993  31.578  28.127  11.472
 3700W        W62994  10.148   9.276   0.433
 3701W        W62995  15.258  42.473   0.897
 3702W        W62996  27.120  10.636  12.485
 3703W        W62997   1.950  44.889   1.814
 3704W        W62998  22.034  33.881  11.938
 3705W        W62999  14.794  40.993   0.407
 3706W        W63000  25.608  41.848  11.399
 3707W        W63001  40.453  34.570  13.928
 3708W        W63002  13.118  34.417   3.170
 3709W        W63003  32.895  25.219  10.918
 3710W        W63004   3.268  36.913  10.569
 3711W        W63005  39.824  39.499  10.548
 3712W        W63006   6.726  19.684  10.486
 3713W        W63007  34.914  15.605  14.511
 3714W        W63008  14.752  13.337   1.886
 3715W        W63009  30.983  20.700  12.044
 3716W        W63010   7.756  19.761   3.746
 3717W        W63011  43.444  18.653   4.219
 3718W        W63012   8.682  28.548  14.767
 3719W        W63013  31.527  40.518   3.201
 3720W        W63014  42.850  36.491   0.480
 3721W        W63015  25.998  19.201   0.481
 3722W        W63016  26.019  23.147   4.179
 3723W        W63017  24.523  19.565   2.292
 3724W        W63018   1.807   8.883  11.084
 3725W        W63019  13.169  44.791  13.511
 3726W        W63020  38.897  14.299   1.305
 3727W        W63021   7.675  20.059   9.541
 3728W        W63022   6.783  35.528  14.289
 3729W        W63023   2.728  31.435   0.830
 3730W        W63024  34.523  36.081  10.446
 3731W        W63025  25.474  14.095  14.015
 3732W        W63026  20.610  36.389  12.094
 3733W        W63027  10.174  40.327   4.227
 3734W        W63028  32.597  37.496   3.178
 3735W        W63029  31.452   3.317  12.532
 3736W        W63030  34.943   5.268  11.491
 3737W        W63031  39.478  21.614  10.978
 3738W        W63032  38.059  24.021  12.495
 3739W        W63033   2.849  38.348  14.956
 3740W        W63034  17.152  13.816   2.289
 3741W        W63035  16.073  28.468   3.334
 3742W        W63036   9.864  31.119   3.721
 3743W        W63037  22.700  29.544   2.208
 3744W        W63038   6.912  43.409  14.400
 3745W        W63039   2.890  21.115   5.195
 3746W        W63040  30.080  20.241   4.226
 3747W        W63041  18.287  32.006  10.526
 3748W        W63042   1.281  23.722  13.887
 3749W        W63043  15.098  35.422  13.853
 3750W        W63044  27.964  36.349  14.298
 3751W        W63045  37.387   7.782   3.862
 3752W        W63046  17.107  17.107   1.218
 3753W        W63047  29.119   0.444   3.658
 3754W        W63048  29.130  31.496  14.479
 3755W        W63049  32.547  40.479  11.901
 3756W        W63050  23.530   7.872   3.854
 3757W        W63051  25.198  32.004  12.869
 3758W        W63052  24.193  34.010  14.453
 3759W        W63053  18.553  11.770   3.638
 3760W        W63054  39.930  37.569  12.561
 3761W        W63055  14.815   8.255   4.736
 3762W        W63056  33.596  44.996  10.642
 3763W        W63057  39.816  10.720   0.365
 3764W        W63058  11.323  21.750  13.502
 3765W        W63059   6.354   7.732  11.987
 3766W        W63060   9.308  33.461   4.736
 3767W        W63061  10.878  29.624   0.729
 3768W        W63062   7.867  39.821  10.451
 3769W        W63063  33.530   1.897  12.497
 3770W        W63064   5.216  44.858  12.946
 3771W        W63065   2.723  18.647   3.760
 3772W        W63066  35.926  38.449   0.383
 3773W        W63067  30.053  11.315  11.607
 3774W        W63068  14.177  41.486   2.734
 3775W        W63069  22.083  11.147  12.906
 3776W        W63070  12.346  27.516   4.736
 3777W        W63071  17.149  19.700   1.902
 3778W        W63072  40.926  40.800   2.279
 3779W        W63073  18.672   8.696   0.965
 3780W        W63074   7.268  25.701   0.960
 3781W        W63075  43.016  40.819  14.814
 3782W        W63076  35.959  28.100  12.420
 3783W        W63077   9.741  33.030   2.380
 3784W        W63078   9.856  38.918   4.170
 3785W        W63079  16.267  15.615   0.880
 3786W        W63080  44.277   7.277  14.945
 3787W        W63081  43.392  26.108   4.355
 3788W        W63082  41.966  33.446   4.651
 3789W        W63083   2.804  11.661  14.829
 3790W        W63084  23.612  10.264  14.498
 3791W        W63085  27.602  11.728  11.910
 3792W        W63086  23.679  13.280  11.108
 3793W        W63087   8.183  26.588   3.823
 3794W        W63088  31.419  33.420   3.325
 3795W        W63089  22.706  16.177  12.095
 3796W        W63090  22.007  13.759  12.528
 3797W        W63091   1.753  35.386   3.774
 3798W        W63092  20.754  43.991   4.310
 3799W        W63093   9.665   4.235   0.421
 3800W        W63094   6.335  37.961  10.986
 3801W        W63095  42.479   9.211   2.715
 3802W        W63096  21.518  26.597  10.985
 3803W        W63097  38.942  42.014  11.855
 3804W        W63098   9.646  23.600  14.415
 3805W        W63099  10.377  39.490   5.222
 3806W        W63100   5.827   9.149  14.863
 3807W        W63101  14.697  43.004   0.447
 3808W        W63102  11.298  23.152   0.342
 3809W        W63103  32.932   9.794   3.264
 3810W        W63104  20.556  15.771  14.416
 3811W        W63105  44.476  22.660   2.792
 3812W        W63106  36.078  17.225   2.339
 3813W        W63107  41.522  41.015  14.291
 3814W        W63108   2.319   9.391  13.389
 3815W        W63109   7.895   0.842   9.952
 3816W        W63110  10.256   4.711  10.559
 3817W        W63111   9.793   1.765   3.241
 3818W        W63112  18.164  28.549  14.964
 3819W        W63113  14.601   9.200   2.703
 3820W        W63114  14.796   9.716  11.072
 3821W        W63115  16.103  19.255  11.450
 3822W        W63116  11.645  31.423   5.300
 3823W        W63117  27.955  26.998  12.848
 3824W        W63118  11.756  17.673  14.509
 3825W        W63119   5.758  16.748  14.820
 3826W        W63120  34.390  43.925   1.893
 3827W        W63121  23.708  24.209   2.241
 3828W        W63122  27.624  28.522   1.752
 3829W        W63123  30.108  26.179  12.401
 3830W        W63124  17.622   9.746   0.822
 3831W        W63125  43.019  33.609   3.162
 3832W        W63126   0.742  13.681   3.310
 3833W        W63127  37.566  43.992  14.317
 3834W        W63128   6.748   7.189  13.814
 3835W        W63129  26.613  12.667  11.535
 3836W        W63130  43.835   8.193  13.536
 3837W        W63131  24.000  37.028   0.754
 3838W        W63132  28.151  32.585  10.472
 3839W        W63133  16.584   9.177  10.497
 3840W        W63134  27.508   8.297  10.615
 3841W        W63135  40.326  16.130   1.891
 3842W        W63136  36.037   3.882  10.559
 3843W        W63137  23.112  35.907  10.584
 3844W        W63138  14.773  40.413   2.765
 3845W        W63139  22.737  15.671  12.501
 3846W        W63140  21.718   0.834   0.454
 3847W        W63141   6.862  31.074  10.631
 3848W        W63142   2.336  41.835   4.828
 3849W        W63143  14.638  21.536  14.432
 3850W        W63144   7.753   3.355  12.547
 3851W        W63145  21.172   4.710  13.873
 3852W        W63146  26.058  22.677  13.477
 3853W        W63147  43.777   9.664  14.387
 3854W        W63148  34.599   5.782  13.444
 3855W        W63149   4.228  40.959   0.323
 3856W        W63150  33.068   4.761   2.814
 3857W        W63151   3.348  16.247   0.844
 3858W        W63152   3.444  33.896   0.422
 3859W        W63153  24.109  21.190  14.769
 3860W        W63154   6.286  28.059   1.780
 3861W        W63155  41.419  23.536  12.027
 3862W        W63156  34.046  32.992  13.906
 3863W        W63157   7.855  26.982   0.831
 3864W        W63158  42.450  24.007   1.410
 3865W        W63159  11.127  18.163  14.322
 3866W        W63160   5.314  38.958  10.031
 3867W        W63161  31.907  18.761   0.353
 3868W        W63162  26.014  35.362  13.882
 3869W        W63163  29.651  20.570  14.873
 3870W        W63164  43.929  20.168   1.915
 3871W        W63165  13.652  22.667   0.312
 3872W        W63166  32.611  38.077  14.931
 3873W        W63167  14.691  37.056  11.024
 3874W        W63168   3.280  37.406  11.106
 3875W        W63169  25.599  32.953  13.383
 3876W        W63170  31.039  44.922  11.485
 3877W        W63171   2.459  26.526  10.110
 3878W        W63172   5.846   0.843  11.411
 3879W        W63173   2.885  31.526   2.292
 3880W        W63174  44.415  25.997   0.930
 3881W        W63175  11.626   9.258   3.653
 3882W        W63176  17.189  16.097   1.318
 3883W        W63177  21.704   6.776   9.935
 3884W        W63178  24.211  43.842  14.800
 3885W        W63179  35.562  31.123   4.161
 3886W        W63180  37.868  20.523  14.411
 3887W        W63181  19.071   5.835   0.409
 3888W        W63182  39.005  11.340  12.548
 3889W        W63183  28.139  39.487   1.699
 3890W        W63184  35.003   4.352   0.733
 3891W        W63185  14.137   2.269   1.406
 3892W        W63186  13.285  14.753   3.686
 3893W        W63187  38.460  25.999   1.364
 3894W        W63188  44.851  24.215  11.111
 3895W        W63189  39.012  36.487  13.537
 3896W        W63190  18.207   1.275   0.943
 3897W        W63191  35.109   7.233   3.723
 3898W        W63192  12.123  17.628  14.778
 3899W        W63193  41.876  18.152  14.768
 3900W        W63194  10.154  27.130   3.843
 3901W        W63195   0.856   2.271   1.931
 3902W        W63196  29.658  32.943   4.754
 3903W        W63197  27.668   4.878  11.004
 3904W        W63198  40.519  33.462   2.761
 3905W        W63199  34.573  34.504   1.418
 3906W        W63200   8.328  36.524  13.358
 3907W        W63201  24.034  19.168   2.278
 3908W        W63202  23.075   6.797  11.931
 3909W        W63203  32.016  15.286  12.362
 3910W        W63204  25.066  29.135   1.314
 3911W        W63205  10.351   8.856  10.917
 3912W        W63206  33.602  37.423  10.086
 3913W        W63207  43.406  14.706   4.239
 3914W        W63208  36.531  29.629   2.416
 3915W        W63209  19.741  10.300  10.501
 3916W        W63210   4.368  22.666  11.992
 3917W        W63211  23.550  18.164  12.349
 3918W        W63212   6.766  39.985  12.042
 3919W        W63213  35.462  25.611   3.376
 3920W        W63214   9.349  27.655  13.832
 3921W        W63215  35.905   9.654   2.771
 3922W        W63216  15.743  21.655   1.879
 3923W        W63217  16.600  33.036  11.928
 3924W        W63218  18.107  35.438  12.841
 3925W        W63219  25.005  15.622   1.387
 3926W        W63220  38.880  43.391  12.533
 3927W        W63221  22.732   4.767  10.056
 3928W        W63222   1.927  21.244   4.225
 3929W        W63223  43.993   9.745  12.553
 3930W        W63224  35.362  29.965   3.181
 3931W        W63225  44.850  29.611   3.633
 3932W        W63226  29.072  22.719  10.890
 3933W        W63227  19.067  40.009  11.915
 3934W        W63228  44.478  37.054  12.346
 3935W        W63229  20.200  17.301   0.428
 3936W        W63230   0.959  36.572  14.883
 3937W        W63231  18.200  35.876  11.540
 3938W        W63232  11.191  36.028  11.059
 3939W        W63233  28.610  25.619  13.530
 3940W        W63234  17.223  29.076   4.211
 3941W        W63235  15.785  41.892  14.342
 3942W        W63236   8.333  25.610   0.470
 3943W        W63237  21.145  12.740   2.241
 3944W        W63238  32.479  18.165  13.974
 3945W        W63239  18.050   8.712   0.471
 3946W        W63240  35.059  43.338   1.375
 3947W        W63241  24.061  15.808  12.992
 3948W        W63242  21.063   1.908   0.735
 3949W        W63243   8.173   4.827   5.742
 3950W        W63244   3.248  12.145   3.853
 3951W        W63245  22.136   2.737  12.078
 3952W        W63246  31.615  22.020  14.934
 3953W        W63247  16.201  38.546   1.788
 3954W        W63248   9.190  17.601  14.458
 3955W        W63249  23.082   3.899   2.788
 3956W        W63250  26.061  22.520   2.349
 3957W        W63251  43.349  31.647   1.707
 3958W        W63252  37.956  34.478  11.590
 3959W        W63253  31.462  30.944  13.799
 3960W        W63254  41.341  34.886  14.996
 3961W        W63255   0.913  44.956   1.843
 3962W        W63256   8.779  10.786  10.451
 3963W        W63257  39.529  39.488  12.496
 3964W        W63258   4.871   8.739  10.904
 3965W        W63259  42.886  29.621  12.393
 3966W        W63260  38.852  38.035  11.398
 3967W        W63261  12.851   8.283  12.091
 3968W        W63262  30.592  11.163  10.995
 3969W        W63263  22.016  41.315   1.797
 3970W        W63264  14.816  22.547   3.735
 3971W        W63265  30.949  24.628   2.838
 3972W        W63266  40.018   3.908   4.774
 3973W        W63267  21.152  31.896   3.351
 3974W        W63268  15.216  27.075   0.860
 3975W        W63269  19.191  16.770   1.794
 3976W        W63270  16.129  28.183  11.482
 3977W        W63271  25.087  32.404   0.957
 3978W        W63272   8.178  32.052  14.878
 3979W        W63273  11.304  30.939   1.932
 3980W        W63274  31.605  41.845   3.671
 3981W        W63275  41.377  11.264  13.960
 3982W        W63276  18.613  21.051   1.276
 3983W        W63277  39.974  28.599   3.773
 3984W        W63278  30.548  11.208   1.881
 3985W        W63279  43.321  14.623  13.450
 3986W        W63280   9.250   9.333   3.792
 3987W        W63281  35.092   5.346  10.984
 3988W        W63282  32.085  40.838  14.761
 3989W        W63283  41.451  36.855  12.962
 3990W        W63284  41.981  41.514   4.622
 3991W        W63285  17.241   2.428   2.180
 3992W        W63286  37.386  38.438   4.801
 3993W        W63287   7.732   7.352   0.924
 3994W        W63288  25.117  35.417   0.831
 3995W        W63289   8.868  38.859  14.414
 3996W        W63290  34.421  19.285   4.743
 3997W        W63291  14.676   8.313  11.555
 3998W        W63292   8.723  14.210   1.430
 3999W        W63293   5.797  29.117  11.054
 4000W        W63294  43.370  13.276   3.631
 4001W        W63295  30.596  24.052  11.916
 4002W        W63296  21.036  19.755   3.863
 4003W        W63297  19.580  11.681   2.191
 4004W        W63298  27.516  15.195  14.380
 4005W        W63299   7.240  16.182  11.919
 4006W        W63300   6.363  13.298   2.361
 4007W        W63301  11.701  30.051  13.378
 4008W        W63302  21.164  22.015   0.357
 4009W        W63303  40.844  37.874   3.666
 4010W        W63304  36.943  42.780   3.311
 4011W        W63305  21.644  41.427  10.955
 4012W        W63306  18.246  44.322   2.874
 4013W        W63307  43.483  16.776  12.942
 4014W        W63308  13.626  12.661   0.773
 4015W        W63309   5.688   9.212  11.390
 4016W        W63310  34.523  27.672  12.398
 4017W        W63311  13.279  39.031   3.172
 4018W        W63312   9.830  28.677   5.177
 4019W        W63313  11.818  33.960  13.337
 4020W        W63314  30.985  36.551   3.321
 4021W        W63315  39.510  38.400   0.726
 4022W        W63316   6.274  44.782  12.870
 4023W        W63317  43.418  43.920   3.229
 4024W        W63318  24.144  32.945  10.564
 4025W        W63319  34.058  26.095   4.285
 4026W        W63320  30.022  38.514   9.524
 4027W        W63321  43.386  39.957   4.263
 4028W        W63322   7.223  34.529   0.473
 4029W        W63323   9.758  44.467   0.943
 4030W        W63324   5.891  42.846   4.709
 4031W        W63325  17.074  30.626   5.094
 4032W        W63326  25.100  16.083   0.836
 4033W        W63327   6.851  34.393   2.868
 4034W        W63328  33.073  28.592  13.984
 4035W        W63329  34.999   0.258  11.055
 4036W        W63330   0.367  10.684   4.824
 4037W        W63331  12.291  30.947   1.389
 4038W        W63332  18.545  35.960   2.397
 4039W        W63333  11.719  10.258   5.276
 4040W        W63334  13.198  20.225   5.238
 4041W        W63335   5.860  41.816   0.389
 4042W        W63336   6.229  27.122  13.345
 4043W        W63337  17.752  38.821  14.945
 4044W        W63338  31.896  37.418  13.470
 4045W        W63339   2.308  29.549   2.887
 4046W        W63340  38.486  27.132   3.840
 4047W        W63341   3.945  23.536   2.866
 4048W        W63342  14.325  23.008   0.847
 4049W        W63343   3.235  23.589  13.059
 4050W        W63344  38.919   5.293   1.737
 4051W        W63345   6.793  10.797   4.694
 4052W        W63346  21.521  38.861  11.599
 4053W        W63347  30.112  22.248   2.872
 4054W        W63348  44.329  19.730  13.856
 4055W        W63349  21.691   2.381   4.180
 4056W        W63350  42.358  16.676   2.373
 4057W        W63351  29.540  44.413   2.770
 4058W        W63352  29.978  25.137   2.202
 4059W        W63353  34.963  37.568   3.200
 4060W        W63354  25.151  22.158   4.181
 4061W        W63355   2.955  22.708  13.338
 4062W        W63356  13.159   3.934   1.700
 4063W        W63357  40.855  35.540   1.827
 4064W        W63358  17.077   9.334  14.498
 4065W        W63359  24.648  15.179  12.529
 4066W        W63360  41.338  31.103   3.326
 4067W        W63361  15.603   5.419  11.880
 4068W        W63362  41.982   5.900   0.463
 4069W        W63363  28.118  24.693  10.523
 4070W        W63364  29.619  30.160  12.038
 4071W        W63365  36.547  21.096   1.710
 4072W        W63366  33.026  29.429  10.514
 4073W        W63367  16.186  40.854   3.313
 4074W        W63368  41.490  18.757  14.490
 4075W        W63369  31.988  21.693  13.056
 4076W        W63370  20.744   0.813   0.776
 4077W        W63371  36.968  26.966  12.544
 4078W        W63372  30.049  12.266   1.245
 4079W        W63373  26.643  11.277   4.187
 4080W        W63374  44.955   2.231   3.381
 4081W        W63375   4.906  18.725   3.293
 4082W        W63376  33.003  37.965  11.450
 4083W        W63377  44.770  42.888  14.767
 4084W        W63378  26.044  36.501   0.811
 4085W        W63379   1.745  20.703  11.581
 4086W        W63380  37.857  31.051   2.277
 4087W        W63381   4.381  20.241   1.848
 4088W        W63382  32.037  24.974   1.451
 4089W        W63383  23.500  40.341  11.099
 4090W        W63384   9.276  39.340  13.493
 4091W        W63385  18.698  21.530   3.835
 4092W        W63386  28.471   3.868   2.676
 4093W        W63387  14.229  11.334  13.422
 4094W        W63388  30.635  10.222   2.739
 4095W        W63389  31.451  44.347  12.933
 4096W        W63390  37.544  16.310   0.341
 4097W        W63391   6.427  12.782  13.946
 4098W        W63392  29.996  42.369   5.109
 4099W        W63393  40.852  27.558  13.818
 4100W        W63394  37.943  43.783  12.348
 4101W        W63395   4.884  42.961  12.981
 4102W        W63396  30.972  26.619  13.808
 4103W        W63397   2.294  36.842   3.178
 4104W        W63398  26.571   3.394  10.425
 4105W        W63399  12.363  26.534   3.870
 4106W        W63400  23.731  18.568   3.234
 4107W        W63401  26.554  35.032  12.424
 4108W        W63402   8.715  42.937   5.189
 4109W        W63403  44.296   5.329   0.323
 4110W        W63404  36.409   8.767   3.239
 4111W        W63405   7.830  33.895   2.247
 4112W        W63406  15.306  44.880   3.306
 4113W        W63407  24.167  21.161   3.848
 4114W        W63408  37.921  33.969  10.519
 4115W        W63409  15.709  11.654   9.990
 4116W        W63410  43.341  14.178  12.831
 4117W        W63411  42.815  39.357  12.062
 4118W        W63412   3.303  27.496  13.545
 4119W        W63413  35.063  22.044  13.962
 4120W        W63414   2.322  34.103  14.774
 4121W        W63415  36.423  24.020  10.483
 4122W        W63416  31.555   9.150  14.280
 4123W        W63417  22.585  21.030   0.804
 4124W        W63418  30.516  25.204   3.731
 4125W        W63419  42.486   6.226  12.499
 4126W        W63420   3.216  35.395  12.831
 4127W        W63421  29.138  29.146   1.386
 4128W        W63422  36.350  38.485  14.768
 4129W        W63423  23.147  41.411  12.543
 4130W        W63424  24.207  21.226  14.513
 4131W        W63425  36.556  31.511   4.736
 4132W        W63426   9.177  22.657  11.913
 4133W        W63427  41.294  37.391   1.820
 4134W        W63428  22.741  23.018  13.934
 4135W        W63429  27.961  12.686   5.224
 4136W        W63430  43.372  10.259   0.271
 4137W        W63431  14.266  17.257  13.049
 4138W        W63432  18.730  23.529   5.271
 4139W        W63433   0.940  15.682  11.057
 4140W        W63434   6.414  17.138   4.229
 4141W        W63435  15.629  26.115  11.129
 4142W        W63436  15.217  30.059   1.911
 4143W        W63437  17.628  36.998   0.776
 4144W        W63438  44.931  27.949   0.833
 4145W        W63439  21.721  15.299   1.251
 4146W        W63440  20.587  17.265  11.472
 4147W        W63441  26.073  28.486   0.279
 4148W        W63442   7.783   7.815  12.559
 4149W        W63443  36.863  33.877   0.263
 4150W        W63444  34.937  36.447  11.451
 4151W        W63445   0.808  23.145  14.346
 4152W        W63446  12.706  31.445   2.853
 4153W        W63447  34.386  35.515  14.980
 4154W        W63448   7.182  16.269  14.469
 4155W        W63449  16.195  39.932  14.348
 4156W        W63450  26.152  31.591  12.382
 4157W        W63451   0.989  19.227  11.593
 4158W        W63452  21.033   0.426  13.893
 4159W        W63453  42.376  19.245   1.916
 4160W        W63454  10.362  14.101   3.846
 4161W        W63455  43.916   4.302   1.910
 4162W        W63456  38.052  40.500   2.222
 4163W        W63457  36.430  37.080   3.694
 4164W        W63458  18.560   1.769   4.788
 4165W        W63459  34.611  20.088  14.337
 4166W        W63460  41.493  31.473  14.980
 4167W        W63461  43.922  20.039   4.254
 4168W        W63462  43.982  29.919   2.289
 4169W        W63463   4.817   3.842   9.992
 4170W        W63464   2.853   0.361  13.939
 4171W        W63465  44.884  20.246   1.417
 4172W        W63466  40.052   6.427  10.910
 4173W        W63467   7.782  41.912  12.095
 4174W        W63468   8.727  15.675   1.237
 4175W        W63469   9.785  37.054  14.335
 4176W        W63470  31.418  42.968  12.019
 4177W        W63471  38.405  34.423  11.463
 4178W        W63472  38.526  40.927   1.342
 4179W        W63473  39.504  31.019  10.500
 4180W        W63474  18.078  18.675  14.941
 4181W        W63475  19.049   9.706  14.310
 4182W        W63476  20.151   4.711   3.277
 4183W        W63477  28.177  34.500   1.856
 4184W        W63478  44.958  22.135  13.439
 4185W        W63479  40.431  19.048   2.799
 4186W        W63480   5.899   9.300   2.325
 4187W        W63481  30.098  24.567  11.055
 4188W        W63482  34.461  23.646  13.521
 4189W        W63483  15.328  13.171   5.156
 4190W        W63484   9.845  12.167  12.825
 4191W        W63485  13.653  24.207   4.651
 4192W        W63486  22.105  31.552   1.860
 4193W        W63487   4.432   0.775   1.860
 4194W        W63488  23.079  14.677  10.428
 4195W        W63489  37.023   7.400   4.598
 4196W        W63490  17.752  16.808  10.519
 4197W        W63491  33.623  19.665  12.543
 4198W        W63492  10.822   0.341   5.234
 4199W        W63493   0.427   7.190  13.833
 4200W        W63494   8.335  34.090  11.098
 4201W        W63495  16.180  18.071   5.697
 4202W        W63496  27.516   1.774   3.352
 4203W        W63497  41.920   0.835   3.321
 4204W        W63498  40.853  27.043   4.297
 4205W        W63499   9.159  27.056   1.290
 4206W        W63500  26.969  44.872  12.435
 4207W        W63501  39.463  42.991  11.602
 4208W        W63502  42.418  28.947  14.826
 4209W        W63503  25.678  23.543   2.664
 4210W        W63504  38.011  24.162   3.234
 4211W        W63505  28.039  39.460  14.795
 4212W        W63506  17.565  19.250  14.805
 4213W        W63507  44.317  11.267   2.195
 4214W        W63508  10.715  23.053  11.566
 4215W        W63509   0.324   5.207   3.379
 4216W        W63510  14.163   5.340  14.837
 4217W        W63511  20.572  33.530   1.832
 4218W        W63512  25.068  43.389   0.765
 4219W        W63513  26.172   7.670  12.359
 4220W        W63514   3.451  31.522  13.407
 4221W        W63515   7.202  21.018  14.836
 4222W        W63516   7.665   4.221  11.443
 4223W        W63517  42.407  20.162   2.774
 4224W        W63518  28.042  14.802   2.182
 4225W        W63519  40.371  13.266   2.873
 4226W        W63520  39.988   1.444   4.671
 4227W        W63521  35.522  32.995  14.451
 4228W        W63522  13.260  21.691  13.509
 4229W        W63523  26.089   1.873  11.496
 4230W        W63524  43.769  29.536  12.978
 4231W        W63525  16.591  10.635   4.331
 4232W        W63526  16.185  17.648  12.393
 4233W        W63527   3.448  43.477  12.060
 4234W        W63528  17.744   4.228  11.942
 4235W        W63529  31.968  28.079  14.433
 4236W        W63530   9.165  42.887   3.385
 4237W        W63531  31.911  22.074  14.813
 4238W        W63532   3.289   1.896   0.255
 4239W        W63533  39.008   7.238  12.403
 4240W        W63534  32.105   5.803   3.183
 4241W        W63535  15.803  44.291   4.636
 4242W        W63536   9.237  27.073   1.770
 4243W        W63537   0.362  40.418   0.731
 4244W        W63538  11.661  24.041   2.224
 4245W        W63539  33.894  43.022  14.878
 4246W        W63540  41.961   5.289   1.317
 4247W        W63541  24.221  35.589   3.725
 4248W        W63542  42.321  38.477  14.944
 4249W        W63543  38.427   6.237  13.336
 4250W        W63544  35.960  22.197   0.760
 4251W        W63545  13.292  12.169  12.510
 4252W        W63546  37.939  23.642   4.167
 4253W        W63547  18.081  20.688  11.527
 4254W        W63548  11.751   6.715  14.969
 4255W        W63549   2.901  31.146  11.589
 4256W        W63550  22.632   5.758   1.356
 4257W        W63551  43.427  11.657   4.241
 4258W        W63552  12.853  31.924  11.568
 4259W        W63553  29.113   0.743   0.471
 4260W        W63554  13.183  36.003  11.063
 4261W        W63555  31.629  22.173   1.845
 4262W        W63556  38.904   7.376  13.533
 4263W        W63557  28.608  25.643  10.554
 4264W        W63558   6.283  43.781  14.854
 4265W        W63559  18.547  20.031  11.424
 4266W        W63560   1.382   5.920  13.819
 4267W        W63561  13.687   5.751  12.906
 4268W        W63562  42.886  39.457   0.773
 4269W        W63563  22.202  30.492  12.343
 4270W        W63564   5.703  22.238  13.966
 4271W        W63565   2.765   6.783   2.896
 4272W        W63566  27.067  24.721  11.118
 4273W        W63567  10.779  27.045   4.223
 4274W        W63568  31.630  31.645   4.223
 4275W        W63569  35.988   5.302   5.283
 4276W        W63570  38.913  36.903  12.002
 4277W        W63571  35.877  17.612   0.375
 4278W        W63572  11.146  36.486   4.246
 4279W        W63573  33.427  36.428   4.779
 4280W        W63574   2.375   9.232   0.483
 4281W        W63575  15.690  19.100   2.248
 4282W        W63576  40.880  17.142   4.145
 4283W        W63577   8.790  13.347   0.936
 4284W        W63578  17.767   4.235  14.294
 4285W        W63579  26.993  34.050   4.119
 4286W        W63580   9.828  11.699   4.148
 4287W        W63581  33.383  42.421   3.654
 4288W        W63582  40.316   9.275  10.595
 4289W        W63583  43.858  22.122  13.484
 4290W        W63584  27.481  39.889   1.795
 4291W        W63585  30.453   3.930   4.196
 4292W        W63586  42.775  28.582   3.316
 4293W        W63587  31.561  10.280   5.279
 4294W        W63588  20.041  20.524   0.767
 4295W        W63589  18.743  31.960  13.804
 4296W        W63590  41.010  31.538   0.343
 4297W        W63591  26.479  32.633   0.274
 4298W        W63592  18.619  43.330  11.450
 4299W        W63593   9.231  17.773  11.390
 4300W        W63594   6.735  30.506   4.690
 4301W        W63595  21.678  34.573  12.872
 4302W        W63596  38.454  29.663   2.342
 4303W        W63597  28.169   2.308  11.014
 4304W        W63598  34.615   1.351  11.904
 4305W        W63599  35.861  14.718  11.513
 4306W        W63600  34.966  35.417  11.471
 4307W        W63601   9.648   4.895   0.297
 4308W        W63602  14.310  33.419   1.233
 4309W        W63603  31.060  19.713  10.465
 4310W        W63604  16.755  26.497   2.216
 4311W        W63605  24.008  17.306   3.806
 4312W        W63606  40.844  13.816  11.555
 4313W        W63607  27.042  12.290   3.379
 4314W        W63608  34.048  24.190   1.750
 4315W        W63609  21.049  26.135   2.891
 4316W        W63610  39.856   9.334  13.834
 4317W        W63611   9.273  17.686   1.339
 4318W        W63612  19.212  10.236   0.481
 4319W        W63613   9.383  29.149   2.726
 4320W        W63614  28.648  22.137  11.022
 4321W        W63615  27.051   2.381   0.292
 4322W        W63616  19.079  42.361   4.789
 4323W        W63617  30.457  35.881  13.380
 4324W        W63618  27.000  10.769   1.384
 4325W        W63619  33.040  12.674   3.386
 4326W        W63620  35.423   4.911   0.807
 4327W        W63621  20.577  38.883  12.497
 4328W        W63622  23.063   3.238  11.986
 4329W        W63623  20.607   8.665   0.738
 4330W        W63624   1.948  15.692  12.876
 4331W        W63625  15.291   0.399  13.858
 4332W        W63626  35.052  26.596   4.632
 4333W        W63627  38.958  10.271  12.915
 4334W        W63628   3.850   2.896   0.454
 4335W        W63629  38.073  19.168  10.974
 4336W        W63630  40.355   8.291  13.821
 4337W        W63631  15.154  44.920   3.865
 4338W        W63632  33.434   8.789  13.425
 4339W        W63633  37.558  28.512   1.924
 4340W        W63634   7.710  21.153   2.793
 4341W        W63635  29.548  34.918  14.405
 4342W        W63636  26.540  41.839   0.893
 4343W        W63637   3.711  30.509  11.574
 4344W        W63638  20.183  40.416   4.642
 4345W        W63639   0.461   4.316   3.345
 4346W        W63640   4.356  26.109   2.781
 4347W        W63641  13.622   3.750   0.412
 4348W        W63642   3.722  29.654  12.540
 4349W        W63643  26.196  26.989   0.404
 4350W        W63644  13.322  40.953   2.838
 4351W        W63645  41.347  14.176   2.195
 4352W        W63646  24.594  20.242  10.433
 4353W        W63647   4.924   7.210   2.409
 4354W        W63648  26.109  23.023  11.128
 4355W        W63649   2.416  43.961  10.090
 4356W        W63650   4.297  37.460  13.413
 4357W        W63651  41.804   3.234  12.907
 4358W        W63652   2.939  38.436   0.290
 4359W        W63653  18.788  38.512   3.368
 4360W        W63654  43.884  10.371   3.268
 4361W        W63655   3.878   9.707  11.426
 4362W        W63656  21.156  16.253  10.543
 4363W        W63657  32.979  28.490   3.275
 4364W        W63658  22.115   5.779  11.522
 4365W        W63659   1.285   2.284  12.950
 4366W        W63660  12.821  32.943   0.759
 4367W        W63661  28.566  14.813   0.269
 4368W        W63662  36.884  27.100  13.491
 4369W        W63663  42.889  12.611  11.917
 4370W        W63664   7.854   8.235   2.274
 4371W        W63665  22.660  22.595  10.967
 4372W        W63666  32.424  11.313   2.723
 4373W        W63667  30.029  44.812   0.929
 4374W        W63668   9.313  35.482   4.305
 4375W        W63669  12.639   4.294   0.441
 4376W        W63670   7.802  20.271  14.360
 4377W        W63671  31.566  25.542   2.191
 4378W        W63672  30.601   7.210   2.358
 4379W        W63673  21.653  38.544  12.034
 4380W        W63674  35.483  37.442  13.526
 4381W        W63675  42.879  41.016  11.389
 4382W        W63676  12.658  34.383   1.285
 4383W        W63677  24.100   4.439   3.342
 4384W        W63678  13.681  33.097   1.814
 4385W        W63679  19.160  41.028   4.139
 4386W        W63680  21.178   2.384   3.664
 4387W        W63681  23.583  32.519  13.399
 4388W        W63682  37.923  43.277   3.758
 4389W        W63683  31.088  11.867  11.873
 4390W        W63684  15.629   6.887  11.525
 4391W        W63685  29.132  26.960  12.345
 4392W        W63686  13.705   6.812  14.965
 4393W        W63687  38.467   7.847   2.370
 4394W        W63688  43.977  23.017  11.991
 4395W        W63689  39.937  44.308  11.017
 4396W        W63690  24.140  14.308  12.905
 4397W        W63691  29.640  15.605   2.232
 4398W        W63692  32.619  19.205   4.633
 4399W        W63693  25.707   3.941  14.342
 4400W        W63694  22.660  26.559   3.166
 4401W        W63695  35.927  16.230   4.250
 4402W        W63696  42.493   5.435  11.443
 4403W        W63697  15.766   5.240   3.840
 4404W        W63698  34.595  19.658   1.412
 4405W        W63699   5.402  44.371   4.132
 4406W        W63700  25.145  34.534  12.087
 4407W        W63701  21.711   9.693   3.867
 4408W        W63702  18.600  26.995   0.813
 4409W        W63703   2.855   8.786   1.387
 4410W        W63704   9.705  10.191   2.393
 4411W        W63705  21.705  36.544  12.960
 4412W        W63706  36.071  18.195   4.784
 4413W        W63707  25.664  18.683   1.278
 4414W        W63708  38.948  36.986   5.212
 4415W        W63709   1.775  10.697  14.318
 4416W        W63710  32.136  37.398  14.010
 4417W        W63711  35.585  42.316  11.409
 4418W        W63712  33.947  29.564   3.633
 4419W        W63713  32.547   6.266  14.384
 4420W        W63714  37.968   6.338   2.245
 4421W        W63715  17.715  28.015  13.869
 4422W        W63716  32.001  29.512  14.870
 4423W        W63717   7.257  31.089   2.681
 4424W        W63718   6.329   1.317   1.832
 4425W        W63719  21.066   8.163  14.412
 4426W        W63720  33.547   2.336  14.988
 4427W        W63721  17.125   7.732   4.625
 4428W        W63722   0.427  34.004  12.531
 4429W        W63723   3.306  13.226  13.971
 4430W        W63724   8.898  13.312  11.100
 4431W        W63725  14.645  38.940  13.933
 4432W        W63726   6.825  33.473   3.845
 4433W        W63727  17.682  40.525   1.871
 4434W        W63728  37.066  28.101   1.387
 4435W        W63729  23.145  40.929  13.913
 4436W        W63730  40.994  37.516  11.589
 4437W        W63731  21.054  35.982  12.429
 4438W        W63732  21.248  40.428   1.711
 4439W        W63733  21.594  20.082  13.893
 4440W        W63734  27.120  28.081   3.659
 4441W        W63735   4.810  40.819  11.401
 4442W        W63736  43.817  37.847   3.787
 4443W        W63737  29.927   2.873   1.789
 4444W        W63738   0.920   4.860   0.845
 4445W        W63739  11.172  20.723   4.340
 4446W        W63740  35.449  33.440   0.754
 4447W        W63741  13.178  31.945  12.066
 4448W        W63742   5.384  19.619   5.153
 4449W        W63743  40.043  14.723   3.152
 4450W        W63744  39.840   3.267   0.253
 4451W        W63745  28.141  23.526   1.817
 4452W        W63746   3.903  12.785   0.273
 4453W        W63747   4.777  11.310  12.860
 4454W        W63748  44.836  31.125  13.467
 4455W        W63749  10.738   6.877  12.059
 4456W        W63750  11.760  11.732   1.770
 4457W        W63751   6.745   1.866  14.871
 4458W        W63752  19.538   5.897   2.260
 4459W        W63753  23.066  10.706   3.210
 4460W        W63754  37.910  15.297   2.890
 4461W        W63755   3.400  28.095  14.032
 4462W        W63756   3.924  30.481   1.356
 4463W        W63757  41.984  41.858  14.031
 4464W        W63758  14.664  16.270   4.718
 4465W        W63759  33.509  21.061   0.323
 4466W        W63760  42.384   4.421   3.230
 4467W        W63761  37.459  24.519  10.635
 4468W        W63762  26.134  16.115   2.245
 4469W        W63763  36.968  40.893   0.383
 4470W        W63764   7.334  39.396   4.287
 4471W        W63765  28.531  20.743  12.401
 4472W        W63766  37.533  23.066   3.649
 4473W        W63767  21.588  19.692  11.424
 4474W        W63768  41.338  42.421  12.917
 4475W        W63769   3.901  26.052   3.150
 4476W        W63770  42.996  36.969   2.791
 4477W        W63771  20.037  16.219  13.888
 4478W        W63772   2.832  28.506  13.449
 4479W        W63773  30.151  10.807  14.797
 4480W        W63774  11.137   1.333   4.674
 4481W        W63775  13.228  32.533   4.789
 4482W        W63776   7.306   7.278   4.310
 4483W        W63777  37.852  23.556   3.764
 4484W        W63778   7.845  35.084   4.727
 4485W        W63779  25.509   0.289  13.794
 4486W        W63780  25.598  12.737  14.029
 4487W        W63781  25.610  43.772  14.474
 4488W        W63782   6.812  24.565  14.016
 4489W        W63783   3.855  15.801   1.900
 4490W        W63784  17.774  11.715  12.455
 4491W        W63785  15.688  35.980   1.313
 4492W        W63786  44.287  30.006   2.897
 4493W        W63787  20.036  13.223  13.034
 4494W        W63788  21.052  10.141   1.256
 4495W        W63789   1.863   0.764  12.446
 4496W        W63790  32.442  11.139   3.711
 4497W        W63791  27.509  38.010   2.671
 4498W        W63792  43.284  39.939   1.792
 4499W        W63793   5.692  22.509  11.931
 4500W        W63794  39.465  27.159   0.401
 4501W        W63795   6.771  30.561   2.241
 4502W        W63796  14.175   7.892  11.575
 4503W        W63797  11.827  29.153  13.023
 4504W        W63798  39.857   2.917   4.149
 4505W        W63799  15.607  28.550  10.572
 4506W        W63800   9.358  25.971   1.370
 4507W        W63801  27.570  26.036  10.918
 4508W        W63802  11.638  30.077  12.936
 4509W        W63803  11.256  42.509   0.468
 4510W        W63804   7.203  40.340  11.075
 4511W        W63805  28.649  26.096  12.472
 4512W        W63806   0.331  40.887  11.513
 4513W        W63807   6.804   5.424  13.479
 4514W        W63808  34.961  17.244   1.375
 4515W        W63809  28.477  15.818  13.353
 4516W        W63810  19.749  26.009   1.245
 4517W        W63811  26.498  31.486  11.372
 4518W        W63812  22.033  22.046  13.386
 4519W        W63813  30.939  42.360   0.347
 4520W        W63814  37.347  18.117   9.928
 4521W        W63815  19.111   6.339  13.335
 4522W        W63816  44.825  20.152   2.411
 4523W        W63817  43.474  30.657  13.053
 4524W        W63818   2.432  34.994   1.857
 4525W        W63819  35.056  21.595  12.855
 4526W        W63820  13.622   4.757  14.445
 4527W        W63821  32.062  30.580   2.388
 4528W        W63822  26.095  23.129   1.757
 4529W        W63823  38.928  11.629  11.881
 4530W        W63824  10.354   8.174  13.993
 4531W        W63825  35.534  15.690  14.811
 4532W        W63826  15.596  13.136   5.244
 4533W        W63827  24.562   5.354  11.874
 4534W        W63828  20.576   8.266   1.876
 4535W        W63829  35.536  20.244   0.880
 4536W        W63830   7.859  40.328  13.942
 4537W        W63831  43.381  13.624  10.552
 4538W        W63832  30.909  39.936   0.262
 4539W        W63833  22.062  36.081   4.217
 4540W        W63834  10.303  40.517   1.756
 4541W        W63835  38.975   4.743  12.479
 4542W        W63836  39.324  27.498   3.153
 4543W        W63837  40.028  17.742   3.254
 4544W        W63838   8.718   9.719  12.463
 4545W        W63839  37.891   2.890  14.503
 4546W        W63840   2.274  39.830  10.984
 4547W        W63841   1.774   1.291  14.351
 4548W        W63842  21.114  33.991   0.402
 4549W        W63843   4.865  20.235   1.373
 4550W        W63844  20.201  12.293   2.348
 4551W        W63845  22.684  11.829   1.283
 4552W        W63846  16.735   9.222   4.733
 4553W        W63847  25.144  39.906   1.406
 4554W        W63848   2.728   4.308   0.950
 4555W        W63849  38.046  17.696   3.712
 4556W        W63850  14.655  32.544  10.477
 4557W        W63851  11.766  30.122   0.859
 4558W        W63852  40.965  34.080   3.673
 4559W        W63853   6.738  19.734   4.173
 4560W        W63854  13.151  17.253  13.044
 4561W        W63855  44.000  13.135   4.818
 4562W        W63856  23.173  31.471   0.921
 4563W        W63857  32.435  12.825  12.937
 4564W        W63858  35.036  24.020  14.955
 4565W        W63859  44.002   5.372  10.614
 4566W        W63860   9.385  19.630  14.976
 4567W        W63861  37.884  12.306   3.231
 4568W        W63862   9.658   7.782  13.808
 4569W        W63863  44.451  40.485  13.008
 4570W        W63864  33.523   0.839   0.439
 4571W        W63865  29.044   3.748   1.819
 4572W        W63866  37.351   4.794  12.553
 4573W        W63867  42.310  39.050   0.819
 4574W        W63868  27.972   0.337  12.033
 4575W        W63869   6.891  42.957   1.882
 4576W        W63870  23.121  17.264  10.487
 4577W        W63871   7.719   9.374  11.988
 4578W        W63872  10.341  19.608  13.352
 4579W        W63873  42.321  10.291  13.011
 4580W        W63874  17.063  43.346   2.787
 4581W        W63875  26.040   3.455  10.589
 4582W        W63876   0.441   2.848  13.924
 4583W        W63877   2.375  15.682  11.857
 4584W        W63878  31.092   1.754  13.434
 4585W        W63879  43.939  16.314  12.901
 4586W        W63880  12.755  41.818   2.286
 4587W        W63881  21.094  38.002  11.042
 4588W        W63882  34.036  15.235  14.382
 4589W        W63883   2.881   3.764   0.425
 4590W        W63884  35.077  10.337  12.371
 4591W        W63885  31.011   9.188  11.895
 4592W        W63886  32.490  12.162  11.552
 4593W        W63887  16.225  23.619   0.337
 4594W        W63888  12.755   7.331   1.698
 4595W        W63889  35.993   7.831   1.851
 4596W        W63890  22.078   1.429  13.887
 4597W        W63891  36.450  27.092   2.322
 4598W        W63892  44.893   4.757  10.508
 4599W        W63893  39.501   6.887  12.450
 4600W        W63894  20.112   2.939  12.421
 4601W        W63895  42.439  36.377   4.674
 4602W        W63896  34.039  35.078  12.502
 4603W        W63897  29.153  26.033  10.587
 4604W        W63898   9.230  29.558   1.276
 4605W        W63899  21.535  20.141  14.772
 4606W        W63900  41.418  39.344  10.963
 4607W        W63901  15.105  17.567  14.351
 4608W        W63902  13.208  31.927  14.353
 4609W        W63903  17.160  16.800   3.770
 4610W        W63904  10.380  40.475  10.934
 4611W        W63905  12.795  38.376  14.383
 4612W        W63906  23.146  29.556   1.376
 4613W        W63907  27.994  17.581   0.328
 4614W        W63908  44.292  38.405   1.402
 4615W        W63909  18.776  25.133  13.492
 4616W        W63910  42.398  43.453   0.741
 4617W        W63911  39.918  16.112   0.419
 4618W        W63912  44.807   1.326   1.826
 4619W        W63913   4.224  32.130  12.037
 4620W        W63914  13.697   0.405  11.375
 4621W        W63915  29.127  13.245   1.863
 4622W        W63916   6.407  13.201  10.590
 4623W        W63917   6.218   9.877  10.890
 4624W        W63918  39.380  17.677  12.359
 4625W        W63919  42.522  40.336   4.709
 4626W        W63920  18.632  29.572  12.955
 4627W        W63921  37.573   8.250   1.746
 4628W        W63922  10.879  38.853   4.612
 4629W        W63923  25.101  19.718  12.006
 4630W        W63924  17.167  26.553  13.974
 4631W        W63925  36.498   1.903   2.730
 4632W        W63926  13.795  10.769  11.005
 4633W        W63927   8.769  10.346  10.519
 4634W        W63928   2.957  40.044  12.850
 4635W        W63929  37.536  36.019   1.737
 4636W        W63930  26.179  39.554  12.444
 4637W        W63931   5.359  43.947   2.195
 4638W        W63932   4.747  28.999   3.305
 4639W        W63933   4.421  30.082  12.021
 4640W        W63934  39.511  39.989   1.897
 4641W        W63935  37.981  17.184  13.523
 4642W        W63936  42.005  44.000   3.353
 4643W        W63937  30.029  24.172   4.281
 4644W        W63938   0.964   4.335  11.535
 4645W        W63939  10.726   5.772   1.284
 4646W        W63940  32.022  28.940   0.964
 4647W        W63941  21.736  25.169   4.317
 4648W        W63942   3.745  24.523   2.825
 4649W        W63943  27.160   5.878   0.265
 4650W        W63944   0.268  27.600   2.720
 4651W        W63945  43.303  24.608  13.428
 4652W        W63946  40.904  34.990   1.350
 4653W        W63947   7.738   6.261   2.892
 4654W        W63948  23.985   0.817  12.945
 4655W        W63949  39.867  18.069  12.054
 4656W        W63950   5.766  39.848   2.349
 4657W        W63951  41.386  10.871  13.384
 4658W        W63952  27.535  41.410  14.370
 4659W        W63953  36.951  19.143   1.233
 4660W        W63954  12.174   1.921   1.268
 4661W        W63955   3.835  10.350   2.199
 4662W        W63956  35.010  40.538   1.725
 4663W        W63957   1.409  37.056  12.998
 4664W        W63958  30.042   0.265  11.398
 4665W        W63959  36.478  14.743   2.847
 4666W        W63960  42.998   7.285  11.126
 4667W        W63961  42.897  42.314  13.485
 4668W        W63962  42.930  21.083  13.312
 4669W        W63963   4.729   2.386  14.872
 4670W        W63964  13.727  43.502   2.187
 4671W        W63965  29.531  36.863  12.083
 4672W        W63966  27.525   7.279  14.499
 4673W        W63967  26.034  15.148  12.084
 4674W        W63968  36.422   8.850  12.356
 4675W        W63969  18.655  13.314   3.340
 4676W        W63970  18.579  42.010   3.774
 4677W        W63971  15.203  22.685  11.866
 4678W        W63972  12.222  13.611  14.437
 4679W        W63973  19.615  16.191  14.825
 4680W        W63974  37.875  36.388   4.244
 4681W        W63975  24.673  44.985   4.635
 4682W        W63976   2.860  32.992  11.110
 4683W        W63977  36.024   0.743  14.359
 4684W        W63978  11.354  25.171  13.524
 4685W        W63979  19.671  42.388   1.799
 4686W        W63980   9.323   5.367   2.715
 4687W        W63981  10.348  17.560  11.931
 4688W        W63982   3.386   2.941   0.457
 4689W        W63983  10.233  25.161   0.885
 4690W        W63984   0.841  44.841  13.441
 4691W        W63985   3.307  34.985  14.384
 4692W        W63986  35.466  20.767  12.413
 4693W        W63987  43.308  44.387  12.864
 4694W        W63988  22.667   0.774   0.423
 4695W        W63989   6.838  35.430  11.954
 4696W        W63990   1.267  40.518   2.372
 4697W        W63991   6.407  41.986   4.764
 4698W        W63992  20.608  17.173   1.919
 4699W        W63993  26.953   1.776  13.880
 4700W        W63994  11.293  29.008  11.378
 4701W        W63995   8.799   9.860   4.614
 4702W        W63996  34.433   7.744   1.330
 4703W        W63997  31.957   2.868   3.732
 4704W        W63998  30.575   5.725  11.959
 4705W        W63999   2.902   6.224   3.654
 4706W        W64000  42.511  18.090   3.158
 4707W        W64001  32.953  26.487  13.927
 4708W        W64002  40.474   4.932  11.069
 4709W        W64003  24.598  13.750  13.894
 4710W        W64004  25.019  15.135   1.767
 4711W        W64005  44.448  41.044  12.974
 4712W        W64006  26.961   5.230  12.888
 4713W        W64007   9.757  35.874   0.478
 4714W        W64008  24.561  36.098  10.617
 4715W        W64009   8.372  36.569   3.665
 4716W        W64010  14.833   6.879  12.411
 4717W        W64011  30.474  14.613  13.357
 4718W        W64012  25.158  24.089   4.144
 4719W        W64013  41.510  36.086   3.867
 4720W        W64014   2.844  19.163   2.857
 4721W        W64015  40.323  43.882  14.297
 4722W        W64016  21.715  32.952   3.691
 4723W        W64017  27.086  18.710  10.476
 4724W        W64018  12.276  29.025   0.810
 4725W        W64019  42.359  21.752  12.422
 4726W        W64020   0.762  11.276  13.502
 4727W        W64021   4.711  11.267   2.883
 4728W        W64022  40.051   6.877   1.701
 4729W        W64023  22.683   3.835   2.884
 4730W        W64024  27.094  34.597  14.954
 4731W        W64025  22.065  24.496  13.432
 4732W        W64026  40.353  38.521  13.461
 4733W        W64027  21.605  44.370   3.319
 4734W        W64028  12.147  26.606  10.039
 4735W        W64029  14.296   3.283  13.866
 4736W        W64030  29.131  41.988  14.354
 4737W        W64031  42.521  12.172  14.315
 4738W        W64032  28.958  10.826   2.688
 4739W        W64033   4.296  19.232   4.220
 4740W        W64034  10.359   5.312  13.998
 4741W        W64035   7.750  15.582  11.929
 4742W        W64036   1.288  42.403  12.360
 4743W        W64037  20.656  20.090  12.462
 4744W        W64038  44.376   5.764  11.949
 4745W        W64039  12.360  40.910  12.956
 4746W        W64040  37.524  24.983  11.053
 4747W        W64041  33.620  36.049   4.156
 4748W        W64042  33.055   6.402  12.973
 4749W        W64043  10.765  40.452   3.866
 4750W        W64044   3.813  13.750  10.582
 4751W        W64045  36.067  38.834  12.848
 4752W        W64046  30.434  25.182  12.057
 4753W        W64047  41.979  44.812   2.205
 4754W        W64048  40.888  42.364  10.954
 4755W        W64049  27.068  17.132   4.765
 4756W        W64050  42.460  28.107  13.900
 4757W        W64051  12.652   2.469  14.290
 4758W        W64052  13.256  10.691   0.829
 4759W        W64053  24.545   7.346  13.947
 4760W        W64054  14.677  44.270   0.888
 4761W        W64055  18.288   0.857  14.991
 4762W        W64056  22.027  30.621   2.219
 4763W        W64057  35.459  42.317   1.425
 4764W        W64058  14.313  43.980   4.237
 4765W        W64059  18.264  25.131   3.371
 4766W        W64060  30.078   7.761  14.806
 4767W        W64061   4.715  28.536  13.023
 4768W        W64062  26.075  29.981   2.884
 4769W        W64063  35.384  20.658   2.349
 4770W        W64064   6.693  20.711   0.747
 4771W        W64065   8.856   7.288  11.532
 4772W        W64066  39.845  30.576   0.298
 4773W        W64067  25.974   0.766  12.474
 4774W        W64068   7.211  36.406  13.373
 4775W        W64069   8.864  29.007   2.281
 4776W        W64070  27.608  25.196  13.470
 4777W        W64071   0.489  25.491   3.824
 4778W        W64072   1.265  43.274  10.488
 4779W        W64073  27.064  39.326   3.156
 4780W        W64074  27.133   1.275   4.185
 4781W        W64075  37.489  22.155  13.950
 4782W        W64076   1.842   4.823  13.441
 4783W        W64077  41.852  38.887  11.960
 4784W        W64078  24.222  19.112   3.185
 4785W        W64079   8.362   8.753  11.513
 4786W        W64080  11.675  40.050  13.062
 4787W        W64081  42.976  28.126  10.527
 4788W        W64082  39.825  20.175   0.375
 4789W        W64083  34.885   6.866   4.819
 4790W        W64084  20.730  35.942  12.044
 4791W        W64085  36.531  41.952   3.844
 4792W        W64086   3.910  25.037   2.833
 4793W        W64087   7.772  36.553   4.139
 4794W        W64088  24.009  27.660  13.407
 4795W        W64089  23.526  21.260  11.000
 4796W        W64090   7.745  28.569  11.532
 4797W        W64091  16.751  43.283  12.533
 4798W        W64092  36.013  28.484  13.382
 4799W        W64093  12.713  27.474   2.289
 4800W        W64094  40.362  28.083  12.832
 4801W        W64095  11.338   7.712  12.494
 4802W        W64096   7.879  35.936   0.880
 4803W        W64097  37.869  44.919  12.434
 4804W        W64098  28.996  34.045  11.538
 4805W        W64099  25.071  25.110  14.478
 4806W        W64100  12.228  18.149   4.152
 4807W        W64101   9.829  18.076   2.782
 4808W        W64102  42.970  40.048   4.627
 4809W        W64103  19.095  16.739   0.270
 4810W        W64104   4.338   5.732   0.282
 4811W        W64105  37.907  21.756  10.936
 4812W        W64106   1.316  15.769   4.293
 4813W        W64107   9.875  18.663   4.321
 4814W        W64108  20.735  23.644  12.846
 4815W        W64109  43.375  25.003  14.285
 4816W        W64110  14.589  20.630   3.790
 4817W        W64111  23.219  35.000  10.977
 4818W        W64112  23.098  44.902   4.728
 4819W        W64113   3.280  18.230  13.000
 4820W        W64114  22.543  13.739   3.762
 4821W        W64115  32.497  29.511   1.860
 4822W        W64116  16.707   2.351  10.629
 4823W        W64117   0.844   5.392  10.435
 4824W        W64118   9.150  39.430  11.576
 4825W        W64119  12.172  11.299   2.233
 4826W        W64120  44.391  34.539   4.215
 4827W        W64121  23.227  40.916  12.564
 4828W        W64122  18.070   6.913  14.303
 4829W        W64123  32.961  29.081   2.299
 4830W        W64124  41.409  10.749   1.753
 4831W        W64125  22.180  30.120   3.757
 4832W        W64126  30.946  32.961  12.456
 4833W        W64127  39.948  17.229   0.955
 4834W        W64128  23.185  39.841  14.319
 4835W        W64129  12.798  34.581   0.285
 4836W        W64130  11.232  31.074   0.371
 4837W        W64131  20.617  17.688  11.427
 4838W        W64132  22.611  30.548  12.420
 4839W        W64133  14.155   4.922  11.909
 4840W        W64134   0.806  23.188   3.297
 4841W        W64135   6.246   7.335  10.965
 4842W        W64136  26.048  24.198   1.730
 4843W        W64137  12.330   6.821  14.295
 4844W        W64138   7.244  26.030  12.519
 4845W        W64139  15.696  35.058  10.992
 4846W        W64140  43.976  14.244  13.029
 4847W        W64141  26.541   8.816   4.746
 4848W        W64142  36.061  32.580  14.510
 4849W        W64143  31.435   5.398  14.298
 4850W        W64144  43.278  15.228  14.999
 4851W        W64145  11.784  40.802  12.024
 4852W        W64146  17.060  21.107  11.574
 4853W        W64147  38.334  37.077   5.214
 4854W        W64148  21.189  29.121   2.406
 4855W        W64149  25.980  24.188  14.853
 4856W        W64150  39.922  33.991   2.201
 4857W        W64151  26.069  18.125  13.335
 4858W        W64152   4.751   9.702  12.827
 4859W        W64153  25.014  42.842   2.296
 4860W        W64154   0.836  42.878   2.412
 4861W        W64155   6.850  42.443   0.891
 4862W        W64156  27.128   0.262  11.476
 4863W        W64157  37.484  27.994   0.382
 4864W        W64158  27.637   3.374  13.467
 4865W        W64159  23.192  20.092  12.952
 4866W        W64160  12.335   9.680   1.724
 4867W        W64161  39.431  27.502  10.569
 4868W        W64162  40.457  14.245   2.903
 4869W        W64163  12.639  17.684   2.747
 4870W        W64164  24.481   9.791   0.956
 4871W        W64165   2.388  39.520   4.323
 4872W        W64166  42.852  26.538   0.305
 4873W        W64167  31.061   3.290   4.224
 4874W        W64168   4.353  16.595   3.186
 4875W        W64169   5.334  35.473  11.103
 4876W        W64170  35.470  36.027   0.354
 4877W        W64171  37.925  36.083  12.456
 4878W        W64172  25.017  23.047  12.838
 4879W        W64173  37.082  22.584   4.192
 4880W        W64174  42.849  34.496  14.968
 4881W        W64175  12.128  25.184  14.003
 4882W        W64176  31.933   6.339  13.387
 4883W        W64177  21.028  31.488   3.287
 4884W        W64178   3.830   8.250  14.781
 4885W        W64179   0.262   9.739  12.089
 4886W        W64180  12.214  39.883   4.186
 4887W        W64181  21.750  32.124  12.429
 4888W        W64182  26.025  25.187  11.990
 4889W        W64183  14.146  15.262   1.720
 4890W        W64184   8.305  10.875  14.934
 4891W        W64185  12.707  13.235   4.319
 4892W        W64186   8.878   1.865   9.959
 4893W        W64187  26.646  41.362  10.921
 4894W        W64188   1.847  29.597   2.222
 4895W        W64189  18.219  43.309   1.780
 4896W        W64190  20.701  26.651   1.433
 4897W        W64191  19.664  21.596   0.897
 4898W        W64192  29.521  31.932   0.342
 4899W        W64193   2.386  28.600   1.720
 4900W        W64194   7.670  18.204   2.353
 4901W        W64195  21.212  37.553   3.284
 4902W        W64196  41.803  12.704   3.749
 4903W        W64197  12.841  34.419  13.807
 4904W        W64198   9.784  28.588   4.779
 4905W        W64199  43.809  29.573  13.342
 4906W        W64200  12.209  12.702  11.468
 4907W        W64201   9.191  44.778   0.287
 4908W        W64202  36.096   0.490   1.837
 4909W        W64203  27.501   9.366  11.491
 4910W        W64204   7.249   7.716  14.501
 4911W        W64205  24.643  22.587  14.973
 4912W        W64206  23.062  18.147  13.019
 4913W        W64207   8.755  20.139  14.846
 4914W        W64208  20.146  13.241  13.383
 4915W        W64209  12.309  43.434  10.642
 4916W        W64210  17.176  39.387   0.812
 4917W        W64211  13.671  15.087  13.531
 4918W        W64212  32.611  27.119  14.473
 4919W        W64213  31.508  12.151  12.886
 4920W        W64214  13.189  31.451  14.508
 4921W        W64215  18.637  15.713  11.538
 4922W        W64216  27.083   9.746   3.199
 4923W        W64217  22.046  34.961  10.551
 4924W        W64218   8.166   1.315  14.773
 4925W        W64219  30.155   7.277   0.285
 4926W        W64220  43.890  26.617  12.415
 4927W        W64221   0.956   2.904  13.891
 4928W        W64222   6.346  18.637  11.565
 4929W        W64223  20.693   9.165  12.356
 4930W        W64224  36.926   5.788  10.039
 4931W        W64225  18.638  15.578  10.080
 4932W        W64226  34.019  37.521   4.189
 4933W        W64227  16.236  24.065  14.293
 4934W        W64228   6.329  12.622  11.499
 4935W        W64229   3.284  14.260  11.401
 4936W        W64230   2.737  28.635  12.900
 4937W        W64231   4.819  26.470   0.318
 4938W        W64232  32.898  24.517  10.548
 4939W        W64233  21.580  26.016  10.946
 4940W        W64234   4.400   0.947   5.139
 4941W        W64235  32.534  28.469  13.060
 4942W        W64236   1.403  23.107  13.872
 4943W        W64237   8.360  31.092   0.935
 4944W        W64238   7.345  35.435  11.596
 4945W        W64239  35.004  12.758   3.361
 4946W        W64240  41.988  24.547  10.510
 4947W        W64241   2.244  39.889   2.281
 4948W        W64242   5.864  20.591  13.451
 4949W        W64243  41.028  40.535  14.501
 4950W        W64244  15.690  26.194  13.879
 4951W        W64245  37.054  32.615   4.755
 4952W        W64246  35.398  25.135   0.871
 4953W        W64247  34.447  22.033   1.727
 4954W        W64248  42.869  20.229  10.471
 4955W        W64249   0.821  20.734  10.904
 4956W        W64250  41.491  14.151  10.579
 4957W        W64251   1.793  33.927  13.427
 4958W        W64252   0.251   6.366  12.545
 4959W        W64253  21.739  40.313  13.500
 4960W        W64254   3.799   4.900   3.332
 4961W        W64255  43.410   1.967   2.270
 4962W        W64256  36.855   4.312  12.049
 4963W        W64257  21.602  26.009   0.751
 4964W        W64258  35.413  34.591  11.100
 4965W        W64259  30.128  19.094   1.866
 4966W        W64260  22.552  35.054   5.227
 4967W        W64261  31.423   2.464   1.212
 4968W        W64262   4.433  31.003  11.584
 4969W        W64263   3.720  40.851   4.737
 4970W        W64264  25.622  35.397  14.945
 4971W        W64265  40.844  35.966  10.920
 4972W        W64266   7.386  42.939  14.855
 4973W        W64267   4.755  13.786   0.760
 4974W        W64268  38.027  43.430  10.631
 4975W        W64269   0.908  31.542   2.819
 4976W        W64270  36.076   9.730   0.944
 4977W        W64271  27.101  11.352   2.235
 4978W        W64272  15.230   0.903  14.371
 4979W        W64273  10.347  16.798   4.640
 4980W        W64274   0.832  11.170   0.777
 4981W        W64275   5.888  10.845  11.440
 4982W        W64276  29.062   1.813   0.408
 4983W        W64277   0.959  13.170   1.235
 4984W        W64278  39.480  34.113  14.796
 4985W        W64279  33.512  23.061  14.902
 4986W        W64280   0.372  27.516  14.279
 4987W        W64281  26.537  17.147  14.868
 4988W        W64282  40.861  30.099  11.581
 4989W        W64283  43.836  42.031  10.645
 4990W        W64284  40.016  34.894  13.052
 4991W        W64285  11.138   8.320   0.344
 4992W        W64286  12.779  30.624   2.283
 4993W        W64287  23.558  24.183  13.488
 4994W        W64288  38.014   6.195  14.909
 4995W        W64289  24.694   5.413  12.935
 4996W        W64290   6.202  10.349  11.600
 4997W        W64291   8.789   1.325  12.886
 4998W        W64292  15.736   7.225  14.285
 4999W        W64293  44.798  30.068  11.407
 5000W        W64294  30.553  38.474   4.715
 5001W        W64295   1.359  31.424   3.336
 5002W        W64296  23.648  11.854   3.690
 5003W        W64297  14.317  21.651  14.310
 5004W        W64298  38.031  38.868   3.212
 5005W        W64299  34.419  30.624  11.380
 5006W        W64300  20.653  37.964  10.576
 5007W        W64301  25.596  32.633  13.007
 5008W        W64302  22.114   6.409  10.586
 5009W        W64303  11.340   0.774   4.230
 5010W        W64304  12.734   4.304   4.796
 5011W        W64305  26.961  12.777   0.789
 5012W        W64306  15.116   1.939   0.801
 5013W        W64307  21.612  25.485   2.749
 5014W        W64308  31.551   0.249  12.880
 5015W        W64309  26.996   0.820   3.714
 5016W        W64310   6.297   8.737   1.421
 5017W        W64311  13.331   0.890  12.533
 5018W        W64312  16.795  33.960  13.884
 5019W        W64313   6.724  26.080   4.170
 5020W        W64314  24.521   8.742   0.955
 5021W        W64315  15.283  25.529  12.983
 5022W        W64316  43.853  42.992  11.400
 5023W        W64317  42.811   1.953   1.827
 5024W        W64318  32.592  32.917  10.931
 5025W        W64319  18.726   6.354  12.886
 5026W        W64320  27.946  22.581  12.875
 5027W        W64321  20.556  21.220   2.708
 5028W        W64322  12.829  10.657   1.258
 5029W        W64323  26.969   4.731  13.951
 5030W        W64324  24.595  24.563   1.758
 5031W        W64325  36.914  11.648  14.303
 5032W        W64326  44.290   7.182   3.365
 5033W        W64327  29.950  33.562  12.477
 5034W        W64328   5.892  23.079   3.796
 5035W        W64329  30.584  35.479   1.810
 5036W        W64330  10.735   6.687  13.504
 5037W        W64331  32.968  29.135   3.342
 5038W        W64332  28.639  40.437   4.290
 5039W        W64333   1.935   8.846  12.374
 5040W        W64334  39.002  23.690  10.063
 5041W        W64335   4.219  34.999  13.920
 5042W        W64336  39.363  20.124  11.071
 5043W        W64337  13.163  34.613  13.364
 5044W        W64338  23.201   4.883  13.952
 5045W        W64339  13.793  35.487  14.764
 5046W        W64340  24.167  12.124   0.282
 5047W        W64341  24.158  14.295  10.568
 5048W        W64342   0.905   0.777   1.720
 5049W        W64343  21.220  42.477   0.473
 5050W        W64344  24.228  23.003  14.837
 5051W        W64345   3.287  25.212  14.350
 5052W        W64346  33.938  16.642   1.751
 5053W        W64347  37.442  37.020  14.881
 5054W        W64348  41.030   2.911  13.799
 5055W        W64349   1.796  37.500   3.832
 5056W        W64350   9.189   0.911   1.772
 5057W        W64351   6.891  22.140   3.367
 5058W        W64352  35.051  11.683  11.427
 5059W        W64353  14.776  35.966  12.060
 5060W        W64354  32.530  25.538  14.912
 5061W        W64355   3.369  34.519   3.788
 5062W        W64356  33.552  37.339  10.552
 5063W        W64357  34.955  11.371  11.372
 5064W        W64358  13.260  37.472   9.984
 5065W        W64359  13.789  21.157  13.875
 5066W        W64360  41.406  38.330   4.242
 5067W        W64361  27.032  18.113   4.631
 5068W        W64362  27.560   2.828   3.345
 5069W        W64363  37.536  27.476   3.362
 5070W        W64364  41.877   7.847  13.538
 5071W        W64365  38.484  15.318  14.947
 5072W        W64366   1.745  13.748   1.926
 5073W        W64367  14.155  25.690  10.633
 5074W        W64368  22.723  34.518  13.852
 5075W        W64369  29.541  25.671  12.096
 5076W        W64370  40.901  11.182  12.414
 5077W        W64371  31.424  18.260  12.487
 5078W        W64372  43.503  12.207  13.019
 5079W        W64373   1.759  20.145  12.876
 5080W        W64374  26.556  33.407   2.772
 5081W        W64375   5.703  30.080   3.750
 5082W        W64376  34.431   5.430  10.453
 5083W        W64377  14.658  32.481   0.857
 5084W        W64378  20.553   2.322   2.412
 5085W        W64379   5.308  17.209   2.359
 5086W        W64380   5.756  12.154   4.222
 5087W        W64381   8.804  25.553  11.504
 5088W        W64382  19.271  17.222   4.766
 5089W        W64383  32.959  11.343   0.824
 5090W        W64384  40.959  35.964   2.299
 5091W        W64385  17.786  38.356  14.498
 5092W        W64386   9.164  26.139   2.862
 5093W        W64387   7.281  24.171   3.241
 5094W        W64388  18.176   4.932   4.694
 5095W        W64389  17.763  28.100  14.963
 5096W        W64390  40.828  34.085   3.236
 5097W        W64391  19.279   3.296   4.752
 5098W        W64392   1.437  12.681  11.112
 5099W        W64393  38.344  13.628  14.813
 5100W        W64394  22.638  21.524  11.923
 5101W        W64395   2.259  34.902  13.385
 5102W        W64396  43.330  13.711  11.020
 5103W        W64397  24.986  18.274  13.345
 5104W        W64398  24.035  23.721  14.342
 5105W        W64399   2.770  20.139   4.628
 5106W        W64400  15.321  25.206  12.401
 5107W        W64401  15.759  43.996  13.350
 5108W        W64402  33.494  16.197  13.427
 5109W        W64403   5.254   1.326  12.547
 5110W        W64404  24.574  12.790   2.774
 5111W        W64405  41.912  20.605   0.377
 5112W        W64406   9.855  12.334   0.789
 5113W        W64407  21.728   8.211   0.257
 5114W        W64408  41.928  28.656   1.245
 5115W        W64409  28.637  39.879   0.786
 5116W        W64410  37.521  22.504  10.638
 5117W        W64411   1.308  31.490  10.504
 5118W        W64412  43.355  30.442   1.436
 5119W        W64413  38.911  15.651   3.183
 5120W        W64414  10.174   0.284  14.371
 5121W        W64415  43.931  25.646   3.201
 5122W        W64416  24.692   2.813  10.410
 5123W        W64417  42.526  12.247  12.570
 5124W        W64418  23.171  11.622   4.265
 5125W        W64419  41.332  33.518   4.660
 5126W        W64420  23.613  11.157   0.878
 5127W        W64421   2.284   5.211  13.907
 5128W        W64422  42.000  34.926  11.391
 5129W        W64423   8.886  17.277   0.952
 5130W        W64424   7.215  35.412   1.793
 5131W        W64425  18.160  27.090   2.386
 5132W        W64426  44.378  18.602  13.350
 5133W        W64427  13.220   6.828  14.992
 5134W        W64428  22.250   3.384   2.267
 5135W        W64429  24.594  26.982   4.700
 5136W        W64430  19.756  26.075   0.287
 5137W        W64431   8.360   9.763  14.808
 5138W        W64432  39.345   7.347   4.728
 5139W        W64433  33.540  17.624  11.487
 5140W        W64434  38.367  36.397   5.674
 5141W        W64435  24.557  43.899   4.211
 5142W        W64436  25.038  43.018   0.955
 5143W        W64437  29.168   3.342   1.758
 5144W        W64438  38.570  42.935   4.802
 5145W        W64439  19.056   2.816  14.935
 5146W        W64440  21.545   0.430  10.580
 5147W        W64441  32.966   9.809  12.891
 5148W        W64442   6.891  22.739   3.662
 5149W        W64443  22.241  35.468  11.091
 5150W        W64444  26.038  44.772  12.373
 5151W        W64445   0.973  29.949  12.537
 5152W        W64446   9.806   6.693   3.660
 5153W        W64447  21.201   5.362   0.822
 5154W        W64448  42.360  40.809   4.789
 5155W        W64449   1.806  19.627   2.180
 5156W        W64450  40.994   0.391   2.312
 5157W        W64451  20.547  27.131  13.830
 5158W        W64452  32.630  38.358  11.888
 5159W        W64453  40.942   3.311  12.838
 5160W        W64454  25.997  32.006  10.588
 5161W        W64455  10.692  27.478  12.096
 5162W        W64456  41.391  17.802   4.781
 5163W        W64457  23.494  18.647  13.793
 5164W        W64458  44.892  18.675  14.917
 5165W        W64459  42.805   4.338   1.212
 5166W        W64460   7.692  42.984   3.784
 5167W        W64461  23.175   1.350   0.418
 5168W        W64462  10.651  18.106  13.866
 5169W        W64463  37.894  42.450   3.633
 5170W        W64464  12.689   1.325  13.013
 5171W        W64465  21.055  24.125   4.659
 5172W        W64466  26.679   0.326   3.686
 5173W        W64467   8.755  44.408   0.423
 5174W        W64468  32.096  30.908  12.401
 5175W        W64469   3.253  13.638  11.045
 5176W        W64470  25.059  44.304  11.570
 5177W        W64471  28.563  22.220   1.280
 5178W        W64472  36.879  12.792  12.517
 5179W        W64473   9.661  36.084  13.418
 5180W        W64474  11.188  25.524   3.719
 5181W        W64475  39.510  35.908  10.106
 5182W        W64476  36.455  33.596  13.857
 5183W        W64477  14.693  25.713   1.264
 5184W        W64478  38.517   6.913  12.979
 5185W        W64479  41.515  33.591   3.852
 5186W        W64480  41.827   8.836   2.268
 5187W        W64481   9.369  29.050  12.955
 5188W        W64482  10.848  11.702   4.265
 5189W        W64483  13.611  44.467  11.582
 5190W        W64484  28.043   6.862  12.373
 5191W        W64485  17.263  37.580   2.861
 5192W        W64486  40.015  44.318   0.914
 5193W        W64487  24.227  22.562   5.152
 5194W        W64488  18.179  24.203  13.003
 5195W        W64489  36.057  29.503   3.760
 5196W        W64490  38.555   5.315   3.218
 5197W        W64491  15.767   2.349   3.157
 5198W        W64492   7.297  11.662  13.501
 5199W        W64493  24.689  33.500   0.855
 5200W        W64494  21.103  13.727  13.824
 5201W        W64495  26.489  11.703   4.783
 5202W        W64496  12.654   2.325  12.896
 5203W        W64497  39.005  19.135   2.903
 5204W        W64498  23.064  13.167   0.357
 5205W        W64499  44.312  39.505  14.497
 5206W        W64500  14.818  37.560   1.801
 5207W        W64501  23.515  21.090  10.472
 5208W        W64502  10.816  10.825   3.717
 5209W        W64503   5.893  36.358  13.906
 5210W        W64504  19.641  24.023   2.343
 5211W        W64505  13.119  27.978  13.527
 5212W        W64506  16.270   3.233  10.543
 5213W        W64507  35.020  38.549  13.397
 5214W        W64508  34.489  28.024  13.501
 5215W        W64509  22.172  43.017   0.730
 5216W        W64510  22.554  43.022  11.383
 5217W        W64511  36.081  24.993  11.918
 5218W        W64512  10.806  29.956   5.205
 5219W        W64513  40.460  25.691  14.310
 5220W        W64514   1.407  28.559   4.786
 5221W        W64515  10.292   5.712  14.796
 5222W        W64516  17.745  19.198  12.019
 5223W        W64517   7.235  32.993   4.615
 5224W        W64518  34.481  36.553  14.979
 5225W        W64519  44.809  42.022  13.448
 5226W        W64520  17.627   0.830   2.313
 5227W        W64521  18.551   5.816  14.279
 5228W        W64522   3.223  19.111   3.193
 5229W        W64523  11.223  26.970   2.419
 5230W        W64524  31.520  33.486   2.363
 5231W        W64525   9.863  24.672   1.931
 5232W        W64526   4.706  17.162  10.948
 5233W        W64527  18.683  40.818  11.114
 5234W        W64528   7.353  26.097  11.866
 5235W        W64529  41.819  36.536   4.299
 5236W        W64530  40.364   6.736   1.911
 5237W        W64531  14.305   7.770  12.017
 5238W        W64532  24.639   7.757  12.465
 5239W        W64533  40.391   9.875  10.913
 5240W        W64534  30.643  32.915  12.465
 5241W        W64535  11.346  16.257   4.144
 5242W        W64536  36.069  21.703  11.886
 5243W        W64537  32.071  20.544   1.319
 5244W        W64538  28.445  33.572   2.372
 5245W        W64539   4.898  44.279   0.736
 5246W        W64540  38.871   6.242  14.759
 5247W        W64541  23.594   0.350  11.034
 5248W        W64542  26.004  25.653   0.478
 5249W        W64543  27.629   1.867  10.919
 5250W        W64544  31.583  42.524   4.707
 5251W        W64545   4.900   5.395   1.786
 5252W        W64546   4.217  23.127   2.668
 5253W        W64547   5.694  16.195  11.959
 5254W        W64548  37.446  41.974   2.366
 5255W        W64549  33.401  19.269  11.475
 5256W        W64550  44.357  32.026   0.468
 5257W        W64551  24.983   3.757  10.625
 5258W        W64552  12.143  28.570  13.443
 5259W        W64553  11.785   8.884   2.254
 5260W        W64554  32.462  25.477  12.576
 5261W        W64555  24.521  20.765   1.256
 5262W        W64556  36.920  39.491  10.959
 5263W        W64557  13.772  41.823  13.994
 5264W        W64558  26.663  36.411  11.863
 5265W        W64559  30.483  44.480   4.194
 5266W        W64560  34.016   6.785  12.889
 5267W        W64561  39.451   2.734   2.873
 5268W        W64562  43.355  14.277  12.387
 5269W        W64563  18.753  26.666  10.055
 5270W        W64564   4.363  30.082  13.345
 5271W        W64565  23.984  31.415  13.479
 5272W        W64566   3.755  30.423   1.826
 5273W        W64567  12.654  42.360   0.800
 5274W        W64568  28.455  41.790   0.362
 5275W        W64569  27.498  18.181  11.898
 5276W        W64570  17.225  11.643  13.035
 5277W        W64571  28.681   2.927   4.184
 5278W        W64572  38.846  39.991  13.811
 5279W        W64573  30.553   5.885   3.654
 5280W        W64574   2.317  25.520   3.151
 5281W        W64575   2.751  30.162   4.719
 5282W        W64576   1.304  39.342   0.412
 5283W        W64577   5.887  18.731   4.299
 5284W        W64578  38.866  10.649   0.942
 5285W        W64579  30.418  16.305   4.268
 5286W        W64580  12.849  39.392  12.457
 5287W        W64581  28.059  29.594  13.467
 5288W        W64582  43.942  30.424   3.188
 5289W        W64583  13.635  19.545  14.820
 5290W        W64584  35.875  25.092  14.512
 5291W        W64585  42.345  41.301   0.805
 5292W        W64586  31.530  29.638   3.201
 5293W        W64587   6.681  15.102  14.441
 5294W        W64588  28.496  43.963   0.283
 5295W        W64589   9.805  41.487  13.039
 5296W        W64590  26.187  30.029   0.876
 5297W        W64591  10.692  43.364  13.843
 5298W        W64592   6.834  11.694   0.360
 5299W        W64593   0.983  13.336  12.352
 5300W        W64594  34.604  21.713   2.197
 5301W        W64595  28.969  23.725   0.960
 5302W        W64596   6.848   5.337  14.874
 5303W        W64597  18.172  29.981  12.966
 5304W        W64598  40.895  36.558   1.348
 5305W        W64599  25.082  15.085   4.796
 5306W        W64600  15.669  16.273  10.895
 5307W        W64601  33.951  40.841  11.870
 5308W        W64602  17.782  13.333  14.769
 5309W        W64603  15.109  23.123  12.872
 5310W        W64604  37.406   8.394  13.502
 5311W        W64605  42.910  22.179  11.090
 5312W        W64606  12.148  35.985   3.279
 5313W        W64607   6.880  40.514  14.760
 5314W        W64608  26.049  17.304  11.098
 5315W        W64609  20.599  29.078  11.049
 5316W        W64610  16.164   1.747   2.844
 5317W        W64611  30.421  43.883  12.958
 5318W        W64612  28.134  44.854   3.170
 5319W        W64613  16.702  32.567   0.852
 5320W        W64614  21.024  23.539   2.747
 5321W        W64615   4.828  24.165   5.225
 5322W        W64616  13.838  33.960   1.773
 5323W        W64617   1.411   6.314  11.545
 5324W        W64618  16.794  23.680  13.053
 5325W        W64619  14.712  36.461  11.458
 5326W        W64620   5.408  11.630  13.958
 5327W        W64621  21.029  16.568  12.842
 5328W        W64622  32.074  41.324  12.442
 5329W        W64623  16.769   3.790   0.479
 5330W        W64624  17.567  42.424   1.770
 5331W        W64625  37.540  27.551   2.320
 5332W        W64626  12.790  16.746   0.341
 5333W        W64627  18.262   1.305   1.435
 5334W        W64628  31.928  18.211   2.386
 5335W        W64629   6.753  18.585   1.740
 5336W        W64630  43.402  16.137   0.416
 5337W        W64631  22.553  37.413   4.743
 5338W        W64632   4.713  37.939  11.056
 5339W        W64633  12.220   1.910   1.851
 5340W        W64634   8.815  10.295   5.132
 5341W        W64635  17.230  31.497  11.489
 5342W        W64636   6.257  13.738  13.039
 5343W        W64637  13.113  37.505  11.993
 5344W        W64638   9.819  16.217  10.453
 5345W        W64639  34.458  33.598  10.507
 5346W        W64640  44.953  38.477  14.309
 5347W        W64641   7.705  24.038   5.231
 5348W        W64642  44.261  11.839  11.023
 5349W        W64643   3.281   0.818  12.417
 5350W        W64644  21.034  34.883   0.873
 5351W        W64645  34.036   5.263  11.111
 5352W        W64646  36.487   4.726   1.921
 5353W        W64647  15.607  37.549   1.819
 5354W        W64648  13.757  37.064   1.238
 5355W        W64649  14.190  36.366   0.859
 5356W        W64650  25.016  18.067   4.762
 5357W        W64651  22.188  20.767  13.051
 5358W        W64652  43.013  34.934   0.812
 5359W        W64653  38.846  36.433   2.671
 5360W        W64654  22.585  16.571   0.263
 5361W        W64655   8.399  36.883   3.185
 5362W        W64656  42.848  37.489   1.287
 5363W        W64657   0.283   0.265   4.303
 5364W        W64658   2.838  44.275  12.477
 5365W        W64659  31.150  36.962  11.552
 5366W        W64660  22.200  19.265   2.264
 5367W        W64661  28.658   5.286  13.793
 5368W        W64662  35.415  33.881  11.595
 5369W        W64663  18.588   6.799   1.327
 5370W        W64664  14.237  17.116   0.847
 5371W        W64665  42.316  38.059   1.310
 5372W        W64666  33.914  42.817   4.163
 5373W        W64667  31.096  44.304   0.417
 5374W        W64668  11.219  28.444   1.291
 5375W        W64669  14.809  19.735   3.347
 5376W        W64670  39.322  34.956  11.374
 5377W        W64671   2.395  16.192   1.394
 5378W        W64672  44.822  27.544  13.063
 5379W        W64673  10.741   0.252  13.399
 5380W        W64674  20.608  38.905  14.975
 5381W        W64675  41.787  42.017   0.956
 5382W        W64676  15.199  20.738  13.057
 5383W        W64677   4.255  15.222  13.367
 5384W        W64678   5.197  39.543   4.308
 5385W        W64679  30.504  39.529  14.280
 5386W        W64680  31.599  36.956   4.353
 5387W        W64681  28.510  21.737  12.473
 5388W        W64682  42.506  36.875  12.096
 5389W        W64683  25.196  30.448   4.187
 5390W        W64684  21.263  13.775  13.316
 5391W        W64685  26.065  15.767   0.474
 5392W        W64686  10.284   6.200  12.364
 5393W        W64687   5.693  32.136  13.009
 5394W        W64688  28.058  28.459   0.277
 5395W        W64689  44.379  24.131  12.362
 5396W        W64690  26.548  18.066  13.932
 5397W        W64691  15.101  40.009  14.303
 5398W        W64692  31.109  10.709  11.110
 5399W        W64693  21.041   7.699  14.031
 5400W        W64694   5.361  34.084  14.379
 5401W        W64695  41.794  16.722   3.653
 5402W        W64696  35.109  26.490   3.241
 5403W        W64697  43.430   6.886   0.387
 5404W        W64698  28.185  32.528   1.699
 5405W        W64699  15.718   7.356   4.722
 5406W        W64700  28.578  34.104  13.439
 5407W        W64701  21.221   5.851  14.938
 5408W        W64702  10.186  34.491  10.137
 5409W        W64703  41.026   8.322  12.830
 5410W        W64704  12.836   8.716   3.269
 5411W        W64705  28.063  42.348  13.330
 5412W        W64706  16.685   0.272  14.402
 5413W        W64707  11.320  30.538   2.329
 5414W        W64708   7.254  18.113   3.157
 5415W        W64709   5.329  30.124  11.958
 5416W        W64710  11.674  38.893   3.855
 5417W        W64711  15.259  24.201   3.845
 5418W        W64712   8.849   9.303   1.429
 5419W        W64713   2.940  21.206  13.548
 5420W        W64714  23.622   1.255   3.782
 5421W        W64715   9.374  33.515  11.065
 5422W        W64716  22.649  32.522   0.828
 5423W        W64717  26.610  27.120   1.290
 5424W        W64718  21.666  34.997  10.492
 5425W        W64719  23.164  14.270  12.418
 5426W        W64720  22.734  15.316   2.863
 5427W        W64721  26.195  25.198   2.688
 5428W        W64722  44.802   6.366   1.717
 5429W        W64723  29.093  17.560  13.867
 5430W        W64724  20.545   6.689  12.958
 5431W        W64725  13.336  36.581   0.329
 5432W        W64726  41.892  21.022   1.447
 5433W        W64727  44.797  32.460   4.813
 5434W        W64728  25.076   6.754   4.151
 5435W        W64729  33.481  44.363   3.658
 5436W        W64730   7.384  33.561   1.334
 5437W        W64731  39.944  13.740   4.153
 5438W        W64732   6.807   1.807   1.397
 5439W        W64733  35.028  33.103   4.290
 5440W        W64734  22.024  18.151   4.692
 5441W        W64735  10.232  36.084   1.785
 5442W        W64736  36.085  19.727   1.378
 5443W        W64737  33.602   8.306  14.446
 5444W        W64738   2.918   8.258   1.786
 5445W        W64739  16.813  35.078  11.601
 5446W        W64740  21.022  35.433  12.846
 5447W        W64741  36.384  19.748   4.805
 5448W        W64742  31.505  41.314   2.720
 5449W        W64743  13.303  38.935   3.857
 5450W        W64744  14.748  35.485   1.250
 5451W        W64745   9.152   0.410   4.237
 5452W        W64746  43.946  21.053  11.515
 5453W        W64747  26.634  27.962  14.514
 5454W        W64748   0.268   7.225   4.193
 5455W        W64749  39.808  20.229  12.884
 5456W        W64750  30.646  42.361   3.651
 5457W        W64751  37.434  17.576   2.243
 5458W        W64752  26.982  42.785  12.557
 5459W        W64753   3.333   5.741  13.962
 5460W        W64754  43.971  19.605  13.519
 5461W        W64755  16.173   3.803  14.373
 5462W        W64756  38.330  33.615   1.828
 5463W        W64757  16.073   1.397   2.704
 5464W        W64758  40.542  32.984   4.295
 5465W        W64759  15.777  28.674   3.778
 5466W        W64760  37.004  38.546   0.746
 5467W        W64761  22.181   2.895   1.845
 5468W        W64762  35.009  15.582   4.825
 5469W        W64763   7.726  38.903  10.063
 5470W        W64764  27.524  27.625  12.458
 5471W        W64765  12.758  12.763   4.187
 5472W        W64766  13.349  40.033   1.814
 5473W        W64767   9.811   6.759  13.024
 5474W        W64768  22.213  44.411  13.026
 5475W        W64769  30.465  34.031  10.574
 5476W        W64770  28.501   7.353   3.866
 5477W        W64771  24.664   3.798  11.862
 5478W        W64772  44.344  27.053   0.816
 5479W        W64773  18.072   9.166   1.411
 5480W        W64774  23.156  30.575   2.345
 5481W        W64775  41.019   2.407   0.903
 5482W        W64776  42.327  29.945   0.934
 5483W        W64777  43.477   0.928  11.005
 5484W        W64778  13.246  23.657  13.524
 5485W        W64779   8.681   4.737  14.292
 5486W        W64780   2.863  43.448   4.241
 5487W        W64781  43.387  31.567  10.967
 5488W        W64782  32.576   1.442   1.896
 5489W        W64783  41.806  23.195   0.306
 5490W        W64784   9.225  33.116   2.227
 5491W        W64785  12.826   4.277  12.911
 5492W        W64786   5.797  23.626  12.463
 5493W        W64787  11.164   3.233  13.898
 5494W        W64788  25.136  27.642  12.405
 5495W        W64789   9.872  36.871  11.985
 5496W        W64790   0.875   5.761  13.994
 5497W        W64791   3.842  32.521  12.568
 5498W        W64792  13.316  30.444   3.245
 5499W        W64793  32.473  36.359  10.603
 5500W        W64794  34.536  13.279   4.189
 5501W        W64795  14.610  23.597   2.196
 5502W        W64796  27.569   0.825   3.356
 5503W        W64797  11.731  22.540  11.380
 5504W        W64798  44.464  44.286   4.230
 5505W        W64799  21.187  36.897  14.873
 5506W        W64800  40.044  29.130   2.185
 5507W        W64801  37.900  15.314  11.965
 5508W        W64802  34.533   4.257   2.817
 5509W        W64803  15.665  18.146   2.789
 5510W        W64804  22.633  35.961  10.577
 5511W        W64805  42.008  12.674  11.486
 5512W        W64806  42.978   3.354   2.697
 5513W        W64807  30.006  10.180   0.370
 5514W        W64808  16.596  38.947   0.729
 5515W        W64809  35.994  43.859  11.065
 5516W        W64810   7.340  25.691   4.342
 5517W        W64811  31.423   9.658  14.447
 5518W        W64812  26.622  33.604  12.401
 5519W        W64813  39.315  17.591  10.629
 5520W        W64814  20.556  23.029   9.603
 5521W        W64815  15.606   9.838   3.818
 5522W        W64816  42.842  29.522   2.732
 5523W        W64817  14.735  30.081  11.064
 5524W        W64818  16.302  14.296   2.720
 5525W        W64819  28.482  41.019   4.611
 5526W        W64820  43.929  23.658  14.502
 5527W        W64821  18.781  13.298  13.910
 5528W        W64822   7.784  15.257   2.401
 5529W        W64823   1.760  37.471  13.429
 5530W        W64824  40.977   7.217   3.795
 5531W        W64825   2.336  14.147   5.271
 5532W        W64826  43.856  11.701  10.593
 5533W        W64827  23.727  14.295  12.524
 5534W        W64828  22.586  35.974   1.898
 5535W        W64829  31.029  38.325  13.976
 5536W        W64830  22.142  41.820   3.297
 5537W        W64831  23.509  44.884  13.344
 5538W        W64832   0.330   1.747   9.968
 5539W        W64833   2.890  30.481   0.756
 5540W        W64834  33.072  28.016   2.250
 5541W        W64835  38.511  36.890   1.736
 5542W        W64836   2.819  13.844   3.162
 5543W        W64837   6.193  39.991   3.358
 5544W        W64838  40.864   7.319  11.539
 5545W        W64839  37.993  28.561  12.972
 5546W        W64840  42.400   4.748  10.995
 5547W        W64841  23.731   9.706   1.272
 5548W        W64842  16.286   5.906   4.661
 5549W        W64843  34.571  39.414  13.033
 5550W        W64844  38.345  33.057   0.398
 5551W        W64845  27.047   6.707  14.031
 5552W        W64846  11.299  34.410  11.050
 5553W        W64847   1.478  37.487  11.549
 5554W        W64848   1.269  17.245  10.467
 5555W        W64849   3.919  29.171  12.566
 5556W        W64850  24.518  20.246   3.292
 5557W        W64851  33.546   2.407  12.517
 5558W        W64852  23.517  31.564   3.269
 5559W        W64853  11.835  18.569   1.236
 5560W        W64854  16.287  43.465  11.011
 5561W        W64855  35.530  37.893  11.872
 5562W        W64856  37.845   9.349  13.478
 5563W        W64857  31.907  13.704  12.059
 5564W        W64858   5.710  14.193  11.989
 5565W        W64859   6.845  42.511   4.670
 5566W        W64860  32.601  36.514  11.016
 5567W        W64861  28.493  33.572  10.458
 5568W        W64862  39.004   7.884   0.332
 5569W        W64863  10.350  18.767   4.835
 5570W        W64864  34.603  20.242   4.601
 5571W        W64865   7.854   5.921  13.872
 5572W        W64866  12.349  43.303  14.298
 5573W        W64867  25.600  17.269   1.287
 5574W        W64868  10.674   5.791  12.031
 5575W        W64869  41.366  28.522   0.865
 5576W        W64870  28.116   8.896  12.455
 5577W        W64871  35.377   7.222   3.197
 5578W        W64872  44.481  42.795   3.739
 5579W        W64873  30.647  25.087   1.864
 5580W        W64874  36.358  37.085   1.394
 5581W        W64875  37.525  40.351  13.503
 5582W        W64876  35.408   4.402  13.515
 5583W        W64877  11.350  35.399  12.025
 5584W        W64878  21.643  35.987  12.061
 5585W        W64879  29.473  12.775  13.391
 5586W        W64880   0.820  25.157  11.886
 5587W        W64881  37.495  11.814  11.583
 5588W        W64882  26.594  24.015   0.297
 5589W        W64883   9.784   3.775   5.262
 5590W        W64884  21.089  17.690   0.759
 5591W        W64885   5.291  31.414   2.285
 5592W        W64886  21.554  40.358   1.270
 5593W        W64887  37.447  16.811  10.091
 5594W        W64888   3.949  13.146  14.461
 5595W        W64889  30.545  25.184   2.736
 5596W        W64890  32.532  43.983   1.436
 5597W        W64891  11.154  17.636   4.348
 5598W        W64892  35.492  36.093  10.635
 5599W        W64893   8.806  31.588  14.368
 5600W        W64894  41.531   7.313   0.967
 5601W        W64895   5.830   2.323  11.379
 5602W        W64896  33.117   9.307  11.377
 5603W        W64897  42.018  42.863   3.844
 5604W        W64898  38.966  24.700  12.572
 5605W        W64899  41.429  24.576  10.588
 5606W        W64900   4.290  42.892   5.203
 5607W        W64901  34.051  42.455   2.391
 5608W        W64902   4.249  16.256   3.202
 5609W        W64903  38.939   9.777   0.442
 5610W        W64904  32.428   0.493   1.225
 5611W        W64905   4.839  32.943   2.764
 5612W        W64906  12.669  26.634   2.182
 5613W        W64907  28.631   5.716   1.363
 5614W        W64908  18.705   3.293  13.939
 5615W        W64909  13.820   7.314  10.457
 5616W        W64910  25.601  43.326  13.495
 5617W        W64911  26.484  38.571   0.831
 5618W        W64912  24.189  17.260  12.493
 5619W        W64913   9.652  35.448  10.429
 5620W        W64914  15.776  20.684   2.835
 5621W        W64915  30.087   4.412  13.918
 5622W        W64916  18.139  15.143   2.202
 5623W        W64917   5.328  26.188  12.955
 5624W        W64918  22.572  19.597  11.022
 5625W        W64919  12.319  28.935   3.664
 5626W        W64920  42.365   8.804   0.940
 5627W        W64921   8.331  22.622   1.696
 5628W        W64922  29.434  12.729  11.866
 5629W        W64923  34.881  31.512   1.867
 5630W        W64924  40.960  26.474   0.847
 5631W        W64925  42.484  37.991  14.408
 5632W        W64926  17.578  44.279  14.979
 5633W        W64927   4.315  38.952  11.539
 5634W        W64928  41.389  35.385   1.831
 5635W        W64929  22.558   1.907   4.114
 5636W        W64930  43.785  25.206   3.288
 5637W        W64931  39.316  40.452   1.852
 5638W        W64932  42.422  38.485  10.475
 5639W        W64933   2.748  18.665   2.797
 5640W        W64934  11.713   8.700  11.593
 5641W        W64935   1.262   2.293  14.868
 5642W        W64936  21.050   5.838  14.276
 5643W        W64937   8.165  42.943   4.313
 5644W        W64938  15.258  33.580   4.251
 5645W        W64939  41.446  20.624  10.576
 5646W        W64940  34.598  17.633   3.841
 5647W        W64941  10.150   8.404   4.619
 5648W        W64942   3.365   5.709  14.308
 5649W        W64943  24.562  44.801  13.911
 5650W        W64944  11.773   4.223   3.198
 5651W        W64945   8.356  11.237  12.354
 5652W        W64946  30.927  29.100   3.734
 5653W        W64947   9.861  40.033  12.032
 5654W        W64948   5.304  36.552   0.911
 5655W        W64949  32.462  41.799   9.996
 5656W        W64950   2.771  43.809  10.634
 5657W        W64951  36.449  31.071   3.148
 5658W        W64952  43.402   1.905   3.728
 5659W        W64953   9.801  34.963   4.605
 5660W        W64954   9.336  41.349  12.883
 5661W        W64955  43.977   0.394  14.307
 5662W        W64956   3.315  16.703   3.721
 5663W        W64957   3.833  25.531  11.566
 5664W        W64958  18.687  15.313  11.592
 5665W        W64959  19.632  35.046  11.424
 5666W        W64960  15.183  12.791  14.465
 5667W        W64961  37.861  17.245  11.950
 5668W        W64962   5.775  43.785   2.716
 5669W        W64963  29.575  36.590  11.375
 5670W        W64964   7.709  12.714  10.053
 5671W        W64965  15.308  35.887  10.529
 5672W        W64966  13.683  31.578  14.299
 5673W        W64967  13.322  20.680  11.874
 5674W        W64968   1.934  28.105   0.846
 5675W        W64969  43.474  15.787  14.458
 5676W        W64970  27.018  25.210  13.965
 5677W        W64971  15.301  42.844   0.943
 5678W        W64972  38.847  18.204  13.493
 5679W        W64973  39.377  13.327  13.437
 5680W        W64974   6.414  28.593  12.963
 5681W        W64975   4.898  44.943  13.908
 5682W        W64976  14.758  20.160  11.577
 5683W        W64977  32.441  19.618  11.017
 5684W        W64978  26.082  12.184  13.427
 5685W        W64979  40.404  37.908  13.429
 5686W        W64980   1.816  28.066  10.031
 5687W        W64981  14.679  26.007  12.975
 5688W        W64982  10.757   4.876  12.999
 5689W        W64983  24.124  38.016  11.096
 5690W        W64984  23.537  44.344   1.866
 5691W        W64985  16.661  41.999  11.386
 5692W        W64986  41.417  24.544   3.822
 5693W        W64987  39.365  31.952  11.000
 5694W        W64988   8.301  17.716   2.792
 5695W        W64989  23.046   4.424   4.642
 5696W        W64990  13.609  23.582   1.761
 5697W        W64991   3.827  40.304   4.143
 5698W        W64992   7.720  30.546   9.934
 5699W        W64993   0.362  39.538   3.663
 5700W        W64994   2.278  10.204  10.007
 5701W        W64995  42.413  44.859  13.468
 5702W        W64996  19.234  36.099  12.078
 5703W        W64997  11.365   2.228  11.061
 5704W        W64998  44.349   2.894   2.753
 5705W        W64999   1.372   6.902   4.188
 5706W        W65000  18.659   1.736  11.896
 5707W        W65001  24.695  28.991   3.714
 5708W        W65002   7.886  29.960  12.004
 5709W        W65003  16.631   9.356  13.326
 5710W        W65004   5.420  16.214  12.092
 5711W        W65005  37.403  38.834  11.597
 5712W        W65006  35.433  23.114  12.883
 5713W        W65007  14.313  20.530  12.493
 5714W        W65008  35.435  43.904  12.360
 5715W        W65009  43.966  15.211  12.089
 5716W        W65010  22.142   6.680  14.275
 5717W        W65011  32.922   6.283   0.440
 5718W        W65012  39.432  15.816  11.939
 5719W        W65013  42.884  23.986   2.835
 5720W        W65014  37.893  15.113  11.006
 5721W        W65015   0.916  23.513   2.826
 5722W        W65016  10.380  43.846  12.525
 5723W        W65017  32.461  14.716   2.884
 5724W        W65018   1.244  20.756  14.421
 5725W        W65019  36.591  28.135   0.841
 5726W        W65020  12.620  22.657  12.839
 5727W        W65021  13.215   1.280  14.359
 5728W        W65022   0.405  38.344   3.320
 5729W        W65023  44.344  41.384  11.868
 5730W        W65024  19.258  39.459   2.778
 5731W        W65025  11.200  14.130  12.500
 5732W        W65026  10.794  30.930   0.812
 5733W        W65027  42.776  16.207   3.343
 5734W        W65028  39.861   5.829  14.430
 5735W        W65029  36.586  37.944   0.440
 5736W        W65030  22.501   6.265  12.541
 5737W        W65031  30.088   1.841  11.432
 5738W        W65032   2.935  25.139   2.889
 5739W        W65033  23.518  20.584   2.890
 5740W        W65034  38.423  27.587   0.956
 5741W        W65035   5.720  15.643   3.150
 5742W        W65036  44.420  17.558  12.383
 5743W        W65037  29.174  42.438  12.906
 5744W        W65038  28.038  18.261  11.116
 5745W        W65039  19.743  35.402  12.380
 5746W        W65040   0.986  30.136   2.311
 5747W        W65041  22.511  30.507   1.846
 5748W        W65042   0.933   3.270  12.357
 5749W        W65043  35.872  27.526   2.831
 5750W        W65044  14.712   4.331   1.325
 5751W        W65045   3.749  30.137   3.243
 5752W        W65046  36.468  43.422   1.706
 5753W        W65047  29.149  25.036   3.701
 5754W        W65048  36.547  30.513  13.318
 5755W        W65049  32.513  32.128  12.401
 5756W        W65050  22.094  39.047  12.954
 5757W        W65051  25.152  35.049   4.346
 5758W        W65052  18.252  30.972  11.986
 5759W        W65053  24.658  43.468   1.413
 5760W        W65054  13.695  28.649   0.932
 5761W        W65055  23.119   8.741   0.889
 5762W        W65056  36.380  12.246  12.486
 5763W        W65057  17.638  29.653   2.703
 5764W        W65058  18.064  17.708   1.708
 5765W        W65059   1.945  11.669  14.414
 5766W        W65060  44.883   0.894  13.438
 5767W        W65061  32.504  27.537  11.074
 5768W        W65062  42.350  39.856  14.338
 5769W        W65063   5.781  40.503  14.885
 5770W        W65064  39.493  36.874   1.751
 5771W        W65065  37.022  36.930   2.675
 5772W        W65066  24.066   5.704  11.933
 5773W        W65067   7.170  25.127  14.790
 5774W        W65068   2.283  42.462  12.089
 5775W        W65069   5.286  11.186   0.286
 5776W        W65070  11.684   0.470   4.825
 5777W        W65071  34.422  18.171  11.978
 5778W        W65072   9.874  10.829  10.413
 5779W        W65073   2.895  25.473  14.942
 5780W        W65074  11.184   1.788   4.833
 5781W        W65075   4.284   0.952  10.146
 5782W        W65076  34.445  38.355   3.646
 5783W        W65077  35.527  41.874  13.467
 5784W        W65078   3.382   7.775   1.748
 5785W        W65079  17.689  12.841  12.881
 5786W        W65080  40.417  41.482  13.510
 5787W        W65081   4.214   1.372  11.074
 5788W        W65082   9.760  28.090   2.736
 5789W        W65083  26.967  14.639   4.213
 5790W        W65084  22.673  41.033   0.947
 5791W        W65085  24.225  41.009  14.971
 5792W        W65086  23.055  40.422   1.332
 5793W        W65087  29.440  31.599  11.862
 5794W        W65088  40.999  10.780   2.198
 5795W        W65089  34.439   0.917   3.795
 5796W        W65090  22.519   8.777   2.754
 5797W        W65091  18.251  40.803   3.292
 5798W        W65092  21.225  13.613   2.742
 5799W        W65093  33.575  15.637  11.613
 5800W        W65094  27.569  24.105  13.864
 5801W        W65095  14.239  16.281  14.031
 5802W        W65096   2.886  40.879  11.376
 5803W        W65097  17.113  30.557  10.104
 5804W        W65098  14.333   4.912   4.696
 5805W        W65099  39.042  44.836   4.157
 5806W        W65100  36.859  11.358   0.850
 5807W        W65101  24.600   5.313  12.383
 5808W        W65102  18.055  16.271   4.793
 5809W        W65103   3.723  27.144  11.525
 5810W        W65104  39.995  13.786   0.243
 5811W        W65105  34.100  25.584   0.380
 5812W        W65106  10.271  38.490  14.777
 5813W        W65107  39.982   7.192   1.400
 5814W        W65108  33.116   7.287  13.325
 5815W        W65109   1.776  31.032   2.716
 5816W        W65110  12.141  25.687   2.779
 5817W        W65111  41.863  23.537  11.913
 5818W        W65112  18.084  32.581  14.308
 5819W        W65113   2.425   5.717   1.253
 5820W        W65114  21.673  24.987   2.710
 5821W        W65115   1.355  41.488  13.491
 5822W        W65116  17.787  21.070   1.726
 5823W        W65117  20.080  10.845   1.366
 5824W        W65118  18.612  44.357  13.370
 5825W        W65119  17.080  34.511  12.891
 5826W        W65120  13.281   8.260  12.017
 5827W        W65121  16.624  33.875   2.280
 5828W        W65122  27.068  31.958  14.802
 5829W        W65123  10.822  33.942   1.784
 5830W        W65124  22.505  16.155  13.793
 5831W        W65125   5.207  15.252   1.845
 5832W        W65126  31.103   6.263  13.311
 5833W        W65127  39.394  10.742  14.032
 5834W        W65128  36.054  44.501   1.349
 5835W        W65129   2.860  41.949   1.846
 5836W        W65130  31.083  38.485   3.810
 5837W        W65131  29.582   5.860   1.419
 5838W        W65132  14.111  30.998  11.502
 5839W        W65133   3.887  43.363   2.323
 5840W        W65134  14.311  43.868   4.689
 5841W        W65135  36.519  14.770  12.924
 5842W        W65136  19.754  29.004  14.358
 5843W        W65137   1.852   1.342   2.860
 5844W        W65138   7.894  18.176   1.428
 5845W        W65139  44.912  38.034  14.457
 5846W        W65140   1.910  30.652  11.468
 5847W        W65141  42.866  41.358   2.383
 5848W        W65142  15.241  16.256   2.356
 5849W        W65143  44.932   1.879   5.124
 5850W        W65144  38.519  37.424   0.900
 5851W        W65145  21.559   8.399   4.612
 5852W        W65146  21.153  20.165  12.363
 5853W        W65147   5.894  14.202   0.359
 5854W        W65148   0.369  21.618  11.412
 5855W        W65149  34.465  19.625  11.593
 5856W        W65150  31.948  23.992   4.249
 5857W        W65151  28.670  12.624  14.440
 5858W        W65152  13.643  42.940  11.423
 5859W        W65153  10.794   6.312  10.059
 5860W        W65154   6.891  24.524  11.461
 5861W        W65155  20.715  42.473   4.143
 5862W        W65156  32.912  31.964   4.635
 5863W        W65157   1.358   2.287   3.334
 5864W        W65158  16.743  12.646  11.391
 5865W        W65159   8.359  32.053  12.851
 5866W        W65160  35.431  15.192   0.324
 5867W        W65161   0.896   3.729  10.936
 5868W        W65162   8.183  17.144   2.215
 5869W        W65163  16.191  31.901  10.555
 5870W        W65164  23.520  40.016   4.319
 5871W        W65165  29.080   0.318  14.830
 5872W        W65166  10.159  22.699   2.303
 5873W        W65167  20.655  44.809  10.458
 5874W        W65168  28.135  20.216  13.330
 5875W        W65169  12.278  27.991   2.404
 5876W        W65170  10.283   8.324  12.089
 5877W        W65171   8.369  43.838   2.806
 5878W        W65172  21.560  24.690   0.763
 5879W        W65173   4.434  22.079  10.997
 5880W        W65174  14.777  42.946   1.753
 5881W        W65175  26.511   3.254   3.175
 5882W        W65176  12.811   8.352   1.742
 5883W        W65177  24.022   6.333  12.063
 5884W        W65178  30.540  16.740   4.195
 5885W        W65179  39.950  19.085  12.015
 5886W        W65180   6.229  24.528  10.635
 5887W        W65181  34.088  39.017  10.527
 5888W        W65182  38.049  25.478  12.092
 5889W        W65183  29.101   0.373   2.220
 5890W        W65184  21.542  18.654   1.412
 5891W        W65185   0.394  28.022  14.327
 5892W        W65186  10.344  25.207  14.375
 5893W        W65187  20.720  39.369   1.774
 5894W        W65188   2.448  31.899   4.598
 5895W        W65189  23.693  35.383   4.345
 5896W        W65190  33.383  28.023  13.849
 5897W        W65191  24.692   1.828  11.454
 5898W        W65192   5.859   8.273  11.942
 5899W        W65193  39.446  22.036   3.184
 5900W        W65194   0.964  40.995   2.787
 5901W        W65195   3.718  21.184  11.426
 5902W        W65196  30.443   6.187  11.534
 5903W        W65197  40.909  22.655  10.518
 5904W        W65198  36.900  11.344   3.229
 5905W        W65199   0.743   0.489   4.188
 5906W        W65200  42.012  37.432  13.874
 5907W        W65201  22.043   5.318  13.949
 5908W        W65202  33.551  16.708   1.720
 5909W        W65203  16.766  33.521  11.535
 5910W        W65204  22.505  32.577   3.704
 5911W        W65205  25.037  16.123   2.798
 5912W        W65206  39.558  43.422   0.896
 5913W        W65207  32.392  38.042   2.410
 5914W        W65208  26.977  38.475  11.075
 5915W        W65209  31.429   3.741  14.406
 5916W        W65210  28.649  36.904  11.477
 5917W        W65211  35.603  22.016  12.576
 5918W        W65212  19.132  39.316  13.798
 5919W        W65213  30.543  17.756  14.960
 5920W        W65214   8.812  26.024   0.411
 5921W        W65215  34.507  26.664  14.785
 5922W        W65216  31.527  24.221  12.936
 5923W        W65217   6.790  32.394  10.568
 5924W        W65218  42.806  34.916   2.829
 5925W        W65219  22.189  28.498  14.356
 5926W        W65220  25.704  29.156  10.949
 5927W        W65221  27.082   9.876   9.622
 5928W        W65222  32.955  35.033   4.153
 5929W        W65223   3.263  33.941  11.073
 5930W        W65224  22.605  12.729  13.963
 5931W        W65225  40.023  28.475   4.763
 5932W        W65226  41.489  15.624  14.965
 5933W        W65227  33.485   5.687   5.231
 5934W        W65228  44.471  44.465  14.818
 5935W        W65229  19.147  15.196  11.072
 5936W        W65230  24.152  16.175   4.189
 5937W        W65231  30.439  36.862  14.921
 5938W        W65232   3.923  39.002  10.621
 5939W        W65233   3.828  38.377  14.353
 5940W        W65234  22.205   6.837   4.294
 5941W        W65235  22.174   0.348   0.961
 5942W        W65236  37.982  38.035   3.290
 5943W        W65237  40.864  11.229  11.006
 5944W        W65238   0.774  27.012   3.363
 5945W        W65239  40.000   3.410  12.380
 5946W        W65240  22.042  27.175  12.845
 5947W        W65241  10.230   5.339  11.034
 5948W        W65242  26.095  13.127   4.625
 5949W        W65243  25.978  41.507   3.711
 5950W        W65244   3.220  35.041   4.317
 5951W        W65245   0.927  22.509   1.801
 5952W        W65246  14.813  30.502  11.996
 5953W        W65247  33.881  40.447  13.844
 5954W        W65248  31.436  21.213  13.346
 5955W        W65249  38.417  42.018   2.750
 5956W        W65250  32.946   5.281   2.844
 5957W        W65251  11.675  16.182   2.319
 5958W        W65252   1.250  42.327  10.983
 5959W        W65253  21.080   7.856  11.585
 5960W        W65254   4.415  35.059  12.554
 5961W        W65255   0.418   5.762  13.432
 5962W        W65256  37.365   2.384   3.353
 5963W        W65257  43.778  26.173  11.430
 5964W        W65258  25.501  20.093  11.913
 5965W        W65259  40.430  44.340  11.109
 5966W        W65260   9.880   6.891   1.229
 5967W        W65261   2.854  26.190  14.847
 5968W        W65262  19.584  36.495  10.925
 5969W        W65263  27.664  37.024   4.755
 5970W        W65264  24.186  20.759   2.822
 5971W        W65265  20.608   8.295  10.997
 5972W        W65266  32.906   5.255   4.168
 5973W        W65267  33.881  10.164   1.745
 5974W        W65268  40.493  13.129   0.898
 5975W        W65269  31.606  21.708   3.262
 5976W        W65270  36.092  34.380  11.052
 5977W        W65271   8.736  38.858   3.747
 5978W        W65272  31.527  42.837   1.258
 5979W        W65273  12.720  27.086   0.475
 5980W        W65274  21.690  16.795  13.323
 5981W        W65275  19.159  11.339  12.977
 5982W        W65276  23.046   9.776   1.343
 5983W        W65277  30.006  35.896   0.362
 5984W        W65278  39.960  17.647   3.776
 5985W        W65279  31.408  12.337   4.639
 5986W        W65280  31.438  27.113  12.572
 5987W        W65281  15.799  37.899  10.905
 5988W        W65282  11.356  18.109   1.734
 5989W        W65283  43.301  22.532   2.773
 5990W        W65284   9.822   7.374  12.489
 5991W        W65285  28.652  20.116  13.545
 5992W        W65286   8.392  35.500   3.804
 5993W        W65287  41.791  13.142  13.522
 5994W        W65288  16.123   2.941   0.968
 5995W        W65289   1.815  43.883  13.029
 5996W        W65290  12.343  27.518   2.347
 5997W        W65291   8.846  28.072  12.091
 5998W        W65292  14.666   6.756   2.370
 5999W        W65293  44.852  30.584   1.740
 6000W        W65294  29.664  23.590   4.235
 6001W        W65295  23.656  18.111  14.820
 6002W        W65296  35.568  34.440  12.476
 6003W        W65297  20.152  17.608   4.296
 6004W        W65298  20.760  28.561  10.612
 6005W        W65299  42.814  41.988  13.996
 6006W        W65300  26.008  30.428  10.619
 6007W        W65301  28.640  17.293  11.551
 6008W        W65302   4.842  12.294   2.748
 6009W        W65303  17.141  38.450  11.898
 6010W        W65304  13.175  11.248   2.360
 6011W        W65305  28.557  33.535  12.446
 6012W        W65306  22.006  39.872   1.342
 6013W        W65307  37.934  28.519   4.749
 6014W        W65308  38.453  40.973  12.900
 6015W        W65309  32.035  19.147  11.528
 6016W        W65310  29.937  26.688   2.265
 6017W        W65311  23.236   8.744   1.881
 6018W        W65312   0.807  10.665  14.299
 6019W        W65313  14.628  13.307   5.212
 6020W        W65314  36.403  24.615  12.838
 6021W        W65315  20.052   8.366   4.256
 6022W        W65316  36.087  10.872   3.353
 6023W        W65317  26.534   4.313   2.200
 6024W        W65318  43.486  26.106  13.547
 6025W        W65319  27.152  32.097   0.899
 6026W        W65320  26.003  40.323  14.396
 6027W        W65321   2.429  28.961  14.475
 6028W        W65322  16.610   2.967  11.891
 6029W        W65323  38.893   2.883  10.047
 6030W        W65324  30.068  25.535  10.471
 6031W        W65325  30.919  15.151   1.445
 6032W        W65326  43.841   7.854   4.659
 6033W        W65327   3.915  11.793  11.124
 6034W        W65328  29.640  21.240  10.032
 6035W        W65329   5.762  13.820   1.321
 6036W        W65330  34.495  13.780   4.718
 6037W        W65331  12.250   3.425   2.881
 6038W        W65332   1.426   7.765  11.606
 6039W        W65333  24.720  34.500  10.999
 6040W        W65334   4.787  27.031  11.923
 6041W        W65335  27.998  25.185   5.083
 6042W        W65336  30.909   9.647  12.075
 6043W        W65337   4.931  35.403  12.385
 6044W        W65338  20.119   1.832  12.499
 6045W        W65339  17.132  37.483  12.458
 6046W        W65340  42.005   2.723  11.015
 6047W        W65341   1.343   6.769  14.006
 6048W        W65342  18.284  11.758   4.252
 6049W        W65343   1.242   3.946   4.179
 6050W        W65344   8.694  14.638   1.298
 6051W        W65345  42.447   3.743  14.937
 6052W        W65346   9.696  37.362   4.769
 6053W        W65347  23.703   4.258   3.265
 6054W        W65348  35.580   2.779   0.293
 6055W        W65349  40.505  38.571  14.785
 6056W        W65350  40.897  32.562  14.829
 6057W        W65351  17.599   9.799   1.848
 6058W        W65352   8.290  43.488   9.465
 6059W        W65353  40.308  33.493  14.513
 6060W        W65354  27.653  19.648   2.378
 6061W        W65355  15.669  34.614   4.660
 6062W        W65356  36.493  12.650   0.923
 6063W        W65357  15.320  29.506  12.865
 6064W        W65358   1.305  21.020  13.349
 6065W        W65359  26.506   5.349  12.571
 6066W        W65360  15.213  11.228   4.121
 6067W        W65361  34.026  15.089   4.129
 6068W        W65362   6.233  12.233   4.599
 6069W        W65363  28.560  10.197  14.430
 6070W        W65364  41.348  26.958   2.858
 6071W        W65365  39.823  38.416   4.769
 6072W        W65366  12.196  39.854  14.487
 6073W        W65367  24.027  11.733  13.032
 6074W        W65368  40.007   9.271  12.965
 6075W        W65369  32.947  21.149  10.926
 6076W        W65370   3.876  28.525   3.355
 6077W        W65371  10.847  23.080   1.233
 6078W        W65372   8.702  44.281   1.374
 6079W        W65373  41.011  20.099   4.820
 6080W        W65374  11.357  42.303   4.599
 6081W        W65375  11.175  36.960   2.317
 6082W        W65376  24.974  20.671  12.572
 6083W        W65377  19.556  26.110   2.857
 6084W        W65378   3.435  17.766  14.953
 6085W        W65379  40.006   8.710  13.382
 6086W        W65380  36.465  36.432   1.353
 6087W        W65381  41.802  32.475   0.814
 6088W        W65382  31.029  41.507   0.957
 6089W        W65383  21.211  27.518   3.728
 6090W        W65384  14.656  29.428  13.019
 6091W        W65385  44.800  24.115  14.008
 6092W        W65386  20.158  40.911   4.763
 6093W        W65387   3.297   7.401   0.771
 6094W        W65388   6.848  21.254   0.314
 6095W        W65389  19.071  27.613  12.852
 6096W        W65390  31.460  10.781   2.182
 6097W        W65391  14.316  16.622  10.475
 6098W        W65392  30.922   8.798  10.135
 6099W        W65393  23.217  14.749  12.359
 6100W        W65394   9.315  12.133   4.154
 6101W        W65395   2.777  42.982   4.161
 6102W        W65396  11.191   0.254  13.976
 6103W        W65397  43.314  28.964   5.119
 6104W        W65398   1.263  35.357   4.837
 6105W        W65399  23.659  28.024   1.289
 6106W        W65400  25.568  18.717  13.376
 6107W        W65401   3.434  20.063  14.369
 6108W        W65402  35.066  44.467  12.402
 6109W        W65403   2.239  37.392  14.018
 6110W        W65404  44.363  15.243  11.047
 6111W        W65405  35.415  37.371   0.374
 6112W        W65406  25.096  31.007   2.678
 6113W        W65407   6.905   6.842  13.433
 6114W        W65408   7.315  26.496   3.180
 6115W        W65409  35.385  38.966   1.256
 6116W        W65410  14.195  23.565  10.908
 6117W        W65411  25.657  21.262  12.851
 6118W        W65412  28.069  38.821   2.669
 6119W        W65413   4.831   6.272   4.739
 6120W        W65414   4.867   9.290   4.219
 6121W        W65415   8.365   4.337  12.463
 6122W        W65416  19.586  10.351  13.415
 6123W        W65417  30.552  26.644  14.854
 6124W        W65418  40.321  34.472   1.426
 6125W        W65419  34.060  38.985   2.220
 6126W        W65420  39.514   0.908  10.429
 6127W        W65421  15.187   5.726  13.052
 6128W        W65422  26.644  10.819  12.016
 6129W        W65423  29.109   5.822  13.486
 6130W        W65424  27.133  34.909  12.044
 6131W        W65425  37.520  26.204  10.913
 6132W        W65426  37.009  32.511  10.637
 6133W        W65427  13.845  35.948  14.434
 6134W        W65428  18.218  14.730   5.309
 6135W        W65429  12.240  32.896   4.117
 6136W        W65430  15.662  27.172  11.471
 6137W        W65431  10.709  39.468  11.580
 6138W        W65432  11.754   7.327   0.399
 6139W        W65433  13.209  30.646  12.580
 6140W        W65434  40.005   4.829   1.439
 6141W        W65435  43.398  12.681  13.446
 6142W        W65436  15.224   7.230  12.934
 6143W        W65437   8.739   3.417   4.186
 6144W        W65438  15.272  34.419   2.845
 6145W        W65439  35.493  20.262  10.454
 6146W        W65440  37.006   1.891   1.306
 6147W        W65441   3.833  19.694   1.698
 6148W        W65442  31.613  17.764  14.776
 6149W        W65443  34.551  27.963  13.792
 6150W        W65444  34.977  23.094  13.392
 6151W        W65445  42.432  39.513   3.710
 6152W        W65446  24.702  15.584  14.779
 6153W        W65447  27.942  37.470   5.614
 6154W        W65448  37.027  29.597  11.418
 6155W        W65449   2.243  36.499  12.518
 6156W        W65450  12.173  15.648   3.819
 6157W        W65451   6.298  39.435   0.309
 6158W        W65452  31.638  32.981   2.785
 6159W        W65453  38.884  27.158  10.087
 6160W        W65454  13.786  18.716  14.289
 6161W        W65455  43.471  34.888  12.005
 6162W        W65456  25.111  40.920  10.151
 6163W        W65457   3.235   3.915   0.265
 6164W        W65458  33.919  30.526  10.893
 6165W        W65459  16.666  31.537  13.380
 6166W        W65460  42.841  38.009  13.999
 6167W        W65461   0.407  20.097  11.498
 6168W        W65462  10.201   2.789  12.048
 6169W        W65463   9.725   1.971  10.452
 6170W        W65464  18.764   5.371   1.811
 6171W        W65465  40.534   7.377   2.358
 6172W        W65466  38.507   5.335  11.481
 6173W        W65467  33.016  23.203  10.986
 6174W        W65468  35.067   9.369   0.941
 6175W        W65469   5.264  25.172   3.787
 6176W        W65470  38.960  33.483   5.129
 6177W        W65471   4.415  38.864  13.830
 6178W        W65472   3.244  32.404   4.148
 6179W        W65473  29.960   1.302  11.983
 6180W        W65474  11.742  26.164  10.470
 6181W        W65475  27.591  39.829   1.309
 6182W        W65476  16.797   2.229   4.166
 6183W        W65477   3.910  29.076  12.838
 6184W        W65478  37.518  30.420   0.819
 6185W        W65479  35.405   6.371  12.885
 6186W        W65480  25.094  24.594   4.824
 6187W        W65481   1.262  23.058  12.960
 6188W        W65482  40.474  37.856  11.532
 6189W        W65483  29.631   2.929  10.540
 6190W        W65484   2.921   0.392   0.916
 6191W        W65485  37.526  37.359   2.689
 6192W        W65486  33.965  30.097   3.848
 6193W        W65487  11.795  20.740  14.839
 6194W        W65488  34.464  21.687   3.804
 6195W        W65489  42.852  29.587  12.923
 6196W        W65490  39.388   1.381  13.875
 6197W        W65491  22.016   2.932  14.823
 6198W        W65492  28.094  38.464   0.918
 6199W        W65493   2.463  20.662  13.442
 6200W        W65494  13.832  21.636   3.319
 6201W        W65495  31.072   1.954   2.218
 6202W        W65496  23.732  10.364   0.260
 6203W        W65497  25.006   6.888   2.701
 6204W        W65498  42.841  17.282  13.923
 6205W        W65499  24.522  29.100  10.645
 6206W        W65500  27.957  30.544   4.721
 6207W        W65501  17.186  36.028  13.431
 6208W        W65502  15.147  26.551  13.879
 6209W        W65503  23.705  10.811  10.984
 6210W        W65504  36.529  39.559   4.314
 6211W        W65505  19.754  11.149   3.646
 6212W        W65506  43.003  22.102  12.566
 6213W        W65507  43.944  17.741  10.574
 6214W        W65508  23.141  26.627  12.362
 6215W        W65509   9.735   6.914  14.926
 6216W        W65510  41.491   3.891   1.930
 6217W        W65511  18.171  36.993  14.812
 6218W        W65512  10.364  17.177   3.641
 6219W        W65513  32.137   5.302   4.796
 6220W        W65514  25.164  29.464  10.893
 6221W        W65515  12.791   2.796  12.833
 6222W        W65516   8.887   9.694   2.799
 6223W        W65517  37.941  37.469   5.092
 6224W        W65518   7.800  11.867   3.362
 6225W        W65519  22.208   8.404  13.808
 6226W        W65520  33.952  39.831   2.744
 6227W        W65521   1.849  12.117  12.493
 6228W        W65522  36.875  26.147   1.877
 6229W        W65523  32.635  14.205   1.851
 6230W        W65524  10.868   7.673   1.385
 6231W        W65525   9.208  19.279   4.754
 6232W        W65526  23.127  20.126   4.183
 6233W        W65527   4.730  44.308   1.287
 6234W        W65528   3.726  29.167  12.062
 6235W        W65529  44.922  38.856   0.337
 6236W        W65530  20.196  19.594  10.527
 6237W        W65531  18.128  30.944  11.483
 6238W        W65532  38.564  39.065   4.217
 6239W        W65533  21.658  14.694   1.834
 6240W        W65534  39.367   4.883   4.753
 6241W        W65535  41.441   1.279   9.939
 6242W        W65536  35.473   2.405  14.934
 6243W        W65537   0.841  23.613  10.551
 6244W        W65538  14.156  13.305  13.963
 6245W        W65539  15.678  21.675  12.466
 6246W        W65540  35.007  33.595  13.536
 6247W        W65541  16.673  27.573   1.870
 6248W        W65542  38.440   0.920   3.326
 6249W        W65543   2.324  34.017   1.398
 6250W        W65544  29.482  44.863   1.913
 6251W        W65545  38.330  21.601   4.783
 6252W        W65546  30.922   7.857  11.435
 6253W        W65547  42.833  42.891  13.893
 6254W        W65548  43.505   8.864  12.510
 6255W        W65549   7.200  40.007   4.229
 6256W        W65550  35.560  23.510  10.628
 6257W        W65551  12.285  33.909   4.178
 6258W        W65552  22.049  44.259  10.992
 6259W        W65553  17.122  29.141   2.233
 6260W        W65554  29.985   3.949   0.927
 6261W        W65555  23.078  43.481  12.377
 6262W        W65556   0.417   3.431   3.240
 6263W        W65557  21.227  38.473   1.301
 6264W        W65558  32.418  23.994   3.212
 6265W        W65559  41.044  11.336   4.809
 6266W        W65560  36.997  24.516   4.330
 6267W        W65561  29.461  34.974  12.486
 6268W        W65562   7.240  36.046  13.005
 6269W        W65563  12.780  29.011  12.466
 6270W        W65564   5.726  37.026   1.699
 6271W        W65565   9.390  23.093   1.868
 6272W        W65566  40.335  18.106  13.905
 6273W        W65567  12.635  30.655  11.968
 6274W        W65568  11.257  20.237   4.761
 6275W        W65569  20.659  22.046   3.170
 6276W        W65570   3.848   3.349   1.231
 6277W        W65571  22.503   1.379   0.845
 6278W        W65572  28.001  42.979   4.126
 6279W        W65573   9.226  17.590  10.429
 6280W        W65574  27.659  42.812   2.275
 6281W        W65575  26.643  17.563  11.073
 6282W        W65576  39.533  22.186   0.793
 6283W        W65577   4.362  39.920   2.215
 6284W        W65578  39.849  25.995  13.375
 6285W        W65579   2.784  20.167  10.477
 6286W        W65580   2.874  16.092  10.968
 6287W        W65581   1.402  22.529  13.021
 6288W        W65582  21.622   3.938  14.392
 6289W        W65583  14.241  43.853  11.490
 6290W        W65584  25.135  15.313   1.317
 6291W        W65585  23.631  21.715   2.241
 6292W        W65586  17.141  23.638   3.273
 6293W        W65587   7.825   8.292  13.955
 6294W        W65588   4.842  22.215   3.854
 6295W        W65589   7.704  30.542   2.220
 6296W        W65590   3.319  27.046   0.871
 6297W        W65591  43.308  19.638  10.944
 6298W        W65592  15.317  17.170   2.718
 6299W        W65593  33.888  35.449   3.347
 6300W        W65594  16.638   7.292  12.568
 6301W        W65595   4.733  33.896   0.758
 6302W        W65596  29.029   7.229  12.048
 6303W        W65597  13.627  14.704  14.283
 6304W        W65598   0.753  32.531   2.381
 6305W        W65599  24.525  41.380  10.630
 6306W        W65600   8.839   8.205   4.335
 6307W        W65601   2.388  39.398  12.366
 6308W        W65602  37.510  17.166   2.696
 6309W        W65603  35.054   9.176   3.286
 6310W        W65604  35.087   7.828  11.898
 6311W        W65605  42.798   5.703   2.403
 6312W        W65606   9.788   9.669  12.884
 6313W        W65607  12.197   4.912  10.937
 6314W        W65608   9.651  33.987   1.372
 6315W        W65609  40.493   1.378  10.566
 6316W        W65610  26.195   3.790  12.997
 6317W        W65611   1.913  43.945  14.464
 6318W        W65612  21.051   7.355  13.446
 6319W        W65613   7.207  28.516   1.859
 6320W        W65614  40.370   8.337  14.359
 6321W        W65615   1.418   1.792   2.180
 6322W        W65616  21.755  28.077   4.154
 6323W        W65617   8.268  21.740  13.917
 6324W        W65618   5.232   2.280   1.355
 6325W        W65619  29.536  34.531   2.370
 6326W        W65620  41.340  26.127  10.589
 6327W        W65621  25.210   5.328  12.066
 6328W        W65622  36.097  27.478  11.608
 6329W        W65623  24.049   0.865  14.944
 6330W        W65624  25.600   1.893  11.480
 6331W        W65625   9.210   3.373   2.368
 6332W        W65626  18.059  13.652   0.814
 6333W        W65627   9.296  22.566   0.929
 6334W        W65628  34.073  35.995  13.944
 6335W        W65629   2.861   6.280   4.598
 6336W        W65630  41.496  44.970   3.183
 6337W        W65631  18.123   7.332  14.829
 6338W        W65632  36.010  30.948  13.863
 6339W        W65633   3.236  10.330  14.948
 6340W        W65634  33.105  24.630   1.327
 6341W        W65635  26.602  41.950  10.567
 6342W        W65636  40.451  22.072   3.264
 6343W        W65637  31.604  40.547   2.772
 6344W        W65638  19.059  43.943  11.123
 6345W        W65639  16.136  39.443  11.976
 6346W        W65640  36.409   7.228  11.519
 6347W        W65641  30.151  31.464   0.792
 6348W        W65642  32.024  27.482  11.573
 6349W        W65643  14.700   3.870   1.834
 6350W        W65644   6.839   7.274  13.361
 6351W        W65645  13.324  32.582   4.270
 6352W        W65646  43.300  13.779  11.399
 6353W        W65647   0.889  28.002  10.644
 6354W        W65648   2.297  14.102   0.814
 6355W        W65649  14.141   0.455  14.363
 6356W        W65650  41.021  16.090  10.471
 6357W        W65651   2.765   4.853  10.627
 6358W        W65652  41.800  22.557   1.701
 6359W        W65653   8.768   0.401  14.826
 6360W        W65654   3.226  20.741   3.167
 6361W        W65655  25.123  42.483  11.861
 6362W        W65656  39.008   9.678  11.459
 6363W        W65657   4.706  14.237   5.088
 6364W        W65658  41.309  36.945   3.658
 6365W        W65659  30.062   2.267  13.885
 6366W        W65660  21.654  32.593  12.888
 6367W        W65661  31.450  23.557  14.981
 6368W        W65662  39.515  30.048   4.760
 6369W        W65663  28.543  27.604   0.808
 6370W        W65664  13.344   6.376   0.373
 6371W        W65665   7.172   3.834   9.964
 6372W        W65666  36.980  23.109   1.864
 6373W        W65667  37.937  39.006   0.397
 6374W        W65668   5.257  29.171   4.767
 6375W        W65669  42.892  32.509  10.522
 6376W        W65670   5.428  26.980  10.487
 6377W        W65671   6.205  12.839   0.858
 6378W        W65672   7.296  44.370  12.552
 6379W        W65673  43.809  16.177   3.172
 6380W        W65674   0.973  25.492  13.028
 6381W        W65675  43.011  35.853  11.397
 6382W        W65676   6.827  33.993  14.808
 6383W        W65677   3.360   2.251  13.375
 6384W        W65678  30.070   5.436  12.436
 6385W        W65679  33.067  30.639   1.828
 6386W        W65680  28.941  35.870  13.312
 6387W        W65681  33.983  13.742  10.900
 6388W        W65682  26.510  28.948  10.091
 6389W        W65683   9.215  20.137  12.570
 6390W        W65684  14.682  23.547   0.910
 6391W        W65685  19.586  42.437  13.882
 6392W        W65686   9.878  15.111  11.527
 6393W        W65687  28.060  37.572  10.070
 6394W        W65688   8.772  10.151   4.730
 6395W        W65689  33.948  31.592  10.483
 6396W        W65690  27.474  44.952   3.720
 6397W        W65691  44.326  17.158   1.759
 6398W        W65692  27.576  13.266   3.304
 6399W        W65693   9.392  14.605   2.309
 6400W        W65694  23.578  21.248  12.931
 6401W        W65695  31.002   8.312   4.835
 6402W        W65696  28.142  36.905   4.654
 6403W        W65697  31.115  43.378  13.945
 6404W        W65698   4.899  26.177  11.900
 6405W        W65699  17.286   0.349  12.071
 6406W        W65700  15.233  24.156   3.247
 6407W        W65701   6.222  36.470   2.243
 6408W        W65702   2.278  17.581   2.237
 6409W        W65703  13.235  37.454   0.935
 6410W        W65704   6.261  20.219  11.859
 6411W        W65705  23.219  18.651  13.454
 6412W        W65706  43.316  44.799  11.002
 6413W        W65707  11.252  32.487   4.213
 6414W        W65708  26.131  34.408   1.827
 6415W        W65709   0.336  30.988  12.456
 6416W        W65710  20.098  11.717  11.120
 6417W        W65711  33.060   5.218   0.282
 6418W        W65712  28.445  26.534  11.914
 6419W        W65713  18.739  16.073   1.394
 6420W        W65714  10.314  30.004  11.958
 6421W        W65715   5.432  28.974  14.408
 6422W        W65716  41.380  19.186   4.686
 6423W        W65717  43.400  32.071  12.399
 6424W        W65718  19.557  25.047  12.361
 6425W        W65719  39.341  31.553   3.693
 6426W        W65720  12.342  20.762   0.304
 6427W        W65721  28.664  27.145   0.739
 6428W        W65722  13.720  17.104   0.833
 6429W        W65723   9.349  37.083  10.438
 6430W        W65724   5.219  14.304   2.301
 6431W        W65725  30.514  40.988   0.367
 6432W        W65726  36.058  38.926   1.217
 6433W        W65727  21.065   6.826  11.890
 6434W        W65728  11.693  26.664   0.740
 6435W        W65729  20.100  11.824   2.764
 6436W        W65730  28.473  37.996   4.298
 6437W        W65731  17.256  29.136   3.636
 6438W        W65732   8.862  10.861  14.884
 6439W        W65733  20.079   5.805   4.256
 6440W        W65734  39.938  30.499  13.821
 6441W        W65735  33.594   5.801  10.043
 6442W        W65736  36.919   1.475  10.502
 6443W        W65737  19.087  39.394   0.276
 6444W        W65738  39.969   2.295   0.789
 6445W        W65739  40.858  21.239   0.288
 6446W        W65740  40.405  29.586   4.771
 6447W        W65741  38.444  23.036  11.608
 6448W        W65742   6.691  43.827  12.418
 6449W        W65743  23.577   6.243  14.288
 6450W        W65744  34.011   2.752   3.199
 6451W        W65745  33.409   4.832   1.886
 6452W        W65746  39.041  11.846  10.529
 6453W        W65747  11.247  29.958   0.879
 6454W        W65748  28.658  38.036  12.348
 6455W        W65749  10.874   0.272   4.819
 6456W        W65750  21.641  24.528  12.512
 6457W        W65751  37.065  19.647   1.866
 6458W        W65752  42.435  30.152  12.414
 6459W        W65753  43.841  16.235  11.038
 6460W        W65754  41.996  41.538   3.231
 6461W        W65755  39.814   4.850  11.545
 6462W        W65756  11.137  15.619   0.285
 6463W        W65757  10.709   8.348   1.816
 6464W        W65758  12.812  25.015   4.239
 6465W        W65759  23.182  19.683  10.568
 6466W        W65760  24.683  41.791   0.841
 6467W        W65761  24.479   1.461  11.525
 6468W        W65762  21.632  12.626   1.805
 6469W        W65763   9.360  13.204  13.893
 6470W        W65764  41.013   5.934   1.359
 6471W        W65765  26.687  23.650  14.395
 6472W        W65766   9.259  10.305   4.696
 6473W        W65767  22.070  29.930   1.749
 6474W        W65768  40.474  41.847  11.002
 6475W        W65769  18.785  25.053  10.586
 6476W        W65770  31.052   5.696  12.926
 6477W        W65771   5.714  27.155  11.004
 6478W        W65772  32.062  21.175  12.842
 6479W        W65773  44.799  34.100  13.405
 6480W        W65774  14.187  36.441  14.799
 6481W        W65775  44.260  25.040  11.961
 6482W        W65776  30.068  29.102  13.395
 6483W        W65777   2.345   0.938   0.950
 6484W        W65778  21.106  28.450   0.862
 6485W        W65779   9.645  30.479   0.418
 6486W        W65780   1.451  16.132  11.929
 6487W        W65781  27.690  22.510  11.592
 6488W        W65782  13.333   2.268   4.157
 6489W        W65783  39.429  35.440  12.410
 6490W        W65784  36.974  36.007   9.938
 6491W        W65785  24.539  26.961  13.412
 6492W        W65786  32.467  39.841   2.849
 6493W        W65787   8.763  36.868  12.024
 6494W        W65788  20.081  44.753   2.865
 6495W        W65789   1.283  14.786   0.872
 6496W        W65790   6.859   7.358  12.085
 6497W        W65791  34.384  12.356  12.965
 6498W        W65792  23.650  13.204   1.747
 6499W        W65793  34.452  17.708  11.929
 6500W        W65794   7.177   5.386   2.719
 6501W        W65795  39.438  25.483   4.230
 6502W        W65796  41.343   0.955   3.856
 6503W        W65797   2.935  26.028  12.962
 6504W        W65798  10.657  30.005  14.868
 6505W        W65799   6.697  39.520  10.927
 6506W        W65800  43.816  11.640   1.417
 6507W        W65801  12.321  14.165   4.326
 6508W        W65802  13.747  12.820  13.329
 6509W        W65803  28.591   2.814   0.838
 6510W        W65804   6.303   2.329  14.764
 6511W        W65805  27.512   5.805  13.034
 6512W        W65806  25.078  16.215   4.686
 6513W        W65807   3.304  15.742   3.168
 6514W        W65808  25.511  32.480  11.048
 6515W        W65809  28.169  41.377   1.845
 6516W        W65810  22.013  11.805  11.987
 6517W        W65811  34.411  22.500   3.187
 6518W        W65812  26.677  42.417  10.002
 6519W        W65813   9.890  24.058  11.002
 6520W        W65814  29.015  11.266   3.636
 6521W        W65815  24.214  25.041  14.401
 6522W        W65816  10.240   7.682   2.688
 6523W        W65817   2.372  25.478   0.465
 6524W        W65818  34.370  41.862   1.802
 6525W        W65819  41.489  35.068   4.321
 6526W        W65820  43.809  38.016   0.965
 6527W        W65821  41.931   9.868   3.632
 6528W        W65822  22.062  43.480  10.938
 6529W        W65823  32.930  18.764  11.520
 6530W        W65824  10.349  14.180  11.957
 6531W        W65825  32.896   1.440  14.502
 6532W        W65826  14.681  23.645   3.166
 6533W        W65827   0.298   7.720   0.269
 6534W        W65828  32.448  21.702  12.052
 6535W        W65829   3.908   7.786   0.298
 6536W        W65830  39.429  32.583  13.959
 6537W        W65831  38.901  10.303  10.563
 6538W        W65832  35.421  15.318  14.367
 6539W        W65833  42.945  41.946   0.893
 6540W        W65834  13.343   0.275  11.924
 6541W        W65835  21.217  26.204  12.089
 6542W        W65836  11.368  19.727  11.996
 6543W        W65837  34.515  41.380   4.305
 6544W        W65838  29.500   7.906   3.759
 6545W        W65839   0.462  25.664  13.532
 6546W        W65840  11.831  15.258  12.056
 6547W        W65841  25.598   2.919  10.596
 6548W        W65842   4.394  41.927  11.512
 6549W        W65843  33.898   0.879   2.186
 6550W        W65844  42.502  37.866   2.799
 6551W        W65845   8.780  15.628   0.930
 6552W        W65846  43.962  20.588  11.003
 6553W        W65847  28.087  39.367   2.217
 6554W        W65848   3.404   5.241  11.044
 6555W        W65849  14.276  28.568  12.009
 6556W        W65850  38.548  20.745   2.725
 6557W        W65851  39.445  18.719   4.745
 6558W        W65852  39.997   6.697  14.844
 6559W        W65853  34.901  18.093   1.266
 6560W        W65854  30.143  20.555  11.023
 6561W        W65855  29.500   4.731   3.825
 6562W        W65856  43.501  25.555  12.050
 6563W        W65857  19.765  25.075   3.642
 6564W        W65858  32.538   5.899   0.369
 6565W        W65859  13.838  21.737   0.828
 6566W        W65860  38.501  29.576  14.307
 6567W        W65861  13.185  23.578  14.919
 6568W        W65862   5.375   9.319  14.329
 6569W        W65863   2.379  44.482  12.465
 6570W        W65864  35.465  31.443  13.920
 6571W        W65865   3.323   9.172   4.272
 6572W        W65866  12.352  43.516   0.915
 6573W        W65867  25.660  26.172  10.933
 6574W        W65868  29.044  22.611   0.939
 6575W        W65869  19.197  28.582  13.849
 6576W        W65870  41.851  13.709  12.908
 6577W        W65871  37.932  39.357   1.882
 6578W        W65872  42.003  17.568   0.761
 6579W        W65873  24.679  35.047  14.363
 6580W        W65874   8.351  22.643   1.443
 6581W        W65875   0.251   1.421   2.781
 6582W        W65876  24.038   7.891   5.777
 6583W        W65877  10.311  33.568   1.437
 6584W        W65878  26.184  24.648   0.894
 6585W        W65879  29.146   3.880   4.140
 6586W        W65880  21.141  16.199  11.905
 6587W        W65881   5.312   2.453  13.308
 6588W        W65882  17.065   2.747  13.547
 6589W        W65883  20.094  12.132   4.643
 6590W        W65884  37.559  28.542  13.018
 6591W        W65885  24.636   5.899   2.405
 6592W        W65886  10.644   2.799  10.535
 6593W        W65887   0.283  10.742  12.846
 6594W        W65888   9.190  24.132   4.663
 6595W        W65889   6.234  31.557   4.787
 6596W        W65890  15.237  16.317   5.095
 6597W        W65891  42.373  20.643   3.705
 6598W        W65892  37.557  15.312  12.964
 6599W        W65893  39.463  11.357  13.340
 6600W        W65894   1.966   6.782  13.368
 6601W        W65895  38.565  26.129   3.655
 6602W        W65896  19.618  10.208   0.766
 6603W        W65897   3.274  37.431   5.263
 6604W        W65898  30.995  30.916  14.500
 6605W        W65899  18.266  27.479  12.552
 6606W        W65900   0.371   4.407  13.871
 6607W        W65901  32.916  25.969   1.299
 6608W        W65902  40.973  14.695   4.731
 6609W        W65903  43.478  35.406   0.960
 6610W        W65904  43.320  37.474  14.282
 6611W        W65905  41.448   9.201  13.509
 6612W        W65906  29.466  27.162  11.886
 6613W        W65907   8.776  12.696  11.376
 6614W        W65908  21.588  26.067   0.246
 6615W        W65909  13.669  27.176  10.921
 6616W        W65910  17.223   5.294  11.515
 6617W        W65911  42.936  42.377  14.817
 6618W        W65912   8.683  21.753  12.407
 6619W        W65913   1.895  42.344  13.514
 6620W        W65914  36.896   7.268  12.897
 6621W        W65915  15.682   5.412  10.490
 6622W        W65916  28.537  17.673  13.526
 6623W        W65917  29.014  32.908   2.806
 6624W        W65918  37.831   7.880   0.294
 6625W        W65919   9.750   4.426   1.886
 6626W        W65920  30.097  32.477  12.955
 6627W        W65921  21.219  29.506  11.547
 6628W        W65922  35.884  23.218  13.987
 6629W        W65923  40.394   0.284   5.110
 6630W        W65924   5.211   4.731  13.511
 6631W        W65925  36.864  12.651   0.337
 6632W        W65926   6.351   5.837   2.724
 6633W        W65927  19.064   6.420  14.924
 6634W        W65928  13.128  17.143  12.035
 6635W        W65929  36.495  11.845   5.779
 6636W        W65930   8.238  12.116   4.768
 6637W        W65931  14.254  27.501  12.494
 6638W        W65932  27.621  13.729   3.246
 6639W        W65933   7.304  37.472   3.320
 6640W        W65934  10.694  35.589   0.878
 6641W        W65935  18.055  13.159  13.973
 6642W        W65936   0.295  21.163  14.902
 6643W        W65937  29.924  18.659  10.631
 6644W        W65938  22.501  33.075  13.844
 6645W        W65939   3.841   1.862   1.697
 6646W        W65940  38.550  19.721   4.658
 6647W        W65941  29.923   5.362  12.991
 6648W        W65942  22.082  44.783  11.502
 6649W        W65943  27.524  40.863  11.537
 6650W        W65944  17.304  21.127   1.728
 6651W        W65945   6.426  43.272  13.941
 6652W        W65946  44.874  39.432   0.930
 6653W        W65947   1.863  20.686  10.951
 6654W        W65948  14.335  30.154  10.483
 6655W        W65949  23.541  32.005   1.860
 6656W        W65950  32.522  19.609  12.570
 6657W        W65951   6.288  17.237   1.883
 6658W        W65952  11.228  31.565   1.351
 6659W        W65953  23.196  24.647   0.860
 6660W        W65954  10.288   5.827  11.469
 6661W        W65955  11.267  30.592   0.769
 6662W        W65956  11.718  21.630  14.826
 6663W        W65957   9.191   4.709   4.209
 6664W        W65958   7.317  10.178   5.228
 6665W        W65959  11.138  30.507   4.159
 6666W        W65960  20.165  13.823  10.931
 6667W        W65961   1.849  20.739  13.533
 6668W        W65962  39.061  39.036   0.814
 6669W        W65963  40.846   8.752  13.984
 6670W        W65964  24.193  42.966   5.289
 6671W        W65965  31.047  42.318  14.951
 6672W        W65966  16.179  24.116   1.858
 6673W        W65967  18.617  22.620   3.818
 6674W        W65968   8.764  10.320  13.521
 6675W        W65969   6.848  21.098   9.475
 6676W        W65970  14.671  19.255  10.131
 6677W        W65971  29.966  43.810  12.533
 6678W        W65972   1.278  41.534  12.940
 6679W        W65973  21.073  22.130   3.661
 6680W        W65974   1.357  32.032  13.890
 6681W        W65975   8.253  11.293  13.897
 6682W        W65976  22.241  19.746   4.743
 6683W        W65977  19.637   1.421  13.804
 6684W        W65978  43.355  28.990  14.020
 6685W        W65979   4.721  43.804  13.996
 6686W        W65980  40.823  30.621   4.599
 6687W        W65981  42.437   4.776  10.583
 6688W        W65982  41.413  19.737   2.355
 6689W        W65983   1.844   6.407  12.521
 6690W        W65984  15.776  38.053   4.190
 6691W        W65985  12.791   4.824  13.866
 6692W        W65986  26.011  32.461   2.829
 6693W        W65987  43.799   0.942   1.260
 6694W        W65988  19.221  12.745  14.933
 6695W        W65989  22.034   1.345   3.706
 6696W        W65990  37.399   2.957   1.841
 6697W        W65991  14.789  42.460  12.364
 6698W        W65992  33.916  43.463  12.932
 6699W        W65993  15.746  24.216   0.740
 6700W        W65994   2.357  16.647   4.707
 6701W        W65995  41.933  41.872   3.730
 6702W        W65996   5.240   5.750  12.479
 6703W        W65997  23.570  17.226  13.363
 6704W        W65998  23.730   2.858  12.833
 6705W        W65999  40.335   8.402   4.643
 6706W        W66000  42.440  21.568  10.955
 6707W        W66001  38.019  21.230  10.084
 6708W        W66002  32.487   8.675   5.303
 6709W        W66003  28.175  42.018   0.836
 6710W        W66004  35.583  36.375   1.352
 6711W        W66005  14.685  36.067   3.344
 6712W        W66006  27.591  21.557   2.801
 6713W        W66007   8.725  26.208   4.817
 6714W        W66008  40.405  19.747   4.219
 6715W        W66009  40.877  42.941  12.363
 6716W        W66010   0.415   6.759   3.297
 6717W        W66011  10.234   3.406  12.555
 6718W        W66012   0.845  35.366  13.988
 6719W        W66013  15.241  33.590  14.506
 6720W        W66014  36.565  19.646  14.895
 6721W        W66015  11.623  33.020   1.365
 6722W        W66016  24.572  14.834   3.327
 6723W        W66017  20.564  22.169   0.449
 6724W        W66018  11.132  41.367  13.906
 6725W        W66019  16.243  17.788   3.225
 6726W        W66020   1.286  21.082   2.811
 6727W        W66021  18.273  20.577  14.311
 6728W        W66022  14.755  39.839   0.265
 6729W        W66023   2.371  10.339  11.557
 6730W        W66024  14.669  43.986  10.428
 6731W        W66025  34.876  12.722   1.227
 6732W        W66026  16.095  16.796   5.750
 6733W        W66027  41.030   0.471  10.130
 6734W        W66028  36.526  17.718  10.462
 6735W        W66029  30.458  20.066  10.443
 6736W        W66030  39.885  16.240   3.735
 6737W        W66031  29.058  27.150  13.501
 6738W        W66032  39.542   8.174   3.157
 6739W        W66033  32.011  26.680  14.877
 6740W        W66034  42.808  43.768  11.402
 6741W        W66035  42.377  14.592  12.375
 6742W        W66036  18.788  36.090  14.930
 6743W        W66037  26.510  35.552  11.924
 6744W        W66038  17.211   0.825  14.850
 6745W        W66039  42.409  13.180  12.426
 6746W        W66040   4.430  36.380  14.390
 6747W        W66041  39.546   8.173   3.797
 6748W        W66042  30.985  19.538  11.927
 6749W        W66043  13.649  23.602  12.353
 6750W        W66044   5.242  32.502   3.220
 6751W        W66045   9.762  39.885   4.620
 6752W        W66046  39.446  16.074  13.465
 6753W        W66047  37.509  10.705   4.238
 6754W        W66048  37.442  35.965   3.148
 6755W        W66049  19.742  30.551   3.731
 6756W        W66050   4.432  13.766   3.189
 6757W        W66051   7.405  33.933   1.773
 6758W        W66052  18.175  11.698  10.081
 6759W        W66053   3.349  17.086   4.241
 6760W        W66054  32.946  39.485   0.892
 6761W        W66055  40.425  12.835   2.675
 6762W        W66056  19.225  11.290   2.232
 6763W        W66057   2.747  36.982  11.016
 6764W        W66058  11.702  26.127   3.213
 6765W        W66059   1.880  20.267  10.942
 6766W        W66060   2.728  37.887   3.631
 6767W        W66061  11.732  35.494   4.176
 6768W        W66062  18.587   8.397   4.647
 6769W        W66063  34.108  40.421  11.565
 6770W        W66064  20.064  38.071  11.462
 6771W        W66065  41.956  27.462  14.293
 6772W        W66066   1.427  13.607   4.794
 6773W        W66067   5.874  39.448   1.846
 6774W        W66068  19.582  11.852   2.849
 6775W        W66069  25.676  23.693   3.714
 6776W        W66070  36.470   3.783  12.544
 6777W        W66071  38.444  10.223   4.329
 6778W        W66072  25.613  23.180   0.886
 6779W        W66073  36.064  22.708   3.182
 6780W        W66074  22.555   1.777   1.780
 6781W        W66075   0.459  10.223  14.923
 6782W        W66076   8.291  30.499  13.899
 6783W        W66077  12.781  13.261  12.578
 6784W        W66078  11.309   6.748   2.349
 6785W        W66079  35.031   0.833   3.771
 6786W        W66080   1.413  19.189  11.971
 6787W        W66081  17.255  11.146   3.760
 6788W        W66082  30.909  42.959  10.468
 6789W        W66083  44.829  31.466   1.798
 6790W        W66084  26.630  38.974  13.965
 6791W        W66085  14.698  35.986   0.880
 6792W        W66086  29.656  44.762   3.214
 6793W        W66087  27.618  36.917   1.357
 6794W        W66088  30.086  25.708   1.924
 6795W        W66089  37.384   5.348  14.397
 6796W        W66090  22.715  29.659  13.031
 6797W        W66091  33.524  15.753  13.029
 6798W        W66092  19.203   0.395   1.387
 6799W        W66093  17.255  28.040  12.475
 6800W        W66094  38.416   4.314   2.179
 6801W        W66095  39.328   0.957   2.699
 6802W        W66096   2.797   9.219   1.805
 6803W        W66097  15.768   2.826  14.467
 6804W        W66098   7.817  15.703  13.325
 6805W        W66099  41.814  24.679   2.375
 6806W        W66100  11.630  25.100  10.005
 6807W        W66101  20.735  28.571  12.455
 6808W        W66102  24.616  44.351   1.735
 6809W        W66103  17.628  22.659  11.093
 6810W        W66104   3.947  25.687  10.936
 6811W        W66105  21.676  31.125   2.688
 6812W        W66106  22.724  36.983  11.591
 6813W        W66107  21.741  17.152  13.398
 6814W        W66108   2.890   4.718   4.611
 6815W        W66109  24.121  33.487   0.849
 6816W        W66110   3.815  13.748  12.438
 6817W        W66111   9.164  36.091  11.981
 6818W        W66112  31.474   9.225  13.538
 6819W        W66113  38.035  12.848   2.736
 6820W        W66114  40.506  37.994   0.769
 6821W        W66115  39.822  26.595  14.325
 6822W        W66116  16.098  27.958  12.445
 6823W        W66117  12.344  11.349   9.589
 6824W        W66118  38.069  27.188   1.748
 6825W        W66119   5.270  27.658  11.870
 6826W        W66120  26.119  13.761   2.319
 6827W        W66121   3.893  38.928   1.437
 6828W        W66122  26.965   1.801   3.746
 6829W        W66123  12.230  24.018  11.104
 6830W        W66124  39.549  21.159   0.805
 6831W        W66125  23.688  44.438  11.499
 6832W        W66126  13.680   1.872   0.844
 6833W        W66127  41.380   3.280  11.580
 6834W        W66128  38.069  12.715   0.927
 6835W        W66129  36.401  33.390  11.574
 6836W        W66130  37.964  43.423  13.943
 6837W        W66131  18.716  27.671  10.473
 6838W        W66132  35.968   9.749   4.617
 6839W        W66133  14.675  42.393  13.470
 6840W        W66134  28.582  35.375  14.829
 6841W        W66135  20.240  21.611  12.900
 6842W        W66136  11.176  28.657   3.846
 6843W        W66137  30.042  37.884   0.967
 6844W        W66138  42.462   3.786   1.802
 6845W        W66139  20.068  43.864  11.573
 6846W        W66140  24.202  12.698  14.790
 6847W        W66141  21.691  40.375   3.820
 6848W        W66142  23.509  28.094   4.746
 6849W        W66143   0.840  39.839   4.599
 6850W        W66144  21.737   6.710  13.461
 6851W        W66145  40.548  35.567  10.432
 6852W        W66146  31.145  25.079   5.312
 6853W        W66147  30.506  28.968  14.497
 6854W        W66148  11.189   2.328   0.378
 6855W        W66149   7.800   5.922   4.184
 6856W        W66150  35.861  31.988  11.029
 6857W        W66151  12.147   7.311   4.821
 6858W        W66152  21.128   1.475   3.823
 6859W        W66153  29.064  10.669  11.098
 6860W        W66154  13.835  26.056   0.908
 6861W        W66155   7.817  35.531   3.783
 6862W        W66156  16.207  18.132   9.933
 6863W        W66157  30.580  12.303  14.281
 6864W        W66158  12.150  40.965   3.294
 6865W        W66159  23.064   3.718   1.262
 6866W        W66160  34.907  14.618  14.431
 6867W        W66161   1.932   9.157   4.682
 6868W        W66162  43.847   3.828  14.805
 6869W        W66163  33.388  34.927   3.828
 6870W        W66164  28.439  15.328  14.877
 6871W        W66165   7.787   6.397   1.297
 6872W        W66166  35.411   6.889   1.294
 6873W        W66167  33.402  41.988   4.663
 6874W        W66168  32.920  41.956  11.907
 6875W        W66169  41.859  43.512   3.718
 6876W        W66170  26.195  22.205   1.873
 6877W        W66171  43.355  34.581  14.938
 6878W        W66172  13.307  41.335  10.986
 6879W        W66173  21.743  21.075  14.323
 6880W        W66174  22.711  38.879  12.398
 6881W        W66175   2.919  44.768   0.829
 6882W        W66176  11.650  25.467  11.930
 6883W        W66177  13.184  41.459  14.944
 6884W        W66178  17.107  30.618  14.401
 6885W        W66179  15.802  14.331   1.270
 6886W        W66180  24.480  32.052  14.396
 6887W        W66181   6.804  15.262   4.776
 6888W        W66182  22.671  44.372  11.554
 6889W        W66183  42.978  17.637   1.839
 6890W        W66184  28.023  15.109  13.319
 6891W        W66185  13.296  40.398  12.847
 6892W        W66186  28.477  36.357   1.328
 6893W        W66187  36.549  16.760   2.784
 6894W        W66188  21.699   6.877  13.930
 6895W        W66189   9.691  19.725  13.816
 6896W        W66190  18.719   4.412   2.879
 6897W        W66191  12.286  21.627  11.878
 6898W        W66192  12.305  12.731  14.906
 6899W        W66193  35.392  36.895  12.442
 6900W        W66194   9.823  22.104   5.597
 6901W        W66195  23.598  28.994   3.769
 6902W        W66196  25.604  28.551   2.861
 6903W        W66197   1.973  13.816   0.385
 6904W        W66198  28.487  24.573  13.821
 6905W        W66199  22.115  38.005  10.512
 6906W        W66200   8.709  16.733  14.812
 6907W        W66201  13.163  36.978   4.190
 6908W        W66202   1.357  21.092   4.833
 6909W        W66203  24.182  14.768  10.954
 6910W        W66204   8.178  38.553   0.415
 6911W        W66205  38.472  40.312  14.795
 6912W        W66206  25.983  44.402  11.008
 6913W        W66207   7.310  18.739   4.282
 6914W        W66208  44.431  35.934  11.378
 6915W        W66209  20.594  41.408   4.222
 6916W        W66210  24.002  17.699   2.686
 6917W        W66211   6.374  30.589  10.495
 6918W        W66212  40.313  16.121   4.730
 6919W        W66213   3.845   4.410   1.224
 6920W        W66214  29.042  20.764  10.889
 6921W        W66215   7.294  31.618  14.014
 6922W        W66216  36.592  40.032   1.367
 6923W        W66217  33.603  30.598  13.809
 6924W        W66218  33.895  25.650   1.859
 6925W        W66219  19.171  36.060   4.765
 6926W        W66220   8.807  20.632  13.905
 6927W        W66221  33.441  38.552   3.233
 6928W        W66222  12.131  35.595  11.103
 6929W        W66223   4.834  14.195  10.936
 6930W        W66224  35.475  31.925   3.293
 6931W        W66225  35.986  14.143   3.210
 6932W        W66226  10.351  30.468  13.412
 6933W        W66227  18.763  27.191  10.522
 6934W        W66228  14.128  20.597   9.983
 6935W        W66229  14.206  39.952   1.920
 6936W        W66230  29.612  34.380   4.317
 6937W        W66231  28.493   6.238   2.682
 6938W        W66232  32.006  22.671  12.405
 6939W        W66233  41.479   8.348   0.285
 6940W        W66234  12.319  13.716   3.821
 6941W        W66235  26.522  24.010   0.778
 6942W        W66236  41.476  11.771  10.510
 6943W        W66237  21.620   4.743   3.149
 6944W        W66238  16.222  14.308  12.421
 6945W        W66239   4.871   0.466   3.646
 6946W        W66240  29.141   3.729   2.700
 6947W        W66241  32.442  41.486  10.425
 6948W        W66242  12.253  38.969   1.720
 6949W        W66243  25.975  15.268   3.678
 6950W        W66244   5.748  25.032   1.888
 6951W        W66245  10.753  27.472   2.326
 6952W        W66246  26.976  19.249   4.641
 6953W        W66247  16.202  34.451   0.733
 6954W        W66248  34.079  25.081   2.851
 6955W        W66249  14.699   7.300  14.964
 6956W        W66250  19.250  25.587  10.622
 6957W        W66251  35.016   5.702   1.800
 6958W        W66252  39.821  12.162   3.699
 6959W        W66253  19.090  10.178   1.318
 6960W        W66254  33.984  26.984  10.506
 6961W        W66255  24.141  43.021  14.515
 6962W        W66256  36.420  31.624   3.825
 6963W        W66257   1.818  14.683   0.374
 6964W        W66258  17.271  25.627   0.298
 6965W        W66259  30.079   1.970  10.500
 6966W        W66260   2.454   0.337   4.651
 6967W        W66261  29.466   3.260  10.108
 6968W        W66262  32.951  15.218  11.995
 6969W        W66263  31.597  41.865  13.313
 6970W        W66264  10.759  39.419  14.311
 6971W        W66265  22.137  13.815   3.193
 6972W        W66266  36.472  13.753   3.772
 6973W        W66267  31.642  31.435   3.672
 6974W        W66268  16.586   2.446   3.192
 6975W        W66269  26.634   1.332   2.780
 6976W        W66270  38.017  24.593   1.442
 6977W        W66271  27.582  42.783   0.890
 6978W        W66272   0.901   9.175  13.803
 6979W        W66273  12.764  12.228   3.848
 6980W        W66274  41.453  41.807   4.598
 6981W        W66275   9.875  43.982   3.871
 6982W        W66276  12.211  42.811  11.394
 6983W        W66277   4.704  43.971  11.488
 6984W        W66278  17.700  31.939   0.404
 6985W        W66279  21.683  26.627  14.357
 6986W        W66280  23.094   6.741   9.566
 6987W        W66281  10.239  12.739   4.278
 6988W        W66282   3.271  20.236   3.170
 6989W        W66283  24.568  42.841   5.242
 6990W        W66284  41.485  13.212  13.852
 6991W        W66285  27.051   4.789  14.852
 6992W        W66286  18.230   8.174  10.454
 6993W        W66287  31.586  44.423   4.319
 6994W        W66288  21.162  30.007   0.257
 6995W        W66289   7.864   4.405  14.821
 6996W        W66290   8.705  31.144  12.089
 6997W        W66291  29.637  37.851  11.443
 6998W        W66292  26.485  32.992   0.378
 6999W        W66293  13.736  32.598   1.734
 7000W        W66294  14.252  21.035  14.402
 7001W        W66295  14.764  10.822  12.945
 7002W        W66296  37.478  33.602   0.884
 7003W        W66297   5.268   1.952   2.824
 7004W        W66298  23.502   2.235  10.479
 7005W        W66299  34.449  35.074   2.826
 7006W        W66300  26.487  16.725  12.492
 7007W        W66301  13.736  34.560  14.412
 7008W        W66302  26.498  38.056  12.862
 7009W        W66303  20.539   3.847  10.564
 7010W        W66304  16.241  29.505  12.974
 7011W        W66305  29.065  13.820  11.077
 7012W        W66306  34.008  42.902  12.024
 7013W        W66307  16.606   0.298  11.563
 7014W        W66308  27.460  39.390   2.825
 7015W        W66309  27.010  24.525  14.804
 7016W        W66310  34.580  10.250  13.390
 7017W        W66311  32.899  21.702   2.234
 7018W        W66312   9.258  32.496   2.323
 7019W        W66313   1.462  36.529   0.886
 7020W        W66314  17.297   8.163  12.354
 7021W        W66315  17.185  17.267  12.936
 7022W        W66316  22.709  25.586  11.862
 7023W        W66317  21.252  26.652   0.467
 7024W        W66318   4.818   2.942  10.980
 7025W        W66319  37.954  35.935  10.890
 7026W        W66320   6.318  15.746  11.964
 7027W        W66321   7.350  39.363   2.899
 7028W        W66322  27.128  38.512  11.903
 7029W        W66323  40.861  30.062  11.974
 7030W        W66324  16.266  32.124   5.300
 7031W        W66325  33.415   5.848  13.444
 7032W        W66326   2.310  11.175   3.332
 7033W        W66327  36.033   2.896  11.113
 7034W        W66328  29.640  39.447  14.316
 7035W        W66329  22.502  13.730   0.316
 7036W        W66330  28.624  38.377   5.123
 7037W        W66331  24.717  23.718   2.187
 7038W        W66332   4.764  37.485  12.452
 7039W        W66333  27.193   1.932  12.873
 7040W        W66334  23.669   6.878   1.420
 7041W        W66335  10.296  42.965   0.375
 7042W        W66336  13.322  44.003  12.086
 7043W        W66337  12.610  25.012   2.384
 7044W        W66338  34.938   9.728   4.179
 7045W        W66339  14.657  33.462   0.387
 7046W        W66340  28.592  34.037   2.288
 7047W        W66341  23.115   1.952  12.065
 7048W        W66342  40.435  20.198  13.985
 7049W        W66343   3.860  23.632  12.569
 7050W        W66344  19.221  30.115  10.981
 7051W        W66345   0.432  35.062   4.222
 7052W        W66346  15.259  32.612  14.423
 7053W        W66347  39.545  28.656   2.664
 7054W        W66348  44.322  15.757   4.220
 7055W        W66349  22.568  37.455  11.513
 7056W        W66350  39.501  16.087   4.133
 7057W        W66351  38.462  41.538  13.050
 7058W        W66352  36.575  21.063  11.858
 7059W        W66353  20.189  24.538  12.565
 7060W        W66354   3.834  43.429   0.732
 7061W        W66355  35.996  19.613  11.959
 7062W        W66356   6.693  39.352  11.481
 7063W        W66357  39.317  10.764  12.527
 7064W        W66358  18.611  28.475   1.885
 7065W        W66359   2.352  27.479  10.904
 7066W        W66360  10.342  16.231   3.219
 7067W        W66361   5.800  40.797  10.901
 7068W        W66362  30.622  21.082  13.380
 7069W        W66363  30.571  32.411   4.295
 7070W        W66364  11.750  37.837   3.184
 7071W        W66365  29.012  20.265  10.966
 7072W        W66366  10.174   1.789   1.325
 7073W        W66367  19.171  15.624   0.942
 7074W        W66368   6.793  43.502   1.216
 7075W        W66369  30.951   3.755  10.967
 7076W        W66370  25.997  28.593   3.777
 7077W        W66371  26.977  20.559  11.129
 7078W        W66372  24.096  12.129   2.679
 7079W        W66373  37.474   1.407  10.486
 7080W        W66374  44.293   8.763   4.601
 7081W        W66375  44.280   3.806  10.472
 7082W        W66376  25.522   7.818   3.182
 7083W        W66377  17.090  23.665  12.945
 7084W        W66378  25.510   8.300  12.373
 7085W        W66379  14.603  24.222   2.722
 7086W        W66380  24.570  17.577  11.398
 7087W        W66381  10.161   8.788  11.392
 7088W        W66382  44.308  42.780  14.297
 7089W        W66383  34.960  41.458  14.366
 7090W        W66384   0.420   9.334   4.687
 7091W        W66385  22.639   5.320  10.494
 7092W        W66386  22.565   2.860   1.314
 7093W        W66387   2.926  16.805  10.615
 7094W        W66388  26.978  33.413  14.451
 7095W        W66389  15.701  42.440   4.218
 7096W        W66390  38.075  15.240   0.736
 7097W        W66391  27.586  34.038  12.887
 7098W        W66392  39.892  44.989  14.449
 7099W        W66393  25.210  37.975  14.775
 7100W        W66394  42.518  26.581  13.894
 7101W        W66395  23.004  18.571  12.860
 7102W        W66396   9.809   5.342  10.940
 7103W        W66397  21.615  36.918  11.958
 7104W        W66398  17.174   5.207  12.369
 7105W        W66399  40.393  28.638  14.838
 7106W        W66400  17.607  31.131   4.274
 7107W        W66401  38.931  17.798   3.731
 7108W        W66402  39.390  10.180   2.385
 7109W        W66403  40.320  14.156   0.897
 7110W        W66404  16.569  29.631  13.883
 7111W        W66405  36.887   9.757   2.878
 7112W        W66406  36.854  41.010  10.999
 7113W        W66407   5.881  31.595  12.880
 7114W        W66408  25.493  19.098  11.999
 7115W        W66409  29.534  31.105   0.414
 7116W        W66410  44.776   9.315   0.330
 7117W        W66411  40.316  25.630  13.480
 7118W        W66412   8.807  42.469   1.903
 7119W        W66413  18.132  34.867  11.966
 7120W        W66414  23.154  13.222  10.507
 7121W        W66415   3.947  32.918  14.759
 7122W        W66416   6.909   1.779  10.099
 7123W        W66417  15.135  21.245  10.006
 7124W        W66418  29.941   3.853  10.925
 7125W        W66419  33.559   1.327  11.086
 7126W        W66420  31.073  34.036   0.778
 7127W        W66421  32.439  18.247   1.352
 7128W        W66422   1.354   0.466  14.828
 7129W        W66423  23.699  34.526  13.404
 7130W        W66424  31.075  22.073  13.828
 7131W        W66425  40.040  10.309   3.304
 7132W        W66426  14.784  26.535   3.725
 7133W        W66427  30.001  10.657  13.028
 7134W        W66428  12.321   0.346  11.956
 7135W        W66429  22.160  20.745  13.398
 7136W        W66430  26.072  37.477  14.994
 7137W        W66431  35.935  12.804   2.673
 7138W        W66432  21.258  44.300  11.550
 7139W        W66433   5.846  24.041  14.956
 7140W        W66434   3.900  14.187  10.613
 7141W        W66435  26.700  17.737  14.843
 7142W        W66436  42.523  35.886  13.521
 7143W        W66437   8.343  22.172   4.287
 7144W        W66438  33.919  16.669  14.885
 7145W        W66439   7.200  28.490   0.887
 7146W        W66440  21.135   8.401   2.223
 7147W        W66441  35.104  15.323   1.358
 7148W        W66442   3.300  12.653   0.269
 7149W        W66443  22.083  37.518   4.665
 7150W        W66444  44.906  41.388   0.337
 7151W        W66445  23.084  28.646  13.464
 7152W        W66446   0.952  21.675  10.474
 7153W        W66447  37.005  20.032  14.796
 7154W        W66448  44.865  27.610   0.293
 7155W        W66449  36.014  27.984  11.934
 7156W        W66450   8.742  16.308  14.026
 7157W        W66451  37.870  10.193  14.477
 7158W        W66452  40.305  41.473  13.909
 7159W        W66453  15.122  25.604   2.262
 7160W        W66454  19.559  20.166   3.860
 7161W        W66455   0.247  25.107   3.683
 7162W        W66456   0.807  36.908  10.903
 7163W        W66457  24.207  44.302   3.800
 7164W        W66458   6.415  40.011  13.947
 7165W        W66459  13.136  17.176   5.117
 7166W        W66460  29.451  35.010   2.275
 7167W        W66461  35.391   7.337   0.285
 7168W        W66462  43.402   6.834   3.646
 7169W        W66463  35.978   1.932   3.792
 7170W        W66464  37.542  13.152  12.980
 7171W        W66465   1.744  26.961   2.349
 7172W        W66466  42.009  14.704   0.760
 7173W        W66467  32.444  21.604  13.546
 7174W        W66468  17.247  44.421   4.730
 7175W        W66469  14.597  29.153   1.278
 7176W        W66470  20.225  27.635   4.282
 7177W        W66471   3.763   0.299  11.408
 7178W        W66472  35.548  23.495   2.388
 7179W        W66473   7.747  18.242  13.913
 7180W        W66474  38.329   1.471   3.149
 7181W        W66475   1.804   7.211   3.696
 7182W        W66476  25.584  22.125  12.085
 7183W        W66477  11.860  18.230   3.794
 7184W        W66478  18.546  12.172  13.371
 7185W        W66479  21.153  10.638   3.848
 7186W        W66480  15.701   1.397  10.573
 7187W        W66481  27.051  15.773  11.040
 7188W        W66482  25.596  13.166  11.487
 7189W        W66483  28.452   7.856   2.418
 7190W        W66484  43.361  39.040   3.712
 7191W        W66485  12.625   4.705   3.705
 7192W        W66486   1.387   4.801   5.181
 7193W        W66487  15.668  10.812  12.831
 7194W        W66488  42.001  24.179  12.405
 7195W        W66489   8.673   9.652   1.417
 7196W        W66490  29.101  39.867   3.215
 7197W        W66491   6.722  23.135  13.944
 7198W        W66492  29.651  28.469  11.398
 7199W        W66493  29.141   7.237   1.892
 7200W        W66494   2.436  40.353  11.046
 7201W        W66495  15.783  33.490  11.406
 7202W        W66496  11.661  13.170   3.311
 7203W        W66497  40.492  12.277  12.491
 7204W        W66498   4.269  30.965   1.909
 7205W        W66499   0.494   4.336   0.302
 7206W        W66500  31.545   2.808   0.962
 7207W        W66501  24.597  12.714  11.096
 7208W        W66502  32.109   6.859   9.957
 7209W        W66503  39.942  15.277   2.178
 7210W        W66504  18.619  39.939  11.977
 7211W        W66505  26.659  34.543  11.536
 7212W        W66506  31.027  13.802   2.183
 7213W        W66507   9.833  42.292   3.332
 7214W        W66508  36.087  20.047  12.867
 7215W        W66509  17.289  36.353  10.589
 7216W        W66510  21.697  27.146   1.853
 7217W        W66511  44.889  25.075  10.948
 7218W        W66512  26.091   8.786   0.308
 7219W        W66513  42.489  26.165  10.890
 7220W        W66514  11.705  37.087  10.415
 7221W        W66515  19.720  40.401  11.479
 7222W        W66516  28.974   1.370   0.391
 7223W        W66517   8.855  12.183  13.358
 7224W        W66518  29.039  38.991   2.276
 7225W        W66519   1.294  20.595   1.776
 7226W        W66520  38.524  18.681   1.242
 7227W        W66521  38.468   5.242  12.505
 7228W        W66522  33.614   7.904   1.823
 7229W        W66523   0.939  30.118  11.548
 7230W        W66524  37.062  44.504  12.920
 7231W        W66525  29.597  11.269  10.485
 7232W        W66526   5.794  34.094  12.921
 7233W        W66527  22.252   1.928   1.335
 7234W        W66528  35.430  22.746   1.845
 7235W        W66529  32.083  12.781   4.800
 7236W        W66530  14.610  23.676   4.750
 7237W        W66531   1.392  40.797   4.702
 7238W        W66532   0.249  30.055   1.818
 7239W        W66533  33.017  15.273  10.491
 7240W        W66534  24.987  39.970   0.351
 7241W        W66535  23.503  34.894   3.826
 7242W        W66536  11.176  18.716   2.180
 7243W        W66537   6.829  42.377   2.338
 7244W        W66538  41.787   2.361  14.909
 7245W        W66539   9.684  38.335   3.654
 7246W        W66540  21.611   2.316  14.436
 7247W        W66541  42.319  33.075   1.824
 7248W        W66542  38.940  21.701  14.976
 7249W        W66543  40.861  41.813   0.278
 7250W        W66544  38.497  19.083  10.482
 7251W        W66545  25.538  35.038  10.156
 7252W        W66546  21.256  14.708  11.901
 7253W        W66547   7.373  30.579   2.796
 7254W        W66548  22.747  42.389  10.596
 7255W        W66549   6.397   5.329  14.459
 7256W        W66550  36.866  11.748   0.867
 7257W        W66551   6.825  34.552  14.803
 7258W        W66552  19.683  33.985  14.919
 7259W        W66553  25.643  28.147   3.232
 7260W        W66554  35.961   1.953   2.803
 7261W        W66555  37.573  28.042   3.684
 7262W        W66556   6.365  22.564   5.668
 7263W        W66557  28.635  32.412  11.022
 7264W        W66558   3.270  36.477   3.700
 7265W        W66559  17.075  15.265  10.083
 7266W        W66560  18.703   1.372   4.654
 7267W        W66561  21.723   8.367   2.289
 7268W        W66562  10.862   0.316   3.199
 7269W        W66563  10.798  14.677   2.841
 7270W        W66564   4.391   9.723   2.855
 7271W        W66565   5.917  12.292   0.878
 7272W        W66566   4.787   6.807   4.153
 7273W        W66567  11.195  16.284  14.354
 7274W        W66568  18.176  15.272  12.511
 7275W        W66569   9.216  30.075   5.315
 7276W        W66570  13.732  20.758   0.811
 7277W        W66571  38.362  43.433   0.868
 7278W        W66572  34.953  23.530   0.473
 7279W        W66573  39.470  44.826   0.365
 7280W        W66574  39.979  28.146  10.618
 7281W        W66575   0.489  15.754   0.354
 7282W        W66576  22.064  29.102  14.466
 7283W        W66577   9.267  44.437  12.439
 7284W        W66578  28.940  43.340  10.581
 7285W        W66579  35.089   1.739  12.012
 7286W        W66580  43.842  44.998   2.257
 7287W        W66581  14.221   7.391  11.018
 7288W        W66582   7.383  23.165  11.409
 7289W        W66583   3.409  30.996   0.796
 7290W        W66584  31.559  41.926  11.546
 7291W        W66585  33.891  35.468   0.917
 7292W        W66586  10.844  18.157  14.890
 7293W        W66587  41.938  20.136  12.397
 7294W        W66588  10.349  36.483   3.633
 7295W        W66589  39.986  25.515   0.874
 7296W        W66590  27.478   8.178   1.273
 7297W        W66591   2.467   1.480   4.747
 7298W        W66592  11.190  25.145  12.896
 7299W        W66593  41.811  10.673  12.085
 7300W        W66594  25.532  20.239  10.417
 7301W        W66595  36.992  20.235  12.438
 7302W        W66596  32.527  37.426  14.288
 7303W        W66597  25.215  24.986   2.336
 7304W        W66598  13.821  13.844   3.296
 7305W        W66599  24.594  30.607   4.638
 7306W        W66600  10.248  25.564   3.321
 7307W        W66601   1.771  43.427  14.516
 7308W        W66602  33.877  44.900   2.737
 7309W        W66603  28.169  33.387  12.013
 7310W        W66604   2.924   5.812  11.399
 7311W        W66605  22.091   1.786   0.960
 7312W        W66606   1.411  33.915   1.715
 7313W        W66607  19.737  43.865  11.376
 7314W        W66608  36.388   0.316  10.548
 7315W        W66609  12.714  13.619  11.376
 7316W        W66610  43.510   9.332  12.434
 7317W        W66611   0.776   2.796   4.624
 7318W        W66612  20.093   9.796  14.871
 7319W        W66613  27.009  15.744   2.690
 7320W        W66614  11.300  29.461   1.699
 7321W        W66615  11.355  36.067  13.039
 7322W        W66616   2.388  15.651   1.707
 7323W        W66617  22.237  13.119  14.781
 7324W        W66618  21.664  34.528   1.350
 7325W        W66619  13.709  24.064   0.265
 7326W        W66620  32.944  31.943  12.494
 7327W        W66621  36.559  35.538  13.926
 7328W        W66622   9.205   6.804  12.834
 7329W        W66623  30.579  14.285   2.879
 7330W        W66624   6.913  14.149   4.281
 7331W        W66625   7.744  17.691  12.475
 7332W        W66626  39.352  27.168   1.695
 7333W        W66627  36.502   4.295   2.340
 7334W        W66628  34.048   4.700  10.098
 7335W        W66629  25.601  39.820  14.370
 7336W        W66630  27.549   2.752  12.966
 7337W        W66631  26.520  16.794  10.083
 7338W        W66632  38.900  40.925  14.485
 7339W        W66633  29.660  15.324   2.273
 7340W        W66634  14.723   6.854   0.443
 7341W        W66635  37.067  26.201  12.561
 7342W        W66636  25.047  21.638  12.425
 7343W        W66637  38.558  36.546   0.440
 7344W        W66638  22.151  21.112   4.120
 7345W        W66639  33.486  20.563  10.922
 7346W        W66640   0.451  21.107   2.373
 7347W        W66641  28.649   4.342   0.861
 7348W        W66642   5.802   2.780   1.252
 7349W        W66643  37.456   5.221  14.931
 7350W        W66644   3.349  44.776   2.874
 7351W        W66645  41.017  38.483   1.885
 7352W        W66646  42.855  13.610   3.665
 7353W        W66647  37.552  24.221   3.223
 7354W        W66648  16.092  18.674   4.821
 7355W        W66649  40.989  44.394  13.804
 7356W        W66650  16.200   8.292   1.418
 7357W        W66651   9.368  44.488   2.755
 7358W        W66652  42.836  21.056  12.527
 7359W        W66653  20.153   3.404  10.522
 7360W        W66654  27.125  12.355   1.376
 7361W        W66655  31.442  41.528  10.961
 7362W        W66656  23.493  21.513  11.930
 7363W        W66657  22.086  21.575   3.163
 7364W        W66658   4.300  19.654  12.396
 7365W        W66659  29.468   4.772  12.883
 7366W        W66660  31.962  28.034  10.442
 7367W        W66661  32.516  22.158  13.377
 7368W        W66662  10.820  32.975   3.173
 7369W        W66663  36.413  25.652   3.821
 7370W        W66664  25.577  13.181  13.428
 7371W        W66665   1.744  32.487   4.352
 7372W        W66666  22.556   9.758   9.990
 7373W        W66667  20.533   9.842  14.798
 7374W        W66668   9.209  44.848   4.612
 7375W        W66669  24.707  33.953  10.945
 7376W        W66670  41.523  21.540   3.815
 7377W        W66671  15.662  17.065  14.864
 7378W        W66672  25.205  33.582   2.842
 7379W        W66673   7.878   5.256   2.350
 7380W        W66674  22.579  28.174  12.841
 7381W        W66675  29.074  17.307   4.796
 7382W        W66676  18.650  30.980   1.405
 7383W        W66677  43.394   7.383  14.870
 7384W        W66678  13.798  44.932  10.526
 7385W        W66679  38.949  37.877  13.921
 7386W        W66680  30.522  39.921  13.402
 7387W        W66681  35.491  31.411   3.192
 7388W        W66682  29.570  25.180  13.535
 7389W        W66683  27.150  39.886  14.394
 7390W        W66684  11.765  35.499  14.390
 7391W        W66685  37.405  25.621   2.822
 7392W        W66686   2.332   1.927   9.657
 7393W        W66687   3.377   2.281   9.499
 7394W        W66688   0.915  36.032  10.486
 7395W        W66689  10.213  34.962   9.573
 7396W        W66690  13.269  15.089  14.783
 7397W        W66691   2.806  24.038  12.972
 7398W        W66692  31.130  16.229   2.669
 7399W        W66693  14.797  11.670  14.282
 7400W        W66694  34.066   8.692  13.941
 7401W        W66695  10.813  33.544   1.366
 7402W        W66696  15.754  10.766   0.247
 7403W        W66697  22.682   1.977   5.292
 7404W        W66698  17.794  36.578   4.727
 7405W        W66699  26.683   4.735   3.366
 7406W        W66700  21.100  37.508   4.604
 7407W        W66701  11.188   8.895  12.918
 7408W        W66702  42.018  36.885  12.534
 7409W        W66703   2.458  41.022   0.392
 7410W        W66704  26.081   8.293   2.384
 7411W        W66705  39.963  16.751  11.862
 7412W        W66706  43.974  14.589  13.003
 7413W        W66707  32.462   0.480  12.467
 7414W        W66708  29.633  15.654   4.614
 7415W        W66709  29.435   0.868  11.469
 7416W        W66710  38.851  23.229  12.436
 7417W        W66711  27.658   2.316  10.563
 7418W        W66712  20.108  43.011   0.344
 7419W        W66713  14.161  33.025  13.013
 7420W        W66714  33.570   1.311   2.852
 7421W        W66715  18.238  34.514  10.639
 7422W        W66716   8.181   7.298   3.385
 7423W        W66717  38.565  12.736   3.659
 7424W        W66718   4.425   3.878  10.156
 7425W        W66719  38.906  36.986  14.425
 7426W        W66720   4.908   7.830   3.170
 7427W        W66721  43.478  35.501   1.223
 7428W        W66722  14.603  20.745  13.882
 7429W        W66723  39.909  10.810  13.378
 7430W        W66724  30.432   5.710   4.637
 7431W        W66725  42.406  28.052   4.123
 7432W        W66726   8.789   9.265   2.688
 7433W        W66727  23.629  15.118  10.494
 7434W        W66728  11.238  13.284   1.375
 7435W        W66729  16.317  30.071   3.157
 7436W        W66730  15.795  19.274  13.844
 7437W        W66731  27.640  32.409   1.437
 7438W        W66732   0.814  38.902   5.243
 7439W        W66733   7.233  43.415  10.602
 7440W        W66734  34.571  21.638   2.799
 7441W        W66735  43.308   7.733   0.860
 7442W        W66736   2.376   8.171   0.421
 7443W        W66737  42.890   4.891   4.230
 7444W        W66738  44.453   8.396   5.086
 7445W        W66739   6.848   1.408  14.864
 7446W        W66740  39.360  15.089   1.754
 7447W        W66741  13.644  30.616   3.703
 7448W        W66742  12.344  43.483  12.578
 7449W        W66743  23.597  19.544  11.504
 7450W        W66744  44.360  37.528  13.357
 7451W        W66745  28.069  33.885   2.289
 7452W        W66746  25.712  14.639  12.441
 7453W        W66747  43.282  24.530  11.012
 7454W        W66748   5.251  25.033   0.333
 7455W        W66749   7.355   7.300  13.030
 7456W        W66750  40.368  39.840   0.779
 7457W        W66751  28.434  20.668  11.990
 7458W        W66752  40.505  23.997   3.153
 7459W        W66753   3.303  34.491   4.296
 7460W        W66754  20.574  21.573   3.240
 7461W        W66755  32.133  13.195  14.797
 7462W        W66756  28.615   4.759  12.858
 7463W        W66757  16.168  41.900  14.327
 7464W        W66758  13.289  21.516  14.343
 7465W        W66759   4.392  22.113   0.450
 7466W        W66760  12.739  27.186  13.812
 7467W        W66761  42.481  40.995  12.530
 7468W        W66762   5.349  12.800  14.786
 7469W        W66763  37.953   1.876  13.818
 7470W        W66764  40.949  41.967   3.869
 7471W        W66765  13.650  10.756   2.266
 7472W        W66766  15.780  12.306  12.535
 7473W        W66767  21.721  17.628   4.781
 7474W        W66768  26.578   0.334  14.392
 7475W        W66769  29.072   8.807   2.204
 7476W        W66770  43.278   8.842  12.943
 7477W        W66771   7.884  43.486   0.922
 7478W        W66772  38.986  23.498   1.742
 7479W        W66773  37.563  20.100   1.724
 7480W        W66774   3.355   1.922   2.276
 7481W        W66775  14.694  28.594  13.899
 7482W        W66776   2.276  20.620   0.353
 7483W        W66777  23.645  30.162  11.915
 7484W        W66778   1.794  18.655  12.487
 7485W        W66779  34.969  26.033   4.272
 7486W        W66780  27.161  17.153   3.378
 7487W        W66781  29.503   7.214   4.821
 7488W        W66782  32.497  31.100   4.822
 7489W        W66783  10.358  24.653  11.439
 7490W        W66784  32.115  25.071   3.837
 7491W        W66785  32.997   8.372   1.924
 7492W        W66786  13.176   9.803   1.824
 7493W        W66787  11.366   2.399   1.782
 7494W        W66788  25.498  31.126   0.847
 7495W        W66789  28.508  27.127   1.824
 7496W        W66790  20.144  43.791   3.174
 7497W        W66791  23.099   0.300  12.058
 7498W        W66792  11.785   5.244  10.583
 7499W        W66793  23.722  15.647   1.769
 7500W        W66794   6.336  30.018  12.499
 7501W        W66795  35.361  42.295  12.486
 7502W        W66796  22.115  12.828   1.445
 7503W        W66797  32.891  11.317  14.829
 7504W        W66798  12.253  15.737  14.980
 7505W        W66799  33.053  39.895   0.868
 7506W        W66800  37.029   1.456  14.767
 7507W        W66801  29.102  25.980   0.948
 7508W        W66802  39.558  28.634   4.834
 7509W        W66803  40.888  22.103   2.226
 7510W        W66804  34.082  16.250   3.321
 7511W        W66805   3.410  44.300  13.836
 7512W        W66806  15.269   0.414  11.587
 7513W        W66807  34.385  26.526   3.849
 7514W        W66808  24.708  16.268   2.330
 7515W        W66809   0.750  44.884   1.357
 7516W        W66810   0.751  21.245   3.853
 7517W        W66811  42.977  32.994  12.901
 7518W        W66812  15.329   7.367  12.079
 7519W        W66813  10.682   8.679   3.715
 7520W        W66814  13.203  22.226   2.795
 7521W        W66815  35.988  30.585  14.821
 7522W        W66816  41.950  34.112  14.836
 7523W        W66817  15.092  44.004  10.618
 7524W        W66818  19.203   6.262  10.958
 7525W        W66819  21.065  16.275  12.343
 7526W        W66820  26.153  44.906  14.847
 7527W        W66821  30.561  13.318  14.969
 7528W        W66822  29.106  31.436   0.794
 7529W        W66823  22.145   9.272   1.770
 7530W        W66824  25.087   0.387  14.902
 7531W        W66825  36.501  11.828   0.792
 7532W        W66826  18.670  33.097   1.834
 7533W        W66827  15.612  12.304  11.124
 7534W        W66828  32.479  26.515  10.096
 7535W        W66829  33.903  19.177   1.366
 7536W        W66830  36.972  34.977  12.545
 7537W        W66831  44.799  11.834   4.195
 7538W        W66832  36.502   5.411   4.245
 7539W        W66833  29.560  31.975   0.818
 7540W        W66834  34.546  41.869  13.977
 7541W        W66835   7.687   7.245   3.852
 7542W        W66836  34.475  40.916   1.892
 7543W        W66837  35.587  39.859  14.955
 7544W        W66838  40.894   3.246   2.281
 7545W        W66839  19.187  10.869  11.514
 7546W        W66840  27.083  24.068  13.926
 7547W        W66841  27.092   9.769   1.822
 7548W        W66842  37.531  13.716  14.506
 7549W        W66843   3.830  41.991   4.248
 7550W        W66844  28.183   8.282   0.747
 7551W        W66845  41.299   3.890   9.926
 7552W        W66846  25.683  24.222  11.400
 7553W        W66847   2.373   9.705   2.867
 7554W        W66848  13.146   1.969   3.827
 7555W        W66849  38.532  30.062   0.412
 7556W        W66850  35.983  10.844   2.385
 7557W        W66851  20.071  34.423   1.279
 7558W        W66852  24.023  22.747  14.822
 7559W        W66853  14.601  13.316  14.499
 7560W        W66854  15.619  37.426   4.828
 7561W        W66855  38.487  14.719  14.405
 7562W        W66856  26.690   2.382   2.273
 7563W        W66857  35.033   9.646   2.226
 7564W        W66858   7.830   3.396  11.479
 7565W        W66859   9.350  44.329  11.508
 7566W        W66860  42.854  29.959   1.355
 7567W        W66861  20.155  29.926  14.505
 7568W        W66862  38.449  42.027   0.319
 7569W        W66863  44.946  29.478  11.101
 7570W        W66864  22.589  11.140  11.471
 7571W        W66865  32.600  13.129  10.503
 7572W        W66866  24.724  23.031  12.438
 7573W        W66867  27.001  20.590   1.840
 7574W        W66868  29.589  29.167   3.275
 7575W        W66869  43.480   9.660  14.403
 7576W        W66870  32.496   0.279   3.809
 7577W        W66871   8.702  34.420   4.143
 7578W        W66872  14.834  16.767   0.300
 7579W        W66873  25.994  41.886   0.859
 7580W        W66874  44.802  38.518   2.831
 7581W        W66875  27.996  43.433   3.758
 7582W        W66876  12.732  43.976   0.866
 7583W        W66877  16.291  22.140   3.193
 7584W        W66878   8.200  31.924   3.356
 7585W        W66879  36.877   1.879  11.907
 7586W        W66880  36.058  24.670   1.362
 7587W        W66881  35.374  18.272   4.240
 7588W        W66882  39.455   4.760   1.803
 7589W        W66883  41.349  17.152   1.246
 7590W        W66884  17.259   9.263   4.236
 7591W        W66885  19.768  40.332   2.857
 7592W        W66886  29.155  29.494  10.899
 7593W        W66887  38.955  23.539   3.693
 7594W        W66888  29.547  27.005  11.403
 7595W        W66889   4.251  43.927  12.982
 7596W        W66890  38.550  16.263  13.325
 7597W        W66891  33.460  32.986  14.339
 7598W        W66892  36.885  22.699   0.312
 7599W        W66893  31.449  17.288  11.477
 7600W        W66894  21.691  38.336   3.274
 7601W        W66895  28.646  13.289  11.066
 7602W        W66896  40.369   5.928   2.332
 7603W        W66897   9.176  24.702   3.724
 7604W        W66898  40.451  13.237   2.367
 7605W        W66899   1.880  17.600   0.837
 7606W        W66900  44.262  36.854  14.449
 7607W        W66901  43.000  32.453  11.099
 7608W        W66902  20.660  16.198  11.067
 7609W        W66903  16.777  24.136  14.959
 7610W        W66904  25.106   6.684   1.309
 7611W        W66905  41.397  44.980   4.807
 7612W        W66906  15.274   6.327   3.745
 7613W        W66907  18.079  41.312   0.346
 7614W        W66908  21.590  40.996   2.415
 7615W        W66909   3.717  43.486  12.490
 7616W        W66910  26.127  41.423   3.158
 7617W        W66911  30.653  22.569  13.798
 7618W        W66912  30.021  25.974   2.214
 7619W        W66913  35.394  12.782   2.244
 7620W        W66914  18.241  34.917  12.372
 7621W        W66915  26.535   1.338   2.309
 7622W        W66916  28.653  39.038  13.433
 7623W        W66917  43.506  31.502  10.423
 7624W        W66918  44.902  13.221  12.848
 7625W        W66919   8.693  43.447   3.257
 7626W        W66920  34.092  44.915  12.423
 7627W        W66921  40.837  43.899  13.357
 7628W        W66922  34.449  13.120   1.900
 7629W        W66923  13.178  42.896   1.818
 7630W        W66924   3.832  17.617   4.230
 7631W        W66925  16.290  43.468  10.470
 7632W        W66926  34.872   8.874  11.402
 7633W        W66927   5.863  29.987   0.459
 7634W        W66928  10.799  43.515   4.598
 7635W        W66929  23.242  14.242  13.793
 7636W        W66930  43.791   3.264  12.426
 7637W        W66931   0.937  32.139   3.729
 7638W        W66932  25.075  37.865   4.724
 7639W        W66933  15.587   3.396  11.115
 7640W        W66934  21.182  25.693  10.622
 7641W        W66935  28.489  33.599  11.956
 7642W        W66936  35.577  19.728   0.894
 7643W        W66937   6.778  31.039  11.554
 7644W        W66938  31.597   3.769   1.343
 7645W        W66939  38.481  36.928   4.627
 7646W        W66940   9.315  16.107  14.354
 7647W        W66941  35.968  11.319   4.278
 7648W        W66942   6.698  18.640  11.373
 7649W        W66943   7.189  18.060  12.422
 7650W        W66944  26.465  38.965   1.353
 7651W        W66945   2.291   1.899  13.961
 7652W        W66946  31.963  38.059  13.405
 7653W        W66947  42.519  40.983   0.853
 7654W        W66948  41.469   9.844  10.971
 7655W        W66949   3.329  21.186  14.979
 7656W        W66950  26.190  33.918   0.946
 7657W        W66951   1.858  20.234   0.933
 7658W        W66952  36.092  17.568  14.334
 7659W        W66953  29.919  16.305   3.852
 7660W        W66954  14.770  34.397  10.892
 7661W        W66955   2.421  10.746  11.900
 7662W        W66956  40.929  42.936  13.791
 7663W        W66957  32.463   9.279  13.380
 7664W        W66958  38.899   3.915   0.361
 7665W        W66959  26.207  32.001  13.446
 7666W        W66960  20.213  41.029   2.262
 7667W        W66961  20.677  15.774   2.668
 7668W        W66962  15.237   1.771   1.854
 7669W        W66963  43.833  34.517   0.909
 7670W        W66964  17.691  37.996  13.340
 7671W        W66965  33.522  12.837  10.094
 7672W        W66966  20.131  37.000  13.861
 7673W        W66967  28.108   4.442  14.326
 7674W        W66968  41.900   8.830  12.340
 7675W        W66969   3.845  27.112   3.223
 7676W        W66970   8.826  15.820  14.440
 7677W        W66971   9.264  35.974   0.927
 7678W        W66972  19.107  33.403  14.909
 7679W        W66973  39.858   1.954  10.933
 7680W        W66974  34.867  16.628  12.923
 7681W        W66975  35.876  19.585   1.698
 7682W        W66976  33.412   1.792   0.958
 7683W        W66977  41.894  36.952  12.984
 7684W        W66978   7.318  19.779  14.488
 7685W        W66979  43.942   3.260   3.314
 7686W        W66980  37.577  37.575  11.604
 7687W        W66981  17.737  36.541   4.339
 7688W        W66982  21.655  34.421   3.370
 7689W        W66983  29.967  12.182   4.342
 7690W        W66984  19.698  28.672  14.319
 7691W        W66985  16.317  16.220   2.390
 7692W        W66986   2.886  37.413   0.744
 7693W        W66987  43.369  19.655   0.764
 7694W        W66988  10.312   6.364   4.727
 7695W        W66989  17.664  43.338  13.423
 7696W        W66990  20.057  27.060  11.925
 7697W        W66991  36.474  11.302   2.342
 7698W        W66992   2.455  12.774   1.925
 7699W        W66993  30.941  16.760   4.646
 7700W        W66994  29.128  10.721   2.249
 7701W        W66995  34.448  18.574  11.042
 7702W        W66996   9.724  29.470   3.180
 7703W        W66997  44.502  36.916   3.764
 7704W        W66998  27.980  40.462   4.778
 7705W        W66999   3.878   3.868   2.825
 7706W        W67000  24.487  21.523   4.226
 7707W        W67001  38.525  22.165   4.147
 7708W        W67002  28.138  29.172   2.238
 7709W        W67003  10.849  21.195   4.801
 7710W        W67004  41.408  30.632   1.863
 7711W        W67005  40.541  29.542   0.456
 7712W        W67006  43.772  33.897  10.926
 7713W        W67007  36.475   6.273  12.919
 7714W        W67008  11.326  11.185   3.756
 7715W        W67009  26.056   5.746   0.405
 7716W        W67010  11.845  21.565  10.426
 7717W        W67011  14.210  33.391  10.565
 7718W        W67012  27.653  28.519  11.983
 7719W        W67013   9.370  13.839  12.483
 7720W        W67014   0.487  32.026  11.595
 7721W        W67015  28.672   3.951  14.778
 7722W        W67016  32.040  28.934   2.272
 7723W        W67017   2.965   4.436  10.984
 7724W        W67018   7.748   8.272   0.935
 7725W        W67019  33.501  33.509  10.533
 7726W        W67020   7.785   2.359   1.379
 7727W        W67021  34.537  20.081  13.320
 7728W        W67022  30.975  39.368   0.326
 7729W        W67023  40.420  43.994  13.836
 7730W        W67024  17.696  22.159  14.994
 7731W        W67025  28.461  43.912  12.482
 7732W        W67026  16.219  20.038   0.829
 7733W        W67027  39.555  21.556  13.804
 7734W        W67028  43.469  34.996   2.670
 7735W        W67029  15.747  10.672  13.929
 7736W        W67030   2.812   4.893  14.834
 7737W        W67031   0.416  26.979   3.749
 7738W        W67032  37.575  28.988  10.553
 7739W        W67033  33.406  17.210   0.758
 7740W        W67034  44.889  24.009   4.161
 7741W        W67035  44.476  20.093   3.302
 7742W        W67036   5.878  35.042   0.385
 7743W        W67037  14.300   1.763  12.092
 7744W        W67038  33.563  37.387  11.892
 7745W        W67039  44.268  23.038   0.404
 7746W        W67040  32.019   6.330   4.638
 7747W        W67041   3.851  19.044  14.337
 7748W        W67042  19.717  33.518  11.403
 7749W        W67043  16.283  23.547   2.361
 7750W        W67044  23.499  17.626  11.583
 7751W        W67045  14.603  28.124  12.945
 7752W        W67046  29.975  27.017  12.000
 7753W        W67047  11.274  11.344   3.320
 7754W        W67048  27.117  28.675   3.375
 7755W        W67049   1.907   9.645  13.527
 7756W        W67050  14.608  15.692   3.861
 7757W        W67051  21.713   3.239   0.954
 7758W        W67052  35.950  28.647   1.362
 7759W        W67053  26.689  22.132   0.846
 7760W        W67054  21.020  40.840  10.620
 7761W        W67055  28.940  42.866   2.351
 7762W        W67056  18.263   5.402  12.342
 7763W        W67057  36.391  42.865   2.318
 7764W        W67058   4.911  22.015   0.864
 7765W        W67059  33.590  28.112  14.788
 7766W        W67060   1.797  31.537   2.770
 7767W        W67061   3.748   7.835  13.014
 7768W        W67062   7.203  22.225  12.572
 7769W        W67063  16.581  19.060   1.295
 7770W        W67064  43.833  18.639   2.880
 7771W        W67065   3.872  16.189  12.452
 7772W        W67066  31.957   8.766   1.698
 7773W        W67067   9.186   6.365  10.150
 7774W        W67068   1.364  14.764   4.296
 7775W        W67069  12.824  11.821   2.798
 7776W        W67070   6.320  43.494   2.258
 7777W        W67071  25.610   9.687   4.697
 7778W        W67072  32.469  44.504   0.924
 7779W        W67073   7.357  31.448  13.375
 7780W        W67074  39.353  16.795   4.339
 7781W        W67075   8.352   7.872  14.353
 7782W        W67076  19.717  42.447  12.526
 7783W        W67077  29.660   5.730  10.451
 7784W        W67078   2.797  14.722  14.492
 7785W        W67079  31.625  19.062   4.832
 7786W        W67080  44.459  29.075   1.917
 7787W        W67081  38.441  15.579  12.988
 7788W        W67082   3.723  20.635  14.392
 7789W        W67083   7.251  19.621   1.243
 7790W        W67084  28.440  42.341   4.604
 7791W        W67085  24.556  38.393   0.901
 7792W        W67086   9.804   6.841   4.257
 7793W        W67087  38.973  17.173   2.283
 7794W        W67088  29.472  14.824  11.535
 7795W        W67089  24.144  25.486   1.425
 7796W        W67090  31.039   1.330   4.683
 7797W        W67091  43.383  36.427   4.827
 7798W        W67092   9.685  41.341   3.634
 7799W        W67093   1.328  10.639  13.466
 7800W        W67094  19.145  12.812   0.740
 7801W        W67095  43.962  40.498   0.475
 7802W        W67096  27.135  15.706   4.769
 7803W        W67097   4.783  36.458  14.402
 7804W        W67098  27.681  24.141   1.926
 7805W        W67099  20.698  30.561   0.878
 7806W        W67100  33.438   7.832  11.088
 7807W        W67101   8.823  18.162  13.828
 7808W        W67102  13.622  44.484   9.936
 7809W        W67103  40.820  39.397  13.944
 7810W        W67104  37.077  20.680   4.234
 7811W        W67105  23.715  30.155   1.904
 7812W        W67106  20.133  30.123   2.865
 7813W        W67107  36.078  36.083   0.354
 7814W        W67108  16.088  44.445   1.919
 7815W        W67109  43.312  19.267   1.779
 7816W        W67110  30.491  18.246  14.457
 7817W        W67111  19.702  17.675   1.804
 7818W        W67112  15.128  39.917  11.522
 7819W        W67113  18.116  28.500  12.040
 7820W        W67114  28.642  20.584  14.932
 7821W        W67115  28.953   3.882   0.814
 7822W        W67116  27.544  35.536   2.843
 7823W        W67117   9.376  16.641  12.370
 7824W        W67118  27.161   5.288  14.786
 7825W        W67119  21.566  21.594  10.424
 7826W        W67120  36.511   9.677   2.868
 7827W        W67121   0.398  17.232  12.962
 7828W        W67122   5.319  38.502  10.987
 7829W        W67123  44.355   0.902  14.891
 7830W        W67124  16.159  13.175  12.087
 7831W        W67125  27.131  27.467  12.404
 7832W        W67126   4.725  24.193  12.381
 7833W        W67127  10.775  21.608   1.210
 7834W        W67128  17.238  16.094   0.859
 7835W        W67129  24.032  21.143   1.332
 7836W        W67130  40.528   5.242   1.840
 7837W        W67131  44.504  23.502   2.704
 7838W        W67132  10.696  13.108  12.459
 7839W        W67133  12.220  15.808   4.337
 7840W        W67134  10.875  10.164  10.900
 7841W        W67135  27.951   0.379  11.414
 7842W        W67136  30.935  38.420  12.502
 7843W        W67137  15.184  39.036   4.688
 7844W        W67138  11.291  12.301  10.465
 7845W        W67139  15.792  37.975   2.874
 7846W        W67140  19.676  22.178   1.273
 7847W        W67141  36.037  12.258   2.822
 7848W        W67142  17.783  19.633  11.968
 7849W        W67143  41.363  14.593   0.876
 7850W        W67144  16.725   3.872  11.875
 7851W        W67145  30.482   5.780  12.351
 7852W        W67146  44.992  38.567  13.360
 7853W        W67147  27.573  30.574   3.168
 7854W        W67148  41.422  19.643  13.467
 7855W        W67149  32.583  17.726  11.034
 7856W        W67150   7.680  15.117  13.309
 7857W        W67151  40.546  34.405  12.988
 7858W        W67152   3.831  15.323   4.138
 7859W        W67153   4.842  14.739  11.597
 7860W        W67154  10.694   9.817   2.858
 7861W        W67155  25.653   0.864  12.882
 7862W        W67156   1.356   9.269  10.898
 7863W        W67157  41.294  20.737  12.473
 7864W        W67158  14.172  44.412  12.084
 7865W        W67159  20.268  28.069   2.232
 7866W        W67160   9.772  13.182  14.852
 7867W        W67161  43.881  21.244   2.374
 7868W        W67162  34.975  32.925   4.597
 7869W        W67163  42.349  19.284   0.257
 7870W        W67164   2.373  25.990  14.334
 7871W        W67165  27.177  44.878  13.533
 7872W        W67166  24.528  27.519  14.344
 7873W        W67167   5.203  21.590  13.947
 7874W        W67168  34.521  25.191   3.234
 7875W        W67169  10.758  43.502   4.147
 7876W        W67170  28.474  20.196   4.774
 7877W        W67171  44.891  37.351   2.233
 7878W        W67172   4.317   0.479   5.088
 7879W        W67173  25.206   4.901   4.650
 7880W        W67174  30.018  24.556  11.893
 7881W        W67175  22.551  20.146  12.948
 7882W        W67176  12.644  16.219  12.895
 7883W        W67177   0.945   2.767  10.610
 7884W        W67178  41.520  16.184   4.707
 7885W        W67179   1.322   6.357   4.825
 7886W        W67180  19.653   7.813   4.666
 7887W        W67181   3.847  14.156   3.777
 7888W        W67182  20.551   3.763   4.236
 7889W        W67183   2.365  24.218   2.257
 7890W        W67184  27.448  23.048  14.465
 7891W        W67185  41.963   2.861   3.863
 7892W        W67186  25.529  18.136   5.191
 7893W        W67187  11.865  21.034   5.203
 7894W        W67188   5.327  35.095   0.383
 7895W        W67189  32.507  26.012   4.288
 7896W        W67190  41.485   7.353   3.183
 7897W        W67191  36.416  23.691  11.582
 7898W        W67192  13.191  28.606  13.404
 7899W        W67193  29.001  34.981  10.632
 7900W        W67194  14.237  38.521   0.472
 7901W        W67195   5.809  14.591   3.726
 7902W        W67196  31.140   2.361  11.953
 7903W        W67197   1.832  31.037  12.383
 7904W        W67198  14.772  13.282  13.973
 7905W        W67199  18.109  22.517   3.753
 7906W        W67200   4.427  11.712   4.743
 7907W        W67201  16.798  44.957  13.511
 7908W        W67202  42.993   8.253   2.852
 7909W        W67203  21.066  26.612   1.755
 7910W        W67204  29.071  13.727  14.415
 7911W        W67205  37.960  40.889   3.785
 7912W        W67206  18.563  25.597   0.872
 7913W        W67207  31.625   4.385  13.511
 7914W        W67208   2.758  34.542   3.175
 7915W        W67209  39.354   4.930   3.694
 7916W        W67210   6.716   4.940   4.818
 7917W        W67211  10.661  29.468  14.279
 7918W        W67212  15.607  38.887   4.245
 7919W        W67213  39.906  15.224  11.984
 7920W        W67214  14.178  26.061   4.655
 7921W        W67215  33.469   1.333  11.551
 7922W        W67216  14.109  22.063   3.701
 7923W        W67217  30.633  42.493   3.376
 7924W        W67218  37.008   7.291   0.935
 7925W        W67219  44.358   9.654  10.642
 7926W        W67220   4.791  31.522  14.371
 7927W        W67221  33.405  44.368   4.218
 7928W        W67222  31.135  35.010   0.923
 7929W        W67223   6.744   5.781   2.709
 7930W        W67224  11.238  37.504  11.534
 7931W        W67225  43.314  41.451   4.153
 7932W        W67226  25.510  21.174   9.968
 7933W        W67227  15.249  17.593  10.534
 7934W        W67228  31.105   3.877   3.754
 7935W        W67229  24.186  15.697   3.292
 7936W        W67230   0.483  35.950   3.798
 7937W        W67231  26.074  34.931  11.025
 7938W        W67232  42.343  37.856  12.470
 7939W        W67233  24.189  33.393   3.755
 7940W        W67234   8.388  33.511   1.775
 7941W        W67235  41.368   7.669   0.359
 7942W        W67236  13.126   7.802   3.326
 7943W        W67237   2.371  18.729   2.404
 7944W        W67238  30.110   9.835   2.842
 7945W        W67239  12.248  23.060  10.906
 7946W        W67240  36.360   9.341   2.356
 7947W        W67241  14.111  21.061   4.151
 7948W        W67242  32.910   8.307  10.474
 7949W        W67243  41.834  24.708   4.677
 7950W        W67244   8.823  22.621  10.457
 7951W        W67245  39.003  40.046   3.752
 7952W        W67246  43.382  25.059   5.160
 7953W        W67247   1.374   8.315   1.784
 7954W        W67248  18.055  16.163  14.938
 7955W        W67249  34.942  16.605  11.941
 7956W        W67250  20.557   6.289   4.351
 7957W        W67251  37.505  12.836   4.148
 7958W        W67252  19.726  22.670   1.210
 7959W        W67253  35.922  28.121  11.586
 7960W        W67254  33.962   8.206  13.851
 7961W        W67255  14.302  26.105   0.801
 7962W        W67256  11.208   6.741   4.651
 7963W        W67257  37.456   2.351  14.454
 7964W        W67258  41.487  14.164   2.758
 7965W        W67259  43.934   5.737   1.349
 7966W        W67260  35.490  33.589  14.875
 7967W        W67261  34.083  20.246  14.407
 7968W        W67262  11.845  16.587  10.404
 7969W        W67263  15.287   4.339  11.378
 7970W        W67264  23.992  39.417  13.441
 7971W        W67265  28.933  38.493  14.792
 7972W        W67266  26.668  16.263   0.473
 7973W        W67267  28.060  24.533  11.874
 7974W        W67268  23.123  41.019  14.505
 7975W        W67269   0.818  23.032  11.889
 7976W        W67270   3.780  32.495   2.303
 7977W        W67271   6.326  33.080   4.300
 7978W        W67272  35.060   3.256   3.387
 7979W        W67273   7.239  37.070   2.809
 7980W        W67274  25.556   6.703   3.385
 7981W        W67275  37.896  44.810  14.888
 7982W        W67276   2.409  34.093   2.360
 7983W        W67277  18.108  12.628  13.334
 7984W        W67278  22.524   5.737  11.515
 7985W        W67279  12.655  29.032   4.183
 7986W        W67280  31.029  34.444   0.821
 7987W        W67281  24.023   1.883   5.276
 7988W        W67282  24.076   5.846   3.694
 7989W        W67283  29.124  41.480   4.814
 7990W        W67284  11.307  20.600   3.810
 7991W        W67285  41.374   3.412   1.817
 7992W        W67286  16.257  22.105   3.719
 7993W        W67287  20.126  21.095  12.019
 7994W        W67288   5.409  15.164   4.135
 7995W        W67289  11.156  42.791   0.479
 7996W        W67290  35.925  39.938   2.821
 7997W        W67291  37.890  24.210  11.943
 7998W        W67292  31.639  13.826   2.821
 7999W        W67293   5.694  19.139   4.749
 8000W        W67294  17.301  23.535  12.490
 8001W        W67295   8.820  12.731  13.372
 8002W        W67296   5.730  14.657  14.915
 8003W        W67297  30.428  17.572   4.319
 8004W        W67298  38.564  20.629  11.398
 8005W        W67299  44.454  33.987  14.398
 8006W        W67300  24.548  30.914  13.891
 8007W        W67301  12.797  41.346  14.765
 8008W        W67302  38.942  18.573   2.198
 8009W        W67303  29.432  37.037   2.319
 8010W        W67304  26.501  37.967  13.917
 8011W        W67305  27.164  27.011  10.569
 8012W        W67306   7.239  33.418  11.499
 8013W        W67307   1.763   4.368  11.021
 8014W        W67308  31.954  42.947  12.958
 8015W        W67309  12.129   8.868  12.416
 8016W        W67310  26.636  13.824  10.426
 8017W        W67311  19.687  13.120  10.440
 8018W        W67312  25.639  41.453   1.762
 8019W        W67313  37.886   2.758  11.070
 8020W        W67314  35.927  25.167   1.380
 8021W        W67315  36.470  40.901  12.027
 8022W        W67316  28.541  24.622   0.293
 8023W        W67317  43.476  13.109  14.891
 8024W        W67318   3.381  16.236  11.501
 8025W        W67319  42.364  26.514  11.536
 8026W        W67320  26.058  20.048  12.529
 8027W        W67321   6.295   3.319   1.391
 8028W        W67322  24.634  26.199   3.783
 8029W        W67323  15.712  19.128   1.747
 8030W        W67324  19.717  42.368  11.033
 8031W        W67325  12.732  20.578   1.875
 8032W        W67326   8.317  18.187  11.566
 8033W        W67327  27.496  22.646   0.442
 8034W        W67328  12.360   9.803  10.933
 8035W        W67329  16.568  24.229   3.196
 8036W        W67330  43.960  43.979  14.430
 8037W        W67331   8.321  27.574  13.422
 8038W        W67332  27.013  20.035   0.787
 8039W        W67333  35.400  18.082  14.770
 8040W        W67334   4.788  20.596  12.366
 8041W        W67335  20.190   6.758   4.743
 8042W        W67336  21.144   9.311  10.583
 8043W        W67337  40.376  27.642  11.096
 8044W        W67338  38.498  38.060   0.375
 8045W        W67339  37.441  12.242   4.168
 8046W        W67340   1.313  37.447  10.106
 8047W        W67341  18.170  32.443  14.827
 8048W        W67342  28.471   9.332   2.387
 8049W        W67343  21.174  16.663  14.333
 8050W        W67344  17.202  44.428   2.716
 8051W        W67345  19.725  31.473  10.908
 8052W        W67346   7.861  41.920   2.227
 8053W        W67347  23.124  31.596  11.488
 8054W        W67348  39.059  19.262   4.193
 8055W        W67349  29.613  16.681  12.036
 8056W        W67350  31.407   0.880  13.408
 8057W        W67351  35.385   1.974  12.352
 8058W        W67352  11.730  13.243  11.055
 8059W        W67353   1.920   2.374   5.222
 8060W        W67354   2.409  38.371   1.855
 8061W        W67355  29.175  34.049  11.909
 8062W        W67356   0.785  11.168  11.027
 8063W        W67357   7.388  27.102   1.235
 8064W        W67358  18.154  41.871  14.900
 8065W        W67359  30.909  21.258  12.070
 8066W        W67360  32.970  27.013   4.140
 8067W        W67361  19.534   5.357  14.437
 8068W        W67362  16.740  12.706  10.574
 8069W        W67363   7.384  14.689   3.193
 8070W        W67364  32.556  33.588   2.302
 8071W        W67365  42.471   3.231  13.896
 8072W        W67366  30.533   0.461   0.280
 8073W        W67367  31.523   0.968   3.780
 8074W        W67368   9.726  29.073   2.230
 8075W        W67369   6.764  43.457   1.924
 8076W        W67370   2.289  33.925   4.765
 8077W        W67371   6.332  40.475   5.094
 8078W        W67372  18.721  30.491   0.747
 8079W        W67373   4.756  23.144   3.815
 8080W        W67374  30.005  40.911   2.206
 8081W        W67375  32.397  29.475   4.654
 8082W        W67376   2.806  37.525   1.790
 8083W        W67377  13.116  19.568   1.381
 8084W        W67378   8.869   1.463  11.918
 8085W        W67379  36.403  35.496  11.454
 8086W        W67380  24.602  13.215   0.271
 8087W        W67381  19.063  19.237   0.294
 8088W        W67382  19.264  28.595   4.189
 8089W        W67383  21.070  21.724   1.790
 8090W        W67384  31.508  21.579   1.317
 8091W        W67385  31.623   3.863   4.114
 8092W        W67386  24.182   5.297   3.319
 8093W        W67387  26.181  22.103   0.903
 8094W        W67388  21.585  22.185  13.471
 8095W        W67389  30.950  26.037  12.839
 8096W        W67390  27.470  24.150   3.384
 8097W        W67391  13.825  34.998  10.639
 8098W        W67392  36.070  26.972   0.887
 8099W        W67393  10.142  14.219  14.763
 8100W        W67394  19.138  26.569  14.954
 8101W        W67395  25.611  36.586   0.296
 8102W        W67396  42.358  13.295   1.288
 8103W        W67397  31.035  33.382   1.400
 8104W        W67398  39.438  41.323  12.572
 8105W        W67399  24.152   0.814  11.972
 8106W        W67400  43.831  13.345   0.446
 8107W        W67401  36.953  41.431   1.432
 8108W        W67402  12.743  26.154  14.868
 8109W        W67403   9.764   8.235  13.410
 8110W        W67404  12.333  38.060   0.282
 8111W        W67405  13.627  40.517  14.437
 8112W        W67406  33.448  19.669  11.968
 8113W        W67407   7.855  36.068  13.398
 8114W        W67408  20.580   4.251   2.335
 8115W        W67409  30.453  28.079   3.837
 8116W        W67410  26.687  30.109  13.948
 8117W        W67411  22.223  24.058  10.415
 8118W        W67412  17.266  40.391   0.383
 8119W        W67413  10.810  10.274  14.003
 8120W        W67414  32.444  13.116  14.379
 8121W        W67415  31.052  31.121   2.666
 8122W        W67416  22.040  43.438   0.943
 8123W        W67417  28.580  20.614   3.717
 8124W        W67418  12.215   3.822   3.341
 8125W        W67419  10.864  39.966   1.310
 8126W        W67420   5.784  33.518  14.297
 8127W        W67421  44.813  11.834  12.836
 8128W        W67422  40.457  12.276   3.263
 8129W        W67423  17.733  16.244   1.722
 8130W        W67424  21.614  26.095  11.499
 8131W        W67425  34.110  44.310  12.342
 8132W        W67426  14.700  33.506  11.984
 8133W        W67427  11.222   6.208  12.898
 8134W        W67428  19.569  34.462  11.909
 8135W        W67429   4.759  37.972  14.289
 8136W        W67430  42.032  18.592   1.833
 8137W        W67431   0.841  32.636  11.888
 8138W        W67432  28.095   2.239   0.437
 8139W        W67433  18.212  42.833  13.899
 8140W        W67434  34.570  18.704  11.864
 8141W        W67435  15.755  13.117  10.418
 8142W        W67436  38.043  14.233  13.535
 8143W        W67437  25.169  11.334  13.410
 8144W        W67438  41.347  14.166   4.664
 8145W        W67439   5.838  26.029  12.557
 8146W        W67440  24.109   6.842  13.533
 8147W        W67441  39.054  24.176  14.816
 8148W        W67442  18.746  41.349   3.736
 8149W        W67443  23.236  37.533   0.858
 8150W        W67444  29.499  29.658   2.209
 8151W        W67445  42.011  26.966  14.945
 8152W        W67446  36.406  18.767   2.328
 8153W        W67447   9.673  41.974  12.378
 8154W        W67448  43.959  20.122   3.362
 8155W        W67449  35.389  44.826  13.875
 8156W        W67450  18.058  28.111   1.333
 8157W        W67451  31.906  43.864  13.402
 8158W        W67452  33.568  43.937  13.986
 8159W        W67453  18.663  43.480   1.847
 8160W        W67454  13.619  39.481   3.283
 8161W        W67455  40.007  10.671  10.425
 8162W        W67456   7.281  27.645  12.561
 8163W        W67457  42.383  36.576  11.442
 8164W        W67458  14.169  30.636  12.463
 8165W        W67459  11.711  15.660   4.317
 8166W        W67460  12.213   0.781   4.353
 8167W        W67461  39.334   6.404   2.195
 8168W        W67462   3.365   0.341  13.313
 8169W        W67463  17.612  39.463   0.882
 8170W        W67464  44.948  18.262  14.980
 8171W        W67465  28.942  13.325  12.056
 8172W        W67466  37.571  41.911  10.607
 8173W        W67467   9.697  24.573  11.093
 8174W        W67468  27.494  32.938   1.232
 8175W        W67469  15.287  26.182   2.265
 8176W        W67470  17.097  22.649   2.835
 8177W        W67471   8.230  12.331   3.301
 8178W        W67472  37.925  21.643  10.421
 8179W        W67473  13.829   0.805  12.021
 8180W        W67474  28.017  20.172  14.291
 8181W        W67475  26.132  41.883  12.894
 8182W        W67476  16.263  19.253   4.187
 8183W        W67477  43.363  40.986   1.339
 8184W        W67478   7.851  42.440   2.789
 8185W        W67479  36.377   7.305  12.912
 8186W        W67480  36.567  42.911   4.274
 8187W        W67481  35.400  14.749   0.352
 8188W        W67482  12.762  21.031  12.013
 8189W        W67483   3.805  43.428   3.152
 8190W        W67484  24.555   3.456   0.962
 8191W        W67485   6.371   2.955  10.901
 8192W        W67486  23.493  24.031   3.262
 8193W        W67487  34.496  13.313   1.260
 8194W        W67488   6.403  39.531   1.770
 8195W        W67489   0.376  42.879   3.147
 8196W        W67490  40.893  19.203  11.546
 8197W        W67491  23.234  33.459  10.084
 8198W        W67492  22.582  29.604   0.757
 8199W        W67493  43.503  35.526   3.376
 8200W        W67494  30.554   1.751   4.798
 8201W        W67495   5.859  39.427  14.787
 8202W        W67496  22.188  15.275   4.295
 8203W        W67497   6.420  36.439   0.292
 8204W        W67498  27.041  37.414  12.076
 8205W        W67499  20.029  36.882  12.862
 8206W        W67500  24.496  34.031  11.490
 8207W        W67501  28.616  23.154   4.708
 8208W        W67502  14.271  41.810  14.394
 8209W        W67503  34.529   0.413   1.927
 8210W        W67504  39.377  19.190   1.396
 8211W        W67505  39.921  33.419   4.757
 8212W        W67506  28.159  37.385   3.745
 8213W        W67507  41.819  19.589   3.308
 8214W        W67508   8.211  31.495   0.273
 8215W        W67509  38.498  15.776   3.840
 8216W        W67510  38.461  41.483  11.889
 8217W        W67511  39.010   7.224   5.754
 8218W        W67512  17.275  40.391   3.200
 8219W        W67513  19.640   1.775   2.415
 8220W        W67514  10.665  36.076   2.783
 8221W        W67515  29.921  21.654   0.372
 8222W        W67516  10.699   4.800  10.905
 8223W        W67517  26.461  41.793   3.294
 8224W        W67518  34.896  13.670  13.318
 8225W        W67519  29.607  30.994  10.594
 8226W        W67520  42.293  22.570  10.578
 8227W        W67521  12.136   0.874   2.895
 8228W        W67522  39.407  27.606   1.734
 8229W        W67523   4.370   8.696  11.890
 8230W        W67524  30.968  43.389   0.817
 8231W        W67525  17.243  15.668  13.869
 8232W        W67526  28.468  30.092   0.924
 8233W        W67527  10.347  33.624   4.661
 8234W        W67528   7.340  33.992  11.568
 8235W        W67529  37.029  13.622   0.799
 8236W        W67530  31.463  16.116   4.755
 8237W        W67531  44.962  32.035   2.668
 8238W        W67532  35.854  13.206  11.980
 8239W        W67533  19.730   8.246   2.320
 8240W        W67534  34.511  27.119   3.774
 8241W        W67535  29.127   0.841   1.884
 8242W        W67536  11.211   3.309   2.209
 8243W        W67537  27.543  26.504   4.247
 8244W        W67538   6.402  26.538   1.736
 8245W        W67539  21.620   9.801   1.438
 8246W        W67540  20.257  34.945   2.224
 8247W        W67541   0.430  23.726  12.549
 8248W        W67542  29.014   6.873   3.234
 8249W        W67543   2.236   7.401   3.240
 8250W        W67544  25.075  13.177   3.355
 8251W        W67545  16.799  19.238  12.445
 8252W        W67546   5.721  29.665  14.410
 8253W        W67547  23.490  28.185  13.986
 8254W        W67548   0.488  18.123   0.917
 8255W        W67549  29.448  35.879  14.899
 8256W        W67550  32.458  26.107  11.504
 8257W        W67551  16.779   2.788  14.292
 8258W        W67552  22.113  29.654   0.254
 8259W        W67553   5.776  42.505  13.453
 8260W        W67554  38.951  39.898  12.830
 8261W        W67555  31.106  15.249   0.334
 8262W        W67556  23.224  29.125   0.815
 8263W        W67557   4.804   6.746   4.690
 8264W        W67558  32.549  22.728  10.131
 8265W        W67559   1.420  42.292   4.302
 8266W        W67560  29.043  11.317  10.471
 8267W        W67561   9.652   6.914  11.589
 8268W        W67562  35.516  12.172  12.523
 8269W        W67563  30.439  35.994   1.427
 8270W        W67564   0.285  16.308   3.809
 8271W        W67565  27.977  26.507  12.975
 8272W        W67566   2.799   6.785  13.935
 8273W        W67567  15.670  21.088  11.898
 8274W        W67568   2.948   2.891   2.201
 8275W        W67569  34.052  23.722   4.347
 8276W        W67570  11.696   6.715  11.568
 8277W        W67571  27.509  22.578   0.830
 8278W        W67572  16.120  17.627  10.073
 8279W        W67573  14.767  19.082  14.340
 8280W        W67574  25.000  21.238   4.216
 8281W        W67575  35.007  39.843   2.339
 8282W        W67576  25.000  28.031  14.877
 8283W        W67577  33.557  12.694  14.838
 8284W        W67578   2.955  27.493  11.406
 8285W        W67579   4.314  20.696   2.280
 8286W        W67580  11.342  11.805   3.815
 8287W        W67581  40.334   2.893   4.117
 8288W        W67582  26.961   2.762   4.785
 8289W        W67583   3.333  30.567   2.805
 8290W        W67584  33.083  21.128   4.230
 8291W        W67585   5.912  11.180   0.867
 8292W        W67586  29.608  35.958   1.728
 8293W        W67587  22.568   5.896   0.360
 8294W        W67588   6.406  25.488  14.432
 8295W        W67589  18.082  21.699  14.508
 8296W        W67590   4.444  40.924   3.204
 8297W        W67591  36.509  11.726   4.807
 8298W        W67592  24.130  12.791  12.415
 8299W        W67593   8.320  17.764  12.526
 8300W        W67594  44.347  35.888  14.869
 8301W        W67595  10.236  21.147  12.505
 8302W        W67596  30.521  31.483   4.705
 8303W        W67597  13.619  14.149   2.246
 8304W        W67598   7.834  25.012  13.809
 8305W        W67599  26.020  11.815   4.264
 8306W        W67600  44.978  40.442   1.881
 8307W        W67601   4.217   9.785   1.365
 8308W        W67602   5.911  29.942  12.872
 8309W        W67603  18.201   9.701  10.497
 8310W        W67604  33.044   8.364  14.441
 8311W        W67605  25.481  43.296   2.667
 8312W        W67606  39.456  12.694   1.856
 8313W        W67607  21.201  13.149  11.406
 8314W        W67608  31.469  15.202  12.440
 8315W        W67609  19.223   9.385   1.734
 8316W        W67610  39.989  36.415  14.470
 8317W        W67611  10.383  27.523  10.986
 8318W        W67612  41.849  35.082  13.329
 8319W        W67613   0.898  39.525  13.320
 8320W        W67614  17.785   4.303   0.838
 8321W        W67615  20.543  24.707  10.999
 8322W        W67616   3.905  35.963   4.746
 8323W        W67617  19.172  37.416  12.407
 8324W        W67618  25.691  25.486   3.365
 8325W        W67619  39.833   9.656   4.803
 8326W        W67620   8.322   6.220  13.830
 8327W        W67621  17.791  41.978  14.973
 8328W        W67622  25.495   4.363  14.974
 8329W        W67623  38.039  33.093   9.972
 8330W        W67624   5.884  18.179   5.237
 8331W        W67625   2.375  43.873  13.426
 8332W        W67626   0.799  21.164  12.026
 8333W        W67627   7.274   3.313  10.597
 8334W        W67628  19.722  36.079  13.930
 8335W        W67629  25.082  31.914   4.699
 8336W        W67630  22.145  38.944  11.612
 8337W        W67631  24.111   0.877  10.924
 8338W        W67632   2.941  25.638  13.543
 8339W        W67633  13.169   4.755   2.763
 8340W        W67634   4.437  42.797  14.861
 8341W        W67635  28.665  27.134   1.340
 8342W        W67636  15.224   5.829   4.162
 8343W        W67637   2.245  34.470  13.327
 8344W        W67638  30.123   0.971  13.393
 8345W        W67639  21.659   6.188   1.284
 8346W        W67640   4.250  35.871  10.598
 8347W        W67641  30.115  34.379   0.749
 8348W        W67642  25.187  44.759  12.878
 8349W        W67643  21.743  11.127  14.895
 8350W        W67644  40.369  18.284  13.511
 8351W        W67645   6.292  11.643   1.783
 8352W        W67646  43.973  34.118  11.896
 8353W        W67647  16.771  26.505  12.862
 8354W        W67648  11.769  43.022  10.929
 8355W        W67649   6.763  39.915  10.601
 8356W        W67650  31.574  37.070   0.416
 8357W        W67651  43.352  20.692   3.817
 8358W        W67652  18.627  33.620  13.309
 8359W        W67653   3.351  42.330  11.957
 8360W        W67654   6.414  24.123  14.411
 8361W        W67655  12.716  10.362   2.190
 8362W        W67656  22.522   6.295  13.518
 8363W        W67657  10.861   3.409  12.080
 8364W        W67658   4.446  10.237   2.341
 8365W        W67659  22.231  36.921  10.464
 8366W        W67660  11.712   5.753  14.828
 8367W        W67661   2.463  35.406  14.478
 8368W        W67662  42.373  40.345  12.865
 8369W        W67663   8.286   9.869   3.271
 8370W        W67664  30.029  28.651  10.904
 8371W        W67665  41.877   7.357   2.213
 8372W        W67666  31.128  38.888  13.429
 8373W        W67667  29.461   2.448  11.939
 8374W        W67668   6.735  31.486  14.925
 8375W        W67669   5.916  26.627   0.942
 8376W        W67670   7.902  42.301   4.686
 8377W        W67671  20.119  37.049   3.353
 8378W        W67672  26.682   9.848  14.959
 8379W        W67673   8.779  13.251  14.296
 8380W        W67674  12.747  38.990  14.802
 8381W        W67675   2.362   0.807  11.989
 8382W        W67676  37.343   8.893  11.384
 8383W        W67677  25.658  21.746   4.271
 8384W        W67678   1.969  14.618   3.823
 8385W        W67679  39.820  37.923  13.861
 8386W        W67680  10.288  36.439  11.051
 8387W        W67681  36.975  19.574  11.392
 8388W        W67682  32.050  25.080   4.681
 8389W        W67683  10.308  41.881  10.914
 8390W        W67684   4.299   2.908  10.939
 8391W        W67685  23.715  27.474   3.375
 8392W        W67686  26.681  40.413  12.387
 8393W        W67687  33.883  44.948  10.564
 8394W        W67688  17.099   7.872  14.812
 8395W        W67689  41.497  21.256  13.514
 8396W        W67690  23.566  24.536   4.221
 8397W        W67691   3.317  16.736  10.025
 8398W        W67692  19.758  32.054  10.531
 8399W        W67693  10.182  15.122   2.366
 8400W        W67694  19.585  19.774  10.107
 8401W        W67695  40.317  11.710  11.862
 8402W        W67696  15.111  10.339   9.951
 8403W        W67697  33.400   3.927   0.432
 8404W        W67698  15.586  29.084  13.404
 8405W        W67699   1.466  40.398   2.800
 8406W        W67700  26.035  13.663  12.468
 8407W        W67701  43.003   6.185   3.696
 8408W        W67702  22.618  34.007  12.076
 8409W        W67703   7.286  23.200  11.099
 8410W        W67704  38.445  17.651  10.569
 8411W        W67705  34.603  44.952  12.061
 8412W        W67706  20.631  22.743   1.796
 8413W        W67707  10.838  39.481  10.476
 8414W        W67708  24.562  10.750   4.222
 8415W        W67709  32.899   0.367  13.989
 8416W        W67710   6.826   4.387  12.008
 8417W        W67711   7.383  29.583   2.798
 8418W        W67712  23.592  36.453  14.354
 8419W        W67713  42.999  23.167  11.416
 8420W        W67714  10.813  38.460   1.761
 8421W        W67715   2.937  25.558   3.795
 8422W        W67716  27.960  21.128   5.252
 8423W        W67717   6.871  34.867   4.744
 8424W        W67718  11.854  14.134  12.041
 8425W        W67719  20.623  44.286  13.977
 8426W        W67720   8.900  18.127   1.278
 8427W        W67721  38.989  21.575   0.965
 8428W        W67722  13.686   6.386  12.479
 8429W        W67723  14.269   9.761  13.995
 8430W        W67724  20.636   2.881  14.480
 8431W        W67725  12.146   1.746  12.564
 8432W        W67726  41.909  14.195   3.160
 8433W        W67727  22.626   8.326   2.223
 8434W        W67728   3.455  44.879  13.013
 8435W        W67729  11.669  39.410   1.699
 8436W        W67730  43.909  24.989   1.352
 8437W        W67731   7.177  26.192  11.502
 8438W        W67732  22.231  44.958   0.302
 8439W        W67733  15.160   3.319  10.920
 8440W        W67734  29.059  28.980  14.294
 8441W        W67735  25.472  26.970  14.897
 8442W        W67736  12.785  11.243  12.375
 8443W        W67737  22.634   7.375  14.457
 8444W        W67738  19.226  23.996  10.639
 8445W        W67739  13.758   9.740   9.962
 8446W        W67740  35.409  38.489   4.648
 8447W        W67741  29.012  40.016  13.436
 8448W        W67742   6.340  37.447   3.148
 8449W        W67743  20.726  34.078   3.686
 8450W        W67744  14.098  43.890   0.378
 8451W        W67745   3.889  26.047  10.476
 8452W        W67746   9.811  40.310   4.706
 8453W        W67747  32.032  29.154  11.440
 8454W        W67748  21.654  29.556   4.229
 8455W        W67749  28.612  22.111  13.496
 8456W        W67750  35.933   4.739  11.910
 8457W        W67751   7.206  21.707  12.859
 8458W        W67752  28.941   7.771   0.322
 8459W        W67753  24.201  26.581   5.096
 8460W        W67754  23.025  16.600   1.351
 8461W        W67755   1.325  21.613   2.895
 8462W        W67756  14.181  31.086   5.164
 8463W        W67757   4.784   8.755  10.084
 8464W        W67758  26.610  30.107   1.346
 8465W        W67759   6.247  14.688   3.217
 8466W        W67760  29.549  22.047   4.646
 8467W        W67761   7.804  10.197  11.449
 8468W        W67762  27.989  44.314   0.289
 8469W        W67763  14.249  40.838   2.806
 8470W        W67764  20.582  20.190  11.896
 8471W        W67765  33.021   7.292   4.193
 8472W        W67766   9.281  42.497   2.892
 8473W        W67767  28.016  28.660  12.929
 8474W        W67768  33.449  19.141   1.450
 8475W        W67769   5.362  22.600   2.783
 8476W        W67770  22.131  18.723  13.494
 8477W        W67771  21.756  42.021  12.397
 8478W        W67772   9.258  38.376   3.690
 8479W        W67773  33.905  31.035  10.932
 8480W        W67774  43.955  39.318   0.903
 8481W        W67775  32.919  16.181  11.577
 8482W        W67776   0.952  39.384  11.890
 8483W        W67777  29.121  14.109   3.835
 8484W        W67778  40.900  30.605   0.772
 8485W        W67779  28.959  25.078   0.834
 8486W        W67780  21.103  19.199  11.068
 8487W        W67781  35.003  34.962  12.554
 8488W        W67782  35.576  13.226  11.974
 8489W        W67783  23.168  16.238   2.902
 8490W        W67784  36.865  19.586  13.452
 8491W        W67785  39.967  26.173  10.573
 8492W        W67786  39.012  18.087  14.426
 8493W        W67787  32.941  19.645   1.230
 8494W        W67788   0.928  27.055   4.780
 8495W        W67789   9.852   8.662   2.344
 8496W        W67790  28.440   4.885   0.476
 8497W        W67791  28.499  17.230   0.866
 8498W        W67792  19.156  13.288  11.913
 8499W        W67793  15.761  28.651   0.838
 8500W        W67794  33.882  35.378  12.905
 8501W        W67795  44.789   2.253   4.763
 8502W        W67796  29.025  36.854   1.395
 8503W        W67797  25.155  44.451   5.204
 8504W        W67798  27.962  34.386   3.327
 8505W        W67799  24.143   6.788   1.450
 8506W        W67800  11.316   9.169   3.792
 8507W        W67801  33.919  29.151  13.516
 8508W        W67802  23.029  25.210   2.722
 8509W        W67803   8.842  11.351  11.059
 8510W        W67804   4.387  17.648  10.891
 8511W        W67805   8.329  14.775   1.892
 8512W        W67806   9.336  14.787  12.939
 8513W        W67807  33.411  32.907  13.518
 8514W        W67808  21.037  20.228  12.880
 8515W        W67809  26.998  29.073  14.843
 8516W        W67810  38.458   3.840   2.755
 8517W        W67811  37.356   6.213   0.919
 8518W        W67812  44.754  34.416  11.921
 8519W        W67813   8.809  16.700   3.261
 8520W        W67814  31.549  32.392  13.351
 8521W        W67815   0.438   8.216   4.247
 8522W        W67816   2.896  24.135   3.775
 8523W        W67817  38.527  28.183  13.474
 8524W        W67818  27.024   8.794   2.328
 8525W        W67819   8.867  13.661  11.520
 8526W        W67820   7.748   2.955   9.964
 8527W        W67821  11.621   5.261   1.775
 8528W        W67822   9.749  14.323   4.122
 8529W        W67823  15.685  19.247  14.454
 8530W        W67824  37.494  17.572   2.765
 8531W        W67825   9.349  28.975   4.809
 8532W        W67826  11.253  12.197   2.845
 8533W        W67827   0.397  38.516   4.310
 8534W        W67828  42.890  31.443  10.535
 8535W        W67829  36.920   1.418   4.295
 8536W        W67830  37.561   5.275   2.359
 8537W        W67831  44.435  18.111  12.340
 8538W        W67832  23.670  33.971   1.867
 8539W        W67833  22.629  15.126   4.348
 8540W        W67834  41.374  40.934   2.832
 8541W        W67835   1.880  17.641  14.473
 8542W        W67836  17.704   9.299  10.609
 8543W        W67837   6.386  35.030  12.384
 8544W        W67838  36.009  41.010   2.854
 8545W        W67839   0.917   7.851  13.931
 8546W        W67840   2.894   5.317   3.251
 8547W        W67841  29.930  38.338   1.339
 8548W        W67842  41.486   2.364   0.744
 8549W        W67843  23.186  44.461  13.800
 8550W        W67844  44.000   0.831  10.461
 8551W        W67845  19.051  34.955   4.119
 8552W        W67846  17.633  22.044   3.840
 8553W        W67847  28.601  17.227   1.315
 8554W        W67848   5.753   0.793   3.358
 8555W        W67849   8.221  41.431   0.890
 8556W        W67850  28.147  10.296  10.907
 8557W        W67851  44.909  39.399   0.356
 8558W        W67852   7.780   1.297   1.317
 8559W        W67853  38.351   3.289   2.402
 8560W        W67854   0.457  34.119  13.846
 8561W        W67855  33.567  30.453  12.846
 8562W        W67856  12.361  26.695  10.957
 8563W        W67857   6.295   6.855   4.747
 8564W        W67858   0.769   8.374   1.796
 8565W        W67859  43.311  31.105   3.650
 8566W        W67860  37.419  37.944  11.411
 8567W        W67861  13.312  40.418   3.734
 8568W        W67862  38.031  11.827   0.367
 8569W        W67863   1.959  12.146   0.812
 8570W        W67864  25.997  35.442   2.408
 8571W        W67865  12.256  29.169  12.021
 8572W        W67866  23.216  18.769  11.937
 8573W        W67867   6.875   2.922   1.715
 8574W        W67868  22.153  32.417   3.848
 8575W        W67869  32.970  30.527  13.518
 8576W        W67870   6.773  12.261  12.037
 8577W        W67871   5.744  24.569  11.924
 8578W        W67872  23.552  37.350   1.367
 8579W        W67873   7.848  28.056   1.802
 8580W        W67874  39.315  19.546   3.293
 8581W        W67875  17.781  18.293  13.835
 8582W        W67876  13.155   3.799  13.832
 8583W        W67877   4.375  14.157   1.305
 8584W        W67878  17.136  21.670   5.684
 8585W        W67879  39.008   1.466   1.874
 8586W        W67880  37.984   4.864   1.797
 8587W        W67881  33.962  14.177  11.907
 8588W        W67882  33.582   0.889  11.427
 8589W        W67883   0.334  34.985  11.430
 8590W        W67884  22.641  29.063   0.806
 8591W        W67885  23.126  43.440  14.003
 8592W        W67886  40.884   4.257  10.611
 8593W        W67887  27.080  12.346   0.466
 8594W        W67888  26.150  29.029   2.677
 8595W        W67889   8.337   3.850  13.905
 8596W        W67890  13.728   7.836  12.989
 8597W        W67891  14.810  37.888  14.783
 8598W        W67892  44.271   5.425   1.829
 8599W        W67893   4.281  28.029  14.890
 8600W        W67894   7.252   1.464   1.335
 8601W        W67895  12.357   7.887  11.116
 8602W        W67896  12.797   3.814   4.178
 8603W        W67897  37.888   5.330   2.674
 8604W        W67898  33.967   7.173  10.061
 8605W        W67899   6.322   8.722  11.879
 8606W        W67900  40.913  42.883   3.682
 8607W        W67901  15.697  14.607  10.480
 8608W        W67902  31.103   0.774   3.684
 8609W        W67903  21.141   1.263   0.925
 8610W        W67904  31.456  41.985  10.153
 8611W        W67905  26.689   8.161   5.609
 8612W        W67906   8.784   5.708  13.797
 8613W        W67907  39.541  16.651   0.922
 8614W        W67908   4.902  37.050   0.902
 8615W        W67909   1.460   4.762  10.917
 8616W        W67910   0.943  19.093  12.467
 8617W        W67911   6.281  43.903   2.312
 8618W        W67912  22.745  41.453  14.499
 8619W        W67913  25.033  41.371  11.959
 8620W        W67914  20.668  44.933   3.764
 8621W        W67915  12.624  30.522  10.047
 8622W        W67916  44.939  21.120  13.050
 8623W        W67917  10.311  28.673   1.413
 8624W        W67918  22.164   6.250   3.715
 8625W        W67919  36.592  38.862   1.904
 8626W        W67920  29.052  39.351  13.978
 8627W        W67921  27.553   6.720   2.327
 8628W        W67922   0.744  23.019   0.878
 8629W        W67923  20.085   4.888   0.895
 8630W        W67924   6.808  34.886  11.408
 8631W        W67925   1.912  27.050  14.028
 8632W        W67926  35.105  20.619   3.282
 8633W        W67927  28.603  29.129   1.294
 8634W        W67928  29.007   5.931   0.811
 8635W        W67929  26.481  42.968   4.186
 8636W        W67930  23.052  29.640  13.936
 8637W        W67931  25.495  30.545   4.608
 8638W        W67932  34.531  36.891   2.885
 8639W        W67933  29.530  33.594   0.916
 8640W        W67934  20.113  42.293  11.950
 8641W        W67935  11.744  25.603  12.919
 8642W        W67936  34.402  18.165   0.323
 8643W        W67937   7.797  34.560  10.154
 8644W        W67938  13.814  32.438  13.809
 8645W        W67939   9.348  24.561   2.699
 8646W        W67940  26.195   7.763   4.775
 8647W        W67941  28.107  44.441  13.440
 8648W        W67942  24.671  24.145  10.459
 8649W        W67943  16.237  15.186   0.800
 8650W        W67944  42.008  29.988   4.140
 8651W        W67945  42.402  20.176  11.976
 8652W        W67946  42.426  36.986  13.438
 8653W        W67947  19.144  43.810  13.330
 8654W        W67948   5.732   7.391   2.682
 8655W        W67949  34.957  24.040  13.033
 8656W        W67950  20.565  12.120  14.345
 8657W        W67951  27.081   9.298  13.517
 8658W        W67952  38.937  31.552  10.488
 8659W        W67953  33.044  31.070   4.755
 8660W        W67954   9.654  21.751   5.281
 8661W        W67955   0.866  13.806   4.334
 8662W        W67956  36.961  37.366   3.813
 8663W        W67957  22.012  10.285   0.930
 8664W        W67958   5.259  32.435  12.995
 8665W        W67959  41.328   4.798   2.370
 8666W        W67960  15.180  23.166  11.379
 8667W        W67961  10.684  21.072  12.901
 8668W        W67962   9.756  29.149   1.272
 8669W        W67963  36.920  41.405   0.812
 8670W        W67964   2.375  42.873   3.148
 8671W        W67965   4.790  26.638  14.910
 8672W        W67966  10.356  40.517  13.369
 8673W        W67967   9.180  11.759   0.901
 8674W        W67968  31.470  39.371  10.437
 8675W        W67969  17.589  18.544  11.122
 8676W        W67970  36.957  41.994   2.745
 8677W        W67971  29.118  36.007   2.877
 8678W        W67972  12.676  39.871   2.195
 8679W        W67973  44.883   8.744   0.246
 8680W        W67974   0.751   1.319   0.424
 8681W        W67975  15.606   9.152   3.791
 8682W        W67976   6.893  17.182  14.352
 8683W        W67977  40.948   5.424   2.190
 8684W        W67978  23.649  27.144   4.829
 8685W        W67979  15.267  33.447   1.330
 8686W        W67980  26.123  14.695   1.273
 8687W        W67981  29.098  20.123  11.549
 8688W        W67982  29.454  16.257  11.023
 8689W        W67983  28.061   2.467  11.856
 8690W        W67984  15.718  26.626  14.457
 8691W        W67985  37.934  33.452  11.418
 8692W        W67986  13.724  16.127   3.763
 8693W        W67987  15.819  18.235  10.125
 8694W        W67988  21.065  20.152  10.449
 8695W        W67989  44.982   9.728   3.197
 8696W        W67990  34.378  43.313   4.194
 8697W        W67991  28.135  22.623   1.916
 8698W        W67992  28.486  25.593   2.322
 8699W        W67993   8.359   3.344   3.220
 8700W        W67994  35.604  16.703  14.768
 8701W        W67995   8.209  26.493  10.121
 8702W        W67996  18.789  12.830  13.502
 8703W        W67997  30.572  32.588   4.700
 8704W        W67998  42.011  35.401   1.437
 8705W        W67999  25.976  24.502   4.189
 8706W        W68000  20.271  39.429   0.768
 8707W        W68001  29.657  15.325  12.937
 8708W        W68002  21.738   0.376   3.304
 8709W        W68003  35.097  28.058   4.815
 8710W        W68004  40.462  44.442  14.496
 8711W        W68005  12.840  25.548  11.887
 8712W        W68006  43.887  10.853  13.418
 8713W        W68007  33.515  12.813   3.676
 8714W        W68008   6.298  17.684   2.740
 8715W        W68009  34.081  40.804   1.762
 8716W        W68010  19.649  13.746  13.366
 8717W        W68011  35.596  31.404   2.697
 8718W        W68012  13.720  10.158   3.191
 8719W        W68013  19.772   3.723   3.736
 8720W        W68014  28.568   4.825  14.915
 8721W        W68015  32.577  16.727  13.938
 8722W        W68016  12.317   7.264   4.269
 8723W        W68017  27.532  43.467   3.848
 8724W        W68018  18.194  35.390  12.346
 8725W        W68019  42.833  10.794   1.427
 8726W        W68020  22.598   4.907   1.262
 8727W        W68021  16.792  11.645  13.063
 8728W        W68022  44.842  16.730   2.829
 8729W        W68023   0.962   4.311   4.152
 8730W        W68024   2.877  39.030  14.972
 8731W        W68025   7.733  20.121  10.495
 8732W        W68026  43.954   3.230  13.939
 8733W        W68027  39.322  34.544  14.991
 8734W        W68028  21.643  39.952   3.671
 8735W        W68029  29.919   2.385  12.095
 8736W        W68030  38.917  25.520  10.540
 8737W        W68031  30.443   7.751   1.337
 8738W        W68032  16.680   1.845  13.851
 8739W        W68033  32.480   6.704   0.925
 8740W        W68034   6.245  20.231  10.134
 8741W        W68035   9.183  30.003   1.730
 8742W        W68036  40.026  31.627  10.501
 8743W        W68037  14.097  38.004  12.565
 8744W        W68038  21.073  24.614   2.801
 8745W        W68039  22.238  28.132  10.915
 8746W        W68040   9.832  21.086   2.349
 8747W        W68041  34.570   1.909   2.742
 8748W        W68042   4.839  33.558  10.009
 8749W        W68043   7.812  28.514   2.711
 8750W        W68044  37.921  18.140  14.778
 8751W        W68045   4.740  31.006  11.456
 8752W        W68046   9.303  37.911   3.336
 8753W        W68047   5.322   3.427  12.486
 8754W        W68048   8.268  42.802   0.911
 8755W        W68049  13.785   9.188   4.254
 8756W        W68050  18.257   9.245  10.447
 8757W        W68051  20.041  32.135  14.414
 8758W        W68052  26.092   8.794  13.331
 8759W        W68053  44.778  17.182   4.650
 8760W        W68054  11.129  22.145   4.349
 8761W        W68055   7.806  29.439  14.469
 8762W        W68056   5.914  38.533   3.288
 8763W        W68057  36.380  39.013  12.400
 8764W        W68058  30.594  11.840   2.416
 8765W        W68059  32.616  26.458  10.426
 8766W        W68060  16.116  15.312   2.714
 8767W        W68061  44.414  33.053   2.206
 8768W        W68062  36.506   7.732   2.796
 8769W        W68063  36.020  44.467   2.261
 8770W        W68064   9.709  25.974  14.843
 8771W        W68065  13.218  38.424  11.128
 8772W        W68066  34.424  21.644  12.043
 8773W        W68067  36.957   2.253  12.967
 8774W        W68068  18.649  35.028  11.517
 8775W        W68069  27.555  25.187   4.327
 8776W        W68070  43.990  35.403  13.986
 8777W        W68071   4.296  17.267  13.417
 8778W        W68072  38.375  23.617  10.896
 8779W        W68073   6.272  34.554  13.315
 8780W        W68074  22.206   7.288  11.970
 8781W        W68075  33.490  15.726  11.057
 8782W        W68076  41.875  17.720   3.149
 8783W        W68077  13.280   6.797  11.552
 8784W        W68078  12.658  42.012  11.388
 8785W        W68079  25.126  42.965  13.318
 8786W        W68080  31.577  32.567  10.895
 8787W        W68081  16.285  10.222  10.080
 8788W        W68082  12.702  10.764   4.355
 8789W        W68083   7.904  34.941  14.026
 8790W        W68084   9.759  34.008  11.561
 8791W        W68085  18.097  28.082  13.990
 8792W        W68086   8.302  31.542  12.870
 8793W        W68087  11.635  33.471   3.301
 8794W        W68088  27.622  24.613   3.318
 8795W        W68089  37.401  30.960  11.495
 8796W        W68090  13.207  42.866   3.297
 8797W        W68091  33.089  29.093  13.035
 8798W        W68092  23.670  42.488  14.502
 8799W        W68093  41.417  27.518  11.074
 8800W        W68094  28.608   2.832  11.871
 8801W        W68095  20.737  36.045   0.938
 8802W        W68096  36.484  14.712  14.409
 8803W        W68097  28.997  35.965  13.012
 8804W        W68098  14.179  16.712  11.411
 8805W        W68099   0.754  14.094   2.303
 8806W        W68100   9.253  34.993   0.366
 8807W        W68101  44.342   2.904  12.511
 8808W        W68102   2.316  25.502  11.026
 8809W        W68103  22.660   7.346  14.945
 8810W        W68104   7.820  37.500  10.462
 8811W        W68105   1.420   1.380  12.507
 8812W        W68106  25.079   6.397   1.370
 8813W        W68107  39.353  16.138  11.534
 8814W        W68108   0.367  25.092   2.276
 8815W        W68109  18.171  36.848  11.444
 8816W        W68110  40.948   4.729   0.382
 8817W        W68111  22.509  33.385   2.253
 8818W        W68112   0.260  29.036  13.911
 8819W        W68113   7.773  19.745  11.453
 8820W        W68114  30.110   4.443   2.338
 8821W        W68115  21.124  32.636  12.343
 8822W        W68116  11.246  17.776   3.370
 8823W        W68117  12.277  13.132  11.414
 8824W        W68118  24.046  29.438   4.713
 8825W        W68119  10.165  15.171  13.797
 8826W        W68120   5.305   7.844  11.595
 8827W        W68121   9.194  43.941   2.219
 8828W        W68122  25.027  27.663  13.423
 8829W        W68123  40.374   2.369   3.150
 8830W        W68124  31.016  27.075  11.450
 8831W        W68125   2.846  11.319  10.504
 8832W        W68126  34.982  44.855   3.792
 8833W        W68127  12.133  29.920  11.394
 8834W        W68128  38.872  27.537  13.850
 8835W        W68129  25.063  40.972  14.901
 8836W        W68130  18.268   8.888   0.841
 8837W        W68131   0.361  41.347  10.554
 8838W        W68132  44.003  38.430   3.842
 8839W        W68133  16.726  43.773   0.256
 8840W        W68134  34.603  12.193  12.020
 8841W        W68135  33.600  17.135  12.962
 8842W        W68136  32.129  26.464  13.055
 8843W        W68137   6.398  40.888  11.536
 8844W        W68138  12.627  33.504   0.933
 8845W        W68139  28.958  11.712  11.885
 8846W        W68140  27.528  14.261  13.021
 8847W        W68141  18.183  43.350   4.600
 8848W        W68142  29.989  43.363   4.762
 8849W        W68143   6.236  33.617   0.753
 8850W        W68144  36.903  27.665   0.964
 8851W        W68145  10.368  19.138  13.018
 8852W        W68146   1.472  20.703  13.917
 8853W        W68147   3.738  14.717   2.796
 8854W        W68148  11.641   0.766  13.905
 8855W        W68149  38.482  40.506  12.074
 8856W        W68150  17.625  29.168  14.492
 8857W        W68151  26.101  18.260  11.979
 8858W        W68152  42.799  25.693   1.844
 8859W        W68153  11.198   3.896  10.471
 8860W        W68154   7.383  43.947  11.591
 8861W        W68155  21.657  41.297   0.956
 8862W        W68156  21.549  27.644  13.931
 8863W        W68157  18.550  11.169  10.924
 8864W        W68158   6.236  30.637  14.406
 8865W        W68159  30.589  33.453   4.779
 8866W        W68160  25.176  21.563  14.774
 8867W        W68161  38.824  27.015  10.945
 8868W        W68162  40.409  41.309  12.343
 8869W        W68163  25.674  36.379  14.295
 8870W        W68164  42.293  16.176   1.887
 8871W        W68165  29.550   1.364   0.434
 8872W        W68166  28.087  39.990  11.965
 8873W        W68167  13.226  19.691  14.932
 8874W        W68168   7.396   7.343   2.754
 8875W        W68169  13.147  10.181   2.291
 8876W        W68170  16.767  24.089  10.929
 8877W        W68171  38.567  38.833  13.508
 8878W        W68172  32.895  36.054   1.722
 8879W        W68173  18.710  22.636  13.963
 8880W        W68174  30.954  39.824   9.558
 8881W        W68175  15.106  21.669   3.333
 8882W        W68176  44.001  40.957   4.658
 8883W        W68177  42.514  40.974   2.234
 8884W        W68178  22.126  19.095  13.845
 8885W        W68179  33.588  15.321   2.179
 8886W        W68180  27.075  34.024   4.726
 8887W        W68181  27.621  31.485  14.295
 8888W        W68182  37.940  26.537   1.333
 8889W        W68183  16.155  23.521  10.542
 8890W        W68184  42.481   8.786  12.869
 8891W        W68185  11.626  32.612  12.830
 8892W        W68186  40.471  20.569   2.328
 8893W        W68187  19.730   5.262  11.908
 8894W        W68188   1.425  24.506   1.343
 8895W        W68189  20.061  19.043   3.705
 8896W        W68190   3.454  16.776  14.960
 8897W        W68191  14.236  32.394  14.799
 8898W        W68192   6.230  26.193   1.262
 8899W        W68193  20.075  11.801  12.515
 8900W        W68194  42.519  15.777  13.419
 8901W        W68195  43.288   2.935  14.439
 8902W        W68196   5.689   4.942   1.372
 8903W        W68197   7.341   3.820  12.535
 8904W        W68198  27.485  18.757   0.910
 8905W        W68199  29.051   0.345   3.259
 8906W        W68200  28.543   9.332   4.750
 8907W        W68201  33.082   6.187   1.370
 8908W        W68202  16.120   1.457   3.363
 8909W        W68203  44.007   5.264   2.665
 8910W        W68204   3.808   6.849  10.584
 8911W        W68205  43.913  26.091   0.932
 8912W        W68206  15.281  22.122  11.423
 8913W        W68207  10.861   7.221  10.426
 8914W        W68208  38.509  30.430   1.321
 8915W        W68209  43.924  38.529   2.299
 8916W        W68210  15.176  17.565   0.868
 8917W        W68211  25.564  22.626   9.967
 8918W        W68212  36.501  19.600   2.400
 8919W        W68213  38.422   5.803  11.393
 8920W        W68214  19.619   8.321  10.124
 8921W        W68215   6.855  14.227   2.887
 8922W        W68216  40.973  25.025  13.464
 8923W        W68217  31.602  33.047   0.389
 8924W        W68218  10.845  20.121  12.945
 8925W        W68219   9.777  39.320   2.260
 8926W        W68220  43.378  34.111   1.295
 8927W        W68221  39.975  18.676   2.864
 8928W        W68222  12.175  21.109  13.990
 8929W        W68223  32.547  10.374  14.903
 8930W        W68224  42.850  35.364   3.381
 8931W        W68225  39.870  24.618   1.885
 8932W        W68226  12.355   6.398  12.017
 8933W        W68227  29.594  16.088   3.190
 8934W        W68228  24.230  23.729  14.972
 8935W        W68229   2.957  42.403  12.866
 8936W        W68230  39.916  12.850  10.525
 8937W        W68231  26.183  33.879   3.632
 8938W        W68232   5.267   3.366   3.154
 8939W        W68233  25.607   3.407   1.421
 8940W        W68234  18.267  23.709  12.514
 8941W        W68235  34.471  32.967  10.525
 8942W        W68236  40.327   8.717  11.411
 8943W        W68237  12.660  15.607   0.361
 8944W        W68238  22.122  10.642   0.837
 8945W        W68239  26.516  10.786   1.366
 8946W        W68240  25.507  17.128   3.738
 8947W        W68241  44.323  43.931  10.081
 8948W        W68242  44.288  41.493  10.003
 8949W        W68243  43.387   6.749   2.244
 8950W        W68244  32.562   1.840   4.268
 8951W        W68245  31.473  41.867  11.920
 8952W        W68246  19.241  29.146  14.779
 8953W        W68247  40.386  17.669  14.924
 8954W        W68248  38.825  31.046  10.590
 8955W        W68249  23.688  19.648  13.812
 8956W        W68250   5.236  23.715  12.077
 8957W        W68251  12.749  33.451   0.295
 8958W        W68252  24.666  30.979   2.267
 8959W        W68253  19.726  27.634  14.986
 8960W        W68254   8.689  33.926  11.880
 8961W        W68255   1.741  27.620   4.320
 8962W        W68256  37.547   6.213   4.260
 8963W        W68257  20.096   7.888  13.846
 8964W        W68258  24.103  14.828   4.161
 8965W        W68259   8.253  14.591   2.242
 8966W        W68260   7.205   2.387  10.445
 8967W        W68261  43.977  26.070   0.317
 8968W        W68262   2.361  10.853  11.079
 8969W        W68263  39.020  14.658  14.829
 8970W        W68264  11.760  13.681  12.954
 8971W        W68265  42.339  26.597  12.881
 8972W        W68266   9.236  37.517  13.335
 8973W        W68267   0.337  33.935   1.273
 8974W        W68268  28.591  39.953  12.433
 8975W        W68269  39.850  18.120  12.378
 8976W        W68270  32.470   9.696   5.677
 8977W        W68271  15.679  35.039   0.472
 8978W        W68272   0.251  41.937  14.913
 8979W        W68273  30.986  37.420   1.800
 8980W        W68274  29.649   3.412   4.336
 8981W        W68275  13.161   3.874   0.475
 8982W        W68276  21.023   4.870   4.262
 8983W        W68277  15.625  35.978   4.170
 8984W        W68278   4.706  28.529   0.727
 8985W        W68279   0.432   0.955   2.703
 8986W        W68280  18.260   7.775  12.514
 8987W        W68281   1.434  37.046   4.683
 8988W        W68282  40.950   0.963   2.736
 8989W        W68283  36.529  23.150  14.963
 8990W        W68284  39.464   9.648   0.275
 8991W        W68285  30.420  40.381  13.548
 8992W        W68286  36.437  28.621   0.830
 8993W        W68287  19.236  17.734  11.384
 8994W        W68288  32.636  30.570  14.822
 8995W        W68289  11.850   2.350  12.550
 8996W        W68290  24.640   2.393  14.939
 8997W        W68291  17.701  34.968   2.285
 8998W        W68292  34.550  34.933   2.257
 8999W        W68293  10.756  31.566   2.245
 9000W        W68294  39.968   6.211  13.863
 9001W        W68295  32.024  28.153  14.827
 9002W        W68296  11.703   2.886  12.076
 9003W        W68297  42.866  24.679   0.883
 9004W        W68298  18.218   9.864   1.773
 9005W        W68299   2.450   7.910  13.319
 9006W        W68300  13.608   8.333   2.188
 9007W        W68301  36.580  18.609  12.541
 9008W        W68302  43.821  24.701   2.184
 9009W        W68303  17.182  43.919  13.382
 9010W        W68304  15.249  30.088  13.918
 9011W        W68305  14.630   2.786   1.774
 9012W        W68306  21.215   3.836  11.972
 9013W        W68307  40.444  19.637  12.505
 9014W        W68308  17.256   5.282  11.028
 9015W        W68309   1.308   0.758  13.373
 9016W        W68310  13.648  33.055  12.914
 9017W        W68311   0.918   5.431  11.880
 9018W        W68312  15.703  12.810  13.317
 9019W        W68313  34.490  34.576   4.276
 9020W        W68314  14.679  28.004   4.123
 9021W        W68315  20.174  37.006   2.665
 9022W        W68316  15.640  18.703  11.419
 9023W        W68317   3.261  22.691   3.817
 9024W        W68318  38.068   8.363   1.237
 9025W        W68319  36.020  37.349  13.469
 9026W        W68320  32.120  16.623  13.016
 9027W        W68321   0.404  15.097  13.840
 9028W        W68322  41.414  14.598  13.464
 9029W        W68323  43.300   8.361  11.033
 9030W        W68324  16.626  38.536  14.506
 9031W        W68325  19.556  38.509   1.842
 9032W        W68326  44.785  32.521  10.457
 9033W        W68327   1.828   0.283   2.764
 9034W        W68328  18.241  17.209   1.877
 9035W        W68329  42.866  23.060  10.908
 9036W        W68330  23.613   8.185   1.909
 9037W        W68331   6.912  23.005  10.046
 9038W        W68332  33.075  11.762  12.397
 9039W        W68333  22.060  38.514  10.609
 9040W        W68334  30.014  28.070   2.281
 9041W        W68335   8.795  16.813  10.094
 9042W        W68336  38.514  18.566   0.777
 9043W        W68337  35.932  32.511   1.696
 9044W        W68338  20.265   8.768   4.234
 9045W        W68339  42.005   2.349  13.452
 9046W        W68340  33.117  12.813  11.018
 9047W        W68341  21.183  34.012  11.996
 9048W        W68342  36.452  31.140  14.340
 9049W        W68343  25.689  34.900   0.296
 9050W        W68344  16.112  38.478   4.772
 9051W        W68345   6.855  24.199   4.190
 9052W        W68346   2.887   7.393  10.978
 9053W        W68347  28.640  14.298   4.267
 9054W        W68348  28.935   4.866  12.426
 9055W        W68349   0.926  22.996   4.166
 9056W        W68350  22.158   9.727  11.889
 9057W        W68351  24.069  13.599   4.317
 9058W        W68352  37.036  31.919   9.469
 9059W        W68353   9.873  32.929  12.394
 9060W        W68354  33.412  40.797  12.501
 9061W        W68355  34.004  24.001   2.798
 9062W        W68356  35.980  22.127  10.978
 9063W        W68357  12.829  16.277   4.310
 9064W        W68358  33.517  23.012  11.600
 9065W        W68359  21.033  33.075   0.837
 9066W        W68360  14.117  39.507   4.712
 9067W        W68361   5.747  32.980  11.578
 9068W        W68362  32.520  17.197   2.864
 9069W        W68363  11.183  28.669   4.263
 9070W        W68364  17.637   6.389  10.437
 9071W        W68365  42.480  23.083  13.538
 9072W        W68366   6.349  32.406  12.003
 9073W        W68367  30.164   6.885   1.820
 9074W        W68368   1.331  29.474  12.373
 9075W        W68369  12.254  14.819   1.402
 9076W        W68370  42.951  17.621  10.511
 9077W        W68371  27.520   0.337   4.212
 9078W        W68372  13.786   9.192   3.819
 9079W        W68373  22.206  39.975  12.520
 9080W        W68374  17.694  25.214  12.981
 9081W        W68375  32.534   4.209  14.819
 9082W        W68376  14.652   4.756   4.173
 9083W        W68377  10.861  35.082   2.842
 9084W        W68378  37.081  24.205   2.670
 9085W        W68379  44.771  44.792  11.577
 9086W        W68380   3.761   4.715   1.330
 9087W        W68381  32.023  36.528   0.840
 9088W        W68382  19.625  42.829   3.711
 9089W        W68383  36.961  13.661  13.507
 9090W        W68384  20.166  20.226  12.520
 9091W        W68385  21.727   1.780   2.354
 9092W        W68386  14.755   8.713   2.796
 9093W        W68387  25.213  26.015  11.533
 9094W        W68388  13.621  14.757   1.360
 9095W        W68389  28.552  15.642   0.770
 9096W        W68390   9.255  37.553  10.451
 9097W        W68391  27.630  32.090   4.693
 9098W        W68392  40.460  35.568  11.953
 9099W        W68393  22.146  17.241  14.840
 9100W        W68394  17.698  39.848  12.514
 9101W        W68395  22.745  39.363   2.300
 9102W        W68396  15.644  38.074   0.313
 9103W        W68397  13.727  21.617  13.473
 9104W        W68398  29.451   0.488   2.757
 9105W        W68399  40.394   3.324  12.536
 9106W        W68400  42.363  30.457   3.387
 9107W        W68401   8.759  44.429  13.026
 9108W        W68402  12.751  44.820   0.332
 9109W        W68403  41.988  18.176  10.037
 9110W        W68404   2.291  33.443  13.382
 9111W        W68405  26.060  31.588  10.909
 9112W        W68406  44.815  17.160  10.473
 9113W        W68407  16.785   1.408  10.410
 9114W        W68408  29.650  30.576   1.334
 9115W        W68409  13.147  15.732  13.505
 9116W        W68410  29.990  15.733   1.241
 9117W        W68411  44.474   5.229   4.835
 9118W        W68412  35.935  36.970   0.310
 9119W        W68413  13.171  31.016  14.332
 9120W        W68414   5.230  13.165   2.297
 9121W        W68415  41.302   5.406   0.826
 9122W        W68416  28.577  38.001  12.088
 9123W        W68417  14.177  39.450   0.429
 9124W        W68418  10.690  24.186  10.594
 9125W        W68419  27.126   0.837   4.344
 9126W        W68420  28.152  19.676  10.915
 9127W        W68421  16.613  36.082   1.852
 9128W        W68422  12.650  20.687   1.351
 9129W        W68423   0.894  29.152  12.557
 9130W        W68424  17.557  13.261   4.601
 9131W        W68425  25.185   5.288  11.424
 9132W        W68426  43.476  40.025  13.461
 9133W        W68427  24.204  34.502  10.890
 9134W        W68428  22.583  19.245  14.007
 9135W        W68429  32.404  13.143   0.390
 9136W        W68430  43.272  34.040  11.089
 9137W        W68431  40.872  25.613  14.963
 9138W        W68432  15.727  38.989  13.062
 9139W        W68433  29.930  21.245   3.846
 9140W        W68434  15.629  34.942   0.756
 9141W        W68435  16.258  39.980  13.443
 9142W        W68436  26.581  17.596  13.422
 9143W        W68437  44.909  13.720  14.012
 9144W        W68438  29.562  42.851  13.863
 9145W        W68439  36.443   6.734  11.499
 9146W        W68440  11.727  39.010  13.421
 9147W        W68441  43.308  24.669   4.796
 9148W        W68442   7.756  11.341  13.904
 9149W        W68443  18.559  21.730   4.697
 9150W        W68444  12.289  20.244  14.926
 9151W        W68445  33.587  28.960  10.552
 9152W        W68446   4.910  24.111   2.205
 9153W        W68447  16.730  38.841   4.186
 9154W        W68448   5.719  33.995   0.759
 9155W        W68449  37.523  23.589   3.210
 9156W        W68450  35.084  17.700   4.298
 9157W        W68451  40.425  13.284   0.464
 9158W        W68452  29.627   8.241  14.357
 9159W        W68453   9.816  18.743  12.569
 9160W        W68454  10.370   7.211   9.962
 9161W        W68455  10.207  16.712  11.983
 9162W        W68456  31.987  15.630  10.405
 9163W        W68457  27.536   5.362   2.787
 9164W        W68458  19.653  20.582  12.406
 9165W        W68459  11.718  37.524   0.869
 9166W        W68460  23.520  31.405   4.245
 9167W        W68461  34.413  16.170   0.904
 9168W        W68462  14.596   6.427  10.419
 9169W        W68463  10.306  38.361  11.499
 9170W        W68464  28.525   2.784  11.489
 9171W        W68465   9.701  43.323  14.286
 9172W        W68466  11.836  10.273   2.230
 9173W        W68467  38.020  34.381   2.686
 9174W        W68468   0.439  12.341  14.366
 9175W        W68469  20.135   8.243   2.408
 9176W        W68470  26.702  41.463  11.497
 9177W        W68471   3.401   5.373  14.296
 9178W        W68472   5.824  25.559   0.930
 9179W        W68473  28.535  37.513  14.513
 9180W        W68474  37.374  37.887   2.273
 9181W        W68475  38.489  41.526  12.484
 9182W        W68476  33.458   3.333   1.914
 9183W        W68477   4.888  27.563   1.250
 9184W        W68478  37.412  27.642   4.620
 9185W        W68479  21.228   4.281   1.704
 9186W        W68480  44.446  32.405   0.868
 9187W        W68481  35.504  43.350   2.895
 9188W        W68482  11.256  22.090   0.352
 9189W        W68483  41.034  37.353  12.561
 9190W        W68484  16.729  24.507   3.293
 9191W        W68485  39.897  42.017  14.316
 9192W        W68486  32.428  16.077   1.704
 9193W        W68487  13.781  31.542   1.763
 9194W        W68488  33.112  21.087   1.416
 9195W        W68489  34.400  35.012   1.897
 9196W        W68490  35.370  19.039  10.964
 9197W        W68491  34.068  14.265   5.148
 9198W        W68492  27.617   0.843  13.323
 9199W        W68493  22.168   8.658   1.282
 9200W        W68494  10.319  33.594   5.109
 9201W        W68495  16.743   5.756   1.428
 9202W        W68496  23.494  37.346  13.806
 9203W        W68497  28.471   5.292  11.997
 9204W        W68498   6.682  19.041   3.266
 9205W        W68499  12.250   2.314   3.267
 9206W        W68500   9.785   1.731  12.853
 9207W        W68501  13.837  12.769   2.873
 9208W        W68502  19.640   2.953  12.947
 9209W        W68503  26.012  34.902  10.538
 9210W        W68504  15.114   8.231   2.898
 9211W        W68505  33.909  34.945  13.045
 9212W        W68506   8.827  22.732  14.988
 9213W        W68507  35.585  11.803   3.652
 9214W        W68508  28.971  28.558  12.055
 9215W        W68509   4.824  44.992   3.797
 9216W        W68510  24.562  40.878   2.222
 9217W        W68511  33.919  43.498  11.020
 9218W        W68512   9.327  21.521  11.517
 9219W        W68513  22.232  38.905  13.404
 9220W        W68514  15.791  16.187   0.414
 9221W        W68515  31.076   3.377   1.392
 9222W        W68516   3.241  20.035   3.841
 9223W        W68517  39.331  41.925  12.032
 9224W        W68518  23.035  14.709   2.241
 9225W        W68519   3.906  31.452   3.161
 9226W        W68520  32.953  32.468   3.680
 9227W        W68521  43.383  24.697  10.591
 9228W        W68522  25.180   4.919  14.819
 9229W        W68523  34.560  40.440  13.866
 9230W        W68524   0.748   0.329   2.840
 9231W        W68525  13.182  42.314   1.424
 9232W        W68526  10.377   3.814  12.965
 9233W        W68527  35.861   0.431  10.600
 9234W        W68528  19.609  20.249  10.923
 9235W        W68529  34.479   8.694  14.868
 9236W        W68530  41.348  28.069   1.766
 9237W        W68531  42.890  27.500   3.708
 9238W        W68532  27.676   9.800  14.472
 9239W        W68533  29.668  28.117   3.771
 9240W        W68534  10.315  43.467  12.848
 9241W        W68535  14.695  26.600  10.160
 9242W        W68536  14.183  29.428   2.340
 9243W        W68537  38.925  12.743  12.889
 9244W        W68538  20.561  36.881   1.275
 9245W        W68539  36.588  32.912   1.226
 9246W        W68540  43.350   0.893  13.909
 9247W        W68541  10.873  36.098  13.493
 9248W        W68542  30.014  17.195   1.412
 9249W        W68543   0.454  16.697  10.933
 9250W        W68544  25.661  12.691   3.731
 9251W        W68545  13.734   3.789  14.470
 9252W        W68546  21.533   1.865   3.818
 9253W        W68547  18.781  21.613   1.216
 9254W        W68548   8.674   3.345   1.924
 9255W        W68549  37.913  40.842   1.697
 9256W        W68550  22.697  43.838  12.432
 9257W        W68551  16.152  11.237   2.841
 9258W        W68552  11.651  12.686  13.899
 9259W        W68553  26.638  14.214  13.956
 9260W        W68554  18.159   2.735   4.316
 9261W        W68555   1.401   1.251   3.263
 9262W        W68556  25.524  17.599   2.418
 9263W        W68557   4.407  35.463   1.221
 9264W        W68558  36.563  11.695  14.408
 9265W        W68559  20.126  31.038   1.834
 9266W        W68560  28.108  39.949   2.895
 9267W        W68561  34.578  38.013   9.641
 9268W        W68562   8.683  42.329   0.410
 9269W        W68563   4.281  15.105   4.212
 9270W        W68564  22.113  41.883   1.793
 9271W        W68565  13.270   7.337  10.141
 9272W        W68566  36.932  34.528  14.312
 9273W        W68567   6.380  28.437  11.577
 9274W        W68568  15.313   1.876  12.996
 9275W        W68569  30.648  39.869   5.130
 9276W        W68570  40.445   5.889   4.794
 9277W        W68571  44.922   7.281   2.335
 9278W        W68572   1.737   1.878   5.616
 9279W        W68573  15.621  36.485  10.536
 9280W        W68574  34.411   9.777   1.919
 9281W        W68575  32.424  11.741  12.893
 9282W        W68576  35.920   6.918   2.719
 9283W        W68577  37.470   7.860  11.448
 9284W        W68578  22.640   6.349   0.854
 9285W        W68579  13.810  10.329   0.759
 9286W        W68580  18.134  43.971  14.287
 9287W        W68581  42.397  25.012   2.750
 9288W        W68582  20.231  33.571  13.494
 9289W        W68583  44.426  31.107   2.741
 9290W        W68584  21.581  33.408   1.223
 9291W        W68585   6.424  28.443   2.835
 9292W        W68586   1.968  41.796  11.102
 9293W        W68587   0.440   0.797  13.891
 9294W        W68588  39.355  43.861   4.725
 9295W        W68589  18.742   3.784   0.788
 9296W        W68590  29.430  24.571   2.873
 9297W        W68591  18.577  30.461  12.420
 9298W        W68592  37.979   6.401  11.991
 9299W        W68593  11.211  28.443   2.667
 9300W        W68594  30.603  19.708  12.865
 9301W        W68595  15.327  21.017  12.834
 9302W        W68596  17.227  11.309  12.390
 9303W        W68597  15.204  37.886  10.587
 9304W        W68598  35.085   2.370  12.975
 9305W        W68599   0.766   0.328   0.307
 9306W        W68600  22.633  29.542  13.808
 9307W        W68601   2.821  31.523   4.650
 9308W        W68602  21.043  38.423   2.686
 9309W        W68603  30.953  21.151   0.357
 9310W        W68604  28.655   0.383   4.764
 9311W        W68605   4.260  37.502  11.396
 9312W        W68606   2.882  31.972  12.891
 9313W        W68607  14.635  16.707   1.376
 9314W        W68608  20.272  23.053   3.328
 9315W        W68609   5.882  21.131   0.816
 9316W        W68610   9.231  10.145   0.745
 9317W        W68611  23.041  33.478  11.874
 9318W        W68612  37.343   1.384  11.106
 9319W        W68613   0.887  33.954  12.965
 9320W        W68614  27.515  20.036  11.525
 9321W        W68615  19.196  39.883   3.244
 9322W        W68616  15.753  18.614  11.954
 9323W        W68617  15.223  31.404  14.759
 9324W        W68618  17.123  30.075  13.856
 9325W        W68619  24.691  37.862  13.918
 9326W        W68620   0.357  28.138   3.757
 9327W        W68621   6.700   7.760  12.463
 9328W        W68622   0.959   3.842  12.953
 9329W        W68623  37.351  38.861   1.413
 9330W        W68624  38.402  25.506  12.492
 9331W        W68625  44.305  16.175   2.693
 9332W        W68626  31.956  42.314   4.723
 9333W        W68627  39.479  13.635   1.259
 9334W        W68628  30.983  38.410   4.784
 9335W        W68629  35.096  13.758   2.234
 9336W        W68630  38.992   2.459  12.566
 9337W        W68631   1.820  27.465  13.966
 9338W        W68632  16.281   9.878  11.109
 9339W        W68633   0.303  19.204  14.275
 9340W        W68634   5.923   4.443  11.871
 9341W        W68635  30.557  33.035  13.353
 9342W        W68636  17.255  25.026  12.350
 9343W        W68637  31.966  37.558  11.998
 9344W        W68638  35.389   4.437   4.791
 9345W        W68639  36.554  41.326  12.444
 9346W        W68640  40.485   9.694  11.461
 9347W        W68641  30.443  34.913   3.634
 9348W        W68642   8.801  11.663  11.903
 9349W        W68643  23.095  12.203  12.430
 9350W        W68644  25.679  23.494  11.875
 9351W        W68645   2.399  30.435   0.792
 9352W        W68646   8.806  18.273  10.005
 9353W        W68647   8.283   6.717  13.422
 9354W        W68648  20.210  19.754   3.695
 9355W        W68649   0.357  34.501  14.345
 9356W        W68650  32.636  29.136  11.940
 9357W        W68651  43.275  21.534  13.834
 9358W        W68652  19.054  15.273   1.932
 9359W        W68653  42.404  35.569   3.826
 9360W        W68654  39.958  15.222  13.927
 9361W        W68655  30.646  37.915   5.120
 9362W        W68656  32.412  43.902   1.743
 9363W        W68657  31.454  34.979  13.043
 9364W        W68658  22.018  26.075   1.279
 9365W        W68659  43.282  29.507   2.822
 9366W        W68660  28.542   7.865   3.174
 9367W        W68661  38.414  17.305   1.406
 9368W        W68662  11.769   3.406  13.885
 9369W        W68663  17.200  44.472  14.350
 9370W        W68664   7.884  43.458   3.215
 9371W        W68665  31.480  44.794   4.134
 9372W        W68666   5.351  10.651   4.254
 9373W        W68667  23.618   3.894  12.857
 9374W        W68668   3.406   1.261   3.263
 9375W        W68669  41.476  15.652  12.092
 9376W        W68670  40.015  37.370   1.707
 9377W        W68671  30.473   5.832   4.294
 9378W        W68672  19.747  36.949   4.655
 9379W        W68673  31.451   4.389  14.299
 9380W        W68674  17.741   9.257  12.073
 9381W        W68675   1.897  19.616  12.532
 9382W        W68676  19.770   9.801   2.189
 9383W        W68677   4.797  20.062   0.434
 9384W        W68678  44.773   1.416   2.338
 9385W        W68679  15.740  32.079  10.970
 9386W        W68680  25.709  27.119   0.794
 9387W        W68681  11.226  27.471  13.378
 9388W        W68682  34.428  11.350  11.117
 9389W        W68683  24.566  39.316   3.217
 9390W        W68684  39.060  44.902   0.865
 9391W        W68685  24.228  13.324  11.459
 9392W        W68686  38.357  41.843   0.821
 9393W        W68687  21.627  37.340   1.315
 9394W        W68688   1.287  37.864   2.878
 9395W        W68689   9.238   2.420   4.802
 9396W        W68690  18.694  19.685   2.342
 9397W        W68691  29.469  25.702  11.002
 9398W        W68692  32.465   3.912  14.839
 9399W        W68693  18.781  14.249   2.736
 9400W        W68694  23.686  40.473   1.829
 9401W        W68695   1.938  43.809  12.537
 9402W        W68696   8.770  26.017  10.471
 9403W        W68697  24.502  18.222  11.503
 9404W        W68698   9.284   1.849  13.796
 9405W        W68699  36.951  44.432   4.631
 9406W        W68700   3.886  43.996   2.827
 9407W        W68701   5.727  19.284  10.462
 9408W        W68702   7.854   6.740   2.192
 9409W        W68703  38.841  29.100  14.346
 9410W        W68704  34.047  30.653  14.925
 9411W        W68705  16.698  29.134  11.492
 9412W        W68706   4.838  17.756  13.934
 9413W        W68707  25.557  38.561   0.779
 9414W        W68708  33.066  16.091   3.644
 9415W        W68709  31.096  25.158  12.004
 9416W        W68710  39.948  14.243   2.348
 9417W        W68711  21.244  22.635  14.871
 9418W        W68712   5.857   8.346   3.661
 9419W        W68713  44.824   5.258   1.255
 9420W        W68714  12.132  23.102  12.833
 9421W        W68715  31.432  16.152   0.923
 9422W        W68716  17.209  16.294  14.277
 9423W        W68717  31.107  37.975   4.311
 9424W        W68718  29.050   8.310   0.952
 9425W        W68719  29.590   5.896  14.810
 9426W        W68720  26.637  13.221  14.938
 9427W        W68721  31.018  33.526  10.506
 9428W        W68722  17.263  44.448  13.406
 9429W        W68723  31.106   8.786   1.240
 9430W        W68724  31.538  29.128  14.769
 9431W        W68725  12.763   0.453   2.750
 9432W        W68726  26.005  42.365  14.799
 9433W        W68727   3.769  26.513   5.299
 9434W        W68728  24.095  40.308   1.707
 9435W        W68729  12.206  10.192  14.965
 9436W        W68730  26.552  37.497  13.385
 9437W        W68731   2.431  15.120   4.272
 9438W        W68732  25.187  13.695  14.851
 9439W        W68733  33.013  36.960  13.484
 9440W        W68734  25.988  41.034   2.803
 9441W        W68735  16.204  43.503   3.840
 9442W        W68736  19.118   3.752   0.357
 9443W        W68737  29.606   3.345   3.790
 9444W        W68738  32.569  12.857   3.351
 9445W        W68739  14.832   0.371  12.499
 9446W        W68740  43.462  32.121   3.651
 9447W        W68741   1.300  37.050  14.788
 9448W        W68742  11.223  32.554  11.519
 9449W        W68743  31.910  17.592   4.678
 9450W        W68744  28.480  18.097   4.775
 9451W        W68745  14.299   1.317   2.839
 9452W        W68746   9.364  24.671   4.646
 9453W        W68747  34.047  23.496   1.816
 9454W        W68748   7.892  36.386   3.266
 9455W        W68749   1.734  44.488   0.898
 9456W        W68750  39.511  21.679   0.806
 9457W        W68751  42.870  12.625   1.266
 9458W        W68752  13.256  36.875  13.893
 9459W        W68753   3.798   7.860  14.452
 9460W        W68754   6.795   4.935  14.379
 9461W        W68755  23.102  26.071  11.058
 9462W        W68756  40.324  20.037  12.027
 9463W        W68757   9.699   6.362  13.802
 9464W        W68758  21.564  10.151   1.272
 9465W        W68759  28.001  44.769   3.812
 9466W        W68760  29.564  22.102   0.352
 9467W        W68761   2.861  19.119  13.371
 9468W        W68762  11.234  20.574   1.714
 9469W        W68763  38.019  35.575  14.932
 9470W        W68764  29.069  11.331   1.791
 9471W        W68765  41.499  40.483   2.894
 9472W        W68766  19.045  24.700   3.358
 9473W        W68767  17.643  10.727  10.923
 9474W        W68768   2.786  35.950  10.934
 9475W        W68769   8.183   5.891   4.760
 9476W        W68770  30.031  23.105   3.371
 9477W        W68771  27.019   5.211   4.605
 9478W        W68772  28.048  36.000  14.999
 9479W        W68773  33.127  35.504  11.942
 9480W        W68774  15.276  21.217   2.764
 9481W        W68775   4.415  26.003   0.805
 9482W        W68776  39.896   1.424  13.496
 9483W        W68777  27.017  37.467   1.922
 9484W        W68778  22.583  41.452  13.467
 9485W        W68779  14.633  40.326  14.980
 9486W        W68780  16.677  35.880  12.863
 9487W        W68781   0.340  44.802   9.952
 9488W        W68782  21.682  27.011   4.714
 9489W        W68783  38.441   1.478  13.007
 9490W        W68784  22.573  26.520  13.908
 9491W        W68785   8.201  22.249   4.613
 9492W        W68786  32.975  13.174   0.424
 9493W        W68787  13.641  38.050   0.883
 9494W        W68788  32.605   3.862   1.331
 9495W        W68789  32.509   0.324   0.396
 9496W        W68790  44.974  11.176  12.041
 9497W        W68791  12.688   7.723   3.168
 9498W        W68792  21.180  31.975   1.277
 9499W        W68793  37.426  19.219  14.764
 9500W        W68794  36.876  12.635  13.842
 9501W        W68795   7.781  14.264   0.454
 9502W        W68796  42.294  13.247   4.727
 9503W        W68797  29.456  29.492   1.751
 9504W        W68798   1.920  17.218   4.210
 9505W        W68799  44.848  24.074   2.826
 9506W        W68800  41.293  27.601  14.461
 9507W        W68801  37.524  21.181  13.441
 9508W        W68802  38.946  10.205   3.820
 9509W        W68803  42.379  33.622  13.428
 9510W        W68804  19.763  23.188   0.726
 9511W        W68805  39.044   6.921   3.219
 9512W        W68806  26.504  33.910   3.709
 9513W        W68807  27.184  24.622   2.248
 9514W        W68808  33.434   9.264  14.446
 9515W        W68809  39.010   4.443  10.103
 9516W        W68810  37.028  21.511   0.899
 9517W        W68811   9.282   8.749   0.256
 9518W        W68812  18.050  21.199  12.467
 9519W        W68813  15.591  35.392   4.225
 9520W        W68814  11.821  42.510   4.752
 9521W        W68815  39.524  14.667   3.157
 9522W        W68816  13.756  40.798   4.295
 9523W        W68817  23.149  12.278   2.668
 9524W        W68818  39.036  31.423   1.758
 9525W        W68819  43.941  33.991  13.514
 9526W        W68820   8.175  19.645   3.314
 9527W        W68821  18.229  28.472  13.904
 9528W        W68822  43.887  44.951  11.541
 9529W        W68823  23.633   7.684   5.746
 9530W        W68824  26.052  42.520  10.472
 9531W        W68825  25.061  18.053   4.332
 9532W        W68826  19.146   7.823   0.762
 9533W        W68827  10.321   1.341  13.323
 9534W        W68828  34.438   9.162  12.577
 9535W        W68829   9.218  22.553  14.904
 9536W        W68830  31.036  37.021  13.537
 9537W        W68831   1.841  38.453  13.924
 9538W        W68832  20.273  43.835   4.165
 9539W        W68833  14.100  20.570   2.258
 9540W        W68834   0.279  20.273  12.945
 9541W        W68835  27.055  11.765  12.918
 9542W        W68836  28.566  11.733   3.794
 9543W        W68837   5.772  36.591  11.508
 9544W        W68838  19.704  25.496   4.181
 9545W        W68839  44.504  17.289   0.854
 9546W        W68840   3.804  18.090  14.484
 9547W        W68841  35.008  28.033   1.698
 9548W        W68842   6.879   4.377  13.026
 9549W        W68843  32.077  13.681  11.388
 9550W        W68844  10.732  31.029   2.233
 9551W        W68845   2.856  34.103  13.807
 9552W        W68846  12.782  29.148   3.333
 9553W        W68847  22.033  31.058   4.809
 9554W        W68848  32.137  26.457   1.404
 9555W        W68849  39.367  12.687  13.318
 9556W        W68850   2.317  28.049   2.294
 9557W        W68851  35.871  11.131   3.751
 9558W        W68852  37.459  32.401   2.734
 9559W        W68853  35.880  17.651   2.248
 9560W        W68854  39.930  42.495   3.208
 9561W        W68855   2.310  13.777  10.583
 9562W        W68856   3.807   5.318  13.896
 9563W        W68857   2.440  31.594   0.795
 9564W        W68858  35.922  33.908  11.926
 9565W        W68859  14.327  43.369  11.021
 9566W        W68860  27.516  13.296   0.393
 9567W        W68861  17.250  14.683   2.858
 9568W        W68862  42.017  23.080   2.812
 9569W        W68863  15.099   0.291   2.737
 9570W        W68864  24.039  15.247  11.607
 9571W        W68865  41.356   7.785   2.711
 9572W        W68866  28.012  27.494  12.064
 9573W        W68867  10.783  38.373  12.054
 9574W        W68868  33.434   3.315  11.583
 9575W        W68869   6.428  22.630  14.308
 9576W        W68870  10.673  16.123   4.273
 9577W        W68871  30.092   7.320   3.736
 9578W        W68872  41.366  41.397   3.654
 9579W        W68873  12.771  26.045   3.681
 9580W        W68874  31.979   7.286   3.283
 9581W        W68875  27.075  26.632   3.363
 9582W        W68876  14.202   3.837  14.318
 9583W        W68877  24.165  36.089  11.981
 9584W        W68878  29.156  21.710  13.840
 9585W        W68879   5.831  25.509  12.947
 9586W        W68880  13.315  32.401  13.344
 9587W        W68881   6.391  23.067   4.667
 9588W        W68882  12.849  38.332   2.745
 9589W        W68883   5.737  19.768   0.419
 9590W        W68884  43.960  24.141   2.248
 9591W        W68885  36.530  23.545   2.292
 9592W        W68886  19.090  18.066   1.410
 9593W        W68887  12.774  13.197  11.488
 9594W        W68888  29.022  27.162  12.905
 9595W        W68889  34.955   3.281   1.322
 9596W        W68890  10.680   4.793   0.872
 9597W        W68891  34.486  14.798   3.803
 9598W        W68892  36.997  22.229  14.821
 9599W        W68893  33.605  37.998  12.084
 9600W        W68894  16.630   5.872   0.461
 9601W        W68895  27.685  28.451   4.276
 9602W        W68896  29.489  37.490   4.239
 9603W        W68897   4.768  37.336  12.091
 9604W        W68898  41.792  36.438  12.365
 9605W        W68899  20.526  18.674   0.262
 9606W        W68900   7.251  38.350   3.146
 9607W        W68901  44.395  41.952  11.971
 9608W        W68902  34.454  23.499  14.881
 9609W        W68903  10.655  27.107  13.359
 9610W        W68904  14.340   4.707   0.822
 9611W        W68905  23.621  33.911  10.410
 9612W        W68906   9.222   0.799   2.680
 9613W        W68907  39.879  26.462   3.244
 9614W        W68908  17.104  39.021  12.501
 9615W        W68909  20.096  10.299   2.662
 9616W        W68910  11.665  44.817  14.408
 9617W        W68911  29.524  42.881  12.962
 9618W        W68912  44.432   0.396  12.505
 9619W        W68913  15.630  36.051  13.428
 9620W        W68914  33.625  34.583  13.941
 9621W        W68915  42.299  37.076  14.906
 9622W        W68916   2.249  15.787  12.350
 9623W        W68917  37.953  11.163  12.001
 9624W        W68918   2.740  44.340   2.232
 9625W        W68919   3.808   8.711  12.476
 9626W        W68920   1.330  28.526   3.728
 9627W        W68921  12.354  13.682  11.462
 9628W        W68922  31.636  42.852   4.269
 9629W        W68923  29.656  12.626   0.386
 9630W        W68924   3.745  21.106  10.517
 9631W        W68925  37.067  32.563   1.802
 9632W        W68926  19.066  34.099  11.091
 9633W        W68927  18.733   2.382   0.950
 9634W        W68928   9.210  16.189   3.759
 9635W        W68929  34.058  12.827   0.951
 9636W        W68930  37.437  25.477   4.258
 9637W        W68931  20.601   9.847  13.453
 9638W        W68932  23.590  32.610  12.939
 9639W        W68933  33.924  30.631   3.226
 9640W        W68934  30.654  18.681   0.248
 9641W        W68935  18.253  15.618  11.924
 9642W        W68936  19.545  37.854   1.706
 9643W        W68937  18.079  44.342   3.692
 9644W        W68938  31.464  35.494  12.352
 9645W        W68939   6.896   8.781   2.832
 9646W        W68940  11.217  22.614  14.314
 9647W        W68941  12.701  17.289   3.717
 9648W        W68942  13.785  41.850   4.294
 9649W        W68943  19.680  11.224   4.113
 9650W        W68944  34.394   6.848   2.363
 9651W        W68945  13.168  35.524  13.499
 9652W        W68946   9.182  20.673   4.744
 9653W        W68947   3.390  24.029  10.972
 9654W        W68948  18.074  23.688   0.269
 9655W        W68949  14.124  27.124  14.296
 9656W        W68950  25.543  27.096  12.894
 9657W        W68951  34.987  29.541   0.833
 9658W        W68952   3.827  23.078   2.266
 9659W        W68953  28.004  19.776   3.776
 9660W        W68954  23.728  11.633  11.070
 9661W        W68955   0.398  44.953  12.448
 9662W        W68956  42.404  14.823   1.904
 9663W        W68957  32.446  18.251  12.009
 9664W        W68958  39.853  39.334  14.997
 9665W        W68959  31.500   8.680  11.088
 9666W        W68960  23.128  15.311   1.850
 9667W        W68961  12.285  41.992   4.248
 9668W        W68962  29.132  41.360  12.832
 9669W        W68963  44.267   2.868   5.621
 9670W        W68964  10.776   7.320  13.431
 9671W        W68965  40.921  26.009   3.352
 9672W        W68966  10.792  14.736  12.930
 9673W        W68967   5.304   2.817   1.807
 9674W        W68968   9.212   2.439  14.031
 9675W        W68969  39.417  22.202   1.275
 9676W        W68970  21.219  41.324  13.456
 9677W        W68971  40.991  15.278   4.267
 9678W        W68972  14.768  40.502  12.922
 9679W        W68973  39.322  34.428   0.285
 9680W        W68974  14.098  37.050  13.356
 9681W        W68975  43.333  29.432   2.279
 9682W        W68976  31.959  33.491   4.209
 9683W        W68977  28.492  37.337   9.949
 9684W        W68978  32.108  25.080   3.340
 9685W        W68979  39.322  10.148  11.561
 9686W        W68980  28.045   1.427  10.417
 9687W        W68981   1.330   2.943   3.759
 9688W        W68982  37.042   5.221  13.049
 9689W        W68983  30.446  12.743   3.268
 9690W        W68984   4.207  31.927   0.874
 9691W        W68985  30.570  27.533   2.268
 9692W        W68986  19.622  33.012  11.459
 9693W        W68987  10.362  42.939  11.517
 9694W        W68988  32.634  40.845   1.828
 9695W        W68989  44.794   6.280  14.309
 9696W        W68990   1.446  39.933   3.279
 9697W        W68991   9.350  32.978   0.944
 9698W        W68992   6.847  44.789  14.483
 9699W        W68993  23.039  19.587   1.842
 9700W        W68994  40.437  23.565   0.777
 9701W        W68995   0.902  33.521   3.685
 9702W        W68996   1.309  14.627   3.797
 9703W        W68997  11.819  20.673  11.583
 9704W        W68998   1.950  42.830   2.690
 9705W        W68999   1.772  36.842   0.286
 9706W        W69000  19.767   0.800   4.315
 9707W        W69001  18.233  27.009   0.406
 9708W        W69002  14.217  23.090  10.548
 9709W        W69003  12.654  25.009   1.310
 9710W        W69004  41.912  31.979   1.765
 9711W        W69005  23.661   0.363   0.784
 9712W        W69006  28.470   0.782   0.777
 9713W        W69007  32.938  25.037   1.882
 9714W        W69008  19.673   0.784  11.000
 9715W        W69009   0.339   5.890   2.197
 9716W        W69010  23.118  44.461  12.461
 9717W        W69011  24.166  25.079   0.902
 9718W        W69012  32.041  15.179  13.801
 9719W        W69013  44.276   8.878   3.791
 9720W        W69014  33.110  30.626   4.618
 9721W        W69015  24.143   7.415  10.053
 9722W        W69016  12.669  42.923  12.573
 9723W        W69017  19.660   4.231  13.373
 9724W        W69018   6.872   3.726   2.795
 9725W        W69019   9.293  30.148   2.748
 9726W        W69020  20.104  25.077   3.645
 9727W        W69021  30.104  11.679   3.698
 9728W        W69022  33.472  24.125  13.351
 9729W        W69023  18.226  18.256  12.450
 9730W        W69024  15.761  32.448  13.481
 9731W        W69025  44.388   3.414   0.934
 9732W        W69026  23.041  38.934   0.735
 9733W        W69027  12.711  27.007   1.290
 9734W        W69028  23.049  21.756   4.331
 9735W        W69029   8.850  22.184  14.350
 9736W        W69030  33.937  12.689  12.092
 9737W        W69031  29.573   3.394  14.955
 9738W        W69032  26.480  40.509  14.761
 9739W        W69033  15.628   5.248   3.284
 9740W        W69034  27.151  16.249  14.373
 9741W        W69035  44.966   3.907  12.916
 9742W        W69036  10.239  17.721   0.337
 9743W        W69037  27.100  17.601  13.530
 9744W        W69038  32.473   0.440  13.476
 9745W        W69039   5.317  25.167  14.514
 9746W        W69040  33.429  41.796  12.990
 9747W        W69041   1.396  33.933  13.488
 9748W        W69042  36.499  10.877   0.913
 9749W        W69043  11.275  44.440  12.340
 9750W        W69044  17.710  27.194   4.114
 9751W        W69045  37.979  23.569   4.760
 9752W        W69046  29.002   5.916  10.482
 9753W        W69047  44.760   9.171  10.959
 9754W        W69048   8.203  14.757  13.859
 9755W        W69049  37.432  31.897  12.443
 9756W        W69050  31.125  17.235  11.113
 9757W        W69051   7.328  44.819  10.924
 9758W        W69052  43.876  38.077  11.530
 9759W        W69053   4.794   2.846  12.892
 9760W        W69054   4.444  23.116  13.474
 9761W        W69055  19.093   7.226   3.192
 9762W        W69056  38.349   6.749   2.875
 9763W        W69057  24.212  35.879   3.155
 9764W        W69058  32.115  24.029   5.239
 9765W        W69059   7.359   5.840   2.184
 9766W        W69060  39.845  37.355   1.246
 9767W        W69061  43.995  37.437   1.246
 9768W        W69062  25.181  25.637  11.114
 9769W        W69063  18.677  41.877   4.619
 9770W        W69064  39.058   6.369   4.604
 9771W        W69065  18.624  21.106  14.952
 9772W        W69066  40.360  26.090   2.835
 9773W        W69067  18.558  24.720  14.804
 9774W        W69068  28.672  37.438   4.312
 9775W        W69069   6.237  15.282   0.743
 9776W        W69070  32.498   8.295   0.872
 9777W        W69071   1.317  27.021  12.405
 9778W        W69072  43.471  28.505   2.255
 9779W        W69073  29.585  23.693   2.322
 9780W        W69074  31.082  20.105   4.191
 9781W        W69075  43.469  34.904  14.843
 9782W        W69076  41.335  25.615  11.918
 9783W        W69077   7.770  21.134   0.438
 9784W        W69078  37.458   0.377   2.859
 9785W        W69079  34.439  11.158   1.404
 9786W        W69080  40.415  42.297   4.200
 9787W        W69081  37.542  33.459   1.896
 9788W        W69082  40.915  18.246  14.400
 9789W        W69083  16.682  35.584   1.348
 9790W        W69084  19.137  36.517  13.499
 9791W        W69085  12.698   5.438   1.211
 9792W        W69086   8.276  11.171  14.824
 9793W        W69087   1.366  35.480  12.480
 9794W        W69088  20.571  31.458  14.896
 9795W        W69089  19.256  12.176  14.418
 9796W        W69090  24.669  21.637  13.932
 9797W        W69091  36.927  15.293  13.432
 9798W        W69092  41.934  36.030  10.587
 9799W        W69093  28.978  39.499  11.013
 9800W        W69094  13.169   4.415  10.481
 9801W        W69095  31.607  28.511   1.218
 9802W        W69096   2.356  22.118  11.042
 9803W        W69097  42.387   5.687   2.766
 9804W        W69098  23.567  10.775   1.928
 9805W        W69099  29.927   7.672   3.265
 9806W        W69100  14.265  27.963   1.907
 9807W        W69101  29.459  13.340   0.304
 9808W        W69102  42.291  43.936   2.325
 9809W        W69103  18.262  41.909   3.242
 9810W        W69104  13.776   5.426  11.482
 9811W        W69105  34.890  40.904   4.716
 9812W        W69106  12.846  26.598  13.321
 9813W        W69107  34.405  22.064  13.542
 9814W        W69108  23.008  39.869  12.832
 9815W        W69109  10.163   9.801   0.872
 9816W        W69110   3.728  20.192  10.932
 9817W        W69111  31.425  12.254   3.203
 9818W        W69112  41.036  19.726  14.938
 9819W        W69113  12.816  20.254   0.418
 9820W        W69114  26.504  14.778   1.318
 9821W        W69115   8.185  32.504   4.633
 9822W        W69116  30.050  43.418  14.952
 9823W        W69117  36.514  39.454  11.536
 9824W        W69118  11.669  20.155  14.968
 9825W        W69119  26.103  30.534   3.341
 9826W        W69120   0.845  17.642   4.687
 9827W        W69121   3.820  27.944  10.529
 9828W        W69122   8.717   5.869   0.818
 9829W        W69123  17.558   1.407   1.916
 9830W        W69124  35.405   8.725  12.087
 9831W        W69125   9.857  12.674  13.941
 9832W        W69126  22.678  29.454   3.219
 9833W        W69127  17.669  20.529  13.419
 9834W        W69128  37.903  17.066   3.339
 9835W        W69129   0.362   7.816  13.004
 9836W        W69130   0.383  30.946  11.966
 9837W        W69131  34.973  39.909   3.867
 9838W        W69132  29.076   2.342   2.345
 9839W        W69133  18.694  15.143   2.350
 9840W        W69134  29.477   5.422  11.386
 9841W        W69135  30.550  16.621   0.800
 9842W        W69136   7.675  33.419  12.477
 9843W        W69137  41.371  17.644  14.454
 9844W        W69138  43.338  26.082   4.655
 9845W        W69139  25.544  18.108  12.021
 9846W        W69140   7.746  19.618   4.265
 9847W        W69141  15.297  22.019   1.232
 9848W        W69142  43.816  13.813   1.389
 9849W        W69143  21.741  17.276  10.535
 9850W        W69144  30.659  44.974  12.076
 9851W        W69145   8.872   8.296  12.397
 9852W        W69146  19.558  36.843  11.591
 9853W        W69147  15.811  26.612   2.752
 9854W        W69148  31.481   2.422  12.579
 9855W        W69149  17.290  33.577   4.168
 9856W        W69150   7.385  19.179  11.870
 9857W        W69151  31.585  36.021  14.445
 9858W        W69152   5.880  14.158  13.956
 9859W        W69153  12.631  29.447   3.371
 9860W        W69154   5.319  39.385   3.703
 9861W        W69155  27.008  16.801   1.217
 9862W        W69156  34.894  18.212   0.961
 9863W        W69157   2.429  39.498   0.303
 9864W        W69158  11.200  18.087   4.323
 9865W        W69159  19.270  14.237  12.975
 9866W        W69160   2.769  22.142   4.323
 9867W        W69161   1.864   5.903   0.890
 9868W        W69162  27.547  13.108  12.376
 9869W        W69163  33.077  10.750  14.979
 9870W        W69164  16.581  33.385   3.323
 9871W        W69165  23.543  20.147  14.822
 9872W        W69166  43.952  12.151   0.415
 9873W        W69167  12.266   5.696  10.989
 9874W        W69168   1.338  34.431   2.419
 9875W        W69169  16.276   0.463  11.439
 9876W        W69170  38.408  43.855  12.837
 9877W        W69171  32.101  15.764   1.739
 9878W        W69172  27.007  21.165   3.208
 9879W        W69173   1.404   5.919  14.377
 9880W        W69174  32.080  40.441   9.478
 9881W        W69175  25.501  32.022  10.640
 9882W        W69176  33.034  12.196   4.182
 9883W        W69177  32.577  26.088   4.728
 9884W        W69178  32.494  37.386   0.764
 9885W        W69179  13.278  10.744  10.967
 9886W        W69180   5.753  20.668  12.971
 9887W        W69181   3.459  11.759  12.564
 9888W        W69182  34.004  26.985  13.993
 9889W        W69183  43.816   5.222   0.457
 9890W        W69184  38.856  22.643  12.861
 9891W        W69185  20.256  19.630  12.898
 9892W        W69186  13.190  38.901  12.048
 9893W        W69187  40.333  38.919   4.228
 9894W        W69188  15.328  29.092  14.896
 9895W        W69189  32.984  15.685   2.405
 9896W        W69190  24.576  13.135  11.039
 9897W        W69191  17.690  24.085  14.345
 9898W        W69192  32.953   4.854   3.362
 9899W        W69193  39.049  38.941  14.421
 9900W        W69194  13.206  11.672  10.147
 9901W        W69195  32.976  18.234  11.421
 9902W        W69196   2.939  28.108   2.299
 9903W        W69197  35.380  15.295  10.477
 9904W        W69198   1.379  24.000  12.841
 9905W        W69199  41.963  22.698   2.663
 9906W        W69200  12.838  44.930   0.845
 9907W        W69201  36.947   3.245   2.275
 9908W        W69202  41.534  25.648   2.723
 9909W        W69203   9.328  16.238  12.346
 9910W        W69204   8.319  34.402   1.215
 9911W        W69205   0.352  14.722   3.206
 9912W        W69206  44.262   0.288  13.542
 9913W        W69207  13.760   6.343   3.327
 9914W        W69208   5.748  29.061   0.248
 9915W        W69209   7.411  28.931  14.834
 9916W        W69210  21.167  12.309  14.354
 9917W        W69211   6.394  23.498   3.366
 9918W        W69212   5.225  39.318  13.326
 9919W        W69213  21.522  19.256   3.350
 9920W        W69214   5.724   9.746  13.874
 9921W        W69215  41.018  12.297   3.676
 9922W        W69216  27.674   5.822  10.969
 9923W        W69217  13.330  29.482  10.620
 9924W        W69218  23.047  27.672  11.125
 9925W        W69219  24.589   5.220   1.319
 9926W        W69220  33.951  11.765  13.543
 9927W        W69221  36.068   6.858   1.867
 9928W        W69222  21.620  12.640   3.805
 9929W        W69223  44.893   9.328   3.864
 9930W        W69224   8.805   4.715  13.399
 9931W        W69225   8.317  38.934   4.207
 9932W        W69226   8.328  23.648   1.372
 9933W        W69227   0.869   5.731   1.818
 9934W        W69228  26.695  11.793  11.010
 9935W        W69229  16.623  43.829   3.239
 9936W        W69230  25.638  39.379  11.568
 9937W        W69231  36.911  25.682   4.238
 9938W        W69232  33.510   4.737   2.310
 9939W        W69233  13.308  39.856  13.805
 9940W        W69234  26.180   6.347  12.542
 9941W        W69235  11.746  23.630   1.707
 9942W        W69236   7.716  27.120  12.030
 9943W        W69237  19.206   0.829  13.990
 9944W        W69238  44.863  38.944  13.972
 9945W        W69239  27.661  21.706   1.273
 9946W        W69240  43.864  22.122   4.755
 9947W        W69241  42.447  24.068  13.992
 9948W        W69242  21.081  22.072  13.944
 9949W        W69243   3.424  24.109  10.473
 9950W        W69244  27.988  10.300  12.995
 9951W        W69245   3.279  43.927  11.027
 9952W        W69246  18.224  32.057   3.703
 9953W        W69247   2.238  30.591  10.942
 9954W        W69248  17.213  24.677  13.542
 9955W        W69249  12.161  39.321   3.849
 9956W        W69250   1.295   9.731  13.482
 9957W        W69251   7.894  34.406  13.890
 9958W        W69252  13.794   5.837  14.368
 9959W        W69253  29.557  11.699  13.319
 9960W        W69254  32.100  18.054  13.041
 9961W        W69255  19.272   6.690   0.371
 9962W        W69256  12.831   5.717  11.970
 9963W        W69257  33.533  33.913  14.305
 9964W        W69258   5.836  11.861  13.917
 9965W        W69259  34.404  44.987  12.563
 9966W        W69260  10.655   4.836  10.610
 9967W        W69261   3.296  28.135   0.318
 9968W        W69262   1.334  23.993  14.395
 9969W        W69263  19.224  34.606  11.446
 9970W        W69264  30.926  18.190   4.179
 9971W        W69265  44.784  39.986  13.540
 9972W        W69266   0.281  16.092  14.798
 9973W        W69267  14.756  31.435  10.901
 9974W        W69268  26.461   8.183  11.858
 9975W        W69269  28.080  42.960   3.645
 9976W        W69270  41.318  41.864   2.822
 9977W        W69271   8.813  22.595   2.727
 9978W        W69272  23.160  41.947   4.116
 9979W        W69273  29.010  36.388  12.489
 9980W        W69274  19.753  20.056   1.405
 9981W        W69275  18.195  24.584   1.214
 9982W        W69276  32.476  24.681  14.404
 9983W        W69277  12.154  33.958  13.401
 9984W        W69278  36.902   8.708  11.450
 9985W        W69279   7.185  19.217  10.507
 9986W        W69280  26.100  10.692  13.819
 9987W        W69281   8.755  29.015  13.469
 9988W        W69282  35.358   7.369  13.803
 9989W        W69283   5.370  17.225  10.409
 9990W        W69284   3.789   1.744   4.318
 9991W        W69285  15.230  40.480  13.338
 9992W        W69286   4.784   2.272   0.474
 9993W        W69287  41.385   7.227   2.398
 9994W        W69288  42.005  25.666   1.868
 9995W        W69289  43.818  42.023   2.206
 9996W        W69290  18.745   2.854   3.385
 9997W        W69291   7.855  12.773  14.762
 9998W        W69292  40.488  38.000   4.611
 9999W        W69293   2.460  39.057  11.430
10000W        W69294  31.008  40.959   2.870
10001W        W69295  13.712  23.724  13.981
10002W        W69296  16.768  26.679   1.331
10003W        W69297  14.129   8.793  11.865
10004W        W69298  20.248   5.272  12.446
10005W        W69299  22.243  41.996   4.670
10006W        W69300  19.647  14.754   1.858
10007W        W69301  18.776  40.935  12.975
10008W        W69302  32.611  29.153   2.317
10009W        W69303  43.464   6.428  14.814
10010W        W69304   5.703   6.396   1.409
10011W        W69305  25.621  43.860   2.754
10012W        W69306   5.888  14.099  14.304
10013W        W69307  16.614  13.347  14.791
10014W        W69308   2.859  22.072  11.993
10015W        W69309  32.094  29.502   3.735
10016W        W69310  40.909  25.666  14.360
10017W        W69311  18.291  24.613   3.145
10018W        W69312  30.418   3.308   3.173
10019W        W69313  39.908  18.262  13.375
10020W        W69314  25.063  11.687   0.382
10021W        W69315   1.944  36.883   4.268
10022W        W69316  18.109   5.799  13.312
10023W        W69317  34.597  14.634  10.494
10024W        W69318  10.809   6.753  14.322
10025W        W69319   1.360  37.350   0.828
10026W        W69320  27.514  40.957  10.979
10027W        W69321  24.544  32.570  14.769
10028W        W69322  21.220  42.941   4.244
10029W        W69323  17.631  44.488   4.237
10030W        W69324  35.391  20.095  14.475
10031W        W69325  39.402  10.766   9.521
10032W        W69326  24.996  22.215  13.032
10033W        W69327   0.880  24.023  12.539
10034W        W69328  14.819   5.743   2.324
10035W        W69329  14.678  18.162  13.851
10036W        W69330   8.663   1.763  12.043
10037W        W69331  42.398   5.694   2.238
10038W        W69332  28.471  24.998  12.983
10039W        W69333   7.737  28.502  10.966
10040W        W69334  15.590   3.235  13.443
10041W        W69335  18.642  36.936  13.002
10042W        W69336   5.875  34.051  14.343
10043W        W69337  12.265  36.907  14.330
10044W        W69338   0.865   8.207  11.408
10045W        W69339  19.571  18.574  10.893
10046W        W69340   4.336  29.593  13.421
10047W        W69341  43.880  33.579   4.782
10048W        W69342  18.573   8.801  12.914
10049W        W69343  44.871  24.567   0.307
10050W        W69344  42.419  21.689  12.993
10051W        W69345  11.366   3.271  13.381
10052W        W69346  40.957  12.236   3.364
10053W        W69347  17.202   4.773  12.551
10054W        W69348  19.557   5.373  14.901
10055W        W69349  32.919  22.604  12.371
10056W        W69350  13.659  33.591   0.932
10057W        W69351  17.258  25.180   4.165
10058W        W69352  38.850  29.478  12.995
10059W        W69353   1.973  40.866   3.701
10060W        W69354  17.697  25.523   3.365
10061W        W69355  22.578  25.072   2.717
10062W        W69356   6.787  15.214   3.652
10063W        W69357  34.878  34.593  14.358
10064W        W69358  37.930  35.948   4.187
10065W        W69359   2.252  30.963   3.336
10066W        W69360  21.202  40.313  11.129
10067W        W69361  16.603  31.424  12.549
10068W        W69362  16.296   1.968  13.859
10069W        W69363  27.680  12.207  14.334
10070W        W69364  12.212  20.180  12.986
10071W        W69365  22.653  19.220   2.349
10072W        W69366   3.780  26.696  11.597
10073W        W69367  16.632   6.782  13.972
10074W        W69368  34.069  32.565  10.436
10075W        W69369  19.084  21.734  14.318
10076W        W69370  43.884  24.586  14.899
10077W        W69371  44.285  41.010   3.297
10078W        W69372  42.367  18.078   4.774
10079W        W69373  30.656  21.222   1.730
10080W        W69374  16.082   6.694   2.789
10081W        W69375  18.113   5.933  13.977
10082W        W69376   2.239  44.949  11.417
10083W        W69377  34.879  21.689   0.250
10084W        W69378  17.105  36.987  11.940
10085W        W69379  44.882  37.529   0.481
10086W        W69380  24.002  23.505   1.257
10087W        W69381   0.866  28.987  10.991
10088W        W69382  17.781  38.388  11.439
10089W        W69383  20.182   0.780  13.510
10090W        W69384  31.497  26.460  10.453
10091W        W69385  28.493  42.514  14.342
10092W        W69386  35.600   2.922   2.387
10093W        W69387   0.355  14.821   0.371
10094W        W69388  11.338  39.405  13.349
10095W        W69389  39.821  44.807  14.017
10096W        W69390  20.142   3.924  12.060
10097W        W69391  10.719   4.277  10.963
10098W        W69392  17.285  26.976   3.383
10099W        W69393  15.319  38.519  10.899
10100W        W69394   7.852  14.297   2.372
10101W        W69395  12.622  33.876   4.178
10102W        W69396   0.328  40.359  10.943
10103W        W69397  30.465   7.197  14.971
10104W        W69398  32.923  27.978  12.412
10105W        W69399  32.623   3.767  14.314
10106W        W69400  30.621  23.512   1.878
10107W        W69401   8.400  14.223   3.276
10108W        W69402  25.708  34.986   1.394
10109W        W69403  40.397  41.860   2.700
10110W        W69404  27.460  10.788   0.895
10111W        W69405   0.389   2.771   0.341
10112W        W69406  38.855  10.339   0.788
10113W        W69407   5.744  26.051  11.909
10114W        W69408  31.526  12.309   1.777
10115W        W69409  21.594  24.714   4.666
10116W        W69410   0.348   3.396  12.068
10117W        W69411  26.613  24.684  11.077
10118W        W69412   5.302  16.753  12.052
10119W        W69413  33.418  32.609  12.405
10120W        W69414  43.455  41.995  12.867
10121W        W69415  29.169   9.369  10.975
10122W        W69416   3.877   0.895  11.997
10123W        W69417  27.629  27.530  11.102
10124W        W69418  26.174  22.220  14.281
10125W        W69419  37.372  23.659   1.338
10126W        W69420  41.376  17.744  12.918
10127W        W69421  18.641   7.848  13.469
10128W        W69422  15.614  28.055  14.434
10129W        W69423  40.824  43.960   2.755
10130W        W69424   3.757   4.429  12.078
10131W        W69425  25.213  27.017   2.760
10132W        W69426  22.206  40.408   2.891
10133W        W69427  15.131  37.980  14.881
10134W        W69428   3.283  32.001   2.807
10135W        W69429  27.653  12.723  11.084
10136W        W69430   1.312   3.429   2.882
10137W        W69431  39.549  32.599   4.313
10138W        W69432  15.229  39.326  12.419
10139W        W69433  23.226  28.529  14.992
10140W        W69434  28.440  32.046   2.419
10141W        W69435  13.717  39.542  14.976
10142W        W69436  34.117  10.222   0.293
10143W        W69437  18.573  34.111   4.238
10144W        W69438   6.182  22.097  13.832
10145W        W69439   4.718  29.157  10.614
10146W        W69440   6.207  32.002   2.900
10147W        W69441  14.596  17.234   1.246
10148W        W69442  26.510  37.578  14.971
10149W        W69443   3.898  19.740   2.861
10150W        W69444  31.913  16.267  13.374
10151W        W69445  28.626  40.504  14.376
10152W        W69446  44.005  10.775   4.127
10153W        W69447  18.782  13.618  11.073
10154W        W69448  16.106  17.579   2.737
10155W        W69449  18.238  42.959   0.743
10156W        W69450  10.341  43.015  12.425
10157W        W69451  28.545  32.420   3.726
10158W        W69452  42.787  37.035  14.011
10159W        W69453  22.578  39.412  10.975
10160W        W69454   9.820  44.963  13.409
10161W        W69455  28.681   5.906   0.924
10162W        W69456  41.014   9.780  12.089
10163W        W69457   6.900  34.459  13.026
10164W        W69458   7.202  23.538  11.505
10165W        W69459  44.990  20.161  11.496
10166W        W69460  36.388  11.152   4.681
10167W        W69461  39.358  43.297  14.895
10168W        W69462  34.864  34.546  12.066
10169W        W69463  38.043  29.539  12.932
10170W        W69464  13.192  24.492  12.520
10171W        W69465  28.120  29.615   0.830
10172W        W69466   7.694   7.797   1.440
10173W        W69467   5.734  43.933   0.833
10174W        W69468  40.030   6.361  12.358
10175W        W69469  25.518  28.609  10.598
10176W        W69470  20.116   0.812  12.880
10177W        W69471  17.120  34.969   3.194
10178W        W69472  40.382  22.667   5.190
10179W        W69473  10.142  25.167   2.250
10180W        W69474   8.806  22.250  12.993
10181W        W69475  44.323  11.259  11.086
10182W        W69476  26.202  32.433  14.022
10183W        W69477  14.182   1.815  10.071
10184W        W69478   9.857  17.582   0.287
10185W        W69479  37.922  13.605   1.287
10186W        W69480   9.149  44.941  12.006
10187W        W69481  17.234  38.500  12.995
10188W        W69482  21.606  28.676   1.745
10189W        W69483  32.474  11.174   0.402
10190W        W69484  29.031  14.694  10.630
10191W        W69485  14.316  28.983   3.735
10192W        W69486  23.726   8.678   3.300
10193W        W69487  31.530   2.427  13.515
10194W        W69488  41.033  33.023   4.685
10195W        W69489  36.574  23.215  11.032
10196W        W69490  20.211   5.779   3.287
10197W        W69491  35.555  39.323   1.781
10198W        W69492  44.488  29.005  13.953
10199W        W69493  40.515   9.252   2.762
10200W        W69494  23.063  35.020  10.421
10201W        W69495  37.513  43.843   3.701
10202W        W69496   8.173  24.164  13.037
10203W        W69497  12.312  25.650  14.907
10204W        W69498  37.459  13.715  13.350
10205W        W69499  22.187  15.263  14.845
10206W        W69500  42.412   2.315   0.877
10207W        W69501   7.819  32.515  13.998
10208W        W69502  15.593  43.386  14.844
10209W        W69503  25.614  17.146  12.444
10210W        W69504  18.637   6.687   0.415
10211W        W69505  41.028  38.964  10.570
10212W        W69506   8.241  24.557  10.969
10213W        W69507  15.710  23.126  11.497
10214W        W69508   2.764  31.977   0.470
10215W        W69509   7.354  39.847  11.082
10216W        W69510   3.721  15.624  13.869
10217W        W69511  39.353   4.256  10.539
10218W        W69512   4.301   3.254  14.358
10219W        W69513   5.716  30.573   1.366
10220W        W69514   3.290  30.439  10.909
10221W        W69515  14.676   1.354  11.472
10222W        W69516  43.285   6.315  14.498
10223W        W69517  26.661  24.621   2.832
10224W        W69518  35.055  26.675  11.471
10225W        W69519  37.042   6.791  10.921
10226W        W69520  40.918  25.678   0.912
10227W        W69521  17.162  37.368   3.178
10228W        W69522  27.944  18.188   0.749
10229W        W69523  13.647   7.770  13.540
10230W        W69524  28.539   3.219  11.537
10231W        W69525  29.480  27.980  12.951
10232W        W69526  17.099   9.215   0.273
10233W        W69527  39.845  42.858  12.833
10234W        W69528  29.538   1.331   1.731
10235W        W69529  10.676  19.149  11.575
10236W        W69530  23.056  35.966  14.968
10237W        W69531  17.595  22.701  10.587
10238W        W69532  16.570  36.892   3.633
10239W        W69533  28.531  13.738  14.445
10240W        W69534   8.736  43.802   3.669
10241W        W69535  22.175  12.615   2.717
10242W        W69536  12.296  37.558  11.975
10243W        W69537  41.826  25.658  12.913
10244W        W69538   6.404  24.225   0.958
10245W        W69539  30.028  12.248  13.388
10246W        W69540  33.080  21.523   1.715
10247W        W69541  18.727  26.007   2.209
10248W        W69542   7.667  40.495  10.558
10249W        W69543   6.898  18.762   3.185
10250W        W69544  27.172  32.580   3.225
10251W        W69545  25.106  24.556   4.167
10252W        W69546  15.161  11.662  14.303
10253W        W69547  28.641   4.404   1.342
10254W        W69548  34.099  16.303  12.055
10255W        W69549   5.808   6.424  11.451
10256W        W69550  41.431  34.960  13.395
10257W        W69551  18.176   1.898   2.707
10258W        W69552  13.774   9.150  12.079
10259W        W69553  30.020  17.165   2.270
10260W        W69554   6.318  16.126   3.824
10261W        W69555  15.177  12.642   0.258
10262W        W69556  31.589   9.362   1.790
10263W        W69557  19.655  21.566   3.852
10264W        W69558  43.940   8.379  12.080
10265W        W69559  29.665  24.650  14.845
10266W        W69560  10.821   6.855   1.884
10267W        W69561  22.208  22.719   4.668
10268W        W69562  33.951  39.510   4.302
10269W        W69563  11.745  26.110   1.723
10270W        W69564   2.303  22.128  14.480
10271W        W69565  40.336  29.601  14.882
10272W        W69566  37.874  39.389  11.004
10273W        W69567  11.724   1.964  12.908
10274W        W69568  22.559  44.998   4.212
10275W        W69569  37.984  29.653   1.344
10276W        W69570  36.429   1.363   4.603
10277W        W69571   4.292  30.518  10.901
10278W        W69572  27.034   0.317   4.318
10279W        W69573  32.013  22.224  11.078
10280W        W69574  16.104  42.955   1.434
10281W        W69575   1.339  29.164   0.731
10282W        W69576  42.375   2.287  14.405
10283W        W69577  17.748  23.701   3.310
10284W        W69578  24.578  25.648   2.853
10285W        W69579  16.181  18.568  11.857
10286W        W69580  23.120  30.049   2.219
10287W        W69581  23.668   6.869   5.676
10288W        W69582  27.969  17.670  12.973
10289W        W69583   3.415   5.763   2.783
10290W        W69584  18.669  42.943   2.772
10291W        W69585  12.248  43.453   1.785
10292W        W69586  31.445   2.867  11.075
10293W        W69587  13.325  11.771   5.727
10294W        W69588  40.858  32.439   2.252
10295W        W69589  12.192  18.566   4.827
10296W        W69590  41.824  44.465  13.051
10297W        W69591  43.487  30.648  14.487
10298W        W69592  30.555  10.836   0.451
10299W        W69593  36.466  30.103  12.356
10300W        W69594  44.300  16.804   2.318
10301W        W69595  26.601  16.157  14.510
10302W        W69596  23.550  21.573  13.955
10303W        W69597   1.747   7.413  11.105
10304W        W69598  23.660  42.007  14.486
10305W        W69599  42.337  30.158   0.318
10306W        W69600  39.050  17.157   1.250
10307W        W69601  18.566  40.416   4.728
10308W        W69602  42.958  10.876  11.502
10309W        W69603   8.858   5.272  13.540
10310W        W69604   2.761  22.104   2.744
10311W        W69605  22.014  33.918   3.219
10312W        W69606  44.392  44.304  10.631
10313W        W69607  31.080  15.689   1.737
10314W        W69608  13.341  16.585  14.383
10315W        W69609  17.757  41.815   1.902
10316W        W69610   5.921  20.758   2.203
10317W        W69611   8.394   7.230  12.482
10318W        W69612   1.383  36.543   2.731
10319W        W69613  38.555  15.303   0.906
10320W        W69614   6.856  18.691   5.634
10321W        W69615  18.227   2.418   1.434
10322W        W69616  44.337  35.481  13.879
10323W        W69617   1.812  17.184  13.055
10324W        W69618  10.739  17.174   4.834
10325W        W69619  35.110  14.779  14.777
10326W        W69620  41.472  37.554  10.926
10327W        W69621  41.911  10.160   0.789
10328W        W69622  40.965  23.559  12.499
10329W        W69623  42.511  39.945  11.980
10330W        W69624   2.758  34.468   2.851
10331W        W69625  21.035  43.959   3.372
10332W        W69626  13.622  21.228   4.774
10333W        W69627  13.738   6.377  14.814
10334W        W69628  42.985  13.195  13.988
10335W        W69629  43.985  13.151  12.377
10336W        W69630  27.677  27.458  13.886
10337W        W69631  14.266   2.265   2.666
10338W        W69632  17.752  10.236  11.102
10339W        W69633  41.358  22.053  10.976
10340W        W69634  22.513  23.642  11.402
10341W        W69635  36.032  44.975  10.593
10342W        W69636  30.030  22.185  12.865
10343W        W69637   2.812  34.405   2.405
10344W        W69638  41.918  30.443   0.905
10345W        W69639  20.718  13.148  13.046
10346W        W69640  39.899  43.016   4.157
10347W        W69641  31.584  31.043   4.237
10348W        W69642   3.763   0.408   2.285
10349W        W69643   7.768   3.908  14.359
10350W        W69644   4.908  35.923   5.276
10351W        W69645  33.552   1.745   1.441
10352W        W69646  40.003  32.546   3.727
10353W        W69647   1.798  11.275   4.671
10354W        W69648  38.929  15.166  10.429
10355W        W69649   8.675  14.678   0.290
10356W        W69650  39.910  29.489   2.840
10357W        W69651   7.705  36.020   2.232
10358W        W69652  18.672  39.529   2.805
10359W        W69653  22.653  30.020   3.341
10360W        W69654  24.598  43.402  12.497
10361W        W69655   2.434  24.101  12.454
10362W        W69656  38.405  12.677   1.822
10363W        W69657  38.062  25.653   1.764
10364W        W69658  26.599   2.344  12.535
10365W        W69659  44.806  11.268  10.988
10366W        W69660  38.976  16.316   0.270
10367W        W69661   3.733   5.288   0.853
10368W        W69662   6.813  21.209   3.700
10369W        W69663  43.871  39.025   1.898
10370W        W69664  33.526   5.797  12.032
10371W        W69665  29.957  21.188  10.989
10372W        W69666   2.870   3.264   4.625
10373W        W69667  27.113  10.255   1.292
10374W        W69668  18.245  11.221   4.608
10375W        W69669  36.459  24.029  11.433
10376W        W69670  22.693  21.741  10.548
10377W        W69671  16.813  16.308  11.376
10378W        W69672  41.464  28.985  14.919
10379W        W69673  44.931  30.563  14.813
10380W        W69674  23.054  28.073   1.299
10381W        W69675   6.698  29.465  13.366
10382W        W69676  29.472  43.840   4.313
10383W        W69677  39.061  42.926   4.224
10384W        W69678  37.424  23.609  11.608
10385W        W69679  37.524  32.073  11.954
10386W        W69680  38.046   2.802  13.846
10387W        W69681  11.769  19.118   2.407
10388W        W69682  25.194  19.696  11.444
10389W        W69683  41.360  18.765   1.224
10390W        W69684   4.906  14.721   0.385
10391W        W69685   7.192   5.205   1.838
10392W        W69686   0.986  33.021   3.689
10393W        W69687   0.795  43.001   1.373
10394W        W69688   3.391  37.579  11.480
10395W        W69689  36.848  43.476   2.773
10396W        W69690  41.013   6.424   2.250
10397W        W69691  28.670  39.955   2.863
10398W        W69692  37.358  20.225  11.877
10399W        W69693   9.812  40.404  12.363
10400W        W69694   7.699  11.807   9.992
10401W        W69695  24.686  14.264   1.716
10402W        W69696  26.091  28.985  13.899
10403W        W69697  20.111  24.115  11.900
10404W        W69698  10.736  39.874  13.933
10405W        W69699  18.782  10.353   1.772
10406W        W69700   3.804  39.959   4.312
10407W        W69701  31.080  31.535   3.792
10408W        W69702  24.021  34.961  11.010
10409W        W69703  44.977   0.912   1.895
10410W        W69704  32.086   5.690  14.927
10411W        W69705  15.595  29.475   4.301
10412W        W69706  35.046  17.634  14.906
10413W        W69707  19.173  12.162  13.804
10414W        W69708   7.750   9.154   3.187
10415W        W69709  36.497  16.797   4.797
10416W        W69710  24.705   6.796   2.240
10417W        W69711  12.284   1.792  14.931
10418W        W69712  11.762  31.448  14.433
10419W        W69713  44.970  31.439  14.993
10420W        W69714  30.059  18.273   4.248
10421W        W69715  41.794  32.928   0.810
10422W        W69716  20.222   3.943   3.305
10423W        W69717  27.068   0.480  10.914
10424W        W69718   6.327  28.155   0.360
10425W        W69719  43.287  44.887  14.418
10426W        W69720  35.870  17.752  12.528
10427W        W69721   6.852   3.273   2.715
10428W        W69722  42.998  37.016   0.897
10429W        W69723  23.229  22.060  11.101
10430W        W69724  17.240  10.858   3.317
10431W        W69725  16.218  10.659  11.949
10432W        W69726  38.488  16.183  14.950
10433W        W69727   7.206  29.050   4.201
10434W        W69728   2.894  42.950   2.384
10435W        W69729   7.358  25.009  12.886
10436W        W69730  38.833  31.435  13.317
10437W        W69731  30.650  20.193  11.960
10438W        W69732   7.294  40.333   4.654
10439W        W69733  44.487  10.824  12.506
10440W        W69734  26.072  12.334   1.314
10441W        W69735  33.419  14.786   0.897
10442W        W69736   6.774  13.136  11.375
10443W        W69737   1.856  33.096  12.939
10444W        W69738  34.456   5.347  10.019
10445W        W69739  35.026  21.062   2.708
10446W        W69740  33.118  35.866  13.460
10447W        W69741  41.991  21.637   3.349
10448W        W69742  22.090   7.354  13.441
10449W        W69743   3.290  40.981   0.338
10450W        W69744   5.358  22.177   9.928
10451W        W69745  42.401  12.807  13.039
10452W        W69746  23.993  38.883  10.970
10453W        W69747  42.471   8.356   4.321
10454W        W69748   4.820  17.258  12.064
10455W        W69749  26.588   5.754  14.827
10456W        W69750   7.367  39.049  13.459
10457W        W69751  32.013  31.545   3.384
10458W        W69752  13.225  23.168  10.529
10459W        W69753  32.505  10.342   3.238
10460W        W69754  32.436  25.674   1.450
10461W        W69755  34.021  28.083   3.641
10462W        W69756  41.348  31.958  12.898
10463W        W69757  28.138  28.969  11.055
10464W        W69758  15.747  21.193   2.328
10465W        W69759   4.329   9.678  12.351
10466W        W69760  28.527  31.074   0.899
10467W        W69761  38.902  41.905  10.904
10468W        W69762   5.437  17.557  12.827
10469W        W69763  37.982  41.305  12.983
10470W        W69764  41.967  28.444   2.204
10471W        W69765  42.387   9.793  12.940
10472W        W69766  22.746  41.967  10.626
10473W        W69767  29.517  40.404   1.858
10474W        W69768  12.663  16.275  13.450
10475W        W69769  12.810  24.634   2.215
10476W        W69770  31.104   2.915  11.947
10477W        W69771   8.364  41.522   3.238
10478W        W69772   4.397  23.630  14.429
10479W        W69773  28.495  22.608  13.864
10480W        W69774  14.723  31.527   0.944
10481W        W69775  19.180  26.510  12.469
10482W        W69776   2.367   8.729  14.026
10483W        W69777   7.294  23.585  14.822
10484W        W69778  12.333  14.291   0.373
10485W        W69779  38.024   3.749  10.896
10486W        W69780  20.597  11.634   0.749
10487W        W69781  29.084  38.433   0.925
10488W        W69782  33.041  23.587  12.869
10489W        W69783  33.984  15.223   3.298
10490W        W69784  14.205  34.432  13.843
10491W        W69785  14.809  19.117   3.747
10492W        W69786   1.828  28.053  11.485
10493W        W69787  32.574  35.932  11.043
10494W        W69788  16.285  35.387  11.876
10495W        W69789  19.620  33.459   2.375
10496W        W69790  43.789  32.082  13.047
10497W        W69791   6.734   7.799  12.909
10498W        W69792  40.950   9.219   3.827
10499W        W69793  24.132  30.611  10.142
10500W        W69794  13.829  25.572   0.963
10501W        W69795  33.475  40.358  13.480
10502W        W69796  35.376  15.138  12.341
10503W        W69797  31.489  27.525   1.892
10504W        W69798  31.042  39.000  12.871
10505W        W69799  28.995   0.265   1.329
10506W        W69800  43.950  39.344  12.526
10507W        W69801   9.834  12.831   1.429
10508W        W69802   1.894  15.142   2.383
10509W        W69803   6.392  11.819  10.074
10510W        W69804  21.750   0.891  14.408
10511W        W69805   5.384  16.657   4.656
10512W        W69806  37.472  17.098  10.556
10513W        W69807   9.174   2.401   3.339
10514W        W69808   3.282  12.203   3.193
10515W        W69809   9.248  35.910   9.920
10516W        W69810  35.524  13.237  11.410
10517W        W69811  23.522  13.158   2.843
10518W        W69812  28.441  35.401   4.118
10519W        W69813  38.508   1.795   3.156
10520W        W69814   1.395  22.592  10.971
10521W        W69815  20.168  40.352   2.254
10522W        W69816   0.255  14.103   3.805
10523W        W69817  42.776  25.068   2.823
10524W        W69818   3.870  24.591  14.433
10525W        W69819  34.013   5.217   0.366
10526W        W69820   8.236  12.744   1.383
10527W        W69821  40.509  40.992   0.290
10528W        W69822  32.065  42.332   2.229
10529W        W69823  37.413  32.096   1.364
10530W        W69824   2.436  21.528   3.174
10531W        W69825  12.686  32.454  13.543
10532W        W69826   6.759  26.168  12.092
10533W        W69827  36.579   4.247   0.427
10534W        W69828  14.236  39.942   0.452
10535W        W69829  10.728  20.083   1.825
10536W        W69830  14.716  16.631  11.043
10537W        W69831  40.428  15.139  13.529
10538W        W69832  17.216  25.201   1.441
10539W        W69833  41.472   7.352   1.366
10540W        W69834  40.991   6.240  11.429
10541W        W69835  18.685  36.066  10.417
10542W        W69836  36.976  28.046  12.546
10543W        W69837   6.301  19.570  14.432
10544W        W69838   4.236  18.643  14.856
10545W        W69839   3.458   0.270  14.810
10546W        W69840  30.574  40.474   2.708
10547W        W69841  34.520  11.843  14.882
10548W        W69842  29.601  15.659  12.055
10549W        W69843  12.153  28.457   2.306
10550W        W69844   8.800  41.872   2.868
10551W        W69845  39.447  27.052  10.957
10552W        W69846  12.129  44.267   4.827
10553W        W69847  34.889   8.182   0.859
10554W        W69848  28.475  16.596   1.413
10555W        W69849  44.269  37.889  11.867
10556W        W69850  17.160   9.658  10.894
10557W        W69851   5.716   7.180   1.770
10558W        W69852  26.015  37.018   5.317
10559W        W69853  28.662  18.192   1.258
10560W        W69854   5.863  23.012   0.887
10561W        W69855  17.213  44.968   2.843
10562W        W69856   2.771   3.412  11.582
10563W        W69857  33.990  42.432  13.825
10564W        W69858  42.494  11.229   2.694
10565W        W69859  40.306  23.187  10.532
10566W        W69860  10.688  24.088   4.241
10567W        W69861  41.317  42.841   2.328
10568W        W69862  37.849  27.626  10.613
10569W        W69863   5.820  20.181   1.323
10570W        W69864   3.942   6.295   0.748
10571W        W69865  33.568  31.123   0.774
10572W        W69866  29.970  27.683   2.226
10573W        W69867  24.984  31.488   2.827
10574W        W69868  44.332  41.302   1.222
10575W        W69869  10.219   3.347   1.909
10576W        W69870  25.591  25.525  13.010
10577W        W69871  17.074   2.756   3.737
10578W        W69872  30.454  32.985   4.659
10579W        W69873  29.058  35.074   3.739
10580W        W69874  43.968  15.303   3.234
10581W        W69875  21.060  21.108   2.280
10582W        W69876  18.706  34.888   0.861
10583W        W69877   6.834  44.312  11.876
10584W        W69878  28.937  44.498   0.328
10585W        W69879  28.576  43.992   0.954
10586W        W69880  16.689  38.076   1.306
10587W        W69881  37.577  37.578  12.377
10588W        W69882  33.023  26.674  12.489
10589W        W69883   1.362  14.096  10.488
10590W        W69884  39.868   5.799  13.053
10591W        W69885  15.146  24.723   1.262
10592W        W69886  26.157  31.975  12.339
10593W        W69887  15.244  14.628   3.703
10594W        W69888  19.537  36.003  13.482
10595W        W69889  19.223  33.981   2.250
10596W        W69890  35.015  31.539   4.792
10597W        W69891  41.529  20.594  13.329
10598W        W69892  29.077  37.833   3.830
10599W        W69893  36.033   7.877  13.362
10600W        W69894  19.193  20.069  12.427
10601W        W69895   5.782   9.331   1.862
10602W        W69896   9.255   0.849  13.363
10603W        W69897  31.544  28.078  13.350
10604W        W69898  37.576   2.270   3.750
10605W        W69899  16.720  24.039   4.727
10606W        W69900  12.847  14.305   4.729
10607W        W69901  21.050  17.264   3.722
10608W        W69902  14.095   8.838  13.791
10609W        W69903  17.659  27.587  11.500
10610W        W69904  11.251  13.828   1.698
10611W        W69905  41.518  15.604   3.656
10612W        W69906  23.575   6.677   0.891
10613W        W69907  15.305  39.987  11.086
10614W        W69908   5.225  29.661   0.429
10615W        W69909  42.900   3.725  11.994
10616W        W69910  28.074  34.517   1.406
10617W        W69911  15.655  11.210   1.762
10618W        W69912  24.630  18.716  12.911
10619W        W69913   4.259  18.756   0.424
10620W        W69914  15.824  32.137   4.305
10621W        W69915  25.164  24.510  13.446
10622W        W69916  42.823  40.914  14.010
10623W        W69917  18.282  32.098   2.235
10624W        W69918   7.816  20.227  12.076
10625W        W69919  32.919   7.704   9.977
10626W        W69920  29.047  32.501   0.425
10627W        W69921  21.597  11.766   3.690
10628W        W69922  21.517  43.859  10.535
10629W        W69923  28.985   6.379   2.876
10630W        W69924  14.612  29.150   0.277
10631W        W69925  41.357  37.087  12.408
10632W        W69926   7.230  21.177  12.054
10633W        W69927  42.282  23.685  13.317
10634W        W69928  25.977  34.405  12.996
10635W        W69929  23.091  38.542   3.329
10636W        W69930  13.325   6.700  11.950
10637W        W69931  42.945  39.839   4.289
10638W        W69932  35.102  33.432   4.746
10639W        W69933   0.860  23.113   1.810
10640W        W69934  20.119  29.499   0.318
10641W        W69935  41.873  39.048   4.301
10642W        W69936  20.739   8.701  11.033
10643W        W69937   2.252  39.388  13.509
10644W        W69938   6.289  30.002  13.439
10645W        W69939  13.836   9.222  11.534
10646W        W69940   2.231  44.391  13.364
10647W        W69941  20.681  23.646  13.315
10648W        W69942  36.906  22.687  11.895
10649W        W69943  39.929  18.706  11.982
10650W        W69944  11.322  12.170   2.208
10651W        W69945  43.328   0.843  10.590
10652W        W69946  33.512  42.785   1.215
10653W        W69947  25.543  36.095  10.515
10654W        W69948  20.607   5.929  10.447
10655W        W69949  32.050  44.007  14.821
10656W        W69950  36.848  28.998   1.834
10657W        W69951  19.610  36.966  13.929
10658W        W69952  25.566  39.037   4.160
10659W        W69953  37.460   9.674   3.634
10660W        W69954  30.583  22.037  11.571
10661W        W69955   8.757  42.419   1.413
10662W        W69956  41.962  21.100  10.526
10663W        W69957   6.364  44.768   1.356
10664W        W69958  31.098  41.877  11.124
10665W        W69959   8.814  33.479  12.542
10666W        W69960   1.959  40.854  12.366
10667W        W69961   3.732   7.184   4.780
10668W        W69962  19.145  26.571   3.251
10669W        W69963   0.404  27.968   1.354
10670W        W69964  30.475  27.617   0.257
10671W        W69965  43.974  29.098  12.443
10672W        W69966  11.789  32.596  14.026
10673W        W69967  17.273  33.420  13.407
10674W        W69968  26.569  10.867   1.935
10675W        W69969   2.249  29.459   1.840
10676W        W69970  44.295  16.229   5.306
10677W        W69971   9.834  19.674  10.914
10678W        W69972  30.566   1.321  10.505
10679W        W69973   7.755  22.024  10.581
10680W        W69974  39.492   6.344  12.477
10681W        W69975  12.314   3.870   4.298
10682W        W69976   6.239  31.052   5.194
10683W        W69977  20.589  20.715  13.023
10684W        W69978  39.362  35.092   3.189
10685W        W69979   7.703  40.468   3.653
10686W        W69980  41.907  11.639   1.420
10687W        W69981  10.305   1.816   0.923
10688W        W69982   4.445  16.718  12.511
10689W        W69983  14.220  18.732  13.408
10690W        W69984   0.763   3.902   3.373
10691W        W69985   4.248  33.613  10.526
10692W        W69986  32.506  15.122   3.869
10693W        W69987  16.748  13.201   1.439
10694W        W69988  43.483  24.522  12.824
10695W        W69989  34.895  10.801  12.858
10696W        W69990   1.745  20.193  12.032
10697W        W69991   5.244   1.777   3.860
10698W        W69992  33.544  23.619   3.366
10699W        W69993  10.828  43.015   5.108
10700W        W69994   6.740  16.639   4.694
10701W        W69995  12.218  26.684   2.259
10702W        W69996  43.377  21.100   1.240
10703W        W69997   6.248   8.745   0.885
10704W        W69998  39.934  34.607  13.509
10705W        W69999  38.859  39.411  13.043
10706W        W70000  21.600   0.808   3.151
10707W        W70001  17.725   1.749   4.793
10708W        W70002  41.911  28.173   9.999
10709W        W70003  38.058  44.330  10.998
10710W        W70004  40.971  42.898   0.789
10711W        W70005  15.643  37.491   0.775
10712W        W70006   2.770  16.705  14.472
10713W        W70007  19.117   5.392  13.984
10714W        W70008   7.307  27.682   3.209
10715W        W70009  44.430   9.764   0.412
10716W        W70010   2.341  36.084   0.744
10717W        W70011  19.142  32.469  11.581
10718W        W70012  12.284  43.989  11.598
10719W        W70013  20.743  28.641   4.287
10720W        W70014  23.137   7.224   0.920
10721W        W70015   0.928  41.801   0.967
10722W        W70016  16.072  13.227  13.504
10723W        W70017  20.167  38.922   3.182
10724W        W70018   5.297   1.874  12.483
10725W        W70019  12.778  21.230   3.700
10726W        W70020   7.709  40.866  13.435
10727W        W70021  19.068  38.983  14.817
10728W        W70022  27.530  36.367  12.563
10729W        W70023   4.720  34.921  13.505
10730W        W70024  41.943  23.232  14.820
10731W        W70025  28.017   2.433  13.870
10732W        W70026  11.161  25.567   2.815
10733W        W70027  31.085   1.859   3.646
10734W        W70028  33.965  34.438   2.265
10735W        W70029  29.076  28.471   1.920
10736W        W70030  26.511   0.485  11.044
10737W        W70031  42.284  42.845   3.170
10738W        W70032  31.958   9.815  11.514
10739W        W70033  25.479  21.511   1.410
10740W        W70034   7.184  11.802   1.869
10741W        W70035  29.102   9.250  14.914
10742W        W70036  11.862  18.228   3.288
10743W        W70037   9.750  13.642  13.904
10744W        W70038  12.758  11.130  13.499
10745W        W70039   6.713   2.749   2.799
10746W        W70040  38.351  19.253   1.280
10747W        W70041  40.038   7.840   4.188
10748W        W70042  22.672  12.674  10.968
10749W        W70043  39.847   4.402   1.425
10750W        W70044  27.040  34.558   0.383
10751W        W70045  14.137  25.556  11.536
10752W        W70046  23.052  28.929  12.549
10753W        W70047  35.987  36.841   0.875
10754W        W70048  40.415  17.287   2.211
10755W        W70049  44.787  14.107  12.041
10756W        W70050  25.051   9.650   5.289
10757W        W70051  32.899   6.820   3.810
10758W        W70052  13.730  38.909   3.773
10759W        W70053  35.420  27.183   4.688
10760W        W70054  17.066   8.768  10.947
10761W        W70055  28.610  28.610   3.185
10762W        W70056   7.682  37.955  12.834
10763W        W70057  24.625  25.209   5.160
10764W        W70058   1.799   6.905   3.288
10765W        W70059  44.001  11.712   2.790
10766W        W70060  24.147  42.376  14.339
10767W        W70061   8.691  36.427  14.925
10768W        W70062  25.046   7.802  10.645
10769W        W70063  29.055   0.756  10.916
10770W        W70064  27.496  44.376   2.848
10771W        W70065  11.792  14.273   2.873
10772W        W70066  37.977  37.496  14.333
10773W        W70067  16.735  23.633   5.703
10774W        W70068  17.214  36.348   1.874
10775W        W70069  30.428  17.647  10.588
10776W        W70070  33.578  10.695  13.896
10777W        W70071  38.937  38.359   1.280
10778W        W70072  29.625  16.099   0.390
10779W        W70073   9.307   2.895  10.986
10780W        W70074  40.052  23.572  12.863
10781W        W70075   4.722  18.236   4.148
10782W        W70076  29.620  42.831   4.786
10783W        W70077  27.537  27.971  12.575
10784W        W70078  34.952   5.216  10.407
10785W        W70079  11.200  27.453   1.442
10786W        W70080  25.587  40.988  10.438
10787W        W70081   8.391  26.587   2.344
10788W        W70082  33.415  23.727  12.895
10789W        W70083  30.499  34.563   0.882
10790W        W70084   3.876  39.351   0.392
10791W        W70085  16.146  44.781  12.053
10792W        W70086  28.106   9.238   4.226
10793W        W70087  41.031  20.682   3.196
10794W        W70088  10.150  34.872  11.443
10795W        W70089  12.305   3.819   0.482
10796W        W70090  40.023  10.744   1.859
10797W        W70091  40.456  14.696  11.417
10798W        W70092  37.407  19.674   2.674
10799W        W70093  22.590  22.154  14.791
10800W        W70094  40.003  16.573   2.668
10801W        W70095  35.109  41.876   2.696
10802W        W70096  44.931  22.170   4.701
10803W        W70097  34.440  15.638   1.918
10804W        W70098  11.743  28.144   5.222
10805W        W70099  23.187  31.946  13.322
10806W        W70100  43.013   9.769   1.395
10807W        W70101  10.663  35.887   1.802
10808W        W70102  19.609   5.254  10.518
10809W        W70103  41.972  34.526  12.089
10810W        W70104   8.808  15.618  12.015
10811W        W70105  20.689  26.536   0.883
10812W        W70106  11.175  32.058  10.057
10813W        W70107  33.944  31.933   5.186
10814W        W70108  10.770   3.235  12.455
10815W        W70109  26.550  29.655  13.492
10816W        W70110  32.474   1.359  14.445
10817W        W70111  25.131  11.324  10.632
10818W        W70112  39.873  26.520  13.488
10819W        W70113  39.831  13.196   0.414
10820W        W70114  43.983  24.125  12.416
10821W        W70115  33.572  44.409   2.699
10822W        W70116  27.094   1.921   3.378
10823W        W70117   2.926  13.183  14.414
10824W        W70118   3.360  32.017   0.855
10825W        W70119  15.678  32.504  11.465
10826W        W70120   7.775   2.957   0.741
10827W        W70121  42.476   9.161   4.761
10828W        W70122   0.823   1.926   1.732
10829W        W70123  25.478  15.735   2.380
10830W        W70124  22.036   9.365  13.837
10831W        W70125   7.886  24.507   2.296
10832W        W70126  38.496  24.214  13.420
10833W        W70127   6.219   5.217  10.554
10834W        W70128   0.456   6.265  11.450
10835W        W70129  23.494  11.157  10.604
10836W        W70130  19.177  30.090   2.755
10837W        W70131  13.793   1.859  10.887
10838W        W70132  15.279  36.898  11.477
10839W        W70133  22.059   5.702   3.712
10840W        W70134  44.504  35.964  10.611
10841W        W70135  13.313  12.350  11.585
10842W        W70136  39.036  40.470   1.393
10843W        W70137  37.337  38.971   2.241
10844W        W70138  32.496  35.425   2.899
10845W        W70139  14.677   5.757   2.748
10846W        W70140  41.834  36.593  12.907
10847W        W70141  43.342  13.701  12.873
10848W        W70142  27.469  39.435   2.312
10849W        W70143  23.131  28.440   4.709
10850W        W70144  37.551   7.874   5.730
10851W        W70145  20.174  10.172  12.925
10852W        W70146   0.918   8.356   3.317
10853W        W70147  41.840  14.686   2.861
10854W        W70148  32.100  27.650   0.855
10855W        W70149  36.349  29.174   4.309
10856W        W70150  44.881  39.965   1.348
10857W        W70151  37.529  11.312   0.464
10858W        W70152  31.481  20.194  14.392
10859W        W70153  10.168  27.613   4.134
10860W        W70154   9.650  39.940  14.786
10861W        W70155   3.320  24.584  14.894
10862W        W70156  18.234  15.665  13.877
10863W        W70157   5.339  20.749  12.520
10864W        W70158   6.341  33.513  13.394
10865W        W70159  31.532  29.484  10.579
10866W        W70160  17.302  35.529   4.782
10867W        W70161   3.902  25.209  13.860
10868W        W70162   7.246   6.392  10.629
10869W        W70163  26.634  11.799   0.390
10870W        W70164  23.015   4.397   1.813
10871W        W70165  35.942   6.716  14.793
10872W        W70166  32.403  18.549  14.968
10873W        W70167  24.175  44.892  11.115
10874W        W70168  41.300   8.731  10.536
10875W        W70169  22.085   9.789   1.300
10876W        W70170  14.176   5.246   3.152
10877W        W70171  27.633  11.831  11.566
10878W        W70172  27.458  43.836   4.812
10879W        W70173  33.945  37.987  14.015
10880W        W70174  38.373  10.297  10.512
10881W        W70175  25.162  16.177  10.415
10882W        W70176  23.992  12.119  11.002
10883W        W70177  25.041  13.667  12.393
10884W        W70178   8.834  32.073  14.426
10885W        W70179  32.999   7.193   1.829
10886W        W70180  34.984  15.655   2.683
10887W        W70181  28.964  12.178  10.582
10888W        W70182  32.551   3.299   2.218
10889W        W70183  14.211  11.684  13.896
10890W        W70184  23.495  41.935  10.559
10891W        W70185   8.691  19.573   2.672
10892W        W70186  20.209  27.982  13.044
10893W        W70187  11.818  41.476   0.266
10894W        W70188  10.671  39.036  11.549
10895W        W70189  38.471   0.460   2.415
10896W        W70190  31.516  34.492   1.916
10897W        W70191   4.820  42.523   9.925
10898W        W70192  42.807  35.861  13.320
10899W        W70193  34.025  32.440   4.285
10900W        W70194  22.103  40.535   2.245
10901W        W70195  42.910  15.588   5.217
10902W        W70196  15.704  34.414   4.220
10903W        W70197  38.883  10.312   4.175
10904W        W70198  35.587  43.281  13.908
10905W        W70199  40.349   7.258  10.590
10906W        W70200   5.269  32.561  14.921
10907W        W70201  31.979  29.508  12.398
10908W        W70202  16.781  37.926  14.479
10909W        W70203   4.745  31.040   2.754
10910W        W70204  39.457  16.123   4.645
10911W        W70205  13.215  24.552   0.769
10912W        W70206   0.943  19.644  13.822
10913W        W70207  39.035  44.838   1.445
10914W        W70208   8.382  39.356   0.350
10915W        W70209  42.361  24.158  13.499
10916W        W70210  25.973  32.498   3.820
10917W        W70211   8.804  23.173   2.779
10918W        W70212  29.162   1.247  14.395
10919W        W70213  44.396  19.079  10.501
10920W        W70214  39.019  25.540  14.341
10921W        W70215  32.996  41.787   2.874
10922W        W70216  12.816  28.029  13.940
10923W        W70217  37.392   3.743   2.740
10924W        W70218  28.065  35.388  11.928
10925W        W70219  25.516  21.609   1.816
10926W        W70220  41.954  20.622  10.452
10927W        W70221  32.006   6.895   2.812
10928W        W70222  15.619  25.614  10.896
10929W        W70223  25.563  23.636  12.898
10930W        W70224  32.094   1.294  10.893
10931W        W70225  27.110  12.294   4.819
10932W        W70226  36.525  44.945   1.804
10933W        W70227   0.753  10.206   2.226
10934W        W70228  13.603  43.359  11.919
10935W        W70229  40.826   3.865  14.321
10936W        W70230  42.813   9.287   5.092
10937W        W70231  41.376  25.602   1.908
10938W        W70232  40.425  10.712   0.288
10939W        W70233  14.724  39.044  10.543
10940W        W70234   1.405  20.645   2.794
10941W        W70235   7.709  42.443   2.390
10942W        W70236  37.951  19.090  13.871
10943W        W70237  31.535  18.618  14.032
10944W        W70238  32.886   1.300   3.745
10945W        W70239  37.955  27.683   4.329
10946W        W70240  42.973  12.327  11.959
10947W        W70241   9.207  33.428  10.444
10948W        W70242  22.741  17.209   1.743
10949W        W70243  28.507   6.220  13.373
10950W        W70244  12.623  42.938  11.034
10951W        W70245  15.179  31.942   5.112
10952W        W70246   0.280  33.030  14.396
10953W        W70247  21.539  20.682   1.874
10954W        W70248   5.388  18.646   4.277
10955W        W70249  13.795   2.783  14.992
10956W        W70250  26.004  23.065   3.833
10957W        W70251  35.859   0.408   4.613
10958W        W70252  23.643  11.328   5.629
10959W        W70253  38.040  32.921   1.773
10960W        W70254  43.887  36.999  14.316
10961W        W70255  38.499  22.132   0.320
10962W        W70256  19.255  11.283   9.612
10963W        W70257  37.018   7.910  13.997
10964W        W70258  33.623   8.798   3.331
10965W        W70259  37.415  25.556   2.412
10966W        W70260  17.159  28.161  11.919
10967W        W70261  44.763  39.337  11.476
10968W        W70262  10.165  37.564  14.939
10969W        W70263  10.742  34.899  10.428
10970W        W70264  21.194  39.971  13.426
10971W        W70265  17.772  33.054  13.823
10972W        W70266  33.946  28.021  11.924
10973W        W70267  36.980  12.632  13.322
10974W        W70268  20.066  42.399  10.907
10975W        W70269  44.755  23.547   4.304
10976W        W70270  38.405  11.322   4.286
10977W        W70271  31.455  33.436  14.432
10978W        W70272   6.379   8.826  14.875
10979W        W70273  16.299  30.495  13.919
10980W        W70274   3.862   6.820  13.414
10981W        W70275  34.516  38.461   2.733
10982W        W70276  40.026  31.975   1.312
10983W        W70277  34.064  16.107  14.787
10984W        W70278   7.843  24.492   2.788
10985W        W70279  37.891   7.824   3.641
10986W        W70280  38.325  10.809   1.258
10987W        W70281  32.434   7.236   3.181
10988W        W70282   8.245  11.336  12.092
10989W        W70283   5.725  18.606   0.476
10990W        W70284  42.517  38.537  12.342
10991W        W70285  25.500  15.592   1.804
10992W        W70286  37.875  20.641   0.371
10993W        W70287   6.400  17.215  14.496
10994W        W70288  35.860  23.547  12.487
10995W        W70289   9.716  28.665  10.156
10996W        W70290  12.129  33.023   2.231
10997W        W70291   5.907   2.917   0.853
10998W        W70292   9.715  15.315   1.284
10999W        W70293  10.357  35.981  14.377
11000W        W70294  38.420  10.758   3.353
11001W        W70295  17.275  32.552  12.002
11002W        W70296  33.943  17.579  14.310
11003W        W70297  31.520  14.229   2.870
11004W        W70298  25.013  14.244   2.710
11005W        W70299  34.891  11.852   0.470
11006W        W70300  34.046  24.051   4.168
11007W        W70301   5.303  27.644  12.385
11008W        W70302  27.113   5.713   2.687
11009W        W70303  29.443  30.987   2.846
11010W        W70304  32.932  42.336  11.553
11011W        W70305  28.506  21.728  11.573
11012W        W70306  22.060   3.386   0.777
11013W        W70307  26.076  43.390   3.666
11014W        W70308  44.947  22.065   2.874
11015W        W70309  38.031   1.364   0.452
11016W        W70310  32.089  14.773  13.043
11017W        W70311   4.387  12.220  11.609
11018W        W70312  29.444  17.204  10.517
11019W        W70313   0.271  23.504  13.333
11020W        W70314  43.314  36.955  14.956
11021W        W70315   5.926  36.427   3.147
11022W        W70316  38.843  39.386  13.936
11023W        W70317  17.684   9.744  13.043
11024W        W70318  43.346   1.246   2.763
11025W        W70319   0.795   4.772   1.445
11026W        W70320  43.910  21.695  13.973
11027W        W70321  29.089  24.561  11.921
11028W        W70322  17.157  38.900   0.282
11029W        W70323  36.570  43.319  11.108
11030W        W70324  10.347   4.233  10.630
11031W        W70325  35.107  12.631  13.532
11032W        W70326  39.952   0.485  11.994
11033W        W70327  35.414  40.022  10.904
11034W        W70328  44.764  13.815   4.830
11035W        W70329  24.650  25.500  13.792
11036W        W70330  41.492  15.120  10.595
11037W        W70331  23.577   9.874  12.479
11038W        W70332   2.910  34.066  10.469
11039W        W70333   0.774  15.130   4.736
11040W        W70334  28.156  27.008   3.835
11041W        W70335  41.501   8.748   3.306
11042W        W70336  10.862  43.796  11.967
11043W        W70337  10.866  42.494   1.226
11044W        W70338  15.709  30.111  14.968
11045W        W70339  15.137  28.552   4.619
11046W        W70340  24.596  30.651   3.314
11047W        W70341   5.858   5.363  12.903
11048W        W70342  27.611  14.756   4.348
11049W        W70343  21.607   5.314  13.469
11050W        W70344  14.128   0.874  14.346
11051W        W70345  30.056   6.679  14.505
11052W        W70346  25.125  10.357   2.246
11053W        W70347  10.770   6.294   0.900
11054W        W70348  40.381  32.535  14.377
11055W        W70349  18.728  34.372   0.836
11056W        W70350  21.553  13.178  13.964
11057W        W70351  40.841  13.340   2.407
11058W        W70352  10.663   7.908  14.963
11059W        W70353  26.134  28.004   3.280
11060W        W70354   2.356  31.938   1.298
11061W        W70355  29.945   5.432  10.410
11062W        W70356  34.939   2.771  13.422
11063W        W70357   5.703  36.375  10.523
11064W        W70358  24.091  28.503   3.160
11065W        W70359   9.862   0.960  13.471
11066W        W70360  36.972  31.045   2.185
11067W        W70361   0.272  20.695   4.250
11068W        W70362  25.014  40.425  14.901
11069W        W70363  18.718  37.054  12.003
11070W        W70364  11.314  15.171  11.875
11071W        W70365   1.263   1.960  12.898
11072W        W70366   0.474  42.309  11.528
11073W        W70367  26.959  21.137  14.410
11074W        W70368  17.593   1.894   1.374
11075W        W70369   5.858   6.339   2.263
11076W        W70370  13.305  12.759   2.303
11077W        W70371  10.180  16.212  14.513
11078W        W70372  15.754  15.667   1.815
11079W        W70373   6.870  28.602   4.789
11080W        W70374  30.412  34.513  14.776
11081W        W70375  38.395  31.467  13.844
11082W        W70376  10.722  25.987  11.882
11083W        W70377  44.963  41.984  11.553
11084W        W70378  35.451   2.466  12.355
11085W        W70379  42.986  37.003  14.779
11086W        W70380  11.782  27.177   1.765
11087W        W70381  37.951  37.088  13.347
11088W        W70382  23.684  41.307   0.939
11089W        W70383  40.487   7.208   2.665
11090W        W70384  20.207  31.610  12.447
11091W        W70385  25.556  17.705   4.700
11092W        W70386  32.596   3.802  11.491
11093W        W70387  18.671  19.545   1.241
11094W        W70388  19.736  43.462   3.196
11095W        W70389  40.812   1.253   5.287
11096W        W70390   2.868  39.824  11.400
11097W        W70391   1.787  18.669   3.692
11098W        W70392  14.785  23.635   0.288
11099W        W70393   9.764  21.515   4.808
11100W        W70394  16.286  17.605  12.919
11101W        W70395   6.788  19.072   2.814
11102W        W70396  42.830  43.850  10.950
11103W        W70397  21.060  21.549  13.839
11104W        W70398  26.951  19.081   1.410
11105W        W70399  35.546  14.725   4.243
11106W        W70400   3.456  28.451  14.295
11107W        W70401  13.206  18.214  10.081
11108W        W70402  15.179  17.677   1.359
11109W        W70403  43.015  37.944  11.482
11110W        W70404  16.805  40.505  10.571
11111W        W70405  30.413  36.959   1.439
11112W        W70406  13.234  44.863   2.687
11113W        W70407   9.657   8.746  12.428
11114W        W70408  28.641  22.079  13.014
11115W        W70409  14.682  13.638   2.329
11116W        W70410  12.227  22.029  11.911
11117W        W70411  26.956  16.210   0.413
11118W        W70412  27.114  28.653  11.870
11119W        W70413  43.314   7.753   4.147
11120W        W70414  20.749   2.266  14.030
11121W        W70415  40.507   4.755   1.342
11122W        W70416  33.587  39.827   2.691
11123W        W70417   6.385  11.805   0.386
11124W        W70418   0.490  22.165   1.816
11125W        W70419   6.739  17.265   3.178
11126W        W70420   8.360  24.723   3.152
11127W        W70421  44.333  31.966   1.340
11128W        W70422   5.286  36.019   0.359
11129W        W70423  39.321   2.271  13.334
11130W        W70424   6.844   9.805   1.931
11131W        W70425   5.218  44.435   1.227
11132W        W70426  27.640  12.150   3.841
11133W        W70427   2.272  17.790  14.806
11134W        W70428  26.480  16.268  10.547
11135W        W70429  20.034  23.527   1.757
11136W        W70430   0.756  12.213  14.431
11137W        W70431  21.184  35.566  10.517
11138W        W70432  18.242  41.890  10.502
11139W        W70433  40.954  34.957  12.868
11140W        W70434  39.053  26.649   4.196
11141W        W70435  31.521  44.964   1.379
11142W        W70436  36.409  22.531  14.463
11143W        W70437  22.141  14.276  13.921
11144W        W70438  42.915   7.247   4.181
11145W        W70439   2.833   1.916   0.441
11146W        W70440  37.364  10.153  12.060
11147W        W70441  44.308  10.678   0.463
11148W        W70442  28.047   7.355   4.155
11149W        W70443  38.531  32.010   2.798
11150W        W70444  21.167   4.342  13.325
11151W        W70445   5.689  12.286   3.266
11152W        W70446  27.551   2.301   1.383
11153W        W70447  19.765  29.965   0.305
11154W        W70448  22.114  29.014  11.070
11155W        W70449  23.651  29.467  11.397
11156W        W70450  18.703   0.875  11.003
11157W        W70451   7.178  17.239  13.515
11158W        W70452  12.722  43.341  11.527
11159W        W70453   3.725  27.529   4.708
11160W        W70454  37.919  41.409  14.296
11161W        W70455  43.431  41.950   1.268
11162W        W70456  36.092  44.505  14.358
11163W        W70457  42.285  31.013  11.412
11164W        W70458   3.778   6.743   2.378
11165W        W70459   6.386  41.372   2.875
11166W        W70460  28.453  22.218   0.392
11167W        W70461   2.915  24.710  12.908
11168W        W70462  38.948  28.075   5.154
11169W        W70463  10.815  41.495   4.627
11170W        W70464   7.380  42.467  12.928
11171W        W70465  16.074   5.330  11.578
11172W        W70466   8.807  41.360   4.274
11173W        W70467   4.873   1.331   1.810
11174W        W70468   2.248  25.179   3.706
11175W        W70469  27.112  43.928   2.813
11176W        W70470  38.332  20.156   4.773
11177W        W70471  11.332   0.335   3.270
11178W        W70472  29.929  30.043   3.212
11179W        W70473  32.633  10.855   2.771
11180W        W70474  27.607  29.156  10.980
11181W        W70475  19.196  28.049  11.886
11182W        W70476  26.676  41.847  14.963
11183W        W70477  11.755  19.731   3.723
11184W        W70478  40.394  24.528  10.919
11185W        W70479  24.683   9.847   5.776
11186W        W70480   2.822   5.268   3.747
11187W        W70481   3.836   2.264   1.749
11188W        W70482  40.870  21.038  14.294
11189W        W70483  29.064   7.410   3.182
11190W        W70484   8.720   5.719  11.566
11191W        W70485  35.563  14.590   3.335
11192W        W70486   0.450  17.675  10.543
11193W        W70487   7.315  19.641  12.047
11194W        W70488  10.695  16.644   1.357
11195W        W70489  29.574  16.168  13.394
11196W        W70490   1.753  14.661   4.611
11197W        W70491   7.743  44.357   3.157
11198W        W70492  22.214  23.177   0.303
11199W        W70493  25.002  32.097  13.457
11200W        W70494   2.449  29.954   4.636
11201W        W70495  12.304   1.241   0.762
11202W        W70496  27.102  21.680   3.306
11203W        W70497   4.287  39.411  10.966
11204W        W70498  44.896  36.521   0.869
11205W        W70499  30.659  36.387  10.923
11206W        W70500  14.317  21.117   1.238
11207W        W70501  24.044  14.258  10.944
11208W        W70502  38.987  24.517  11.005
11209W        W70503  38.869  35.504   1.892
11210W        W70504  33.026  29.504  13.509
11211W        W70505  28.637  15.167   1.349
11212W        W70506  22.670   6.226   0.309
11213W        W70507  13.279   5.215  11.103
11214W        W70508  11.756   8.750  13.317
11215W        W70509  39.027  22.228  12.452
11216W        W70510   5.741  40.911  11.930
11217W        W70511  21.624  34.439  13.370
11218W        W70512  33.617  19.580  12.835
11219W        W70513   8.832  30.130   0.736
11220W        W70514  29.613  30.932  12.357
11221W        W70515  41.882   7.756  12.347
11222W        W70516  22.535  27.516  13.429
11223W        W70517  31.996  16.079   2.870
11224W        W70518  19.591  18.138  10.907
11225W        W70519  24.621  18.207  11.957
11226W        W70520  19.125   4.842   4.689
11227W        W70521  10.283  33.128  12.431
11228W        W70522  39.926  18.696  10.985
11229W        W70523  40.547  35.465   0.287
11230W        W70524  17.619   4.259   2.278
11231W        W70525  35.066  35.920   3.356
11232W        W70526  24.125  44.794  13.808
11233W        W70527  39.888  25.189  12.405
11234W        W70528  23.095  20.550  13.320
11235W        W70529  15.683  15.173   1.697
11236W        W70530  30.443  10.653  13.805
11237W        W70531  35.600  35.514   1.895
11238W        W70532  35.485  42.856   0.421
11239W        W70533  42.394   7.908  14.814
11240W        W70534  36.382  42.428  13.517
11241W        W70535  38.934  31.594  13.001
11242W        W70536  17.078   2.797  13.798
11243W        W70537  34.978  37.860  12.066
11244W        W70538  42.973  31.467   1.379
11245W        W70539  27.594   6.235  13.427
11246W        W70540  13.280   7.875   2.841
11247W        W70541  27.084  18.696  12.507
11248W        W70542  14.202   3.953   3.252
11249W        W70543   3.265  26.499   4.140
11250W        W70544  38.417  13.692  11.060
11251W        W70545   7.812  34.967   0.853
11252W        W70546  17.649  14.122   2.748
11253W        W70547  30.054   7.402   2.414
11254W        W70548   3.752  10.788  12.484
11255W        W70549  15.751   3.801  13.524
11256W        W70550  31.040  14.680  13.011
11257W        W70551  25.147  17.259  11.935
11258W        W70552  32.963   4.299  10.974
11259W        W70553  30.026  29.008  10.949
11260W        W70554  25.588   7.269   0.480
11261W        W70555  27.587   2.802   1.301
11262W        W70556  33.909  40.824  11.033
11263W        W70557   2.258  17.712  12.017
11264W        W70558  13.315  12.279   3.690
11265W        W70559  30.431  28.616   3.820
11266W        W70560  37.399  22.513   0.425
11267W        W70561  35.922  37.517  12.563
11268W        W70562  23.529  24.548   0.913
11269W        W70563   4.390  21.732  11.566
11270W        W70564   8.336  24.526   0.382
11271W        W70565  13.622   0.388   2.683
11272W        W70566  13.695   3.223  14.827
11273W        W70567  17.097  11.353  14.287
11274W        W70568  33.413  31.598  14.497
11275W        W70569  24.491  36.888   2.783
11276W        W70570  42.474   5.220   4.743
11277W        W70571  33.513  19.140   3.216
11278W        W70572  30.580  14.797   0.274
11279W        W70573  21.046  37.444  13.905
11280W        W70574   2.403  28.959  10.056
11281W        W70575  14.804  39.491   3.323
11282W        W70576  19.200  42.302   0.425
11283W        W70577  32.404  29.951   4.657
11284W        W70578  31.144  23.998  13.849
11285W        W70579  14.746  19.541  12.907
11286W        W70580   2.816  42.779   0.387
11287W        W70581   1.942  40.386   0.442
11288W        W70582  44.293  19.276   2.320
11289W        W70583  14.130  24.129   5.180
11290W        W70584   4.385   2.262  10.103
11291W        W70585  43.378  38.908   2.859
11292W        W70586  15.261   1.282  12.872
11293W        W70587  14.273  32.071   4.801
11294W        W70588   9.253  20.692   1.782
11295W        W70589  28.550   2.438   2.329
11296W        W70590   2.438   3.954   9.516
11297W        W70591  37.036  35.502   5.576
11298W        W70592  41.831  15.104  11.024
11299W        W70593  29.485  38.881   2.213
11300W        W70594  21.705   7.215   2.745
11301W        W70595  20.156  14.267  10.563
11302W        W70596   6.234   4.945  12.864
11303W        W70597   3.905  34.865  12.521
11304W        W70598   2.733  40.971  12.403
11305W        W70599  34.401  32.994  14.315
11306W        W70600  39.497   4.343  11.385
11307W        W70601  21.058   1.274   2.201
11308W        W70602   7.805  27.177   1.864
11309W        W70603  26.952  28.166   9.964
11310W        W70604  44.313  23.728  10.597
11311W        W70605  11.644  13.730  13.797
11312W        W70606  38.465  10.254   0.476
11313W        W70607  36.468  31.430   0.917
11314W        W70608  18.768  28.442   4.680
11315W        W70609   4.323   4.788  13.934
11316W        W70610  33.061  13.221  11.857
11317W        W70611  11.332  39.894  13.049
11318W        W70612  36.989  28.546   3.159
11319W        W70613  18.548   8.379   1.343
11320W        W70614  44.772  10.724   4.628
11321W        W70615  37.847  35.966  13.795
11322W        W70616  27.538  12.824   4.611
11323W        W70617  23.551  42.930  12.497
11324W        W70618  10.169  24.228  11.593
11325W        W70619   6.686  19.199   0.424
11326W        W70620   0.325  15.094   4.647
11327W        W70621  23.196   2.735  14.444
11328W        W70622  33.445   4.703   5.284
11329W        W70623  39.531  12.289   3.834
11330W        W70624  37.969  15.269   1.854
11331W        W70625  33.428   1.297  13.457
11332W        W70626  38.943  40.344  11.481
11333W        W70627  14.135  14.200   1.867
11334W        W70628  12.783  15.665  11.990
11335W        W70629  32.997   5.334   3.655
11336W        W70630  18.653   6.235   3.329
11337W        W70631  11.674   0.411  13.045
11338W        W70632  43.914   8.178   3.727
11339W        W70633  23.508   5.389   2.731
11340W        W70634  16.687  22.118  12.375
11341W        W70635  16.643  24.049   2.726
11342W        W70636  39.553  30.964   3.734
11343W        W70637  42.826   5.828  13.042
11344W        W70638   2.423  14.834  10.492
11345W        W70639   2.408  30.497  10.470
11346W        W70640  40.499   4.327   0.417
11347W        W70641   1.948  41.986  14.486
11348W        W70642  33.118  43.342   4.289
11349W        W70643  25.556   1.915  14.391
11350W        W70644  30.466  13.707   1.770
11351W        W70645  21.102  44.459   3.274
11352W        W70646   3.870  40.988  12.492
11353W        W70647  17.188  28.574   2.754
11354W        W70648   7.768  43.288  11.918
11355W        W70649  24.017  44.848   2.311
11356W        W70650  17.579  44.419   1.732
11357W        W70651  15.772   7.273   1.744
11358W        W70652  44.925  31.973  14.888
11359W        W70653   1.858  41.831   2.690
11360W        W70654  23.186  30.524  12.040
11361W        W70655  29.507   6.337   3.858
11362W        W70656   2.953  14.119  11.909
11363W        W70657  42.977  19.601   1.284
11364W        W70658   9.194  38.819   4.200
11365W        W70659  37.383  44.837   1.245
11366W        W70660  25.123   7.184  11.479
11367W        W70661  10.152  37.927   2.203
11368W        W70662  28.470  19.777  13.411
11369W        W70663  24.989  39.353   0.779
11370W        W70664  21.553  43.349   3.863
11371W        W70665  18.103  22.169   0.962
11372W        W70666  16.701  25.204  10.957
11373W        W70667  29.000  13.241  12.501
11374W        W70668  14.818  22.151   0.411
11375W        W70669  38.006  23.717  11.871
11376W        W70670  27.554  29.593   1.379
11377W        W70671  22.711  17.094  14.961
11378W        W70672  20.744  34.565   4.805
11379W        W70673  28.136  12.625  10.499
11380W        W70674  35.063  33.506  10.988
11381W        W70675   8.786  35.450  11.542
11382W        W70676  30.465  26.989  12.351
11383W        W70677   5.337  43.302   0.937
11384W        W70678  33.608  38.438  14.822
11385W        W70679  15.673  11.809  13.479
11386W        W70680  15.757  33.544  14.764
11387W        W70681  28.474  12.188  13.498
11388W        W70682  23.988  43.360  11.989
11389W        W70683   2.726  37.079  12.911
11390W        W70684  20.604  18.555  12.396
11391W        W70685  22.680  42.818   0.379
11392W        W70686  11.636  25.153  11.420
11393W        W70687  20.112  22.214   1.350
11394W        W70688   2.891  33.543  14.968
11395W        W70689  30.576   9.288   2.807
11396W        W70690  15.642   5.202  12.516
11397W        W70691  35.043  33.096   9.543
11398W        W70692  39.031  23.119   0.736
11399W        W70693  41.448  42.398   0.312
11400W        W70694  23.652  26.533   1.707
11401W        W70695  13.812  13.311   2.662
11402W        W70696  19.170  16.183   3.277
11403W        W70697  43.986  30.934   3.181
11404W        W70698  34.879  40.944   0.877
11405W        W70699  13.842  21.726   3.651
11406W        W70700  32.424  17.137   2.355
11407W        W70701  10.340  26.126   0.808
11408W        W70702   6.876  36.037   2.890
11409W        W70703   6.894   8.240  13.442
11410W        W70704  30.144  25.031  11.951
11411W        W70705  23.183  29.109   2.673
11412W        W70706  10.700  38.875   2.857
11413W        W70707  30.498   3.903  10.459
11414W        W70708  35.996  41.324   3.219
11415W        W70709  31.962  41.985  12.849
11416W        W70710  35.380  32.109  11.386
11417W        W70711  44.286   3.392  12.514
11418W        W70712  41.914   2.299   1.274
11419W        W70713   7.827  37.545   3.222
11420W        W70714  21.715  31.498   0.964
11421W        W70715  39.034   1.930  14.426
11422W        W70716  17.242   9.292  10.939
11423W        W70717  24.528  25.998   0.347
11424W        W70718   9.858   0.793   1.824
11425W        W70719  42.854  20.171  11.878
11426W        W70720  20.041  33.469  12.450
11427W        W70721   7.251  39.440   2.292
11428W        W70722   8.205   8.207   2.674
11429W        W70723  25.073  15.599   0.828
11430W        W70724   8.227  35.372  13.927
11431W        W70725   7.388  40.052  12.856
11432W        W70726  43.337  39.955   3.675
11433W        W70727  10.741  44.449   3.309
11434W        W70728  28.929   6.209  10.411
11435W        W70729  18.057   9.715  10.903
11436W        W70730  18.086  33.404  14.502
11437W        W70731  22.726  16.590   3.167
11438W        W70732  14.207  34.557   0.817
11439W        W70733  29.492  40.859  14.787
11440W        W70734   3.375  11.174  13.316
11441W        W70735  27.025  10.821   2.852
11442W        W70736  22.619  12.743   1.715
11443W        W70737  22.577  33.046   1.711
11444W        W70738   1.887  34.949   1.795
11445W        W70739  18.264   9.669  13.414
11446W        W70740  28.954  44.477  10.896
11447W        W70741  33.544  19.771   1.305
11448W        W70742  38.828  33.383  13.421
11449W        W70743  10.815   7.273   3.644
11450W        W70744  30.039  42.451  13.952
11451W        W70745  22.688   5.363   2.793
11452W        W70746  43.960  33.032  11.119
11453W        W70747  40.031  39.054  11.997
11454W        W70748   9.855  40.899   0.853
11455W        W70749  40.422  17.217   3.843
11456W        W70750  35.045  33.575   1.246
11457W        W70751  24.017  32.390   3.206
11458W        W70752  14.664  30.022   2.780
11459W        W70753  44.453  15.630  10.404
11460W        W70754   3.308  10.699  12.917
11461W        W70755  44.769  26.608  13.457
11462W        W70756  19.256  38.008  14.029
11463W        W70757   8.819  11.134  10.547
11464W        W70758  42.294  17.632  11.958
11465W        W70759  31.620  36.073  11.089
11466W        W70760  41.326   7.680   1.916
11467W        W70761  28.087   5.210  12.470
11468W        W70762  34.441   3.444   3.171
11469W        W70763  38.372  43.400  12.041
11470W        W70764  23.619   3.292  12.033
11471W        W70765  29.633  12.728   4.159
11472W        W70766  36.522  12.270  14.829
11473W        W70767  22.103  31.600   2.770
11474W        W70768  43.393  15.223  11.011
11475W        W70769  37.934  38.439  13.485
11476W        W70770  20.146  21.521   1.819
11477W        W70771   7.708   9.214  11.058
11478W        W70772  38.566   9.353   5.297
11479W        W70773  10.198  34.403  12.061
11480W        W70774  12.211  31.908   2.321
11481W        W70775  30.627  30.496   2.312
11482W        W70776   2.858  22.143  10.436
11483W        W70777  39.344  15.316  10.553
11484W        W70778  23.506  26.145   3.722
11485W        W70779  18.775  34.544   1.434
11486W        W70780  10.367   9.188  11.466
11487W        W70781  39.447  37.857   2.783
11488W        W70782  32.914  44.900  11.991
11489W        W70783  15.660  15.688   3.793
11490W        W70784  30.421  40.508   5.261
11491W        W70785  33.429  36.856  11.458
11492W        W70786   9.850   8.232   3.768
11493W        W70787   4.428  38.422  11.985
11494W        W70788  20.100  43.928   2.890
11495W        W70789   9.370  38.566   4.270
11496W        W70790   7.751   4.344  13.985
11497W        W70791  32.537  19.086   1.846
11498W        W70792  34.377  28.960  10.480
11499W        W70793   0.762  31.936  10.119
11500W        W70794   4.286  15.766   3.234
11501W        W70795  27.153  17.175  14.309
11502W        W70796  29.562   6.821   1.349
11503W        W70797   2.369  19.230  13.362
11504W        W70798  34.507  25.140   4.115
11505W        W70799   8.859  37.938  11.123
11506W        W70800   3.445  41.387  11.077
11507W        W70801   4.368  19.764   0.405
11508W        W70802   7.705  35.037  14.371
11509W        W70803  21.538   5.819  14.923
11510W        W70804  33.459  39.504   1.323
11511W        W70805   9.644  16.196   1.930
11512W        W70806  13.823  10.360   2.745
11513W        W70807  39.838  14.304  13.910
11514W        W70808  12.651  23.627   0.952
11515W        W70809  36.935  42.360   1.343
11516W        W70810  33.616  25.006  14.470
11517W        W70811   5.875  12.778  10.451
11518W        W70812  21.563  35.989   2.725
11519W        W70813  31.501  17.176  10.484
11520W        W70814  38.386  13.668   2.272
11521W        W70815  21.164  40.953  14.410
11522W        W70816  23.543   1.852  12.447
11523W        W70817  29.122   2.766   4.248
11524W        W70818  44.887  39.337   4.259
11525W        W70819  43.867   3.305   5.215
11526W        W70820  20.655  37.341  12.957
11527W        W70821  11.737  34.984   5.197
11528W        W70822  20.759  34.419   1.806
11529W        W70823  25.982  31.021   2.742
11530W        W70824  10.272  34.927  13.792
11531W        W70825  29.104  43.297   1.916
11532W        W70826  28.977   6.744  14.897
11533W        W70827  19.126   7.203  11.947
11534W        W70828  27.021  31.461   2.362
11535W        W70829  34.028  17.636  12.983
11536W        W70830  43.835   8.309   4.693
11537W        W70831  36.873   3.945   0.905
11538W        W70832  23.209  32.139  12.846
11539W        W70833  23.702  18.581  11.899
11540W        W70834  26.084  27.477   0.965
11541W        W70835  38.517  22.582   0.872
11542W        W70836  22.043  15.679  11.894
11543W        W70837  21.207  42.306   2.382
11544W        W70838  38.039  23.007  10.518
11545W        W70839   6.867  31.485  12.012
11546W        W70840  24.529   1.265  12.469
11547W        W70841  14.291  27.100  11.006
11548W        W70842  15.641  37.487  13.346
11549W        W70843  15.196  18.272   2.696
11550W        W70844  17.668  30.005   2.817
11551W        W70845  36.527  23.030   1.217
11552W        W70846  31.418  16.771  12.033
11553W        W70847   4.237   5.920   2.391
11554W        W70848  24.502  21.185  13.874
11555W        W70849  31.952   1.967  10.150
11556W        W70850  40.373  20.094   1.408
11557W        W70851   0.448  15.667   0.841
11558W        W70852  24.041   9.221   3.813
11559W        W70853  18.235  29.940  13.802
11560W        W70854   7.768  21.603  12.909
11561W        W70855  29.972  24.207   0.833
11562W        W70856  41.834  12.228   1.775
11563W        W70857  41.977  34.904  14.848
11564W        W70858  39.337  14.642   1.805
11565W        W70859  39.412  12.687  14.465
11566W        W70860  15.250  32.942   3.734
11567W        W70861  34.928   5.800  12.966
11568W        W70862  44.943  38.956  14.466
11569W        W70863  10.178  34.510   1.775
11570W        W70864  34.452   7.213  11.470
11571W        W70865  13.644  21.142  14.457
11572W        W70866  12.799  35.890  12.968
11573W        W70867  26.157  20.191   2.370
11574W        W70868  11.250   9.269   1.387
11575W        W70869  11.227  12.173  11.882
11576W        W70870  21.181  20.187   3.276
11577W        W70871  25.632  39.396   1.763
11578W        W70872  40.003   4.854   1.913
11579W        W70873  26.959  36.859  11.943
11580W        W70874  32.414  24.576   4.158
11581W        W70875   7.858   6.740  13.966
11582W        W70876  31.433  22.654  11.089
11583W        W70877  12.777  18.763   0.467
11584W        W70878  33.939   6.812   3.346
11585W        W70879   8.216   6.236   1.401
11586W        W70880  44.439  25.504   1.702
11587W        W70881   8.866  35.021  13.961
11588W        W70882  13.715  28.616   2.773
11589W        W70883  38.933   7.183   0.948
11590W        W70884   6.347   4.446   3.843
11591W        W70885  21.051   4.337   3.830
11592W        W70886  22.016   5.755   0.297
11593W        W70887  25.564  28.540  14.851
11594W        W70888  36.582   1.408  12.057
11595W        W70889  23.001  30.447   3.360
11596W        W70890   5.197  27.050   3.864
11597W        W70891  30.102  17.582  13.966
11598W        W70892  21.204  30.005   3.311
11599W        W70893  35.859  29.957   0.918
11600W        W70894  16.099  29.043  11.956
11601W        W70895  40.888  33.474  12.567
11602W        W70896  41.911  44.447  14.878
11603W        W70897  20.615  13.113   4.225
11604W        W70898  36.008   3.714  14.410
11605W        W70899  14.150  29.430   5.292
11606W        W70900  37.575  35.854   1.269
11607W        W70901  43.303  13.341  11.003
11608W        W70902  11.365  27.670   4.617
11609W        W70903  24.028  11.855  14.939
11610W        W70904  29.058  25.622   4.148
11611W        W70905  35.560  22.132   4.611
11612W        W70906  28.155  12.329   3.349
11613W        W70907   4.366  34.883  14.379
11614W        W70908  24.120  29.516  11.604
11615W        W70909  30.478  35.476   4.344
11616W        W70910  35.366  29.553   4.826
11617W        W70911  39.335  43.960   1.240
11618W        W70912  41.908  16.148   4.303
11619W        W70913  10.702  27.130   2.366
11620W        W70914   2.431  26.458  14.866
11621W        W70915  43.397  31.091   2.677
11622W        W70916  32.916  10.759   3.668
11623W        W70917  37.962  21.110   4.676
11624W        W70918  34.538  16.236  13.516
11625W        W70919   6.870  42.845  11.985
11626W        W70920   0.742  29.511   3.741
11627W        W70921  40.831   5.880   2.767
11628W        W70922  44.825  30.530  13.964
11629W        W70923  26.551   7.766   3.253
11630W        W70924  44.477  37.401  12.384
11631W        W70925  35.471   2.462   0.299
11632W        W70926   3.340   7.752  14.486
11633W        W70927  29.117  28.173   2.874
11634W        W70928  22.628  12.848  13.376
11635W        W70929  23.234  42.378  14.456
11636W        W70930   2.756  35.942   0.373
11637W        W70931  12.181  11.647  14.334
11638W        W70932   6.811  32.964  13.947
11639W        W70933  14.310   5.379  12.046
11640W        W70934  30.093  40.017   2.281
11641W        W70935   3.400  15.777  11.408
11642W        W70936   4.240   5.232   3.151
11643W        W70937  18.546  12.164   3.267
11644W        W70938  31.063   4.744  14.899
11645W        W70939   2.458  29.977  14.460
11646W        W70940   7.358  24.076   0.277
11647W        W70941  30.589   0.869   0.449
11648W        W70942  30.111  15.248  10.449
11649W        W70943  27.550  43.861   0.916
11650W        W70944  25.544  12.641  12.496
11651W        W70945  17.698   4.921  13.975
11652W        W70946  30.022  21.234  12.082
11653W        W70947  44.321  34.528  10.098
11654W        W70948  24.138  20.587  12.912
11655W        W70949  34.072  14.287  12.886
11656W        W70950  15.679   7.781  11.455
11657W        W70951  30.017  24.202   3.799
11658W        W70952  41.296  43.371  13.419
11659W        W70953  16.276  32.890   2.806
11660W        W70954   8.376   4.811  10.507
11661W        W70955  33.123  41.815  14.275
11662W        W70956   3.221   0.428   3.743
11663W        W70957  24.701   9.704  12.397
11664W        W70958  39.979  10.656  12.006
11665W        W70959  21.661  10.848   2.745
11666W        W70960  41.538  35.086   3.842
11667W        W70961  40.840  21.243  14.995
11668W        W70962   8.721  14.729  11.062
11669W        W70963   2.406  27.450   1.365
11670W        W70964  13.115  14.330   1.391
11671W        W70965  43.473  33.562   3.705
11672W        W70966   4.273   9.364  14.461
11673W        W70967  33.898  41.931   0.876
11674W        W70968   6.235  39.371  12.063
11675W        W70969  30.459  44.885  13.533
11676W        W70970  21.591  37.539  12.074
11677W        W70971   4.943  22.694   0.356
11678W        W70972  41.897   7.201   1.928
11679W        W70973  24.112   3.248  14.459
11680W        W70974  19.759  28.460  12.046
11681W        W70975  38.562  23.157   4.334
11682W        W70976  40.029  31.091   2.670
11683W        W70977  41.401  19.133  13.482
11684W        W70978  19.072   4.837  14.827
11685W        W70979  32.587  29.068  12.909
11686W        W70980  38.868  10.820   4.271
11687W        W70981  40.351  43.478   1.798
11688W        W70982  33.120  16.609   2.675
11689W        W70983   8.775  37.467   1.335
11690W        W70984  24.218  26.069   2.191
11691W        W70985  32.457  28.058  10.418
11692W        W70986  21.166  40.869   1.887
11693W        W70987   3.405   0.976  14.430
11694W        W70988  31.408  40.880  14.279
11695W        W70989  42.999  34.374   0.867
11696W        W70990   9.250   7.760  11.052
11697W        W70991  34.093  12.326   4.276
11698W        W70992  11.836   9.843   0.940
11699W        W70993  39.322  35.022  14.838
11700W        W70994   2.401  32.920   3.828
11701W        W70995  19.051  23.157   4.352
11702W        W70996  20.229  37.425   2.321
11703W        W70997  25.079   5.824   1.714
11704W        W70998  16.253  13.801  14.857
11705W        W70999   3.310  28.095   4.677
11706W        W71000  41.347  14.637  13.881
11707W        W71001  36.593   3.347  12.345
11708W        W71002  10.650  21.171   2.734
11709W        W71003   2.815  37.367  12.972
11710W        W71004  31.014  43.994  12.913
11711W        W71005  24.201   9.684  13.990
11712W        W71006  10.654   2.428   2.406
11713W        W71007  16.769  42.952  14.891
11714W        W71008  36.498  16.277  12.521
11715W        W71009  18.639   7.872   3.266
11716W        W71010  22.646  33.573   1.795
11717W        W71011  41.385  43.371   0.749
11718W        W71012  24.047  21.697   4.681
11719W        W71013   9.239  43.349   4.282
11720W        W71014  39.907  15.596  10.079
11721W        W71015  27.029  38.542   4.316
11722W        W71016   4.890   8.852  12.375
11723W        W71017  27.562  20.043  13.844
11724W        W71018  19.086  16.090   3.774
11725W        W71019  16.641  34.000  14.323
11726W        W71020  34.941  25.667   0.874
11727W        W71021  12.793   8.710  12.044
11728W        W71022   4.325   1.856  12.514
11729W        W71023  37.413  18.611   1.750
11730W        W71024   6.396   2.268   3.714
11731W        W71025  41.868  17.688  11.008
11732W        W71026  35.887  35.489  11.607
11733W        W71027  38.377  11.264  11.111
11734W        W71028  31.491  40.038  10.999
11735W        W71029  28.086   3.427   1.760
11736W        W71030   4.374   9.226  12.016
11737W        W71031  20.122  26.116  11.093
11738W        W71032   0.988   0.401   3.863
11739W        W71033  37.964  30.649  11.012
11740W        W71034  32.620  28.044  13.062
11741W        W71035  34.916  10.231  13.316
11742W        W71036  14.156  11.819   2.231
11743W        W71037  42.939  42.327  11.426
11744W        W71038   8.805   9.780  13.508
11745W        W71039  28.961  38.340  11.991
11746W        W71040   0.392  12.240  10.484
11747W        W71041  25.045  24.093   5.273
11748W        W71042  12.690   7.404   4.765
11749W        W71043  12.797  34.968  10.412
11750W        W71044  44.878  39.360   3.190
11751W        W71045  38.969  21.239  14.294
11752W        W71046  17.701  34.871   4.648
11753W        W71047  28.621  35.053   4.631
11754W        W71048  27.069  12.256  13.518
11755W        W71049   0.786  34.431   1.818
11756W        W71050   1.451  41.832   4.166
11757W        W71051  35.075   6.799  10.938
11758W        W71052   7.677  33.107  12.540
11759W        W71053   5.291  38.565   1.409
11760W        W71054  32.978  19.261   4.114
11761W        W71055  17.602  44.371   3.704
11762W        W71056  16.113  29.502   2.723
11763W        W71057   6.307  36.946   0.953
11764W        W71058  32.087  20.207   1.293
11765W        W71059  11.244  17.587   4.821
11766W        W71060  40.426  21.568   0.757
11767W        W71061  17.235   6.898   4.317
11768W        W71062  35.087  22.739  13.321
11769W        W71063   7.383  29.107  13.472
11770W        W71064   8.745  33.931   3.783
11771W        W71065   5.901  24.216   4.285
11772W        W71066  20.249   0.743  11.950
11773W        W71067  20.187  17.302  13.499
11774W        W71068  33.030  44.986  13.923
11775W        W71069  41.843   0.853  14.801
11776W        W71070  18.560  37.880   0.310
11777W        W71071  28.674  34.080  14.511
11778W        W71072   3.927  33.519  10.545
11779W        W71073  20.094  14.765   2.768
11780W        W71074  22.124  10.801  13.370
11781W        W71075  11.206  23.135  11.990
11782W        W71076  27.602  15.800   0.806
11783W        W71077   7.341  39.867   1.411
11784W        W71078  33.041  19.096   1.380
11785W        W71079  20.647  44.272  10.913
11786W        W71080  37.548  14.287   2.235
11787W        W71081   6.783  37.580  10.985
11788W        W71082  29.519  34.029   2.898
11789W        W71083  12.336  27.516   0.330
11790W        W71084  32.964   8.839  11.466
11791W        W71085  29.937   7.378  11.437
11792W        W71086  35.400  29.641  10.418
11793W        W71087  20.066  37.065   3.685
11794W        W71088  31.458   3.859  13.846
11795W        W71089  11.174  44.288   3.352
11796W        W71090  23.651   8.399   0.460
11797W        W71091   9.249  21.676   2.677
11798W        W71092  35.924  21.059   4.631
11799W        W71093  36.883  28.656  10.501
11800W        W71094  43.004  40.443  12.044
11801W        W71095  11.349  19.215  11.497
11802W        W71096  44.313  19.097  11.987
11803W        W71097  22.662  28.076  14.021
11804W        W71098  18.702  19.668  11.519
11805W        W71099  41.803  43.301   3.294
11806W        W71100  28.675  30.950   1.348
11807W        W71101  30.497  34.605   2.789
11808W        W71102  42.523  33.089   0.441
11809W        W71103  31.465   0.279   4.204
11810W        W71104   7.754  16.654   1.365
11811W        W71105   8.842   8.849  12.578
11812W        W71106   8.162   8.733   1.280
11813W        W71107  23.029  31.080  13.379
11814W        W71108  28.124   2.875  12.074
11815W        W71109  37.349   2.242  11.029
11816W        W71110  15.690  16.681   4.138
11817W        W71111   2.362  12.306   3.351
11818W        W71112   9.706  19.772   0.393
11819W        W71113  15.672  38.464   4.136
11820W        W71114  34.427  42.889  12.930
11821W        W71115  33.545  44.299   0.338
11822W        W71116  20.143  24.162  12.412
11823W        W71117  42.512  26.180   0.733
11824W        W71118  13.651   8.163   2.839
11825W        W71119  31.489  25.566  12.852
11826W        W71120  13.128  27.685  11.945
11827W        W71121   6.186   1.802   4.639
11828W        W71122  43.300   2.329  13.525
11829W        W71123  35.073  19.661   4.608
11830W        W71124  32.396  42.857   1.818
11831W        W71125  18.707  12.177  10.570
11832W        W71126  30.639   6.288   4.263
11833W        W71127  32.095  41.297   0.793
11834W        W71128  42.494   2.427   2.865
11835W        W71129  30.520  17.566   0.877
11836W        W71130   8.800  23.553   5.125
11837W        W71131  30.512  25.210  11.027
11838W        W71132  16.113  18.604  13.949
11839W        W71133  35.922   4.839   4.823
11840W        W71134  17.266  43.851  14.986
11841W        W71135   5.823   5.781   3.722
11842W        W71136  22.584  35.540   1.429
11843W        W71137  30.511  15.154   1.261
11844W        W71138  23.170   7.751   1.778
11845W        W71139  18.677  30.568  11.539
11846W        W71140  34.369  19.747  13.494
11847W        W71141  34.994   9.177  13.372
11848W        W71142  21.694  25.045   5.109
11849W        W71143  33.932  42.387  10.465
11850W        W71144   9.303  32.515  10.404
11851W        W71145  42.005  39.322   4.636
11852W        W71146  17.179  12.678  13.058
11853W        W71147  11.724   4.868  11.988
11854W        W71148  36.862   4.346   3.246
11855W        W71149  12.819   0.861  12.439
11856W        W71150  23.489  31.079  11.458
11857W        W71151  36.898  34.992   1.835
11858W        W71152  33.998  42.892   2.756
11859W        W71153  15.683  23.688  12.432
11860W        W71154  33.961  19.266  11.438
11861W        W71155   0.926  39.848  11.870
11862W        W71156  28.649  35.944   4.288
11863W        W71157   0.806   9.850   4.331
11864W        W71158  27.087  17.560   1.934
11865W        W71159  28.077  18.149   3.383
11866W        W71160  27.975   3.366  14.888
11867W        W71161  27.013  22.530  14.760
11868W        W71162  29.164  23.709   2.218
11869W        W71163  26.551  40.422   0.409
11870W        W71164  43.970   3.757   3.193
11871W        W71165  29.468  37.374   2.686
11872W        W71166  44.790   0.346  13.486
11873W        W71167  25.555  37.895  12.569
11874W        W71168   9.205  14.266  14.457
11875W        W71169  21.740  42.892   1.763
11876W        W71170  16.769  23.061   2.757
11877W        W71171   8.871  26.671  11.911
11878W        W71172  23.560  27.069  11.434
11879W        W71173  43.485  19.100   4.710
11880W        W71174  37.926  10.842   4.738
11881W        W71175  28.983  11.868  12.997
11882W        W71176  36.939  21.599   4.711
11883W        W71177  11.804  27.068   0.909
11884W        W71178   1.964  14.242   1.298
11885W        W71179  32.915  30.021  14.484
11886W        W71180  39.936  36.969  13.453
11887W        W71181  19.765   4.309  12.947
11888W        W71182  37.358  36.407   2.393
11889W        W71183  43.018  40.051  14.391
11890W        W71184  12.222  28.024  14.786
11891W        W71185  40.434  36.552  14.411
11892W        W71186   7.185  27.975  14.459
11893W        W71187  40.828  12.797   2.272
11894W        W71188  32.009   4.231   1.816
11895W        W71189  26.641  38.892   0.942
11896W        W71190  42.486  28.993  13.824
11897W        W71191  28.484   8.749   2.769
11898W        W71192  32.505  37.068  13.822
11899W        W71193  20.081   4.324  14.764
11900W        W71194  36.953  36.946   1.213
11901W        W71195  42.359   9.377  10.958
11902W        W71196  33.065  19.124   3.779
11903W        W71197  33.047  34.006  12.570
11904W        W71198  29.514  32.050   4.771
11905W        W71199  21.201  12.678  14.833
11906W        W71200   5.771   8.289   0.915
11907W        W71201  40.414  24.552  14.420
11908W        W71202  39.509  34.908   4.216
11909W        W71203  25.570  21.584  11.922
11910W        W71204   9.324  11.300   4.602
11911W        W71205  18.624  22.206  14.760
11912W        W71206   5.346  30.109  11.542
11913W        W71207  29.499  15.283   3.827
11914W        W71208  12.299  10.752  12.972
11915W        W71209  26.994   2.852  11.459
11916W        W71210  16.679  40.985   2.696
11917W        W71211  19.195  19.702   2.677
11918W        W71212  22.555  13.806   1.367
11919W        W71213  24.177   0.897   0.390
11920W        W71214  41.806  22.191   0.829
11921W        W71215  30.580  44.943   4.684
11922W        W71216   9.864   6.194   2.738
11923W        W71217  40.474   8.820   4.607
11924W        W71218   3.724  27.100   1.262
11925W        W71219  34.506  31.129  14.865
11926W        W71220   4.358  33.879  11.590
11927W        W71221  10.715  12.674  14.314
11928W        W71222  26.191  40.463   0.946
11929W        W71223  31.476  17.082  14.463
11930W        W71224   6.768  41.307  10.426
11931W        W71225  36.417   0.771   3.164
11932W        W71226   4.205  16.263  14.512
11933W        W71227  40.507  30.069  12.411
11934W        W71228  37.083  29.075  14.370
11935W        W71229  29.545  41.027   4.729
11936W        W71230   6.187  23.682   4.605
11937W        W71231  21.082  36.921  11.007
11938W        W71232  26.461  36.019  12.517
11939W        W71233   3.905  37.859  12.048
11940W        W71234  38.398  39.456   9.617
11941W        W71235   3.952   3.855  11.121
11942W        W71236  15.300  26.586  13.542
11943W        W71237  20.711   6.331  11.958
11944W        W71238   6.838  27.102  12.937
11945W        W71239  44.332  24.080   3.814
11946W        W71240   3.286  25.683   5.177
11947W        W71241   8.208  16.105  14.483
11948W        W71242  40.941  31.590  13.349
11949W        W71243  13.185  30.130  12.432
11950W        W71244   9.370  19.723   0.856
11951W        W71245  36.971   5.793   5.247
11952W        W71246  18.561  37.348   1.381
11953W        W71247  21.709  32.526  14.769
11954W        W71248  27.514  20.601   3.784
11955W        W71249   1.909  39.065   3.737
11956W        W71250   8.706   4.314  12.995
11957W        W71251  37.012  31.043  11.497
11958W        W71252  23.030  35.875   1.422
11959W        W71253   9.289  31.047   3.663
11960W        W71254  23.562  27.048   0.256
11961W        W71255   0.875  29.460   1.885
11962W        W71256  39.377   4.293  10.987
11963W        W71257   5.780  32.947   9.594
11964W        W71258  41.417  36.446  13.444
11965W        W71259  43.991  25.213   4.238
11966W        W71260  17.118  19.202  11.884
11967W        W71261   2.867  33.876  12.041
11968W        W71262  14.713  28.501   3.852
11969W        W71263  13.655   7.299   2.681
11970W        W71264  26.680  39.813   2.348
11971W        W71265  39.514  44.805   2.870
11972W        W71266  27.071  38.062   2.193
11973W        W71267  24.135  32.575  12.978
11974W        W71268  36.935   5.709  12.990
11975W        W71269  40.394  17.109   3.359
11976W        W71270   0.824  23.730   3.648
11977W        W71271   5.202  24.584   1.267
11978W        W71272  10.741  20.657   1.876
11979W        W71273   9.279  44.355  10.515
11980W        W71274  23.115  24.718   2.387
11981W        W71275   3.218   2.329  11.389
11982W        W71276  15.093   8.833   4.132
11983W        W71277  16.205  15.185  10.951
11984W        W71278  38.405  27.007  14.896
11985W        W71279  32.536  25.008   3.763
11986W        W71280  35.102  20.172  12.063
11987W        W71281  21.700  28.016  12.364
11988W        W71282   7.222  30.552  12.944
11989W        W71283   7.340  25.073   0.349
11990W        W71284   6.686   0.445   2.331
11991W        W71285  39.054  22.596   3.336
11992W        W71286  24.132  32.937  11.452
11993W        W71287   7.268  39.027  12.363
11994W        W71288  14.193   5.879  11.992
11995W        W71289  30.126  35.986   2.336
11996W        W71290  29.176   4.238  13.368
11997W        W71291  27.618   4.829  12.496
11998W        W71292  19.585  20.251  11.469
11999W        W71293   3.888  17.233  12.026
12000W        W71294  11.285  34.958   2.857
12001W        W71295  17.628  22.624   3.261
12002W        W71296   3.336  42.374   3.347
12003W        W71297   9.717  39.473  12.006
12004W        W71298  44.768  23.549   1.930
12005W        W71299   8.883  39.932  12.380
12006W        W71300  18.611  36.437   0.764
12007W        W71301   5.887   4.842   0.830
12008W        W71302   5.435   6.297  10.503
12009W        W71303  28.562  33.130  14.456
12010W        W71304  25.522  23.097  14.469
12011W        W71305  29.553  17.116   2.181
12012W        W71306  12.284  35.482   0.908
12013W        W71307  43.785  34.078  11.511
12014W        W71308   8.345   5.835  10.946
12015W        W71309  30.946  20.642   3.813
12016W        W71310  43.795  44.488  13.467
12017W        W71311  14.242  20.180  14.768
12018W        W71312  25.622  18.058  10.070
12019W        W71313  14.655  34.494   2.882
12020W        W71314  34.387  23.591   1.775
12021W        W71315  38.417  38.056  12.985
12022W        W71316  11.625  17.796   1.285
12023W        W71317  14.733  30.484  13.414
12024W        W71318  33.094  35.599  11.440
12025W        W71319  24.575  42.880  11.538
12026W        W71320  28.152  17.182   4.606
12027W        W71321  42.996  44.882  12.370
12028W        W71322  18.651   3.327  10.549
12029W        W71323  12.248  14.654  11.531
12030W        W71324   6.263  30.965  12.539
12031W        W71325  33.053  19.601   0.907
12032W        W71326   2.932  40.462   4.265
12033W        W71327  34.611  15.129  13.426
12034W        W71328  21.186   9.745   4.731
12035W        W71329  35.992  15.230  13.872
12036W        W71330  34.614  10.353   0.729
12037W        W71331  39.436  40.385  10.440
12038W        W71332   5.255  18.749   2.194
12039W        W71333  30.637  40.852   3.741
12040W        W71334  17.754  16.725  11.107
12041W        W71335  32.633  33.571   4.273
12042W        W71336  26.592   3.953  10.462
12043W        W71337  17.138  15.608   4.134
12044W        W71338  31.945  16.164  13.968
12045W        W71339  22.732  21.576   4.636
12046W        W71340   9.839  33.401  14.803
12047W        W71341  15.283   3.321  10.563
12048W        W71342  13.762  17.191   2.724
12049W        W71343  23.504  26.529  12.867
12050W        W71344   1.448  12.266  14.819
12051W        W71345   5.385   1.368   3.693
12052W        W71346  43.463  20.587  10.890
12053W        W71347  39.396  18.645  11.027
12054W        W71348   1.337  28.035   4.216
12055W        W71349  39.546  23.181  12.032
12056W        W71350  32.948  13.695  11.074
12057W        W71351   3.711  16.132  13.417
12058W        W71352  41.486  18.108  13.366
12059W        W71353  34.024  10.709  12.893
12060W        W71354  13.329  32.934  11.444
12061W        W71355  10.846  25.540  13.520
12062W        W71356   6.343  19.045  14.871
12063W        W71357   0.811  10.353  14.899
12064W        W71358  39.372  27.985  11.584
12065W        W71359  31.468   9.217  11.060
12066W        W71360  44.479  22.619   3.742
12067W        W71361  33.501  42.779  14.857
12068W        W71362  40.455  17.075   1.303
12069W        W71363  20.198  37.840   1.275
12070W        W71364   5.203   9.163  10.469
12071W        W71365  34.526  44.002  12.044
12072W        W71366  22.183  36.419  12.994
12073W        W71367  28.105  26.628  14.966
12074W        W71368  24.166   9.826   0.381
12075W        W71369  24.032  34.396   0.891
12076W        W71370  21.156   8.744  11.882
12077W        W71371  14.107   2.398   4.796
12078W        W71372  13.754  19.638   0.914
12079W        W71373   2.382  28.510  12.979
12080W        W71374   0.981  42.449  14.887
12081W        W71375   7.345  20.037  14.307
12082W        W71376  36.502   1.392   1.916
12083W        W71377  34.092  38.514  14.874
12084W        W71378   4.876  13.651   4.654
12085W        W71379   1.857  42.018   4.282
12086W        W71380  31.966  42.799   0.278
12087W        W71381  38.475  15.673  10.574
12088W        W71382  26.971  24.065  13.464
12089W        W71383  44.493  28.519   4.748
12090W        W71384   8.896   9.258  14.940
12091W        W71385   3.447  32.973   3.757
12092W        W71386  29.606   4.428  10.530
12093W        W71387  18.050   9.325   4.136
12094W        W71388  41.024  11.227  14.993
12095W        W71389  44.372  12.124  13.793
12096W        W71390  40.393  12.822   3.722
12097W        W71391  29.988   9.294  13.433
12098W        W71392   2.917  19.056   1.402
12099W        W71393   8.213  16.216  12.071
12100W        W71394   1.735  19.129  11.946
12101W        W71395  16.776  36.987   0.298
12102W        W71396   3.726   6.769  12.995
12103W        W71397  37.542  25.655   1.729
12104W        W71398  40.799  38.533  13.312
12105W        W71399   0.879   2.751  12.462
12106W        W71400   6.391   1.807   0.448
12107W        W71401  35.998  18.680  12.863
12108W        W71402  14.318  25.627   4.791
12109W        W71403  26.680  10.350   0.400
12110W        W71404  23.190   2.899  13.488
12111W        W71405  15.655  39.467  12.090
12112W        W71406  25.091  26.678   0.461
12113W        W71407  40.923  14.827   0.904
12114W        W71408  42.816  32.048   4.251
12115W        W71409  42.924  21.207  11.421
12116W        W71410  44.458  22.062  12.416
12117W        W71411  15.319  23.694  12.857
12118W        W71412  41.293  33.510   0.249
12119W        W71413   7.262  24.501   0.459
12120W        W71414  23.043  21.625   2.419
12121W        W71415  30.572  30.917   3.702
12122W        W71416  43.353  33.467   4.228
12123W        W71417  25.489  24.689  12.022
12124W        W71418   2.436  33.064  13.851
12125W        W71419   5.358  21.119  12.876
12126W        W71420  12.651  36.364  10.408
12127W        W71421   5.765  12.817   0.369
12128W        W71422   6.922  38.374  13.030
12129W        W71423  44.008  18.706  10.450
12130W        W71424  12.293  40.426  14.422
12131W        W71425  34.967  18.101   4.259
12132W        W71426  34.885  24.510  10.501
12133W        W71427  22.650  20.168   2.667
12134W        W71428  38.521  28.145   0.387
12135W        W71429  11.203  26.601  11.961
12136W        W71430  39.481  18.263   0.789
12137W        W71431  12.149  26.208  11.855
12138W        W71432   0.929   5.912  11.924
12139W        W71433  40.468   1.849   2.278
12140W        W71434  10.182  30.489   0.828
12141W        W71435  16.211  26.006  13.048
12142W        W71436  40.368  30.082  14.867
12143W        W71437  28.161  28.007   3.151
12144W        W71438  20.689  11.834   3.338
12145W        W71439  42.464  39.399   0.260
12146W        W71440  29.106  17.556  10.442
12147W        W71441  38.472  43.924   3.240
12148W        W71442  26.558  24.154   1.330
12149W        W71443   0.921  35.058   4.277
12150W        W71444  44.862  41.032  10.914
12151W        W71445   2.793   0.947  14.003
12152W        W71446  39.354  33.600   5.167
12153W        W71447   2.459  40.501   5.236
12154W        W71448  20.704  30.481   4.613
12155W        W71449   1.943  34.120   4.321
12156W        W71450  16.119  38.429  13.406
12157W        W71451  35.467  26.062  11.504
12158W        W71452  38.007  14.257   1.846
12159W        W71453  30.928  18.659  10.558
12160W        W71454  18.093  44.456  13.804
12161W        W71455   4.409  16.747   1.401
12162W        W71456  16.251  39.910   4.204
12163W        W71457   6.234   2.378  11.127
12164W        W71458  25.116  16.660   0.891
12165W        W71459   5.797  39.451  14.480
12166W        W71460  18.588   5.278  13.489
12167W        W71461  21.647  22.134   3.223
12168W        W71462  38.480  17.793  14.930
12169W        W71463   7.315  34.110   0.886
12170W        W71464  37.578   4.853  14.455
12171W        W71465  15.191   4.783   9.961
12172W        W71466  39.983  17.683  11.590
12173W        W71467   0.460  36.567  13.955
12174W        W71468   8.267  16.687  12.425
12175W        W71469   3.409  31.030  10.562
12176W        W71470   0.285  37.021  11.002
12177W        W71471  34.073  15.724  14.992
12178W        W71472  20.738  20.150   9.593
12179W        W71473  28.948  20.688  14.465
12180W        W71474  29.658  30.585   0.813
12181W        W71475  22.544  33.420  11.556
12182W        W71476  23.224  18.187   0.424
12183W        W71477  19.238  38.047   2.303
12184W        W71478  23.622  30.088   4.325
12185W        W71479  32.122  24.672  14.342
12186W        W71480  16.609  22.699   2.207
12187W        W71481  33.413   8.161   0.943
12188W        W71482  36.415  42.837   3.871
12189W        W71483  15.639   7.295   9.923
12190W        W71484  30.061   5.320   0.447
12191W        W71485  31.620  38.475  12.929
12192W        W71486  14.826  28.084   0.849
12193W        W71487  13.288  10.343   1.238
12194W        W71488  36.441  18.593  12.092
12195W        W71489  23.173  43.282   4.241
12196W        W71490  41.518  35.067   3.376
12197W        W71491   2.330  12.824  10.146
12198W        W71492  34.960  41.893  12.345
12199W        W71493   0.258  27.951   4.692
12200W        W71494  43.374  34.398  12.434
12201W        W71495  39.465  29.114   2.284
12202W        W71496   3.260  24.724  11.044
12203W        W71497   2.919  34.892   0.425
12204W        W71498  39.855  13.257  12.836
12205W        W71499  11.129   9.780  13.055
12206W        W71500  32.559  14.790  14.816
12207W        W71501  28.953  30.122  13.424
12208W        W71502  30.129   5.905  13.473
12209W        W71503  23.197  10.320   1.815
12210W        W71504   9.272  40.910  13.377
12211W        W71505  14.607  13.161  12.050
12212W        W71506  41.916  25.208  12.364
12213W        W71507  22.076  33.605   2.852
12214W        W71508  43.986  19.733  13.001
12215W        W71509  16.244  33.616   1.894
12216W        W71510   4.701  13.135  14.333
12217W        W71511  24.147  39.444   2.287
12218W        W71512  18.257   0.365  13.316
12219W        W71513  26.562   5.787   3.828
12220W        W71514  26.201  38.975   3.369
12221W        W71515   7.396  30.926  14.496
12222W        W71516  26.997  44.847   1.345
12223W        W71517  23.030  41.343  12.879
12224W        W71518  27.940   1.825   4.189
12225W        W71519   7.314   6.257  10.966
12226W        W71520  27.520  34.913  11.953
12227W        W71521  43.421  42.396   0.963
12228W        W71522  35.913  43.973   1.764
12229W        W71523  29.175  14.278  11.930
12230W        W71524  44.463   0.399  12.995
12231W        W71525  23.516  22.027  10.937
12232W        W71526  15.733   5.842  13.859
12233W        W71527  44.812  34.956   1.224
12234W        W71528  25.570  18.056   0.795
12235W        W71529  27.145  33.571   2.754
12236W        W71530  18.657  17.175   5.265
12237W        W71531  16.722  44.315  12.827
12238W        W71532  27.637   5.314  14.886
12239W        W71533  13.724  29.922  14.863
12240W        W71534  30.048  15.618   3.818
12241W        W71535  39.044   6.860  10.498
12242W        W71536   1.389  19.716   4.144
12243W        W71537  15.640  12.354   0.817
12244W        W71538  32.128  25.526   4.314
12245W        W71539  34.884  13.175   3.226
12246W        W71540   4.396   7.294   1.399
12247W        W71541  42.902  36.373   1.712
12248W        W71542  30.115   1.788  10.911
12249W        W71543  28.443  15.209  14.410
12250W        W71544  25.619  21.593  13.308
12251W        W71545  29.584   2.466   4.654
12252W        W71546  14.294  19.768   0.731
12253W        W71547  27.457   2.427   0.324
12254W        W71548   2.361  19.550   4.761
12255W        W71549  22.184  30.527   1.737
12256W        W71550  10.872  43.870   4.264
12257W        W71551  18.168  26.590   3.862
12258W        W71552  36.359  35.998  13.009
12259W        W71553   1.321   9.356  13.400
12260W        W71554   1.448  25.525   2.352
12261W        W71555   2.242  19.255   0.254
12262W        W71556  14.158  20.651   0.896
12263W        W71557  13.797   0.804   4.338
12264W        W71558  27.691   6.389   0.857
12265W        W71559  24.520  41.320   2.222
12266W        W71560   5.755   8.288  13.413
12267W        W71561  17.779  19.047  13.865
12268W        W71562  24.672  27.666  12.856
12269W        W71563   5.202  32.473  11.048
12270W        W71564  38.374   0.366   2.802
12271W        W71565   0.268  18.131   1.277
12272W        W71566  41.435  19.606   4.115
12273W        W71567   2.842  20.717   4.175
12274W        W71568   3.357  24.190  14.315
12275W        W71569  19.631   6.797  14.408
12276W        W71570  20.228  10.806   4.629
12277W        W71571  43.376  37.468   0.860
12278W        W71572  32.548  39.410  12.903
12279W        W71573  40.327  22.514  13.493
12280W        W71574   0.770   8.363   2.692
12281W        W71575  10.747  19.620   2.793
12282W        W71576  24.208  20.241   2.859
12283W        W71577   3.371  44.475  14.868
12284W        W71578  21.193   0.809   1.749
12285W        W71579  37.350  43.940  12.904
12286W        W71580  41.427  35.892   2.884
12287W        W71581  13.658  38.507  13.790
12288W        W71582   8.786  18.100   0.880
12289W        W71583  35.362  30.919  11.049
12290W        W71584  22.223   9.395   2.741
12291W        W71585  20.206   0.343  12.553
12292W        W71586  20.089  32.400  12.964
12293W        W71587  39.959  36.377   0.398
12294W        W71588  29.015   7.309   0.866
12295W        W71589  40.864   3.432   0.905
12296W        W71590  13.182  19.595  14.452
12297W        W71591  12.769  25.585   3.681
12298W        W71592  34.044  25.976   4.775
12299W        W71593  19.626  14.753   3.669
12300W        W71594  10.292   1.747   1.757
12301W        W71595  29.638  18.056   1.875
12302W        W71596  23.195  27.944  13.003
12303W        W71597   6.795  39.814   2.329
12304W        W71598  28.127  35.476  14.017
12305W        W71599  29.656  36.512   4.819
12306W        W71600   1.742  34.877   0.792
12307W        W71601   0.381  37.905   1.379
12308W        W71602  24.137   2.238   3.746
12309W        W71603  14.273   6.380  13.419
12310W        W71604  40.876  23.569  10.614
12311W        W71605  17.750  15.236  12.069
12312W        W71606  20.068  10.700  12.925
12313W        W71607  13.175  37.949  11.537
12314W        W71608  38.927  16.135  12.866
12315W        W71609   3.381   9.277  12.868
12316W        W71610  43.810  39.046   0.246
12317W        W71611  22.123  17.307   2.405
12318W        W71612  44.379   6.375  13.795
12319W        W71613  34.108  32.097  10.103
12320W        W71614  23.993   0.315   3.358
12321W        W71615  16.142  21.533   3.186
12322W        W71616  10.704  36.990   3.816
12323W        W71617  11.643  17.573   4.148
12324W        W71618  27.048  22.162  13.835
12325W        W71619  12.799   2.951  12.371
12326W        W71620  32.631  14.244  10.465
12327W        W71621  13.175  17.168  14.030
12328W        W71622  41.422  12.117   0.434
12329W        W71623   2.745  24.724   3.822
12330W        W71624  23.690  38.477   4.713
12331W        W71625  16.598  20.749  12.826
12332W        W71626  32.569  19.643   4.235
12333W        W71627  17.156   0.930   2.385
12334W        W71628   7.408  20.263   2.804
12335W        W71629   6.818  30.544  14.488
12336W        W71630   3.348  31.900  11.465
12337W        W71631  24.987  20.266   4.146
12338W        W71632  17.200  44.939   0.786
12339W        W71633  14.695  15.306  13.402
12340W        W71634  32.024  25.991  12.514
12341W        W71635  30.043  15.247   3.300
12342W        W71636  14.765  42.526   3.712
12343W        W71637  15.658   7.894   4.785
12344W        W71638  15.117  16.799  11.521
12345W        W71639  35.935  20.217   5.284
12346W        W71640  16.654  21.705  10.890
12347W        W71641  19.672  36.554   1.316
12348W        W71642   5.689   3.909   1.846
12349W        W71643  37.056  39.954   1.269
12350W        W71644  41.330  31.617  10.534
12351W        W71645  13.705   7.668   1.754
12352W        W71646  10.365  18.593   0.326
12353W        W71647  34.062  28.562  12.070
12354W        W71648  26.683  13.745   4.281
12355W        W71649  33.109  27.666  13.498
12356W        W71650  21.632  41.858   1.339
12357W        W71651  38.864  28.674   1.218
12358W        W71652  43.507  20.038   0.954
12359W        W71653  23.651   0.953  12.407
12360W        W71654  14.589  23.069   9.967
12361W        W71655  16.092  44.848  14.801
12362W        W71656  14.729  25.492  13.369
12363W        W71657  36.349  25.524  11.391
12364W        W71658  16.702  13.322   2.381
12365W        W71659  27.078  26.640  12.354
12366W        W71660  33.116   6.716  13.056
12367W        W71661   8.818  27.016   1.772
12368W        W71662  41.915   0.885  13.873
12369W        W71663  18.195  12.330   2.736
12370W        W71664  20.557   3.751   3.320
12371W        W71665   9.870  22.574  14.478
12372W        W71666  19.744  39.953   0.936
12373W        W71667  16.711  23.692   3.180
12374W        W71668  12.158  18.668  14.912
12375W        W71669  20.069  25.085   5.098
12376W        W71670  37.972  12.718  14.477
12377W        W71671   9.829  17.247   1.858
12378W        W71672  43.449  40.036   3.151
12379W        W71673  32.004  28.980  10.899
12380W        W71674   3.713   4.757  11.106
12381W        W71675   8.781  35.975   2.178
12382W        W71676  33.555   4.228   0.784
12383W        W71677   2.749  20.585  13.858
12384W        W71678  27.962  29.172  13.842
12385W        W71679  24.482  21.253   2.262
12386W        W71680  23.541  30.105   2.246
12387W        W71681  33.575  14.628  14.858
12388W        W71682  19.684  29.619  14.881
12389W        W71683  33.537  36.395   1.847
12390W        W71684  21.142  12.796   4.306
12391W        W71685  31.496  17.675  13.373
12392W        W71686  18.170  39.444   1.305
12393W        W71687  42.948  28.488   4.648
12394W        W71688  29.099  26.592   2.390
12395W        W71689  27.563   9.748  11.028
12396W        W71690  30.595  42.941   9.982
12397W        W71691  39.810  42.886  14.347
12398W        W71692  18.786  29.439  11.114
12399W        W71693  30.437  17.232   1.398
12400W        W71694  16.184  23.679  13.022
12401W        W71695  27.553  20.271  11.064
12402W        W71696   7.698  31.085  11.435
12403W        W71697  30.462  36.528   2.288
12404W        W71698  32.500  22.544  14.275
12405W        W71699   6.822  33.028   1.764
12406W        W71700   4.385   1.959  12.076
12407W        W71701  35.458  41.297  14.921
12408W        W71702   1.870  34.999   4.336
12409W        W71703  24.983  14.618  14.414
12410W        W71704  13.266  27.089  14.779
12411W        W71705  22.582  21.101  14.857
12412W        W71706  44.979  30.511   4.122
12413W        W71707   1.931  43.288  10.544
12414W        W71708  10.161   2.439   0.795
12415W        W71709  21.516   1.309   3.855
12416W        W71710  39.432   0.905  14.462
12417W        W71711  29.929   7.694   4.313
12418W        W71712   7.325  40.538  13.464
12419W        W71713  37.939  22.013  11.961
12420W        W71714  36.965  26.559  14.022
12421W        W71715  12.667   6.283  13.836
12422W        W71716  25.511   2.851   2.729
12423W        W71717   5.880  25.104   1.255
12424W        W71718   2.786  44.312   4.791
12425W        W71719  31.067  34.414  10.025
12426W        W71720  23.630  23.712  14.454
12427W        W71721  27.081  38.351  14.962
12428W        W71722   2.843   4.244   2.799
12429W        W71723  24.504  34.499   0.858
12430W        W71724  11.697  37.482  13.502
12431W        W71725  18.153  25.604  13.396
12432W        W71726  15.233   2.384   0.296
12433W        W71727  33.381  33.427   0.926
12434W        W71728   4.320  32.970  14.453
12435W        W71729  21.594   3.914   0.313
12436W        W71730  44.821  32.115   3.339
12437W        W71731  41.421  25.143  12.381
12438W        W71732  38.881  32.972  14.429
12439W        W71733   0.820  13.328  14.955
12440W        W71734  29.085  40.968  11.530
12441W        W71735   0.838   8.200   2.199
12442W        W71736  32.966  39.016  11.961
12443W        W71737  39.532  12.306   3.159
12444W        W71738   6.404   5.794  11.032
12445W        W71739  37.929  43.429  12.527
12446W        W71740  15.659  40.430  14.997
12447W        W71741  22.089  16.629  10.527
12448W        W71742  10.730  44.856   0.367
12449W        W71743  44.360  33.997  11.549
12450W        W71744  30.149  23.186  11.977
12451W        W71745  24.582  18.724  11.040
12452W        W71746  12.820  34.047  13.020
12453W        W71747  20.682  20.545  14.449
12454W        W71748  21.566  17.093  11.027
12455W        W71749   2.932  34.994  12.921
12456W        W71750  34.962  18.111  11.399
12457W        W71751  15.668  17.202  10.552
12458W        W71752  16.640  28.547  10.453
12459W        W71753  10.813  30.653   2.277
12460W        W71754  18.177  32.439  14.022
12461W        W71755   8.808  26.139   0.893
12462W        W71756   1.299  11.181   4.216
12463W        W71757  12.664  12.786   3.320
12464W        W71758  17.111   6.685  10.584
12465W        W71759  19.050  27.004   3.286
12466W        W71760   3.737  40.544   2.363
12467W        W71761  42.344  14.217  14.375
12468W        W71762  34.005  35.066   0.830
12469W        W71763   1.753  29.107  10.999
12470W        W71764  34.044   4.296   0.289
12471W        W71765  22.014  27.978   1.245
12472W        W71766  16.302  18.619   2.678
12473W        W71767  25.522  22.233   2.848
12474W        W71768  43.872   8.191   2.237
12475W        W71769  25.563  32.993  14.761
12476W        W71770  19.218  23.539   4.264
12477W        W71771   4.713  29.037   4.620
12478W        W71772  41.867  24.141   1.360
12479W        W71773  34.540  43.975  12.515
12480W        W71774   4.938  31.989   4.300
12481W        W71775  20.099   7.873  11.031
12482W        W71776  12.283  29.472  14.970
12483W        W71777  29.037  24.531  13.443
12484W        W71778  16.196  10.746   0.745
12485W        W71779  31.151  41.413   9.631
12486W        W71780  24.179   8.210   4.139
12487W        W71781   5.837   1.816  13.443
12488W        W71782   5.827  19.043   9.998
12489W        W71783  34.390  38.348   0.274
12490W        W71784   8.316  40.032   0.361
12491W        W71785  22.703  15.237  11.027
12492W        W71786  21.619  27.475  14.309
12493W        W71787  37.371  18.653   2.784
12494W        W71788  12.849  22.730   0.905
12495W        W71789  39.923  27.642   3.839
12496W        W71790   9.806   5.782  10.445
12497W        W71791  41.934  31.070  14.857
12498W        W71792  36.419  32.615   3.863
12499W        W71793  40.823  22.237  14.296
12500W        W71794   3.398  36.376   1.343
12501W        W71795  20.227  44.850   1.334
12502W        W71796  26.483   1.404  13.518
12503W        W71797  33.959  21.755  11.451
12504W        W71798  31.016  12.818  10.543
12505W        W71799  42.365  23.237  13.864
12506W        W71800  43.933  16.580   2.675
12507W        W71801  19.628  22.713   3.781
12508W        W71802  19.651  28.592   3.796
12509W        W71803  22.250  18.609  12.834
12510W        W71804  39.491  44.992  11.898
12511W        W71805  21.106  33.476  12.429
12512W        W71806  38.956  18.646  12.457
12513W        W71807  19.537  25.029  10.586
12514W        W71808   6.223  25.019  11.501
12515W        W71809  42.994  34.526   1.346
12516W        W71810   1.311  43.948  12.561
12517W        W71811   6.841  35.964  13.474
12518W        W71812  32.437  24.140  12.558
12519W        W71813  41.986   8.724   3.734
12520W        W71814  22.226  21.752   1.258
12521W        W71815   5.886  27.136  11.441
12522W        W71816  18.579   2.369   4.197
12523W        W71817  33.978  37.441   2.733
12524W        W71818  24.143   3.741  14.997
12525W        W71819  17.119  20.054  12.578
12526W        W71820  11.289  16.686  10.944
12527W        W71821  27.090  26.565  11.486
12528W        W71822   2.884   2.828   3.361
12529W        W71823  15.766  18.688  12.391
12530W        W71824  33.403  43.295   1.424
12531W        W71825  35.552   6.258   1.423
12532W        W71826   6.184  42.369  12.522
12533W        W71827  17.075  34.435  11.093
12534W        W71828   8.767  12.210  10.928
12535W        W71829  11.355  21.532   0.965
12536W        W71830  21.215  20.185   2.214
12537W        W71831  31.149  26.161  10.576
12538W        W71832   1.818   6.293   2.379
12539W        W71833  16.667  42.972   3.788
12540W        W71834  26.457  44.501  10.951
12541W        W71835  43.931  42.427   9.602
12542W        W71836   1.437  19.626  10.536
12543W        W71837  42.915  10.276   5.229
12544W        W71838  29.165   3.869  12.540
12545W        W71839  30.055  14.108   3.637
12546W        W71840  43.999  21.714  13.327
12547W        W71841  27.597  14.831  11.536
12548W        W71842  14.707  43.927  14.281
12549W        W71843   4.446   4.765   2.797
12550W        W71844   5.898  38.898  11.957
12551W        W71845   7.412  25.534   1.707
12552W        W71846  12.322   0.839  10.954
12553W        W71847   4.217   5.744   4.217
12554W        W71848  15.757   7.299   0.784
12555W        W71849  25.161  22.531   4.784
12556W        W71850  28.012  40.523  10.531
12557W        W71851  22.606   1.771   2.792
12558W        W71852  16.809  15.188   3.164
12559W        W71853  42.028   2.725  14.408
12560W        W71854  37.381  38.412  10.917
12561W        W71855   8.337  43.884   1.258
12562W        W71856  12.347  38.551   1.334
12563W        W71857  41.332   1.355  14.012
12564W        W71858  14.108  15.708   4.314
12565W        W71859   9.250  33.425  14.805
12566W        W71860   4.343  25.520   0.421
12567W        W71861   0.347  14.788  12.921
12568W        W71862  31.982  30.524  12.874
12569W        W71863  13.250  40.802  12.416
12570W        W71864   9.686  14.187  14.937
12571W        W71865  43.846  18.568  14.401
12572W        W71866  28.089  39.536   0.868
12573W        W71867  20.070  44.898   0.449
12574W        W71868  21.678  23.657  14.850
12575W        W71869  18.558  35.086  13.970
12576W        W71870   1.300  29.923  10.975
12577W        W71871  30.498   8.884   3.311
12578W        W71872  29.559  18.674  12.977
12579W        W71873  30.002  35.952   0.852
12580W        W71874   4.276  10.708  13.062
12581W        W71875  37.004  33.549   1.293
12582W        W71876  40.876  35.046   2.762
12583W        W71877  11.683  23.598  11.953
12584W        W71878  26.053  10.306  10.459
12585W        W71879  14.296   7.259   0.742
12586W        W71880  34.927  25.964  14.388
12587W        W71881  22.711   3.406  11.912
12588W        W71882  33.050   3.794   4.144
12589W        W71883  33.940   9.807   4.649
12590W        W71884  31.059  10.358  11.882
12591W        W71885   3.372  42.362  13.421
12592W        W71886  31.470  30.610   3.246
12593W        W71887   7.232  29.610   3.817
12594W        W71888   7.342   0.340  13.396
12595W        W71889   2.389  16.165   0.345
12596W        W71890  26.566  43.457   2.772
12597W        W71891  21.196   1.824  14.796
12598W        W71892  28.486   1.946   1.919
12599W        W71893  29.954   7.208  11.057
12600W        W71894  24.056   3.883   0.957
12601W        W71895  35.547   8.214  11.501
12602W        W71896  32.126  27.006  13.902
12603W        W71897  43.303   2.402   2.670
12604W        W71898  43.931  41.471  12.567
12605W        W71899  42.365  43.773   0.357
12606W        W71900  15.221  31.914   0.430
12607W        W71901  27.511  25.623   4.231
12608W        W71902   3.811  31.021  13.450
12609W        W71903  35.439  36.455  10.420
12610W        W71904  32.142   4.366  13.404
12611W        W71905  24.657  23.689   0.327
12612W        W71906  26.691   4.245  14.965
12613W        W71907   8.190  44.998  12.377
12614W        W71908  21.255  33.435   3.731
12615W        W71909  30.609   5.915  10.906
12616W        W71910  20.698  40.506  10.553
12617W        W71911  26.181  23.071  13.896
12618W        W71912  25.618   5.230   4.733
12619W        W71913   6.866  25.552   2.340
12620W        W71914  36.385  12.671  12.039
12621W        W71915  33.503  29.151   4.339
12622W        W71916  11.788  28.492  13.540
12623W        W71917  18.663   3.807   1.929
12624W        W71918  41.802   2.254   3.253
12625W        W71919  43.919  17.627  14.287
12626W        W71920  18.737  21.749  12.834
12627W        W71921  17.168  10.277  13.886
12628W        W71922   7.197   3.353   5.103
12629W        W71923  37.901  20.583   1.398
12630W        W71924  19.633  23.117   3.169
12631W        W71925   3.298  38.892   2.321
12632W        W71926  27.576  26.002   4.615
12633W        W71927   1.262   7.795   1.899
12634W        W71928  43.301   2.840  11.908
12635W        W71929  33.399  15.675  12.420
12636W        W71930  13.240  37.001  14.762
12637W        W71931  18.669  10.331  13.888
12638W        W71932  27.111  18.122   1.403
12639W        W71933   9.301  33.048  14.014
12640W        W71934   0.394  12.667   2.254
12641W        W71935  36.538  17.172   3.666
12642W        W71936  14.166  27.544  14.305
12643W        W71937  42.325  23.222   4.625
12644W        W71938  38.448  31.423  10.917
12645W        W71939   2.290  23.626   1.718
12646W        W71940  23.588  12.786  13.342
12647W        W71941  40.976  44.913  13.333
12648W        W71942  40.920   0.922  13.890
12649W        W71943  35.599   9.172   0.954
12650W        W71944  32.397  20.124  12.562
12651W        W71945  36.069  26.508  11.104
12652W        W71946   5.764  12.269  13.011
12653W        W71947  31.547  23.706  12.018
12654W        W71948   6.380   5.305  12.021
12655W        W71949  17.613   8.272   4.697
12656W        W71950  16.304  15.233  14.765
12657W        W71951  17.623  22.175   5.140
12658W        W71952  18.708  10.770  12.468
12659W        W71953   1.974   9.330  11.857
12660W        W71954  36.062  25.536   0.367
12661W        W71955  35.944  30.165  12.427
12662W        W71956  40.441  29.153   3.321
12663W        W71957  10.166  23.722  10.541
12664W        W71958  40.433  41.967  10.540
12665W        W71959  28.153  14.678  12.484
12666W        W71960   3.715  33.121   0.860
12667W        W71961  41.937  16.750  13.003
12668W        W71962  37.001   1.361   0.424
12669W        W71963   4.347  12.749  14.936
12670W        W71964  44.831  29.963  12.413
12671W        W71965   4.229  43.992  12.045
12672W        W71966  16.283  23.098  11.489
12673W        W71967  25.644  34.376  13.810
12674W        W71968  29.027  36.020   9.993
12675W        W71969  28.465  38.500  13.803
12676W        W71970   1.352  32.082  13.373
12677W        W71971  11.165  44.447   0.798
12678W        W71972  19.280   8.403  14.836
12679W        W71973  35.571  34.463  10.457
12680W        W71974  29.606   7.875   1.284
12681W        W71975  26.160  26.618  14.938
12682W        W71976  31.619  35.474   3.663
12683W        W71977  25.630  21.620  11.561
12684W        W71978  22.610  36.362   0.309
12685W        W71979  11.672  26.205   0.254
12686W        W71980  22.023   7.239   1.770
12687W        W71981  27.450  34.002   4.144
12688W        W71982  40.358  13.313  14.946
12689W        W71983  20.740  24.210  10.996
12690W        W71984  32.621   7.786   0.352
12691W        W71985  15.116   3.784   0.908
12692W        W71986  26.147  22.720   4.600
12693W        W71987  24.598  41.873   2.868
12694W        W71988  23.519  21.564  11.461
12695W        W71989   9.221   6.349   0.364
12696W        W71990  16.312  31.510  12.451
12697W        W71991  19.700  21.675   4.705
12698W        W71992  18.627  32.000  13.363
12699W        W71993  19.766   9.336   5.116
12700W        W71994  44.384  33.987   4.312
12701W        W71995  25.691  38.437  13.388
12702W        W71996  38.044  37.053   0.411
12703W        W71997   9.294  23.589   2.301
12704W        W71998  18.153  10.223  14.961
12705W        W71999  16.151  36.949  13.396
12706W        W72000   4.755  11.236  14.027
12707W        W72001  25.539  41.475   5.121
12708W        W72002  20.707  32.551  14.862
12709W        W72003   8.760  33.563   2.708
12710W        W72004  25.146  13.346   0.773
12711W        W72005  23.616  12.362   4.636
12712W        W72006  11.760  32.009   4.752
12713W        W72007  42.375  40.847   2.866
12714W        W72008  39.327  42.308   3.649
12715W        W72009  38.930  16.312   1.442
12716W        W72010  19.108  18.199   4.634
12717W        W72011   4.731  27.628  10.423
12718W        W72012  39.872  37.527   2.685
12719W        W72013  44.942  19.135  14.000
12720W        W72014  41.992  32.968  10.110
12721W        W72015  31.430   0.346  10.588
12722W        W72016  18.143  41.895  11.381
12723W        W72017  26.995  15.317   4.223
12724W        W72018  35.902  36.485  13.896
12725W        W72019  37.879  43.363   4.219
12726W        W72020  28.061   4.740  11.397
12727W        W72021  13.744   0.406   1.369
12728W        W72022   1.884  16.089  11.908
12729W        W72023  43.779  34.459   2.364
12730W        W72024  10.673  33.412  13.451
12731W        W72025  38.360  13.313   3.215
12732W        W72026  38.857  14.181   3.824
12733W        W72027  40.355  38.340   2.400
12734W        W72028   7.331  12.679  10.558
12735W        W72029   6.745  24.486   1.273
12736W        W72030  41.866  26.178  11.053
12737W        W72031  20.547  10.224  10.477
12738W        W72032  17.215  38.944  11.579
12739W        W72033   4.818  38.890  11.546
12740W        W72034   6.208  37.444  14.957
12741W        W72035   2.419   9.174   2.364
12742W        W72036  18.629  28.664  13.454
12743W        W72037  26.114  35.051  11.612
12744W        W72038  37.450  44.813   0.427
12745W        W72039  12.201  13.746   5.276
12746W        W72040   2.349   8.198  14.006
12747W        W72041  35.457  12.709  10.633
12748W        W72042  38.842   6.870   2.895
12749W        W72043  27.567  11.252  11.901
12750W        W72044  24.170  32.911  13.007
12751W        W72045  36.409  17.620  14.303
12752W        W72046  12.718  21.035   3.306
12753W        W72047   6.236   6.182   0.883
12754W        W72048  31.113  23.100  12.484
12755W        W72049  41.530  20.726  13.910
12756W        W72050  24.103  25.571   2.366
12757W        W72051  43.367  10.329  11.545
12758W        W72052  21.152  40.012  11.064
12759W        W72053  19.773  16.201   3.769
12760W        W72054  26.119   1.907  14.338
12761W        W72055  33.556  36.379  11.603
12762W        W72056   6.755  35.018  13.547
12763W        W72057  23.110  29.149   0.362
12764W        W72058  26.972  32.907   0.326
12765W        W72059  39.059  32.074  12.083
12766W        W72060  25.044  37.472  14.904
12767W        W72061  15.260  11.266  11.026
12768W        W72062  40.303  43.452  10.560
12769W        W72063   1.949  33.964  11.122
12770W        W72064   8.239   9.774   4.335
12771W        W72065   8.690  34.502  13.534
12772W        W72066  32.933  30.122  13.856
12773W        W72067  43.504  29.141  11.969
12774W        W72068  12.358  30.630  12.384
12775W        W72069  18.295  13.792  13.376
12776W        W72070  32.541  40.376   0.895
12777W        W72071  38.907  33.976  12.903
12778W        W72072  39.968  19.748   4.732
12779W        W72073  13.721  10.151   0.271
12780W        W72074  35.896   8.761  11.505
12781W        W72075  22.028  26.107  11.028
12782W        W72076  42.307  34.508   0.750
12783W        W72077   6.838  18.074   5.198
12784W        W72078  31.995  22.702  11.870
12785W        W72079  36.349  32.957   0.463
12786W        W72080  43.464  10.221  12.347
12787W        W72081  13.709  39.389  13.988
12788W        W72082  35.072  32.011   1.268
12789W        W72083  17.650  28.589   1.835
12790W        W72084  33.981  39.968  13.468
12791W        W72085  44.898  19.656  10.972
12792W        W72086  24.502  22.516   4.734
12793W        W72087  27.620  25.595  12.857
12794W        W72088  18.617  14.673   0.747
12795W        W72089   1.436  22.045   4.730
12796W        W72090  30.147  26.037   4.681
12797W        W72091  11.623  30.577  11.061
12798W        W72092  13.236  40.980  14.877
12799W        W72093   3.733  12.319  10.468
12800W        W72094  26.031  15.219   0.473
12801W        W72095  41.906  36.847  13.984
12802W        W72096  23.183  12.333   1.792
12803W        W72097  19.045  43.784  14.364
12804W        W72098  19.624  16.588  13.331
12805W        W72099   1.378  34.408  14.468
12806W        W72100  43.793  19.230  11.928
12807W        W72101  21.020  36.502   4.220
12808W        W72102   4.928  37.974  11.548
12809W        W72103  26.575  36.911   4.311
12810W        W72104  23.617  35.010   2.290
12811W        W72105   7.251  25.998   4.334
12812W        W72106  43.969  21.104   3.674
12813W        W72107   7.901  22.565   4.654
12814W        W72108  12.226  26.009   4.755
12815W        W72109  42.825   2.328  12.866
12816W        W72110  26.631  40.994  12.438
12817W        W72111  42.843  43.319  10.946
12818W        W72112  34.920  25.542   3.870
12819W        W72113  26.648  39.990   0.813
12820W        W72114  34.470  14.590  11.482
12821W        W72115  32.531   3.788   2.247
12822W        W72116  19.601  44.393   4.771
12823W        W72117  18.111  23.139   2.350
12824W        W72118  24.687   3.799   0.778
12825W        W72119  10.649  14.613  13.337
12826W        W72120  40.376  14.162   9.929
12827W        W72121  11.292  41.402   4.200
12828W        W72122  17.718   2.413   4.242
12829W        W72123  42.374  30.033  14.032
12830W        W72124   1.320  33.604   3.803
12831W        W72125  36.507  17.704   0.751
12832W        W72126  17.732   8.166  13.339
12833W        W72127  22.723  17.557  13.940
12834W        W72128  13.627  27.552  12.823
12835W        W72129   5.868  30.491  12.419
12836W        W72130  37.028  43.496  14.295
12837W        W72131  10.258  19.281   2.826
12838W        W72132  37.078  22.653  14.344
12839W        W72133   2.965   4.368  12.088
12840W        W72134  36.442  38.539   4.623
12841W        W72135  34.939  39.902   1.269
12842W        W72136  38.350  37.504   4.739
12843W        W72137  14.145  11.362  12.862
12844W        W72138  39.999  38.558   2.820
12845W        W72139  18.190  33.604  14.824
12846W        W72140  35.413  10.283  13.931
12847W        W72141  12.638  23.147   2.702
12848W        W72142   7.313   4.280   2.198
12849W        W72143  25.098  23.683  10.470
12850W        W72144  12.335  22.728   2.328
12851W        W72145  41.810  20.756   1.739
12852W        W72146   6.833   2.749   0.839
12853W        W72147  43.324   1.269   1.715
12854W        W72148  28.564  17.157   4.647
12855W        W72149   5.291   1.787  10.437
12856W        W72150  44.390   4.245  12.553
12857W        W72151  14.111  41.830  10.470
12858W        W72152  28.136  12.332   1.353
12859W        W72153   9.238  36.547   4.354
12860W        W72154  23.627  15.112  12.022
12861W        W72155  12.215  42.875   4.636
12862W        W72156  16.241  26.617  12.534
12863W        W72157   2.811   3.268  14.281
12864W        W72158  22.734  28.524  11.912
12865W        W72159   9.889  26.508   4.253
12866W        W72160   2.913  13.646   2.735
12867W        W72161  18.646   5.386  10.467
12868W        W72162  34.462   3.271  11.930
12869W        W72163  26.114  39.484  11.983
12870W        W72164   3.406  40.850  13.809
12871W        W72165  14.242  43.913  13.966
12872W        W72166  19.700  40.451   4.122
12873W        W72167   1.432  12.715   2.303
12874W        W72168  40.369   8.760   9.973
12875W        W72169  40.029  41.375  11.058
12876W        W72170  20.178  42.492  10.476
12877W        W72171  40.025  43.848  14.276
12878W        W72172  41.805  24.034  14.427
12879W        W72173  32.134  27.974   0.801
12880W        W72174  32.076  13.161  14.391
12881W        W72175  32.898  27.639   0.430
12882W        W72176  22.567   5.890   0.917
12883W        W72177  27.594   4.885  14.506
12884W        W72178  34.013  43.013  12.524
12885W        W72179  19.216  37.385   0.306
12886W        W72180  42.779  39.349   3.638
12887W        W72181  15.235   3.230  12.017
12888W        W72182   5.850  33.990   4.302
12889W        W72183  36.488  39.362   1.729
12890W        W72184  43.798  44.932   2.674
12891W        W72185  31.494  23.180   3.291
12892W        W72186  31.618  30.959   1.834
12893W        W72187   8.222  13.263   2.274
12894W        W72188  43.348  40.539   3.637
12895W        W72189  32.047  22.580  14.021
12896W        W72190  13.603  19.648   1.835
12897W        W72191   5.841   9.814   1.721
12898W        W72192   3.429  40.051  12.425
12899W        W72193  16.747  25.084  12.963
12900W        W72194  19.660  10.241  11.396
12901W        W72195   0.479  41.389  11.403
12902W        W72196  42.305  30.488   0.432
12903W        W72197   5.373   4.709  11.413
12904W        W72198  23.029  27.042   1.869
12905W        W72199  34.580  23.525   4.202
12906W        W72200  13.184  13.157  10.984
12907W        W72201  18.087  33.624   4.674
12908W        W72202  28.589  39.987  13.928
12909W        W72203  43.836  44.902  13.346
12910W        W72204  19.261  35.885   2.339
12911W        W72205  31.485  14.319  11.551
12912W        W72206  27.531  19.139   0.889
12913W        W72207   3.431  33.098   0.893
12914W        W72208   4.770   8.233  13.310
12915W        W72209  24.115  32.899  14.990
12916W        W72210  12.189  42.808  12.960
12917W        W72211  42.778  40.824   3.214
12918W        W72212  33.098   7.354   2.711
12919W        W72213  27.064  15.218   0.370
12920W        W72214  11.254  24.178  13.983
12921W        W72215  28.037  29.587  14.763
12922W        W72216   2.750  41.518  12.995
12923W        W72217   4.220   5.891  14.401
12924W        W72218  44.272  29.931  14.890
12925W        W72219   6.340  28.017  10.996
12926W        W72220  12.193  31.070   1.780
12927W        W72221   9.769  39.362   1.390
12928W        W72222  35.401  13.806  13.318
12929W        W72223  34.565   5.927   4.121
12930W        W72224   1.830   5.275   4.749
12931W        W72225   3.232  17.661  12.843
12932W        W72226  11.744  26.164   4.125
12933W        W72227  19.687   2.919  10.562
12934W        W72228  27.597  43.412   4.282
12935W        W72229  42.399  34.435  10.950
12936W        W72230  27.586  14.795   2.411
12937W        W72231  37.571  31.055  13.340
12938W        W72232  43.819  21.029  10.949
12939W        W72233  41.499  11.651   1.914
12940W        W72234   9.313  39.358   1.765
12941W        W72235  43.991   3.388   4.164
12942W        W72236  33.003  41.877   1.282
12943W        W72237  26.132   2.952   4.812
12944W        W72238  12.244  18.072  14.909
12945W        W72239  31.537  34.093   3.782
12946W        W72240  32.488  26.974   1.397
12947W        W72241   2.919  34.452  13.973
12948W        W72242  39.516  13.146  12.083
12949W        W72243  23.523   3.396  13.867
12950W        W72244  41.379  38.839  11.396
12951W        W72245  31.061  15.683   3.222
12952W        W72246  22.510  17.555   0.963
12953W        W72247  38.452  32.097  13.317
12954W        W72248  38.500  21.130   1.753
12955W        W72249  34.974  36.997   2.741
12956W        W72250  33.097  16.645   3.329
12957W        W72251   3.385  21.737   3.708
12958W        W72252  13.754  29.016   3.175
12959W        W72253  44.470  32.047   2.319
12960W        W72254  23.549  19.645  10.462
12961W        W72255  17.198  34.606   3.643
12962W        W72256  26.457  40.380  12.078
12963W        W72257   3.765   6.369  10.918
12964W        W72258  41.960  32.626   2.348
12965W        W72259  29.497   8.813  10.434
12966W        W72260  23.734  27.562   1.256
12967W        W72261  16.600   0.778  10.910
12968W        W72262  12.222   6.922   1.775
12969W        W72263  18.103  10.701   0.889
12970W        W72264  28.105  40.946  14.507
12971W        W72265   4.376  38.383   3.303
12972W        W72266  18.694  43.961  13.314
12973W        W72267  17.231   4.725   1.920
12974W        W72268   3.927   9.350   3.327
12975W        W72269  25.609  39.828  13.523
12976W        W72270  16.589  30.100  11.926
12977W        W72271   9.370  17.750   2.228
12978W        W72272  15.269  30.924  13.794
12979W        W72273  13.672  33.573  12.525
12980W        W72274  27.467  35.098   1.716
12981W        W72275  33.619  17.120  10.466
12982W        W72276  13.610   5.309  12.942
12983W        W72277  32.626  11.631  12.551
12984W        W72278  16.572   5.339   0.816
12985W        W72279  10.751  14.831  12.047
12986W        W72280  10.641  15.270   3.750
12987W        W72281  38.857  16.144  14.795
12988W        W72282  26.176  27.613   4.119
12989W        W72283  42.894  35.988  10.071
12990W        W72284   0.448   1.354   1.262
12991W        W72285   9.348  27.100   4.136
12992W        W72286  28.106  34.539  14.418
12993W        W72287  12.176  41.483   0.443
12994W        W72288  27.674  12.202  13.990
12995W        W72289   3.236   0.480   1.295
12996W        W72290  14.608  22.520  10.544
12997W        W72291  10.324  20.677  10.961
12998W        W72292  26.472   8.175   3.852
12999W        W72293  21.653  32.541   3.301
13000W        W72294  12.330  16.636  13.037
13001W        W72295   0.381  27.022  11.537
13002W        W72296   3.797  26.650   1.927
13003W        W72297  11.711  29.941  14.894
13004W        W72298  16.236  19.177  11.089
13005W        W72299  10.244  29.983  11.112
13006W        W72300  43.304  29.508   0.850
13007W        W72301  34.944  30.006   0.244
13008W        W72302  41.340  14.722  12.003
13009W        W72303   1.335  20.149  14.462
13010W        W72304  44.442  40.447   1.238
13011W        W72305  28.143  24.708  14.319
13012W        W72306  15.213   0.255  12.019
13013W        W72307  44.359  34.402  12.973
13014W        W72308  10.172  36.024   2.744
13015W        W72309   5.384   8.774  12.505
13016W        W72310  35.408  23.126  10.466
13017W        W72311  19.647  30.055   1.385
13018W        W72312   1.823   4.427   4.695
13019W        W72313  26.629  21.173   1.846
13020W        W72314  44.917  30.503  11.583
13021W        W72315  23.498   7.269   1.398
13022W        W72316  36.950  15.659   3.693
13023W        W72317  30.970  30.030   0.819
13024W        W72318  18.673  37.054   2.674
13025W        W72319  24.614  26.611   4.149
13026W        W72320  37.991  14.258  12.398
13027W        W72321  25.632  43.293   1.232
13028W        W72322  40.006   7.796   2.203
13029W        W72323  18.790  15.099  12.936
13030W        W72324   0.751   7.219  14.785
13031W        W72325  24.996   1.749  12.926
13032W        W72326  25.591  37.445   1.434
13033W        W72327  31.912  15.284  11.869
13034W        W72328   5.688  39.382   4.229
13035W        W72329  39.526  25.158  10.975
13036W        W72330  27.663  33.098  12.870
13037W        W72331  24.540  14.203   3.691
13038W        W72332  36.853  40.364  14.764
13039W        W72333  29.454  31.582  14.489
13040W        W72334  29.017   9.816  12.369
13041W        W72335  33.018  36.066   1.406
13042W        W72336  44.358  16.715  13.015
13043W        W72337  37.438  10.294   2.817
13044W        W72338  27.043  12.157   1.870
13045W        W72339  15.581  18.091   4.290
13046W        W72340   6.754  37.025   3.184
13047W        W72341  11.629  40.041   0.266
13048W        W72342  18.054  26.675   1.298
13049W        W72343  11.333   8.798   2.402
13050W        W72344  15.317  24.718  11.449
13051W        W72345  16.790  14.790   2.901
13052W        W72346   5.327  43.447  11.021
13053W        W72347  23.126  38.534  13.347
13054W        W72348  24.606  24.976  12.845
13055W        W72349   0.442  39.551  10.611
13056W        W72350   8.282  41.834   3.382
13057W        W72351   7.884  30.626  14.801
13058W        W72352  16.633   9.651   0.368
13059W        W72353  42.425  35.593   4.202
13060W        W72354   6.251  15.616   4.127
13061W        W72355  13.619  36.585   3.210
13062W        W72356   2.864  10.350  12.090
13063W        W72357  43.834  22.219  14.509
13064W        W72358   2.777  27.150  12.419
13065W        W72359   1.932  11.262   1.398
13066W        W72360  37.436  13.642  11.950
13067W        W72361  28.120   7.313   1.913
13068W        W72362  36.546  26.487   0.763
13069W        W72363  11.755  41.448   3.719
13070W        W72364  33.099  40.053  11.438
13071W        W72365  21.254  28.542  14.875
13072W        W72366  11.862  27.655  14.832
13073W        W72367  32.096   4.364  14.996
13074W        W72368  42.312  38.386  11.606
13075W        W72369   2.383  33.582   0.398
13076W        W72370  37.881  35.005  10.891
13077W        W72371  39.511   4.763   3.278
13078W        W72372  36.949  23.546   3.834
13079W        W72373   3.906  18.587   1.338
13080W        W72374  11.202  39.510   3.647
13081W        W72375  21.048  38.468  13.358
13082W        W72376  30.639  38.524   1.835
13083W        W72377  31.112  11.793  11.493
13084W        W72378  32.889  24.973  14.788
13085W        W72379  28.966  25.674   3.250
13086W        W72380  13.781   2.952   0.287
13087W        W72381   7.791  15.654  12.384
13088W        W72382  11.629  24.996   3.782
13089W        W72383  14.646   3.955  12.001
13090W        W72384  34.381   0.294  11.882
13091W        W72385  14.744  34.470   0.822
13092W        W72386  41.498  19.599  10.482
13093W        W72387   5.817  38.406   1.396
13094W        W72388   7.676   8.273  12.447
13095W        W72389  43.766  22.103   0.406
13096W        W72390   2.770  26.990   3.379
13097W        W72391   2.332  24.506   1.431
13098W        W72392  23.024  36.431  14.349
13099W        W72393  26.983  14.250  14.349
13100W        W72394  30.926  19.611  13.018
13101W        W72395   5.280   7.820  13.998
13102W        W72396  32.949  25.631  12.079
13103W        W72397  21.708  24.655  14.426
13104W        W72398  33.984   7.308  10.473
13105W        W72399  23.147   3.441   2.758
13106W        W72400   0.786  14.677  11.006
13107W        W72401  41.458  20.698   2.317
13108W        W72402   6.796   7.351   4.164
13109W        W72403  10.643  23.002   3.375
13110W        W72404   1.745  19.582  10.541
13111W        W72405  41.974  20.641  14.990
13112W        W72406  21.649  10.739  14.762
13113W        W72407  14.596  40.446   4.237
13114W        W72408  34.906  43.474   2.187
13115W        W72409   9.194  14.736   4.178
13116W        W72410  42.811  28.681  12.341
13117W        W72411  13.120  23.131  11.573
13118W        W72412  42.307  18.773   2.380
13119W        W72413  43.287  20.155   3.251
13120W        W72414   6.799   8.325  11.498
13121W        W72415  42.362   1.446   0.431
13122W        W72416  37.056  29.086   3.365
13123W        W72417   9.329  19.675  10.418
13124W        W72418  25.678  29.963   2.872
13125W        W72419  11.206  38.561   4.749
13126W        W72420  39.427  27.047  12.850
13127W        W72421  28.618  18.274  11.573
13128W        W72422  12.331  36.999   1.296
13129W        W72423  17.725  35.893  12.021
13130W        W72424  15.211  25.075   4.292
13131W        W72425  40.011  29.078   3.288
13132W        W72426  25.171  24.130   0.457
13133W        W72427   9.847  21.608   3.200
13134W        W72428   8.689  29.026   3.640
13135W        W72429  30.111  42.788  14.499
13136W        W72430   6.252  10.309  12.825
13137W        W72431  31.449  23.996   2.766
13138W        W72432  19.745  19.541  13.817
13139W        W72433   1.412   1.752   4.620
13140W        W72434  12.349  14.714  12.021
13141W        W72435  42.787  31.072  14.816
13142W        W72436  21.653  22.117   2.834
13143W        W72437  29.013  17.717   4.141
13144W        W72438   9.683  19.052   1.756
13145W        W72439  39.016   0.776   1.352
13146W        W72440  35.087   5.884   0.377
13147W        W72441  13.349  39.931  13.001
13148W        W72442  36.007  27.624  10.939
13149W        W72443  26.627  32.923  12.525
13150W        W72444  17.606   9.263   2.795
13151W        W72445  31.433  20.667   2.319
13152W        W72446  33.086   2.831   3.286
13153W        W72447  43.393  35.584   0.347
13154W        W72448  42.991  38.006   2.407
13155W        W72449  11.323   1.823  11.376
13156W        W72450  31.978   2.814  11.487
13157W        W72451  12.358   1.481   1.718
13158W        W72452  24.162  41.448   4.641
13159W        W72453  10.692   8.671  10.989
13160W        W72454  15.637  12.137   4.274
13161W        W72455  11.308  25.652   4.628
13162W        W72456  19.538  26.486   1.906
13163W        W72457  28.059  40.049   1.291
13164W        W72458  41.529  39.901  13.398
13165W        W72459  11.689  14.751   2.763
13166W        W72460   4.746  25.586   2.828
13167W        W72461  20.550  17.180   3.831
13168W        W72462  29.164  38.437   5.159
13169W        W72463  36.895  44.346   2.302
13170W        W72464  29.557  28.544  12.472
13171W        W72465  10.764  43.879   0.801
13172W        W72466  18.635  11.181  15.000
13173W        W72467   2.794   8.275   4.824
13174W        W72468  32.631   0.802  11.465
13175W        W72469   9.873  12.718   4.299
13176W        W72470  30.616   5.742   1.806
13177W        W72471  20.523  41.489   0.253
13178W        W72472  27.483  14.257  13.978
13179W        W72473  36.384  33.120  12.536
13180W        W72474  15.687   7.869   0.836
13181W        W72475   7.836  30.120   4.137
13182W        W72476  33.096   2.899  11.455
13183W        W72477  32.948  13.612   2.367
13184W        W72478  23.226   1.739   3.737
13185W        W72479  28.666  15.215  10.562
13186W        W72480   1.359  37.003  10.442
13187W        W72481  27.188  27.666   0.857
13188W        W72482  15.701   6.212  10.523
13189W        W72483  33.403  32.961   3.750
13190W        W72484   5.770  29.102  13.850
13191W        W72485  26.967  44.879   0.906
13192W        W72486   6.212  26.029   2.741
13193W        W72487  24.723   9.719   5.222
13194W        W72488  31.061  22.668  11.472
13195W        W72489   7.388  15.097  12.450
13196W        W72490  32.963  26.016   0.848
13197W        W72491  10.323  31.014   2.235
13198W        W72492  30.128  42.836  13.967
13199W        W72493   2.918  19.780   2.833
13200W        W72494  42.414  27.673  11.894
13201W        W72495  14.737  25.493   0.247
13202W        W72496  29.539  10.325  12.026
13203W        W72497  11.156  42.869  14.491
13204W        W72498  43.448   4.374   1.246
13205W        W72499  30.126  35.983   2.868
13206W        W72500   8.191  16.587   3.711
13207W        W72501   8.400  29.448   1.927
13208W        W72502   7.337  31.433   0.336
13209W        W72503  31.423  16.758  14.895
13210W        W72504  20.107  24.548   4.812
13211W        W72505   6.283  43.899  11.094
13212W        W72506  44.962  23.645   2.214
13213W        W72507  15.632  14.810  12.091
13214W        W72508  25.074  40.490   3.640
13215W        W72509   6.883  39.472   3.225
13216W        W72510  22.523   1.472   4.601
13217W        W72511  24.159   7.210   0.895
13218W        W72512  40.314  38.964   1.305
13219W        W72513  26.020  44.914   3.849
13220W        W72514   9.180  37.964   2.181
13221W        W72515  21.100  32.495  13.518
13222W        W72516  44.399  35.589   2.737
13223W        W72517  37.964   7.780  10.022
13224W        W72518  17.654  39.462   4.115
13225W        W72519  35.465  44.791   3.291
13226W        W72520  34.410  33.521   1.323
13227W        W72521  11.699  43.461  12.837
13228W        W72522  31.434  16.172   2.741
13229W        W72523   8.775  38.925  11.050
13230W        W72524  12.235  15.724   2.861
13231W        W72525   3.909  39.406  11.549
13232W        W72526  14.699  21.633  12.396
13233W        W72527  41.523  35.476  10.532
13234W        W72528   1.796   9.645   4.646
13235W        W72529  21.641  10.841   3.239
13236W        W72530  26.558   0.409   4.156
13237W        W72531   8.346   7.707   4.217
13238W        W72532  29.585   2.836   1.924
13239W        W72533  44.762  42.491   1.879
13240W        W72534  40.416   8.738  12.494
13241W        W72535   0.274  33.509   4.284
13242W        W72536   9.695  13.247  11.408
13243W        W72537  20.625  21.755  10.909
13244W        W72538  28.509  36.994   0.764
13245W        W72539  30.012   1.298  10.565
13246W        W72540  22.677   0.488  13.436
13247W        W72541  24.721  40.504  14.773
13248W        W72542  36.492  37.876   3.791
13249W        W72543  39.406  41.526   3.277
13250W        W72544  17.266  44.836   0.366
13251W        W72545  33.904  30.638  13.405
13252W        W72546  27.191  32.003   4.130
13253W        W72547  16.692  30.938   0.468
13254W        W72548  22.033  33.565   4.319
13255W        W72549  20.758   7.390   3.300
13256W        W72550  24.593   5.306   9.585
13257W        W72551  10.143  44.283   0.443
13258W        W72552  24.513  16.117   0.907
13259W        W72553  20.056  36.056  11.601
13260W        W72554  42.351   4.865  12.982
13261W        W72555   3.930  44.296   4.243
13262W        W72556  11.710   3.404  11.411
13263W        W72557  24.522  32.042  15.000
13264W        W72558  37.343  22.550  13.001
13265W        W72559  43.842  40.492  10.948
13266W        W72560  27.164  27.979   2.892
13267W        W72561  43.915  42.311   1.929
13268W        W72562  29.927   4.276  11.946
13269W        W72563   3.257   6.208  10.967
13270W        W72564  20.135  26.983  13.899
13271W        W72565   5.783  14.296  13.316
13272W        W72566  24.990  14.137  12.890
13273W        W72567  43.967   8.888  14.821
13274W        W72568  25.151  41.919   2.739
13275W        W72569  40.968   9.858   1.350
13276W        W72570  18.726   1.245  12.023
13277W        W72571   8.244  20.199  14.781
13278W        W72572  16.661  29.135   2.667
13279W        W72573   1.792   4.944   2.702
13280W        W72574   7.336  40.977   4.342
13281W        W72575  33.043  21.055   4.679
13282W        W72576   3.765  37.562  13.979
13283W        W72577   9.644  32.908  13.859
13284W        W72578   6.855  20.120  11.907
13285W        W72579  23.229  23.163   2.260
13286W        W72580   0.832  30.988   1.284
13287W        W72581  30.435   6.753   2.178
13288W        W72582  37.001  10.319  13.051
13289W        W72583  40.812  33.503  12.976
13290W        W72584  31.903  19.553   0.381
13291W        W72585  23.607  21.188  12.505
13292W        W72586  19.053  38.499   3.806
13293W        W72587   2.418  24.226   4.127
13294W        W72588   9.869  43.388   3.151
13295W        W72589  31.921  26.617  10.902
13296W        W72590  23.614  28.152  12.877
13297W        W72591  21.056  24.153   0.379
13298W        W72592  29.441  11.729  14.459
13299W        W72593  11.712  27.038   2.387
13300W        W72594  28.451  23.095  14.866
13301W        W72595  23.993  19.256   2.876
13302W        W72596  36.936   2.746  10.889
13303W        W72597  29.630   0.271   4.690
13304W        W72598  16.268  14.593  12.983
13305W        W72599  19.071  23.083   2.742
13306W        W72600   9.820   7.210  11.947
13307W        W72601  25.562  41.811   4.123
13308W        W72602  29.050   8.237   4.116
13309W        W72603  17.135  41.337   2.238
13310W        W72604  23.169  43.858  10.638
13311W        W72605  44.877  11.131   2.854
13312W        W72606  37.856  42.338  10.552
13313W        W72607  13.201  11.192   4.179
13314W        W72608  12.673  39.555   0.800
13315W        W72609   9.728  31.458   9.926
13316W        W72610   8.665  25.175   0.461
13317W        W72611  28.935   1.802  13.957
13318W        W72612  15.688  14.754  11.561
13319W        W72613  43.502  28.100   4.752
13320W        W72614  26.042  24.121   1.419
13321W        W72615   9.393  26.509  10.617
13322W        W72616  16.664  26.045   1.439
13323W        W72617   4.423   3.459   2.683
13324W        W72618   1.771   5.290   1.362
13325W        W72619  41.932   4.774   1.336
13326W        W72620  41.306   7.374  14.869
13327W        W72621  10.218   4.731  11.057
13328W        W72622  32.585  28.631  10.627
13329W        W72623  26.627  32.618  11.601
13330W        W72624  26.550  41.847   2.772
13331W        W72625  30.148  25.510  14.322
13332W        W72626   7.379   6.751  11.064
13333W        W72627  30.491  44.312   1.891
13334W        W72628  44.937  14.313  10.603
13335W        W72629  16.219  26.552  10.048
13336W        W72630  33.927  26.627  14.306
13337W        W72631  42.354  27.616   4.790
13338W        W72632   3.384  22.242  11.997
13339W        W72633  28.184  18.705   1.219
13340W        W72634  22.244  19.599   4.165
13341W        W72635  36.026   9.798   1.808
13342W        W72636   9.297  31.960   0.734
13343W        W72637  24.690  40.423  10.963
13344W        W72638  11.728  14.097   0.441
13345W        W72639  42.919  37.877  14.774
13346W        W72640  42.427  34.547   1.240
13347W        W72641  26.670  22.016  10.574
13348W        W72642   5.318  23.598   2.343
13349W        W72643   1.313  29.980   4.629
13350W        W72644  31.562  24.143  12.479
13351W        W72645  10.195  25.473   2.709
13352W        W72646  27.068  18.167  13.388
13353W        W72647  12.236  39.403  14.005
13354W        W72648  29.995  20.212   2.239
13355W        W72649   8.168   6.826   4.658
13356W        W72650   6.745  34.480   1.336
13357W        W72651  21.610   8.348  10.590
13358W        W72652   4.431  16.165   2.826
13359W        W72653  35.101  39.383   2.241
13360W        W72654  36.864  10.243   3.163
13361W        W72655  16.782  20.768  11.372
13362W        W72656  13.295  22.238   4.196
13363W        W72657  25.684   7.761  10.578
13364W        W72658  18.758  38.897   3.317
13365W        W72659  30.993  21.573  10.913
13366W        W72660   7.313  33.000   2.686
13367W        W72661  15.159  29.436   3.826
13368W        W72662  27.029  25.482  14.861
13369W        W72663  10.760  19.205   1.780
13370W        W72664   5.341  22.508  11.988
13371W        W72665  38.384  36.878   3.743
13372W        W72666  39.366  23.542  11.936
13373W        W72667   5.749  24.137   1.367
13374W        W72668  17.594   4.901  12.984
13375W        W72669  16.742  27.574  14.792
13376W        W72670  32.892  15.234  11.120
13377W        W72671  26.098  21.058  10.619
13378W        W72672   5.366  16.104   1.737
13379W        W72673   2.922  17.128   2.863
13380W        W72674   9.808  34.551   4.684
13381W        W72675   4.220  35.467   1.754
13382W        W72676  13.764  20.673  11.975
13383W        W72677   8.676  29.664   2.416
13384W        W72678   7.807  15.675  10.066
13385W        W72679   8.188  40.493   1.908
13386W        W72680  16.615   2.809   1.428
13387W        W72681  10.650  15.303   2.367
13388W        W72682  14.301   7.795   3.726
13389W        W72683  32.611  25.062   0.902
13390W        W72684   6.718  31.025   3.223
13391W        W72685  28.017  14.177  11.529
13392W        W72686   8.900  28.959   0.426
13393W        W72687  26.689  33.496   3.803
13394W        W72688   0.913  34.370  10.915
13395W        W72689  33.575   2.433   1.746
13396W        W72690  13.690  23.155   4.763
13397W        W72691  39.324  31.550  11.478
13398W        W72692  27.009  39.926  12.853
13399W        W72693  43.306  14.109   2.727
13400W        W72694   4.800  44.786  11.099
13401W        W72695  26.502  20.628  11.454
13402W        W72696  29.663  22.104  11.888
13403W        W72697  25.538   9.751   5.240
13404W        W72698  41.883   1.351   1.250
13405W        W72699  36.937   8.342  11.019
13406W        W72700  30.597   9.677   2.837
13407W        W72701   2.379  37.448  13.007
13408W        W72702  36.854  33.876   0.755
13409W        W72703  23.167  35.601  11.611
13410W        W72704  35.456  26.585  11.389
13411W        W72705  35.419  30.155   1.772
13412W        W72706  11.256  25.653   0.361
13413W        W72707  20.657  28.452  13.546
13414W        W72708   7.279  33.085   1.709
13415W        W72709  37.858  13.344   1.889
13416W        W72710  34.969   5.824   5.160
13417W        W72711  15.288  17.119  14.314
13418W        W72712   6.203   4.741  14.291
13419W        W72713  40.356  30.086   0.954
13420W        W72714  18.673  28.494   2.386
13421W        W72715   9.844   3.765   1.856
13422W        W72716   1.948   3.861   4.211
13423W        W72717  28.149   4.370  13.995
13424W        W72718  27.185   9.729   0.776
13425W        W72719  16.099  13.750   4.766
13426W        W72720  35.082  14.613   2.829
13427W        W72721  11.249  21.116  10.921
13428W        W72722  43.996   2.385   1.310
13429W        W72723   1.740   4.786   2.238
13430W        W72724  29.132  26.516   3.180
13431W        W72725  39.035  28.634   2.327
13432W        W72726  42.033  10.739  12.362
13433W        W72727  16.205   8.673  13.832
13434W        W72728  13.209  39.343  10.455
13435W        W72729  15.788  13.729   1.427
13436W        W72730  37.471  11.641   0.939
13437W        W72731  37.501  31.055   3.643
13438W        W72732  13.142  37.448   1.339
13439W        W72733   2.924  15.181  11.043
13440W        W72734   6.378  20.245   4.279
13441W        W72735  43.855   3.447  14.968
13442W        W72736   4.361  30.016  13.960
13443W        W72737  28.537   9.293   1.889
13444W        W72738  44.010   9.374   0.470
13445W        W72739  43.351  27.522  14.381
13446W        W72740  16.268  44.406  10.477
13447W        W72741  17.584   7.310  12.066
13448W        W72742  30.628   9.778  14.482
13449W        W72743  42.854  15.277   4.339
13450W        W72744  42.320  18.105   0.413
13451W        W72745   1.339  17.271  10.981
13452W        W72746  32.504  21.649  13.809
13453W        W72747  10.819  38.548  13.012
13454W        W72748  23.508  37.888  11.970
13455W        W72749  40.464  40.333   2.786
13456W        W72750  43.414  34.531   4.619
13457W        W72751  43.307  17.595   3.230
13458W        W72752  31.411  15.792   1.325
13459W        W72753  37.361   2.876  11.034
13460W        W72754   1.250  25.618  13.383
13461W        W72755  44.464  32.943  13.935
13462W        W72756   9.809  31.416   1.434
13463W        W72757  32.618  12.343  13.791
13464W        W72758  15.101  24.022  14.359
13465W        W72759  18.187  40.349   4.277
13466W        W72760  30.163   9.178  11.028
13467W        W72761  15.682  19.578  13.869
13468W        W72762  22.035  34.886   0.352
13469W        W72763  38.985  27.542   1.897
13470W        W72764  38.861   6.705  12.911
13471W        W72765   8.318  21.673   5.136
13472W        W72766  27.162  34.998   4.721
13473W        W72767  14.809   2.243  11.098
13474W        W72768  13.173  30.606   0.936
13475W        W72769  33.411  38.488  10.995
13476W        W72770  40.533   1.811   0.763
13477W        W72771  18.714  44.349   2.784
13478W        W72772  37.861  23.675  13.452
13479W        W72773  44.996  12.331   4.599
13480W        W72774   4.932  17.147   1.366
13481W        W72775  33.098  35.408  11.025
13482W        W72776  39.488  14.104   3.765
13483W        W72777  36.448  30.531   4.677
13484W        W72778  36.890  17.731  12.550
13485W        W72779  24.198  39.984   0.761
13486W        W72780  26.989   8.663   3.735
13487W        W72781   4.317  33.439  12.937
13488W        W72782  29.978  16.308   3.304
13489W        W72783  38.488   0.868   4.165
13490W        W72784  12.855  42.900   1.282
13491W        W72785  43.942  14.608   3.376
13492W        W72786  23.232   5.873  10.918
13493W        W72787  25.059  43.888   2.349
13494W        W72788  28.113  15.595   0.468
13495W        W72789  11.155  27.941   4.149
13496W        W72790  14.208  36.015   4.718
13497W        W72791  14.691  25.123   3.239
13498W        W72792  16.598   6.184   4.237
13499W        W72793  27.009  35.434  12.077
13500W        W72794  38.542   8.860  11.868
13501W        W72795   1.449   4.814   0.436
13502W        W72796  36.035   3.768  11.014
13503W        W72797  12.270  36.458   3.678
13504W        W72798  29.997  27.978  12.867
13505W        W72799   0.291  41.509  13.414
13506W        W72800   9.747   7.900  12.012
13507W        W72801  34.501  22.668   3.669
13508W        W72802  31.951  41.497  13.949
13509W        W72803  12.288  37.430   3.216
13510W        W72804  23.017  20.255   4.648
13511W        W72805  22.723   9.811  14.001
13512W        W72806  10.155  28.987   4.162
13513W        W72807  12.205  12.701   4.722
13514W        W72808  19.112  24.106   3.758
13515W        W72809  31.031  29.484   3.827
13516W        W72810   5.414  25.700  10.973
13517W        W72811  39.350  25.066   1.384
13518W        W72812   1.379  21.104   3.341
13519W        W72813  13.788  36.946  10.511
13520W        W72814  33.408  11.273  10.909
13521W        W72815  18.294  30.517   2.267
13522W        W72816  27.042  13.779   0.876
13523W        W72817   9.856   8.885   2.873
13524W        W72818  11.201   4.842  12.506
13525W        W72819  44.385  41.859   2.194
13526W        W72820  42.484  42.847  11.901
13527W        W72821  42.921  16.764  13.822
13528W        W72822   9.833   0.290  10.094
13529W        W72823  33.895  32.408  12.944
13530W        W72824   3.717   4.790   2.831
13531W        W72825  42.801   0.393  14.432
13532W        W72826  33.502  40.991   4.139
13533W        W72827   1.792   4.382   0.739
13534W        W72828   0.976  13.750  12.033
13535W        W72829  37.861  43.820   4.649
13536W        W72830  21.224  16.682   3.231
13537W        W72831  32.907  36.856   3.670
13538W        W72832  41.867  25.622   1.413
13539W        W72833  13.244  32.497   5.195
13540W        W72834  20.032  19.634   2.806
13541W        W72835  35.555   4.219   1.247
13542W        W72836  38.919  16.080  14.014
13543W        W72837   6.411  40.954   0.299
13544W        W72838  15.127   4.922   1.395
13545W        W72839  14.702  36.453   0.452
13546W        W72840  33.091  19.203  11.949
13547W        W72841  42.976  23.606  14.299
13548W        W72842  26.526  13.608  12.363
13549W        W72843  36.562  17.217   5.201
13550W        W72844  16.640  15.592   2.295
13551W        W72845   0.757  23.527   4.697
13552W        W72846  42.958  30.447  10.583
13553W        W72847   0.759  23.595   0.858
13554W        W72848   8.379  29.990   0.475
13555W        W72849  11.747  38.506   2.296
13556W        W72850  10.364   5.796   9.975
13557W        W72851  41.909  37.882   4.176
13558W        W72852  19.175   5.396   4.216
13559W        W72853  12.174  19.165   0.753
13560W        W72854  32.920  40.485  11.501
13561W        W72855  11.177  36.848  11.515
13562W        W72856  33.070  41.322  13.061
13563W        W72857   0.344  16.734  14.881
13564W        W72858  22.019  12.632  14.311
13565W        W72859  22.160  32.995   0.359
13566W        W72860   5.368  26.507  13.859
13567W        W72861   4.713  11.721   2.670
13568W        W72862   5.817  18.257  11.126
13569W        W72863  13.112   1.910  11.033
13570W        W72864  12.255  23.531  12.048
13571W        W72865  12.275   8.799  11.421
13572W        W72866  35.018  20.097  13.449
13573W        W72867  27.064   1.814  14.480
13574W        W72868  37.041   1.269   2.736
13575W        W72869  25.024  16.207  11.092
13576W        W72870  34.540  26.538  12.857
13577W        W72871   5.831  35.981   4.165
13578W        W72872   0.901  41.310   4.721
13579W        W72873   7.729   8.866   4.309
13580W        W72874  31.972  27.152   0.891
13581W        W72875  30.499  27.186   1.270
13582W        W72876  38.888  35.590  12.009
13583W        W72877   1.272  25.665  12.831
13584W        W72878  23.134  28.649  13.828
13585W        W72879  40.826   5.409   3.152
13586W        W72880  31.937  18.194   4.308
13587W        W72881  37.981  43.887  14.331
13588W        W72882  21.026  28.545   4.218
13589W        W72883  42.975  16.241   4.621
13590W        W72884  19.236  13.172  11.578
13591W        W72885   4.425  40.968   2.804
13592W        W72886  36.857  35.575  11.994
13593W        W72887   2.801   5.301   2.788
13594W        W72888  32.609  12.212  14.340
13595W        W72889   8.394  10.243   0.458
13596W        W72890   3.939   5.926  11.476
13597W        W72891  10.249  25.661  13.481
13598W        W72892  10.796   1.267  10.014
13599W        W72893  39.324  16.738  12.881
13600W        W72894  29.933  19.204  14.497
13601W        W72895   5.298   8.305  11.402
13602W        W72896  14.112  25.076  10.470
13603W        W72897  42.419  15.151   3.162
13604W        W72898  25.207   5.198   2.251
13605W        W72899  15.205  38.507  11.501
13606W        W72900  40.017  20.537  12.828
13607W        W72901  21.581  24.697   3.276
13608W        W72902  20.758  29.174   1.312
13609W        W72903  29.110  14.338   4.192
13610W        W72904  12.296  24.487  11.100
13611W        W72905  35.094  33.124  11.128
13612W        W72906  29.546  17.650   0.259
13613W        W72907  19.697   1.397   0.372
13614W        W72908  26.049  10.814  14.311
13615W        W72909  38.994  29.572   4.775
13616W        W72910   0.852  34.918  11.016
13617W        W72911  24.490   2.894  13.926
13618W        W72912   9.872   1.311   5.109
13619W        W72913  13.167   2.472   2.712
13620W        W72914  12.779  18.139  14.880
13621W        W72915  39.023  11.820   4.824
13622W        W72916   0.956  28.536   0.855
13623W        W72917  20.208   0.860   4.794
13624W        W72918  25.079  37.527   0.279
13625W        W72919  28.029  21.640  11.877
13626W        W72920  13.333  43.305  12.409
13627W        W72921  42.359  23.072  10.480
13628W        W72922  23.598  38.865  13.474
13629W        W72923  20.554  39.442  11.547
13630W        W72924  23.557  32.414  14.026
13631W        W72925   2.313  11.624   3.866
13632W        W72926   5.894  29.665   3.716
13633W        W72927   3.870  33.392  13.451
13634W        W72928   6.387  17.728   4.241
13635W        W72929  19.233  41.487   4.708
13636W        W72930  38.434  26.523   4.129
13637W        W72931   1.300   5.228  14.332
13638W        W72932  39.558  44.006   3.205
13639W        W72933  34.400  27.648   4.346
13640W        W72934  34.465  36.366  11.940
13641W        W72935  32.430  26.608  14.793
13642W        W72936  30.473  32.008   0.771
13643W        W72937  14.114  22.611  12.503
13644W        W72938  17.280  10.798  13.390
13645W        W72939  36.976  19.174   3.766
13646W        W72940  13.295   0.909  13.937
13647W        W72941  44.350  28.644   0.447
13648W        W72942  30.568  24.589   2.740
13649W        W72943  42.410  37.871   3.798
13650W        W72944  31.632  12.714  10.996
13651W        W72945  44.407   1.259   2.331
13652W        W72946  29.170  34.452  11.076
13653W        W72947  16.761   3.803   3.350
13654W        W72948  21.195  36.557   2.794
13655W        W72949  19.571  13.800   0.357
13656W        W72950  14.231  20.769   3.663
13657W        W72951   5.393  23.550  13.921
13658W        W72952  10.780  21.551   0.886
13659W        W72953  34.593  44.990   4.770
13660W        W72954   3.279  16.668  10.972
13661W        W72955  33.612   6.334  13.987
13662W        W72956  28.980  43.923   4.786
13663W        W72957  26.141   5.333   1.862
13664W        W72958  40.459   4.770  12.385
13665W        W72959   6.206  32.897  13.816
13666W        W72960  13.776   3.311   1.773
13667W        W72961   2.425  44.390   3.736
13668W        W72962  22.604  17.118  10.894
13669W        W72963  19.740  36.452  10.479
13670W        W72964  38.439   5.886  10.470
13671W        W72965  32.108  39.854  11.910
13672W        W72966   6.223   2.900  13.799
13673W        W72967  34.009  26.654   1.917
13674W        W72968  16.654  44.978   2.668
13675W        W72969  34.009  26.576  11.594
13676W        W72970   4.722   3.950  13.998
13677W        W72971  41.366  43.450  12.529
13678W        W72972  38.982   7.829  11.548
13679W        W72973  38.521   8.825   5.208
13680W        W72974  35.459  22.251  14.818
13681W        W72975   7.238  19.771   2.367
13682W        W72976  42.369  26.972  12.854
13683W        W72977  27.681  12.247   1.365
13684W        W72978  26.616  15.152  13.903
13685W        W72979  29.124  21.123  13.311
13686W        W72980  35.884  18.257   4.142
13687W        W72981  38.827  13.837  11.927
13688W        W72982  16.797  37.847  12.509
13689W        W72983  13.171  37.341   3.771
13690W        W72984  10.153  10.793   4.770
13691W        W72985  20.701   9.190   1.361
13692W        W72986  11.801  41.366  10.576
13693W        W72987   8.848  34.897   4.708
13694W        W72988  13.677  13.270   2.279
13695W        W72989  15.814  42.497   0.412
13696W        W72990   5.271  42.445   2.815
13697W        W72991  30.086  37.560   0.332
13698W        W72992   9.175  39.895  11.897
13699W        W72993  40.375  19.255  13.367
13700W        W72994   6.753  23.054  14.419
13701W        W72995  30.114  40.971   4.659
13702W        W72996  29.647  35.474   2.856
13703W        W72997   0.969  44.844  11.922
13704W        W72998   3.929  21.133   0.833
13705W        W72999  25.104   7.335  14.974
13706W        W73000  12.245  15.182  11.014
13707W        W73001  34.484   4.380   1.312
13708W        W73002   3.895   3.894  12.902
13709W        W73003   6.708   5.781   2.312
13710W        W73004  32.025  17.178  10.460
13711W        W73005  24.595  28.455   0.243
13712W        W73006  40.842  24.527   4.652
13713W        W73007  36.536  24.988  12.922
13714W        W73008  41.357  32.495  14.025
13715W        W73009   5.729  34.613   3.804
13716W        W73010   6.837  31.973   3.232
13717W        W73011  38.012  14.176   4.784
13718W        W73012   0.902  26.125  14.288
13719W        W73013  17.751  13.154   2.391
13720W        W73014  29.964  32.066  10.456
13721W        W73015  41.928  13.255  10.510
13722W        W73016   2.734  28.475   1.740
13723W        W73017  27.971  42.456  12.944
13724W        W73018  32.960   8.901   0.288
13725W        W73019  29.488   4.887  11.452
13726W        W73020   5.828   4.304   2.792
13727W        W73021   3.933  27.069   1.929
13728W        W73022  33.389  22.129  13.949
13729W        W73023  12.331  11.329  12.858
13730W        W73024  28.031  38.906  13.891
13731W        W73025  10.245  37.497  13.993
13732W        W73026   2.355  32.100   3.849
13733W        W73027  24.624  17.063  11.029
13734W        W73028   4.366  25.678  11.089
13735W        W73029  29.919  16.095  13.868
13736W        W73030  20.547  35.959  11.587
13737W        W73031  27.151  44.765   3.842
13738W        W73032  19.676   2.435   3.259
13739W        W73033  44.878  19.546   3.245
13740W        W73034  32.565  16.796   1.364
13741W        W73035  27.633   9.863   9.535
13742W        W73036   9.882  36.069   1.370
13743W        W73037  25.605   6.257   3.372
13744W        W73038   7.262  21.595   0.937
13745W        W73039  31.631  44.338   3.855
13746W        W73040  14.100   7.227   2.751
13747W        W73041  27.613   1.955  14.337
13748W        W73042  28.443  38.033  12.905
13749W        W73043  33.541  34.982  14.886
13750W        W73044  36.089  14.783  10.973
13751W        W73045   2.440  30.515  13.956
13752W        W73046  33.956  23.103   0.329
13753W        W73047  17.152  20.104  14.967
13754W        W73048  38.936  37.347  12.548
13755W        W73049  44.844  18.086   4.214
13756W        W73050  23.103  25.542   0.791
13757W        W73051  16.264  17.646  13.907
13758W        W73052  19.247  28.021  11.391
13759W        W73053   7.793  32.415   2.862
13760W        W73054   4.265  12.703  14.382
13761W        W73055  29.482   8.746  12.509
13762W        W73056  43.930   4.855  13.994
13763W        W73057  34.914  43.834   4.782
13764W        W73058  37.509  16.161  10.545
13765W        W73059  43.017   7.867  14.927
13766W        W73060  10.715  20.610   0.946
13767W        W73061  17.646  41.818  14.381
13768W        W73062  23.107  23.554   0.821
13769W        W73063  40.469  29.605   3.204
13770W        W73064  42.299  41.790  12.452
13771W        W73065  39.421  34.073  11.880
13772W        W73066  36.488  10.328   1.279
13773W        W73067  14.717   9.654  14.911
13774W        W73068  22.692  31.139   1.410
13775W        W73069  17.263   5.751  12.567
13776W        W73070   4.882  36.435   4.198
13777W        W73071   7.389   9.843   0.876
13778W        W73072  36.556  38.929   2.232
13779W        W73073  30.088  30.470   1.873
13780W        W73074  36.951   3.906  14.816
13781W        W73075  14.184  20.167  14.413
13782W        W73076  42.897  44.304   2.677
13783W        W73077  11.706  35.965   3.662
13784W        W73078  15.689   4.904  12.474
13785W        W73079  13.169  40.000  14.835
13786W        W73080  37.859  24.522   4.837
13787W        W73081  23.660  42.860   5.129
13788W        W73082   9.364  19.213  14.892
13789W        W73083  16.124  22.216   1.842
13790W        W73084  24.996   8.288  14.793
13791W        W73085  42.488  11.272  13.490
13792W        W73086  41.843  21.705   0.741
13793W        W73087  29.986  40.903  14.359
13794W        W73088  43.892  31.057  11.529
13795W        W73089   9.719  26.132  13.902
13796W        W73090   2.817  21.584   1.302
13797W        W73091  20.710   0.757  10.509
13798W        W73092  35.978  29.557  11.059
13799W        W73093  17.675  31.054   2.294
13800W        W73094  41.810  41.906   4.241
13801W        W73095   0.881   9.773  10.415
13802W        W73096  15.763  32.632   1.885
13803W        W73097  13.737   5.808   4.598
13804W        W73098  40.469   8.691  12.078
13805W        W73099   4.268  28.533   3.166
13806W        W73100  25.021  15.269  14.848
13807W        W73101  19.719  38.536  14.465
13808W        W73102  18.121  18.103   1.738
13809W        W73103  21.045  16.147  11.509
13810W        W73104  13.737   4.253  10.489
13811W        W73105  11.298   0.743  10.081
13812W        W73106   3.259  11.269   4.798
13813W        W73107  41.447  37.973   0.432
13814W        W73108  20.124  20.116  12.969
13815W        W73109   4.305  18.231   0.851
13816W        W73110  40.804  27.149  13.829
13817W        W73111  20.064  31.588   4.160
13818W        W73112  21.208   8.173   2.663
13819W        W73113  12.205  28.625   1.416
13820W        W73114  31.499   2.903  11.960
13821W        W73115  41.840  31.964   2.761
13822W        W73116  21.741  16.757  10.589
13823W        W73117  41.871   9.881  12.435
13824W        W73118   4.227  23.107  10.929
13825W        W73119  22.612  12.225  13.392
13826W        W73120  11.777   1.856   2.326
13827W        W73121  43.310  41.312  13.961
13828W        W73122  32.492   1.821   3.216
13829W        W73123  34.969  35.108  12.929
13830W        W73124   9.727   3.408   1.436
13831W        W73125  26.666  38.046   2.178
13832W        W73126  18.578  11.179   3.152
13833W        W73127  42.475  44.882   4.247
13834W        W73128   8.805  20.666   3.226
13835W        W73129  25.705  44.410   3.806
13836W        W73130  12.688   6.701  13.932
13837W        W73131   8.757  41.362  10.963
13838W        W73132   1.936  24.078  14.917
13839W        W73133   4.206  41.443  14.296
13840W        W73134   1.275  14.183   3.266
13841W        W73135  14.309  23.529  10.144
13842W        W73136   9.738  16.765  11.593
13843W        W73137  13.178  39.482   2.304
13844W        W73138  31.988  35.459   0.284
13845W        W73139   6.830  25.694  14.907
13846W        W73140   3.902  38.396   2.390
13847W        W73141  38.050  18.291  14.346
13848W        W73142  13.216   9.283  12.484
13849W        W73143  15.709   3.341  11.485
13850W        W73144   7.379   3.944  14.992
13851W        W73145  26.083   9.160   9.932
13852W        W73146  11.655   2.908  14.465
13853W        W73147  32.530  10.790   3.348
13854W        W73148  10.233  11.845   4.725
13855W        W73149  26.206  44.341   4.832
13856W        W73150   4.374  10.225   4.682
13857W        W73151  18.295   9.163  13.345
13858W        W73152   3.229   9.365  12.538
13859W        W73153  35.014  20.544  13.501
13860W        W73154  10.690  15.165   4.242
13861W        W73155   9.337  30.128   4.773
13862W        W73156  28.574   4.431   3.282
13863W        W73157  26.630  43.860  14.941
13864W        W73158   0.965  25.630   1.236
13865W        W73159  11.867   4.733   3.208
13866W        W73160  22.100  22.587   0.329
13867W        W73161  13.126  16.212   0.441
13868W        W73162  37.349  42.345   4.638
13869W        W73163  10.641  29.962   2.301
13870W        W73164  17.295  36.490  14.931
13871W        W73165  30.971  40.837  10.543
13872W        W73166  28.625  21.734  14.280
13873W        W73167  28.505   6.768  14.784
13874W        W73168  44.310  10.300  14.449
13875W        W73169  34.079  41.957  12.925
13876W        W73170  24.139  44.298  11.860
13877W        W73171  37.524  29.946  12.454
13878W        W73172   6.711   1.930  12.464
13879W        W73173  31.989  37.878   3.152
13880W        W73174   7.667  15.766   2.260
13881W        W73175  28.934  11.815  14.879
13882W        W73176  21.537  27.005  10.513
13883W        W73177   2.722  43.919   1.916
13884W        W73178  10.199   3.759  13.410
13885W        W73179  22.656  31.933   1.717
13886W        W73180  37.957  10.339   2.748
13887W        W73181  17.158  32.588   3.841
13888W        W73182  17.651  26.663   3.264
13889W        W73183  10.813  30.544   0.843
13890W        W73184  13.160  23.021   3.833
13891W        W73185  23.181  13.175   1.417
13892W        W73186  25.974  30.612  14.906
13893W        W73187  17.294   5.872   2.191
13894W        W73188  11.330  35.439   4.615
13895W        W73189  23.531   7.714   5.119
13896W        W73190   5.698  36.530  12.947
13897W        W73191  18.054  31.461   1.765
13898W        W73192  44.394  16.304  12.881
13899W        W73193  32.430  15.770  10.940
13900W        W73194  17.155  18.172   4.340
13901W        W73195  10.300  35.510  14.876
13902W        W73196   2.367  44.774   3.374
13903W        W73197   9.154  23.514  11.576
13904W        W73198  18.735   4.286  10.567
13905W        W73199  15.736  32.930  13.532
13906W        W73200  29.037   0.812  11.931
13907W        W73201  30.136  32.045   0.248
13908W        W73202   5.227  24.587  13.056
13909W        W73203  36.511  41.420   5.091
13910W        W73204  20.076  18.728   0.337
13911W        W73205  12.191  44.380   1.294
13912W        W73206  29.028  15.765   2.261
13913W        W73207  37.909  21.079  14.924
13914W        W73208   7.683  27.664   2.385
13915W        W73209  34.102  21.054   3.741
13916W        W73210  33.018  26.639  10.468
13917W        W73211  11.349  28.160   4.679
13918W        W73212   2.895   2.957   2.821
13919W        W73213  19.244   4.223   1.250
13920W        W73214  13.308  12.677  12.050
13921W        W73215  27.588  15.107   0.397
13922W        W73216   1.963  26.071  12.467
13923W        W73217  19.118  40.878  13.857
13924W        W73218  21.096  17.617  11.504
13925W        W73219  35.432   0.962   4.171
13926W        W73220  36.387  12.354   2.372
13927W        W73221   3.932  17.087  11.483
13928W        W73222  30.471   4.890  14.281
13929W        W73223   6.271   4.716  14.775
13930W        W73224  27.952  20.749  14.020
13931W        W73225  35.466  38.401  10.557
13932W        W73226   1.378   3.771  11.612
13933W        W73227   1.439  12.190  14.386
13934W        W73228  11.194  13.173   3.281
13935W        W73229  22.701   3.325  13.326
13936W        W73230   8.321   4.442   4.741
13937W        W73231  41.967  38.057   3.375
13938W        W73232  18.729  43.890  11.936
13939W        W73233  19.659   8.277   0.292
13940W        W73234  24.495   5.786   1.857
13941W        W73235  10.224   8.295  12.972
13942W        W73236  36.025  25.662   1.327
13943W        W73237  32.588  30.491  13.397
13944W        W73238  13.606  33.459   4.232
13945W        W73239  27.467  19.248  10.406
13946W        W73240  11.205  13.843   2.778
13947W        W73241  34.959  12.688   1.822
13948W        W73242  36.444  44.822   4.224
13949W        W73243  21.577  19.693   3.804
13950W        W73244   0.300  10.330  12.824
13951W        W73245  25.614  19.630  13.470
13952W        W73246   2.323  21.150  14.411
13953W        W73247  27.681  32.032  11.557
13954W        W73248  21.049  16.074   0.766
13955W        W73249  15.759   8.368   4.779
13956W        W73250  14.158   9.736  10.097
13957W        W73251  43.907  27.999  13.328
13958W        W73252  29.530   0.373   3.704
13959W        W73253   4.771  30.572  10.154
13960W        W73254  23.090  40.505  14.470
13961W        W73255   2.260  30.491   2.672
13962W        W73256   2.283   4.417   1.219
13963W        W73257  41.457  43.907   0.762
13964W        W73258  17.654  17.139  13.332
13965W        W73259  23.641  18.680  14.281
13966W        W73260   7.791  12.725  10.641
13967W        W73261  11.182  27.049   3.191
13968W        W73262  33.471  32.561   1.842
13969W        W73263  15.189  35.057  14.889
13970W        W73264   4.811  17.132   0.781
13971W        W73265   4.421  36.551   1.360
13972W        W73266  35.891  15.577  11.567
13973W        W73267  13.295   7.722   4.138
13974W        W73268  10.228  12.856   5.183
13975W        W73269  24.079  17.687  12.878
13976W        W73270   2.727  14.790  12.007
13977W        W73271   6.386   1.403  10.115
13978W        W73272  14.273  38.375   2.347
13979W        W73273   2.366  36.851  10.902
13980W        W73274   3.898   4.448   4.290
13981W        W73275  13.141   3.305  11.595
13982W        W73276  35.098  17.675   3.356
13983W        W73277   3.954  19.256   4.126
13984W        W73278  31.050   0.948  14.369
13985W        W73279  24.148  13.788   0.257
13986W        W73280  43.477  29.057  12.347
13987W        W73281   3.401  29.026   3.799
13988W        W73282   2.787  36.894  13.428
13989W        W73283  41.331  44.325  13.370
13990W        W73284  17.196  25.010  10.603
13991W        W73285  18.737  18.197   2.707
13992W        W73286  41.862  12.793   4.341
13993W        W73287  31.929  19.142  13.458
13994W        W73288   4.417  40.513   3.784
13995W        W73289  33.571  44.406  11.468
13996W        W73290  25.150  16.607  11.584
13997W        W73291  12.835  15.269   0.923
13998W        W73292  30.586  35.548  12.442
13999W        W73293  11.718   3.237   1.879
14000W        W73294  15.627   9.806   2.830
14001W        W73295  42.473  36.076   2.418
14002W        W73296  21.607  22.578  14.303
14003W        W73297  18.676  21.064   0.780
14004W        W73298  27.603  28.975  12.891
14005W        W73299  15.139  22.194   4.646
14006W        W73300  38.919  27.549   4.653
14007W        W73301  21.114  13.647  10.578
14008W        W73302  13.161  18.564   0.824
14009W        W73303  16.697  34.987  13.978
14010W        W73304  40.048  12.246   0.271
14011W        W73305  43.425   0.311   3.737
14012W        W73306   7.401  15.149  14.872
14013W        W73307  40.986   7.197   2.279
14014W        W73308   9.777  33.069   2.748
14015W        W73309  14.178  28.521   2.347
14016W        W73310  35.878   9.842  12.000
14017W        W73311  37.570  24.045  13.020
14018W        W73312  39.985  12.624  11.997
14019W        W73313  17.163  42.958   2.669
14020W        W73314  27.665   1.747  13.498
14021W        W73315  43.410  42.898  12.373
14022W        W73316  26.094  29.047  11.949
14023W        W73317  43.944   3.828   4.816
14024W        W73318  30.154  40.882   4.199
14025W        W73319   3.936   8.231   1.368
14026W        W73320  18.601  21.675  12.412
14027W        W73321   1.366  39.486  10.564
14028W        W73322  36.872   2.960   4.602
14029W        W73323   9.655  20.720  13.309
14030W        W73324  33.924  21.527  14.832
14031W        W73325  36.898  44.900   4.230
14032W        W73326  19.058   9.363  10.502
14033W        W73327  18.112  16.749   0.790
14034W        W73328   1.971  31.054   3.689
14035W        W73329  11.797  21.747  12.980
14036W        W73330  26.128  39.005  14.472
14037W        W73331  28.571  10.780  12.925
14038W        W73332   6.892  23.644  11.085
14039W        W73333  30.637   7.912   0.935
14040W        W73334   9.724  44.781  12.882
14041W        W73335  42.908  16.676  10.475
14042W        W73336  25.631  38.368   4.668
14043W        W73337  39.053  19.663   1.346
14044W        W73338  39.353  15.319  14.317
14045W        W73339  36.054  11.843  10.416
14046W        W73340  11.242  40.848  10.588
14047W        W73341  18.151  21.032   0.271
14048W        W73342  25.172  17.763  14.300
14049W        W73343  35.431  39.479   3.633
14050W        W73344  10.344  14.210   4.813
14051W        W73345   0.450  16.758  13.010
14052W        W73346  20.683  26.620   4.248
14053W        W73347  42.863  32.915  13.904
14054W        W73348  34.083   3.381  12.913
14055W        W73349  22.056   4.381  14.349
14056W        W73350  42.839  23.075   4.756
14057W        W73351  13.184  21.050  12.979
14058W        W73352  29.938  32.497   3.731
14059W        W73353  36.416  16.591  11.400
14060W        W73354  36.370  37.446   1.427
14061W        W73355   0.326  42.909   4.643
14062W        W73356  30.620   3.818  10.913
14063W        W73357   0.396  33.092   1.371
14064W        W73358  26.520   8.804  13.972
14065W        W73359   9.702  20.043   4.216
14066W        W73360  11.837  20.587   1.771
14067W        W73361  40.357  21.516  12.446
14068W        W73362  13.245  20.585  12.829
14069W        W73363  20.623  12.225   4.251
14070W        W73364  20.585  36.528   3.361
14071W        W73365   2.381  34.477  14.500
14072W        W73366  32.577   8.381   2.840
14073W        W73367  16.798   9.307  10.912
14074W        W73368  14.217   1.358   2.346
14075W        W73369  19.723   5.857   3.312
14076W        W73370  32.619  27.620  14.900
14077W        W73371   8.786  19.093  14.353
14078W        W73372  37.431  38.388  14.833
14079W        W73373  16.698  18.195   5.294
14080W        W73374  36.584   0.291  12.997
14081W        W73375  31.638   9.776  10.899
14082W        W73376   6.696  35.461  13.386
14083W        W73377  43.510  19.535  14.847
14084W        W73378   2.302  32.980   1.849
14085W        W73379  44.336  24.126   1.758
14086W        W73380  17.288  38.517   3.742
14087W        W73381  36.847   7.204   3.696
14088W        W73382  19.214  38.545  12.015
14089W        W73383  27.642  40.516  14.327
14090W        W73384   7.279  30.118  13.801
14091W        W73385  12.799   4.756   2.665
14092W        W73386  22.593   0.854   4.638
14093W        W73387  18.056  26.636   2.323
14094W        W73388  19.774  42.884  12.562
14095W        W73389  20.671  28.956  13.891
14096W        W73390  43.491  14.221   4.648
14097W        W73391  16.728  31.944  14.852
14098W        W73392   4.421  41.321   3.650
14099W        W73393  23.724  35.420  12.951
14100W        W73394  36.451  14.326   4.267
14101W        W73395  36.398  43.511  12.897
14102W        W73396  12.117  10.145   0.837
14103W        W73397  38.032  15.810   2.690
14104W        W73398  44.796  20.254   3.774
14105W        W73399  37.087  21.231  10.566
14106W        W73400  26.598  32.949  13.052
14107W        W73401  23.196  26.698   3.310
14108W        W73402  31.447  10.246   2.876
14109W        W73403  33.964  32.003  13.313
14110W        W73404  36.458  20.072   2.322
14111W        W73405  42.922   3.363   0.817
14112W        W73406  36.438  28.123   2.901
14113W        W73407  33.114  41.002   4.138
14114W        W73408  18.070  30.600  11.081
14115W        W73409  18.551  33.412  14.346
14116W        W73410  22.160  40.857  14.992
14117W        W73411  41.480   5.789   0.254
14118W        W73412  28.557  28.138   3.253
14119W        W73413  13.756  31.596   4.293
14120W        W73414  13.163  38.829   5.184
14121W        W73415  30.067  32.447  13.367
14122W        W73416  43.950  12.662  11.421
14123W        W73417  28.161   4.870  14.894
14124W        W73418  25.053  22.652   0.306
14125W        W73419  21.046  36.357  10.542
14126W        W73420  21.522  23.987  12.013
14127W        W73421   5.239   7.869   2.401
14128W        W73422   2.331  12.805  13.925
14129W        W73423  19.682  15.800  11.386
14130W        W73424   5.436  33.555   0.933
14131W        W73425  23.703   3.386   0.848
14132W        W73426  16.183  22.193  12.507
14133W        W73427  31.473  33.000  13.057
14134W        W73428   9.761  13.258   3.351
14135W        W73429  18.771  31.587  11.992
14136W        W73430   9.316  13.620   1.377
14137W        W73431   8.727  30.083   1.419
14138W        W73432  15.680  42.925   3.789
14139W        W73433  10.369  29.139   1.919
14140W        W73434   6.872  32.139  12.918
14141W        W73435  31.427  19.763   4.142
14142W        W73436  36.557  12.160   4.705
14143W        W73437  38.417   2.878  10.460
14144W        W73438  21.169  32.592   2.413
14145W        W73439  25.203  11.668  14.922
14146W        W73440  27.556  15.605  12.575
14147W        W73441  38.373  21.691   0.281
14148W        W73442   8.855   2.888   0.923
14149W        W73443   8.391  29.070  11.403
14150W        W73444   1.424   4.303   0.857
14151W        W73445   2.359   0.903   1.728
14152W        W73446   6.336  20.061  14.437
14153W        W73447  15.196  41.333   1.926
14154W        W73448  44.897  17.684  11.449
14155W        W73449  20.069  16.290   4.282
14156W        W73450   1.776  43.830  11.445
14157W        W73451  42.838  41.484  13.900
14158W        W73452  24.198  43.486  12.914
14159W        W73453  23.236  44.414  12.844
14160W        W73454   5.296  13.133   4.612
14161W        W73455  12.790  31.018  13.012
14162W        W73456  21.019  32.396   0.416
14163W        W73457  16.243  30.544  12.015
14164W        W73458  25.648  10.693  12.532
14165W        W73459  39.909  17.757   4.223
14166W        W73460  39.536   5.688  11.455
14167W        W73461  14.295   8.326   1.909
14168W        W73462  25.652   6.793   2.873
14169W        W73463   2.862  26.020  13.434
14170W        W73464   5.707  34.925  11.929
14171W        W73465  43.820  27.988   3.151
14172W        W73466   9.750  16.283   0.397
14173W        W73467  12.361  22.203  14.500
14174W        W73468  23.152  24.701  13.523
14175W        W73469  12.634  19.085   0.869
14176W        W73470  13.263  13.219   1.377
14177W        W73471   1.851  27.966   4.210
14178W        W73472   3.824   5.427   4.601
14179W        W73473   3.399   4.337  12.998
14180W        W73474   4.232  25.503   0.816
14181W        W73475   8.337   8.371  14.345
14182W        W73476  14.688   3.947   3.851
14183W        W73477  44.357  21.683  10.529
14184W        W73478   7.784  27.536   3.813
14185W        W73479  21.102  26.042   0.806
14186W        W73480  25.069  26.607   3.673
14187W        W73481   5.260  24.693  14.401
14188W        W73482   6.276  12.611  12.888
14189W        W73483   2.323  35.379   1.727
14190W        W73484   6.245  29.622   4.320
14191W        W73485  36.032  11.733  12.096
14192W        W73486  25.025  38.034  10.900
14193W        W73487  20.128  23.019  12.425
14194W        W73488  20.251  27.979   0.838
14195W        W73489   5.347  40.876  10.442
14196W        W73490  35.044  22.075   0.907
14197W        W73491  41.350   1.238   3.758
14198W        W73492  32.457  44.440  12.022
14199W        W73493  15.095  43.787  11.400
14200W        W73494   4.745  12.226   1.356
14201W        W73495  23.653  41.899   0.927
14202W        W73496   2.387   0.285  13.423
14203W        W73497  43.479  37.058   1.923
14204W        W73498  41.973  38.327  12.046
14205W        W73499  29.625  10.373   0.422
14206W        W73500  10.277  16.643  12.554
14207W        W73501   2.814   2.406   3.785
14208W        W73502  15.298  37.830   4.303
14209W        W73503  35.430  24.592  10.980
14210W        W73504  24.166  44.418   0.453
14211W        W73505  29.564  38.878   0.383
14212W        W73506  39.518  25.095  14.307
14213W        W73507   4.935   8.250   3.205
14214W        W73508  23.513  20.740  13.498
14215W        W73509  25.688   5.290   2.823
14216W        W73510  15.662  44.005   3.806
14217W        W73511  44.812   5.395   2.743
14218W        W73512  31.542  39.915  13.462
14219W        W73513  42.386  17.252   4.349
14220W        W73514   2.916  30.107   0.854
14221W        W73515   9.366  28.472  12.499
14222W        W73516  14.324   7.778   4.211
14223W        W73517  13.152   5.285  14.009
14224W        W73518  44.382  14.213   4.603
14225W        W73519  15.192   1.328   3.862
14226W        W73520   2.262  40.456  14.021
14227W        W73521   5.313   4.820  13.863
14228W        W73522  29.955  44.358   1.374
14229W        W73523  29.621  17.067   3.804
14230W        W73524  23.600  21.580  12.351
14231W        W73525  21.604  27.169  12.575
14232W        W73526  31.462  25.070  13.825
14233W        W73527  35.473  30.041  14.339
14234W        W73528  10.717  43.772  10.480
14235W        W73529   3.728  37.937  12.982
14236W        W73530   9.242  41.009   4.124
14237W        W73531  24.547  23.208   2.769
14238W        W73532  15.592   4.757   3.229
14239W        W73533  21.652  13.677   0.407
14240W        W73534  25.075  16.798  10.633
14241W        W73535  15.690  42.412   3.160
14242W        W73536  11.137  34.999   4.211
14243W        W73537  14.164  33.955   1.717
14244W        W73538  40.863  42.967  12.989
14245W        W73539  29.438  30.525   4.750
14246W        W73540  39.946  26.697   4.334
14247W        W73541   0.760  21.539  14.378
14248W        W73542  39.921  42.998   3.734
14249W        W73543  25.519  30.020   0.352
14250W        W73544  16.685   3.237   0.853
14251W        W73545  13.804  21.229   0.287
14252W        W73546   2.896  28.645   2.726
14253W        W73547  17.274  17.752  13.961
14254W        W73548  34.955  12.284  12.950
14255W        W73549  39.404   3.352  10.603
14256W        W73550   8.237  14.200  11.472
14257W        W73551  18.773  30.999   3.159
14258W        W73552   0.474   5.896   1.926
14259W        W73553  39.532  41.018   1.370
14260W        W73554  10.200  11.346  11.860
14261W        W73555  34.075  33.920   2.811
14262W        W73556  22.203  25.600  11.538
14263W        W73557   2.264  30.960  10.504
14264W        W73558  15.762  11.850   2.799
14265W        W73559  13.267  39.514   3.195
14266W        W73560   1.906  27.957  11.079
14267W        W73561  18.573  28.537  12.025
14268W        W73562  11.341  30.621   5.733
14269W        W73563  42.900   2.383   1.442
14270W        W73564  33.128   7.831   5.713
14271W        W73565   3.264   9.273   0.818
14272W        W73566  17.121  37.559   1.332
14273W        W73567  15.225  38.358  14.784
14274W        W73568  44.491  14.678   1.358
14275W        W73569   8.815  11.629  10.433
14276W        W73570  12.198  38.852   3.646
14277W        W73571  33.995  24.195  14.360
14278W        W73572  23.651  11.858  11.884
14279W        W73573  25.637  30.629   1.295
14280W        W73574   2.348   0.336  12.035
14281W        W73575  22.573  12.289   3.709
14282W        W73576  32.063  35.447  12.340
14283W        W73577  21.196  24.626  11.556
14284W        W73578  23.704   4.420  14.984
14285W        W73579  44.781  34.004  14.811
14286W        W73580  44.814   5.823  11.122
14287W        W73581  33.605  38.844   3.180
14288W        W73582  28.522   3.305   1.871
14289W        W73583  15.087  14.223  11.025
14290W        W73584  41.041  21.595  14.764
14291W        W73585  40.000  32.003   0.783
14292W        W73586  31.130  14.642  11.032
14293W        W73587  30.097  36.467   4.212
14294W        W73588  39.991  24.188   3.152
14295W        W73589  15.084   8.362  11.573
14296W        W73590  35.409  15.622   3.360
14297W        W73591  38.525  16.664  12.972
14298W        W73592  17.681  23.553   1.375
14299W        W73593  17.728  35.942  10.948
14300W        W73594  21.662  26.024   3.813
14301W        W73595  30.077  24.149  12.887
14302W        W73596   4.379  30.460  14.493
14303W        W73597   4.755  29.572   1.700
14304W        W73598  43.781   2.470  12.955
14305W        W73599  36.365  15.315   4.819
14306W        W73600  17.290  25.010   2.750
14307W        W73601  38.967   4.215   1.380
14308W        W73602  13.120  26.499   1.806
14309W        W73603  17.648  20.238  12.380
14310W        W73604  12.648  16.100  10.479
14311W        W73605   7.350  42.857   4.615
14312W        W73606  41.033  37.850   4.835
14313W        W73607   8.168   2.905  11.047
14314W        W73608  35.537  35.902  12.849
14315W        W73609  17.723   3.881  11.493
14316W        W73610   1.457  24.015   3.234
14317W        W73611   7.310  33.923   4.771
14318W        W73612  43.397   4.292  11.564
14319W        W73613  18.768  12.242  11.923
14320W        W73614  35.980   3.854  11.519
14321W        W73615  34.044  44.761  13.501
14322W        W73616  10.163  38.465   1.811
14323W        W73617  32.434  40.303  12.404
14324W        W73618  15.723  18.066  12.351
14325W        W73619  15.161  31.999   2.828
14326W        W73620   6.359  14.101   2.372
14327W        W73621  13.687  18.720   2.675
14328W        W73622  35.489   0.820   0.358
14329W        W73623  11.849   4.361  14.371
14330W        W73624   1.787  29.001   0.917
14331W        W73625  28.572  22.508  13.487
14332W        W73626   1.855  30.941   1.748
14333W        W73627  19.040   9.855   1.419
14334W        W73628  27.686  10.190   3.789
14335W        W73629  27.553  35.441  12.438
14336W        W73630  17.678   3.280  11.437
14337W        W73631  39.554  40.481  13.402
14338W        W73632  15.664  17.743  13.889
14339W        W73633   3.766  29.097  14.825
14340W        W73634   7.376  17.219   2.691
14341W        W73635  35.545  38.876  13.056
14342W        W73636   3.431  30.455   4.617
14343W        W73637  30.546  40.497   4.322
14344W        W73638  12.816  37.472  13.420
14345W        W73639  18.178  15.700  11.548
14346W        W73640  44.396  16.597  14.963
14347W        W73641  19.273  33.585  13.461
14348W        W73642  27.153  21.661   0.367
14349W        W73643  19.535  18.764   3.714
14350W        W73644  44.881  24.040  13.027
14351W        W73645   7.377  32.005   5.211
14352W        W73646  39.534  41.462  13.848
14353W        W73647  14.747   0.424  14.031
14354W        W73648  34.392  10.276  14.871
14355W        W73649  25.672  39.556  13.021
14356W        W73650  37.081  38.947  11.583
14357W        W73651  11.369  21.679   1.704
14358W        W73652   4.247  39.554  12.381
14359W        W73653   5.801  26.179   3.771
14360W        W73654  29.583  10.190   2.870
14361W        W73655  19.216   7.306   4.678
14362W        W73656   5.692  32.043  14.980
14363W        W73657  16.169  15.197  14.286
14364W        W73658  30.911  29.085   9.920
14365W        W73659  39.826  22.999  14.783
14366W        W73660  31.615  10.644   1.281
14367W        W73661  44.331  30.413   2.297
14368W        W73662  26.020  37.523   4.308
14369W        W73663  40.008   0.870   0.441
14370W        W73664  32.398  13.617   3.772
14371W        W73665  11.664   1.251  14.790
14372W        W73666  10.251  13.346   1.437
14373W        W73667  42.915  30.425  13.536
14374W        W73668  32.406  34.916  11.891
14375W        W73669  20.160  37.553   1.737
14376W        W73670   1.742  22.138   0.896
14377W        W73671  12.719  21.069  11.459
14378W        W73672  31.630   2.916   2.386
14379W        W73673  11.651  44.430  12.400
14380W        W73674  43.481  36.483  13.406
14381W        W73675  26.675  28.528  12.355
14382W        W73676  38.860  28.538  13.328
14383W        W73677  26.125   8.660   3.852
14384W        W73678  42.938  14.226   2.799
14385W        W73679  14.210  43.840  12.475
14386W        W73680  20.660  43.451   2.769
14387W        W73681  38.472  42.386  13.010
14388W        W73682  23.057  42.797  14.388
14389W        W73683  36.397   2.733   3.252
14390W        W73684  10.222   5.778  13.909
14391W        W73685  42.009  20.150   2.329
14392W        W73686   8.890  25.162  11.067
14393W        W73687  30.980   8.205   0.412
14394W        W73688  39.492  11.687  13.883
14395W        W73689   0.847  42.979   4.326
14396W        W73690   0.488  27.675   1.703
14397W        W73691  33.571  36.591  12.354
14398W        W73692  31.596  22.203   0.801
14399W        W73693  17.176   9.811  13.417
14400W        W73694  26.186  18.284   3.630
14401W        W73695   9.672  41.923   2.375
14402W        W73696  39.950  40.522   3.152
14403W        W73697   1.400  26.489  14.981
14404W        W73698  26.982   1.332  14.896
14405W        W73699  14.111  19.545   2.351
14406W        W73700  41.429  13.205  12.064
14407W        W73701  19.605   6.829  11.556
14408W        W73702  12.812   6.334   3.243
14409W        W73703   8.768  27.071  14.318
14410W        W73704  13.745  25.114   2.744
14411W        W73705  16.247  40.964  12.937
14412W        W73706  24.009   3.264   5.286
14413W        W73707  15.113  36.069   4.621
14414W        W73708  19.199  34.521  12.896
14415W        W73709  33.431  31.026   3.335
14416W        W73710  37.009   0.360  10.921
14417W        W73711   5.896  13.846   4.310
14418W        W73712  36.044  31.491  13.475
14419W        W73713  13.162  14.212   3.665
14420W        W73714  30.504  33.619  12.491
14421W        W73715  16.104  26.461   0.444
14422W        W73716   8.719  32.423  10.546
14423W        W73717  31.478  30.424   3.841
14424W        W73718  17.668  30.424   1.283
14425W        W73719  11.851  31.433   0.731
14426W        W73720  22.579  31.055   0.370
14427W        W73721  33.598   8.282   2.685
14428W        W73722  20.668   1.802  12.888
14429W        W73723  39.811  15.171  14.994
14430W        W73724  41.874  16.727   4.334
14431W        W73725  37.010  34.550   1.384
14432W        W73726  11.631   1.355   2.675
14433W        W73727   3.734  13.346   1.429
14434W        W73728  23.069   2.410   0.846
14435W        W73729  18.556  10.282   9.936
14436W        W73730  43.457  14.621   2.338
14437W        W73731   5.741   4.887   2.715
14438W        W73732   5.850  22.205   4.802
14439W        W73733   7.779  22.648  11.477
14440W        W73734  31.443   5.364   4.733
14441W        W73735   3.409  28.618  14.859
14442W        W73736  33.094  31.635  13.366
14443W        W73737  21.578  20.524  11.110
14444W        W73738  34.101  18.283   0.865
14445W        W73739  25.986  43.304  11.106
14446W        W73740   9.699  22.101   0.475
14447W        W73741  31.544  31.410   1.823
14448W        W73742  30.932  37.530  11.538
14449W        W73743  31.594   5.197   2.773
14450W        W73744  10.178  12.141  12.047
14451W        W73745  13.139   2.393   4.612
14452W        W73746  19.730   2.822  13.370
14453W        W73747  37.565  41.854   0.808
14454W        W73748  26.208  32.992  11.117
14455W        W73749   1.476   5.929   4.654
14456W        W73750  23.591  24.053   0.327
14457W        W73751  35.486   6.325  10.627
14458W        W73752  11.791   2.919  11.038
14459W        W73753   2.297  10.866   1.709
14460W        W73754  38.411   0.811   1.834
14461W        W73755  21.520  32.019   0.745
14462W        W73756  29.560  40.318  14.006
14463W        W73757  17.633  16.301   2.398
14464W        W73758  17.782  42.425  12.438
14465W        W73759  28.006  14.726   2.746
14466W        W73760  23.661  37.571   0.964
14467W        W73761  32.530  40.815   0.947
14468W        W73762  43.776  35.428   4.138
14469W        W73763  43.461   4.430  12.558
14470W        W73764  36.083  25.621  11.560
14471W        W73765  10.844   6.413  13.413
14472W        W73766  32.537  33.043   0.861
14473W        W73767  29.937  26.997   0.472
14474W        W73768   9.679  28.509   0.247
14475W        W73769   1.277  37.412  13.449
14476W        W73770  17.185  32.921  13.841
14477W        W73771  13.216  30.050   2.815
14478W        W73772   6.376  11.639  13.320
14479W        W73773  20.253  44.829  10.591
14480W        W73774  27.684  31.956  14.275
14481W        W73775  22.521  23.547  14.326
14482W        W73776  34.073  43.934   0.737
14483W        W73777  21.643   1.327   0.843
14484W        W73778  42.489  38.941   2.675
14485W        W73779  16.264  20.543  13.021
14486W        W73780  29.442  37.570   1.800
14487W        W73781   9.722   0.424  11.058
14488W        W73782  19.773  20.261   0.892
14489W        W73783   3.802   5.851   1.428
14490W        W73784  11.690  35.061   2.745
14491W        W73785  36.385   2.344   2.669
14492W        W73786  39.339  38.847  11.874
14493W        W73787   7.347   3.452  13.004
14494W        W73788  17.164   7.325   0.831
14495W        W73789   8.403   3.800  10.472
14496W        W73790  39.029   0.754  10.094
14497W        W73791  40.345  24.134   3.718
14498W        W73792  28.183  10.183   2.902
14499W        W73793  19.215  16.110  12.342
14500W        W73794   9.304  39.494  12.967
14501W        W73795  44.824  34.898  10.537
14502W        W73796  10.867   5.725   3.770
14503W        W73797  15.704  18.682  10.644
14504W        W73798  34.018  28.141  14.013
14505W        W73799  25.605   1.924  12.414
14506W        W73800  26.175  17.711  11.096
14507W        W73801  18.059  40.863  12.536
14508W        W73802  39.902   4.372  13.988
14509W        W73803   1.247  36.981  11.104
14510W        W73804  24.714  28.603   0.922
14511W        W73805  10.662  41.504  14.896
14512W        W73806  39.381  17.126   3.188
14513W        W73807  44.857  25.007   3.351
14514W        W73808  17.578  35.361   1.332
14515W        W73809   4.794   6.266  14.294
14516W        W73810  16.240  11.672  11.488
14517W        W73811  32.630  10.700  11.933
14518W        W73812  15.588  28.449  14.021
14519W        W73813  20.690  27.177   2.238
14520W        W73814   9.309  36.425   3.832
14521W        W73815   5.812  28.966  14.764
14522W        W73816  15.596  31.101  11.516
14523W        W73817  25.664  25.100   1.733
14524W        W73818  21.258  14.738   3.839
14525W        W73819  39.465   1.394  11.056
14526W        W73820   8.805   9.248   0.874
14527W        W73821  17.288  23.164  12.369
14528W        W73822  10.645  28.043   1.250
14529W        W73823  16.074  23.999   2.696
14530W        W73824  10.169  23.142  12.371
14531W        W73825  32.035  30.122   4.606
14532W        W73826  14.127  35.474  10.430
14533W        W73827  23.611  13.156  11.534
14534W        W73828   3.822  30.998   3.784
14535W        W73829  33.546  30.114   2.861
14536W        W73830  44.821  29.035  10.623
14537W        W73831   6.188  29.127  11.011
14538W        W73832  31.942   4.287  10.063
14539W        W73833  32.485  34.373   3.334
14540W        W73834  24.522   3.864  11.537
14541W        W73835  24.672  36.552  10.973
14542W        W73836  15.630  30.656   4.670
14543W        W73837  19.768  31.644  12.978
14544W        W73838  18.609  39.942   2.239
14545W        W73839  42.461  12.146   1.882
14546W        W73840  14.725  16.164   4.285
14547W        W73841   1.788   8.821   3.175
14548W        W73842  25.506  40.981   0.804
14549W        W73843  17.584  20.222  13.884
14550W        W73844  10.217   7.338  13.982
14551W        W73845   1.260  38.553  11.514
14552W        W73846  29.647   8.200  10.511
14553W        W73847  15.725  37.895   1.298
14554W        W73848   6.222   2.821  14.431
14555W        W73849  10.264  37.832   0.392
14556W        W73850  15.292  14.184   0.317
14557W        W73851  21.070  26.531  14.776
14558W        W73852  10.758   8.303   1.434
14559W        W73853   7.236   5.694  14.417
14560W        W73854  21.139  14.590  10.929
14561W        W73855  29.166  35.423  12.506
14562W        W73856   2.748  15.804   0.933
14563W        W73857  32.517   9.660  10.644
14564W        W73858  12.636  39.861   3.177
14565W        W73859  38.949  11.632  13.481
14566W        W73860  10.229   9.224   5.260
14567W        W73861  20.610   9.872   4.159
14568W        W73862  18.701   7.676   1.935
14569W        W73863  30.135  13.272   1.876
14570W        W73864   0.783  17.074   2.297
14571W        W73865  17.752  13.331  13.042
14572W        W73866   1.472  43.321  12.084
14573W        W73867  18.127  32.550   4.332
14574W        W73868  14.663  35.521   2.371
14575W        W73869  43.795   3.948   3.781
14576W        W73870  30.548   3.789  11.377
14577W        W73871  18.142  18.738   1.806
14578W        W73872  44.310  25.646  13.525
14579W        W73873  22.606  38.554   4.305
14580W        W73874  37.437  24.172   2.758
14581W        W73875  21.513   6.265   0.945
14582W        W73876  13.171  26.976  11.551
14583W        W73877   6.264  30.013  14.931
14584W        W73878  26.574  24.150   2.183
14585W        W73879  22.012  26.628  10.061
14586W        W73880  43.510   5.333  12.842
14587W        W73881  11.150  20.765  12.375
14588W        W73882   5.905  29.443   2.308
14589W        W73883  40.464  10.786  12.857
14590W        W73884   9.281  35.886   2.704
14591W        W73885   0.786  44.009  14.436
14592W        W73886  30.935  34.418  12.868
14593W        W73887  28.938  25.035  11.879
14594W        W73888  31.404  17.623  14.005
14595W        W73889  28.678   6.246  10.546
14596W        W73890  30.517  37.581   4.284
14597W        W73891  10.731  27.479   0.248
14598W        W73892  24.975  23.609  12.508
14599W        W73893  32.030  21.634   2.206
14600W        W73894  36.498  12.170  12.987
14601W        W73895  14.154  30.009   4.783
14602W        W73896  44.437  14.596  12.411
14603W        W73897  38.563  34.557   3.217
14604W        W73898  42.334  34.927   1.315
14605W        W73899  21.168  41.461   4.248
14606W        W73900  24.109  40.960   2.867
14607W        W73901  29.968  42.891   3.286
14608W        W73902   1.887  29.453  12.002
14609W        W73903  26.017  37.061  14.925
14610W        W73904  31.468  36.892  12.364
14611W        W73905  11.849  22.083  12.498
14612W        W73906  17.558  23.993  10.107
14613W        W73907  39.515  13.306  14.331
14614W        W73908  18.632  12.342   2.859
14615W        W73909  44.922   9.380   2.784
14616W        W73910  16.273  28.004   1.853
14617W        W73911  32.431  20.616   1.846
14618W        W73912  29.523  32.490   4.131
14619W        W73913   7.693  29.639   3.153
14620W        W73914  20.094  16.214  10.918
14621W        W73915  16.189  17.746  10.911
14622W        W73916  40.004  27.666   1.760
14623W        W73917  25.972  17.732   0.467
14624W        W73918   4.773  40.833  12.505
14625W        W73919  27.137  29.006   4.340
14626W        W73920   5.689  11.269   4.810
14627W        W73921  44.987  21.680   4.325
14628W        W73922  15.324   6.787   2.375
14629W        W73923  39.486  32.919  13.967
14630W        W73924  28.160   1.744   3.352
14631W        W73925   9.238  39.418  14.789
14632W        W73926   5.196  36.895  11.466
14633W        W73927  19.132   1.238   0.777
14634W        W73928  19.060  25.172  13.798
14635W        W73929  15.800  31.540   4.164
14636W        W73930  18.633  19.067  11.127
14637W        W73931  44.896  33.493   2.373
14638W        W73932  23.498  31.907  14.329
14639W        W73933  36.534  14.291  11.473
14640W        W73934  35.555  21.614  13.389
14641W        W73935  24.646  35.926   1.272
14642W        W73936  26.125  17.307  12.001
14643W        W73937   5.415   6.804   3.856
14644W        W73938   4.449   3.855   2.195
14645W        W73939  13.159  34.378   4.659
14646W        W73940  42.904  26.188   1.807
14647W        W73941  29.092  34.491  14.982
14648W        W73942  28.663  19.728   4.626
14649W        W73943  22.206  43.334   3.853
14650W        W73944  25.189  32.445   4.624
14651W        W73945  13.292   2.784  10.472
14652W        W73946   6.869  42.350   0.305
14653W        W73947   1.436  43.456  14.853
14654W        W73948  35.045  43.800   2.839
14655W        W73949  23.558  25.469   1.756
14656W        W73950  11.272  13.235  13.872
14657W        W73951  17.281   9.151   0.857
14658W        W73952   3.946  44.336  12.907
14659W        W73953  12.281  22.175   3.350
14660W        W73954  40.352  36.002   3.259
14661W        W73955  18.102   2.246  10.487
14662W        W73956   9.168  34.930  10.613
14663W        W73957  12.181  14.738   0.747
14664W        W73958  26.181  33.994  12.385
14665W        W73959  25.551  30.591   0.916
14666W        W73960  12.729  32.115  10.916
14667W        W73961   4.336  44.854  11.421
14668W        W73962   8.342  36.410   2.704
14669W        W73963  12.164  18.257  10.995
14670W        W73964  36.404  24.985  13.399
14671W        W73965  20.131  39.443  10.904
14672W        W73966  16.086  18.569   5.295
14673W        W73967  30.995  21.178  11.598
14674W        W73968  41.928  44.266   2.352
14675W        W73969  38.949  41.969  13.327
14676W        W73970  13.646  41.309  12.469
14677W        W73971  23.215  33.963  14.934
14678W        W73972  15.610   8.897   0.786
14679W        W73973  29.453  19.140  12.839
14680W        W73974  21.645  14.765   2.812
14681W        W73975  35.095  36.064  12.409
14682W        W73976  23.686  30.907  12.408
14683W        W73977  33.538  31.938  13.904
14684W        W73978  44.936  33.886   0.784
14685W        W73979  43.872  35.899   4.218
14686W        W73980  27.639   1.238   4.146
14687W        W73981  36.050  38.831   4.255
14688W        W73982  29.075  16.746  14.358
14689W        W73983  16.168  44.461   3.756
14690W        W73984  40.525   8.336  13.368
14691W        W73985  30.551   7.733  12.028
14692W        W73986  15.179  20.122  12.356
14693W        W73987  37.492  27.108  14.777
14694W        W73988  16.758  35.550   3.660
14695W        W73989  35.018  28.170   1.379
14696W        W73990  31.052   2.793   0.442
14697W        W73991  24.178  11.750   0.940
14698W        W73992  32.487  30.647  14.428
14699W        W73993  27.957  21.128   3.707
14700W        W73994  26.110  16.613  13.311
14701W        W73995  44.992  20.086   4.636
14702W        W73996  41.312  38.397  12.502
14703W        W73997  10.660   0.951  13.356
14704W        W73998   0.883   3.802  11.530
14705W        W73999  33.460  35.990  11.501
14706W        W74000  41.514   7.413  13.342
14707W        W74001  36.520   4.423  14.486
14708W        W74002   1.809  40.963  11.516
14709W        W74003  39.441  17.226   1.719
14710W        W74004   9.794  10.201  12.044
14711W        W74005  10.234  30.128   1.350
14712W        W74006  14.206  36.562  12.070
14713W        W74007  20.071  17.592  12.374
14714W        W74008  18.051  25.967  12.457
14715W        W74009  15.327   0.976  11.055
14716W        W74010   2.306  44.895   4.168
14717W        W74011  11.214  38.926   0.847
14718W        W74012  30.972  24.551   0.466
14719W        W74013   8.852  24.610  11.058
14720W        W74014  35.901  32.045  12.454
14721W        W74015   6.861  31.965   4.223
14722W        W74016   0.448  34.977   4.669
14723W        W74017  11.228  25.120   4.310
14724W        W74018  17.628  22.118   0.916
14725W        W74019  20.688  35.971  14.350
14726W        W74020   4.893  31.466  10.628
14727W        W74021  10.690   0.363   5.588
14728W        W74022  28.463  34.026   3.213
14729W        W74023  12.249  15.266   3.664
14730W        W74024  27.160   4.737   4.251
14731W        W74025  35.428  26.472  12.557
14732W        W74026  24.201   2.298   1.249
14733W        W74027  12.742  28.591  11.485
14734W        W74028  38.410  25.596  12.826
14735W        W74029   2.778  40.521  12.896
14736W        W74030  44.409   9.694   1.879
14737W        W74031  38.349   2.890  13.413
14738W        W74032  19.561  25.710  11.998
14739W        W74033   9.741  38.420  14.505
14740W        W74034   5.899   4.355   3.230
14741W        W74035  23.494  24.658  11.955
14742W        W74036  18.247   7.313  12.902
14743W        W74037   2.282  30.461  11.424
14744W        W74038  25.662   1.907   3.653
14745W        W74039  23.642  37.547   4.817
14746W        W74040  26.121  12.318   3.205
14747W        W74041  37.939  21.205  11.904
14748W        W74042  41.461  15.257   0.747
14749W        W74043  13.694  25.591   0.350
14750W        W74044  10.384  25.054   0.342
14751W        W74045  29.440  20.122  14.457
14752W        W74046   0.476  14.611   4.765
14753W        W74047   4.807  43.387  12.849
14754W        W74048  15.148   0.874  10.409
14755W        W74049  42.996   5.377   5.090
14756W        W74050  16.602  17.785   1.783
14757W        W74051  18.255  23.028  11.516
14758W        W74052  44.926   7.236   3.697
14759W        W74053   6.309   5.783   3.351
14760W        W74054   1.435  20.706  12.395
14761W        W74055  18.255   2.253  13.430
14762W        W74056  14.270  20.242   2.213
14763W        W74057  10.825  43.449   0.957
14764W        W74058   9.301   6.870  11.540
14765W        W74059   0.834   5.250  13.961
14766W        W74060  20.713  42.780  10.516
14767W        W74061  42.912  27.526   4.281
14768W        W74062  28.112   8.276  13.363
14769W        W74063  21.198   6.185   5.296
14770W        W74064   8.245  32.612  12.078
14771W        W74065  23.079  18.727   4.330
14772W        W74066  38.451  30.422  11.535
14773W        W74067   2.234  40.906   1.314
14774W        W74068  27.185  14.247  13.870
14775W        W74069  39.379  31.436   1.825
14776W        W74070  15.177   6.863   3.197
14777W        W74071  18.757  23.132  14.969
14778W        W74072   5.901   0.475   2.394
14779W        W74073  26.527  39.892  12.868
14780W        W74074  30.036  16.194  14.928
14781W        W74075  15.641   7.713   5.209
14782W        W74076  28.004  11.703  14.516
14783W        W74077  30.958  41.912  11.913
14784W        W74078  11.302  36.949  14.290
14785W        W74079   4.358  36.025   1.263
14786W        W74080  30.161   7.208  12.463
14787W        W74081  14.800   0.298   4.235
14788W        W74082  24.040  19.740  13.509
14789W        W74083  38.523  35.420  11.476
14790W        W74084  12.204   0.453  10.471
14791W        W74085  35.903  36.935   2.893
14792W        W74086  32.603   1.867  11.404
14793W        W74087   3.459  42.912   3.763
14794W        W74088  10.827   1.307  14.882
14795W        W74089   2.468  36.480   2.201
14796W        W74090  39.342  28.028   2.195
14797W        W74091  10.307  18.078  12.500
14798W        W74092  32.440   6.338   3.823
14799W        W74093  32.609  40.966   1.223
14800W        W74094   3.831  12.317   0.879
14801W        W74095  17.575   5.365  10.421
14802W        W74096  40.902  17.789  11.550
14803W        W74097  23.993  26.120   4.728
14804W        W74098  15.769   8.261   2.246
14805W        W74099   2.789  24.148  11.444
14806W        W74100  20.126  26.107  14.465
14807W        W74101  18.289  28.519   3.348
14808W        W74102  13.743  40.524  11.575
14809W        W74103  15.697  33.609   3.753
14810W        W74104  12.350   4.427  12.045
14811W        W74105   8.245  27.087   4.678
14812W        W74106  21.247  44.269  12.885
14813W        W74107  27.621  14.222  13.349
14814W        W74108  42.472  18.119  14.391
14815W        W74109  30.557  13.265   2.362
14816W        W74110  24.222  21.719   2.893
14817W        W74111  28.523  23.726  10.902
14818W        W74112  32.514  43.949  10.447
14819W        W74113  19.059  43.974   1.890
14820W        W74114  12.671  20.640   3.165
14821W        W74115  37.516  37.875  13.874
14822W        W74116  32.469  23.716  12.495
14823W        W74117  41.462  41.503   1.892
14824W        W74118  21.588   5.748   2.305
14825W        W74119  31.131  35.086  11.065
14826W        W74120  34.587   4.783   0.395
14827W        W74121  10.294  43.904   3.255
14828W        W74122  19.243  26.667  11.568
14829W        W74123   2.962  41.997  10.619
14830W        W74124   8.348  30.127   4.226
14831W        W74125  32.524  27.555   2.202
14832W        W74126  44.830  44.878   1.283
14833W        W74127  24.230   1.911  14.403
14834W        W74128  34.868  15.083  11.444
14835W        W74129  24.183  30.444  12.523
14836W        W74130  21.226   2.851  13.815
14837W        W74131  32.945   8.161  10.123
14838W        W74132  40.921  20.231  12.995
14839W        W74133  34.923  25.211  11.923
14840W        W74134  17.639  26.102   4.295
14841W        W74135  15.218   9.851   3.156
14842W        W74136  21.726  40.323  11.403
14843W        W74137   7.701  36.998   2.679
14844W        W74138  39.000  28.067  11.440
14845W        W74139  11.133  26.097   1.902
14846W        W74140  13.744  15.654   0.917
14847W        W74141  10.338  27.130   0.474
14848W        W74142  28.183   3.413   4.705
14849W        W74143  42.903  34.043  14.442
14850W        W74144   3.331   2.281  10.570
14851W        W74145  17.637  44.994   4.645
14852W        W74146  42.006   8.290   1.715
14853W        W74147  24.590  15.218  13.838
14854W        W74148  11.750  34.526  11.505
14855W        W74149   2.726   1.945  14.899
14856W        W74150  24.180  27.987  14.808
14857W        W74151  37.398  39.385   0.798
14858W        W74152  22.738  41.798  11.381
14859W        W74153   7.836  18.092   0.810
14860W        W74154  28.498   3.929   4.161
14861W        W74155  21.626  21.657   1.764
14862W        W74156  23.621  10.257   0.926
14863W        W74157  39.550   8.724  13.057
14864W        W74158  17.703   6.409  11.030
14865W        W74159  23.211  22.517   4.835
14866W        W74160  43.422   3.911  11.860
14867W        W74161  24.097  27.195   0.380
14868W        W74162  29.169   6.308  13.545
14869W        W74163  37.382  23.679   2.765
14870W        W74164  40.321  29.594  13.873
14871W        W74165  41.041  35.577   1.338
14872W        W74166  20.559  25.048  14.311
14873W        W74167  33.411  20.715  12.924
14874W        W74168  32.994  39.814  10.960
14875W        W74169  21.033  24.204  12.375
14876W        W74170   9.263  30.516  11.863
14877W        W74171  41.503  23.161   0.902
14878W        W74172  17.796   0.814   2.746
14879W        W74173  44.774  39.055   3.356
14880W        W74174  27.992  29.441   2.755
14881W        W74175  15.773  25.004   3.290
14882W        W74176  39.463  25.522   4.806
14883W        W74177   0.758  17.136   4.302
14884W        W74178  39.488  27.126   4.815
14885W        W74179  12.219  34.504   2.202
14886W        W74180  11.667   4.882   9.920
14887W        W74181   1.309   1.927  11.439
14888W        W74182  23.597  36.535   2.327
14889W        W74183  32.920  11.621   4.803
14890W        W74184  31.428  39.010  10.623
14891W        W74185  11.803   3.255  12.455
14892W        W74186  29.167   1.864  14.353
14893W        W74187   5.716   9.202   4.838
14894W        W74188  20.525   5.900  13.546
14895W        W74189   6.340  31.152  13.002
14896W        W74190  44.410  15.180  11.588
14897W        W74191   1.794  25.102   1.700
14898W        W74192  42.444   6.813  14.769
14899W        W74193  44.943  30.948  11.612
14900W        W74194  36.058  33.957   1.228
14901W        W74195  11.628   6.264  14.400
14902W        W74196  25.648  24.570   0.447
14903W        W74197   2.733   8.676  14.371
14904W        W74198  21.232  17.176  12.577
14905W        W74199   7.851   5.784  10.103
14906W        W74200  18.275  27.160  13.398
14907W        W74201  29.163  31.465  11.124
14908W        W74202   0.429  44.371  12.877
14909W        W74203   4.938  24.034  10.991
14910W        W74204   4.388  43.768  14.416
14911W        W74205  27.507  31.641   2.689
14912W        W74206  42.838  41.854   1.926
14913W        W74207  37.920  31.022   0.333
14914W        W74208   4.341  13.184  14.447
14915W        W74209  22.054  35.926   1.728
14916W        W74210   4.208  35.575   2.808
14917W        W74211  17.249  19.588   3.343
14918W        W74212  43.986  19.151  12.829
14919W        W74213  13.709  41.900  13.540
14920W        W74214  28.177   8.374   4.224
14921W        W74215  18.154  27.003  13.842
14922W        W74216  12.838   1.915   1.823
14923W        W74217  10.320   0.479  12.415
14924W        W74218  34.594  33.552   0.956
14925W        W74219  40.001  13.759   1.242
14926W        W74220   3.783  34.068  11.010
14927W        W74221   5.238  11.345  13.452
14928W        W74222  38.364   9.836   0.259
14929W        W74223  31.034   8.323  10.903
14930W        W74224  14.598   7.204  13.824
14931W        W74225  19.660  31.063   2.302
14932W        W74226  17.289  41.368  13.409
14933W        W74227  37.507  31.465  14.403
14934W        W74228  43.915   3.752   0.749
14935W        W74229  32.477  40.491  11.030
14936W        W74230   8.656  10.319  12.085
14937W        W74231  44.467  29.486  14.315
14938W        W74232  24.481   9.162  11.610
14939W        W74233   5.811  22.684   3.822
14940W        W74234  33.396   5.273  12.069
14941W        W74235  33.572  11.208   5.083
14942W        W74236  40.954  42.316   0.877
14943W        W74237   1.392  44.445  14.852
14944W        W74238  16.244   0.248  11.019
14945W        W74239  23.094  38.566   4.763
14946W        W74240  36.869  42.867  14.881
14947W        W74241   8.812   8.383  11.885
14948W        W74242  42.496   7.908  12.986
14949W        W74243  29.043   4.432   0.364
14950W        W74244  39.450  11.310  10.600
14951W        W74245  35.591  37.938   2.197
14952W        W74246  19.597  22.226   3.213
14953W        W74247  31.121   3.405  12.893
14954W        W74248  23.622  44.001   3.695
14955W        W74249  31.566  24.712   0.726
14956W        W74250   0.824  31.936  12.924
14957W        W74251  17.650  17.556   4.165
14958W        W74252   0.402   8.849  12.965
14959W        W74253  42.285  42.026  14.297
14960W        W74254  10.338  22.200   5.306
14961W        W74255  27.537   8.333   3.711
14962W        W74256   7.349   6.721  14.950
14963W        W74257   6.683  23.059   5.307
14964W        W74258   2.360   8.161   2.830
14965W        W74259   9.755  44.798   3.360
14966W        W74260  17.713   7.239   3.151
14967W        W74261  21.665  22.612   0.765
14968W        W74262  25.604  15.819  14.296
14969W        W74263  22.613  18.205   0.763
14970W        W74264   6.802   0.955  12.913
14971W        W74265   3.874  12.785   4.731
14972W        W74266   2.828  34.005   4.744
14973W        W74267  21.658  16.189   4.688
14974W        W74268   0.754   3.930  12.023
14975W        W74269  44.358  20.671   3.370
14976W        W74270   9.179  19.260   2.372
14977W        W74271  41.858  16.223  13.803
14978W        W74272  32.922  17.583   1.445
14979W        W74273  32.930  37.356   0.438
14980W        W74274  43.356  34.415  10.466
14981W        W74275   2.356   8.404   2.284
14982W        W74276  30.964   1.861   1.899
14983W        W74277   9.321  18.138   3.867
14984W        W74278  30.429  15.272   4.740
14985W        W74279   0.784  15.742  12.084
14986W        W74280  10.381   9.820  11.400
14987W        W74281  34.514   2.948  14.917
14988W        W74282  27.521  21.092   1.831
14989W        W74283   5.867  22.203  14.315
14990W        W74284  39.375  11.625   0.393
14991W        W74285  25.139  10.664   2.811
14992W        W74286   9.229  37.488   1.821
14993W        W74287  32.070  36.458   2.794
14994W        W74288   7.812  25.962  13.443
14995W        W74289  40.336  10.670  13.907
14996W        W74290  40.387  36.887  11.479
14997W        W74291  17.738  23.585   2.846
14998W        W74292   1.746  28.644  12.836
14999W        W74293   7.856  28.182   1.227
15000W        W74294   5.264  28.124  11.073
15001W        W74295   1.393   6.324   2.343
15002W        W74296  19.699   2.230  10.970
15003W        W74297   3.436   6.747   1.905
15004W        W74298  40.532  34.906   3.774
15005W        W74299  34.488  20.102   4.255
15006W        W74300  12.159  13.322  10.456
15007W        W74301   3.950  18.629   2.344
15008W        W74302   0.271  21.190  13.922
15009W        W74303  34.910  39.959   0.898
15010W        W74304  20.178  19.633  13.870
15011W        W74305  41.805  11.684   2.362
15012W        W74306  37.911  37.838   0.450
15013W        W74307  40.493  34.100   4.195
15014W        W74308   7.753  32.605   4.822
15015W        W74309   9.783  10.155   0.384
15016W        W74310  10.327  18.254  11.884
15017W        W74311  11.259  41.350  12.834
15018W        W74312   1.782  33.554   2.389
15019W        W74313  19.172  17.126  11.397
15020W        W74314  10.774  25.990  13.386
15021W        W74315  24.167  33.993  12.369
15022W        W74316  26.680  28.587  10.493
15023W        W74317  35.453  39.432   3.254
15024W        W74318   6.218   2.310  11.993
15025W        W74319  17.179   5.367  13.472
15026W        W74320  10.369  25.216   1.701
15027W        W74321  10.353  14.172   5.134
15028W        W74322  13.643  19.116  14.020
15029W        W74323  15.616  23.987  13.421
15030W        W74324  42.977   8.890   4.610
15031W        W74325  39.814   1.333   0.879
15032W        W74326   5.777  38.463  11.121
15033W        W74327  34.574  41.382   2.239
15034W        W74328   3.899  23.038  14.904
15035W        W74329  41.364  24.118   3.285
15036W        W74330  16.269   6.238   0.815
15037W        W74331  11.738   1.807   4.838
15038W        W74332  15.306  44.277  12.352
15039W        W74333  42.002   3.362   3.665
15040W        W74334  23.986  10.288   4.769
15041W        W74335  22.648  32.496  10.920
15042W        W74336  32.005  41.905   4.354
15043W        W74337  41.314   6.688   1.306
15044W        W74338  44.420  10.301   0.480
15045W        W74339   3.831  17.265  12.378
15046W        W74340  36.077   1.928   0.260
15047W        W74341   0.431  30.421   2.380
15048W        W74342  26.591  25.667   1.229
15049W        W74343  28.983  43.796  11.509
15050W        W74344  29.991   5.850  14.904
15051W        W74345   9.728  30.149   4.240
15052W        W74346  35.037  15.751   3.632
15053W        W74347  17.616  20.084   0.248
15054W        W74348  34.070   9.231   2.668
15055W        W74349  25.555   3.271   5.212
15056W        W74350  27.601  27.094   3.706
15057W        W74351  38.472  32.523   4.116
15058W        W74352  15.216  18.180   2.270
15059W        W74353  42.404  32.467   2.306
15060W        W74354  33.974  18.680   1.279
15061W        W74355  43.287  16.221  12.575
15062W        W74356  41.822  31.997   4.142
15063W        W74357  24.645   7.827  11.086
15064W        W74358  23.673  24.030  11.056
15065W        W74359   8.899  13.129  13.892
15066W        W74360  26.125  36.889   0.761
15067W        W74361  33.391  22.117   0.808
15068W        W74362  23.093  39.374   2.408
15069W        W74363  12.705  11.696   5.804
15070W        W74364   7.786   2.263  14.864
15071W        W74365  21.226   2.373   4.115
15072W        W74366  35.958  15.591  13.039
15073W        W74367  32.569  12.142  10.614
15074W        W74368  20.648  26.006  12.341
15075W        W74369   6.703  14.247  14.885
15076W        W74370   3.947  19.649   2.271
15077W        W74371  19.284  14.312  10.925
15078W        W74372  29.128  37.410  13.987
15079W        W74373  21.623  22.176   0.441
15080W        W74374  13.274  32.985   2.669
15081W        W74375  12.799  36.059   0.482
15082W        W74376  31.061  27.503  13.326
15083W        W74377  25.538  24.038  10.611
15084W        W74378   2.376  37.338  10.606
15085W        W74379  18.118  10.706   4.168
15086W        W74380  30.974   2.749  11.571
15087W        W74381   5.302   5.818  14.954
15088W        W74382  14.236  20.534   3.288
15089W        W74383  41.486   8.404   2.194
15090W        W74384  30.483  37.513  11.559
15091W        W74385  25.687  27.194   2.667
15092W        W74386   5.387  24.010  14.371
15093W        W74387  17.280  38.955   5.127
15094W        W74388   0.261  28.572  10.481
15095W        W74389  41.522  15.109   4.197
15096W        W74390   6.279  13.277  11.461
15097W        W74391  37.404  40.951  11.003
15098W        W74392  42.444  35.053   3.181
15099W        W74393  11.180   3.901  12.434
15100W        W74394  31.607  28.597  12.085
15101W        W74395  38.837   6.814   2.224
15102W        W74396  10.830  38.022  13.386
15103W        W74397  23.507   9.211   3.303
15104W        W74398  38.958  41.299   0.873
15105W        W74399  29.455  44.301  14.890
15106W        W74400  12.630   3.889   3.837
15107W        W74401  20.649  12.304  13.951
15108W        W74402   3.441  35.530   1.285
15109W        W74403  42.417   8.714  11.987
15110W        W74404  31.418   2.744  12.996
15111W        W74405  15.086   2.806  11.857
15112W        W74406  44.285  23.045  13.870
15113W        W74407   3.342  34.061   4.776
15114W        W74408  31.635   1.768   0.443
15115W        W74409  18.585  30.604  14.941
15116W        W74410   9.323  30.458  11.373
15117W        W74411  44.463  37.375   4.677
15118W        W74412  33.483  23.639   5.226
15119W        W74413  21.196  17.768   0.460
15120W        W74414   2.766  16.143  10.529
15121W        W74415  13.251  22.742   0.417
15122W        W74416   6.196  16.232  13.904
15123W        W74417   5.324  32.947   1.754
15124W        W74418  10.811  33.513   0.321
15125W        W74419   5.388  15.161  12.842
15126W        W74420  29.034  13.826  13.962
15127W        W74421  25.968  12.140   0.347
15128W        W74422  23.709  15.222  11.431
15129W        W74423  25.678  33.477  10.146
15130W        W74424  24.619   4.734   2.338
15131W        W74425  43.485  24.673  13.988
15132W        W74426  21.533  23.511  13.828
15133W        W74427   1.786  20.205   3.846
15134W        W74428  26.656  44.420   4.305
15135W        W74429  29.016  11.188  13.344
15136W        W74430  42.407  33.419  11.439
15137W        W74431  30.158  27.678  11.046
15138W        W74432  17.690  24.072  13.410
15139W        W74433   6.779  13.331   0.329
15140W        W74434  36.389  43.902  11.920
15141W        W74435  41.394   9.365   0.418
15142W        W74436   0.425  43.294   4.290
15143W        W74437  16.270  22.516  11.453
15144W        W74438  33.583   7.263   1.929
15145W        W74439  12.813   6.896   2.372
15146W        W74440  25.986  11.677  14.345
15147W        W74441  31.640  29.000  10.427
15148W        W74442  37.021  30.994   0.259
15149W        W74443  23.188  15.247   2.712
15150W        W74444  20.199  35.441  13.395
15151W        W74445   2.413  35.068   0.802
15152W        W74446  31.040   4.267   0.369
15153W        W74447  33.030  23.545   0.736
15154W        W74448  29.566  17.620   4.258
15155W        W74449  10.705   0.471  14.502
15156W        W74450  25.180  22.144  12.026
15157W        W74451   5.694   5.712  13.881
15158W        W74452  20.207   2.466  10.616
15159W        W74453  14.723   0.394  14.400
15160W        W74454  36.957   4.853   4.606
15161W        W74455  15.810  38.570   4.680
15162W        W74456  25.639  16.166  12.847
15163W        W74457  32.626  10.167   1.422
15164W        W74458  37.033  29.951   3.869
15165W        W74459  40.910  14.699   2.235
15166W        W74460  32.478   0.910   1.230
15167W        W74461  32.621  11.822  11.909
15168W        W74462  31.529  26.546  12.092
15169W        W74463  40.311  13.290   1.859
15170W        W74464  34.902  19.189   1.363
15171W        W74465   3.926   6.780   0.892
15172W        W74466  38.063   8.293  14.376
15173W        W74467   2.836  29.557  12.972
15174W        W74468  39.875  38.345   3.220
15175W        W74469  43.816   1.440   1.333
15176W        W74470  29.512   8.847  12.014
15177W        W74471  25.587  29.040   0.252
15178W        W74472  36.354   9.380  14.378
15179W        W74473  36.385  29.961  14.987
15180W        W74474  39.412  17.173  12.873
15181W        W74475  32.125   4.728  11.946
15182W        W74476  18.719  27.494   0.265
15183W        W74477   5.312  10.806  11.046
15184W        W74478  15.641  28.652   1.295
15185W        W74479   1.853  35.915  13.830
15186W        W74480   1.320  11.866   0.738
15187W        W74481  26.588  36.963   1.932
15188W        W74482  22.221  27.990  14.503
15189W        W74483  39.549  22.576  12.046
15190W        W74484  36.979  33.991  12.886
15191W        W74485  42.988  34.534   4.715
15192W        W74486  25.562  29.615  13.990
15193W        W74487  41.821  22.112   2.397
15194W        W74488  33.578  25.673  11.046
15195W        W74489  13.656   2.779   4.151
15196W        W74490  33.892  32.415  11.128
15197W        W74491  21.674  29.624  12.435
15198W        W74492  29.647   0.281  11.451
15199W        W74493   3.350  30.980  12.911
15200W        W74494  44.776  15.219   4.748
15201W        W74495  25.665  31.477  14.920
15202W        W74496   4.255  36.556  12.874
15203W        W74497  38.010  21.625  12.009
15204W        W74498  41.306   5.874   1.757
15205W        W74499   1.972  14.288   3.718
15206W        W74500   8.227  25.701   4.230
15207W        W74501  28.661  17.130   3.668
15208W        W74502  24.579   6.733  12.359
15209W        W74503   0.285  24.583  14.957
15210W        W74504  35.950   4.772  12.409
15211W        W74505   7.848  30.991   3.700
15212W        W74506  23.013  25.505  12.064
15213W        W74507   6.885  11.197  12.375
15214W        W74508   9.219  25.191  13.411
15215W        W74509  14.765  26.071  14.473
15216W        W74510  18.597  42.509  10.920
15217W        W74511  40.936  38.462  13.996
15218W        W74512  43.808   2.918  13.467
15219W        W74513  37.956  10.767  11.409
15220W        W74514  11.625  13.179   0.404
15221W        W74515  20.059  44.817  11.052
15222W        W74516  14.720  14.305   2.716
15223W        W74517   8.292  25.642  10.457
15224W        W74518  19.277  41.506   1.311
15225W        W74519  16.302   3.275   3.152
15226W        W74520  18.086  25.109  13.359
15227W        W74521  14.700   3.872  10.989
15228W        W74522  11.685  11.742  13.954
15229W        W74523  22.220  12.627   2.295
15230W        W74524   1.286  15.784   3.683
15231W        W74525   7.867  43.476   0.328
15232W        W74526  20.629  28.452   2.328
15233W        W74527   0.462   6.867   0.264
15234W        W74528   0.828   1.443  12.456
15235W        W74529   5.693  33.383   3.733
15236W        W74530  36.998  39.484  12.016
15237W        W74531   4.338  20.150  13.514
15238W        W74532  31.033  36.040  12.490
15239W        W74533  25.647   8.842   0.286
15240W        W74534  36.896  43.312  11.564
15241W        W74535  38.845  25.479   2.839
15242W        W74536  43.811  26.121  12.401
15243W        W74537  11.239  22.138   4.763
15244W        W74538   8.884   0.319   3.210
15245W        W74539  15.807  21.534  13.470
15246W        W74540  24.602  19.661   0.748
15247W        W74541   2.917   2.756  11.601
15248W        W74542  26.208  19.256  14.795
15249W        W74543  35.995  15.272   0.741
15250W        W74544  20.093  33.045   4.631
15251W        W74545  40.306  38.933   9.965
15252W        W74546  11.208  19.254  14.420
15253W        W74547  37.580  37.078   4.661
15254W        W74548  32.938  40.400   0.862
15255W        W74549   0.865   3.354   1.313
15256W        W74550  38.907  28.089   1.742
15257W        W74551  28.152  20.540   1.788
15258W        W74552   0.379  43.965   3.852
15259W        W74553  23.239  34.385  12.979
15260W        W74554  29.065  20.269  10.625
15261W        W74555  21.031   9.299   5.278
15262W        W74556  41.421  32.093   2.367
15263W        W74557  16.149  33.544   3.813
15264W        W74558  32.015  20.758  14.806
15265W        W74559   2.856  28.141   3.849
15266W        W74560   7.322  32.923  12.089
15267W        W74561   3.256  14.152  12.032
15268W        W74562  39.013  15.199  11.475
15269W        W74563  27.492   3.256   2.415
15270W        W74564  40.949  27.479   1.695
15271W        W74565  40.371  28.603   3.826
15272W        W74566  22.094  17.088   3.849
15273W        W74567  30.609  11.129  11.608
15274W        W74568  17.276  12.234   0.334
15275W        W74569  27.154  24.218   0.419
15276W        W74570  20.190  41.834   3.747
15277W        W74571   8.389   5.315  10.051
15278W        W74572  25.170  26.102   1.245
15279W        W74573  29.630  19.194  11.578
15280W        W74574  35.984  44.794   0.255
15281W        W74575  21.592  18.651   2.222
15282W        W74576  13.806  31.150   3.279
15283W        W74577   1.738  42.325  12.902
15284W        W74578  24.135  34.066  13.979
15285W        W74579  40.537  17.606   1.361
15286W        W74580  33.973  29.130   4.808
15287W        W74581   7.767  12.747  11.571
15288W        W74582  21.106   9.374   0.783
15289W        W74583  43.767  24.643   3.696
15290W        W74584  33.969  25.187  11.402
15291W        W74585  33.490  12.778  13.490
15292W        W74586  44.880  36.588  10.442
15293W        W74587  41.824  14.654  13.482
15294W        W74588  32.578  15.221  11.079
15295W        W74589   0.801  37.877   1.770
15296W        W74590   0.475  16.101   0.409
15297W        W74591  32.549   2.317  12.828
15298W        W74592  25.999  25.041   4.815
15299W        W74593  33.621   7.242  13.868
15300W        W74594   4.337  36.499  11.930
15301W        W74595  44.443   1.836   3.167
15302W        W74596  16.683  23.569  11.116
15303W        W74597   0.260  14.242   2.746
15304W        W74598  26.551  42.359   3.688
15305W        W74599  39.474   0.407   4.230
15306W        W74600  12.282   0.881  11.967
15307W        W74601   0.416  43.471  12.520
15308W        W74602  44.292  31.607   2.261
15309W        W74603  16.761  29.656   3.214
15310W        W74604  42.351  21.242   4.295
15311W        W74605  43.482  43.003  13.953
15312W        W74606  43.845  19.102   1.419
15313W        W74607  23.209  29.081  13.482
15314W        W74608  34.967  31.435  11.386
15315W        W74609   4.225  20.669   1.860
15316W        W74610   9.828   3.902   2.897
15317W        W74611  17.695   1.381  11.550
15318W        W74612  16.794  19.716   1.263
15319W        W74613  31.561  28.490   4.321
15320W        W74614  41.003  35.041  11.544
15321W        W74615  14.802  16.105  12.965
15322W        W74616  44.903   7.895   2.360
15323W        W74617   5.326  13.137  10.558
15324W        W74618  11.324  42.955  11.507
15325W        W74619   0.391  39.510  13.864
15326W        W74620  42.834  23.201   1.766
15327W        W74621  14.276  21.711   4.227
15328W        W74622  29.080  25.045   4.681
15329W        W74623  22.069  39.324  12.911
15330W        W74624  20.129  27.572  13.907
15331W        W74625   4.442  25.075  14.968
15332W        W74626  21.530  26.053   1.391
15333W        W74627   3.715   1.824   2.270
15334W        W74628  27.477  11.248  11.428
15335W        W74629  11.138   7.806   1.332
15336W        W74630  36.081  19.146  14.333
15337W        W74631  19.743  19.710  13.535
15338W        W74632  25.539  12.289  10.904
15339W        W74633  20.562   8.335   0.266
15340W        W74634   3.434   7.343  11.882
15341W        W74635  14.138  15.160   1.286
15342W        W74636  38.983  27.451   0.878
15343W        W74637  38.824  12.638   3.336
15344W        W74638  13.138  25.176  11.390
15345W        W74639  16.573  30.058   4.233
15346W        W74640  42.792  38.371   0.359
15347W        W74641   3.886  14.756   3.273
15348W        W74642  11.750   5.400   1.347
15349W        W74643  42.391  27.526  12.866
15350W        W74644  17.745   8.849  11.474
15351W        W74645   7.798  44.334   3.737
15352W        W74646  28.638  20.562   4.838
15353W        W74647  27.989  28.468  11.920
15354W        W74648   1.859  17.199  10.627
15355W        W74649  30.613  14.620   5.093
15356W        W74650  37.987  37.407   4.809
15357W        W74651  19.080  38.873  10.049
15358W        W74652  21.206  34.901  13.543
15359W        W74653  21.715  15.780   0.864
15360W        W74654   0.848  39.924   3.870
15361W        W74655   6.883  36.400   4.120
15362W        W74656  32.957   8.849   1.819
15363W        W74657  23.002   4.316  14.494
15364W        W74658  17.688   6.315   3.738
15365W        W74659  28.546  32.976  12.876
15366W        W74660  33.035  27.534   4.125
15367W        W74661  14.183  40.023  13.437
15368W        W74662  18.647  10.334   9.573
15369W        W74663  40.501   4.263   0.727
15370W        W74664  21.225  21.698   3.826
15371W        W74665  11.679   2.943   4.158
15372W        W74666  15.808  18.715   2.896
15373W        W74667   1.815   5.268  10.540
15374W        W74668  27.954   5.748  12.980
15375W        W74669   5.897   1.957   2.268
15376W        W74670  13.335  44.435  13.506
15377W        W74671   0.798  12.779   0.787
15378W        W74672  44.361  24.063  10.441
15379W        W74673  19.661  25.699  12.439
15380W        W74674  10.744   2.333   0.246
15381W        W74675  27.118  36.846  10.934
15382W        W74676  33.558  36.959   4.612
15383W        W74677   3.382   5.391   1.873
15384W        W74678   7.198  16.295   1.748
15385W        W74679  28.109  20.531   0.893
15386W        W74680  43.915  28.059  14.940
15387W        W74681   6.796   5.366   9.622
15388W        W74682   0.860  35.509   3.865
15389W        W74683  32.086  37.869   0.733
15390W        W74684  21.141   7.716   2.301
15391W        W74685  32.123  42.399   1.230
15392W        W74686  18.622  31.122   0.917
15393W        W74687   3.795  38.020   3.807
15394W        W74688  33.894  21.683   1.222
15395W        W74689  26.627  42.999  14.402
15396W        W74690   0.910   3.393   1.823
15397W        W74691  10.690  18.768  13.009
15398W        W74692  41.003  15.621  11.565
15399W        W74693   9.361  38.006  13.061
15400W        W74694  33.059  35.008   1.737
15401W        W74695   5.424  31.422  14.291
15402W        W74696  42.445  33.998   3.650
15403W        W74697   2.953  39.555   0.736
15404W        W74698  32.942  44.495   1.441
15405W        W74699   4.914  14.834  10.602
15406W        W74700  25.596  32.951  14.417
15407W        W74701  38.040  30.966  13.339
15408W        W74702  28.065   0.275  10.529
15409W        W74703  22.109   7.315   3.371
15410W        W74704  14.598  34.923   1.870
15411W        W74705  34.525  42.326  13.965
15412W        W74706  32.604  42.889   0.961
15413W        W74707  37.059  11.183  10.902
15414W        W74708  10.747  23.172   4.746
15415W        W74709  12.218   8.897  14.397
15416W        W74710  43.463  22.646   9.948
15417W        W74711   8.799  25.596  10.494
15418W        W74712  43.829   5.720  14.937
15419W        W74713  23.211  34.444  13.420
15420W        W74714  17.268   1.825   3.854
15421W        W74715  18.104  11.212   1.868
15422W        W74716  41.005   0.345   4.688
15423W        W74717   5.201  23.024  12.856
15424W        W74718  32.049  18.076   0.420
15425W        W74719  28.593  13.180   2.662
15426W        W74720   9.691   0.461  14.483
15427W        W74721  37.486  31.148   4.790
15428W        W74722  33.382  30.523  10.890
15429W        W74723  21.738  39.864  13.356
15430W        W74724  31.640  37.443  10.498
15431W        W74725  40.430  39.484   1.841
15432W        W74726  11.249  15.238  14.993
15433W        W74727   1.372   8.175   0.867
15434W        W74728  29.956   9.786   0.290
15435W        W74729   2.898  29.438   2.381
15436W        W74730  17.746  38.856   2.235
15437W        W74731  42.394  15.186   1.875
15438W        W74732  17.722  37.061  10.497
15439W        W74733  25.993  31.960  11.879
15440W        W74734  40.974   8.843   0.287
15441W        W74735   8.815   6.225   2.261
15442W        W74736  36.883  16.141   2.854
15443W        W74737  15.777   0.916  14.979
15444W        W74738   6.754   1.916   4.812
15445W        W74739   0.881  26.696   0.741
15446W        W74740  30.020   0.760   2.752
15447W        W74741  41.418  10.261   4.683
15448W        W74742  42.353  10.257   0.810
15449W        W74743  26.658   6.698   0.430
15450W        W74744  26.476  23.075   4.820
15451W        W74745  14.241   6.900  12.022
15452W        W74746  28.110  28.102   5.166
15453W        W74747  42.827   9.324  13.433
15454W        W74748  29.940  40.038  10.114
15455W        W74749  42.983  21.208   9.938
15456W        W74750  16.622  33.122   0.868
15457W        W74751  18.790  38.430  10.643
15458W        W74752  41.295  44.851   1.338
15459W        W74753  14.123   2.265  13.879
15460W        W74754  40.932  28.668   4.147
15461W        W74755  32.910  10.141  14.821
15462W        W74756   3.249   1.329   2.665
15463W        W74757  36.525  30.432   5.288
15464W        W74758  30.652  40.867  14.837
15465W        W74759  12.847   7.724  11.522
15466W        W74760   0.986  28.055   3.700
15467W        W74761  40.981   8.684   2.185
15468W        W74762   5.859  36.887  13.407
15469W        W74763  30.069  32.905   3.314
15470W        W74764  42.355  37.984  13.419
15471W        W74765  30.980  28.533   4.795
15472W        W74766  12.169   9.228  12.415
15473W        W74767  24.614  43.307  10.573
15474W        W74768  18.087  35.455   4.614
15475W        W74769  13.212   6.778  13.029
15476W        W74770   5.295  19.211   4.778
15477W        W74771  21.025  37.435  12.896
15478W        W74772  29.007   7.371   3.656
15479W        W74773   3.377   7.319  10.534
15480W        W74774  29.962  11.272   4.730
15481W        W74775   1.267  15.621   1.347
15482W        W74776   0.260  19.145   4.263
15483W        W74777  40.835  25.108  10.901
15484W        W74778  31.035   7.372   1.933
15485W        W74779   6.856  43.379  14.920
15486W        W74780  25.539   5.731   1.877
15487W        W74781  11.641  13.288   1.732
15488W        W74782  10.851   2.266   4.602
15489W        W74783   0.254  25.110   4.275
15490W        W74784  35.859  32.082   1.370
15491W        W74785  22.087   5.925  13.025
15492W        W74786  23.555  25.629   4.135
15493W        W74787  12.267   5.412   2.251
15494W        W74788  44.899  19.203   3.337
15495W        W74789  43.439  35.024   0.331
15496W        W74790  40.822   3.237   3.763
15497W        W74791   4.332  26.088   0.269
15498W        W74792   7.786  26.082   0.850
15499W        W74793  11.146  40.365  11.560
15500W        W74794  30.160  27.144  12.398
15501W        W74795  21.144  31.102  13.530
15502W        W74796  11.730  37.036  14.500
15503W        W74797  17.638  40.918   2.240
15504W        W74798  10.306   7.772   3.829
15505W        W74799  20.534  35.595  11.992
15506W        W74800  34.040   7.191  12.518
15507W        W74801  32.087  14.200  11.462
15508W        W74802   4.321   9.239  13.938
15509W        W74803  13.105  23.208   2.365
15510W        W74804  10.313  14.829   2.352
15511W        W74805   6.690   2.354  11.110
15512W        W74806  32.040  20.206  12.916
15513W        W74807   0.761  36.047   4.603
15514W        W74808   9.827  18.132  11.960
15515W        W74809  13.168  44.966   4.260
15516W        W74810   1.857   4.371  10.486
15517W        W74811  25.484  23.066   2.187
15518W        W74812  28.454  10.783  14.417
15519W        W74813  26.029  44.284   2.685
15520W        W74814  16.113  29.516   1.729
15521W        W74815  29.656  11.865   0.248
15522W        W74816  41.325   1.953  14.475
15523W        W74817  19.213  20.626  10.135
15524W        W74818  16.714  15.195  10.096
15525W        W74819  39.450  10.271  12.941
15526W        W74820  12.782  15.811  14.480
15527W        W74821   3.894  10.328  14.443
15528W        W74822  41.423  16.754   1.252
15529W        W74823  14.624  30.961  13.941
15530W        W74824  44.496  20.123   1.775
15531W        W74825  20.647  29.919  13.020
15532W        W74826  18.052   1.379   3.167
15533W        W74827   0.831  19.749   1.430
15534W        W74828  44.440  39.559   1.306
15535W        W74829  14.205   4.310   1.779
15536W        W74830   6.687   7.289   4.690
15537W        W74831  10.693   4.852  11.918
15538W        W74832  23.233  26.993  11.507
15539W        W74833  30.127  21.045  10.495
15540W        W74834  17.678  17.581   3.198
15541W        W74835  27.539  30.995  11.395
15542W        W74836  44.484   9.317   0.382
15543W        W74837  29.136  43.863   2.204
15544W        W74838  20.186  44.818  12.980
15545W        W74839  40.491  33.402   2.178
15546W        W74840  10.186  37.999   1.237
15547W        W74841  37.902  31.093  14.274
15548W        W74842  19.230   9.677   1.830
15549W        W74843  28.020  23.591   2.319
15550W        W74844   8.868   2.810   1.439
15551W        W74845  28.566  37.924   0.413
15552W        W74846  13.715  44.279   3.719
15553W        W74847  39.920   0.769  13.843
15554W        W74848  35.001  26.537  13.354
15555W        W74849  28.986   1.435   4.671
15556W        W74850  15.602  38.897  11.400
15557W        W74851  40.865  40.007   0.259
15558W        W74852  15.115  22.060   3.755
15559W        W74853   4.815  28.515  14.892
15560W        W74854  26.040   3.413   3.271
15561W        W74855  29.069  23.034  13.543
15562W        W74856  16.634  31.031   1.847
15563W        W74857  29.922  22.652  13.483
15564W        W74858  17.204  10.236   1.264
15565W        W74859   2.442  28.591   2.416
15566W        W74860   7.243   7.292   1.800
15567W        W74861   7.288  32.429  12.996
15568W        W74862  28.003  33.471  10.990
15569W        W74863  24.063   3.917  11.523
15570W        W74864   9.826  27.465   3.360
15571W        W74865  35.098   6.740  13.921
15572W        W74866  27.680   0.264  14.974
15573W        W74867  21.596   8.682  13.530
15574W        W74868  11.799  44.908  10.925
15575W        W74869  12.178   2.329  14.030
15576W        W74870  43.502  24.496   3.283
15577W        W74871  29.664  13.619   4.767
15578W        W74872  22.167   2.963   0.949
15579W        W74873  14.799  24.978  11.039
15580W        W74874  37.483   8.244  12.457
15581W        W74875  41.448  25.564  14.316
15582W        W74876  37.540   7.365   2.785
15583W        W74877   1.750  14.658   3.362
15584W        W74878  39.344  11.780   2.351
15585W        W74879  18.686  30.083   1.412
15586W        W74880   5.298  24.673   1.734
15587W        W74881  10.796  28.130   0.287
15588W        W74882  19.712   6.799   4.628
15589W        W74883  30.953  11.142   2.896
15590W        W74884  19.720   9.884   1.781
15591W        W74885  16.243   5.805  10.993
15592W        W74886  29.089  14.339   3.227
15593W        W74887  42.288  16.271  11.905
15594W        W74888  39.329  40.824   0.372
15595W        W74889  32.932  19.705   5.176
15596W        W74890  10.373  16.717  10.486
15597W        W74891  25.197   7.233  13.479
15598W        W74892  30.928  19.162   0.842
15599W        W74893  23.998  15.227   3.230
15600W        W74894  14.632   0.457   1.845
15601W        W74895  19.767  41.516   4.788
15602W        W74896  19.244  23.682   2.895
15603W        W74897  29.497   7.253  12.895
15604W        W74898  39.479  28.509   0.919
15605W        W74899  26.500   1.816  12.473
15606W        W74900  34.078  18.140  14.493
15607W        W74901  10.736   3.448  10.913
15608W        W74902   9.645  29.670  11.052
15609W        W74903  24.082  40.971   1.814
15610W        W74904   9.821  27.483  12.532
15611W        W74905  42.378   5.870   3.379
15612W        W74906  20.207  41.367  12.413
15613W        W74907   9.355  15.582  14.424
15614W        W74908  25.524   3.279   3.661
15615W        W74909   5.303  19.620   3.680
15616W        W74910  43.414  43.793   4.601
15617W        W74911  37.516  25.649  12.093
15618W        W74912  11.150  15.271   3.633
15619W        W74913   6.327  21.228  10.910
15620W        W74914  31.114  31.090  14.896
15621W        W74915  18.109  16.609  12.075
15622W        W74916   9.291  30.082   9.600
15623W        W74917  17.741   1.281  11.078
15624W        W74918  42.927   6.185   3.192
15625W        W74919  44.896  10.179   3.380
15626W        W74920  28.626  10.331   4.629
15627W        W74921  34.377  30.107  14.355
15628W        W74922  24.213   7.891   4.281
15629W        W74923  11.323  20.054  14.817
15630W        W74924  19.535  22.081  13.939
15631W        W74925  27.470  11.758  14.326
15632W        W74926   4.901  13.221   0.310
15633W        W74927  26.114  18.768   0.883
15634W        W74928  30.505   4.432  11.068
15635W        W74929  28.498  30.058  13.438
15636W        W74930  11.348  19.631   1.214
15637W        W74931  41.909  23.153  12.994
15638W        W74932  38.990  28.070  14.475
15639W        W74933   5.889  16.573  11.949
15640W        W74934  21.101  44.326  12.542
15641W        W74935  41.471  27.549   3.204
15642W        W74936   9.658  10.241   1.414
15643W        W74937  34.441  29.160  12.858
15644W        W74938  41.964  42.434  12.397
15645W        W74939  16.672  10.221   2.363
15646W        W74940  25.490  27.958  14.447
15647W        W74941   6.831  36.471   1.278
15648W        W74942  43.878  22.237  11.536
15649W        W74943   6.682  11.146  11.879
15650W        W74944  32.016  43.897  11.562
15651W        W74945  15.163   5.351  13.534
15652W        W74946  14.674  43.313   0.351
15653W        W74947  39.350  21.694  14.365
15654W        W74948  37.886  31.055   3.845
15655W        W74949  41.391  33.942  13.940
15656W        W74950  15.114   7.725   3.646
15657W        W74951  21.703  42.370  12.839
15658W        W74952  25.146  34.456   0.951
15659W        W74953  18.210  42.502   0.249
15660W        W74954  25.516  26.608   3.676
15661W        W74955  41.400  38.362  13.472
15662W        W74956  15.279  35.603   0.846
15663W        W74957  25.186  44.413   0.381
15664W        W74958  33.530  28.557  10.633
15665W        W74959  43.010  29.081   2.860
15666W        W74960   1.363  31.066  13.033
15667W        W74961   7.865  38.045   2.247
15668W        W74962  37.855  30.492   5.249
15669W        W74963  14.633  23.654  12.985
15670W        W74964  24.637  41.930  13.893
15671W        W74965  21.712  36.886  14.979
15672W        W74966  18.638   8.388   0.421
15673W        W74967  44.467  15.286  14.851
15674W        W74968  30.991   4.360  14.379
15675W        W74969  37.896  31.557  14.869
15676W        W74970  17.743   0.286   1.377
15677W        W74971   4.908  16.741   3.708
15678W        W74972  12.616  19.217   0.377
15679W        W74973   2.780  18.135   0.927
15680W        W74974  18.262  14.721  13.023
15681W        W74975  13.645   3.227  11.405
15682W        W74976  37.355  42.834   0.743
15683W        W74977  26.968  23.169  14.423
15684W        W74978  43.339  21.587  10.582
15685W        W74979  10.247  18.107   2.764
15686W        W74980   3.328  29.633   5.260
15687W        W74981  22.517   9.278   0.776
15688W        W74982  19.256   1.400   3.778
15689W        W74983  13.748  28.983  13.960
15690W        W74984  21.719   5.339  13.893
15691W        W74985   9.172   0.786  14.900
15692W        W74986   9.201  14.106   0.369
15693W        W74987  24.498  42.491   1.299
15694W        W74988  31.126  32.125  14.296
15695W        W74989  25.692  18.157   3.713
15696W        W74990  32.405  37.927   1.416
15697W        W74991  34.052  22.530   4.718
15698W        W74992  43.509  37.930   2.266
15699W        W74993  12.849  31.041   4.198
15700W        W74994  19.042  11.746  11.577
15701W        W74995  16.696  35.012   4.713
15702W        W74996  11.305  42.486  11.600
15703W        W74997  20.583  40.472  12.880
15704W        W74998   5.429  19.628  10.412
15705W        W74999  23.604  37.477  11.015
15706W        W75000  33.889  44.781   1.359
15707W        W75001  41.909  36.932   0.800
15708W        W75002  22.718  26.151  11.869
15709W        W75003  20.057  12.220  12.404
15710W        W75004  12.642   9.162   2.678
15711W        W75005  40.874   6.722   2.699
15712W        W75006  22.513   3.719   4.798
15713W        W75007   0.933  11.804   2.891
15714W        W75008  40.851  36.481   0.727
15715W        W75009  29.994  36.499  11.400
15716W        W75010  41.036  14.271   2.694
15717W        W75011  20.241  31.989  10.063
15718W        W75012   1.256  34.512  11.892
15719W        W75013  38.937   7.297  12.043
15720W        W75014  34.954  13.824   3.648
15721W        W75015   5.308  36.913  13.483
15722W        W75016  38.842  32.449  12.922
15723W        W75017  18.565  35.556  10.631
15724W        W75018   6.771  35.410  12.878
15725W        W75019  32.496  23.573  10.423
15726W        W75020   8.222  18.095   2.708
15727W        W75021  41.945  38.878  14.829
15728W        W75022  35.902  35.421   2.720
15729W        W75023   0.844  24.721  13.890
15730W        W75024  40.388  37.373   5.271
15731W        W75025  41.472  19.678   3.821
15732W        W75026  15.595   7.806  13.336
15733W        W75027  12.285   7.706   3.203
15734W        W75028   0.772  36.936   2.814
15735W        W75029  27.461  27.482   3.274
15736W        W75030  40.446  24.567   1.266
15737W        W75031  21.176  17.659  14.514
15738W        W75032  14.798  25.184   4.182
15739W        W75033  19.610   4.881   3.672
15740W        W75034  24.229  10.269   5.739
15741W        W75035  33.880  41.433   2.340
15742W        W75036   9.196  16.601   4.823
15743W        W75037  11.131  14.626   0.281
15744W        W75038  41.453  37.948   4.283
15745W        W75039  36.916  29.000   3.652
15746W        W75040  29.595  24.657  13.797
15747W        W75041  40.380  12.757  13.454
15748W        W75042  43.785   4.446   3.264
15749W        W75043  11.837  15.619  10.905
15750W        W75044   7.859  12.641  14.347
15751W        W75045  37.854  39.545  14.501
15752W        W75046  32.469   4.770  14.900
15753W        W75047  40.316  11.791   3.762
15754W        W75048   9.288  21.029   2.382
15755W        W75049  11.139  17.744   0.878
15756W        W75050  37.001  36.975  11.446
15757W        W75051  44.398   6.248   4.780
15758W        W75052   3.229   8.399  12.345
15759W        W75053  42.315  22.544   1.298
15760W        W75054  20.657  19.286   2.859
15761W        W75055  35.044  40.521   0.302
15762W        W75056  26.572  33.552   1.433
15763W        W75057  28.581  11.677  13.030
15764W        W75058  12.284   9.245  11.477
15765W        W75059  26.191  23.566  13.999
15766W        W75060  15.655  26.473   0.249
15767W        W75061   5.223  22.644   0.963
15768W        W75062  38.988  22.640  13.859
15769W        W75063  37.541   6.306  14.412
15770W        W75064   4.447  37.032   0.863
15771W        W75065  10.168  26.618   4.283
15772W        W75066   5.801  30.036  12.091
15773W        W75067  44.005   3.827  11.938
15774W        W75068  29.946  13.669   4.318
15775W        W75069   6.271  41.850   1.889
15776W        W75070  13.338  15.680  11.074
15777W        W75071  25.966  11.849  14.000
15778W        W75072  38.997  11.366  11.083
15779W        W75073  15.327  36.871   3.804
15780W        W75074   3.844  31.948   4.149
15781W        W75075  34.881  31.046  10.590
15782W        W75076  36.414   5.833   4.800
15783W        W75077  38.041  39.482   3.376
15784W        W75078  17.558  10.377   2.210
15785W        W75079   3.300  37.037  13.492
15786W        W75080  29.592  18.188   1.256
15787W        W75081  35.862  23.239  13.375
15788W        W75082  37.018   9.271   1.730
15789W        W75083  31.096  39.976  12.492
15790W        W75084  26.040  18.183  12.914
15791W        W75085  14.170   5.716   2.335
15792W        W75086  43.401  17.570   2.317
15793W        W75087  11.630  12.290   2.764
15794W        W75088  37.467  15.207   0.786
15795W        W75089   2.768  30.557   1.798
15796W        W75090   2.819  21.165  10.013
15797W        W75091  19.283   9.281  12.086
15798W        W75092   7.900  36.546  13.997
15799W        W75093  21.656  14.801  11.093
15800W        W75094  26.064  11.274   2.808
15801W        W75095  35.987  26.032  12.093
15802W        W75096  16.770   5.279  13.980
15803W        W75097  33.050  16.691   4.796
15804W        W75098  39.979  38.964   1.835
15805W        W75099  34.032  35.378  10.520
15806W        W75100   0.320   4.831  12.373
15807W        W75101  32.934  37.916   4.126
15808W        W75102  10.228  35.012  10.044
15809W        W75103  18.088  24.160  11.534
15810W        W75104  27.181  18.132  11.417
15811W        W75105  27.132  31.018  11.109
15812W        W75106  13.296  21.528   3.160
15813W        W75107  25.713  25.148  12.991
15814W        W75108  22.068  18.667   4.185
15815W        W75109  26.975  26.087  11.982
15816W        W75110   5.387  34.986  12.390
15817W        W75111   9.707  21.105  14.779
15818W        W75112  42.020   6.286   2.788
15819W        W75113  16.288  41.351   0.772
15820W        W75114   9.797  20.594   4.123
15821W        W75115  27.653  19.577  12.861
15822W        W75116  39.502  38.401   1.917
15823W        W75117  25.707  13.705   2.750
15824W        W75118  44.349  29.508   1.709
15825W        W75119  34.488  14.681   4.129
15826W        W75120  44.413   1.287   1.845
15827W        W75121  33.545  21.730   3.647
15828W        W75122  42.852   3.332   1.818
15829W        W75123  26.036  26.592   0.351
15830W        W75124  17.681  11.749  14.902
15831W        W75125  41.786  12.328   4.281
15832W        W75126  31.134  27.080   3.301
15833W        W75127  29.594  27.638   1.266
15834W        W75128  38.843  13.829  13.544
15835W        W75129   5.720  19.741  12.452
15836W        W75130  35.011  39.363  12.964
15837W        W75131   8.366  25.564  14.848
15838W        W75132  32.998  34.871  13.307
15839W        W75133  27.446  23.116  12.051
15840W        W75134  33.382   8.833   5.285
15841W        W75135  38.849  24.152  10.892
15842W        W75136   8.280  22.707   0.396
15843W        W75137   1.765  21.703   2.389
15844W        W75138  11.140  40.803  12.374
15845W        W75139  12.240  16.670   0.451
15846W        W75140  20.204  11.865  13.925
15847W        W75141  41.850  41.383   1.271
15848W        W75142  26.503   3.859   1.761
15849W        W75143  42.902  23.077   0.819
15850W        W75144  25.656  31.114  14.482
15851W        W75145  11.176  25.177   1.219
15852W        W75146  21.596   3.738   2.366
15853W        W75147  26.003  20.146   3.662
15854W        W75148  26.522  29.488   1.718
15855W        W75149  24.602  10.649   3.188
15856W        W75150  38.050  43.915   1.247
15857W        W75151  14.240  38.396  13.972
15858W        W75152   7.833   7.808  11.523
15859W        W75153  34.465  40.978   3.767
15860W        W75154  30.576  31.497   1.349
15861W        W75155  32.913  21.682   4.795
15862W        W75156  22.023  17.756  11.072
15863W        W75157  15.122  42.378   4.607
15864W        W75158  31.509  40.531   2.312
15865W        W75159  23.078  43.913   3.789
15866W        W75160  27.624  18.680  11.406
15867W        W75161   7.368  26.552  11.407
15868W        W75162  31.500   1.407  13.917
15869W        W75163   4.787  36.846  14.783
15870W        W75164  17.187  34.110  14.362
15871W        W75165  26.008  44.281   1.306
15872W        W75166  28.441  35.554  13.403
15873W        W75167  21.123  36.000   0.864
15874W        W75168  12.305  27.610   1.347
15875W        W75169  10.836  33.051  12.068
15876W        W75170   4.855  38.543  10.586
15877W        W75171  13.624  34.051  11.939
15878W        W75172  23.536  42.458   2.772
15879W        W75173  40.015   9.276   1.353
15880W        W75174  11.357  37.991  12.561
15881W        W75175  14.644  40.521   3.650
15882W        W75176   6.777  38.466  11.872
15883W        W75177   2.432   4.763  14.952
15884W        W75178  24.600  19.251  10.969
15885W        W75179  39.489  27.069   1.416
15886W        W75180  13.333  36.043   1.857
15887W        W75181  24.525  35.920   0.891
15888W        W75182  24.711   3.745  12.533
15889W        W75183  13.701   9.829   4.664
15890W        W75184  28.938   2.304   4.349
15891W        W75185  10.371  44.879   2.825
15892W        W75186  39.000  43.291   1.894
15893W        W75187  26.164  22.741  11.432
15894W        W75188  29.638  11.260   1.422
15895W        W75189   0.864  27.182  10.461
15896W        W75190   9.797  43.313   0.786
15897W        W75191  17.691  23.731  10.950
15898W        W75192  19.543  25.564   5.245
15899W        W75193  24.635  19.748  12.846
15900W        W75194  32.626  16.602   0.388
15901W        W75195   4.804   0.958  10.934
15902W        W75196  13.291  32.131   2.667
15903W        W75197  42.324   3.417  13.398
15904W        W75198  14.744  32.525   4.234
15905W        W75199  34.921  25.158  11.549
15906W        W75200  28.648  34.443  14.894
15907W        W75201   8.186  41.803   4.705
15908W        W75202  15.189   5.212   0.420
15909W        W75203  34.538  16.617  12.535
15910W        W75204  16.713  29.496   1.917
15911W        W75205  39.392  19.070   1.812
15912W        W75206   9.817  34.600   3.267
15913W        W75207  12.684  26.530   3.317
15914W        W75208  12.660  17.679   1.283
15915W        W75209  33.621  15.766  10.641
15916W        W75210   4.309   2.762  12.831
15917W        W75211  21.614   7.407  10.894
15918W        W75212  13.140  25.102   9.955
15919W        W75213  25.144  15.690  10.491
15920W        W75214  34.588   6.293   0.904
15921W        W75215  42.971  43.897  14.292
15922W        W75216  40.469  14.217   5.272
15923W        W75217   6.382   9.223  12.947
15924W        W75218   1.848  16.601   2.790
15925W        W75219  38.969  32.500  14.962
15926W        W75220  39.539  14.655  14.368
15927W        W75221  17.304  20.742   1.336
15928W        W75222  29.580   6.420   3.227
15929W        W75223  36.447   7.396  13.849
15930W        W75224  28.448  33.560   0.900
15931W        W75225   4.713  44.350  14.845
15932W        W75226  16.138  11.270   2.242
15933W        W75227   9.247  16.278  13.005
15934W        W75228  24.030  35.490   1.722
15935W        W75229  34.409  40.327  10.570
15936W        W75230  12.767  34.038  13.953
15937W        W75231  40.818   1.453  11.524
15938W        W75232  25.520   3.333   0.297
15939W        W75233  10.235   4.416   4.137
15940W        W75234  13.739  36.947  11.528
15941W        W75235   5.693  36.859   3.701
15942W        W75236  18.572  32.586  14.370
15943W        W75237  44.434  19.715   0.283
15944W        W75238  27.634  34.519   4.765
15945W        W75239   3.825  19.161   1.324
15946W        W75240  29.130   6.900  14.510
15947W        W75241  31.041   3.220  11.976
15948W        W75242  22.232   4.301   3.668
15949W        W75243  19.187   5.214  12.068
15950W        W75244   2.790  19.775   0.283
15951W        W75245  33.626  11.245   3.220
15952W        W75246  31.648  20.075  14.904
15953W        W75247  37.986  23.079   4.709
15954W        W75248  44.789  32.416  11.025
15955W        W75249  36.468  36.011   0.455
15956W        W75250  19.118   4.260  12.033
15957W        W75251   0.893   9.163  10.629
15958W        W75252  38.388  17.247   3.663
15959W        W75253  44.409  11.656  14.399
15960W        W75254  26.040  21.705  11.523
15961W        W75255  19.663  39.999   0.413
15962W        W75256  19.216   7.869  11.865
15963W        W75257   7.800   6.404  10.581
15964W        W75258  19.639  26.592  11.583
15965W        W75259  30.624  28.934   0.781
15966W        W75260  12.329  31.099  12.345
15967W        W75261   2.725  41.889   0.748
15968W        W75262  40.537  31.067  13.379
15969W        W75263   0.787   1.861   4.614
15970W        W75264  26.631  40.960   0.820
15971W        W75265  41.878   7.271   4.731
15972W        W75266  13.800   8.660   0.410
15973W        W75267  11.834  19.700  10.103
15974W        W75268  22.537  40.452  10.547
15975W        W75269  28.645  37.379  12.997
15976W        W75270  39.471  22.577   1.427
15977W        W75271  35.549  23.635  12.852
15978W        W75272  38.395  20.122  12.943
15979W        W75273  22.075  31.561   0.406
15980W        W75274  21.101   2.880  12.856
15981W        W75275  11.324  38.988   2.289
15982W        W75276  32.137  29.473   2.791
15983W        W75277  29.163  35.852   2.350
15984W        W75278  19.269  31.122   3.358
15985W        W75279  13.175  37.041  12.452
15986W        W75280   2.463  16.649   1.772
15987W        W75281  39.956  31.531  13.807
15988W        W75282   4.774   6.255   1.703
15989W        W75283   9.268   3.441  13.935
15990W        W75284   9.290  14.331  13.545
15991W        W75285  26.100   2.320   2.820
15992W        W75286  37.563   0.900   2.837
15993W        W75287  29.066  12.357  14.815
15994W        W75288   7.806   1.469  13.894
15995W        W75289  41.511  43.373  13.815
15996W        W75290  34.477  21.106  11.926
15997W        W75291   8.398  31.944   0.301
15998W        W75292  32.544  11.233   1.415
15999W        W75293  44.308   3.226  10.913
16000W        W75294   5.923  35.592  12.389
16001W        W75295  29.161   6.374   0.281
16002W        W75296  39.968  23.207  13.834
16003W        W75297  44.833  13.348   1.405
16004W        W75298  21.145  13.174   4.291
16005W        W75299  39.404  12.326  14.909
16006W        W75300   6.360  41.974  13.889
16007W        W75301  13.203  44.494  14.460
16008W        W75302  30.631  42.867  14.516
16009W        W75303  14.812  44.847  10.492
16010W        W75304  40.501  28.527   0.430
16011W        W75305  37.966  26.104  12.947
16012W        W75306  39.829  30.446  11.383
16013W        W75307  34.406  28.636   0.351
16014W        W75308   2.414  19.093  14.999
16015W        W75309   5.385  40.458   2.367
16016W        W75310   4.255  31.946   0.259
16017W        W75311  44.353  43.477   5.082
16018W        W75312   3.236  27.152   4.126
16019W        W75313  28.093  41.455  11.544
16020W        W75314  43.463   4.363  14.427
16021W        W75315   0.845  35.413  12.343
16022W        W75316  38.351  26.553   3.791
16023W        W75317  35.063  20.624  14.934
16024W        W75318  19.645  10.196   3.660
16025W        W75319  19.698   6.699   0.915
16026W        W75320   5.703  26.087   0.272
16027W        W75321  25.647  28.622  11.889
16028W        W75322   0.374  39.418   4.326
16029W        W75323  23.554   9.230   1.757
16030W        W75324  42.906  20.707  14.286
16031W        W75325  37.464  23.634   0.792
16032W        W75326  20.610   8.397  11.923
16033W        W75327  32.421  18.105   0.373
16034W        W75328   2.274  42.029   2.271
16035W        W75329  44.365  27.515   4.720
16036W        W75330  40.858  28.032   4.813
16037W        W75331  32.982   1.957  11.988
16038W        W75332  42.317  38.967   1.322
16039W        W75333  26.099  19.581  14.927
16040W        W75334  26.493  19.609   2.675
16041W        W75335  33.471   1.386   4.746
16042W        W75336   2.903   1.848   5.182
16043W        W75337  15.160  24.200   1.807
16044W        W75338  42.818  41.407   4.734
16045W        W75339  33.106   1.891   2.371
16046W        W75340  32.063  14.176   4.309
16047W        W75341  18.098   8.214   0.829
16048W        W75342  14.594   6.799  14.816
16049W        W75343  42.288  35.886   3.671
16050W        W75344  28.173  22.196  12.887
16051W        W75345   0.942  42.311   2.322
16052W        W75346  34.571   6.859  12.037
16053W        W75347  43.960  23.565  11.416
16054W        W75348   3.460  13.251  11.977
16055W        W75349  29.551  26.166   4.670
16056W        W75350  34.400  25.166   4.599
16057W        W75351  17.733   5.269  13.800
16058W        W75352  39.837  34.602  12.858
16059W        W75353  17.146  43.456  10.478
16060W        W75354   1.417  12.128   2.876
16061W        W75355  20.594  21.198  14.886
16062W        W75356   4.334   4.869   4.838
16063W        W75357  39.527  11.799  14.884
16064W        W75358   6.864  32.896   3.835
16065W        W75359  14.200  26.201   1.286
16066W        W75360  11.759   7.795  10.922
16067W        W75361  36.042   6.315   0.319
16068W        W75362   1.774   8.209   0.851
16069W        W75363   8.356  14.743   3.636
16070W        W75364   0.798  44.839  14.015
16071W        W75365   8.850  40.903   1.321
16072W        W75366  35.094  18.690  14.310
16073W        W75367  33.470   7.231  14.895
16074W        W75368  41.928  34.085  10.946
16075W        W75369  31.978  19.211  10.533
16076W        W75370  38.366  43.350   2.761
16077W        W75371  26.967   3.240   3.781
16078W        W75372  15.610   8.234   0.302
16079W        W75373   8.715  34.080   2.374
16080W        W75374   8.767  38.970   3.343
16081W        W75375  43.862  26.194  14.485
16082W        W75376  38.348  13.137   4.250
16083W        W75377  38.026  41.915   0.407
16084W        W75378  12.331  34.950  13.042
16085W        W75379  44.858  26.684  12.914
16086W        W75380  24.186  22.524  10.597
16087W        W75381  13.146  41.363  11.975
16088W        W75382  40.903  13.717  11.871
16089W        W75383  39.532   2.371   4.650
16090W        W75384  15.696  33.420  11.861
16091W        W75385   3.383   4.803   0.858
16092W        W75386  15.326   4.709   4.212
16093W        W75387  31.458   3.814  11.920
16094W        W75388  38.901  18.607   3.293
16095W        W75389  40.878  18.663  11.549
16096W        W75390  20.566  40.520  13.325
16097W        W75391  12.701  32.065   0.419
16098W        W75392  13.728  12.804  13.019
16099W        W75393  10.699  44.441  14.380
16100W        W75394  33.100  44.478   3.187
16101W        W75395  18.086  12.853   1.240
16102W        W75396   9.221   9.873   0.445
16103W        W75397   5.433   4.811   2.705
16104W        W75398  21.566  30.432   3.298
16105W        W75399  16.230  28.456  12.371
16106W        W75400   6.316  15.158   4.686
16107W        W75401   9.217   1.933  10.617
16108W        W75402   9.673  23.525  11.559
16109W        W75403  39.834  37.581  11.461
16110W        W75404  13.721  11.634   9.608
16111W        W75405  35.410  40.386  14.900
16112W        W75406  13.765  13.708  14.861
16113W        W75407   2.939  37.854   2.839
16114W        W75408   0.742  38.011  12.081
16115W        W75409  22.583   4.699  10.912
16116W        W75410   2.830  44.404   1.875
16117W        W75411  16.282  41.042   1.440
16118W        W75412  20.743  17.064  14.803
16119W        W75413  29.590  34.875   5.286
16120W        W75414  19.091   3.892  14.994
16121W        W75415  21.714  23.502  12.404
16122W        W75416   1.410  41.004   0.410
16123W        W75417  25.127   2.852   3.758
16124W        W75418  33.555  38.076   0.291
16125W        W75419   5.751  33.925   1.307
16126W        W75420  15.290   2.434  14.968
16127W        W75421  17.665   4.905   2.195
16128W        W75422  16.297  26.695  14.335
16129W        W75423  10.812  29.952   1.395
16130W        W75424  34.507  44.342  13.322
16131W        W75425  41.450  34.378   1.731
16132W        W75426   0.931   2.877  11.577
16133W        W75427  27.491   2.743  13.397
16134W        W75428  12.822  37.428   3.200
16135W        W75429   5.338  43.885   0.864
16136W        W75430  41.994   5.768   1.311
16137W        W75431  38.009  14.257   0.291
16138W        W75432  38.523  39.486  14.880
16139W        W75433  24.974  15.768   4.307
16140W        W75434  25.495  36.963  14.031
16141W        W75435   4.790  20.669  13.445
16142W        W75436  24.143  37.973  14.444
16143W        W75437  20.694  36.966   0.297
16144W        W75438  28.443  23.132   4.291
16145W        W75439   1.842   9.731  10.519
16146W        W75440   4.430  17.588   3.280
16147W        W75441  18.053  40.501  11.948
16148W        W75442   2.787   3.887   1.864
16149W        W75443  20.128   4.886  14.364
16150W        W75444  19.579   4.426   4.819
16151W        W75445  27.686  12.337  11.385
16152W        W75446  42.443  42.029   3.855
16153W        W75447  19.084  36.027  14.352
16154W        W75448  33.473  22.190  12.422
16155W        W75449  12.208   7.236   1.844
16156W        W75450   9.204  42.303   0.964
16157W        W75451   6.798  22.098  13.801
16158W        W75452  36.850  41.815  14.920
16159W        W75453  41.955  36.880   4.283
16160W        W75454   1.820   7.832  11.381
16161W        W75455  26.690  17.271   0.789
16162W        W75456  19.163  14.631   1.883
16163W        W75457  43.802   3.355   0.248
16164W        W75458   8.899  24.114   2.251
16165W        W75459  12.332  42.285   4.129
16166W        W75460  33.004   3.713  11.575
16167W        W75461  43.892  37.900  13.987
16168W        W75462  18.698  11.637   2.873
16169W        W75463  20.079  31.961  13.966
16170W        W75464  31.508   4.235   2.694
16171W        W75465  41.839  28.657  11.007
16172W        W75466  37.859   0.273  13.004
16173W        W75467  41.964   8.335   4.278
16174W        W75468  22.206  34.946  11.931
16175W        W75469  42.307  35.400  12.987
16176W        W75470  43.283  44.372   2.322
16177W        W75471  30.081  27.636  14.017
16178W        W75472  26.051   5.249  10.967
16179W        W75473  29.049  28.032  13.043
16180W        W75474   7.197  22.733  14.838
16181W        W75475   5.396  41.418   3.373
16182W        W75476  18.129   3.709  14.926
16183W        W75477  13.691  14.135  14.022
16184W        W75478  14.599  21.092   2.894
16185W        W75479  24.669  13.727   1.704
16186W        W75480  21.517  29.661   0.436
16187W        W75481  10.639  38.463   0.924
16188W        W75482  39.025  35.498  13.544
16189W        W75483   4.721  43.501   0.460
16190W        W75484  23.713  37.538  11.977
16191W        W75485  20.607  17.203   1.358
16192W        W75486  23.663  35.541   1.413
16193W        W75487  25.045  33.899  12.355
16194W        W75488  24.085  33.548  13.912
16195W        W75489  44.435  17.100  11.908
16196W        W75490  40.369  17.281  13.316
16197W        W75491  38.473  17.627  13.415
16198W        W75492  43.473  30.418  11.941
16199W        W75493  34.372  23.629   3.150
16200W        W75494  18.249  12.198   2.240
16201W        W75495  15.795   6.856   0.809
16202W        W75496  43.972   4.816  13.028
16203W        W75497   1.405  17.276  12.019
16204W        W75498  37.904  33.987   0.313
16205W        W75499  42.925  17.245  14.804
16206W        W75500  36.051  10.796   4.299
16207W        W75501   3.369  34.107  12.497
16208W        W75502  27.572   5.420  11.123
16209W        W75503   0.372  20.759   3.666
16210W        W75504  19.139  30.085   4.779
16211W        W75505  13.617  16.581  10.554
16212W        W75506  19.736  40.826  10.640
16213W        W75507  32.517  39.539  13.800
16214W        W75508  30.631  15.314  11.855
16215W        W75509   2.956  25.592  11.982
16216W        W75510   1.417  38.480  11.073
16217W        W75511   3.941  37.379  12.010
16218W        W75512  11.811   8.843   3.367
16219W        W75513   4.736  12.313   3.772
16220W        W75514   3.291  17.157   1.428
16221W        W75515  42.974  30.600   3.241
16222W        W75516   9.218   8.894  14.955
16223W        W75517  15.648  20.708  12.346
16224W        W75518  12.261  18.697   0.287
16225W        W75519   3.777  10.182  13.364
16226W        W75520   0.970  36.071  10.045
16227W        W75521  18.704  41.882  11.492
16228W        W75522  34.021  30.464   0.468
16229W        W75523  44.790  41.026  13.481
16230W        W75524  22.570  13.108   3.327
16231W        W75525  41.958   1.748   1.912
16232W        W75526  35.055  11.175   2.697
16233W        W75527  39.025  27.099   2.679
16234W        W75528  28.014  23.502  12.977
16235W        W75529  31.913  16.729  12.552
16236W        W75530  24.073  37.954   2.246
16237W        W75531   8.238  44.265   0.740
16238W        W75532   9.378  35.448   5.124
16239W        W75533  40.330   2.778  12.888
16240W        W75534  29.572   9.854  13.521
16241W        W75535  20.185  37.392  10.129
16242W        W75536  20.097  27.016   0.316
16243W        W75537  33.120   8.407  11.406
16244W        W75538  35.940  16.111   2.902
16245W        W75539  41.016  32.480   0.425
16246W        W75540  27.034  21.187   0.829
16247W        W75541  14.687  42.340  12.968
16248W        W75542  15.288  30.579  10.414
16249W        W75543   4.930  17.688  14.820
16250W        W75544  34.890  24.670  13.381
16251W        W75545  40.975  11.688   1.233
16252W        W75546  37.998  43.428   3.283
16253W        W75547  13.324   3.862   3.199
16254W        W75548  31.634   8.291   2.411
16255W        W75549   8.867   1.455  10.606
16256W        W75550  38.963   2.453   3.781
16257W        W75551  23.209  25.120  11.477
16258W        W75552  38.416   5.919  12.448
16259W        W75553   3.262   0.432  12.075
16260W        W75554   7.732  12.135  12.045
16261W        W75555  18.185  32.909  14.880
16262W        W75556   0.877  20.726   1.932
16263W        W75557  13.758  14.609  11.413
16264W        W75558  25.216  13.290   0.369
16265W        W75559  32.991  17.718  14.908
16266W        W75560   8.771  32.902   1.211
16267W        W75561  12.826  12.633  13.916
16268W        W75562  10.731  17.762   3.198
16269W        W75563  42.286  15.296  12.544
16270W        W75564  36.426  15.288  12.421
16271W        W75565   8.664  14.118   2.341
16272W        W75566  43.903   9.821  13.821
16273W        W75567   4.380  34.013   3.857
16274W        W75568  28.591   4.741  10.932
16275W        W75569  16.594   4.440  11.486
16276W        W75570  11.852  28.063  13.000
16277W        W75571  31.125  30.540   0.902
16278W        W75572  42.477  20.630  14.309
16279W        W75573  40.870  25.012   1.255
16280W        W75574  17.562   9.652   4.801
16281W        W75575   7.287  37.531   3.778
16282W        W75576  37.869  34.873  13.879
16283W        W75577  28.055  42.459  11.434
16284W        W75578   8.327  39.454  11.009
16285W        W75579  44.937  40.029   3.321
16286W        W75580   5.919  36.964  12.382
16287W        W75581  25.095  36.574   3.254
16288W        W75582  12.177  32.058   4.292
16289W        W75583  12.282  42.007   1.709
16290W        W75584  16.253  33.124  14.947
16291W        W75585   4.265  44.464  13.382
16292W        W75586  11.823  21.217   2.370
16293W        W75587  10.688  16.205   3.834
16294W        W75588  40.316  15.683  12.511
16295W        W75589  16.259  16.270   3.819
16296W        W75590  35.995  21.733   2.876
16297W        W75591  43.373  19.579   1.724
16298W        W75592   0.805  32.074  11.446
16299W        W75593  36.992  41.351   4.183
16300W        W75594   5.220  24.124  11.979
16301W        W75595  38.830  42.354   2.275
16302W        W75596  21.712  30.513   1.306
16303W        W75597  14.730  33.419  12.846
16304W        W75598   1.462  44.394   1.885
16305W        W75599   8.844   8.283  13.040
16306W        W75600  14.324  18.202  13.443
16307W        W75601  24.153  11.626   5.152
16308W        W75602  36.418  22.131  13.813
16309W        W75603  35.944  22.530   1.725
16310W        W75604   5.931  41.405   0.896
16311W        W75605  23.672  32.434   3.322
16312W        W75606  12.775  30.509   0.358
16313W        W75607  42.022  17.657   2.392
16314W        W75608  44.898  40.448   2.754
16315W        W75609  35.591  12.322  12.856
16316W        W75610   7.720  44.766  13.416
16317W        W75611   3.762  29.103   2.792
16318W        W75612  31.575  28.611   3.147
16319W        W75613  30.604  15.138  10.591
16320W        W75614   1.467  14.632  12.351
16321W        W75615  24.013  44.831  13.376
16322W        W75616  11.815  30.438  14.938
16323W        W75617  37.387   5.271  12.361
16324W        W75618  31.512  14.804  13.022
16325W        W75619  40.535  44.433  10.461
16326W        W75620  41.361  28.168   2.682
16327W        W75621  13.775  20.163  12.924
16328W        W75622  11.786  42.282   1.391
16329W        W75623  34.468   3.292   2.903
16330W        W75624  22.150  11.760   3.774
16331W        W75625  38.464  13.745  12.340
16332W        W75626  11.138  33.073   4.194
16333W        W75627   4.383   8.766   4.799
16334W        W75628  10.305  39.359  12.045
16335W        W75629  40.431  32.609   2.249
16336W        W75630  16.712  31.107   3.326
16337W        W75631  36.999  24.124   4.118
16338W        W75632   9.696  38.979   2.306
16339W        W75633  19.171   2.329   2.713
16340W        W75634  20.755  36.013   0.246
16341W        W75635  14.608  43.390   1.767
16342W        W75636   8.875  23.064  12.060
16343W        W75637  11.277  42.843  14.798
16344W        W75638  22.157  44.785  11.985
16345W        W75639  21.674  39.389   0.767
16346W        W75640  12.753  12.285   3.226
16347W        W75641  39.849  43.841  12.036
16348W        W75642  20.236  10.275  11.425
16349W        W75643  43.443   5.352  13.403
16350W        W75644  39.317   0.977  13.001
16351W        W75645  29.594   3.903  12.430
16352W        W75646   2.410  35.591  11.988
16353W        W75647  22.133  11.684  13.039
16354W        W75648  13.758  20.121  14.368
16355W        W75649  40.969  11.227   1.291
16356W        W75650  14.310  11.299   1.915
16357W        W75651  22.589  17.777   2.687
16358W        W75652  33.131  12.750  10.601
16359W        W75653  24.502  14.607   3.787
16360W        W75654  23.076  28.566  10.574
16361W        W75655  15.817  26.572   3.308
16362W        W75656  36.850   3.740   2.767
16363W        W75657  29.527   3.890  11.112
16364W        W75658  21.603  10.288  13.372
16365W        W75659   8.286  43.497  11.516
16366W        W75660  13.706  39.472  11.987
16367W        W75661  36.939  18.251  12.074
16368W        W75662  14.688  39.548  13.492
16369W        W75663  25.586  36.423   4.137
16370W        W75664  37.559  37.998   1.750
16371W        W75665  43.854  21.514   1.267
16372W        W75666   4.916  31.633  12.881
16373W        W75667   3.287  30.033  14.498
16374W        W75668  38.889  42.504  14.890
16375W        W75669   8.666  29.963  14.817
16376W        W75670  23.082  36.480  13.404
16377W        W75671   2.937  37.341  14.759
16378W        W75672  14.095  18.211   0.451
16379W        W75673  10.805   5.356  13.433
16380W        W75674  35.955  20.762   4.770
16381W        W75675   4.749  32.941   4.224
16382W        W75676  41.409  34.103   4.300
16383W        W75677  19.128  17.228   3.640
16384W        W75678  34.073   1.461  13.356
16385W        W75679  34.005  17.621   2.407
16386W        W75680  11.661   8.840  12.826
16387W        W75681  37.472  38.434   0.273
16388W        W75682   4.720  17.734   3.719
16389W        W75683  23.186  16.667  14.941
16390W        W75684  16.652  42.480  11.051
16391W        W75685  24.625   8.284   1.355
16392W        W75686   9.323  34.475   2.723
16393W        W75687  21.654  35.064   3.267
16394W        W75688  27.521  14.331  14.975
16395W        W75689  26.954  14.669   4.774
16396W        W75690   3.843  17.561   3.203
16397W        W75691   4.879  35.036  11.069
16398W        W75692  34.374   3.863   0.247
16399W        W75693  18.786  11.698   3.250
16400W        W75694  27.007  15.623   2.391
16401W        W75695  32.400   3.743   3.269
16402W        W75696  38.030  39.431  10.415
16403W        W75697  36.534  21.182  12.990
16404W        W75698  39.440  23.127  10.484
16405W        W75699  29.017  39.518  14.995
16406W        W75700  36.455  22.064  12.859
16407W        W75701  35.425  26.470  13.308
16408W        W75702  39.415  30.931   0.273
16409W        W75703   4.400  38.369   0.829
16410W        W75704  21.210  10.306   0.302
16411W        W75705  40.397   7.236  11.059
16412W        W75706  42.425  15.615  10.060
16413W        W75707  20.684  18.569  12.962
16414W        W75708  20.065  37.378   1.268
16415W        W75709  40.959   7.412  12.853
16416W        W75710  22.709  26.698   2.334
16417W        W75711  14.263  20.039   9.948
16418W        W75712  31.453  22.198   3.221
16419W        W75713   5.254  32.440  14.503
16420W        W75714  37.579  43.858   2.856
16421W        W75715  32.974   6.370   2.189
16422W        W75716  35.413  39.856  10.516
16423W        W75717  20.542  18.607   2.799
16424W        W75718  34.516  33.489   2.839
16425W        W75719  30.029  17.573   2.185
16426W        W75720  25.986  40.508  12.427
16427W        W75721  11.183   1.934   4.325
16428W        W75722  43.820  44.333   3.377
16429W        W75723  19.089  32.476  13.503
16430W        W75724  28.458  41.511  14.324
16431W        W75725  30.927  25.635  12.880
16432W        W75726   2.443  10.320   4.233
16433W        W75727   6.922  27.007   3.675
16434W        W75728   1.479  44.276  13.889
16435W        W75729  33.076  38.365  13.486
16436W        W75730  19.618  44.468  14.991
16437W        W75731  18.654   2.927  14.015
16438W        W75732  41.996  26.101  14.331
16439W        W75733  41.523   4.297   5.182
16440W        W75734   6.184  16.775   1.909
16441W        W75735  15.737  16.082   3.208
16442W        W75736  36.014   6.916   2.235
16443W        W75737  13.213  25.056  13.836
16444W        W75738  16.599   5.373  14.365
16445W        W75739  34.400  21.657   1.413
16446W        W75740  33.886  13.812   3.765
16447W        W75741  15.158  35.105  12.434
16448W        W75742   0.818  44.888   2.784
16449W        W75743  33.525   5.203   2.222
16450W        W75744  17.303  14.754  11.874
16451W        W75745   9.770  17.096   4.312
16452W        W75746  17.183  40.023  11.985
16453W        W75747  34.984  40.389  14.901
16454W        W75748  14.214  39.861  13.841
16455W        W75749  20.168  16.224  12.532
16456W        W75750  44.952  43.864   0.903
16457W        W75751  13.151  11.221   0.920
16458W        W75752  28.985   1.360  11.868
16459W        W75753  35.538   4.312  14.452
16460W        W75754   2.933  18.127  10.544
16461W        W75755  32.107  31.604   3.774
16462W        W75756  26.503  14.119  14.312
16463W        W75757  34.593  15.265  12.878
16464W        W75758  35.400  27.446   3.258
16465W        W75759   1.365  42.820  12.487
16466W        W75760  23.672  28.468  11.574
16467W        W75761   4.268  24.689  10.544
16468W        W75762  23.528  25.105  13.963
16469W        W75763   8.282  12.131   1.852
16470W        W75764  19.632  34.396  11.003
16471W        W75765  18.645  12.257   3.741
16472W        W75766  27.550  34.456   1.711
16473W        W75767   0.474   8.184   4.819
16474W        W75768   7.350  29.487  11.962
16475W        W75769  10.752   2.395   3.838
16476W        W75770  19.583  12.705  13.358
16477W        W75771  19.179  31.122  13.859
16478W        W75772  38.382  13.780  10.519
16479W        W75773  44.449  11.172   0.750
16480W        W75774  17.261   2.731  10.010
16481W        W75775  36.545   2.898  11.598
16482W        W75776   7.695  36.852  10.500
16483W        W75777  44.004  32.068   2.856
16484W        W75778  13.143  21.194   4.336
16485W        W75779  25.984  42.437  12.000
16486W        W75780  28.054  26.181  14.492
16487W        W75781  41.030  32.024  10.907
16488W        W75782  31.153   7.819   3.344
16489W        W75783  23.678  37.050  13.003
16490W        W75784  42.004  43.824   1.925
16491W        W75785   7.690  43.451   3.785
16492W        W75786  30.917   4.856  11.087
16493W        W75787  43.483  27.038   0.468
16494W        W75788   6.318  19.549   2.251
16495W        W75789  14.687  22.015   3.158
16496W        W75790   4.756   5.420   0.302
16497W        W75791  36.526  24.572   4.177
16498W        W75792  23.731  43.851   2.759
16499W        W75793  25.199  42.026  12.411
16500W        W75794  24.065  21.173  12.421
16501W        W75795  18.107  33.484   2.759
16502W        W75796  17.212  44.968   3.180
16503W        W75797  20.596  33.875  14.429
16504W        W75798  10.185  40.837   1.916
16505W        W75799  40.538  31.606  14.994
16506W        W75800  14.172  21.741   0.794
16507W        W75801  41.982  12.643   2.364
16508W        W75802   6.226  24.710  14.400
16509W        W75803  31.921  32.103  11.977
16510W        W75804   3.423  39.954   3.835
16511W        W75805  39.386  25.628   3.643
16512W        W75806  33.521  16.607  14.491
16513W        W75807  14.834   9.719  12.928
16514W        W75808   5.281   7.759  12.507
16515W        W75809   4.405  20.098  14.469
16516W        W75810  36.059  29.981  10.921
16517W        W75811  32.610  26.666  11.913
16518W        W75812  16.110  43.011   4.322
16519W        W75813   6.789  15.327   0.750
16520W        W75814  39.437   2.903  13.385
16521W        W75815  42.018   5.699  14.386
16522W        W75816   3.823   9.256  12.403
16523W        W75817  13.234  37.849  10.633
16524W        W75818   0.786  10.266  10.034
16525W        W75819  38.551   3.444   0.828
16526W        W75820  25.041  34.991   3.284
16527W        W75821  36.565  41.461  13.397
16528W        W75822  40.544  25.620  11.522
16529W        W75823  36.097  12.844   1.775
16530W        W75824  44.447  29.556   4.116
16531W        W75825  42.489  23.597  12.544
16532W        W75826  42.972   4.904  13.395
16533W        W75827  39.002  19.723   2.789
16534W        W75828  42.947   0.413   2.739
16535W        W75829  33.893  28.095   1.413
16536W        W75830   9.162  43.827   0.967
16537W        W75831  16.781  34.381   3.716
16538W        W75832  27.949  40.323  14.791
16539W        W75833  39.043  36.549   0.285
16540W        W75834   7.388  19.571   5.295
16541W        W75835  21.647  35.551  13.882
16542W        W75836  39.369  10.213   3.329
16543W        W75837  10.373  31.103  13.956
16544W        W75838  43.965   9.348   2.235
16545W        W75839   7.232   1.289   3.795
16546W        W75840  37.853  40.832  11.126
16547W        W75841  37.543  26.118  10.426
16548W        W75842  40.367  18.724  13.062
16549W        W75843  43.300  26.649   0.924
16550W        W75844  24.191   9.662  11.067
16551W        W75845  38.989   6.870   4.806
16552W        W75846  16.572  20.174   1.329
16553W        W75847  30.543   6.428   0.872
16554W        W75848  18.177  31.640   2.874
16555W        W75849   5.329  35.381  13.012
16556W        W75850   6.311   4.404  14.449
16557W        W75851  35.480  30.062   1.293
16558W        W75852  36.466  32.066   1.810
16559W        W75853  15.703  15.228   2.265
16560W        W75854  29.085  29.578  10.464
16561W        W75855  17.305  40.857  11.371
16562W        W75856   9.813  26.529  11.921
16563W        W75857  34.947   7.392   2.802
16564W        W75858   4.930  14.126  13.416
16565W        W75859  24.700  18.139  13.011
16566W        W75860  32.599  11.173  13.971
16567W        W75861  22.191  29.560   3.384
16568W        W75862  13.274  43.315  13.922
16569W        W75863   9.383   0.312   1.412
16570W        W75864  26.041  30.570  13.376
16571W        W75865  27.666  36.390   0.477
16572W        W75866   2.883  43.504   1.783
16573W        W75867  27.993  26.598   1.358
16574W        W75868  22.039  13.113   3.658
16575W        W75869  18.061  31.140   2.337
16576W        W75870  16.761  27.192  14.401
16577W        W75871  25.653  11.157   2.311
16578W        W75872   0.766   5.291  14.378
16579W        W75873   0.449  34.418   1.798
16580W        W75874  26.512  31.006   3.190
16581W        W75875  19.554  13.740  13.971
16582W        W75876  40.038  23.238  12.391
16583W        W75877  19.065  13.696   3.781
16584W        W75878   3.232  35.499  14.906
16585W        W75879  25.083  14.248   3.218
16586W        W75880  41.930  33.028   2.832
16587W        W75881  43.914  19.756   1.836
16588W        W75882  16.800  30.477  14.980
16589W        W75883   0.880  19.191  11.883
16590W        W75884  31.424  32.121  11.966
16591W        W75885  25.571  23.534  13.491
16592W        W75886   0.925  30.508  10.912
16593W        W75887  21.160  39.000  10.968
16594W        W75888  27.076  42.308   3.850
16595W        W75889   4.920  12.238   1.809
16596W        W75890  34.476   1.828   0.818
16597W        W75891  25.075  33.549  14.816
16598W        W75892  18.632  39.024  11.928
16599W        W75893  35.069  32.586  13.981
16600W        W75894  30.653  34.894  13.812
16601W        W75895  22.061  44.498  14.879
16602W        W75896  23.221  29.604   4.737
16603W        W75897  43.381  22.028  13.921
16604W        W75898  16.753  33.578  12.919
16605W        W75899  35.417   7.716   1.797
16606W        W75900   6.770   7.199   3.733
16607W        W75901  20.577  32.109  13.796
16608W        W75902  42.907  28.185   3.819
16609W        W75903  10.808  21.233  13.958
16610W        W75904  14.250   7.853   4.771
16611W        W75905  19.264  25.977   3.294
16612W        W75906  13.292   6.817   2.708
16613W        W75907   2.361  38.034   4.768
16614W        W75908   3.942  33.567  14.002
16615W        W75909  16.154   2.936   4.177
16616W        W75910  42.823   4.882   5.227
16617W        W75911  15.597  31.127  13.856
16618W        W75912  17.647  29.144   4.684
16619W        W75913  42.441   4.319  14.329
16620W        W75914  17.065   4.244  13.845
16621W        W75915  19.734  17.196   4.813
16622W        W75916  26.181   2.345   4.246
16623W        W75917  35.857  12.824   0.779
16624W        W75918  38.482  32.598   3.170
16625W        W75919  39.829  13.177   3.232
16626W        W75920  13.842  17.193  12.851
16627W        W75921  33.389  24.055   2.850
16628W        W75922  26.669   7.883  12.033
16629W        W75923  30.908  28.087  13.429
16630W        W75924  26.531  33.619   4.703
16631W        W75925   9.724  40.503  14.968
16632W        W75926   7.264  12.315  13.395
16633W        W75927  17.671  13.696  10.451
16634W        W75928  42.988  19.041   0.918
16635W        W75929  26.171   6.339   4.723
16636W        W75930   8.328   7.214  10.574
16637W        W75931  34.956   9.809  11.877
16638W        W75932  29.094  26.099   3.648
16639W        W75933  21.180   1.413   1.274
16640W        W75934  41.351   1.742  10.464
16641W        W75935  21.523  24.138  13.863
16642W        W75936  24.634  16.120  10.989
16643W        W75937  22.208  40.509   0.389
16644W        W75938  18.230  11.716  11.913
16645W        W75939  30.454   1.901  13.363
16646W        W75940  32.984  34.500  14.314
16647W        W75941  41.989  30.557   5.190
16648W        W75942   5.211   8.892   3.186
16649W        W75943   8.853  32.426   1.341
16650W        W75944  44.961  22.532   0.922
16651W        W75945   5.355   4.909  10.081
16652W        W75946  13.145  24.047   3.827
16653W        W75947  42.354  12.264  12.967
16654W        W75948  21.052   2.730   3.775
16655W        W75949  43.785  19.082   1.910
16656W        W75950  20.102  16.150  13.332
16657W        W75951   3.856  17.685  13.873
16658W        W75952  27.990  10.352   9.956
16659W        W75953  43.316  21.102  10.948
16660W        W75954   7.320  17.275  10.636
16661W        W75955   0.986  33.576   2.880
16662W        W75956  11.633  25.142   1.726
16663W        W75957  17.236  16.280  14.838
16664W        W75958   2.919   6.711   0.821
16665W        W75959  22.582   7.893  10.961
16666W        W75960  36.003  18.761   5.116
16667W        W75961  35.483   6.729  13.496
16668W        W75962  30.605  15.683   0.328
16669W        W75963  25.550  41.447   4.602
16670W        W75964  11.141   2.931  12.378
16671W        W75965  34.490  11.757   1.930
16672W        W75966  26.000  36.937  14.449
16673W        W75967  35.013  43.918  11.013
16674W        W75968  22.598  20.125  11.509
16675W        W75969  18.769   6.236   0.815
16676W        W75970  17.576  37.855   0.751
16677W        W75971  22.144  13.155   3.230
16678W        W75972  19.692  37.861   0.467
16679W        W75973  13.660  37.516  12.462
16680W        W75974  17.136  27.169  14.286
16681W        W75975   5.395  36.904   0.783
16682W        W75976  28.550  37.399   3.223
16683W        W75977   0.917  35.922  14.973
16684W        W75978   6.210  12.805  14.772
16685W        W75979  36.070  13.284  13.468
16686W        W75980   6.801  13.195   2.849
16687W        W75981   1.477   7.284  11.869
16688W        W75982  27.483   9.690  10.042
16689W        W75983  13.697  31.584   3.317
16690W        W75984   3.721  44.349  12.052
16691W        W75985  31.424   2.776   4.331
16692W        W75986  35.371  24.013   3.269
16693W        W75987  30.016   1.409   2.805
16694W        W75988   7.717   2.436   0.751
16695W        W75989  32.104  16.744   0.463
16696W        W75990  38.376  31.114  12.939
16697W        W75991   8.683  23.511  11.085
16698W        W75992  23.638  19.684  14.483
16699W        W75993  37.508  33.619   2.188
16700W        W75994   1.278  21.170  10.125
16701W        W75995  28.441  40.844  12.842
16702W        W75996  30.137  43.975   4.180
16703W        W75997  40.822  24.672   3.677
16704W        W75998  15.698  28.084   4.312
16705W        W75999  41.812  24.570  13.032
16706W        W76000  26.617  25.688   4.784
16707W        W76001   3.229  25.217   1.753
16708W        W76002  21.703  16.580  12.971
16709W        W76003  16.595   1.828  11.886
16710W        W76004  24.494  23.588  10.902
16711W        W76005   4.339   2.808   0.469
16712W        W76006  25.681  30.074   4.261
16713W        W76007   4.825  35.919  10.542
16714W        W76008  18.573  12.707  12.342
16715W        W76009   6.248  33.936  11.973
16716W        W76010  14.677  14.652   2.797
16717W        W76011  15.600   8.185  12.057
16718W        W76012  29.566  37.577  12.924
16719W        W76013  41.036  21.729  13.817
16720W        W76014  30.119   3.710  14.888
16721W        W76015  41.019  29.455  11.488
16722W        W76016  35.055  37.934  10.123
16723W        W76017  18.550  30.116  10.435
16724W        W76018  42.033  27.127   2.669
16725W        W76019  33.964  36.016  11.402
16726W        W76020   6.324  18.704   2.816
16727W        W76021  30.975  17.605  12.861
16728W        W76022   8.857  28.035   4.319
16729W        W76023   9.695  15.136   4.758
16730W        W76024   6.254  37.008  14.875
16731W        W76025  33.532  32.066   3.257
16732W        W76026  27.970  13.340  12.372
16733W        W76027  22.508   9.255  12.961
16734W        W76028  44.341  21.151  10.579
16735W        W76029  27.451  13.839  10.544
16736W        W76030  13.740  34.485   2.884
16737W        W76031  32.021  20.711   1.897
16738W        W76032   4.812  30.638   3.173
16739W        W76033  34.542  30.071   0.754
16740W        W76034  36.435  34.423  11.036
16741W        W76035  18.571  35.010   4.624
16742W        W76036  12.240  36.849  13.530
16743W        W76037  29.503  27.524   0.411
16744W        W76038  28.080  17.271  13.455
16745W        W76039  15.325  12.720  13.410
16746W        W76040   3.881  18.683   0.873
16747W        W76041  35.539  12.770   9.629
16748W        W76042  32.575   6.189   4.604
16749W        W76043  21.185  42.478   2.768
16750W        W76044   9.709  23.605   2.332
16751W        W76045  20.574   6.831   0.293
16752W        W76046  27.472  29.527   2.662
16753W        W76047  42.977  35.485   2.371
16754W        W76048   8.361  28.584  11.973
16755W        W76049  23.699  12.176  10.633
16756W        W76050  30.081   1.401   1.438
16757W        W76051  24.697   3.776  12.972
16758W        W76052  25.196  42.968  13.969
16759W        W76053  41.328   2.812  11.983
16760W        W76054  43.399  16.760   1.717
16761W        W76055  15.707  13.633  11.379
16762W        W76056  15.140   1.952  11.081
16763W        W76057  26.663   1.754   1.764
16764W        W76058   3.236  25.562   1.867
16765W        W76059  43.390  23.596   5.284
16766W        W76060   9.266  20.116   9.932
16767W        W76061  10.719   3.823  11.947
16768W        W76062  10.326   4.247  14.895
16769W        W76063  36.857  44.920  13.986
16770W        W76064  29.074   5.382   4.188
16771W        W76065  18.547  23.180  12.031
16772W        W76066  12.189  42.384   0.291
16773W        W76067  26.466  18.163   3.683
16774W        W76068   7.716  30.619   4.797
16775W        W76069  15.767  37.464   2.374
16776W        W76070  43.919  35.872   3.305
16777W        W76071   8.255  14.309   2.179
16778W        W76072  13.264  14.709  11.574
16779W        W76073   5.862  23.686   2.693
16780W        W76074  40.842  35.489  13.379
16781W        W76075   4.263  33.488  10.935
16782W        W76076  20.226  39.463   1.785
16783W        W76077  12.757  33.890   2.357
16784W        W76078  12.847  33.465   3.658
16785W        W76079  37.877   0.430   4.285
16786W        W76080  24.009  38.895   4.794
16787W        W76081  28.535  27.062  13.814
16788W        W76082  34.917   6.380  10.616
16789W        W76083  35.588  19.092   4.328
16790W        W76084   3.447  43.304  11.055
16791W        W76085  11.697  17.701   2.212
16792W        W76086  24.179   0.447  10.561
16793W        W76087   0.397   6.298   2.358
16794W        W76088  39.556  13.260   0.859
16795W        W76089  15.109  39.829   1.807
16796W        W76090  21.207  23.686   3.780
16797W        W76091  38.906   2.789  10.993
16798W        W76092  14.815   3.226   1.355
16799W        W76093  32.096   2.226   2.352
16800W        W76094  13.185   0.747   3.224
16801W        W76095  41.447  24.032  12.020
16802W        W76096   8.856  37.935   2.385
16803W        W76097  20.751   9.279   2.877
16804W        W76098  30.557  40.474  11.523
16805W        W76099  33.496  13.826   0.461
16806W        W76100   8.802  11.630   2.665
16807W        W76101   2.375  10.370   0.321
16808W        W76102  22.595  43.410   3.687
16809W        W76103  36.090   0.252   0.931
16810W        W76104  23.079  20.768   0.876
16811W        W76105  21.121  18.178  11.538
16812W        W76106  27.593  25.141   3.722
16813W        W76107   0.957  20.046  14.807
16814W        W76108  22.007  37.576   3.774
16815W        W76109  14.129  33.471   2.764
16816W        W76110  17.560  35.539   2.217
16817W        W76111  27.599  42.320  12.072
16818W        W76112  13.161  38.484  14.982
16819W        W76113  19.673  30.505  14.465
16820W        W76114  25.714  43.990   4.208
16821W        W76115  15.755  44.857  12.481
16822W        W76116   1.976  14.665  10.488
16823W        W76117  25.680  30.910  10.626
16824W        W76118  41.869  27.455  11.555
16825W        W76119  43.824  11.626  11.449
16826W        W76120   3.378  15.185  14.295
16827W        W76121   4.824  31.003   3.696
16828W        W76122  23.707  33.096  13.853
16829W        W76123  35.921   4.839   2.197
16830W        W76124  41.307  30.045  12.574
16831W        W76125  23.188  26.702   1.215
16832W        W76126  14.122  10.305  11.393
16833W        W76127  16.757  29.100  10.898
16834W        W76128  17.620   0.872   4.140
16835W        W76129  21.174   4.775   2.693
16836W        W76130  24.035  30.512   1.441
16837W        W76131   6.310  38.945  10.938
16838W        W76132  32.138  21.130  12.036
16839W        W76133  39.050  24.105  13.972
16840W        W76134   8.680  36.983  12.428
16841W        W76135  34.518   8.371  13.014
16842W        W76136  28.672  44.878  10.939
16843W        W76137   0.458  34.891  10.542
16844W        W76138  14.330  11.635   1.922
16845W        W76139  36.843  26.531  13.315
16846W        W76140  16.234   7.892  10.532
16847W        W76141   5.758   0.831  12.970
16848W        W76142  31.548  43.416   4.322
16849W        W76143   9.291  24.227   5.102
16850W        W76144  41.881  15.724  11.605
16851W        W76145  44.422  36.047  12.427
16852W        W76146  35.924  14.142   0.951
16853W        W76147   7.765   1.442   4.611
16854W        W76148  20.574  19.576   4.603
16855W        W76149  19.696  32.420  10.492
16856W        W76150  12.666  19.204  10.574
16857W        W76151  38.421  12.261  10.930
16858W        W76152  16.762  30.638  11.384
16859W        W76153  34.500  39.056   3.260
16860W        W76154  16.137   6.222  12.499
16861W        W76155  44.833  30.076   2.255
16862W        W76156   9.361  42.864   1.235
16863W        W76157   2.460  25.059   2.214
16864W        W76158  36.366  20.661   3.147
16865W        W76159   3.717  24.107   3.162
16866W        W76160  11.657  30.425  10.064
16867W        W76161  17.260  36.082  12.456
16868W        W76162  43.424  27.456   0.243
16869W        W76163  14.147   2.888   4.204
16870W        W76164  12.331  28.980   4.767
16871W        W76165   7.772  43.824  11.076
16872W        W76166  18.569  10.151  14.317
16873W        W76167  27.951  13.206  12.080
16874W        W76168  16.603  21.514  12.062
16875W        W76169   4.813   8.873   1.775
16876W        W76170  18.598  38.048   3.218
16877W        W76171  16.646   9.828  12.052
16878W        W76172   1.876  36.959  12.535
16879W        W76173  27.509  29.614   0.744
16880W        W76174   9.888   7.179   3.193
16881W        W76175  21.658  13.683   4.330
16882W        W76176  12.805  24.161  13.902
16883W        W76177   5.775   7.353  12.825
16884W        W76178  38.881  34.913   3.314
16885W        W76179   9.753  35.930   4.707
16886W        W76180   6.403   4.772   1.761
16887W        W76181  39.552   8.274   4.197
16888W        W76182  33.614  18.706  12.865
16889W        W76183  14.671   8.669   5.168
16890W        W76184  11.271  41.511   3.725
16891W        W76185  31.122  43.856  12.349
16892W        W76186  31.073  28.572   3.637
16893W        W76187  18.561  34.378  10.569
16894W        W76188   4.858  17.689  10.977
16895W        W76189   1.916  26.079   4.738
16896W        W76190  35.471  18.071  11.487
16897W        W76191  25.507  33.482   4.686
16898W        W76192  33.874  37.051   2.387
16899W        W76193   8.174  10.234  14.904
16900W        W76194  40.022  26.466   0.427
16901W        W76195  35.448   0.930   2.792
16902W        W76196  10.742  35.922  10.913
16903W        W76197   0.857  26.547   2.661
16904W        W76198  12.796  30.913   2.277
16905W        W76199   3.412  28.174   2.326
16906W        W76200  26.953  15.301  11.609
16907W        W76201  37.417   4.883  11.023
16908W        W76202  28.506   8.206  12.994
16909W        W76203   2.299  40.855   3.633
16910W        W76204   3.340  23.077   1.777
16911W        W76205  35.962  36.867  12.062
16912W        W76206  40.547  28.097  13.334
16913W        W76207  13.845   3.770   1.706
16914W        W76208  13.697  14.651   0.352
16915W        W76209   8.900  39.970  12.911
16916W        W76210   5.368  29.089  12.014
16917W        W76211  44.891  28.006  11.453
16918W        W76212   1.838   3.901  11.907
16919W        W76213  41.425  10.735  10.536
16920W        W76214  31.618  32.058   0.780
16921W        W76215  39.530  23.059  12.909
16922W        W76216  41.901  28.061  12.836
16923W        W76217  31.033  16.720   4.250
16924W        W76218   3.329  35.414  11.931
16925W        W76219  31.601  31.053   0.409
16926W        W76220   3.443  43.785   3.750
16927W        W76221   5.414  32.469  11.915
16928W        W76222  37.853  37.007  11.371
16929W        W76223  13.826  41.800   3.775
16930W        W76224  38.917  10.740   9.929
16931W        W76225  25.604  37.077  13.061
16932W        W76226  31.619  41.438  13.805
16933W        W76227  28.181  17.574  13.431
16934W        W76228  35.905   0.889  13.482
16935W        W76229   7.299  10.251  12.876
16936W        W76230  23.190   2.254   1.758
16937W        W76231  38.014  37.514   2.705
16938W        W76232  41.486  20.735  10.998
16939W        W76233  15.300   6.401   4.641
16940W        W76234  28.470  38.413   0.728
16941W        W76235  31.641  24.141  14.278
16942W        W76236  26.138  38.002  12.976
16943W        W76237  30.507  35.485   0.734
16944W        W76238   8.355  34.042   0.955
16945W        W76239  32.610  38.830   4.739
16946W        W76240  40.826  37.431   3.629
16947W        W76241  37.474  33.570  12.023
16948W        W76242  43.379  38.340   2.735
16949W        W76243  41.920  36.894  14.806
16950W        W76244  32.521   2.900   1.324
16951W        W76245   4.287  37.462   1.847
16952W        W76246  37.932  28.478   0.390
16953W        W76247  16.285  12.843   3.148
16954W        W76248  20.530  32.619   2.860
16955W        W76249   0.323  13.312  13.953
16956W        W76250  20.657  19.064  13.841
16957W        W76251   6.693   8.200  10.624
16958W        W76252  30.117  38.490   2.662
16959W        W76253   8.752  19.158  13.965
16960W        W76254  17.729  44.761  14.822
16961W        W76255  22.588   0.805   3.301
16962W        W76256  40.877  38.514  13.001
16963W        W76257  32.929   2.439   1.924
16964W        W76258   7.247   5.754  13.419
16965W        W76259  16.227   3.810   1.772
16966W        W76260  39.419  35.924  12.032
16967W        W76261  17.561   1.898  13.029
16968W        W76262   8.396  36.875   2.870
16969W        W76263  30.037  13.603   1.702
16970W        W76264   9.292  40.461   2.815
16971W        W76265  13.687   7.232   4.220
16972W        W76266  16.674  30.476   1.894
16973W        W76267  36.956   0.821  14.293
16974W        W76268  14.337  15.263  11.400
16975W        W76269  11.330  30.463  11.969
16976W        W76270  37.351  34.946  12.078
16977W        W76271  18.215  44.977  14.473
16978W        W76272  37.414   5.218  11.026
16979W        W76273  37.074   1.437  12.450
16980W        W76274  31.644  36.428  12.850
16981W        W76275   2.259   0.322  10.117
16982W        W76276   0.910  32.957  14.501
16983W        W76277  42.886  43.269  10.093
16984W        W76278   4.885  34.018   2.340
16985W        W76279   4.912  30.964  14.923
16986W        W76280   0.890   1.398  13.029
16987W        W76281  20.174  32.463   2.851
16988W        W76282  27.148  41.954   1.324
16989W        W76283  24.163   5.249  14.908
16990W        W76284   9.770  34.393  11.918
16991W        W76285  10.643  42.476  10.642
16992W        W76286  23.045  22.712   2.897
16993W        W76287  36.360  20.246   4.166
16994W        W76288  12.131   3.398  12.082
16995W        W76289  22.077  35.477  12.845
16996W        W76290  16.755  25.689  14.893
16997W        W76291  14.812  29.094   9.945
16998W        W76292   8.304   2.791  14.891
16999W        W76293  42.301  10.174  14.832
17000W        W76294  15.783  43.871   2.205
17001W        W76295  26.536  26.046  14.491
17002W        W76296  16.296  42.840   4.658
17003W        W76297  35.017  19.251   1.760
17004W        W76298  37.977  26.685  14.776
17005W        W76299  27.626  26.600  14.846
17006W        W76300   5.885  17.151  14.924
17007W        W76301  20.580  29.062  11.887
17008W        W76302  22.107  32.481   0.281
17009W        W76303  16.237  14.263  13.015
17010W        W76304   6.420  25.071   5.223
17011W        W76305  40.469  14.695   4.153
17012W        W76306   5.388  13.261  10.965
17013W        W76307  43.389  13.816   3.315
17014W        W76308  23.110  35.550   1.933
17015W        W76309  22.698  13.666   2.803
17016W        W76310   5.819   0.885  14.364
17017W        W76311  42.992  24.542  11.995
17018W        W76312   9.284  34.923   3.676
17019W        W76313  15.113  28.080  10.643
17020W        W76314  29.149  44.395  13.317
17021W        W76315  21.260  35.586  12.357
17022W        W76316  26.609   9.233   5.170
17023W        W76317  36.349  42.465  10.643
17024W        W76318  24.549  36.862  12.462
17025W        W76319  30.421   9.199  12.459
17026W        W76320  42.924  12.654  14.431
17027W        W76321  44.793  14.292   0.324
17028W        W76322   6.340  30.125  14.393
17029W        W76323   2.305  20.264  12.552
17030W        W76324  23.671  42.911  14.275
17031W        W76325  15.757  18.113   0.312
17032W        W76326  12.169  37.887  12.393
17033W        W76327  18.163  27.554  11.962
17034W        W76328  17.151  14.213   1.240
17035W        W76329   6.836  26.506  11.582
17036W        W76330   9.289   4.798  12.399
17037W        W76331  17.140   9.764   4.244
17038W        W76332  24.080  24.017  11.458
17039W        W76333   3.267  33.996   4.225
17040W        W76334   2.237  30.617   3.316
17041W        W76335  36.891  24.191   1.269
17042W        W76336   0.455  29.044   1.324
17043W        W76337   9.793   9.279  14.418
17044W        W76338  41.331  33.938  14.927
17045W        W76339   3.373   6.812  11.534
17046W        W76340   3.226   5.890   1.360
17047W        W76341  11.640   4.775   1.362
17048W        W76342  29.529   7.797  13.974
17049W        W76343  44.423   2.829  14.309
17050W        W76344  22.605  32.099   1.357
17051W        W76345  27.449  29.118  14.290
17052W        W76346  16.663   4.729  13.511
17053W        W76347   0.970   5.693   0.419
17054W        W76348  38.423  39.951   1.707
17055W        W76349  19.584  12.816  14.314
17056W        W76350  29.969  42.001   5.639
17057W        W76351  18.254  20.735   0.833
17058W        W76352  31.916  31.554   2.808
17059W        W76353  31.073  34.534  14.018
17060W        W76354  38.353  40.874  13.800
17061W        W76355  14.654  30.986   1.752
17062W        W76356  24.561  16.258  12.412
17063W        W76357   2.226  23.610  13.539
17064W        W76358  27.596  40.882  12.349
17065W        W76359  35.026  10.864  14.440
17066W        W76360   1.383  30.070  14.468
17067W        W76361  29.556   8.340   4.343
17068W        W76362  15.170  19.581   1.817
17069W        W76363  14.665  44.853   0.783
17070W        W76364  25.030  10.368   4.677
17071W        W76365  16.133   2.960  12.837
17072W        W76366  16.729   4.232   3.338
17073W        W76367  35.586   7.230  13.012
17074W        W76368  40.397   9.762   3.226
17075W        W76369  39.494  27.644   1.326
17076W        W76370  34.416   3.795   1.849
17077W        W76371   3.840  17.217  13.322
17078W        W76372   0.286  18.057  10.607
17079W        W76373  29.520  36.496   1.761
17080W        W76374   9.369  19.626   3.294
17081W        W76375  31.101   4.281   2.330
17082W        W76376  29.051  31.405   4.626
17083W        W76377  27.037  33.997   1.212
17084W        W76378  20.213  42.904   1.893
17085W        W76379  13.123  35.954   5.160
17086W        W76380  28.064  16.687  14.900
17087W        W76381  37.992  25.091  14.990
17088W        W76382  41.791   4.338   2.895
17089W        W76383  11.671  26.573   4.731
17090W        W76384  23.029  43.865   1.213
17091W        W76385  29.619  34.478  12.894
17092W        W76386  15.255  17.146   0.769
17093W        W76387  35.505  11.735   4.791
17094W        W76388  21.217  42.306   1.773
17095W        W76389  40.885   3.730  12.848
17096W        W76390   4.845  37.572   2.794
17097W        W76391  38.378   0.792  12.985
17098W        W76392  22.685   2.763  14.919
17099W        W76393  27.153  18.688   4.655
17100W        W76394   8.376  41.356   2.662
17101W        W76395   0.878  17.585   4.276
17102W        W76396  31.556  33.581   1.265
17103W        W76397  20.681  18.559   1.447
17104W        W76398   3.244  42.970  13.809
17105W        W76399  23.670  24.637   3.268
17106W        W76400  24.077   2.316  11.893
17107W        W76401  38.458  16.283   0.404
17108W        W76402  43.434  32.451  13.370
17109W        W76403   1.883  11.857   4.201
17110W        W76404   3.728  15.290  11.517
17111W        W76405  11.675  17.262   2.325
17112W        W76406  26.529  29.976  14.765
17113W        W76407  24.187  12.737   1.792
17114W        W76408   5.389  33.089   4.275
17115W        W76409   3.750  18.552   3.653
17116W        W76410  11.645   8.302   3.195
17117W        W76411   9.376  39.981  11.432
17118W        W76412   1.862   0.928  12.934
17119W        W76413  30.151  33.933  10.442
17120W        W76414  43.769  12.293   1.837
17121W        W76415  25.515  22.686  12.093
17122W        W76416  28.478  27.597   4.822
17123W        W76417  10.741   6.857   3.259
17124W        W76418   0.934  12.819  12.020
17125W        W76419   1.944  26.082  11.889
17126W        W76420  29.458  18.728  10.484
17127W        W76421   8.869  31.945  14.773
17128W        W76422  39.509  25.078   4.285
17129W        W76423  16.668  26.557   0.878
17130W        W76424   1.804  39.964   2.325
17131W        W76425  13.694  40.358  11.018
17132W        W76426  42.832  18.677   3.215
17133W        W76427  24.526  40.354   3.678
17134W        W76428  20.069  21.611   0.398
17135W        W76429  31.019   8.305  10.482
17136W        W76430   7.328  41.346   0.828
17137W        W76431   7.900  18.754   3.267
17138W        W76432  11.786  39.887  11.931
17139W        W76433  31.024  35.008   0.334
17140W        W76434  29.497  44.360   3.720
17141W        W76435  34.080   2.885   1.215
17142W        W76436   7.308  11.706  10.458
17143W        W76437  44.460  30.923  14.926
17144W        W76438   2.276  31.521   0.328
17145W        W76439   6.275  19.662  12.965
17146W        W76440   9.717  20.646   1.255
17147W        W76441  44.271   5.342   3.865
17148W        W76442  31.537  20.758  13.941
17149W        W76443   0.885   8.775   3.739
17150W        W76444  35.881  26.153  12.854
17151W        W76445  23.519  16.250  10.601
17152W        W76446  20.681   5.221   1.912
17153W        W76447  11.819  18.088   2.399
17154W        W76448   0.433  34.373  13.330
17155W        W76449  10.750   0.274  10.102
17156W        W76450   4.702  38.363   1.397
17157W        W76451   3.295  19.555   3.749
17158W        W76452  11.845  40.956   0.299
17159W        W76453  23.108  30.056  11.422
17160W        W76454  10.174  22.130   0.965
17161W        W76455  16.156  21.666  12.488
17162W        W76456  16.186  34.095  10.642
17163W        W76457  14.202  20.525   0.372
17164W        W76458  19.131   7.688  12.561
17165W        W76459   3.747  19.090  10.940
17166W        W76460   5.917  38.016   0.827
17167W        W76461   4.817  41.398  12.870
17168W        W76462  32.630  20.272   1.753
17169W        W76463  16.258  31.035   0.933
17170W        W76464  26.129   5.917  11.560
17171W        W76465   0.431  29.958   3.159
17172W        W76466  23.550  25.656  11.578
17173W        W76467  13.708  21.041   2.801
17174W        W76468   8.761  12.752   2.197
17175W        W76469   7.710  44.809   0.884
17176W        W76470  13.791  41.409   0.809
17177W        W76471  11.147  33.455  12.386
17178W        W76472  12.807   4.714  11.539
17179W        W76473  28.077  38.330  13.876
17180W        W76474  43.002   6.409   0.906
17181W        W76475  24.614  42.321  12.848
17182W        W76476   1.977  22.548   4.323
17183W        W76477   5.878  39.405   1.394
17184W        W76478   3.300  18.244   1.850
17185W        W76479   9.727  39.019  12.874
17186W        W76480  29.593  30.624   2.725
17187W        W76481  20.146  10.690  10.482
17188W        W76482   1.482   3.732   1.379
17189W        W76483   2.301  42.300  11.094
17190W        W76484  15.296  31.492  11.053
17191W        W76485  39.392  10.162   2.895
17192W        W76486  20.145  26.111   2.294
17193W        W76487   0.336  29.142   4.337
17194W        W76488  22.184  23.007  11.440
17195W        W76489  28.467   1.287  13.453
17196W        W76490  19.106   3.772   3.869
17197W        W76491  30.531  42.816  14.759
17198W        W76492  36.526   2.435  10.600
17199W        W76493  25.669  43.403  12.971
17200W        W76494  13.151   2.354  13.821
17201W        W76495  15.688  34.596  13.424
17202W        W76496   6.398  34.003  13.405
17203W        W76497  17.120  41.512  14.951
17204W        W76498  37.409  22.530  11.090
17205W        W76499  23.506  42.996   4.838
17206W        W76500  42.820   8.239  11.982
17207W        W76501   9.350  16.217  12.079
17208W        W76502  19.199  12.829  10.028
17209W        W76503  40.318   5.258  13.807
17210W        W76504  14.204  22.603  12.057
17211W        W76505   6.253   2.270  11.603
17212W        W76506  11.744  15.739  12.074
17213W        W76507  19.568   8.705  12.855
17214W        W76508  36.464  15.602   2.685
17215W        W76509  41.538  42.363   2.405
17216W        W76510  17.596  11.692  13.424
17217W        W76511  31.431  15.719  10.015
17218W        W76512   5.384  17.580   0.250
17219W        W76513  13.719  29.175  11.496
17220W        W76514  37.045  20.604   2.752
17221W        W76515  34.089   0.412  12.967
17222W        W76516  43.380  41.800   4.742
17223W        W76517  10.731  37.552  10.953
17224W        W76518  29.016  35.567   2.725
17225W        W76519   4.336  30.600  13.890
17226W        W76520  42.300  26.480   1.445
17227W        W76521  32.915   7.190   2.331
17228W        W76522   2.847  24.978   1.446
17229W        W76523  21.652  17.594   4.301
17230W        W76524  16.163   3.458   0.805
17231W        W76525  22.191  20.073   0.959
17232W        W76526  44.932  26.956   0.316
17233W        W76527  21.539  15.690  12.031
17234W        W76528  43.403   5.364   1.380
17235W        W76529  11.187  30.638   1.400
17236W        W76530  31.403   8.880  10.573
17237W        W76531   5.810  35.967  14.430
17238W        W76532   3.841  44.473  13.863
17239W        W76533   3.761  15.138  14.852
17240W        W76534  40.519   4.843  11.436
17241W        W76535  19.113   3.934  11.535
17242W        W76536   7.703  38.477  13.034
17243W        W76537   1.840  19.668  14.487
17244W        W76538  43.422   5.411  11.554
17245W        W76539   7.782  37.455  12.075
17246W        W76540  22.641   1.926   0.413
17247W        W76541  19.663   5.901   4.675
17248W        W76542  39.052  27.178  11.585
17249W        W76543  37.430   0.297  14.881
17250W        W76544  39.502   7.207   3.326
17251W        W76545  25.631  13.277  11.107
17252W        W76546  39.469  25.993   4.757
17253W        W76547  30.153   6.398  13.958
17254W        W76548  38.835  32.992   0.276
17255W        W76549  20.580  24.721   4.240
17256W        W76550  41.880  33.959   2.194
17257W        W76551   3.243  28.007  14.422
17258W        W76552  14.165   0.343   3.375
17259W        W76553  31.142  23.007   4.212
17260W        W76554  17.062  14.609   2.367
17261W        W76555  41.915  38.416  11.514
17262W        W76556   0.351  10.292  10.117
17263W        W76557   3.868  20.635  12.514
17264W        W76558   2.446  17.196   2.733
17265W        W76559  20.149   4.732   1.451
17266W        W76560  11.295  34.391   3.696
17267W        W76561  10.366   2.380   4.623
17268W        W76562   4.211  38.921   3.689
17269W        W76563  38.977  42.924  11.048
17270W        W76564   7.383  34.401   9.986
17271W        W76565   7.316  31.436  14.964
17272W        W76566  11.348  42.786   2.731
17273W        W76567  30.450  11.196   4.733
17274W        W76568  37.387   5.820  11.973
17275W        W76569  11.864   3.728  11.125
17276W        W76570  16.140  28.958   1.852
17277W        W76571   3.719  43.809   4.604
17278W        W76572  21.226  25.525  11.958
17279W        W76573   7.802   1.438  10.007
17280W        W76574  17.776  43.310  14.001
17281W        W76575  28.580  38.426   4.330
17282W        W76576  38.457  39.498  10.092
17283W        W76577  17.073   5.793   3.305
17284W        W76578  41.983   7.883   2.222
17285W        W76579  27.158  44.321   1.817
17286W        W76580  15.578  25.602   1.449
17287W        W76581  11.365  14.277  11.604
17288W        W76582   0.931  34.432   2.216
17289W        W76583   4.243  19.731   0.792
17290W        W76584  19.723  27.177   4.818
17291W        W76585   2.740  10.360  12.527
17292W        W76586  19.050  22.521   4.146
17293W        W76587  41.889  15.246  10.504
17294W        W76588  27.946  12.166   4.751
17295W        W76589  40.467  27.571   2.782
17296W        W76590  33.432  23.149  12.517
17297W        W76591  41.439   2.470  11.956
17298W        W76592  18.098  22.648   0.380
17299W        W76593  35.028  20.121   1.895
17300W        W76594  32.109   3.855   2.356
17301W        W76595  24.988   8.800  11.904
17302W        W76596  25.708   5.299  13.482
17303W        W76597   7.890  14.274   5.245
17304W        W76598  35.473  44.462   1.403
17305W        W76599  28.634  30.648   2.733
17306W        W76600  44.862  28.673   2.831
17307W        W76601   1.377  35.051  13.912
17308W        W76602  29.495   4.845   5.300
17309W        W76603  40.948  16.582   0.433
17310W        W76604  11.324  39.969   2.883
17311W        W76605   1.449  42.898   3.836
17312W        W76606  14.214  44.929  13.435
17313W        W76607  42.799   1.756  14.956
17314W        W76608   4.732  30.620  12.390
17315W        W76609  19.051  36.417  13.048
17316W        W76610  23.177   6.843   5.105
17317W        W76611   9.792  13.701   2.186
17318W        W76612  10.236  23.102   2.848
17319W        W76613  27.528  20.523   1.400
17320W        W76614  42.857  23.076   3.651
17321W        W76615  18.762  19.121   0.813
17322W        W76616  40.856  13.759  13.547
17323W        W76617  39.865  18.293  14.885
17324W        W76618  31.413  11.218  12.965
17325W        W76619   9.833   5.803  12.341
17326W        W76620  14.743  39.443   0.317
17327W        W76621  25.207  30.514  10.475
17328W        W76622  35.599  23.523  14.930
17329W        W76623  39.920  30.539   1.757
17330W        W76624  41.819  28.116   1.386
17331W        W76625  37.355  21.243   5.196
17332W        W76626   2.806   7.816  12.422
17333W        W76627  42.814  29.518  12.024
17334W        W76628  36.423   2.454   2.297
17335W        W76629  18.137  30.651  11.462
17336W        W76630   0.413  44.812  11.062
17337W        W76631  29.136  38.926   0.964
17338W        W76632  31.046   4.910   1.334
17339W        W76633   0.344   4.749  13.838
17340W        W76634   7.258  27.137  12.045
17341W        W76635  13.237  20.083  10.926
17342W        W76636  14.339  38.564   1.344
17343W        W76637   4.724   4.764  11.450
17344W        W76638  29.491  35.600   3.732
17345W        W76639  21.244  17.684   1.441
17346W        W76640  41.812  27.660   1.712
17347W        W76641  35.365   3.327   3.159
17348W        W76642   3.877   0.938   1.727
17349W        W76643   3.339  41.948  10.935
17350W        W76644  35.524  26.642   1.289
17351W        W76645  38.052  13.628   1.707
17352W        W76646  18.702   4.939   0.919
17353W        W76647  29.923  26.037   3.726
17354W        W76648   4.423   6.879  12.089
17355W        W76649  39.947  39.054   2.799
17356W        W76650   1.811  24.568   0.355
17357W        W76651  37.020  20.648  12.089
17358W        W76652   9.391  27.542   4.210
17359W        W76653  16.160  10.739  10.572
17360W        W76654  43.272   2.798   1.894
17361W        W76655   1.310  30.425  13.509
17362W        W76656  32.612  36.999  13.393
17363W        W76657  26.589  22.059   1.299
17364W        W76658  22.144  22.634  12.367
17365W        W76659  25.062  23.547   0.379
17366W        W76660  10.645   0.250   1.866
17367W        W76661  17.763  41.945  12.348
17368W        W76662  13.735  14.108   0.941
17369W        W76663   4.730  32.940  13.470
17370W        W76664   8.731   6.182  13.891
17371W        W76665  28.030  31.925  14.761
17372W        W76666  38.468  19.686  12.517
17373W        W76667   7.279   8.350   1.793
17374W        W76668  32.548  25.989  12.440
17375W        W76669  10.806  35.916   3.224
17376W        W76670   3.921  18.051   2.336
17377W        W76671  27.000  14.762  10.959
17378W        W76672  19.576  11.237   2.720
17379W        W76673  38.417  42.503   2.254
17380W        W76674  19.091  19.274   4.619
17381W        W76675   8.336  22.622  13.355
17382W        W76676  34.518  35.409   1.257
17383W        W76677  15.677  33.900  13.437
17384W        W76678  35.987  27.517  11.994
17385W        W76679  13.116  12.690  12.438
17386W        W76680  32.509  29.023   2.787
17387W        W76681  14.825  13.795  12.384
17388W        W76682  44.861  39.956  14.782
17389W        W76683  30.079   4.264  10.484
17390W        W76684  20.633  15.158  11.070
17391W        W76685  16.696  30.925   4.838
17392W        W76686  17.686  17.137  14.761
17393W        W76687  42.396  43.994   1.302
17394W        W76688  29.131  29.935   4.833
17395W        W76689  32.140   9.384  11.547
17396W        W76690  42.793   4.899  11.955
17397W        W76691  33.125  25.117   4.159
17398W        W76692  42.839  15.759  14.956
17399W        W76693  26.573  44.990   3.753
17400W        W76694  41.409  42.922  11.511
17401W        W76695  34.916  20.583   1.357
17402W        W76696  15.267  10.754   3.754
17403W        W76697   4.385   8.732   3.835
17404W        W76698  32.053  25.475   0.422
17405W        W76699  34.871  44.945  14.960
17406W        W76700   0.971  42.417  11.945
17407W        W76701   7.279  33.978  12.944
17408W        W76702  39.055  40.010  10.028
17409W        W76703  44.790  42.421  12.494
17410W        W76704  22.588  25.482   1.404
17411W        W76705  38.934  38.950   3.361
17412W        W76706  40.046  26.682   3.648
17413W        W76707  32.624  31.541   4.213
17414W        W76708   0.810  30.084   3.175
17415W        W76709  21.103  30.568  14.912
17416W        W76710   7.823   7.287  13.475
17417W        W76711  16.074  12.255   2.376
17418W        W76712  32.899  17.081  14.866
17419W        W76713   6.401  12.320   4.174
17420W        W76714  14.313   9.287  14.358
17421W        W76715   1.909  19.086   2.358
17422W        W76716  34.009  33.942   2.307
17423W        W76717  25.161   7.397   4.169
17424W        W76718  15.664  40.994   4.743
17425W        W76719  32.507  27.063   0.373
17426W        W76720  42.464   8.884   2.811
17427W        W76721  26.596   4.886   5.231
17428W        W76722  41.524  16.214  10.538
17429W        W76723  12.765   1.814   3.670
17430W        W76724  11.790  33.039   3.852
17431W        W76725  33.064  39.829   3.301
17432W        W76726  25.055  33.079  14.403
17433W        W76727   4.341  39.872   0.403
17434W        W76728  10.769   2.942  14.367
17435W        W76729   1.358  33.626   3.314
17436W        W76730  23.702  24.606   0.347
17437W        W76731  23.038  13.341   2.691
17438W        W76732  24.110   3.309   2.872
17439W        W76733  27.491  15.196   3.172
17440W        W76734  23.540  31.589   1.859
17441W        W76735  23.984  36.977  11.956
17442W        W76736  35.889  29.664   4.185
17443W        W76737  13.111  33.936  10.135
17444W        W76738  39.066   9.250  10.129
17445W        W76739  20.658   6.365   4.599
17446W        W76740  13.697  44.963   4.795
17447W        W76741  40.482   8.889   1.803
17448W        W76742  42.991  11.692  11.971
17449W        W76743  22.061  20.073  11.411
17450W        W76744  15.660  42.947   0.891
17451W        W76745  26.518  22.135   4.817
17452W        W76746   7.771   9.316  12.975
17453W        W76747   1.867   2.906   3.786
17454W        W76748  35.917  34.446   1.313
17455W        W76749   9.889  44.458  14.384
17456W        W76750  18.765  30.054   4.205
17457W        W76751  41.516   8.837   3.736
17458W        W76752  10.210  28.494  13.385
17459W        W76753  12.676  38.443   1.800
17460W        W76754   0.970  21.638  11.855
17461W        W76755  19.677  40.048  13.396
17462W        W76756   8.312   8.168  14.850
17463W        W76757  31.564  38.356   1.272
17464W        W76758  25.129  35.530  11.518
17465W        W76759   6.205  37.497  13.546
17466W        W76760  25.966   3.458   4.256
17467W        W76761  19.256  33.929   3.338
17468W        W76762  28.090   9.373   0.468
17469W        W76763  21.637  31.552   3.644
17470W        W76764  43.422  13.798  14.501
17471W        W76765   4.335  18.617  12.946
17472W        W76766  40.054  37.416  12.973
17473W        W76767  37.861  35.378  12.347
17474W        W76768   1.282  24.489  13.376
17475W        W76769  10.280  44.379  10.629
17476W        W76770  10.642  28.001  14.828
17477W        W76771   9.822  16.212   4.741
17478W        W76772  11.294  18.099   3.718
17479W        W76773  16.092  13.685   3.697
17480W        W76774  34.490  41.304  10.492
17481W        W76775  26.033  17.597  11.451
17482W        W76776  39.425  43.495  11.974
17483W        W76777  23.171  40.803  12.849
17484W        W76778  44.779  35.013   3.738
17485W        W76779   7.238  43.290   4.133
17486W        W76780  33.937   9.173  12.398
17487W        W76781   3.264   8.304  10.483
17488W        W76782   0.855   7.895   2.411
17489W        W76783  40.880   7.901   3.266
17490W        W76784  35.018  43.298  13.430
17491W        W76785   0.488  18.751   2.859
17492W        W76786  41.301  18.742   0.801
17493W        W76787  22.126   1.873   0.431
17494W        W76788  26.954  27.025   2.245
17495W        W76789   3.772   5.876  13.029
17496W        W76790   5.326  38.991  14.933
17497W        W76791  42.401  36.843   2.765
17498W        W76792  27.030   6.312  11.019
17499W        W76793  36.889  32.042   9.922
17500W        W76794  43.849   5.317   3.754
17501W        W76795  26.635   7.677   4.312
17502W        W76796  15.237  32.553  12.990
17503W        W76797  30.548  19.538   4.825
17504W        W76798  17.158  23.191   2.805
17505W        W76799  44.267  16.721   0.277
17506W        W76800  40.438  35.051   0.470
17507W        W76801  40.026  14.127   1.838
17508W        W76802  17.613  22.558  14.971
17509W        W76803  11.714  44.863   2.675
17510W        W76804  17.092  43.826   0.751
17511W        W76805  20.666   8.197   1.229
17512W        W76806  34.422  10.709  11.376
17513W        W76807  28.055  22.120  11.426
17514W        W76808   7.229  36.469   1.374
17515W        W76809   4.228  19.606   1.874
17516W        W76810   2.293  12.835   5.252
17517W        W76811  13.235  35.363  13.860
17518W        W76812  27.016  19.642  12.840
17519W        W76813  43.480  30.010  14.761
17520W        W76814   4.205  14.215   3.787
17521W        W76815  24.980  39.011   4.152
17522W        W76816  20.763  32.592  11.929
17523W        W76817  28.538   7.268  14.961
17524W        W76818  17.245  29.003  13.964
17525W        W76819  29.947  27.674  14.920
17526W        W76820  13.724  38.464  12.866
17527W        W76821  37.430  42.385   1.390
17528W        W76822  31.533   3.887  10.974
17529W        W76823   6.676  37.904   3.677
17530W        W76824  28.508  21.747   1.733
17531W        W76825  18.161  13.208  12.447
17532W        W76826  29.561  19.243   0.927
17533W        W76827  15.116   7.818   0.315
17534W        W76828  24.628  16.657   3.346
17535W        W76829  43.276  30.475   4.647
17536W        W76830  44.853  11.309   1.441
17537W        W76831  27.512  23.230   0.872
17538W        W76832   4.425  16.154  14.029
17539W        W76833  10.717   3.749   2.837
17540W        W76834  39.338  17.286  10.565
17541W        W76835  43.841  31.947  10.574
17542W        W76836  30.417  15.714  13.971
17543W        W76837   4.220  29.150   1.407
17544W        W76838   5.249  37.863  12.919
17545W        W76839   5.796  41.347   1.921
17546W        W76840  22.147  17.771  11.556
17547W        W76841  26.613   2.955   3.199
17548W        W76842  28.152  13.111  13.971
17549W        W76843  26.597  33.081  10.462
17550W        W76844  11.265  42.968   4.263
17551W        W76845   0.781  20.613   4.692
17552W        W76846  19.065  16.214  14.019
17553W        W76847  38.535  15.615  12.341
17554W        W76848   3.224  33.525   2.337
17555W        W76849  39.396  44.385   0.784
17556W        W76850  25.496  39.026  14.015
17557W        W76851  37.410  30.493   4.817
17558W        W76852  36.471  10.779  12.889
17559W        W76853  19.542   4.732   2.189
17560W        W76854  12.737  20.536   0.905
17561W        W76855  43.286  14.670   0.905
17562W        W76856  14.759  41.816  12.436
17563W        W76857  32.987  10.868   1.761
17564W        W76858  24.580  36.915   0.733
17565W        W76859  28.661   4.364  13.367
17566W        W76860  33.027  38.443   1.811
17567W        W76861  40.802  36.564  13.403
17568W        W76862  15.619  26.161   4.598
17569W        W76863   8.892  28.117   3.673
17570W        W76864   8.654  13.234  14.792
17571W        W76865  27.977  16.745  11.038
17572W        W76866   9.313   2.256  11.123
17573W        W76867  42.415   9.654   4.196
17574W        W76868  21.182  33.448   1.289
17575W        W76869   5.734  17.154  13.803
17576W        W76870  36.416  23.554   2.823
17577W        W76871  22.557   3.433  10.410
17578W        W76872  15.112  37.417   2.851
17579W        W76873  29.575  32.608  13.908
17580W        W76874  25.117  22.248   0.789
17581W        W76875  39.484  23.002  11.393
17582W        W76876  41.293   9.856   1.305
17583W        W76877  41.397  33.967  11.085
17584W        W76878  22.723  42.446  12.473
17585W        W76879  14.743  23.134   0.438
17586W        W76880   1.839  24.227  10.517
17587W        W76881  41.938  43.813  14.929
17588W        W76882  26.468  42.459   1.385
17589W        W76883  28.951  37.452  10.605
17590W        W76884  32.066   9.870   1.731
17591W        W76885  22.204   5.764   2.399
17592W        W76886  20.683  17.581  10.968
17593W        W76887  33.386   0.947  10.958
17594W        W76888  20.213  32.494   1.398
17595W        W76889  35.402  16.756   4.640
17596W        W76890  25.575  11.265   0.373
17597W        W76891  18.173   0.426   1.267
17598W        W76892  25.584   2.839  14.423
17599W        W76893  38.381   9.229   0.804
17600W        W76894  40.338  37.350  12.044
17601W        W76895  36.923   7.290   4.132
17602W        W76896  30.431  24.504   0.283
17603W        W76897  41.821  40.005   2.328
17604W        W76898  40.351  37.432   2.700
17605W        W76899  12.625  19.766  12.450
17606W        W76900  24.593   2.858   2.795
17607W        W76901  25.182  38.971   9.668
17608W        W76902   7.266  44.895  13.003
17609W        W76903  33.513  18.221  12.544
17610W        W76904  18.234  10.241  12.559
17611W        W76905  30.062  23.212   1.402
17612W        W76906  10.312  19.560  10.464
17613W        W76907  36.018  18.555  14.336
17614W        W76908  37.047  12.277   3.648
17615W        W76909  19.655   3.802  10.460
17616W        W76910  41.329  13.299   2.261
17617W        W76911  21.670  22.123  11.899
17618W        W76912  30.479  22.727   4.295
17619W        W76913  35.969  44.371  11.541
17620W        W76914   6.810  16.637  12.066
17621W        W76915  16.785   4.934   1.696
17622W        W76916  15.230  19.066  14.356
17623W        W76917  43.785  25.522   1.790
17624W        W76918  39.535  43.481  13.927
17625W        W76919   1.935  19.281  13.041
17626W        W76920  43.377  13.287   4.801
17627W        W76921  23.991  38.863  14.947
17628W        W76922  26.569   1.958  14.768
17629W        W76923  33.122  28.536   1.753
17630W        W76924  22.048  42.837  10.945
17631W        W76925   4.879  33.130  14.436
17632W        W76926  21.060  30.535   1.366
17633W        W76927   3.926  25.705  13.329
17634W        W76928  13.633  34.599  11.931
17635W        W76929  25.034   0.869  12.841
17636W        W76930  26.109  39.470  13.538
17637W        W76931   7.388   7.304   0.450
17638W        W76932  25.046  10.792  14.890
17639W        W76933  22.100   0.791  12.034
17640W        W76934  34.421  42.299  14.861
17641W        W76935  37.559   2.466  14.883
17642W        W76936  13.630  35.084  12.957
17643W        W76937  24.712  43.335  11.577
17644W        W76938  26.003  20.560  14.368
17645W        W76939  36.369  26.581  14.963
17646W        W76940   8.303   7.833  13.996
17647W        W76941  30.484  39.898   5.734
17648W        W76942  39.509   0.861  14.845
17649W        W76943   4.773  30.932  11.919
17650W        W76944  32.137  28.082   0.324
17651W        W76945  22.205  37.956   2.697
17652W        W76946   2.250  36.386  12.927
17653W        W76947  11.329  17.787  12.353
17654W        W76948  36.036   6.305  12.455
17655W        W76949  14.170  41.489  10.149
17656W        W76950  38.336   4.350  14.819
17657W        W76951   6.392  38.534  11.974
17658W        W76952   5.405  34.610   1.699
17659W        W76953  33.989  42.932   3.776
17660W        W76954  23.991  43.277   3.300
17661W        W76955  28.526  12.248  11.428
17662W        W76956  42.950  39.467  11.074
17663W        W76957  31.998   0.874  14.302
17664W        W76958  22.609   1.284   3.631
17665W        W76959  29.121   6.918  11.020
17666W        W76960  21.203  15.204   1.333
17667W        W76961  33.395  18.739  11.384
17668W        W76962  33.058  21.514  13.994
17669W        W76963  14.247  25.074   0.728
17670W        W76964  43.299   1.268  13.310
17671W        W76965  40.943   4.448   1.765
17672W        W76966  21.727  11.312  13.060
17673W        W76967  36.999  44.416  14.840
17674W        W76968  31.454   9.246   2.379
17675W        W76969  18.250  34.578   0.279
17676W        W76970  21.677  38.036  13.052
17677W        W76971  20.265   1.880  11.113
17678W        W76972   6.780  12.773   1.904
17679W        W76973   9.244  38.825   2.900
17680W        W76974  21.658   0.344  14.462
17681W        W76975  26.495   7.878  13.020
17682W        W76976  37.382  10.741  12.927
17683W        W76977  40.979  38.401   4.673
17684W        W76978  29.580  11.814   1.910
17685W        W76979  34.391   2.231   4.275
17686W        W76980  15.270  43.336  13.847
17687W        W76981  35.919  20.102  11.869
17688W        W76982  31.505  20.726  11.085
17689W        W76983   6.882  40.315   1.257
17690W        W76984  21.044  29.023  11.092
17691W        W76985  18.109   3.321   1.824
17692W        W76986  31.014  27.050   0.386
17693W        W76987  23.061  23.613  14.516
17694W        W76988   3.788  15.185  12.489
17695W        W76989  27.458   8.899  10.032
17696W        W76990  24.702   5.419   3.789
17697W        W76991  15.280   2.929  11.040
17698W        W76992  15.232   0.956  14.921
17699W        W76993   2.268  39.063   1.722
17700W        W76994   5.856  14.638  13.437
17701W        W76995  35.421   0.955   4.615
17702W        W76996  12.294  20.145   4.622
17703W        W76997  14.625  13.618  11.494
17704W        W76998  27.652  30.417  12.464
17705W        W76999  34.038  19.634   3.837
17706W        W77000  39.982  18.245   0.398
17707W        W77001  15.637  24.640   0.844
17708W        W77002  44.955  15.706   0.761
17709W        W77003  16.216  14.691   3.277
17710W        W77004  17.599  31.951   4.733
17711W        W77005  13.342  29.525   1.358
17712W        W77006  19.179  22.146   0.441
17713W        W77007  23.101   3.339  12.344
17714W        W77008  35.531  18.128  12.946
17715W        W77009  33.026  43.316  13.425
17716W        W77010  44.376  33.009  10.453
17717W        W77011  34.428  32.521  10.995
17718W        W77012  29.053  31.143  13.876
17719W        W77013   7.376  22.598   4.676
17720W        W77014  44.470   3.222   1.741
17721W        W77015  20.746  38.405   3.241
17722W        W77016  10.331   5.849  12.052
17723W        W77017  14.636  17.065  14.011
17724W        W77018  34.483  24.152   2.394
17725W        W77019  10.157  13.177   4.304
17726W        W77020  30.019  38.568  12.370
17727W        W77021  40.485  22.619  11.465
17728W        W77022  43.900  15.328   3.794
17729W        W77023   6.324  13.287   2.889
17730W        W77024  28.566  21.031  10.134
17731W        W77025  32.033  10.365  13.029
17732W        W77026  13.265  44.989   3.726
17733W        W77027  33.879  21.062  14.383
17734W        W77028   9.752   3.321   4.248
17735W        W77029   5.776  35.885   0.800
17736W        W77030  18.229  11.295  10.417
17737W        W77031  36.405  44.797  10.526
17738W        W77032  31.017  35.452  10.442
17739W        W77033   7.270  28.660  12.020
17740W        W77034  37.018  44.770  11.011
17741W        W77035  36.923  10.789   2.702
17742W        W77036   4.216  39.533  11.476
17743W        W77037  44.787   4.788  13.484
17744W        W77038  34.021  14.730  14.971
17745W        W77039  35.007  41.305  12.844
17746W        W77040  30.431  36.858   2.413
17747W        W77041   0.459   9.379   1.362
17748W        W77042  31.568  40.890   3.646
17749W        W77043  37.011   4.237  10.910
17750W        W77044  40.929  20.618  13.307
17751W        W77045  40.352  35.074  14.809
17752W        W77046  22.033   2.867   1.319
17753W        W77047  24.632  31.943  12.944
17754W        W77048  22.209  35.540  13.407
17755W        W77049  26.086  33.605   0.882
17756W        W77050  29.489  34.072  10.512
17757W        W77051  14.207  40.957  14.515
17758W        W77052  21.706  10.754  13.482
17759W        W77053  21.517  29.928   4.241
17760W        W77054   2.312  11.664  13.905
17761W        W77055  12.327   8.667  11.080
17762W        W77056  36.523  26.516   9.983
17763W        W77057   0.904   6.725  14.299
17764W        W77058  14.625   2.899  10.530
17765W        W77059  36.567  39.835  12.447
17766W        W77060  44.414   1.294  11.547
17767W        W77061  11.313  32.071  11.063
17768W        W77062  12.789  16.689   2.362
17769W        W77063  38.549   0.805   3.869
17770W        W77064  40.011   8.811   3.261
17771W        W77065  19.768   4.225  12.467
17772W        W77066  14.689  36.442  13.464
17773W        W77067   2.257  12.752   3.306
17774W        W77068  44.262  36.868  12.961
17775W        W77069  30.051  16.083   0.329
17776W        W77070  17.123   7.748  12.838
17777W        W77071  15.784  23.695   4.148
17778W        W77072  24.033  17.724   2.399
17779W        W77073  44.397  18.122   4.278
17780W        W77074  42.937  27.502   0.419
17781W        W77075  28.046  10.828   4.610
17782W        W77076  41.292  34.557   2.728
17783W        W77077  16.603  42.351  13.920
17784W        W77078   3.290  32.962  12.434
17785W        W77079  28.991  20.258  12.057
17786W        W77080   7.231  15.277   2.881
17787W        W77081  13.341   0.968  12.901
17788W        W77082  13.843  14.267   3.863
17789W        W77083  33.486   6.818   3.163
17790W        W77084   1.407  34.994   3.865
17791W        W77085  13.789  28.046   1.329
17792W        W77086   6.226  30.981   9.529
17793W        W77087  42.778   7.376  10.499
17794W        W77088  15.260  27.190   3.855
17795W        W77089  35.368  42.484   1.912
17796W        W77090  10.272   5.873   0.858
17797W        W77091  16.256  30.033  13.361
17798W        W77092  42.804  28.132   2.816
17799W        W77093  20.090  30.421  10.938
17800W        W77094   0.856  36.469  10.404
17801W        W77095   2.791  19.193   4.238
17802W        W77096  32.497  17.635   1.719
17803W        W77097  31.455  34.583   4.165
17804W        W77098  33.898  16.158   1.269
17805W        W77099  15.268  23.573   2.888
17806W        W77100  34.613  31.150  14.355
17807W        W77101  14.748  35.597   4.197
17808W        W77102  43.463  28.621  12.392
17809W        W77103   9.803   1.472  13.799
17810W        W77104  10.822  39.852  10.974
17811W        W77105  38.951  42.026  14.001
17812W        W77106   8.900  20.166  14.395
17813W        W77107  22.659  33.501   3.769
17814W        W77108  43.933  44.922   9.526
17815W        W77109  25.555  42.884  14.993
17816W        W77110  26.552  18.666  14.861
17817W        W77111  12.161   1.751  12.855
17818W        W77112  22.155   4.814   3.156
17819W        W77113   3.415  21.263  12.528
17820W        W77114  36.418  15.236  14.829
17821W        W77115  20.628   9.679  10.608
17822W        W77116  41.521  41.396  12.572
17823W        W77117  42.527  28.997  10.543
17824W        W77118  30.511   4.445  12.982
17825W        W77119   0.897  37.837   3.226
17826W        W77120  32.426  10.702  13.337
17827W        W77121  22.154   5.341   0.800
17828W        W77122  24.224   1.291   1.441
17829W        W77123  22.524  29.505   0.304
17830W        W77124  37.510   5.758   2.247
17831W        W77125   0.277  40.524  13.857
17832W        W77126  40.873  26.002   2.263
17833W        W77127  39.007   1.311   4.734
17834W        W77128  16.284   5.316  11.058
17835W        W77129  22.178  24.089   0.875
17836W        W77130   1.441   0.796  12.091
17837W        W77131  38.010  37.923   1.918
17838W        W77132  21.072  13.762   0.317
17839W        W77133  41.322  12.611   2.329
17840W        W77134   2.879   1.319   3.313
17841W        W77135  21.093  30.586   5.135
17842W        W77136  30.418  10.269   4.766
17843W        W77137   6.752  16.642  13.419
17844W        W77138  13.227  42.306  14.963
17845W        W77139  44.874   8.238  11.570
17846W        W77140  40.368  25.568  14.973
17847W        W77141  44.305  32.968   4.190
17848W        W77142  29.091  21.098  10.567
17849W        W77143  10.830  36.022  14.432
17850W        W77144  30.941   1.257  14.328
17851W        W77145  35.375  44.969   2.253
17852W        W77146  10.333  17.650   1.806
17853W        W77147  43.479   1.361  12.413
17854W        W77148  33.937  41.299   3.370
17855W        W77149   1.750   6.251  11.407
17856W        W77150  32.392  34.421   1.763
17857W        W77151  32.030  30.449   1.708
17858W        W77152  31.925   3.943  12.865
17859W        W77153  20.052  16.152  11.397
17860W        W77154  21.028  35.512   0.745
17861W        W77155  22.546  27.998   5.092
17862W        W77156   4.231  30.105  14.358
17863W        W77157  19.177  38.928  14.009
17864W        W77158  28.055  41.425   0.795
17865W        W77159  37.371  34.469  12.389
17866W        W77160  20.643  19.563  12.939
17867W        W77161   4.421  33.411   3.275
17868W        W77162   3.793  12.193  12.895
17869W        W77163  11.251   4.808  14.374
17870W        W77164   4.864  14.660   3.809
17871W        W77165  32.456  10.775   4.669
17872W        W77166  38.505  14.236   1.254
17873W        W77167   4.782  12.622  13.315
17874W        W77168   8.862  43.291  13.464
17875W        W77169   7.860  20.767   3.150
17876W        W77170  32.010   3.379   2.355
17877W        W77171   0.761  40.956  13.378
17878W        W77172  30.004  33.396   3.244
17879W        W77173  14.200   2.732  12.559
17880W        W77174  18.221   4.374   1.931
17881W        W77175  28.498  39.318  14.463
17882W        W77176  33.541  24.098   0.962
17883W        W77177  44.377   6.697   4.615
17884W        W77178  40.969   9.161  10.977
17885W        W77179  23.054  33.564   2.190
17886W        W77180   9.312  36.044   0.406
17887W        W77181   2.934  33.571   2.288
17888W        W77182  37.436  31.628   4.313
17889W        W77183  10.876   2.834   3.351
17890W        W77184   0.253  27.538  11.912
17891W        W77185  26.479  22.202  12.986
17892W        W77186  16.285  29.071   1.337
17893W        W77187  13.617  40.388   4.300
17894W        W77188   8.269  28.505  14.830
17895W        W77189  23.605   2.242   0.778
17896W        W77190  17.658   2.279   3.211
17897W        W77191  23.712  13.645  14.007
17898W        W77192  21.073  23.231   4.776
17899W        W77193  10.301  29.012  14.372
17900W        W77194  35.925  21.651  12.486
17901W        W77195  13.689  40.897  14.012
17902W        W77196   8.694  26.528  12.824
17903W        W77197  40.437  32.929   0.256
17904W        W77198  30.095   1.885   1.276
17905W        W77199   3.828  26.499  12.860
17906W        W77200  38.944  40.533  14.898
17907W        W77201  25.580   5.909  11.128
17908W        W77202  42.377  13.133  11.002
17909W        W77203  34.991   4.872  13.920
17910W        W77204  15.211   3.909  12.340
17911W        W77205  38.010   9.263   2.870
17912W        W77206  18.139  36.085   3.781
17913W        W77207  13.660  41.909   0.740
17914W        W77208  40.504  23.728  10.597
17915W        W77209  43.908  31.933   1.907
17916W        W77210   2.816   0.284  13.052
17917W        W77211  25.109   6.429  12.072
17918W        W77212  21.680  20.563  11.527
17919W        W77213  16.218  39.502   2.682
17920W        W77214  21.258  23.648  10.605
17921W        W77215  19.150  30.657  12.552
17922W        W77216  35.981  23.527   0.472
17923W        W77217  12.285   6.248  14.772
17924W        W77218  10.754  22.594   0.258
17925W        W77219  10.265  35.476  14.298
17926W        W77220  36.572  16.584  13.407
17927W        W77221  41.419  29.010   1.745
17928W        W77222  21.688  28.597   4.197
17929W        W77223  38.919  19.538   2.375
17930W        W77224  33.541  18.720  11.118
17931W        W77225  32.506   1.791  10.436
17932W        W77226  29.979  32.106  11.018
17933W        W77227  36.575   4.784  13.931
17934W        W77228  30.034  30.164   3.820
17935W        W77229  12.673  20.578  14.443
17936W        W77230  30.118  11.829   3.294
17937W        W77231   5.799  40.948  12.965
17938W        W77232  15.776  35.521  13.988
17939W        W77233  16.187   8.804   3.829
17940W        W77234  31.490  24.133  10.570
17941W        W77235  11.745  40.347   1.308
17942W        W77236   8.372  33.532   2.892
17943W        W77237  27.958  18.149   4.725
17944W        W77238  34.506   6.698   1.225
17945W        W77239  15.146  38.886   1.301
17946W        W77240  20.238  22.028   4.292
17947W        W77241  22.200  28.129   4.283
17948W        W77242  25.972  34.922   0.483
17949W        W77243  43.372  27.644   4.683
17950W        W77244  42.969   7.773   4.130
17951W        W77245   6.407   3.770  11.927
17952W        W77246  37.521   4.429   3.306
17953W        W77247   3.922  41.502   3.658
17954W        W77248  39.019  31.564  10.983
17955W        W77249  35.387  35.901   3.744
17956W        W77250  18.609  19.672   4.800
17957W        W77251  14.173  16.745  11.108
17958W        W77252  13.842  42.836  12.493
17959W        W77253   2.761  43.860   4.736
17960W        W77254   4.253   1.939   1.894
17961W        W77255  31.582  20.088   2.677
17962W        W77256  32.897  34.398   0.967
17963W        W77257  38.463  19.594   2.191
17964W        W77258  36.580  21.732   4.797
17965W        W77259  32.458  31.091  13.966
17966W        W77260  16.652  22.540  11.059
17967W        W77261  22.115  27.666  13.401
17968W        W77262  41.500  40.351  14.827
17969W        W77263  37.013  10.148  14.342
17970W        W77264  23.544   7.283   1.778
17971W        W77265  35.448   0.282   2.190
17972W        W77266   2.292  40.882   4.727
17973W        W77267  41.894   3.831  14.899
17974W        W77268   9.884  26.569   0.856
17975W        W77269  18.058   2.942  14.774
17976W        W77270   9.206  39.926  13.321
17977W        W77271   1.906  20.616   0.771
17978W        W77272  17.150  31.482   3.160
17979W        W77273  20.241  21.571   0.731
17980W        W77274  43.894  22.588   3.367
17981W        W77275  31.499  28.064  14.824
17982W        W77276   9.362  15.626  12.093
17983W        W77277  33.885  16.581   1.298
17984W        W77278  29.631  23.557  13.826
17985W        W77279   6.824  14.607  14.374
17986W        W77280  38.466  21.249   0.268
17987W        W77281  37.965  18.554   0.306
17988W        W77282   8.661  29.576   4.720
17989W        W77283  35.888   3.952   1.698
17990W        W77284  32.542  31.552   3.219
17991W        W77285  27.477   8.392  13.525
17992W        W77286   3.253  14.802  12.008
17993W        W77287  30.412  32.604  14.476
17994W        W77288   5.411  25.580  11.885
17995W        W77289  43.775  25.057  10.932
17996W        W77290  36.963  34.548  13.533
17997W        W77291  25.132   2.935  14.347
17998W        W77292  28.035  17.295  14.975
17999W        W77293   1.428  11.748  13.848
18000W        W77294   5.693   9.192  12.061
18001W        W77295  14.294   0.387  10.418
18002W        W77296  25.522  38.051   1.823
18003W        W77297   1.913  29.553   2.680
18004W        W77298  26.991  41.955   2.230
18005W        W77299   9.664  22.064  10.087
18006W        W77300  12.268   3.377  14.913
18007W        W77301  35.406  18.634   1.821
18008W        W77302  27.545  25.704   0.460
18009W        W77303  29.500  12.342   0.441
18010W        W77304  36.915  36.513   3.848
18011W        W77305  43.983  17.111   0.342
18012W        W77306   6.804   8.882  14.768
18013W        W77307  19.650   3.239   2.672
18014W        W77308  32.059   7.698   0.272
18015W        W77309  30.108   9.789  11.045
18016W        W77310  35.532  18.224   2.758
18017W        W77311  38.046  26.964   3.681
18018W        W77312   2.396  42.406  13.949
18019W        W77313  28.137   5.850  12.407
18020W        W77314   3.865  39.439  14.815
18021W        W77315  42.786   4.744   1.277
18022W        W77316  40.897  30.056  14.355
18023W        W77317  27.106  29.152   2.797
18024W        W77318   9.207   4.892  10.901
18025W        W77319   6.361  10.325   2.211
18026W        W77320  17.259   9.738  13.001
18027W        W77321   5.221  41.012   1.743
18028W        W77322   6.375  35.394   4.185
18029W        W77323  24.497  35.600   3.667
18030W        W77324  17.739  26.063   4.717
18031W        W77325  32.565  15.325  11.989
18032W        W77326  32.931  24.220   1.275
18033W        W77327   1.831  23.988  11.374
18034W        W77328  25.172   1.263   0.771
18035W        W77329  41.922  16.145  10.496
18036W        W77330  15.329  21.105   5.263
18037W        W77331  19.592  38.497   3.328
18038W        W77332  16.605  43.348   1.388
18039W        W77333  32.951  29.937  14.985
18040W        W77334  12.341  17.187   2.396
18041W        W77335  26.167   5.253  14.301
18042W        W77336  13.785  23.563   3.765
18043W        W77337  26.697   6.687  12.094
18044W        W77338  39.487  15.684  14.015
18045W        W77339  29.046   6.815   3.771
18046W        W77340  16.314  15.131  13.816
18047W        W77341   2.313  42.956  13.055
18048W        W77342  44.847   8.727   3.315
18049W        W77343  33.588  28.582   0.477
18050W        W77344   9.866  42.902   2.757
18051W        W77345   0.861  34.924   1.885
18052W        W77346  35.453  38.350   0.941
18053W        W77347  21.631  25.638  11.408
18054W        W77348  11.194  18.576  13.834
18055W        W77349   8.377  15.275  10.584
18056W        W77350  32.933  23.172   4.225
18057W        W77351   4.397   5.900   0.941
18058W        W77352  25.540  20.705   4.691
18059W        W77353  25.213  22.511   5.296
18060W        W77354  21.649  32.439   1.695
18061W        W77355  10.142   7.244   3.806
18062W        W77356  14.275  17.761  13.477
18063W        W77357  24.697  24.598   3.147
18064W        W77358  17.742   8.672  14.367
18065W        W77359  16.752   0.378   0.827
18066W        W77360  33.505  27.661  12.534
18067W        W77361  31.531  27.149   0.805
18068W        W77362  39.891  30.475   2.285
18069W        W77363   3.823   0.812  11.055
18070W        W77364   0.787  35.468  12.942
18071W        W77365  23.591   9.760  10.047
18072W        W77366  30.547  40.870   2.249
18073W        W77367  36.850  20.265   3.752
18074W        W77368  16.742   6.697   0.464
18075W        W77369  23.619  34.973  12.005
18076W        W77370  36.872   7.819   0.941
18077W        W77371  24.481  44.784   1.366
18078W        W77372  30.924  21.196  13.830
18079W        W77373  34.901  14.290   5.227
18080W        W77374  14.691  35.376  14.848
18081W        W77375   4.211   0.487   2.681
18082W        W77376   9.250  29.927  14.429
18083W        W77377  36.551  41.948   4.264
18084W        W77378   2.404  20.068   0.406
18085W        W77379  41.034  31.595   0.774
18086W        W77380  44.822   3.239   9.657
18087W        W77381  13.712  42.283   0.956
18088W        W77382   4.826  43.013   0.963
18089W        W77383  41.854  15.101   1.252
18090W        W77384  15.637  22.530   1.801
18091W        W77385   1.779  29.169   4.838
18092W        W77386  25.663  22.032   3.274
18093W        W77387  32.492  35.388   4.637
18094W        W77388  28.459  31.548   3.744
18095W        W77389   4.799  18.576  12.514
18096W        W77390  14.762  41.962  10.511
18097W        W77391  36.010   2.859  10.439
18098W        W77392  33.420  11.134   0.959
18099W        W77393  24.140  12.806  14.391
18100W        W77394  13.726  40.414  13.878
18101W        W77395  38.840   0.267  12.380
18102W        W77396   4.806   7.840   2.318
18103W        W77397  18.716  43.775   3.759
18104W        W77398  33.017  17.777   1.864
18105W        W77399  44.451  32.560   2.314
18106W        W77400  27.980  11.284  14.926
18107W        W77401  12.151  23.991  10.592
18108W        W77402  31.564  20.525   1.825
18109W        W77403  19.714  32.535  11.919
18110W        W77404   9.152   4.940   1.869
18111W        W77405  42.302  17.137  13.398
18112W        W77406  22.726  18.271   1.918
18113W        W77407  15.320  43.334  10.429
18114W        W77408  10.821  14.173  12.340
18115W        W77409  21.031  23.562  10.131
18116W        W77410  26.683   5.843   2.337
18117W        W77411   1.889   6.316   0.388
18118W        W77412  21.638  36.520  13.920
18119W        W77413  25.631  21.208  12.570
18120W        W77414  32.999  42.376   0.964
18121W        W77415  30.028  11.254  12.519
18122W        W77416  15.152  16.249  14.417
18123W        W77417   7.811  42.381  14.306
18124W        W77418  43.891   0.334   0.462
18125W        W77419  14.659  37.484  12.503
18126W        W77420   1.963  38.966  13.367
18127W        W77421  34.615  22.507   2.752
18128W        W77422  34.505  17.205   0.373
18129W        W77423  44.356  10.349  13.830
18130W        W77424  35.554  22.250   3.826
18131W        W77425   0.488  40.983   1.374
18132W        W77426  34.419   9.179   0.851
18133W        W77427  10.270   3.780   2.289
18134W        W77428  38.045   6.779   0.816
18135W        W77429  43.021  39.005  14.016
18136W        W77430  42.019  23.231   4.273
18137W        W77431  14.705  28.998   2.307
18138W        W77432  15.714  15.192  11.930
18139W        W77433  31.465  35.576  14.946
18140W        W77434  18.056  12.320  13.463
18141W        W77435  44.495  38.847   0.952
18142W        W77436  32.090  20.034  14.376
18143W        W77437  17.738  39.366   4.697
18144W        W77438  12.696  23.667   4.122
18145W        W77439  36.483  18.591   1.913
18146W        W77440  12.643  13.722   4.350
18147W        W77441  15.292  37.850   3.647
18148W        W77442  43.003  26.481   1.762
18149W        W77443   4.763  20.148  10.435
18150W        W77444   9.855  44.443   4.601
18151W        W77445  40.366   4.839   5.309
18152W        W77446  10.338  16.242   1.827
18153W        W77447  29.130  31.040   4.609
18154W        W77448  36.424   6.803   0.770
18155W        W77449  21.685   8.304  14.353
18156W        W77450   6.247  29.470  13.930
18157W        W77451  14.176  28.998  13.537
18158W        W77452  37.449  41.502   3.789
18159W        W77453   5.855  41.325  14.889
18160W        W77454  19.251   5.385   2.759
18161W        W77455  43.768  33.016  10.442
18162W        W77456  42.399  10.249   1.437
18163W        W77457  31.454  37.484  13.876
18164W        W77458  26.135  13.196   1.238
18165W        W77459   0.937  37.367  13.308
18166W        W77460  36.846  17.173  10.499
18167W        W77461  18.768  10.379   4.631
18168W        W77462  10.376  16.764   3.386
18169W        W77463  27.113  34.999  14.824
18170W        W77464  24.588  14.746  14.887
18171W        W77465  14.660  31.048   0.363
18172W        W77466  34.938  32.990   1.794
18173W        W77467  36.949  18.212  14.284
18174W        W77468  29.550  28.587   0.462
18175W        W77469  37.982   1.383   0.877
18176W        W77470   6.682  40.307  10.988
18177W        W77471  37.866  18.637  10.523
18178W        W77472  42.024   8.397  12.830
18179W        W77473  15.319   6.848   2.819
18180W        W77474   8.245  29.966   1.806
18181W        W77475   2.758  14.172  12.466
18182W        W77476  18.189  22.591   4.698
18183W        W77477  12.826  19.204  13.798
18184W        W77478  28.135  43.885  12.407
18185W        W77479  21.219  15.598   2.185
18186W        W77480  33.416  28.016  10.581
18187W        W77481  42.978  32.505   3.384
18188W        W77482   2.900  15.685   2.388
18189W        W77483   7.828  28.451   3.155
18190W        W77484   9.654  27.592  13.466
18191W        W77485  44.392   9.749   4.817
18192W        W77486  27.180   5.232   0.811
18193W        W77487  42.788  19.765  13.524
18194W        W77488  44.286  23.109   2.748
18195W        W77489  37.020   9.360  13.014
18196W        W77490  25.592  30.631   5.306
18197W        W77491  40.328  19.059   3.244
18198W        W77492  16.187   4.903  13.052
18199W        W77493  16.152  26.510   1.312
18200W        W77494   5.766  18.559   0.773
18201W        W77495  37.397  17.592  10.484
18202W        W77496   3.741  13.139  14.007
18203W        W77497   1.463  27.965  12.491
18204W        W77498  34.603  25.176  11.937
18205W        W77499  30.068  18.744   3.335
18206W        W77500  43.852  11.348  13.540
18207W        W77501   0.285   3.285  12.380
18208W        W77502  41.974  23.531   2.744
18209W        W77503  24.624  10.868   1.233
18210W        W77504  23.717   2.833   1.778
18211W        W77505   8.285  24.983   3.785
18212W        W77506  25.000  41.385   2.714
18213W        W77507  28.506  25.050   4.263
18214W        W77508   1.749  23.182   0.303
18215W        W77509   0.769   5.706  12.570
18216W        W77510  38.953  43.872   3.387
18217W        W77511  25.483  16.723   1.777
18218W        W77512  26.169  32.037  12.889
18219W        W77513  34.077  37.008  10.434
18220W        W77514  15.688  30.030   0.370
18221W        W77515   8.674   6.304   4.834
18222W        W77516  16.203  41.800  14.794
18223W        W77517  41.535  26.559  13.043
18224W        W77518   7.185  40.514   1.228
18225W        W77519  25.609  20.608   3.638
18226W        W77520   6.716  23.705   0.318
18227W        W77521   7.692  15.083  14.879
18228W        W77522   1.876  26.536   1.357
18229W        W77523   4.271  16.238   1.935
18230W        W77524   7.388   1.813   5.303
18231W        W77525  36.588  36.865  14.862
18232W        W77526  15.129  34.546  14.819
18233W        W77527  21.196  23.019  13.941
18234W        W77528   9.671  31.924   0.328
18235W        W77529  23.081  37.870   3.630
18236W        W77530  22.528  10.848  12.539
18237W        W77531  16.774  36.964   0.963
18238W        W77532   9.664   6.271  11.866
18239W        W77533  13.137  16.257   1.428
18240W        W77534  26.169  21.551  10.990
18241W        W77535  19.700   3.248   4.735
18242W        W77536   8.881  22.141   4.223
18243W        W77537  37.982   1.794   5.092
18244W        W77538  42.904  23.579   2.854
18245W        W77539  32.929  38.036  10.900
18246W        W77540  14.252   3.425   2.792
18247W        W77541   9.379  23.049   1.283
18248W        W77542  36.492  10.851   5.082
18249W        W77543   1.343   7.849  13.882
18250W        W77544  21.537  41.809   4.622
18251W        W77545  13.748  10.705  13.539
18252W        W77546   3.427  22.543  12.041
18253W        W77547  10.356  22.583  13.861
18254W        W77548  11.230  30.548   9.635
18255W        W77549  21.719   8.680   4.664
18256W        W77550  22.084  19.570  12.041
18257W        W77551  11.729  28.644   1.916
18258W        W77552  17.306  26.961  11.046
18259W        W77553  37.943  25.971  12.498
18260W        W77554  37.931  37.880   2.679
18261W        W77555   7.730  11.731  14.364
18262W        W77556  37.866   3.268   0.788
18263W        W77557   4.262  21.243  12.442
18264W        W77558  36.364  25.616   2.699
18265W        W77559  37.919  37.079  10.975
18266W        W77560  20.766  25.202   3.308
18267W        W77561  16.123  25.594   0.915
18268W        W77562  34.057  31.426   3.653
18269W        W77563  35.971  13.699   3.189
18270W        W77564   8.223  12.766   2.884
18271W        W77565  42.379   5.288  11.094
18272W        W77566  25.578   3.855   4.597
18273W        W77567  44.775  32.980   2.350
18274W        W77568   7.317  26.517  12.045
18275W        W77569  26.062  16.599  14.795
18276W        W77570  14.239  35.098   2.715
18277W        W77571  31.123   4.266   2.879
18278W        W77572  12.765  40.386  12.410
18279W        W77573  28.493  21.216  11.089
18280W        W77574   4.795  11.204   0.944
18281W        W77575  42.369  13.630  12.021
18282W        W77576  26.607  14.308   3.318
18283W        W77577  17.775   9.286   2.317
18284W        W77578   6.775  35.872  14.893
18285W        W77579  42.481  26.097   4.247
18286W        W77580   1.850  34.952   1.220
18287W        W77581  30.147  43.349  10.006
18288W        W77582  22.607  29.568   5.318
18289W        W77583  15.624  30.062  14.495
18290W        W77584  12.351  11.231  14.862
18291W        W77585  44.990  17.093   0.250
18292W        W77586  24.641  40.954   4.268
18293W        W77587  19.740  38.966  14.785
18294W        W77588  13.351  17.137   1.287
18295W        W77589  31.460  38.957   4.233
18296W        W77590  13.156   8.357  10.456
18297W        W77591   5.795   0.278   3.684
18298W        W77592  18.579  38.335  13.372
18299W        W77593   1.334  35.883  12.046
18300W        W77594   2.769  44.362   0.763
18301W        W77595  26.060   2.944  12.486
18302W        W77596  20.642  10.643   1.712
18303W        W77597  12.242  31.642  13.044
18304W        W77598  15.680   6.888  13.839
18305W        W77599  21.540  11.201   3.188
18306W        W77600   3.341  27.687   1.921
18307W        W77601  11.283  10.860   0.260
18308W        W77602  31.989  44.259  11.081
18309W        W77603  20.209  13.662   3.831
18310W        W77604  21.263  21.158   3.316
18311W        W77605   6.320  37.943  11.601
18312W        W77606  13.259  24.016  11.609
18313W        W77607  19.187  28.996   0.909
18314W        W77608  38.868  16.301  14.515
18315W        W77609   7.837  13.244   3.301
18316W        W77610   4.797  36.352   9.975
18317W        W77611  27.535  14.608  10.592
18318W        W77612  16.765  43.509   2.329
18319W        W77613  43.311  34.921  14.403
18320W        W77614   8.834  15.603  12.410
18321W        W77615  31.461  40.476  13.525
18322W        W77616  30.068  11.216  10.529
18323W        W77617  44.856  13.615  12.927
18324W        W77618   1.275  41.041  14.885
18325W        W77619  25.126  22.621  11.450
18326W        W77620  42.806   4.354  14.341
18327W        W77621  44.002  31.035   0.752
18328W        W77622  37.917   0.936  12.496
18329W        W77623  40.440  44.856   2.759
18330W        W77624   0.794  37.072  12.475
18331W        W77625  27.449   2.269  13.355
18332W        W77626  29.622  16.196  13.896
18333W        W77627  36.917  11.285  14.483
18334W        W77628   2.725   3.231  14.007
18335W        W77629  36.476   8.852  10.541
18336W        W77630   5.389  14.227   0.885
18337W        W77631  23.662  10.732   2.741
18338W        W77632  35.485  17.560   4.328
18339W        W77633   2.297  18.692   4.793
18340W        W77634  30.092  15.142   1.764
18341W        W77635   2.323  18.263  10.550
18342W        W77636  11.261  40.028   0.326
18343W        W77637   3.336   2.429  13.962
18344W        W77638  18.731  42.419  11.927
18345W        W77639  22.683  17.727   1.247
18346W        W77640  31.612   0.409   0.441
18347W        W77641  26.511  22.214  10.988
18348W        W77642  11.751  21.581  11.026
18349W        W77643  31.016  31.542   2.742
18350W        W77644  42.408  31.645   0.255
18351W        W77645   0.402  35.946  14.985
18352W        W77646  17.190  29.942  14.456
18353W        W77647  12.838  39.512  14.941
18354W        W77648  31.965   8.289   3.712
18355W        W77649  23.647   6.907   2.671
18356W        W77650  37.384   0.395  10.617
18357W        W77651  23.994  29.005   0.939
18358W        W77652  12.786  32.572  12.579
18359W        W77653  17.707  43.910  11.458
18360W        W77654   2.449   5.294  12.357
18361W        W77655  19.214   5.418   3.837
18362W        W77656  15.231  35.361   3.245
18363W        W77657  40.502  18.688   3.374
18364W        W77658  17.215   8.404   1.741
18365W        W77659  32.443  36.541   1.254
18366W        W77660   3.821  28.946   4.709
18367W        W77661  17.679   0.968  14.427
18368W        W77662  31.985  34.027   4.708
18369W        W77663  18.651  10.355   2.753
18370W        W77664   9.814  28.441  14.859
18371W        W77665  13.301   7.850   3.714
18372W        W77666  17.298   3.370   1.766
18373W        W77667  44.914  31.439   3.251
18374W        W77668  32.923  13.272   4.249
18375W        W77669   8.374  28.043   2.698
18376W        W77670   2.374   4.213  13.544
18377W        W77671  13.325  18.570   4.349
18378W        W77672  28.938   1.272   2.800
18379W        W77673  33.114  42.894  10.894
18380W        W77674  42.832  25.113  10.477
18381W        W77675  34.881  32.496  13.516
18382W        W77676  15.166  42.007   1.363
18383W        W77677   4.313  23.646   2.304
18384W        W77678   2.408  38.900  13.453
18385W        W77679   0.809   8.765   1.311
18386W        W77680  21.079   8.744   3.313
18387W        W77681   3.219  21.539   3.302
18388W        W77682  17.783  15.808   0.875
18389W        W77683  21.515   4.388   1.932
18390W        W77684  10.198   6.810  13.880
18391W        W77685  38.487   7.673  12.052
18392W        W77686  14.215   0.963  11.463
18393W        W77687   2.854  31.525  13.477
18394W        W77688  20.097  32.022  13.455
18395W        W77689  13.137  42.890   2.864
18396W        W77690  28.578  30.640  11.447
18397W        W77691  27.984  43.417  11.967
18398W        W77692  17.789   4.700   2.898
18399W        W77693   1.904  23.064  10.562
18400W        W77694   8.209  19.604   0.305
18401W        W77695   8.306  41.935   3.712
18402W        W77696  33.611  23.138   1.797
18403W        W77697  20.130  34.995  13.040
18404W        W77698  13.185  10.144   4.239
18405W        W77699   0.451  18.602  13.978
18406W        W77700  36.078  21.140   5.224
18407W        W77701  19.585   9.275   1.309
18408W        W77702  41.473  21.242   3.186
18409W        W77703  11.273  23.114   2.885
18410W        W77704  27.447  26.636  12.895
18411W        W77705  39.537  29.577   3.683
18412W        W77706  23.190   3.438   2.381
18413W        W77707   5.769  19.658   2.764
18414W        W77708  30.960  41.967   4.262
18415W        W77709  18.683   9.674  12.058
18416W        W77710  19.752  10.329  12.010
18417W        W77711  42.294  23.666   0.424
18418W        W77712  29.468  39.936   2.886
18419W        W77713  34.546  39.892  13.853
18420W        W77714  10.757   1.477   0.963
18421W        W77715  38.840  16.766  12.512
18422W        W77716  38.980  41.339   0.357
18423W        W77717  16.593  10.170   3.723
18424W        W77718  30.125  33.532  12.973
18425W        W77719  38.839  23.192   3.706
18426W        W77720  35.524  42.955   1.336
18427W        W77721  39.402  28.100  14.946
18428W        W77722   6.894  38.964  13.359
18429W        W77723  10.380  18.692   2.207
18430W        W77724   0.921  12.201   3.713
18431W        W77725  39.414  13.106   1.919
18432W        W77726  11.689  36.970  11.927
18433W        W77727  30.595  20.059   3.685
18434W        W77728  32.620  39.969  11.005
18435W        W77729  10.839  44.441  11.502
18436W        W77730  36.584  11.735  13.061
18437W        W77731  11.704   8.826   0.939
18438W        W77732  32.040  19.606  11.971
18439W        W77733  31.016   2.437   1.251
18440W        W77734  14.782  16.775  14.840
18441W        W77735  21.543   5.793   3.747
18442W        W77736  21.185   0.329  14.779
18443W        W77737  14.655   1.922   4.178
18444W        W77738  34.495   3.407   1.788
18445W        W77739   1.263  16.299   3.382
18446W        W77740  29.566  23.072   3.662
18447W        W77741  36.010  12.644   0.311
18448W        W77742   9.392  29.991  10.613
18449W        W77743  18.258   8.171   3.266
18450W        W77744   2.465  37.985  14.799
18451W        W77745  21.029  33.508   1.858
18452W        W77746  15.613  40.870  12.467
18453W        W77747  33.516  37.002   2.325
18454W        W77748  15.643  24.179   0.409
18455W        W77749  23.561  41.292  12.924
18456W        W77750  11.838  36.990  11.556
18457W        W77751  44.272   5.201  10.588
18458W        W77752   4.317  11.680  13.966
18459W        W77753  16.790  13.723   5.245
18460W        W77754  15.240   3.747  11.394
18461W        W77755   3.359  14.722   2.271
18462W        W77756  34.070   1.480  14.961
18463W        W77757  44.332  11.344  12.976
18464W        W77758  18.645   3.353   3.722
18465W        W77759  29.964  44.861   2.243
18466W        W77760  28.963  40.024  13.844
18467W        W77761  27.673  21.021   1.226
18468W        W77762  20.721  26.174   1.301
18469W        W77763  33.469  20.707  12.484
18470W        W77764   2.865  31.914  13.320
18471W        W77765   6.892  24.666  11.039
18472W        W77766  12.147  20.547  11.856
18473W        W77767  35.376  33.952   1.703
18474W        W77768  31.069  29.927   3.823
18475W        W77769  22.678  29.620   4.597
18476W        W77770   7.676  27.985   3.221
18477W        W77771  34.397   4.440   3.186
18478W        W77772  14.794  36.578   3.148
18479W        W77773  16.615   2.364  14.914
18480W        W77774  24.718  31.080   0.289
18481W        W77775  29.030  16.087  13.880
18482W        W77776  16.138  29.012  13.850
18483W        W77777  30.052  39.971   1.706
18484W        W77778  32.518   3.244   3.711
18485W        W77779   8.833  23.005   4.727
18486W        W77780  18.072   7.674  14.466
18487W        W77781  35.031  22.509  11.955
18488W        W77782  29.141  35.499  13.048
18489W        W77783  18.732  13.736   2.226
18490W        W77784  39.002   1.390  14.983
18491W        W77785   0.764   2.952   2.828
18492W        W77786  26.050  10.220  13.829
18493W        W77787  17.716   9.178  12.472
18494W        W77788   2.244   2.357  13.929
18495W        W77789  27.682   3.354   4.736
18496W        W77790  42.795  26.677   4.638
18497W        W77791  38.458  31.477   9.586
18498W        W77792  17.261  37.981   4.340
18499W        W77793  40.831  40.001  12.468
18500W        W77794   0.959   1.949  11.973
18501W        W77795  16.189  38.906   1.336
18502W        W77796  33.459  25.206   3.789
18503W        W77797  42.882  18.254   2.861
18504W        W77798  35.105  33.539  14.352
18505W        W77799  14.666  28.953  11.473
18506W        W77800  40.537  36.558   2.719
18507W        W77801  27.519   1.268  10.507
18508W        W77802  37.463  44.865  10.935
18509W        W77803  32.531  22.067   0.967
18510W        W77804  16.079   6.357   3.149
18511W        W77805   7.720   1.935   5.236
18512W        W77806  11.323  20.230  13.928
18513W        W77807   7.202   9.835  10.948
18514W        W77808  12.623  38.035  14.475
18515W        W77809  21.095  27.093   3.353
18516W        W77810  10.373  32.124  14.921
18517W        W77811  19.077  25.023   4.800
18518W        W77812   3.841  43.361  11.506
18519W        W77813  10.155  36.932  10.618
18520W        W77814  20.068  25.581  13.887
18521W        W77815  39.481  35.550  12.012
18522W        W77816  10.271  16.681  14.288
18523W        W77817  19.221  15.606  14.813
18524W        W77818  12.775  12.150   0.893
18525W        W77819  28.677  21.247   4.693
18526W        W77820  21.745  10.798  14.392
18527W        W77821  11.679  19.123   4.761
18528W        W77822  23.001  24.610  12.575
18529W        W77823  42.390  16.657   2.826
18530W        W77824  24.117   2.390   4.618
18531W        W77825  14.098  44.834   3.763
18532W        W77826   7.769   0.288   0.260
18533W        W77827   5.432  36.467  12.513
18534W        W77828  36.457  10.288   0.431
18535W        W77829  35.082  27.083  11.485
18536W        W77830   3.932  11.834  10.636
18537W        W77831  14.609  22.512  13.320
18538W        W77832  19.276  35.433   0.444
18539W        W77833  34.534  31.983   4.606
18540W        W77834  27.458   5.334  13.388
18541W        W77835   4.379  43.774  12.490
18542W        W77836   7.205   3.834  13.807
18543W        W77837  40.416   6.241  13.862
18544W        W77838   3.234  14.333   9.931
18545W        W77839  37.412  15.178  12.395
18546W        W77840   5.726  27.078   2.665
18547W        W77841  27.503  40.040  12.438
18548W        W77842   6.916  43.927   4.644
18549W        W77843   3.953  37.020   0.452
18550W        W77844  39.897  32.998   3.230
18551W        W77845  29.666  32.401   4.812
18552W        W77846  17.742  32.127   2.687
18553W        W77847  41.018   8.353   4.313
18554W        W77848  41.821   5.704  10.535
18555W        W77849  19.061  11.788  11.979
18556W        W77850   4.345  30.560  13.434
18557W        W77851  19.584  39.521  12.507
18558W        W77852  16.679  14.682   4.339
18559W        W77853  12.808  13.821  13.422
18560W        W77854   5.227  39.355   1.716
18561W        W77855  16.147  42.431   2.697
18562W        W77856  14.153   4.839   2.385
18563W        W77857  36.430  43.504  14.866
18564W        W77858  26.632  19.772   0.410
18565W        W77859  31.982  23.678   1.820
18566W        W77860  29.426  15.218   1.893
18567W        W77861  38.943  21.064  12.571
18568W        W77862   7.873   6.852  11.066
18569W        W77863  18.775  24.151   0.422
18570W        W77864  15.726  11.774  14.488
18571W        W77865  25.498  13.599   2.234
18572W        W77866  16.691   6.844  14.865
18573W        W77867  17.266  20.627   4.290
18574W        W77868  15.651   1.392   0.255
18575W        W77869  23.072  25.989  14.924
18576W        W77870  21.674  24.148   3.178
18577W        W77871  21.203   6.912  10.911
18578W        W77872  18.118  40.968   4.236
18579W        W77873  44.318  44.838  11.113
18580W        W77874  12.212   6.729   0.410
18581W        W77875  27.682  16.795   4.223
18582W        W77876  26.529  44.852   2.715
18583W        W77877  20.688  31.524   4.829
18584W        W77878  12.731  26.176  11.034
18585W        W77879  32.124  11.157   0.733
18586W        W77880  27.090  21.261  12.415
18587W        W77881  36.415  35.077  12.969
18588W        W77882  38.927  18.069  14.899
18589W        W77883  24.711  13.287  14.492
18590W        W77884  17.198  42.909  11.976
18591W        W77885  29.083  31.917  11.469
18592W        W77886   0.256  39.406  14.342
18593W        W77887  25.205  31.998  14.318
18594W        W77888  10.752  12.269  11.126
18595W        W77889  32.463  36.965  14.798
18596W        W77890  18.788   4.792  14.854
18597W        W77891  35.944  44.362   0.373
18598W        W77892  16.728  42.024  12.906
18599W        W77893  16.772  24.992   0.441
18600W        W77894  10.318  18.230  14.372
18601W        W77895  35.094  40.384  10.621
18602W        W77896   7.287  42.804   2.369
18603W        W77897   0.281  35.422  10.957
18604W        W77898  32.460  27.144   2.378
18605W        W77899  40.989  19.212   0.464
18606W        W77900  34.054   4.450   4.222
18607W        W77901  36.086  17.758   0.873
18608W        W77902  42.979  33.450   4.278
18609W        W77903   2.357   8.185  11.022
18610W        W77904   3.402  42.908  11.439
18611W        W77905  41.523  20.062   3.283
18612W        W77906  20.556  11.732   4.662
18613W        W77907   8.197  43.269   0.742
18614W        W77908  44.892  39.438   4.740
18615W        W77909  33.075  26.657   2.353
18616W        W77910  14.212   0.898   2.751
18617W        W77911  15.687   1.760   2.212
18618W        W77912  32.523   6.849  11.009
18619W        W77913   3.456  37.354   1.404
18620W        W77914  38.479   9.390   1.781
18621W        W77915   3.938  16.685  12.432
18622W        W77916   7.236  36.003  12.570
18623W        W77917   0.770  21.039  14.405
18624W        W77918  42.980   5.910  10.555
18625W        W77919  27.108  34.967  12.423
18626W        W77920   3.912   7.252   1.274
18627W        W77921   7.684  23.077  11.870
18628W        W77922  23.111  30.119   2.846
18629W        W77923  21.731  37.988   0.402
18630W        W77924  35.555  15.612   0.418
18631W        W77925  18.292  11.664  12.913
18632W        W77926   7.709  12.255   0.431
18633W        W77927  43.414   4.870  11.994
18634W        W77928  32.488  39.314   1.448
18635W        W77929  38.567  44.417  10.413
18636W        W77930  16.730  17.198  10.596
18637W        W77931  27.598  35.001   4.714
18638W        W77932  25.992  20.565  13.856
18639W        W77933   6.346  41.992   3.689
18640W        W77934  25.592   9.280  12.491
18641W        W77935   1.743  21.577  13.796
18642W        W77936   6.213  36.553  11.991
18643W        W77937  40.403  18.175  12.827
18644W        W77938  38.378  31.571   0.479
18645W        W77939  20.256  25.497  10.891
18646W        W77940  19.579  22.180   1.713
18647W        W77941  34.453  38.407   0.742
18648W        W77942  24.207   6.399  10.029
18649W        W77943  23.543  37.887   2.665
18650W        W77944   3.862  25.476   1.219
18651W        W77945  10.203  12.813   0.743
18652W        W77946  16.640  17.119   0.421
18653W        W77947  38.909  42.401   3.861
18654W        W77948  35.542   0.960  13.349
18655W        W77949  27.450  26.497  13.472
18656W        W77950  14.674   2.436  12.992
18657W        W77951   6.363  34.965  14.842
18658W        W77952  40.852  35.972   3.630
18659W        W77953  13.830  14.726   0.801
18660W        W77954   5.235  11.348   4.720
18661W        W77955   5.797  27.103   4.704
18662W        W77956  30.148  39.831   5.643
18663W        W77957  36.951  34.099  13.436
18664W        W77958  43.930  37.352   2.669
18665W        W77959   2.729  27.495  10.989
18666W        W77960  23.489  35.552   1.769
18667W        W77961  20.677  22.084  13.419
18668W        W77962  32.949  20.720  13.998
18669W        W77963  30.037  26.067   2.794
18670W        W77964  36.499  40.492   2.379
18671W        W77965  42.981  24.671   2.180
18672W        W77966   2.770  41.958  12.828
18673W        W77967  28.115  24.620   0.727
18674W        W77968  20.235  22.691   4.783
18675W        W77969   4.886  18.558  14.482
18676W        W77970   1.402  19.198  14.930
18677W        W77971   5.338  41.946   2.678
18678W        W77972  18.158  14.232  14.328
18679W        W77973   0.347  44.416   1.278
18680W        W77974  14.589   0.958   0.483
18681W        W77975  43.934  29.628  12.403
18682W        W77976   6.832   7.707   2.351
18683W        W77977  28.176  11.238  13.911
18684W        W77978  26.613   4.715  12.340
18685W        W77979  33.555  33.087   2.721
18686W        W77980   0.491  10.800  13.405
18687W        W77981  15.812  37.854  14.379
18688W        W77982  32.631  18.593  12.827
18689W        W77983  33.614   8.376   9.557
18690W        W77984  28.673  40.523   2.739
18691W        W77985  44.387   6.887   2.784
18692W        W77986  35.054  38.846   1.713
18693W        W77987  20.649  18.179  10.576
18694W        W77988   9.721  22.007  13.858
18695W        W77989   1.961  11.241  13.949
18696W        W77990  24.111  37.907   0.903
18697W        W77991  19.619  24.200   0.311
18698W        W77992  12.769   4.943  11.055
18699W        W77993  36.982  14.720   4.275
18700W        W77994  42.781  31.470  11.429
18701W        W77995  33.991   5.819  14.394
18702W        W77996  22.689  32.504   2.805
18703W        W77997  39.811  29.549   2.396
18704W        W77998  22.697  16.740   2.241
18705W        W77999  41.438  37.882  10.999
18706W        W78000  11.160   5.838  13.879
18707W        W78001  39.385  39.464   3.849
18708W        W78002   0.358  41.953  14.026
18709W        W78003  43.367  27.031   1.916
18710W        W78004  20.240   6.273  12.900
18711W        W78005  21.630  30.148  11.894
18712W        W78006  26.484  40.323   3.270
18713W        W78007  29.563   4.321  12.355
18714W        W78008  43.419  34.059   1.761
18715W        W78009  27.492   8.685   2.235
18716W        W78010   7.831  10.793   0.404
18717W        W78011  21.542  34.040   4.129
18718W        W78012   0.355  30.651  13.012
18719W        W78013  32.498  29.967   0.905
18720W        W78014  13.832  32.591  14.376
18721W        W78015  32.139   3.430  12.555
18722W        W78016   0.484  10.185   2.368
18723W        W78017  21.756  10.834   3.870
18724W        W78018  16.652  26.158   2.706
18725W        W78019  16.160   7.722  12.074
18726W        W78020  33.084  37.461   2.294
18727W        W78021  12.172   5.285  11.470
18728W        W78022  39.432  24.010   4.756
18729W        W78023  28.169  27.053  12.004
18730W        W78024  33.915  23.205   4.265
18731W        W78025  10.853   3.283   0.871
18732W        W78026  28.107  41.322  14.844
18733W        W78027  14.752  41.532  12.861
18734W        W78028  32.014  15.798  11.508
18735W        W78029  33.920  39.984   4.635
18736W        W78030  27.534   5.797   2.286
18737W        W78031  35.999  33.622   0.884
18738W        W78032   4.862  34.473  11.428
18739W        W78033  23.705  17.248  10.583
18740W        W78034  24.021  32.422   2.861
18741W        W78035   6.769   1.977   2.826
18742W        W78036  21.618  26.490  11.613
18743W        W78037  31.033  23.222   4.660
18744W        W78038  21.062  27.689  14.493
18745W        W78039  20.588   7.874   1.764
18746W        W78040   8.336   7.200   0.471
18747W        W78041  23.222  38.042   0.463
18748W        W78042   8.755  26.148  11.577
18749W        W78043  44.421  19.228   4.673
18750W        W78044  13.689  39.893   1.448
18751W        W78045   9.227  42.875   3.679
18752W        W78046  13.818  17.205  13.793
18753W        W78047  37.471  32.608  12.379
18754W        W78048  36.051  23.653  14.353
18755W        W78049  13.219  25.493  11.882
18756W        W78050  39.476  15.148  13.542
18757W        W78051  33.884  38.515  13.876
18758W        W78052  14.821  28.935  10.956
18759W        W78053   3.829   9.188   0.470
18760W        W78054  13.343  37.503   0.363
18761W        W78055  31.955  37.994  11.018
18762W        W78056  15.790  15.139   3.691
18763W        W78057   4.307  37.991  11.502
18764W        W78058  19.710  26.970   1.778
18765W        W78059  23.707   4.903   0.311
18766W        W78060  13.837  27.144   1.350
18767W        W78061  28.443  20.656   1.766
18768W        W78062  41.326   5.723   4.713
18769W        W78063   4.302  38.510  13.834
18770W        W78064  31.082  41.906   1.893
18771W        W78065  41.321  29.457  10.969
18772W        W78066  12.246  29.481   0.389
18773W        W78067   0.444   4.342  12.495
18774W        W78068  21.213   1.392   0.459
18775W        W78069  39.401  13.155   0.377
18776W        W78070  39.912   6.846   3.250
18777W        W78071  33.951  12.807   0.381
18778W        W78072   3.742  42.287   0.801
18779W        W78073  43.851  28.935   0.351
18780W        W78074   4.259  25.489  13.521
18781W        W78075  20.576   3.447   1.354
18782W        W78076  38.974   3.243  12.013
18783W        W78077  37.062  36.519   0.325
18784W        W78078  43.475  18.551  11.500
18785W        W78079  16.601  26.469   3.222
18786W        W78080   5.309  19.199  12.083
18787W        W78081   5.777  24.682   3.232
18788W        W78082  17.740  34.057   2.230
18789W        W78083   6.688  14.621  12.848
18790W        W78084  43.928  43.866   5.083
18791W        W78085  41.483  34.542   4.196
18792W        W78086  29.434  15.582  14.847
18793W        W78087   6.372  31.420  14.863
18794W        W78088  20.034   6.364  11.482
18795W        W78089  36.468  37.938  11.449
18796W        W78090  19.623  22.646   0.813
18797W        W78091   4.943  35.913  13.332
18798W        W78092   7.724  38.979   2.201
18799W        W78093  20.146  25.146   0.448
18800W        W78094  20.550  35.523  10.440
18801W        W78095  33.462   4.285  14.371
18802W        W78096   5.384   5.849  11.022
18803W        W78097  38.368  41.395  11.472
18804W        W78098  31.112  12.216  12.995
18805W        W78099  22.171   5.760   2.673
18806W        W78100  10.707  21.746   4.317
18807W        W78101  13.648  37.451  11.872
18808W        W78102   5.856  40.408  12.881
18809W        W78103   1.928   7.710   0.331
18810W        W78104  37.087  42.429   1.736
18811W        W78105  36.885  15.314  10.998
18812W        W78106  20.749  35.915   2.859
18813W        W78107  37.530  38.935   3.768
18814W        W78108   3.262  20.621  12.046
18815W        W78109  36.062   9.833   4.215
18816W        W78110  37.984  32.919   3.262
18817W        W78111   1.328   5.379   3.802
18818W        W78112  23.582  22.706   0.319
18819W        W78113  15.281  10.666  10.551
18820W        W78114  33.529  42.810   0.727
18821W        W78115  14.105  32.410   1.713
18822W        W78116  31.916  10.193   1.771
18823W        W78117  15.255  32.438   0.883
18824W        W78118  29.981  10.838   0.935
18825W        W78119  26.633  28.639  11.046
18826W        W78120  22.084  43.817  11.856
18827W        W78121   3.433  11.156  12.347
18828W        W78122   4.941  43.873   4.272
18829W        W78123  21.141  17.762   2.216
18830W        W78124  17.069  27.132  10.405
18831W        W78125  32.040  18.067   1.440
18832W        W78126   3.830  43.848  14.022
18833W        W78127  36.077  11.222  11.604
18834W        W78128  24.032   7.725  14.971
18835W        W78129  17.194  16.264  12.992
18836W        W78130  14.183  36.870   2.753
18837W        W78131  19.551   4.886  11.010
18838W        W78132   4.820  15.117   4.275
18839W        W78133  13.162  11.625   0.387
18840W        W78134   3.801  13.794   3.288
18841W        W78135  38.490  40.482  11.435
18842W        W78136  31.969   9.160   5.263
18843W        W78137  31.916  25.163   4.117
18844W        W78138  24.217  43.954   3.368
18845W        W78139  33.896   5.332  13.328
18846W        W78140  15.583  17.713   3.723
18847W        W78141  36.554  11.630   1.307
18848W        W78142  44.407   6.852  11.463
18849W        W78143   1.803  26.670   4.617
18850W        W78144  24.154  21.529   1.386
18851W        W78145  14.331  27.645   0.300
18852W        W78146  40.944  40.450  14.947
18853W        W78147   4.449  21.164   0.303
18854W        W78148  23.003   5.429   0.868
18855W        W78149  21.637   4.444   3.634
18856W        W78150  27.004  36.585  13.921
18857W        W78151  33.567  27.502   3.347
18858W        W78152  30.079  15.643  10.936
18859W        W78153  18.181  42.939  11.128
18860W        W78154   6.378   9.331   3.747
18861W        W78155  24.650  42.830   2.891
18862W        W78156   0.443  29.427   2.316
18863W        W78157  35.577  41.494   4.714
18864W        W78158  23.680  22.627  14.778
18865W        W78159  29.083  24.149  12.440
18866W        W78160   7.873   2.811   1.389
18867W        W78161  26.180  16.082  13.060
18868W        W78162   7.232   4.434  11.608
18869W        W78163   7.676  26.144   3.634
18870W        W78164  27.144  13.232  10.457
18871W        W78165  39.433  32.627   3.754
18872W        W78166   3.325  24.204   0.802
18873W        W78167  12.200  40.416   3.689
18874W        W78168  17.654   2.783  10.589
18875W        W78169  31.451   6.408   1.285
18876W        W78170  11.660  36.881   4.798
18877W        W78171  13.608  34.929  14.294
18878W        W78172   3.717   5.850   0.277
18879W        W78173   1.763  35.892  12.868
18880W        W78174  12.156  27.507  11.503
18881W        W78175  27.957   9.278   4.713
18882W        W78176  29.566  17.133  11.602
18883W        W78177  42.512  26.066  13.951
18884W        W78178  30.118  26.526   4.674
18885W        W78179  29.082  40.400  11.106
18886W        W78180  30.502  25.468  12.835
18887W        W78181  25.006  21.546  12.853
18888W        W78182  12.132  22.655   3.629
18889W        W78183  31.628  20.133  12.957
18890W        W78184  25.203  29.951  13.546
18891W        W78185  44.841  42.823   1.428
18892W        W78186  21.693   1.377  11.975
18893W        W78187   5.915   8.811   0.444
18894W        W78188  39.469  34.574   1.858
18895W        W78189  17.242  41.818  13.858
18896W        W78190   2.336  20.076   1.918
18897W        W78191  29.623  19.676  10.068
18898W        W78192  30.027  21.546  11.961
18899W        W78193  26.194  18.074   0.367
18900W        W78194   8.183  11.849  10.901
18901W        W78195  44.503  24.516  14.391
18902W        W78196  22.083  29.981   1.322
18903W        W78197  30.010   3.953  11.546
18904W        W78198  17.300  16.103  10.116
18905W        W78199  42.775  19.197  14.885
18906W        W78200  17.183  10.834  11.536
18907W        W78201  35.456  18.581  12.505
18908W        W78202  28.982   3.807  12.972
18909W        W78203  38.032  11.128  14.454
18910W        W78204   5.347   6.728   1.893
18911W        W78205   0.249  11.748   2.736
18912W        W78206  18.779  32.128   1.329
18913W        W78207  35.930  36.953   1.870
18914W        W78208  15.704  38.464  13.812
18915W        W78209  34.574  20.071   2.386
18916W        W78210   4.772  36.842   4.751
18917W        W78211  35.000  44.316   1.428
18918W        W78212  38.954  39.403   3.754
18919W        W78213  25.555  27.455   0.417
18920W        W78214  39.006  18.613   1.776
18921W        W78215  30.499  41.371  14.026
18922W        W78216  12.246  33.447   2.842
18923W        W78217  23.566  36.501   3.267
18924W        W78218   2.306  34.406   0.856
18925W        W78219  13.337  22.218  12.838
18926W        W78220   9.212  39.470  12.067
18927W        W78221  41.025  14.257   1.299
18928W        W78222   9.328  37.468   5.119
18929W        W78223  34.376  26.113   1.334
18930W        W78224  11.167  32.488   0.405
18931W        W78225  14.162  36.999  12.001
18932W        W78226  28.059  43.782   1.703
18933W        W78227  16.249  33.002   1.694
18934W        W78228  24.548  41.324  11.529
18935W        W78229   5.305  21.556   9.936
18936W        W78230  43.318   1.284   3.209
18937W        W78231   6.749  28.614  14.483
18938W        W78232  35.434  41.798   1.724
18939W        W78233  44.420  32.037  14.798
18940W        W78234  22.228  44.396   0.739
18941W        W78235   9.189   2.376   1.221
18942W        W78236   4.302  20.690   0.467
18943W        W78237  39.048  11.254  11.857
18944W        W78238  18.619  24.973   2.218
18945W        W78239  19.700  16.305  12.420
18946W        W78240   9.246  34.608  13.976
18947W        W78241  30.443  23.055   1.879
18948W        W78242  34.925  10.788   4.681
18949W        W78243  12.131  29.590   2.752
18950W        W78244  32.430  30.424   2.701
18951W        W78245   1.292  16.121  11.470
18952W        W78246  36.403  37.855   1.719
18953W        W78247  19.732  26.579   3.159
18954W        W78248  20.651  31.976   3.381
18955W        W78249  17.068   7.225   3.681
18956W        W78250   8.280   3.748   1.765
18957W        W78251  32.965   9.806   2.210
18958W        W78252  19.145  29.022   0.321
18959W        W78253   0.985  42.323   0.443
18960W        W78254  41.510   0.359   4.259
18961W        W78255  39.547  19.127  10.412
18962W        W78256  12.758   0.774   0.953
18963W        W78257  20.154  17.128   2.336
18964W        W78258   7.279  24.983  13.975
18965W        W78259   9.242  28.487   1.215
18966W        W78260  39.813  36.568   1.928
18967W        W78261  10.767  17.690   4.786
18968W        W78262   4.234  19.641   2.709
18969W        W78263  24.146   6.892   1.697
18970W        W78264  16.618  12.786  13.004
18971W        W78265   1.291   7.778   2.401
18972W        W78266  30.100  41.917   9.515
18973W        W78267   4.710   9.332   4.811
18974W        W78268  34.885   4.284  12.876
18975W        W78269  26.085   9.276   3.373
18976W        W78270  17.240  28.159  14.796
18977W        W78271   5.697   7.186   2.402
18978W        W78272  28.617  34.518  14.286
18979W        W78273  29.498   3.767   3.769
18980W        W78274  13.290  19.581  12.357
18981W        W78275  17.781  15.317   3.755
18982W        W78276   8.763  37.489  10.974
18983W        W78277  18.211  14.824   4.126
18984W        W78278  24.104   6.250   3.339
18985W        W78279   9.312  18.111  14.785
18986W        W78280   2.869  39.851  14.336
18987W        W78281  12.660  22.515   5.099
18988W        W78282  40.815  25.607   2.321
18989W        W78283  27.059  10.638  11.565
18990W        W78284  26.605  34.945   1.393
18991W        W78285  28.993  19.743   1.359
18992W        W78286  29.541  34.490  10.948
18993W        W78287   4.776   1.786   9.542
18994W        W78288  24.047  10.697  11.509
18995W        W78289  14.607  12.832   2.232
18996W        W78290   3.235   9.780  11.475
18997W        W78291  12.246  21.690   1.352
18998W        W78292  27.543  19.165   4.622
18999W        W78293   6.847  36.871   2.697
19000W        W78294  27.089  23.495   3.356
19001W        W78295  21.053  21.732  14.829
19002W        W78296   0.333   8.280  12.572
19003W        W78297  23.567  22.117   3.771
19004W        W78298  29.994  21.752  13.055
19005W        W78299  44.897   6.331   0.397
19006W        W78300  25.157   5.206  10.947
19007W        W78301  32.014  34.485  13.833
19008W        W78302  20.270  36.490   1.704
19009W        W78303  36.993  37.863   5.723
19010W        W78304   4.869  43.812   0.778
19011W        W78305   2.453  29.126  11.553
19012W        W78306  36.017  21.518  12.883
19013W        W78307  23.215   5.848  11.488
19014W        W78308   0.973   2.733   4.149
19015W        W78309  24.146  41.966  14.391
19016W        W78310   3.839  20.532  12.956
19017W        W78311  13.836  35.453   2.797
19018W        W78312   8.338  42.513  13.797
19019W        W78313   9.825  33.576  12.432
19020W        W78314  36.036   0.394   2.381
19021W        W78315  10.702  14.186   0.881
19022W        W78316  38.020  42.497   3.337
19023W        W78317   9.219  22.697   4.130
19024W        W78318  12.777   0.275  14.459
19025W        W78319  31.952  14.165  12.363
19026W        W78320   9.271  43.908  11.083
19027W        W78321  22.144  42.352  10.410
19028W        W78322  37.546  25.651   4.723
19029W        W78323  21.120  18.684  14.355
19030W        W78324   9.875  21.049  10.965
19031W        W78325  31.059  27.669  11.905
19032W        W78326  44.409   3.436  10.470
19033W        W78327  22.020  16.806  13.517
19034W        W78328  32.416  18.123   1.852
19035W        W78329  39.918   1.935  14.400
19036W        W78330  17.224  39.832  14.776
19037W        W78331  36.025  32.438   2.843
19038W        W78332  23.017  44.943  12.994
19039W        W78333  38.347  24.497  12.381
19040W        W78334  32.885  12.771  14.859
19041W        W78335   6.383  32.463  10.495
19042W        W78336  41.483  17.651   3.310
19043W        W78337  24.586  23.493   0.867
19044W        W78338   6.403  13.350  12.392
19045W        W78339  20.749  35.909   4.220
19046W        W78340  22.187   3.764  12.067
19047W        W78341  15.117  38.476  14.380
19048W        W78342  12.342  15.244   1.403
19049W        W78343  31.637  27.488   0.421
19050W        W78344  16.226  37.886  13.505
19051W        W78345  12.264  18.208  12.377
19052W        W78346  10.168  32.425   2.218
19053W        W78347  38.831  23.130  14.470
19054W        W78348  14.206  43.788   2.802
19055W        W78349  24.116  17.208  10.134
19056W        W78350  42.367  33.918   4.742
19057W        W78351  18.721  31.944   4.260
19058W        W78352  20.164  26.542   1.704
19059W        W78353  30.532  14.136  10.600
19060W        W78354  32.092  40.955  10.472
19061W        W78355  19.170   4.798   0.331
19062W        W78356  14.288   6.341   4.638
19063W        W78357  13.330   8.680  11.975
19064W        W78358  19.175  25.674  12.926
19065W        W78359  40.436  44.767   4.165
19066W        W78360  11.695   9.243  11.395
19067W        W78361   5.311   3.886   0.455
19068W        W78362   1.398  34.547   0.405
19069W        W78363  42.422   6.231  14.432
19070W        W78364  22.100   8.698  14.313
19071W        W78365   7.752  35.013   3.735
19072W        W78366  28.563  25.657  12.355
19073W        W78367  27.171  42.997   1.755
19074W        W78368  42.877  38.334   4.662
19075W        W78369  37.511  22.707   3.181
19076W        W78370  25.501  27.665   0.871
19077W        W78371  10.765  39.814  12.519
19078W        W78372  35.019  23.670   2.285
19079W        W78373  40.416  11.289   0.823
19080W        W78374  14.324  26.174  12.426
19081W        W78375   0.777  33.555   3.291
19082W        W78376   4.404  44.263   2.760
19083W        W78377  10.196  13.160  11.927
19084W        W78378   3.289  20.577   0.387
19085W        W78379   0.305   7.785   3.693
19086W        W78380  14.111   6.356   1.408
19087W        W78381  14.167  38.859   4.778
19088W        W78382  21.102  11.791   3.822
19089W        W78383   5.366  10.768  11.873
19090W        W78384  35.510  24.054  11.969
19091W        W78385  16.792   8.876   1.879
19092W        W78386  14.139  19.285   1.313
19093W        W78387   7.217  38.013   3.185
19094W        W78388  23.083  35.430  14.294
19095W        W78389  25.033  36.439   2.781
19096W        W78390  39.500   1.462   4.259
19097W        W78391  29.466   6.917   2.736
19098W        W78392  43.297  30.156  13.966
19099W        W78393   6.344  44.813  12.478
19100W        W78394  44.009  25.182   0.422
19101W        W78395  30.044   5.236  14.869
19102W        W78396  17.287  20.702   0.813
19103W        W78397  40.412   1.412   1.341
19104W        W78398  17.191  37.009   2.761
19105W        W78399   1.789  17.154  11.929
19106W        W78400  27.955  34.086  14.282
19107W        W78401   9.692  30.414   1.269
19108W        W78402   6.315  28.987   0.842
19109W        W78403  20.197   9.731   3.804
19110W        W78404  34.887  23.142   0.455
19111W        W78405  15.220  19.536   1.365
19112W        W78406  29.650  16.196   4.161
19113W        W78407   3.894  35.403  14.327
19114W        W78408  24.614  35.089  12.932
19115W        W78409  36.944  17.304  10.932
19116W        W78410   5.230   3.367  13.387
19117W        W78411   8.858  36.454  13.505
19118W        W78412  25.667  17.610   0.302
19119W        W78413  25.654   6.340   0.911
19120W        W78414  33.132  35.033  11.512
19121W        W78415  12.297  10.152  12.974
19122W        W78416  19.094   8.201  14.510
19123W        W78417  44.849  13.628   0.739
19124W        W78418  40.307  35.588   9.969
19125W        W78419  10.805   4.745  12.366
19126W        W78420   3.859  11.247   4.806
19127W        W78421  35.551  43.881  12.004
19128W        W78422  17.273  29.547  10.416
19129W        W78423  41.862   3.412   1.327
19130W        W78424   3.268  28.079   0.859
19131W        W78425  44.838  11.243   3.686
19132W        W78426  41.860  39.437  14.971
19133W        W78427  16.662   2.953   4.221
19134W        W78428  21.583   0.489   4.331
19135W        W78429  23.533   2.785   4.707
19136W        W78430  18.749  38.404   3.862
19137W        W78431   6.367  39.878  10.498
19138W        W78432  27.963   9.686   3.311
19139W        W78433   7.256  11.260  12.898
19140W        W78434  14.187   4.284   3.193
19141W        W78435  18.200  13.276  12.006
19142W        W78436   5.773  32.572   3.733
19143W        W78437  20.593  12.325  10.918
19144W        W78438  43.807   2.388  12.036
19145W        W78439  40.858  43.276   4.201
19146W        W78440  24.647  14.140  12.554
19147W        W78441  32.562  37.927  10.536
19148W        W78442   9.825  42.355   1.402
19149W        W78443  18.052   7.722  12.960
19150W        W78444  27.095  31.988  11.920
19151W        W78445  38.076  26.182  14.489
19152W        W78446   6.881  10.779   3.779
19153W        W78447   3.263  22.240   5.270
19154W        W78448  41.852  32.494   4.623
19155W        W78449  13.805  15.195   3.257
19156W        W78450  18.244  31.074   1.793
19157W        W78451  22.557  15.716  14.442
19158W        W78452   7.273  20.533   3.298
19159W        W78453  27.625  18.176   2.845
19160W        W78454   2.352  38.552  13.441
19161W        W78455  15.230  18.660  14.315
19162W        W78456  29.637  34.370  10.497
19163W        W78457   7.802  15.167   0.312
19164W        W78458  28.449  30.646  13.385
19165W        W78459   2.873  19.235  10.625
19166W        W78460   5.877   7.183   0.810
19167W        W78461  40.492  41.320  11.506
19168W        W78462   7.409  40.388   1.903
19169W        W78463  35.062   6.766  10.086
19170W        W78464  36.056  37.560  10.154
19171W        W78465  38.897  35.932   4.793
19172W        W78466  22.995   8.301  14.951
19173W        W78467  20.696  20.048  10.154
19174W        W78468  29.609  15.715   5.317
19175W        W78469  21.194  31.568  14.794
19176W        W78470  10.217  28.069   3.634
19177W        W78471  13.241  30.976   0.820
19178W        W78472  43.281  22.665  13.972
19179W        W78473  23.034  40.321  12.846
19180W        W78474   8.213  41.041  12.065
19181W        W78475   5.340  34.475   0.340
19182W        W78476   8.684  25.605   4.213
19183W        W78477  42.387  32.080  12.432
19184W        W78478  20.709  44.977  14.450
19185W        W78479   1.766  30.914  11.010
19186W        W78480   8.359   3.343  11.949
19187W        W78481  14.761  27.030  12.092
19188W        W78482   3.333  37.010  12.050
19189W        W78483  34.111  12.189   1.331
19190W        W78484  38.958  30.468  10.066
19191W        W78485  14.210  39.823  12.432
19192W        W78486  14.717  32.137  10.001
19193W        W78487  35.599  31.922   4.814
19194W        W78488  29.952  25.508   3.306
19195W        W78489   5.700   7.180   0.375
19196W        W78490  14.800  43.378   2.180
19197W        W78491   9.316  22.609   4.781
19198W        W78492  44.389   3.738  14.953
19199W        W78493  31.031  28.066   0.466
19200W        W78494  40.878  13.193   0.787
19201W        W78495  20.105  41.974  12.000
19202W        W78496  19.277  15.628   4.642
19203W        W78497  20.096   6.278   4.730
19204W        W78498   2.258   3.938  11.400
19205W        W78499  15.795  13.745  14.303
19206W        W78500  11.210  11.182  11.028
19207W        W78501   9.715  14.783  13.509
19208W        W78502  29.519  43.913  12.579
19209W        W78503   8.737   5.203  13.045
19210W        W78504  26.515  12.819   2.289
19211W        W78505  28.090  20.098  12.040
19212W        W78506  28.944  14.149   2.693
19213W        W78507   0.446  15.824   2.416
19214W        W78508   4.349  20.689   3.673
19215W        W78509  19.187   7.899  13.908
19216W        W78510  28.996  24.723   0.827
19217W        W78511  18.067  28.493  12.385
19218W        W78512  12.133  26.146   0.353
19219W        W78513  40.810  36.024   2.679
19220W        W78514  18.576   2.470  12.900
19221W        W78515  12.125  30.143   0.818
19222W        W78516   2.252  19.159   2.691
19223W        W78517   4.409  19.695  14.003
19224W        W78518   9.671  44.375  11.590
19225W        W78519  22.146   8.854   0.785
19226W        W78520  22.645  12.210  12.904
19227W        W78521  26.208  31.149   3.361
19228W        W78522  17.275  33.475  10.472
19229W        W78523  22.746  37.085   0.805
19230W        W78524  37.075  24.195  13.043
19231W        W78525  13.764  13.324  13.543
19232W        W78526  27.590  43.305   1.243
19233W        W78527  18.284  36.943  13.950
19234W        W78528  26.080  42.483  14.450
19235W        W78529  15.287  12.614  14.849
19236W        W78530  36.561  12.693   4.166
19237W        W78531   6.425  28.509  12.539
19238W        W78532  43.415  38.381  12.839
19239W        W78533  11.155  13.752   2.227
19240W        W78534  19.146   5.770  14.810
19241W        W78535   7.719  24.570  14.364
19242W        W78536  10.749   9.674  14.515
19243W        W78537  12.759   1.978  11.590
19244W        W78538  23.105  16.292   2.237
19245W        W78539  44.369  26.676  11.862
19246W        W78540  15.824   9.169   0.300
19247W        W78541  41.833   3.422  11.506
19248W        W78542   5.411  10.282  12.474
19249W        W78543  10.661  36.483  10.485
19250W        W78544  21.728  30.154   2.746
19251W        W78545  30.159   0.771   1.359
19252W        W78546  11.303   7.868  13.020
19253W        W78547  44.801   4.797  10.149
19254W        W78548   7.244  23.620   1.273
19255W        W78549  32.115  34.932  11.096
19256W        W78550   8.266  38.907   0.844
19257W        W78551  20.717  26.088   0.417
19258W        W78552  33.034  34.865   4.776
19259W        W78553  24.147  23.193   4.225
19260W        W78554  24.055  34.550  14.032
19261W        W78555  39.474  19.170   3.746
19262W        W78556  41.020  12.291  13.519
19263W        W78557  18.732  13.254  14.885
19264W        W78558  27.072  37.855  12.499
19265W        W78559   0.314  22.114  14.943
19266W        W78560   9.311  18.704  14.411
19267W        W78561  42.301  14.187  13.374
19268W        W78562  41.470  24.062   4.731
19269W        W78563   5.306  42.789   2.685
19270W        W78564  36.050   8.213   0.274
19271W        W78565  27.031   0.479   3.148
19272W        W78566  23.633  21.548   1.229
19273W        W78567  29.984  31.936  14.280
19274W        W78568  34.015  27.031  13.372
19275W        W78569  23.700  35.358  14.461
19276W        W78570  41.432  10.143   2.358
19277W        W78571  26.989  39.860   1.840
19278W        W78572   9.271  37.988   1.761
19279W        W78573  21.050  38.512   3.805
19280W        W78574  23.584  20.206  13.398
19281W        W78575  36.493  30.125   4.318
19282W        W78576   5.717  32.137  11.551
19283W        W78577  12.349  35.412  13.046
19284W        W78578  10.807  31.003  12.927
19285W        W78579   8.244  37.393   1.373
19286W        W78580  39.462  44.983   4.694
19287W        W78581  16.775  21.678   9.956
19288W        W78582  14.208   8.298  12.887
19289W        W78583  20.142  44.409   9.941
19290W        W78584  19.718  39.367   4.241
19291W        W78585  24.160  30.108  10.581
19292W        W78586  41.922   6.401  11.454
19293W        W78587  27.598   9.656   4.803
19294W        W78588  42.302  17.718   3.669
19295W        W78589  25.524  10.315   0.954
19296W        W78590  37.401  23.628  10.976
19297W        W78591  20.213  43.369  13.032
19298W        W78592  39.055  38.907  12.533
19299W        W78593  39.416  36.081   2.360
19300W        W78594  12.235  17.682   1.416
19301W        W78595  34.394  44.291   0.919
19302W        W78596   5.333  27.981   1.423
19303W        W78597  30.591  39.497   2.383
19304W        W78598  22.113   3.776   4.315
19305W        W78599  40.974  23.050   3.857
19306W        W78600  25.009  30.456   3.154
19307W        W78601   8.665  41.538   2.851
19308W        W78602  30.163  39.060   2.181
19309W        W78603  21.713  42.466  11.989
19310W        W78604  38.473   3.787   0.915
19311W        W78605  20.127  13.600  12.090
19312W        W78606  42.307  34.089  13.024
19313W        W78607  11.714  21.755   3.217
19314W        W78608   8.331  19.613  14.299
19315W        W78609   8.690   6.383  12.964
19316W        W78610  33.992  33.911   3.169
19317W        W78611   4.928  32.510   4.803
19318W        W78612  33.571  21.564  11.611
19319W        W78613   4.265  40.342  12.555
19320W        W78614  38.484  32.540   0.773
19321W        W78615  33.598  32.943   4.168
19322W        W78616  36.891  10.161   1.280
19323W        W78617   8.289  13.145  12.453
19324W        W78618   4.878  38.373  11.563
19325W        W78619  29.035  30.569   4.613
19326W        W78620  36.438   1.284   1.381
19327W        W78621  39.396  23.171  11.023
19328W        W78622  20.181  34.551   4.270
19329W        W78623  28.151  25.212   1.449
19330W        W78624   0.430   6.794   2.847
19331W        W78625  17.715  17.711   4.815
19332W        W78626  10.177  41.036  14.006
19333W        W78627  37.930  14.621  10.982
19334W        W78628  13.264  37.073   3.632
19335W        W78629  35.412  14.277  14.367
19336W        W78630  22.504  34.058   4.670
19337W        W78631  29.525  10.840  13.547
19338W        W78632  24.992   1.801  10.431
19339W        W78633  28.987  42.987  10.976
19340W        W78634  37.859  15.656  11.568
19341W        W78635   6.794  31.943  10.948
19342W        W78636  35.373  42.848  14.325
19343W        W78637  35.406  37.019   2.672
19344W        W78638  42.020  15.209  12.482
19345W        W78639   2.853  11.292  13.351
19346W        W78640  10.324  21.194   2.902
19347W        W78641  36.417  24.067   0.939
19348W        W78642  36.504  42.962   4.761
19349W        W78643   3.382  19.703   1.854
19350W        W78644  40.847  38.525   0.844
19351W        W78645   5.816  39.953  10.442
19352W        W78646  24.113  36.025   0.806
19353W        W78647   7.709   0.930  13.947
19354W        W78648  14.315  25.081   1.755
19355W        W78649  20.198  15.632  12.078
19356W        W78650  12.186  37.510   2.290
19357W        W78651  35.898  10.813   1.768
19358W        W78652   8.272  40.932   3.648
19359W        W78653   4.940  33.508  14.486
19360W        W78654  15.721  38.845  11.052
19361W        W78655  38.502  35.034   4.344
19362W        W78656   2.826  13.734   4.657
19363W        W78657  21.656  17.694   3.803
19364W        W78658  32.018   5.706  11.941
19365W        W78659  40.848   5.213   0.784
19366W        W78660  34.115  33.577  12.828
19367W        W78661  37.964  41.843   0.857
19368W        W78662  20.745  27.985  10.546
19369W        W78663  17.092  37.931  12.518
19370W        W78664   2.816  35.592   0.480
19371W        W78665  16.611  27.114  11.034
19372W        W78666  41.321  12.167   4.700
19373W        W78667  11.162   8.298  10.966
19374W        W78668  14.268  43.799  10.960
19375W        W78669   2.472   8.743  10.097
19376W        W78670   8.202  43.356   3.783
19377W        W78671  31.603  32.033   3.378
19378W        W78672   2.831   1.875  11.607
19379W        W78673  34.101  39.363   2.671
19380W        W78674   3.424  29.562  11.498
19381W        W78675  17.647  25.137   1.442
19382W        W78676   9.838   2.251  14.491
19383W        W78677  35.907  20.234   2.810
19384W        W78678   5.861   6.292  12.561
19385W        W78679  14.793  26.163  11.394
19386W        W78680  28.934  21.755  12.468
19387W        W78681   6.768  10.260   2.833
19388W        W78682  41.333  23.219  11.014
19389W        W78683  32.423   9.180  11.395
19390W        W78684  39.061  26.069   1.374
19391W        W78685   8.176  30.532   1.410
19392W        W78686   4.750   7.845  13.366
19393W        W78687  38.985  19.184   0.374
19394W        W78688  25.052   8.350  12.930
19395W        W78689  32.478  25.054  14.995
19396W        W78690  44.433  27.949  13.336
19397W        W78691  29.947  30.013  11.381
19398W        W78692   9.806  22.067  13.317
19399W        W78693   8.745   2.230  14.501
19400W        W78694  14.273  43.407  10.540
19401W        W78695  20.598  27.177  11.063
19402W        W78696  10.205  15.271   1.926
19403W        W78697  32.452   7.746  13.384
19404W        W78698   5.861  17.241   3.293
19405W        W78699  41.409  12.334   1.823
19406W        W78700  37.859  35.873  13.400
19407W        W78701  17.661  25.990  12.505
19408W        W78702   4.888  24.659  14.870
19409W        W78703  38.018  28.525   3.244
19410W        W78704  27.125   5.398   0.475
19411W        W78705   2.859   8.875   2.284
19412W        W78706  30.499  17.615  13.342
19413W        W78707  19.277  16.575  14.512
19414W        W78708   6.803  42.329  13.980
19415W        W78709  16.281   0.938  10.523
19416W        W78710  34.982  24.702   4.321
19417W        W78711  10.342  33.944   2.792
19418W        W78712  24.123  21.174  12.869
19419W        W78713  36.978  24.694   2.339
19420W        W78714  19.650   4.717  14.333
19421W        W78715  26.461  32.616   4.733
19422W        W78716  27.639  30.447   0.929
19423W        W78717   0.409   1.923  10.594
19424W        W78718   8.683   9.305  12.937
19425W        W78719  23.198  38.959   4.293
19426W        W78720  33.883  11.129   2.237
19427W        W78721  13.350   9.694   2.294
19428W        W78722  33.976  13.228   4.281
19429W        W78723  23.562  43.842  12.027
19430W        W78724  17.757  24.194  12.831
19431W        W78725   8.701   6.253   2.673
19432W        W78726  31.547  13.689  13.822
19433W        W78727  37.473  13.649  14.891
19434W        W78728   3.845  13.613   1.364
19435W        W78729   8.780  44.932  13.514
19436W        W78730  33.455  22.692  12.458
19437W        W78731  13.208  18.763  12.577
19438W        W78732  15.612   2.874   2.754
19439W        W78733  24.525  20.239  13.833
19440W        W78734  13.617   2.368   4.718
19441W        W78735  11.793  36.557   2.210
19442W        W78736   4.786  18.182  12.047
19443W        W78737  13.324  31.505  11.541
19444W        W78738  43.428  20.748  10.521
19445W        W78739   0.836   8.876   1.898
19446W        W78740  12.684  39.546   3.368
19447W        W78741   7.755  18.074   3.652
19448W        W78742  29.486  30.549   3.646
19449W        W78743  32.988  17.262   1.375
19450W        W78744  40.892  33.109  13.843
19451W        W78745   0.750  32.119   1.780
19452W        W78746  15.305   4.827   3.844
19453W        W78747  18.234  35.925  10.459
19454W        W78748  32.395  16.664  14.813
19455W        W78749   8.385   2.340   0.841
19456W        W78750  22.740  39.823  14.844
19457W        W78751  24.603   6.235   3.766
19458W        W78752  42.842  13.125  11.497
19459W        W78753  43.807   6.907  14.458
19460W        W78754   9.756  43.415  13.413
19461W        W78755  32.909  29.544   0.475
19462W        W78756  20.528  16.248  14.768
19463W        W78757  18.578  36.001  11.084
19464W        W78758  34.610   0.766  11.914
19465W        W78759  29.922  39.404  14.276
19466W        W78760  37.520  29.031   1.368
19467W        W78761  16.279  24.497  13.819
19468W        W78762  30.105  36.041   4.672
19469W        W78763  43.994  27.690  11.434
19470W        W78764   7.778  18.137  14.823
19471W        W78765   8.244  12.752  11.110
19472W        W78766  44.934  40.432  14.392
19473W        W78767  11.749  11.321  12.954
19474W        W78768  24.042  26.702   1.811
19475W        W78769   4.904  39.040   4.287
19476W        W78770  14.118   8.386   2.203
19477W        W78771  22.650  13.315   0.401
19478W        W78772  44.462   3.955   2.184
19479W        W78773   2.421  29.165  13.959
19480W        W78774   9.390  23.193  11.953
19481W        W78775  26.650  18.546   1.443
19482W        W78776  24.226  25.967  11.892
19483W        W78777  20.696  14.326   4.733
19484W        W78778   7.237  16.649   4.630
19485W        W78779  20.175  31.452  14.418
19486W        W78780  17.674  10.259  13.904
19487W        W78781  38.021  19.629  14.350
19488W        W78782  13.214   2.234   0.920
19489W        W78783  13.316  22.055   3.648
19490W        W78784  26.478  10.219   4.640
19491W        W78785  10.782  36.066   4.686
19492W        W78786  10.649  40.041  10.508
19493W        W78787  19.576  12.713  10.991
19494W        W78788  39.864  38.972  14.294
19495W        W78789  22.585   3.845  14.510
19496W        W78790  37.071  43.381   1.927
19497W        W78791  18.725  18.159  14.967
19498W        W78792  15.268   7.764   1.422
19499W        W78793  24.582  43.941  13.799
19500W        W78794  33.108   4.744  14.874
19501W        W78795  12.806  32.132   4.277
19502W        W78796   0.404  26.204   1.931
19503W        W78797  21.202   3.416  13.453
19504W        W78798  37.946  15.298   2.282
19505W        W78799   5.915  42.399   4.784
19506W        W78800   2.310   9.233  14.859
19507W        W78801  10.876  15.728  12.903
19508W        W78802  29.102  37.550  10.036
19509W        W78803  41.402  29.097   0.956
19510W        W78804  29.477  36.887   4.242
19511W        W78805  33.126  16.078   2.331
19512W        W78806   9.751  38.881   2.806
19513W        W78807  15.140  16.104   0.911
19514W        W78808  18.586  12.626  10.982
19515W        W78809  19.753  15.129   1.224
19516W        W78810   5.856  14.214   4.127
19517W        W78811   2.414  32.472   3.162
19518W        W78812  10.175  36.375  10.031
19519W        W78813  34.969  12.289   4.228
19520W        W78814  38.921  36.089   5.200
19521W        W78815  20.595  38.918   1.777
19522W        W78816  40.913  40.832  10.966
19523W        W78817  35.046  21.680   2.708
19524W        W78818   4.910  16.247   1.267
19525W        W78819   3.920  36.592  10.891
19526W        W78820  44.965  44.494   1.855
19527W        W78821  33.603  33.946  12.429
19528W        W78822  30.636  11.831   4.736
19529W        W78823  39.387  13.341   2.261
19530W        W78824  29.062   4.839  10.909
19531W        W78825  44.277  40.885   0.350
19532W        W78826  26.186  31.117  12.554
19533W        W78827  24.151  33.947   2.228
19534W        W78828  34.934  43.335   0.450
19535W        W78829  39.326  31.033  13.811
19536W        W78830  30.129  25.012  14.952
19537W        W78831   8.363  29.625  13.878
19538W        W78832  13.336   4.291   2.298
19539W        W78833  39.932  15.716  10.630
19540W        W78834  35.087  26.030   0.466
19541W        W78835  20.222  38.485  14.795
19542W        W78836  11.731  42.994  14.435
19543W        W78837  24.082  32.424   0.325
19544W        W78838  40.977  26.489  11.900
19545W        W78839  44.948  44.307   3.285
19546W        W78840  41.923  21.723   1.274
19547W        W78841  31.930   1.754   4.825
19548W        W78842  18.676  12.199  14.770
19549W        W78843  12.711   4.328  13.821
19550W        W78844  17.254  26.647   0.877
19551W        W78845  43.886  21.647   4.654
19552W        W78846   5.906   9.806  10.909
19553W        W78847  22.016   6.281   1.872
19554W        W78848  37.402  24.630   2.263
19555W        W78849  14.803  34.596   1.320
19556W        W78850  20.125  25.979   1.284
19557W        W78851   7.685  40.978   4.318
19558W        W78852  20.193  44.815  12.580
19559W        W78853  11.264  32.074  14.024
19560W        W78854  23.079  26.149   3.656
19561W        W78855   8.208  19.075   0.324
19562W        W78856  26.083   9.656   1.351
19563W        W78857  22.088  17.065   1.351
19564W        W78858  25.976  13.799  13.475
19565W        W78859  42.353  23.523  11.886
19566W        W78860  21.718  36.915  11.078
19567W        W78861  34.388  12.755   0.256
19568W        W78862  40.936  19.206  11.991
19569W        W78863  30.077  27.630   2.795
19570W        W78864  40.873  42.509  14.277
19571W        W78865   9.302  22.524   3.718
19572W        W78866  35.036  25.067   0.805
19573W        W78867  13.805  31.638   3.641
19574W        W78868   8.701  34.418   4.643
19575W        W78869  43.389   3.362  11.984
19576W        W78870  15.257  12.623   2.338
19577W        W78871  13.737  14.254  11.605
19578W        W78872  18.213  43.788  12.528
19579W        W78873  29.061   3.448  13.965
19580W        W78874  43.307   0.986  14.461
19581W        W78875   7.376  41.293   0.399
19582W        W78876   2.332  19.151   2.412
19583W        W78877  13.117   8.848   5.243
19584W        W78878  24.699  33.995   1.811
19585W        W78879  15.208  40.468   4.736
19586W        W78880  38.474   3.412  10.947
19587W        W78881  28.669  23.089  13.045
19588W        W78882  23.543  30.568   4.323
19589W        W78883  30.060  16.584  13.331
19590W        W78884  35.593  27.027   2.786
19591W        W78885   3.393  29.537   4.824
19592W        W78886  31.062  35.016   2.704
19593W        W78887  14.279  27.140   0.810
19594W        W78888  14.817   9.676   1.812
19595W        W78889  17.644  15.581   2.716
19596W        W78890   3.874  34.984   4.174
19597W        W78891   9.195   9.149   2.226
19598W        W78892  30.489  17.769  13.018
19599W        W78893   0.290   2.247   4.324
19600W        W78894  14.269  17.257   2.806
19601W        W78895  14.671  25.553  13.909
19602W        W78896  18.069  40.951   2.316
19603W        W78897   8.770  29.100   5.090
19604W        W78898   5.918   8.885  11.038
19605W        W78899  19.204  32.910   3.371
19606W        W78900  25.099  22.713   2.341
19607W        W78901  43.919   0.825   3.832
19608W        W78902  27.617   7.374   1.278
19609W        W78903  27.118  16.247   3.683
19610W        W78904  37.546   5.307  10.631
19611W        W78905  36.901  24.497   1.788
19612W        W78906  40.542  32.541   1.812
19613W        W78907  40.434  40.012   4.678
19614W        W78908  10.707  14.663  11.021
19615W        W78909   5.241  12.716  12.979
19616W        W78910  42.847  43.482   0.864
19617W        W78911   2.232  11.847   1.276
19618W        W78912  12.324   1.819   2.675
19619W        W78913  22.718   3.319   3.346
19620W        W78914   7.220  30.531  12.566
19621W        W78915  36.375  34.092   2.788
19622W        W78916  38.918   3.788   4.716
19623W        W78917  41.428   9.741  11.878
19624W        W78918   5.304  41.399   3.678
19625W        W78919  44.437  17.266  10.606
19626W        W78920   4.413  24.133  14.490
19627W        W78921  20.685  13.653  11.072
19628W        W78922  32.114  13.288  13.058
19629W        W78923  33.454  31.532   2.837
19630W        W78924  28.022   9.734   0.909
19631W        W78925  33.504  41.872   9.973
19632W        W78926  44.943  15.642  11.007
19633W        W78927  22.053  28.114  12.346
19634W        W78928  31.915   0.486   1.877
19635W        W78929   9.301   8.827   0.768
19636W        W78930  36.389  38.873  14.384
19637W        W78931  17.243  33.069   1.708
19638W        W78932  34.517  31.916   0.885
19639W        W78933  25.145  26.098  10.565
19640W        W78934   5.316  28.052  11.583
19641W        W78935  24.159  16.627  11.113
19642W        W78936  16.675   9.698   3.344
19643W        W78937   1.857   3.303  11.376
19644W        W78938  17.720  36.084   2.855
19645W        W78939   3.715  10.667  13.470
19646W        W78940  43.275  16.649  10.991
19647W        W78941  19.160  23.170  12.901
19648W        W78942  16.180  31.407  13.844
19649W        W78943  42.434  20.598  12.058
19650W        W78944  17.718   2.442   3.868
19651W        W78945  14.691  23.541  14.284
19652W        W78946  20.035   4.261  11.115
19653W        W78947  30.484  14.326   3.656
19654W        W78948   2.231  17.601   0.361
19655W        W78949  30.530  35.093  11.505
19656W        W78950  29.043  40.400   1.695
19657W        W78951  19.559  20.729  13.457
19658W        W78952   4.328   2.828   4.751
19659W        W78953  32.602  39.885   1.384
19660W        W78954   6.679  16.704  10.618
19661W        W78955   8.373   1.905  12.843
19662W        W78956  14.171  31.048   2.279
19663W        W78957  28.090  19.760   4.289
19664W        W78958  23.996  31.562   0.302
19665W        W78959  17.278  17.147  14.402
19666W        W78960  43.775  33.397  12.448
19667W        W78961  22.611  10.746   1.399
19668W        W78962  17.140  37.855  13.942
19669W        W78963  17.667   6.199   1.769
19670W        W78964  12.743  27.482  12.347
19671W        W78965  37.485  19.757  10.117
19672W        W78966   0.289  19.547   4.758
19673W        W78967  14.302  28.440  10.489
19674W        W78968  34.439  19.623   5.250
19675W        W78969  21.200   2.903  11.909
19676W        W78970  28.571  36.448  12.494
19677W        W78971  20.747  16.266   0.802
19678W        W78972  30.492  24.139   1.897
19679W        W78973  32.037  36.070   2.328
19680W        W78974  10.380  40.516   4.758
19681W        W78975  38.826  43.439   4.598
19682W        W78976  33.110   4.305   2.409
19683W        W78977  16.262  36.842  14.026
19684W        W78978  21.513  31.975  11.406
19685W        W78979  32.042   3.764   0.743
19686W        W78980  30.657   0.454  14.450
19687W        W78981   1.365   3.774   1.931
19688W        W78982  12.155  27.024   0.938
19689W        W78983   7.765   1.802  13.894
19690W        W78984   1.434  39.396  14.013
19691W        W78985  22.148  40.961  11.474
19692W        W78986  12.217  12.148   5.577
19693W        W78987  43.803  37.902   2.787
19694W        W78988   9.228   4.243  13.341
19695W        W78989  35.542  10.281   4.170
19696W        W78990  35.959  13.225   4.296
19697W        W78991  37.989  11.283  10.929
19698W        W78992  29.944  15.627   4.778
19699W        W78993  40.391  27.510   4.128
19700W        W78994   9.316  40.812  14.286
19701W        W78995  29.662   5.416   4.734
19702W        W78996  31.427  35.572   1.260
19703W        W78997  30.541  28.633   4.789
19704W        W78998   2.876  28.075   3.379
19705W        W78999  16.662   0.248   2.884
19706W        W79000  13.300  21.230   2.254
19707W        W79001  15.144   9.794   4.325
19708W        W79002  13.180  13.752   4.303
19709W        W79003   6.748  17.296  12.474
19710W        W79004  27.082  23.544  14.885
19711W        W79005  38.544  38.864   3.649
19712W        W79006   7.240  39.448  12.985
19713W        W79007  22.250  37.867   2.394
19714W        W79008  18.264  44.819   0.406
19715W        W79009  25.605  15.712  14.899
19716W        W79010  26.677  14.619  12.430
19717W        W79011  37.068  32.075  10.981
19718W        W79012  27.614   8.813   2.727
19719W        W79013  14.334  31.001   3.829
19720W        W79014  34.954  37.561   9.947
19721W        W79015   1.778  41.884  12.973
19722W        W79016  22.136  26.473   1.915
19723W        W79017  16.801  19.182   3.258
19724W        W79018   3.379  28.081   5.306
19725W        W79019  19.720  32.542  11.609
19726W        W79020  26.143  20.128  14.330
19727W        W79021   6.685  36.005   1.821
19728W        W79022  23.709  30.054   0.337
19729W        W79023  23.218  10.796   4.268
19730W        W79024   5.903   5.733  12.054
19731W        W79025   1.430  35.095  14.970
19732W        W79026  44.811  20.685  12.339
19733W        W79027   9.331  36.086  13.036
19734W        W79028  32.939  38.328   3.363
19735W        W79029  15.257  27.166  12.084
19736W        W79030  11.650   6.416  11.056
19737W        W79031  17.775  23.701  12.002
19738W        W79032  17.610   2.771   0.319
19739W        W79033   9.318  18.124  14.318
19740W        W79034  20.102  18.598  14.418
19741W        W79035  15.243   6.367  14.356
19742W        W79036  44.391  40.494   4.351
19743W        W79037   7.777  22.540  11.121
19744W        W79038  27.960  15.149   3.784
19745W        W79039  20.158  14.771   4.199
19746W        W79040  28.082  23.668  13.333
19747W        W79041  26.164   6.372  14.350
19748W        W79042  23.161   9.167   1.418
19749W        W79043  31.027  14.295  14.902
19750W        W79044  31.101   0.854   3.214
19751W        W79045   8.797  10.827  13.942
19752W        W79046  10.810  40.439  11.415
19753W        W79047  22.633   6.226  14.489
19754W        W79048  39.945  22.034  13.842
19755W        W79049   9.374  28.981   3.692
19756W        W79050  23.028  27.481  13.509
19757W        W79051  19.578   3.277  10.411
19758W        W79052  33.099   5.274   2.201
19759W        W79053   5.850  23.624   4.635
19760W        W79054  26.181  18.592  12.545
19761W        W79055  37.903  13.726  12.510
19762W        W79056  15.788  30.114   1.875
19763W        W79057   1.858  22.508   0.340
19764W        W79058  16.762  40.873  10.609
19765W        W79059   0.475  40.473   2.837
19766W        W79060  18.161  19.137  14.884
19767W        W79061  10.267  18.601  13.465
19768W        W79062   3.235  10.818  13.945
19769W        W79063  20.686  24.596   4.807
19770W        W79064  20.712   2.907  14.826
19771W        W79065  11.765   0.875  11.933
19772W        W79066  33.897  17.103   4.354
19773W        W79067  13.311  43.369  11.096
19774W        W79068   6.366  34.066   9.476
19775W        W79069   3.336  20.529  11.007
19776W        W79070  43.389   5.298   5.091
19777W        W79071  36.349  23.009   2.300
19778W        W79072   3.266  39.432   0.851
19779W        W79073  39.820  18.670  10.576
19780W        W79074  17.611  11.664   4.743
19781W        W79075  21.754   5.751   2.769
19782W        W79076  17.606   8.901  13.360
19783W        W79077  27.661  13.611   0.377
19784W        W79078   5.722  31.033   2.377
19785W        W79079  32.929  22.169   3.256
19786W        W79080  43.006   3.335   3.240
19787W        W79081   6.261  28.018   4.248
19788W        W79082  13.343  41.846  14.966
19789W        W79083  15.822  17.796  12.396
19790W        W79084  44.006  34.383   0.243
19791W        W79085  18.701  28.985   1.766
19792W        W79086   8.829  28.025  12.976
19793W        W79087  37.558  28.587  13.491
19794W        W79088  16.762  30.570   0.432
19795W        W79089  25.115  40.914   0.878
19796W        W79090  13.280  39.536  13.965
19797W        W79091  29.479   9.221  12.959
19798W        W79092  25.607  42.358  13.808
19799W        W79093  17.230  13.761   3.714
19800W        W79094  39.841  33.920  10.975
19801W        W79095   0.388  32.088  12.942
19802W        W79096   8.303  16.741   0.737
19803W        W79097  36.421  13.232  14.275
19804W        W79098  12.134  19.665  14.875
19805W        W79099  19.183  27.579  12.500
19806W        W79100   9.674   4.853  10.503
19807W        W79101   8.374  24.983   1.844
19808W        W79102  30.111  26.149   1.222
19809W        W79103  43.274  12.749   5.185
19810W        W79104  20.738  26.618   2.300
19811W        W79105  12.753  13.170  13.989
19812W        W79106   6.413  12.715  11.063
19813W        W79107  18.669  24.568   1.351
19814W        W79108   1.966  13.681  11.919
19815W        W79109  29.063  22.144  13.058
19816W        W79110  35.930  11.362  13.023
19817W        W79111  18.563  32.953  11.955
19818W        W79112  18.175  30.414  12.974
19819W        W79113  21.622  44.910   1.308
19820W        W79114  43.929   4.370   2.668
19821W        W79115  25.472  23.160   3.276
19822W        W79116  11.824  25.007  11.100
19823W        W79117  10.314  30.569  14.498
19824W        W79118  21.255  22.726  12.070
19825W        W79119  37.034  42.311  14.895
19826W        W79120  42.447  12.223   4.202
19827W        W79121  12.747  28.066  12.856
19828W        W79122  44.444   8.853  13.458
19829W        W79123  42.479  32.531  11.947
19830W        W79124  36.057  26.012   4.248
19831W        W79125  28.929  36.408  11.559
19832W        W79126   2.305  32.127  10.964
19833W        W79127  27.993  34.938   5.118
19834W        W79128  24.678   1.392   3.863
19835W        W79129  17.578  43.336  14.970
19836W        W79130  39.435  26.634  12.547
19837W        W79131  28.976  39.898   3.747
19838W        W79132   7.697  43.773  14.868
19839W        W79133  10.649  34.041   9.516
19840W        W79134   2.450  42.453   2.836
19841W        W79135  40.346  29.450   2.193
19842W        W79136  38.917  23.534  13.828
19843W        W79137  40.912  36.444  14.939
19844W        W79138  16.153   1.869   1.236
19845W        W79139  16.738   0.256  14.869
19846W        W79140   4.324  26.039  14.489
19847W        W79141  41.361  25.019   4.254
19848W        W79142  14.698  17.142   3.283
19849W        W79143   1.817  26.129  10.911
19850W        W79144   0.408  26.205   3.347
19851W        W79145  24.624   2.854   3.801
19852W        W79146  23.731  41.877   2.821
19853W        W79147   8.212  34.542   3.672
19854W        W79148  41.459  30.097   0.762
19855W        W79149  21.161  42.861   9.945
19856W        W79150   0.286  32.448  14.313
19857W        W79151  23.167   7.383   0.300
19858W        W79152  22.235  23.725   0.896
19859W        W79153  39.988  43.766  12.898
19860W        W79154   0.276  15.192  12.025
19861W        W79155   5.206  36.917   4.623
19862W        W79156  23.069  26.992  13.396
19863W        W79157  42.916  22.662  11.902
19864W        W79158   9.377  44.361   5.316
19865W        W79159  30.984  30.095   2.309
19866W        W79160  34.913  29.067   2.803
19867W        W79161  16.190  38.033   3.772
19868W        W79162  23.648  24.628  14.342
19869W        W79163  30.949  40.052  10.557
19870W        W79164   9.665  11.778   2.740
19871W        W79165  18.263  10.194   5.243
19872W        W79166   7.739  34.490   4.759
19873W        W79167  16.301  35.420   1.227
19874W        W79168  30.030  25.985  13.844
19875W        W79169  22.240  23.041   3.177
19876W        W79170   5.382   9.177   2.882
19877W        W79171   8.344  16.190   1.449
19878W        W79172   6.903  23.713   4.122
19879W        W79173  41.395  14.152  12.860
19880W        W79174  21.242  19.246  12.084
19881W        W79175  23.151  31.038   4.725
19882W        W79176  12.235  13.775   2.734
19883W        W79177  40.860   3.738   9.553
19884W        W79178   7.409   3.321  14.777
19885W        W79179  16.099  10.686   2.357
19886W        W79180  31.019  11.192   3.631
19887W        W79181  15.188   7.828  10.921
19888W        W79182   4.212  33.084  13.429
19889W        W79183  34.052   0.361   1.226
19890W        W79184  35.546   1.867   1.441
19891W        W79185  42.016   9.272  11.032
19892W        W79186   0.785   9.740  13.396
19893W        W79187   5.910  35.481   0.353
19894W        W79188   7.879  33.920   0.804
19895W        W79189  14.231  29.044   0.393
19896W        W79190  30.424  14.295   3.353
19897W        W79191   1.760  25.617  10.426
19898W        W79192  14.822  31.532  13.879
19899W        W79193  37.395  11.808   2.387
19900W        W79194  18.202  30.457   1.731
19901W        W79195  19.750  17.580  10.910
19902W        W79196  31.067  12.122  11.400
19903W        W79197  13.603  38.490   0.757
19904W        W79198  35.964  36.399  14.899
19905W        W79199  43.842  34.040   2.393
19906W        W79200   8.659  39.537   2.327
19907W        W79201  32.998   9.728  12.377
19908W        W79202  39.511   8.680   1.913
19909W        W79203  25.604   1.750  12.941
19910W        W79204  40.038  20.556  11.016
19911W        W79205  28.541  22.149  10.457
19912W        W79206  33.006  29.002   0.356
19913W        W79207  17.247   7.843  13.369
19914W        W79208  13.628  36.869   4.769
19915W        W79209  36.398  41.807  12.920
19916W        W79210   1.273   7.334  13.455
19917W        W79211  21.149  28.062   0.870
19918W        W79212  44.497  32.929   1.390
19919W        W79213  42.925   9.670   1.914
19920W        W79214  38.873   8.774   2.852
19921W        W79215  22.526  30.033   1.345
19922W        W79216  25.006  33.077  11.944
19923W        W79217  28.621  43.327  11.519
19924W        W79218  41.948  12.335   3.805
19925W        W79219  21.716  14.260   5.103
19926W        W79220   2.920   6.878   3.769
19927W        W79221  18.737   4.858  13.435
19928W        W79222  37.478  23.530   4.354
19929W        W79223   7.218  39.532   3.841
19930W        W79224  26.186  22.137  11.011
19931W        W79225  25.537  42.780   1.709
19932W        W79226  14.144  43.314  14.883
19933W        W79227   3.440  42.790   1.855
19934W        W79228  22.165   3.438  13.515
19935W        W79229   8.298  18.053   4.605
19936W        W79230  19.147  34.587   4.319
19937W        W79231  38.942  43.311  11.966
19938W        W79232  19.151  18.050   1.830
19939W        W79233  28.498  29.604  13.484
19940W        W79234   7.235   1.324   2.901
19941W        W79235  16.701  32.954   1.256
19942W        W79236  19.537  31.010  10.987
19943W        W79237  26.975  25.973   2.364
19944W        W79238  30.088  32.118  11.494
19945W        W79239  37.407  22.595   4.769
19946W        W79240  38.347  16.135   4.255
19947W        W79241  41.855  34.435   4.234
19948W        W79242  14.103  19.770   1.270
19949W        W79243  28.635   9.795   3.270
19950W        W79244  17.560  27.168   0.786
19951W        W79245   5.804  14.684  11.418
19952W        W79246  39.330  12.643  11.875
19953W        W79247  42.314  43.396   4.227
19954W        W79248  15.689   3.719   0.936
19955W        W79249  18.738  30.493   4.213
19956W        W79250   9.695   3.835   4.751
19957W        W79251  22.094  33.917  12.522
19958W        W79252  21.245   4.449  12.363
19959W        W79253  13.603  27.114   0.853
19960W        W79254   3.266  41.486   1.712
19961W        W79255  20.664  43.337  14.998
19962W        W79256  30.970  35.457  11.393
19963W        W79257  36.501  30.919   1.307
19964W        W79258  39.342  11.263   1.798
19965W        W79259  37.880  41.443   0.297
19966W        W79260   8.188  19.259  12.917
19967W        W79261   3.223  22.007  14.392
19968W        W79262  39.845  42.294  11.924
19969W        W79263  21.082  34.614  14.969
19970W        W79264  44.275  34.416  11.868
19971W        W79265  30.646  21.639   0.843
19972W        W79266  10.370  33.491  13.830
19973W        W79267   0.409   3.299  14.923
19974W        W79268  18.127   0.954  13.478
19975W        W79269  10.637  38.554   2.803
19976W        W79270   3.767  16.583  12.918
19977W        W79271  16.245  34.442  10.945
19978W        W79272  30.948  18.596  14.328
19979W        W79273   8.687   4.848  12.891
19980W        W79274  16.796  24.104   4.156
19981W        W79275   5.876  28.520   0.381
19982W        W79276   8.201  37.346   1.816
19983W        W79277  36.490  32.966   2.310
19984W        W79278  37.437  12.682  10.594
19985W        W79279  41.795  21.631  13.437
19986W        W79280   5.839  32.429   4.823
19987W        W79281   1.469   6.772   1.868
19988W        W79282  24.199   8.884   1.775
19989W        W79283  15.685  20.148   2.220
19990W        W79284  25.023  37.481   4.601
19991W        W79285  31.592  14.773   1.334
19992W        W79286  25.200  42.432   4.177
19993W        W79287  13.626  21.214  12.373
19994W        W79288  21.200  35.379   2.690
19995W        W79289  21.187  36.440   1.821
19996W        W79290  21.149  34.517  12.901
19997W        W79291  13.124  29.066   2.200
19998W        W79292   1.277  18.693   3.645
19999W        W79293   9.351  24.016   3.336
20000W        W79294  34.561   4.835  12.360
20001W        W79295   8.828  21.609  14.834
20002W        W79296   2.370   2.343   0.827
20003W        W79297  23.620   2.279   3.801
20004W        W79298  35.497   0.884   0.906
20005W        W79299  40.829   1.419   3.257
20006W        W79300  34.505  35.539  11.039
20007W        W79301  34.372  15.180  10.951
20008W        W79302  19.065  16.309  12.047
20009W        W79303   6.259  24.672   1.354
20010W        W79304  12.611  37.455  13.881
20011W        W79305  28.974   2.296   3.798
20012W        W79306   0.355  29.544   2.818
20013W        W79307  18.270   0.432  11.565
20014W        W79308  18.153   4.814   2.190
20015W        W79309  10.158  37.854   0.742
20016W        W79310  40.992  28.057   1.867
20017W        W79311  42.471  19.665  11.415
20018W        W79312  40.884  15.647   2.415
20019W        W79313  34.057  40.439   0.452
20020W        W79314  13.691   0.330   0.854
20021W        W79315  17.576  11.271  11.039
20022W        W79316   7.220  36.033  13.946
20023W        W79317   1.925  12.281  12.841
20024W        W79318  44.776  41.523  13.485
20025W        W79319  37.501  22.689   2.406
20026W        W79320  32.531  15.725   0.435
20027W        W79321  15.162   4.222   3.289
20028W        W79322  41.410  26.561   0.791
20029W        W79323   6.212  24.981  13.979
20030W        W79324  21.667   3.885  11.864
20031W        W79325  40.498  42.325   0.938
20032W        W79326   2.465  44.861   0.780
20033W        W79327  22.500  43.449  11.039
20034W        W79328  25.583  25.697  10.420
20035W        W79329   1.246   1.398   9.469
20036W        W79330  11.240  33.953   5.565
20037W        W79331  42.368   0.351  12.408
20038W        W79332  39.991  42.931   4.610
20039W        W79333  38.068  40.472  10.592
20040W        W79334   0.319  12.203  12.500
20041W        W79335  24.566  20.082   4.802
20042W        W79336  41.373   7.315  14.017
20043W        W79337  10.688   9.272   2.696
20044W        W79338  19.062  33.621   2.410
20045W        W79339  10.145  25.219  13.984
20046W        W79340  10.204  35.083   1.774
20047W        W79341  29.506  37.453   3.150
20048W        W79342  29.038  23.624   3.805
20049W        W79343  44.883  42.931  13.318
20050W        W79344  35.529  39.361   0.371
20051W        W79345   5.754  44.940  10.491
20052W        W79346  37.999  34.380   3.235
20053W        W79347  32.105  31.953   3.324
20054W        W79348   0.422  29.596   4.739
20055W        W79349  20.141  36.096  10.105
20056W        W79350  29.627  10.281   4.626
20057W        W79351  28.082  17.063   5.274
20058W        W79352  35.465  30.038  12.530
20059W        W79353  18.625   3.794   2.825
20060W        W79354  42.960  22.209   0.731
20061W        W79355  36.022  29.568  12.913
20062W        W79356  25.568  18.723  11.995
20063W        W79357  11.154   8.257   0.859
20064W        W79358   5.911  21.527  12.057
20065W        W79359  15.254  10.772   1.733
20066W        W79360  41.812  23.994   0.439
20067W        W79361  28.469  39.379  13.877
20068W        W79362  35.914   1.237   1.292
20069W        W79363  33.975  19.091   2.236
20070W        W79364  21.061  23.733   3.279
20071W        W79365   9.365   5.285   0.268
20072W        W79366  24.589  23.096  13.890
20073W        W79367  43.393  36.546  10.532
20074W        W79368   5.431  43.510  14.342
20075W        W79369   8.888  13.660  10.999
20076W        W79370  27.968   6.320   1.310
20077W        W79371  23.123  12.165   1.437
20078W        W79372   6.737  22.008   5.706
20079W        W79373  12.770  43.856  14.374
20080W        W79374  19.612  16.230  13.482
20081W        W79375  35.865  28.126   4.777
20082W        W79376   2.801  36.009  14.927
20083W        W79377  15.152  32.079   4.723
20084W        W79378  21.672  11.139   1.771
20085W        W79379   8.661  37.990   0.870
20086W        W79380   9.164   8.701  12.397
20087W        W79381  39.838  23.533  11.429
20088W        W79382  31.070  21.232   3.763
20089W        W79383  31.941  17.271   1.816
20090W        W79384  27.965  11.229  12.572
20091W        W79385  30.027  43.308   3.758
20092W        W79386  23.234  40.818   4.221
20093W        W79387  34.576  19.686  14.399
20094W        W79388  20.198  35.563   4.179
20095W        W79389   0.373   6.410  14.334
20096W        W79390  22.735  24.011   2.867
20097W        W79391   6.850  15.297  10.926
20098W        W79392  39.331  32.997   1.347
20099W        W79393   2.265  41.487   2.837
20100W        W79394  21.519  42.021   3.164
20101W        W79395  28.017  38.857  11.881
20102W        W79396   9.707  24.116  11.976
20103W        W79397  24.064  10.190  12.379
20104W        W79398  18.104   1.408  13.485
20105W        W79399  22.728  23.630   0.788
20106W        W79400  22.115  10.371   3.381
20107W        W79401  18.140  35.426  14.318
20108W        W79402   4.366   9.726  10.995
20109W        W79403  19.113  10.349   3.732
20110W        W79404  27.042  25.549   4.718
20111W        W79405  20.692  13.764   4.198
20112W        W79406  13.829  44.402  12.343
20113W        W79407  31.553  39.474  13.326
20114W        W79408  12.851   7.257  11.865
20115W        W79409   3.798  28.549  11.461
20116W        W79410  40.958  20.732  12.036
20117W        W79411   5.416  26.975   2.334
20118W        W79412  42.853  34.431   3.339
20119W        W79413  24.572   0.982  12.940
20120W        W79414   6.340   7.380   9.922
20121W        W79415  11.191  25.627  14.798
20122W        W79416   4.305   0.442   4.163
20123W        W79417  15.203  21.593   4.269
20124W        W79418  12.279  14.121  10.426
20125W        W79419  39.455  24.720   4.813
20126W        W79420  31.474  38.400  12.031
20127W        W79421  35.934  21.082  13.920
20128W        W79422  35.966  39.033   0.854
20129W        W79423   0.494  26.638  10.968
20130W        W79424  14.625   2.810   1.233
20131W        W79425  42.454  36.402  10.466
20132W        W79426  31.527  40.972  11.084
20133W        W79427  11.251   2.789   2.215
20134W        W79428  36.432  15.756  13.380
20135W        W79429  29.167  39.503   4.678
20136W        W79430  10.816   2.249   2.887
20137W        W79431   8.874  22.742   3.763
20138W        W79432  31.412  25.068   0.450
20139W        W79433  33.067  38.906   0.362
20140W        W79434  40.991  29.466  12.347
20141W        W79435  34.894  23.179  11.070
20142W        W79436  11.233  34.061   4.162
20143W        W79437  24.999   1.473   1.915
20144W        W79438  30.084  11.787  11.396
20145W        W79439  21.109  44.890  11.539
20146W        W79440  37.034  39.357  11.563
20147W        W79441  35.412   5.859  12.003
20148W        W79442  24.046  23.029   4.735
20149W        W79443   7.768  19.067  12.955
20150W        W79444  35.080  19.230  13.340
20151W        W79445  11.742  37.059  13.970
20152W        W79446   2.848   1.945  13.533
20153W        W79447   5.709  30.601   0.308
20154W        W79448  18.602  24.596  13.547
20155W        W79449  33.506  18.580  12.071
20156W        W79450  27.019  35.592   2.228
20157W        W79451  12.157  42.284  10.506
20158W        W79452  16.096   8.728  11.972
20159W        W79453  38.031  10.802   1.235
20160W        W79454  31.539  13.770   1.762
20161W        W79455   6.747  11.671   1.719
20162W        W79456  39.970  41.364  12.010
20163W        W79457  13.753  16.115   0.929
20164W        W79458  31.516  24.102   2.187
20165W        W79459  33.565  17.174   1.717
20166W        W79460   9.840  38.032   0.946
20167W        W79461  20.662  12.773   2.695
20168W        W79462  15.609   6.257   3.337
20169W        W79463  20.580  34.908  12.068
20170W        W79464   8.799  26.668   2.795
20171W        W79465  18.052   2.738   1.740
20172W        W79466  39.860  32.450  14.892
20173W        W79467  10.663  19.599   0.938
20174W        W79468  40.927  15.637   2.897
20175W        W79469  38.059   4.787  12.863
20176W        W79470  23.625  20.678   1.252
20177W        W79471   7.357   2.869  11.864
20178W        W79472   7.213  44.867   9.991
20179W        W79473   1.372  30.455  11.041
20180W        W79474  16.728  39.809   2.833
20181W        W79475  21.557  17.290  12.377
20182W        W79476  32.082  41.518   1.780
20183W        W79477  29.038  35.368   1.799
20184W        W79478  13.666   0.904  11.433
20185W        W79479  37.471  27.034   0.246
20186W        W79480   2.316  26.512   1.285
20187W        W79481  41.302   3.778   0.306
20188W        W79482   7.328  21.715  12.505
20189W        W79483  30.620  26.082   2.332
20190W        W79484  17.138  14.783   3.813
20191W        W79485   2.737  44.425   3.850
20192W        W79486  33.573  21.524   1.418
20193W        W79487  43.377   0.383   1.215
20194W        W79488   3.460  18.547   3.799
20195W        W79489  11.676  21.521  11.972
20196W        W79490  40.544   3.889  12.926
20197W        W79491   9.228  37.505  14.031
20198W        W79492  33.488  37.872  10.985
20199W        W79493  41.010  24.493  14.866
20200W        W79494  24.576   5.921   2.748
20201W        W79495  22.121  12.765  11.589
20202W        W79496  38.849  43.466   3.723
20203W        W79497  37.430  25.516   0.962
20204W        W79498  22.690  24.181   2.297
20205W        W79499  27.655  34.005  13.998
20206W        W79500  39.048   0.885   2.899
20207W        W79501  13.309   1.806   4.137
20208W        W79502  33.064  40.022   1.423
20209W        W79503  24.143  43.982  12.014
20210W        W79504  37.354  29.060   0.921
20211W        W79505   6.878  30.465   1.710
20212W        W79506   1.905  24.118   4.176
20213W        W79507  28.513  18.624   1.308
20214W        W79508  26.636  11.743   3.248
20215W        W79509  36.404  17.767   1.407
20216W        W79510   0.316  42.797   0.408
20217W        W79511  32.579  39.323  10.902
20218W        W79512   6.777  34.928   1.283
20219W        W79513  42.315   0.742  14.407
20220W        W79514  40.363  25.132  10.530
20221W        W79515  14.276  18.127  10.124
20222W        W79516  38.536  23.575  11.581
20223W        W79517  16.247   6.912  12.861
20224W        W79518  29.488  42.932   5.134
20225W        W79519  16.644  11.194   3.250
20226W        W79520  31.403  44.442   1.896
20227W        W79521  38.023  25.473  14.886
20228W        W79522  24.990  10.369   2.862
20229W        W79523   6.792  12.246  11.012
20230W        W79524  35.978  23.123  11.108
20231W        W79525  13.299  26.122   3.793
20232W        W79526   3.853  25.609   1.845
20233W        W79527  26.138  14.641   4.179
20234W        W79528  40.426  39.509  14.972
20235W        W79529  17.685  23.200  14.906
20236W        W79530  26.208  37.496  10.574
20237W        W79531   9.846   8.374  11.538
20238W        W79532  21.172  22.518   1.777
20239W        W79533  20.110  39.873   3.265
20240W        W79534   1.390  27.161  10.528
20241W        W79535  16.809  12.679  13.470
20242W        W79536  33.439   2.338   2.304
20243W        W79537  34.562   5.829   5.256
20244W        W79538  27.150  38.839   1.355
20245W        W79539  16.157  41.394  14.867
20246W        W79540  18.278  25.169   1.365
20247W        W79541   3.256  40.415  14.918
20248W        W79542  27.080  29.152  13.421
20249W        W79543  21.038  10.157  14.942
20250W        W79544  31.428  44.920  12.905
20251W        W79545  12.850  27.960   0.331
20252W        W79546  14.277  30.417  10.906
20253W        W79547  35.100   0.290   0.472
20254W        W79548  43.457  44.863   5.655
20255W        W79549   4.838  32.508  11.058
20256W        W79550  21.588  16.707   4.181
20257W        W79551  41.977  28.986  14.918
20258W        W79552   2.455  39.350   2.412
20259W        W79553  29.991  13.610  14.985
20260W        W79554   2.770  39.065   4.349
20261W        W79555  33.585   1.825  14.978
20262W        W79556   0.397  39.923   0.758
20263W        W79557  15.681   8.356  10.993
20264W        W79558  38.522  35.562  13.909
20265W        W79559  26.998  17.212  12.882
20266W        W79560  13.617   4.845   1.301
20267W        W79561  10.301  25.644  13.018
20268W        W79562  34.499  42.357  13.479
20269W        W79563   1.460  13.755   0.776
20270W        W79564   3.336  17.085   0.766
20271W        W79565  39.826  40.983  12.532
20272W        W79566  20.243  27.990   9.920
20273W        W79567  17.247  39.961   4.735
20274W        W79568  39.366  17.685  10.972
20275W        W79569   6.309  14.239  11.889
20276W        W79570  14.240  17.090  14.477
20277W        W79571  12.734  14.179  13.401
20278W        W79572  40.400   8.281   1.774
20279W        W79573  39.904  35.021  13.411
20280W        W79574   8.774  38.402   4.121
20281W        W79575  35.046  38.565  14.288
20282W        W79576  26.645   2.255  11.037
20283W        W79577  43.832  31.557  11.391
20284W        W79578  27.107  20.699   3.193
20285W        W79579  43.799  24.544   0.320
20286W        W79580  20.143  38.397   4.623
20287W        W79581  44.907  12.128  13.456
20288W        W79582  43.365  43.020   3.786
20289W        W79583  15.150  21.536  14.307
20290W        W79584  34.499  17.638  10.606
20291W        W79585  24.213   1.808   4.632
20292W        W79586  42.420   6.304   1.735
20293W        W79587  44.888  20.733   0.849
20294W        W79588  35.876  20.237   0.260
20295W        W79589   9.347  22.045   1.410
20296W        W79590   5.274  40.995  14.995
20297W        W79591  27.971   1.386  11.566
20298W        W79592  24.588  43.297   4.599
20299W        W79593   8.235  36.909   1.299
20300W        W79594  38.336   1.941  13.318
20301W        W79595  35.929  24.973   0.362
20302W        W79596  36.895  32.024  13.019
20303W        W79597  31.987  43.909  10.516
20304W        W79598  41.018  22.170   2.672
20305W        W79599  31.425  44.997  13.485
20306W        W79600  19.640  25.192   1.761
20307W        W79601  19.065  32.635   3.323
20308W        W79602  11.854  40.359   0.735
20309W        W79603   3.730  43.479  10.535
20310W        W79604   8.751  13.161  11.973
20311W        W79605  38.894  29.583  13.819
20312W        W79606  11.822  11.353   2.198
20313W        W79607  25.683  22.042  14.398
20314W        W79608   9.390   5.272   1.434
20315W        W79609   1.930  44.957   4.177
20316W        W79610  44.389   7.717  13.823
20317W        W79611   1.300  13.344   0.469
20318W        W79612   7.684  44.430   9.644
20319W        W79613  31.565  19.708   4.666
20320W        W79614  26.650  31.085   1.263
20321W        W79615  27.951  20.237   2.321
20322W        W79616  14.656  33.514   2.894
20323W        W79617  13.284  29.436  10.053
20324W        W79618   4.908  40.005   2.863
20325W        W79619  44.784  16.147  14.824
20326W        W79620  21.255   2.421  13.417
20327W        W79621  14.268  15.204  14.335
20328W        W79622  33.958  25.609  11.469
20329W        W79623  11.349  12.139  11.424
20330W        W79624  24.652  39.343   2.193
20331W        W79625  17.651   1.418  10.599
20332W        W79626  34.596  14.304   3.743
20333W        W79627   6.706   2.953   0.481
20334W        W79628   9.678   8.782   4.294
20335W        W79629  32.575  12.186   2.324
20336W        W79630  14.628  16.237  14.315
20337W        W79631  11.658   0.783  10.942
20338W        W79632  15.328   2.854  10.595
20339W        W79633  15.184  35.499   2.228
20340W        W79634  10.649  44.389   1.729
20341W        W79635  33.495  27.147   4.221
20342W        W79636  20.116  40.473  12.404
20343W        W79637   3.916  17.607  11.518
20344W        W79638  36.526  20.632   2.772
20345W        W79639  38.907  27.467  14.929
20346W        W79640  10.377  14.769  12.388
20347W        W79641  31.003   5.824  14.503
20348W        W79642  34.557   2.780   0.818
20349W        W79643  26.645  42.388  14.923
20350W        W79644   1.830  10.333   0.772
20351W        W79645   9.231  10.718   4.300
20352W        W79646  29.570  42.969  10.998
20353W        W79647  16.680  25.187  13.939
20354W        W79648  32.968  29.468   3.146
20355W        W79649  38.387   2.919  12.409
20356W        W79650  24.486   8.182  12.013
20357W        W79651  42.985   6.721  11.439
20358W        W79652  28.522  11.314   3.155
20359W        W79653  14.300  36.587   0.249
20360W        W79654  13.187  22.502   1.774
20361W        W79655  31.943  17.640   4.283
20362W        W79656   0.767  20.233  11.545
20363W        W79657  41.799  29.102   1.786
20364W        W79658  30.628  33.430  10.892
20365W        W79659  21.171  27.522   4.782
20366W        W79660   4.331  38.496   0.418
20367W        W79661   4.752  14.290  11.459
20368W        W79662  27.191  31.538   1.766
20369W        W79663   6.907   6.782   2.730
20370W        W79664  36.358  31.958  13.950
20371W        W79665  44.947  12.338   4.286
20372W        W79666  39.956  17.639  12.348
20373W        W79667   3.404  34.929   1.773
20374W        W79668  31.645  28.629  13.038
20375W        W79669  10.864  34.004   0.763
20376W        W79670  27.170  37.969   1.385
20377W        W79671  10.282  34.567   3.795
20378W        W79672  43.478  12.177  12.341
20379W        W79673  38.823  34.501  13.328
20380W        W79674  21.220   4.223   3.220
20381W        W79675  35.551  29.594   1.775
20382W        W79676  33.083  31.646   3.870
20383W        W79677  34.085  17.794  12.050
20384W        W79678   5.852  37.024  14.799
20385W        W79679   4.206   6.853   0.907
20386W        W79680  20.648   1.818   1.408
20387W        W79681  14.132  12.815   0.930
20388W        W79682   9.671  42.859  11.101
20389W        W79683  37.082  19.689   5.262
20390W        W79684  35.377  20.662   1.827
20391W        W79685  44.910  43.876   1.775
20392W        W79686  26.056  18.666  12.864
20393W        W79687  15.234  35.058  13.507
20394W        W79688  13.108  18.786   0.440
20395W        W79689  33.480  18.117  10.608
20396W        W79690  23.513  43.274   3.641
20397W        W79691  11.316  10.374   1.351
20398W        W79692  27.488   9.722   1.852
20399W        W79693  22.657  44.298  13.309
20400W        W79694  44.882  26.671  12.074
20401W        W79695  44.400  36.388  13.520
20402W        W79696   1.265  32.536  10.613
20403W        W79697  36.966  26.670  12.477
20404W        W79698  25.127  39.958  11.987
20405W        W79699   0.761  12.153  10.586
20406W        W79700   8.235  29.625  11.980
20407W        W79701  18.101  14.652  11.998
20408W        W79702  19.135  20.767  13.470
20409W        W79703   5.826   4.779  10.131
20410W        W79704  12.782  28.932  14.932
20411W        W79705  21.245  34.895   2.788
20412W        W79706  39.503  25.970  12.574
20413W        W79707   0.264   4.230   4.301
20414W        W79708  21.669   9.328   1.443
20415W        W79709  37.948  23.562   2.275
20416W        W79710   1.742  23.161   4.669
20417W        W79711  32.557  15.279  13.529
20418W        W79712  43.432  13.223   3.360
20419W        W79713  12.124  16.114   1.336
20420W        W79714  28.493  21.631  13.395
20421W        W79715   6.361  39.933  12.487
20422W        W79716  24.607  42.485   2.286
20423W        W79717  25.580  37.534  13.406
20424W        W79718  25.566  34.884   2.848
20425W        W79719  19.615  15.266  13.966
20426W        W79720  35.875  22.736  14.949
20427W        W79721   6.255  29.554  10.993
20428W        W79722   5.366  16.263   2.711
20429W        W79723  41.412  22.214   0.925
20430W        W79724   5.241  38.494   4.770
20431W        W79725   7.896  12.312   1.242
20432W        W79726  32.490  13.602   3.313
20433W        W79727  12.685   5.905  14.899
20434W        W79728  21.580   3.260   3.704
20435W        W79729  42.835  40.404  13.039
20436W        W79730   7.291  25.080   2.671
20437W        W79731  43.509   3.305   4.195
20438W        W79732  43.466   6.875   4.319
20439W        W79733  17.706  14.272   1.452
20440W        W79734  42.458  38.909   3.651
20441W        W79735   7.190  35.521   4.205
20442W        W79736  34.056  24.717  13.440
20443W        W79737  17.218  34.943  10.599
20444W        W79738  36.089  23.722  12.988
20445W        W79739   8.845  15.282  10.580
20446W        W79740  17.666   9.270  13.498
20447W        W79741  16.763   1.953  11.053
20448W        W79742  22.029  24.003  11.407
20449W        W79743   8.683   0.439   0.934
20450W        W79744  42.919  17.127   5.154
20451W        W79745   8.814  39.916   4.264
20452W        W79746  23.736   1.848   0.785
20453W        W79747   6.751  11.707   0.954
20454W        W79748  14.779  34.430   4.824
20455W        W79749  40.489  21.661  11.412
20456W        W79750  33.899  24.077   2.222
20457W        W79751   2.809  40.875   0.869
20458W        W79752  29.107  17.176   0.966
20459W        W79753   8.691  34.585  11.088
20460W        W79754  40.344  25.175   0.400
20461W        W79755   1.404   5.758  11.473
20462W        W79756  34.066   7.409   1.802
20463W        W79757  24.518  36.492  10.424
20464W        W79758   8.171  15.643   2.187
20465W        W79759   2.931  11.193  10.971
20466W        W79760  10.374  22.168  13.833
20467W        W79761  40.936   0.296  10.976
20468W        W79762  14.682  25.583  14.934
20469W        W79763  19.545  28.488   4.833
20470W        W79764  39.902  25.068  14.401
20471W        W79765  13.798  26.071  11.086
20472W        W79766  14.788  18.070  13.425
20473W        W79767  21.512  32.612  10.497
20474W        W79768   3.722   1.433   2.861
20475W        W79769   8.655  22.664   3.322
20476W        W79770  25.595   7.816  10.991
20477W        W79771  30.487  31.496   3.691
20478W        W79772  22.127  10.320   3.696
20479W        W79773   2.829  19.161   3.231
20480W        W79774  25.181  19.672  10.940
20481W        W79775  43.348   5.383  14.300
20482W        W79776  19.265  39.553   2.402
20483W        W79777  32.520   9.726  14.361
20484W        W79778   6.407  37.493  11.396
20485W        W79779  20.715  34.077  13.813
20486W        W79780  35.972  19.676  11.579
20487W        W79781  38.007  35.049   2.345
20488W        W79782  38.973   0.294  14.419
20489W        W79783  44.916  10.299  11.053
20490W        W79784  16.200  23.104   3.674
20491W        W79785  27.185  18.730   4.211
20492W        W79786  28.472  28.962  12.001
20493W        W79787  43.333  25.183   3.740
20494W        W79788  13.739  15.301  14.029
20495W        W79789  39.899   4.882  13.421
20496W        W79790   7.257  26.046   1.710
20497W        W79791  24.049  44.759   4.259
20498W        W79792   1.277  17.632  11.022
20499W        W79793   8.221  17.180  12.891
20500W        W79794  17.078  33.507   9.946
20501W        W79795  39.884  13.755   0.958
20502W        W79796  42.839  37.557   3.228
20503W        W79797   5.741  40.942   4.307
20504W        W79798   2.923  33.022   1.815
20505W        W79799  24.061  17.273   1.450
20506W        W79800  43.290   4.921  10.495
20507W        W79801  35.446  22.111   2.713
20508W        W79802  31.075  40.962  12.871
20509W        W79803  22.706  32.025   4.603
20510W        W79804  34.107  24.198  12.076
20511W        W79805  37.867  26.668  11.063
20512W        W79806  16.603  26.679  13.806
20513W        W79807   5.394  20.235   1.356
20514W        W79808  30.042  12.800  12.972
20515W        W79809  21.192  19.257   2.242
20516W        W79810  25.517  42.382   3.765
20517W        W79811  21.557   1.945  11.594
20518W        W79812  34.054   1.769  12.869
20519W        W79813  36.432  34.028  13.872
20520W        W79814  34.049  30.121   4.231
20521W        W79815  26.093   7.827   0.254
20522W        W79816  31.554  18.054  10.986
20523W        W79817   8.318  37.968  12.075
20524W        W79818  36.951  36.459   4.339
20525W        W79819   3.805  26.079  12.829
20526W        W79820   4.933  15.108  13.928
20527W        W79821   3.382   7.350  14.815
20528W        W79822  26.602  12.335   4.769
20529W        W79823  18.641   8.362   2.337
20530W        W79824   2.462  22.526   5.082
20531W        W79825  19.665   6.192  14.902
20532W        W79826  26.023  37.005   3.324
20533W        W79827   1.356  25.023   3.656
20534W        W79828  20.662  17.782  13.539
20535W        W79829  42.437  19.725   2.774
20536W        W79830  31.638  24.716  11.933
20537W        W79831  13.679   9.274  14.978
20538W        W79832  21.209  39.553   0.318
20539W        W79833  17.219  32.416   4.273
20540W        W79834  32.453   7.183   2.229
20541W        W79835  40.866  41.322  11.526
20542W        W79836   2.327  21.554  11.384
20543W        W79837  23.986   5.333  12.483
20544W        W79838   2.378  26.028  14.006
20545W        W79839   2.250  43.919  12.031
20546W        W79840  11.253  33.958  14.773
20547W        W79841  41.793  21.711   3.688
20548W        W79842   5.829  19.045   0.910
20549W        W79843  35.410  37.029   1.933
20550W        W79844   7.293  36.575  11.524
20551W        W79845   1.394  22.520   4.347
20552W        W79846  12.199  17.728  14.478
20553W        W79847  22.155  38.524   3.154
20554W        W79848   4.718  16.798   1.795
20555W        W79849  14.736   2.950   3.840
20556W        W79850  34.561   6.790  10.579
20557W        W79851   9.766  38.053  12.977
20558W        W79852  20.645   8.286  12.909
20559W        W79853  14.630   9.234  11.450
20560W        W79854   5.768  21.670   2.344
20561W        W79855  30.947  10.277  12.878
20562W        W79856  25.196  15.225   0.835
20563W        W79857  12.767  10.715   0.870
20564W        W79858  39.876  44.994  14.775
20565W        W79859  29.172  10.252  12.863
20566W        W79860  41.829  32.034  12.880
20567W        W79861  31.120  41.504   4.612
20568W        W79862  40.052  24.602  14.349
20569W        W79863  10.859  36.377  11.512
20570W        W79864  36.916  10.326   2.765
20571W        W79865  34.375  13.658  10.501
20572W        W79866   0.796  11.200  14.471
20573W        W79867  44.354  43.961  10.554
20574W        W79868  10.228  34.487   3.238
20575W        W79869   7.285  27.645  10.933
20576W        W79870  42.337  37.480   3.716
20577W        W79871  35.527  25.140  11.937
20578W        W79872  28.490  41.498   1.728
20579W        W79873  43.870  11.814  13.022
20580W        W79874  16.580  43.374  13.851
20581W        W79875  38.926  10.644  14.353
20582W        W79876   7.408  19.201   4.796
20583W        W79877  21.586   6.238   4.628
20584W        W79878   1.969  37.885   2.272
20585W        W79879   1.319  33.995   0.356
20586W        W79880  30.054   0.901   4.350
20587W        W79881  43.469  10.647   0.779
20588W        W79882  20.601  29.112  10.524
20589W        W79883  22.597  40.966  12.362
20590W        W79884  28.075   0.856   1.370
20591W        W79885  26.483   3.311  13.380
20592W        W79886  13.738  33.510  14.325
20593W        W79887  19.541   1.893  10.476
20594W        W79888  21.179  37.921   0.330
20595W        W79889  27.668  24.520   4.821
20596W        W79890  44.414   9.299   0.802
20597W        W79891  36.075  24.070  12.422
20598W        W79892  38.072  29.563  13.437
20599W        W79893  44.405  20.562   0.286
20600W        W79894  18.205   3.936   1.920
20601W        W79895   0.365  42.804   4.239
20602W        W79896  33.465   5.717  14.390
20603W        W79897  27.572   7.300  13.999
20604W        W79898  43.508   0.348   1.745
20605W        W79899  17.656  36.017   0.440
20606W        W79900  39.988   0.891  11.612
20607W        W79901  41.296  36.440  10.977
20608W        W79902  17.668  15.143   2.229
20609W        W79903  21.127  15.651   5.193
20610W        W79904  28.122  21.212  12.080
20611W        W79905  40.983  13.140  10.464
20612W        W79906  14.742  29.008   2.737
20613W        W79907  40.961  14.816  11.528
20614W        W79908  13.131  24.985   2.373
20615W        W79909   2.945  26.086   4.177
20616W        W79910  27.981   0.879   1.908
20617W        W79911  25.041   8.753  13.813
20618W        W79912   4.757   4.748   4.791
20619W        W79913  35.553   7.330  14.478
20620W        W79914  32.422  19.773  12.063
20621W        W79915  31.992  36.848  13.914
20622W        W79916  43.014  33.888   3.830
20623W        W79917  37.919  11.153   3.634
20624W        W79918  23.236  17.153   3.277
20625W        W79919  13.308  36.946  13.479
20626W        W79920   4.401  30.105  12.516
20627W        W79921  14.117  24.178   3.781
20628W        W79922  41.021  31.037  12.364
20629W        W79923  37.427  33.484   5.168
20630W        W79924  14.102  10.782  11.425
20631W        W79925  15.312  31.447   1.852
20632W        W79926  24.036   2.898  11.530
20633W        W79927   8.680   5.386  14.831
20634W        W79928  36.554  22.057   0.294
20635W        W79929   2.330  41.514   0.435
20636W        W79930  30.627  31.109  11.045
20637W        W79931   8.664  17.598  11.874
20638W        W79932  36.975  37.027   1.875
20639W        W79933  33.429  14.633  11.990
20640W        W79934   8.203  33.423   0.453
20641W        W79935  38.469  23.117   3.188
20642W        W79936   9.731  12.822   1.818
20643W        W79937  38.912  43.961  12.428
20644W        W79938  39.452  21.633  12.918
20645W        W79939  43.870  10.278  14.341
20646W        W79940  14.644  41.307   4.750
20647W        W79941  22.012   2.920   2.356
20648W        W79942   0.833  39.398  13.978
20649W        W79943  37.369  39.332   3.363
20650W        W79944  14.141  16.201   4.791
20651W        W79945  19.046  26.154  13.477
20652W        W79946  43.482   3.878  12.379
20653W        W79947  16.248  37.034  10.466
20654W        W79948  37.969   4.339   1.250
20655W        W79949   1.893  33.936  14.817
20656W        W79950   2.760  20.164   1.806
20657W        W79951  24.069  39.342  11.456
20658W        W79952  41.850  25.215  13.968
20659W        W79953  19.596  23.687  12.518
20660W        W79954  11.673   7.865   0.333
20661W        W79955  24.016  10.316   1.708
20662W        W79956   5.814  19.761   4.837
20663W        W79957  12.240  18.769   4.341
20664W        W79958   9.672  35.061  10.992
20665W        W79959  24.094  16.678  10.441
20666W        W79960  33.935  14.626   4.730
20667W        W79961  33.416   2.725  12.839
20668W        W79962  10.728  32.978   1.269
20669W        W79963   1.411  13.286  14.287
20670W        W79964  19.669  31.475   2.843
20671W        W79965   5.406  18.072  10.493
20672W        W79966   4.213  35.862  14.860
20673W        W79967  24.548  33.930  14.939
20674W        W79968   4.401  23.043  14.863
20675W        W79969  26.543  35.430  14.846
20676W        W79970  31.607   4.799   2.346
20677W        W79971   7.217   1.865   0.858
20678W        W79972  21.236  19.256   4.658
20679W        W79973  11.349   9.880  11.937
20680W        W79974   3.887  31.516  10.416
20681W        W79975  30.627  26.653  13.059
20682W        W79976  28.625  16.278   3.216
20683W        W79977  37.071  14.189   3.314
20684W        W79978  13.344  28.680   0.353
20685W        W79979  28.960   8.751   1.399
20686W        W79980  34.119  26.964   4.119
20687W        W79981  41.019  44.389  13.040
20688W        W79982   5.203  44.424  12.343
20689W        W79983  40.890  31.598   2.183
20690W        W79984   7.214  41.371   3.757
20691W        W79985  43.806  14.112   2.682
20692W        W79986  18.560  27.474  12.529
20693W        W79987  38.354   3.812   4.802
20694W        W79988  30.611  15.229   3.225
20695W        W79989   6.206  34.108  13.930
20696W        W79990   3.749  28.622  10.463
20697W        W79991  34.418  29.083  12.568
20698W        W79992  30.143   4.881  11.887
20699W        W79993  13.712  38.343  14.898
20700W        W79994  31.981   8.704   4.170
20701W        W79995  33.508   1.774   3.679
20702W        W79996  43.940  34.602  11.119
20703W        W79997  35.085   8.185  13.484
20704W        W79998  14.637  42.797  10.638
20705W        W79999   3.788  24.124   1.783
20706W        W80000  13.688   8.195   0.866
20707W        W80001  22.161  43.371   4.148
20708W        W80002  14.767  18.286   3.830
20709W        W80003   9.770  32.472  14.981
20710W        W80004  37.497  15.215   4.734
20711W        W80005  24.690  40.950   0.898
20712W        W80006  32.429  15.238  11.588
20713W        W80007  21.068  39.378   4.351
20714W        W80008  18.158  29.969   2.248
20715W        W80009  11.684  14.821  12.977
20716W        W80010  33.534  38.509  12.388
20717W        W80011   6.340  31.599   0.771
20718W        W80012   5.439   3.890  14.760
20719W        W80013  37.013  26.962  14.468
20720W        W80014  13.258  25.502  11.010
20721W        W80015  38.003  30.463  11.580
20722W        W80016   4.438  39.505   3.387
20723W        W80017  40.321  20.119  13.043
20724W        W80018  40.047  28.452   1.217
20725W        W80019  25.135  37.932   9.928
20726W        W80020  11.134  33.975   1.264
20727W        W80021   2.930  33.509   2.745
20728W        W80022   4.279  30.107  10.579
20729W        W80023  19.172   1.862  12.028
20730W        W80024  13.231  27.193   2.761
20731W        W80025  10.761  41.516   5.176
20732W        W80026  24.197  12.795  12.856
20733W        W80027  31.919  20.656  13.441
20734W        W80028  31.047  29.470   1.379
20735W        W80029  37.526  32.056   1.882
20736W        W80030   2.338  15.124   2.665
20737W        W80031  32.033   6.718  12.045
20738W        W80032  44.912  41.942   1.264
20739W        W80033  23.704   9.736   1.714
20740W        W80034  10.200  41.797   4.808
20741W        W80035  15.673  17.695  14.971
20742W        W80036  37.502  18.655   1.262
20743W        W80037   4.784  15.735  13.966
20744W        W80038   0.301   8.221   1.870
20745W        W80039  41.885  37.432  14.457
20746W        W80040  42.508  44.471   3.655
20747W        W80041   9.752   1.803  13.382
20748W        W80042   4.398  31.591  11.058
20749W        W80043  28.618  40.419  13.415
20750W        W80044  34.373  32.392  13.399
20751W        W80045  35.994  31.955  14.500
20752W        W80046   1.878  32.506   2.326
20753W        W80047  35.965  38.929   3.734
20754W        W80048  18.163  25.964   3.200
20755W        W80049  36.095  24.138  12.002
20756W        W80050  32.000  33.523   0.956
20757W        W80051  13.160  18.723  11.979
20758W        W80052  10.684  33.540   3.803
20759W        W80053  22.688  23.043  14.317
20760W        W80054  19.053   2.723  13.364
20761W        W80055  40.444  11.864   4.764
20762W        W80056  18.644  32.608   1.259
20763W        W80057   9.259   3.218  14.935
20764W        W80058  40.500  37.557  14.312
20765W        W80059   0.323  12.129   0.818
20766W        W80060   2.273  40.328   1.376
20767W        W80061  44.968  32.142  14.381
20768W        W80062  14.230  20.732   1.354
20769W        W80063  24.641  35.587  14.939
20770W        W80064  17.097  41.516   3.255
20771W        W80065  34.991  19.105   3.760
20772W        W80066  11.632  40.823  10.437
20773W        W80067   8.331   3.890   5.213
20774W        W80068  28.677  20.732  10.943
20775W        W80069   2.429  33.884   3.154
20776W        W80070   7.788  16.631   1.863
20777W        W80071   6.362  16.262  11.548
20778W        W80072  29.620  22.233  10.994
20779W        W80073  25.139  16.199   1.251
20780W        W80074  11.861   4.852   2.352
20781W        W80075  39.497  42.933  12.830
20782W        W80076  27.452  10.264  14.399
20783W        W80077  42.875  11.656  14.374
20784W        W80078   0.834  17.629  14.929
20785W        W80079  41.361   8.250  12.949
20786W        W80080   2.897   6.190   0.284
20787W        W80081   1.357  34.609   3.759
20788W        W80082  25.516   0.908   1.824
20789W        W80083   5.257  16.812  14.986
20790W        W80084  31.002  43.904  14.995
20791W        W80085  44.958  14.282   1.892
20792W        W80086  38.855  23.555   0.348
20793W        W80087  16.694  18.558   0.956
20794W        W80088  44.459  43.407  11.427
20795W        W80089  23.011  40.933   2.212
20796W        W80090  24.012   8.294  10.498
20797W        W80091  16.301  13.125   2.331
20798W        W80092  23.612  16.217   0.358
20799W        W80093  38.965   2.233  13.343
20800W        W80094   9.373  37.902  11.898
20801W        W80095   5.432  15.150   2.408
20802W        W80096  27.528  11.242  13.909
20803W        W80097   4.294  31.999   1.790
20804W        W80098  29.623  21.039  14.465
20805W        W80099  23.994  29.481  12.491
20806W        W80100   5.312  19.715   0.370
20807W        W80101  29.928  31.102   4.818
20808W        W80102  34.438   2.272   2.186
20809W        W80103  32.011   2.912  11.115
20810W        W80104  15.257  23.210   0.383
20811W        W80105  32.921  34.903   1.424
20812W        W80106  10.715  37.039   0.390
20813W        W80107   1.931   5.406   0.275
20814W        W80108  19.226  26.661  10.448
20815W        W80109   4.858  41.912   3.753
20816W        W80110  21.108  21.022  12.831
20817W        W80111  24.591   5.892   9.503
20818W        W80112  12.798  15.813  14.843
20819W        W80113   2.918  12.262   0.937
20820W        W80114  27.968  20.158   1.416
20821W        W80115  43.904   0.879   0.926
20822W        W80116   9.178  29.106  10.012
20823W        W80117  41.887  36.421   2.798
20824W        W80118  30.972  43.504  12.529
20825W        W80119  37.933  39.017  11.069
20826W        W80120  30.984  40.921  14.850
20827W        W80121  11.157  17.260   3.352
20828W        W80122  13.124  44.275  10.476
20829W        W80123  26.556  26.511   0.816
20830W        W80124  44.477  39.877   2.267
20831W        W80125  20.547  14.285  14.377
20832W        W80126   6.390  35.054   4.118
20833W        W80127  21.118  28.680  12.942
20834W        W80128  36.585  15.200  14.339
20835W        W80129  11.679  44.769   3.212
20836W        W80130  20.651  29.977   4.252
20837W        W80131  28.118  21.548   2.773
20838W        W80132   9.707  17.576  13.429
20839W        W80133  38.382  28.121  12.566
20840W        W80134   7.239  27.161   0.439
20841W        W80135   8.774  11.727   0.334
20842W        W80136  44.975   0.844  11.860
20843W        W80137  39.034  18.760  11.091
20844W        W80138  22.012  38.348  13.033
20845W        W80139   4.214  36.427   1.919
20846W        W80140  25.650  39.428   5.269
20847W        W80141   2.418  23.679  14.836
20848W        W80142   7.322  35.030  11.387
20849W        W80143  14.105  10.870  14.475
20850W        W80144  34.120   7.399   2.363
20851W        W80145  26.166  21.532  12.421
20852W        W80146  11.631   3.424   5.227
20853W        W80147   1.842  41.475   4.601
20854W        W80148   2.313  14.246  11.961
20855W        W80149  44.420   5.236  13.339
20856W        W80150  44.312  28.456  11.530
20857W        W80151  21.201  40.841  12.480
20858W        W80152  44.932   1.892   0.458
20859W        W80153  22.186  16.726   2.239
20860W        W80154   3.811  15.327   2.289
20861W        W80155  42.971  20.202   2.271
20862W        W80156   7.266  22.608   3.167
20863W        W80157  28.560  25.992  10.407
20864W        W80158  10.369   9.686   1.425
20865W        W80159  26.061  44.859  10.481
20866W        W80160  39.329  41.461  14.341
20867W        W80161  26.968  40.420  13.061
20868W        W80162  28.178   9.324  13.835
20869W        W80163   3.823   0.453   0.264
20870W        W80164  12.351  38.916   3.383
20871W        W80165  41.447   2.256   1.386
20872W        W80166  37.950  20.041   4.689
20873W        W80167  13.730  10.791   4.201
20874W        W80168  35.927  42.364  14.990
20875W        W80169  26.964  14.771  11.487
20876W        W80170  13.282  38.335   3.189
20877W        W80171   2.406  37.902   1.279
20878W        W80172   3.791   3.941  14.512
20879W        W80173   7.885  29.040  14.942
20880W        W80174  30.134  28.491   3.673
20881W        W80175   9.863  12.648  10.965
20882W        W80176  13.154  17.253  14.843
20883W        W80177  39.424  24.011   1.860
20884W        W80178   5.231  34.492  11.018
20885W        W80179  25.574  32.094   2.857
20886W        W80180   8.784  12.841  10.643
20887W        W80181  35.380  31.943   0.869
20888W        W80182  21.244   9.170  10.992
20889W        W80183  39.818  29.429  11.473
20890W        W80184  28.090   8.756  10.032
20891W        W80185   6.774   8.198   2.204
20892W        W80186  14.226  27.989   3.813
20893W        W80187  39.343  31.983   2.769
20894W        W80188  43.431  31.940  11.477
20895W        W80189  22.629  35.449   4.156
20896W        W80190  13.603  18.277  11.869
20897W        W80191  25.534  22.086  12.413
20898W        W80192  25.143  10.806  12.436
20899W        W80193   9.837  26.966   1.276
20900W        W80194  20.540   8.270   9.614
20901W        W80195   6.197  23.028  13.965
20902W        W80196   2.722  21.181   3.237
20903W        W80197  38.329  29.627  13.825
20904W        W80198  40.427  31.577  12.552
20905W        W80199  14.324  44.816  11.917
20906W        W80200  36.068  29.477   5.214
20907W        W80201  40.882  19.760   3.657
20908W        W80202  15.697  22.096  12.423
20909W        W80203  11.137  38.508   2.819
20910W        W80204  14.178  13.736  10.445
20911W        W80205  30.498  29.498   2.250
20912W        W80206  23.174  25.602   2.719
20913W        W80207  13.272   4.270  14.919
20914W        W80208   3.221  11.246  14.930
20915W        W80209   8.888  18.218   2.228
20916W        W80210  30.565  42.931  13.883
20917W        W80211  37.546  31.125   1.315
20918W        W80212  29.954   0.866  10.463
20919W        W80213   4.265   2.762   1.797
20920W        W80214  26.470   9.683  13.021
20921W        W80215  41.301   7.712   4.789
20922W        W80216   2.778  11.637   3.755
20923W        W80217  42.395  31.491  12.045
20924W        W80218  11.220  40.907   4.124
20925W        W80219  27.024  24.684   2.868
20926W        W80220  10.741  13.248  12.046
20927W        W80221  40.897  42.975   0.480
20928W        W80222  19.711  36.030   3.678
20929W        W80223  32.141  14.212   4.678
20930W        W80224   8.326  24.583  14.860
20931W        W80225   0.485  26.091   1.281
20932W        W80226  20.172  22.717  12.526
20933W        W80227  41.488  15.159   1.768
20934W        W80228  24.109  28.158   1.818
20935W        W80229   8.396  16.077   0.824
20936W        W80230  40.986  26.971  14.956
20937W        W80231  39.503  35.491   0.937
20938W        W80232  15.100   7.313   1.212
20939W        W80233  10.701  44.308   1.414
20940W        W80234  42.827   4.251  13.334
20941W        W80235   3.750   1.907   4.616
20942W        W80236   4.371  41.995  14.305
20943W        W80237  25.153  14.792  13.515
20944W        W80238  28.516  36.510  11.573
20945W        W80239  31.488  43.834  12.409
20946W        W80240  40.862   5.771   0.399
20947W        W80241   8.223  32.012  13.453
20948W        W80242  37.415   1.830   0.252
20949W        W80243  25.628  27.019   3.329
20950W        W80244  25.538  41.013   1.788
20951W        W80245  26.668  17.171  11.452
20952W        W80246  36.455  16.167   3.645
20953W        W80247  33.974  17.166  14.935
20954W        W80248   8.673  33.894  12.492
20955W        W80249  22.685   6.878   1.779
20956W        W80250  12.685  15.196   4.211
20957W        W80251  12.803   9.807  14.819
20958W        W80252  12.715  32.909  13.965
20959W        W80253  35.108  16.168  11.500
20960W        W80254   0.928  40.464   4.817
20961W        W80255   9.250  25.006   4.183
20962W        W80256  28.537  12.282   2.794
20963W        W80257   9.836   5.703   2.332
20964W        W80258  29.630   4.732  11.029
20965W        W80259  17.762  10.251   1.331
20966W        W80260  25.498  19.258  12.903
20967W        W80261  18.196  31.631   1.423
20968W        W80262   8.765  36.409   2.178
20969W        W80263  15.618  42.417   1.242
20970W        W80264  20.646  35.581   4.329
20971W        W80265  12.314  10.690   4.664
20972W        W80266  14.154  25.510  13.464
20973W        W80267  24.072  31.109   4.718
20974W        W80268  29.428  28.109  13.994
20975W        W80269   5.380  41.025  12.949
20976W        W80270  30.583  33.535   4.232
20977W        W80271  23.565  44.907   3.768
20978W        W80272  38.914  44.932  10.639
20979W        W80273  43.773  30.035   1.933
20980W        W80274   4.313  15.179   2.252
20981W        W80275   6.888  44.961   3.180
20982W        W80276   3.238  38.465   2.377
20983W        W80277  30.970  18.746   4.653
20984W        W80278  26.083  28.175  13.816
20985W        W80279  15.286  27.617  10.635
20986W        W80280  20.126  35.082   1.355
20987W        W80281  31.409  38.891   1.219
20988W        W80282  44.753  34.406   0.765
20989W        W80283   3.278  30.459  12.401
20990W        W80284  25.057  28.027  13.471
20991W        W80285  31.585  41.451  14.991
20992W        W80286  16.770  43.405   1.704
20993W        W80287   8.343  28.531   5.718
20994W        W80288  18.238  21.258  12.953
20995W        W80289   3.739  10.692   0.820
20996W        W80290  35.383  28.589   4.269
20997W        W80291  41.037   3.848   0.454
20998W        W80292  15.824  11.725   0.243
20999W        W80293  19.670  23.028  14.397
21000W        W80294  18.687   2.872  14.931
21001W        W80295  30.064  39.898  11.420
21002W        W80296  16.568  43.493  11.038
21003W        W80297   0.838  22.224  14.802
21004W        W80298  28.944  12.147   2.716
21005W        W80299  12.287   6.741   4.655
21006W        W80300   5.281  15.807  14.935
21007W        W80301  28.530   7.297   2.808
21008W        W80302   3.869  38.960  13.937
21009W        W80303  32.980  19.560  13.378
21010W        W80304  37.075  40.544  12.357
21011W        W80305   5.909  41.454  12.431
21012W        W80306  20.576  33.932  11.072
21013W        W80307  39.003  25.579  11.586
21014W        W80308  16.689  33.575  13.962
21015W        W80309  35.923  42.792  11.076
21016W        W80310  15.135  12.817   3.229
21017W        W80311  23.541  37.517   2.270
21018W        W80312  39.057  12.722  12.082
21019W        W80313   0.372   8.319   1.287
21020W        W80314   6.238   4.361  11.889
21021W        W80315   2.771   3.908  13.499
21022W        W80316  43.270  35.449   1.717
21023W        W80317  29.580  20.182   4.292
21024W        W80318  44.470  17.305  14.812
21025W        W80319  26.181   0.342   1.317
21026W        W80320  14.311  34.956  13.960
21027W        W80321  32.581   6.221   2.182
21028W        W80322   7.324  27.151  13.046
21029W        W80323  40.318   9.688  12.577
21030W        W80324  26.099   7.251  13.344
21031W        W80325  22.534  40.440   2.727
21032W        W80326  23.042   6.875  10.548
21033W        W80327  15.176  22.126  13.346
21034W        W80328  22.999   3.220   1.706
21035W        W80329  15.690  30.617   2.664
21036W        W80330   2.450   9.824  11.956
21037W        W80331  44.356   7.319   0.873
21038W        W80332  16.289   7.898  12.555
21039W        W80333  25.007  38.909  13.318
21040W        W80334  31.459  13.822   3.798
21041W        W80335  28.458  44.262   0.902
21042W        W80336  17.154   0.805  11.001
21043W        W80337   1.464  35.023   0.455
21044W        W80338   0.316  19.583  12.407
21045W        W80339  18.237  34.056   1.411
21046W        W80340  20.273  12.768   5.260
21047W        W80341  19.213   5.326  12.827
21048W        W80342  34.863  19.108   4.699
21049W        W80343   6.894   0.394   3.238
21050W        W80344   8.658  29.576   9.620
21051W        W80345  11.302  34.592   4.292
21052W        W80346  15.222  11.752   1.781
21053W        W80347  24.481  11.821  10.533
21054W        W80348  19.572  15.705   2.845
21055W        W80349  43.330  27.677  11.128
21056W        W80350  34.516  20.140  12.037
21057W        W80351   4.373  20.037   1.384
21058W        W80352  41.933   9.666   2.878
21059W        W80353  27.692  16.130   4.634
21060W        W80354   3.795  16.576  14.313
21061W        W80355  27.107  11.840   0.264
21062W        W80356  26.154  34.113  11.548
21063W        W80357  33.576  34.524  12.862
21064W        W80358   1.866  31.059  13.316
21065W        W80359  12.751  26.970   4.775
21066W        W80360  25.143  12.329  14.019
21067W        W80361  39.385  14.707  11.942
21068W        W80362   4.316  25.123  10.422
21069W        W80363  26.553   1.834  13.822
21070W        W80364  42.937  20.233  14.320
21071W        W80365   4.893  24.083  11.897
21072W        W80366  24.177   1.773   4.202
21073W        W80367   6.406  41.372  11.377
21074W        W80368  18.197   2.268  11.436
21075W        W80369  34.880  11.861   1.725
21076W        W80370  36.592   2.849   2.304
21077W        W80371  15.220  16.720  12.522
21078W        W80372   5.308  11.323  13.804
21079W        W80373  44.365  13.199   0.318
21080W        W80374  12.342  12.347  14.347
21081W        W80375  18.703  22.091   3.241
21082W        W80376  17.244   6.297  11.536
21083W        W80377   0.942  42.853  14.490
21084W        W80378  43.358  10.714   3.731
21085W        W80379  22.025  23.537  13.464
21086W        W80380  12.820  19.564   4.259
21087W        W80381  13.158  27.090  13.949
21088W        W80382   3.294  14.204   2.306
21089W        W80383  26.074  41.888   3.194
21090W        W80384  42.330  18.120   2.252
21091W        W80385  40.969  18.260  12.864
21092W        W80386  18.764   9.707   4.716
21093W        W80387   1.853  32.959   4.659
21094W        W80388  24.603  34.477  14.475
21095W        W80389  18.705  18.261  11.447
21096W        W80390  16.187  25.569   2.267
21097W        W80391  39.876   2.852   3.758
21098W        W80392  23.549   4.904  13.050
21099W        W80393  41.475  42.290   0.939
21100W        W80394   4.830  40.046  10.455
21101W        W80395  26.626  16.710  11.027
21102W        W80396  21.522  18.616   1.848
21103W        W80397  12.341   8.858  13.828
21104W        W80398   1.737   1.808  13.984
21105W        W80399  22.036   8.263   0.755
21106W        W80400  43.898   7.725  13.994
21107W        W80401  40.907   0.254  12.888
21108W        W80402  34.530  40.493  11.040
21109W        W80403  11.272  36.874   1.908
21110W        W80404  27.592  26.625  12.349
21111W        W80405  20.120  26.190   4.126
21112W        W80406  23.201   7.355  12.455
21113W        W80407  44.414  24.575   1.432
21114W        W80408  12.206  36.581  11.064
21115W        W80409   1.931  32.970   2.272
21116W        W80410  30.975  11.748  13.871
21117W        W80411  40.021  29.450   3.853
21118W        W80412  40.893  16.779   4.231
21119W        W80413  22.063  42.930  14.946
21120W        W80414  11.705  13.317  11.510
21121W        W80415  16.785   6.288  10.589
21122W        W80416  19.193  27.004  12.975
21123W        W80417  41.360  15.815  12.413
21124W        W80418  17.611  32.095  12.509
21125W        W80419  39.847   5.798  13.534
21126W        W80420   5.933   1.966   1.335
21127W        W80421   8.729   4.350   3.752
21128W        W80422   4.329  12.354   2.266
21129W        W80423   8.301  32.431  12.446
21130W        W80424  17.118  29.154  10.574
21131W        W80425   2.259   3.299   3.361
21132W        W80426  20.257  41.375   4.134
21133W        W80427  39.825   1.460  14.497
21134W        W80428  29.963  39.046   2.715
21135W        W80429  42.932  41.496   2.823
21136W        W80430  11.835  36.525   0.463
21137W        W80431  35.526  40.383  14.014
21138W        W80432  22.510   1.904   1.316
21139W        W80433   1.263  19.039   3.746
21140W        W80434   9.840  37.553  14.900
21141W        W80435  12.794  33.486   1.342
21142W        W80436  23.703  30.445  14.792
21143W        W80437  11.132  40.018  11.126
21144W        W80438   0.774  36.905   1.355
21145W        W80439  10.341  25.997   2.812
21146W        W80440  41.878  21.105   0.428
21147W        W80441  10.247  12.148   0.364
21148W        W80442  39.913  38.919   3.677
21149W        W80443   8.672  30.557   3.316
21150W        W80444  19.119   6.243  12.565
21151W        W80445  10.857  37.019  10.535
21152W        W80446   3.272  25.087   4.610
21153W        W80447  30.507  26.970   3.203
21154W        W80448  35.004  28.566   2.707
21155W        W80449  35.367   7.741  10.620
21156W        W80450   5.360  16.656   1.419
21157W        W80451   8.190  41.488  12.843
21158W        W80452   3.232  23.087   2.895
21159W        W80453  14.310  20.688  11.582
21160W        W80454  42.019  13.802  11.458
21161W        W80455  29.157  40.009  11.940
21162W        W80456  44.780  19.161  11.077
21163W        W80457  42.916   4.275  13.968
21164W        W80458  25.474  26.012   1.754
21165W        W80459  12.619  32.953   1.896
21166W        W80460  14.310  28.110   4.704
21167W        W80461  38.910   3.317  14.785
21168W        W80462  18.598  13.334  10.982
21169W        W80463  33.488  14.680   3.321
21170W        W80464   8.849  24.154  13.997
21171W        W80465   2.933  40.474  14.926
21172W        W80466  17.717  12.229   0.294
21173W        W80467  21.061  15.149   3.218
21174W        W80468  17.104  17.596   1.353
21175W        W80469  35.469   5.724  13.922
21176W        W80470  33.512  13.677   5.160
21177W        W80471  26.554  43.422   0.299
21178W        W80472   1.461   3.908  10.063
21179W        W80473   1.938  35.474  13.980
21180W        W80474   4.895  18.221  10.488
21181W        W80475  19.255  14.199  10.104
21182W        W80476  21.222   0.276  14.344
21183W        W80477  32.988   9.306  10.451
21184W        W80478  36.462  31.511   2.273
21185W        W80479   7.362  15.092  14.505
21186W        W80480   0.939   9.357  12.065
21187W        W80481  25.643  26.582   3.294
21188W        W80482   0.478  41.882   2.313
21189W        W80483  34.080  37.036   1.886
21190W        W80484   1.483  37.976   2.416
21191W        W80485  21.532  25.642   2.311
21192W        W80486  29.446   7.245   2.793
21193W        W80487  19.751  42.423   4.199
21194W        W80488  43.505  40.444  10.046
21195W        W80489  41.310  23.640   2.332
21196W        W80490  34.462  29.618  14.016
21197W        W80491  27.097  30.478  13.396
21198W        W80492  40.807   0.862  13.328
21199W        W80493  11.747  37.012  12.877
21200W        W80494  34.566  17.688  13.949
21201W        W80495  17.105  26.702  14.469
21202W        W80496  40.439  11.248   2.303
21203W        W80497  14.150  42.950   9.971
21204W        W80498  34.961  37.837  14.420
21205W        W80499  24.545  23.168   4.764
21206W        W80500   5.277  28.930  13.526
21207W        W80501   0.912  24.555  11.085
21208W        W80502  31.535   0.757  13.912
21209W        W80503   8.772  10.313  12.454
21210W        W80504  41.530  29.516  11.858
21211W        W80505   8.388  42.289  10.893
21212W        W80506  10.343   5.399   2.341
21213W        W80507  42.328  19.172   2.805
21214W        W80508  14.721  10.737  14.426
21215W        W80509  11.683   0.389   5.290
21216W        W80510   2.809   9.682  10.436
21217W        W80511   5.722  32.573  10.957
21218W        W80512  10.329  21.591   1.286
21219W        W80513  20.237  27.941   1.391
21220W        W80514  25.476  24.980  10.154
21221W        W80515  37.336   4.707   1.749
21222W        W80516  30.073   8.342  12.555
21223W        W80517  10.301   3.728   0.289
21224W        W80518  19.599  10.807   3.724
21225W        W80519  37.353  15.260  13.382
21226W        W80520  38.482  12.226   3.200
21227W        W80521  20.523  16.694   1.893
21228W        W80522  14.644   7.410  12.000
21229W        W80523   2.305  21.674  11.991
21230W        W80524  33.110  14.790  11.943
21231W        W80525  18.209   2.949  11.549
21232W        W80526  10.140  16.810   4.337
21233W        W80527  38.403   5.766  13.545
21234W        W80528   5.311  10.246  10.417
21235W        W80529  22.635  28.660   1.402
21236W        W80530  41.356  24.100   0.917
21237W        W80531  33.494   2.899  14.413
21238W        W80532   3.338  11.687   0.454
21239W        W80533  42.980  38.371   2.695
21240W        W80534  39.378   7.905   2.744
21241W        W80535  28.118  33.493   0.371
21242W        W80536  15.232  27.472  14.323
21243W        W80537  42.824   1.478  13.815
21244W        W80538  23.663  20.135  11.097
21245W        W80539  25.095  28.002   3.150
21246W        W80540  29.480  29.064  13.807
21247W        W80541  29.434  16.177  14.381
21248W        W80542  34.052   9.275  13.343
21249W        W80543  17.673  41.461  12.857
21250W        W80544   9.679   5.196  12.967
21251W        W80545  29.608  19.156   3.671
21252W        W80546  18.787  12.719   0.341
21253W        W80547  30.031  26.640  14.776
21254W        W80548  19.116  17.673   3.343
21255W        W80549  27.535  12.246   1.868
21256W        W80550  23.634  12.730   0.259
21257W        W80551  41.431  27.605   3.670
21258W        W80552   6.341  25.636   5.152
21259W        W80553  44.471  42.913   1.826
21260W        W80554  42.282  28.033  14.826
21261W        W80555   5.433  19.659  12.939
21262W        W80556  38.849  26.148   3.289
21263W        W80557  32.127  26.058   4.728
21264W        W80558  17.065  23.732   0.932
21265W        W80559  12.797  43.322   0.899
21266W        W80560   9.204  28.998   2.204
21267W        W80561  26.055  30.052   4.264
21268W        W80562  29.531   2.293   4.209
21269W        W80563  32.584  22.206  10.440
21270W        W80564   2.257  22.086   0.278
21271W        W80565  31.040  30.535   1.411
21272W        W80566  39.953  35.978  11.125
21273W        W80567  21.217  25.103  12.361
21274W        W80568  22.193   5.290  11.048
21275W        W80569  37.353   4.941  10.642
21276W        W80570   9.263  30.559   4.166
21277W        W80571  30.631  21.583  14.817
21278W        W80572  34.958  39.910  11.033
21279W        W80573  21.114  42.795  11.125
21280W        W80574  25.167  28.501   1.764
21281W        W80575  44.840   6.918   0.441
21282W        W80576   2.259  36.550   1.751
21283W        W80577   4.712  40.921  10.541
21284W        W80578  32.479  21.261  13.437
21285W        W80579   5.852  17.261  10.586
21286W        W80580  30.541   7.713   2.821
21287W        W80581  21.151   4.437  12.930
21288W        W80582  15.230  18.160   3.722
21289W        W80583  24.650  18.677   2.666
21290W        W80584  19.758  35.895  11.419
21291W        W80585   4.839   0.380   4.151
21292W        W80586  17.167  22.692  13.946
21293W        W80587  35.528  24.176  14.921
21294W        W80588  11.703  12.852  14.499
21295W        W80589  22.617  16.290  14.774
21296W        W80590  35.002   0.863  11.386
21297W        W80591  29.428   1.793   3.804
21298W        W80592   1.325  25.576   1.285
21299W        W80593  38.353  42.934   1.216
21300W        W80594   9.839  21.537  11.575
21301W        W80595   3.771  22.026  12.346
21302W        W80596  11.176  17.566   0.311
21303W        W80597  17.080  40.845  11.033
21304W        W80598  24.186  18.775  14.793
21305W        W80599  28.051  37.863   2.351
21306W        W80600  22.167   2.306   3.653
21307W        W80601   9.189  23.092  13.921
21308W        W80602  15.158  26.083  10.445
21309W        W80603  28.661  12.338  14.824
21310W        W80604  39.855  11.317  10.899
21311W        W80605   2.344  36.841   0.873
21312W        W80606   5.264  41.353  14.488
21313W        W80607  25.514  24.130   2.353
21314W        W80608  31.050  16.607   3.373
21315W        W80609  29.065  34.481   4.772
21316W        W80610  33.892  19.120  13.012
21317W        W80611  40.493  33.953  10.072
21318W        W80612  30.030  33.498   3.834
21319W        W80613  12.732  41.353  13.819
21320W        W80614   8.309  10.813   2.409
21321W        W80615  21.604   7.822   2.783
21322W        W80616  21.238  35.573  14.771
21323W        W80617  22.231  19.755  12.349
21324W        W80618  36.452  14.335   0.365
21325W        W80619  39.883  11.839  14.823
21326W        W80620  34.605  28.114  14.826
21327W        W80621  43.366   7.844  12.052
21328W        W80622   3.715  19.164  12.016
21329W        W80623  19.686   5.372  10.892
21330W        W80624  37.360  40.888  14.356
21331W        W80625  25.633  19.268  10.593
21332W        W80626   7.413  14.674  12.890
21333W        W80627  23.636  25.125  14.811
21334W        W80628  12.826  16.709  14.511
21335W        W80629  22.648  28.053   4.640
21336W        W80630   2.294  37.508   0.263
21337W        W80631  15.148   5.796  13.312
21338W        W80632  29.995   8.202  13.501
21339W        W80633  34.971   3.259  10.919
21340W        W80634  31.022   7.889  14.896
21341W        W80635  43.509  34.033  14.965
21342W        W80636  22.665  27.153   0.901
21343W        W80637  32.064  23.229   1.865
21344W        W80638   8.801  13.682   0.383
21345W        W80639   5.422  14.201  14.855
21346W        W80640   4.767  36.931  10.969
21347W        W80641  14.683  31.461  13.373
21348W        W80642  42.883  26.994   1.777
21349W        W80643   6.878  13.781   3.643
21350W        W80644  16.616  28.557  11.950
21351W        W80645   1.459  43.294   4.180
21352W        W80646  11.167  28.512   0.811
21353W        W80647  12.640   2.758   1.356
21354W        W80648  15.312   6.207   0.817
21355W        W80649  33.499  44.366  11.019
21356W        W80650  26.657  26.993   1.724
21357W        W80651   3.882  11.746  12.056
21358W        W80652  34.062  18.735   1.884
21359W        W80653  12.799  16.778  11.914
21360W        W80654  24.221  10.873  10.111
21361W        W80655  31.935  35.093   1.352
21362W        W80656  42.359  15.265  11.046
21363W        W80657  19.108  23.138  11.436
21364W        W80658  23.605  27.692   4.668
21365W        W80659  28.542  29.956   4.668
21366W        W80660  22.539  13.756   1.784
21367W        W80661  25.709  25.647   2.802
21368W        W80662  24.555  34.588  13.528
21369W        W80663  40.526  32.059   2.293
21370W        W80664  31.482   8.225  11.070
21371W        W80665  44.937  14.692   1.786
21372W        W80666  32.468   7.209   0.317
21373W        W80667  35.574  41.400   1.906
21374W        W80668  26.512  44.962  12.997
21375W        W80669  44.309   9.366   4.145
21376W        W80670  16.194  25.187   2.791
21377W        W80671   4.908  36.926   4.214
21378W        W80672  11.666  20.122   0.452
21379W        W80673  20.146   5.706  13.541
21380W        W80674  30.434  16.079  10.979
21381W        W80675  34.067  17.716  14.897
21382W        W80676  31.061  33.441   2.778
21383W        W80677   7.172  14.277  14.889
21384W        W80678   3.768  23.995  14.870
21385W        W80679  16.658  36.436   0.910
21386W        W80680  21.719   0.979   3.854
21387W        W80681   5.874  18.778  13.423
21388W        W80682  15.292  19.211   4.612
21389W        W80683   4.330  11.740   2.781
21390W        W80684  36.871  25.977  12.069
21391W        W80685  26.491  22.700   4.263
21392W        W80686  30.482  18.125   4.260
21393W        W80687   0.340  15.143   3.839
21394W        W80688  37.464  44.265  11.507
21395W        W80689  39.923  40.477   1.336
21396W        W80690  37.895  14.829   2.744
21397W        W80691  13.246  19.263   2.253
21398W        W80692  15.260  11.340   3.779
21399W        W80693   5.740  12.233  14.904
21400W        W80694   9.645   5.851  11.067
21401W        W80695  28.141  37.085   3.638
21402W        W80696  17.734  32.986   0.914
21403W        W80697   8.404  18.171   1.293
21404W        W80698  33.055   3.215   1.793
21405W        W80699   8.860  25.675   1.228
21406W        W80700  17.159  30.479   1.307
21407W        W80701  15.327  19.611   9.566
21408W        W80702  37.918  14.107   3.270
21409W        W80703  24.977  44.974   4.277
21410W        W80704   1.820  31.151   2.297
21411W        W80705  44.007  36.975   0.385
21412W        W80706  44.859  38.951   4.657
21413W        W80707  23.666  16.799   1.231
21414W        W80708  10.340  35.032   2.796
21415W        W80709  23.050   0.861  14.503
21416W        W80710  37.858  13.808   3.167
21417W        W80711  33.956  27.492   3.385
21418W        W80712  17.270   4.833   1.439
21419W        W80713  44.007  11.797   2.265
21420W        W80714  39.447  31.452   2.847
21421W        W80715  26.121  25.145  13.367
21422W        W80716  43.422  44.408   1.394
21423W        W80717  29.543   5.433  14.810
21424W        W80718  40.888  28.141  13.049
21425W        W80719   0.922  23.172  13.439
21426W        W80720  18.686   3.872  13.940
21427W        W80721  20.572  25.173  13.851
21428W        W80722  31.947  34.582   3.830
21429W        W80723  14.674  26.457  13.307
21430W        W80724   1.368  20.039   3.715
21431W        W80725   4.326  21.105   3.164
21432W        W80726  30.943   2.798  13.319
21433W        W80727  15.723  14.299  12.849
21434W        W80728   0.283  29.428  13.323
21435W        W80729  24.508   6.324   4.124
21436W        W80730  26.640  33.993  14.807
21437W        W80731  33.484  11.848   2.231
21438W        W80732  34.120  44.371  10.899
21439W        W80733   6.814  26.146   2.195
21440W        W80734  28.563  23.665  11.444
21441W        W80735  37.559  14.328  14.313
21442W        W80736  11.811  36.939  13.372
21443W        W80737  13.626  11.679  11.483
21444W        W80738  30.051  23.010   2.735
21445W        W80739  39.477  10.835  10.930
21446W        W80740   7.193  40.370  13.060
21447W        W80741   6.825  24.572   2.742
21448W        W80742  34.013  33.386  12.486
21449W        W80743  12.667   6.192  11.894
21450W        W80744  15.257  22.094   3.337
21451W        W80745  23.653  19.077  10.513
21452W        W80746  42.878  17.615  10.890
21453W        W80747  21.555  10.311   4.696
21454W        W80748  35.987  19.219   1.418
21455W        W80749  38.956  29.950   1.323
21456W        W80750  13.189  27.156   3.862
21457W        W80751  33.526  42.496   2.353
21458W        W80752  12.855  30.161   2.190
21459W        W80753  11.724  22.500  14.899
21460W        W80754  14.773  15.767   1.268
21461W        W80755  15.617  29.159   3.723
21462W        W80756  27.579  43.936  13.333
21463W        W80757   5.273  35.059   3.645
21464W        W80758  35.937  29.979  11.967
21465W        W80759  37.392  43.020  11.966
21466W        W80760  10.239  13.687  14.885
21467W        W80761  17.123  21.165  13.871
21468W        W80762   8.702  32.956   4.816
21469W        W80763   6.352  23.138  12.428
21470W        W80764  41.952  32.921   3.784
21471W        W80765  25.213  38.512  10.034
21472W        W80766  28.097  13.766   2.677
21473W        W80767  43.921  41.297   0.453
21474W        W80768  35.375  38.537   2.717
21475W        W80769  26.062   2.888  12.866
21476W        W80770   9.812   3.947  13.311
21477W        W80771  38.002   6.379   0.338
21478W        W80772   4.813   4.420   1.855
21479W        W80773  21.595  19.616  12.026
21480W        W80774  24.116  25.633   0.247
21481W        W80775  19.152  14.594   9.978
21482W        W80776  37.026  26.204   4.207
21483W        W80777  22.604   9.812  13.307
21484W        W80778  37.004  40.010  13.024
21485W        W80779  29.088  33.428   0.375
21486W        W80780  37.494  33.418  11.377
21487W        W80781   8.797  16.133  13.468
21488W        W80782  33.537  13.307   0.432
21489W        W80783  40.901  15.306   2.329
21490W        W80784  44.907  19.133  14.294
21491W        W80785   8.758  36.590   4.208
21492W        W80786  11.819  32.002   4.276
21493W        W80787  41.001  20.154   3.275
21494W        W80788  29.596   9.718   4.773
21495W        W80789  16.098  36.844   0.313
21496W        W80790  23.661  32.071   4.700
21497W        W80791  18.685  29.008  13.494
21498W        W80792  37.867  19.133   0.784
21499W        W80793  20.540   9.297  14.934
21500W        W80794  29.486  11.312  12.383
21501W        W80795   1.463  32.459   3.299
21502W        W80796  28.508  40.432   4.674
21503W        W80797  19.251   1.913   0.287
21504W        W80798  21.217   2.338  13.003
21505W        W80799  11.796  26.641  12.475
21506W        W80800   5.833  36.849   2.346
21507W        W80801  39.550   3.816  14.777
21508W        W80802  33.523  18.777  14.445
21509W        W80803  13.307   3.257  13.345
21510W        W80804  23.719  26.959   1.919
21511W        W80805  28.484   4.891  10.610
21512W        W80806  21.037  18.714  14.898
21513W        W80807  34.434  26.609   0.955
21514W        W80808  43.976  15.148  12.411
21515W        W80809  27.681  24.648   1.442
21516W        W80810  30.481  36.934   3.359
21517W        W80811   3.807  25.142  12.021
21518W        W80812  30.125   6.867   3.324
21519W        W80813  29.171  36.869  14.294
21520W        W80814  10.833  29.090  12.985
21521W        W80815  29.995  22.996   4.605
21522W        W80816  41.340  22.192   3.803
21523W        W80817  41.998  24.031   2.247
21524W        W80818  17.125  23.668   4.647
21525W        W80819  43.848  27.075  10.439
21526W        W80820  28.976  44.785   2.385
21527W        W80821   1.391   0.841   9.627
21528W        W80822  35.598   5.774  11.530
21529W        W80823  42.911  34.899  11.858
21530W        W80824   5.231   4.864  10.936
21531W        W80825  32.087  32.424   0.374
21532W        W80826   7.758  13.601   2.251
21533W        W80827   3.932   3.929   1.296
21534W        W80828   6.376  20.571   2.320
21535W        W80829  15.580  34.475   3.188
21536W        W80830  37.843  35.926  10.160
21537W        W80831  27.026  34.542   2.881
21538W        W80832  21.080  21.738  10.555
21539W        W80833  17.579  15.166   3.306
21540W        W80834  25.604   3.401  12.964
21541W        W80835  29.548  10.664   4.201
21542W        W80836  17.578  37.912  11.971
21543W        W80837  27.028  19.128  10.636
21544W        W80838  41.418   3.892   4.311
21545W        W80839  32.889  31.439  10.956
21546W        W80840  32.558  15.673  12.512
21547W        W80841  15.654  23.039  13.003
21548W        W80842  26.504  20.060  11.397
21549W        W80843  29.607  40.419   5.690
21550W        W80844  42.432  15.211   1.409
21551W        W80845  32.509  41.019  12.406
21552W        W80846   3.395  38.952  11.931
21553W        W80847  14.199  12.625  12.829
21554W        W80848  30.134   7.893  12.965
21555W        W80849  37.508   9.699   1.270
21556W        W80850  36.582  25.539   4.667
21557W        W80851  37.916  17.697  14.304
21558W        W80852  33.480  37.477   3.287
21559W        W80853  36.531  12.822   2.899
21560W        W80854   6.210  13.776  14.778
21561W        W80855  19.116   3.829   4.320
21562W        W80856   0.488  42.447   2.728
21563W        W80857  26.533  24.708  14.825
21564W        W80858  24.998   1.741   1.247
21565W        W80859  30.980  23.184   1.917
21566W        W80860  39.416  42.998   3.750
21567W        W80861  20.559  17.720   2.302
21568W        W80862   0.817  27.991   0.841
21569W        W80863  33.595  29.931  13.368
21570W        W80864  11.178   7.393  11.507
21571W        W80865  20.232   7.805  11.884
21572W        W80866  11.626  24.498  12.855
21573W        W80867  41.430  25.498  13.450
21574W        W80868  42.953  22.734   0.398
21575W        W80869   4.917  21.092   3.695
21576W        W80870  26.108  31.453   1.752
21577W        W80871  31.403   4.819  13.416
21578W        W80872   9.321  13.344  13.050
21579W        W80873  37.921  43.354  11.037
21580W        W80874   1.874  14.784  11.857
21581W        W80875  16.760  43.812   1.443
21582W        W80876  12.837  19.045  14.990
21583W        W80877  17.101  10.343   3.174
21584W        W80878  13.195   8.382   2.738
21585W        W80879  38.938  38.399   5.282
21586W        W80880  39.351  19.224   4.730
21587W        W80881  14.184  43.469   4.821
21588W        W80882  17.611  23.216  12.837
21589W        W80883  39.964  35.484   1.923
21590W        W80884  11.658  37.902   2.395
21591W        W80885   8.351  36.580   1.325
21592W        W80886  30.921  41.909  14.871
21593W        W80887  40.530   1.886  13.351
21594W        W80888  31.937  35.582  12.975
21595W        W80889   0.853  28.996   3.852
21596W        W80890  23.159   0.449   1.240
21597W        W80891  20.699   3.442  12.846
21598W        W80892  15.646  39.377  13.905
21599W        W80893   0.809   8.401  14.982
21600W        W80894  44.892   5.876  12.979
21601W        W80895  20.541  37.005   2.399
21602W        W80896  37.912  27.182   1.444
21603W        W80897  44.794  31.533   3.811
21604W        W80898  23.682   1.304  11.986
21605W        W80899  33.543  13.130   3.702
21606W        W80900  33.912  40.354  12.849
21607W        W80901  27.180  32.488   0.459
21608W        W80902  17.142  28.988  12.401
21609W        W80903  23.716   8.277   2.405
21610W        W80904  20.550  13.318  13.909
21611W        W80905  14.112  32.500  12.933
21612W        W80906   3.415  15.258   4.146
21613W        W80907   6.313  18.720  13.841
21614W        W80908  38.432  14.176   4.342
21615W        W80909  21.261   8.777  14.469
21616W        W80910  27.184   1.972   0.862
21617W        W80911  22.203  37.531   5.124
21618W        W80912  35.505   9.322  12.397
21619W        W80913  15.272  16.695   2.204
21620W        W80914   5.380  40.501   0.737
21621W        W80915  28.181  27.507   2.391
21622W        W80916  44.405  23.620   4.703
21623W        W80917  44.271   7.851  12.489
21624W        W80918  36.938   5.439  14.410
21625W        W80919  26.508  17.141   0.464
21626W        W80920  32.930  32.889   2.869
21627W        W80921  38.525  40.337  12.894
21628W        W80922  22.672  41.896  10.931
21629W        W80923  23.077  13.742   3.867
21630W        W80924   6.287   2.230   1.313
21631W        W80925  32.565  22.703  13.061
21632W        W80926  38.929  44.948  12.928
21633W        W80927  43.358  19.694  12.430
21634W        W80928  10.663  26.490  11.568
21635W        W80929  34.117   4.913   0.325
21636W        W80930  40.451  35.895  13.413
21637W        W80931  15.105  26.662   1.347
21638W        W80932  40.345  39.544  14.301
21639W        W80933  26.512  18.216  13.451
21640W        W80934  16.201  11.190   3.223
21641W        W80935  13.242  34.461  13.005
21642W        W80936  12.781  31.496   4.303
21643W        W80937  24.663  13.152   3.179
21644W        W80938  10.200  29.065   0.324
21645W        W80939  12.299  22.056   3.780
21646W        W80940  35.486   5.777  14.316
21647W        W80941  17.699  33.878  12.356
21648W        W80942  19.561  11.278   1.919
21649W        W80943  12.353  16.165  10.937
21650W        W80944   2.824  26.205  13.984
21651W        W80945   7.302  37.991   4.697
21652W        W80946  17.193  16.782   4.137
21653W        W80947  42.930  33.395   2.708
21654W        W80948  32.023   4.865  11.030
21655W        W80949   4.206  25.167   2.228
21656W        W80950  40.346  10.154   1.818
21657W        W80951   7.240   7.800   0.952
21658W        W80952   4.698   4.348  13.473
21659W        W80953  17.580   0.903  13.489
21660W        W80954   2.758  24.638   4.687
21661W        W80955   7.408  30.964  14.005
21662W        W80956   3.797  38.401   1.861
21663W        W80957  18.657  39.361  14.278
21664W        W80958  36.583  28.946  11.956
21665W        W80959  13.779  44.871   3.840
21666W        W80960  44.925  18.790  11.103
21667W        W80961  32.979  36.087  10.948
21668W        W80962  33.065  43.790  11.409
21669W        W80963   7.906  31.073  13.449
21670W        W80964  31.917  27.146  10.426
21671W        W80965  22.251  37.964  11.035
21672W        W80966  44.817   8.737  12.973
21673W        W80967   4.342  38.452  10.943
21674W        W80968  31.928  30.094  10.551
21675W        W80969  33.461  32.595   5.179
21676W        W80970  34.952  28.947  10.073
21677W        W80971   2.901  36.522  10.455
21678W        W80972  11.814   4.725   4.623
21679W        W80973  38.921  19.610   3.288
21680W        W80974  15.259   1.441   2.725
21681W        W80975  22.634  36.415  13.982
21682W        W80976   5.416  19.619  12.395
21683W        W80977   0.472  31.970  12.061
21684W        W80978  44.410  37.083  12.053
21685W        W80979  22.662  38.038   1.247
21686W        W80980  37.859  34.372  14.928
21687W        W80981  24.548   2.723   4.293
21688W        W80982  40.021  10.273  10.475
21689W        W80983   7.824  11.200  12.950
21690W        W80984   3.784  40.955  11.097
21691W        W80985   2.878   2.319  12.499
21692W        W80986  13.664  31.094  11.002
21693W        W80987  41.836  41.505   3.766
21694W        W80988  21.222   7.860   3.807
21695W        W80989  35.372  25.994   2.782
21696W        W80990  25.615   4.934  14.775
21697W        W80991  24.483   1.429   2.713
21698W        W80992   8.759   9.256  13.889
21699W        W80993  22.659   0.347   0.759
21700W        W80994  17.626  13.130  10.058
21701W        W80995  41.024  36.571  11.900
21702W        W80996  37.541  40.432   5.096
21703W        W80997  39.451   4.430   2.179
21704W        W80998  11.829   4.327  11.598
21705W        W80999  38.384  22.574   1.694
21706W        W81000  28.018  26.088   3.632
21707W        W81001  28.582  30.510  13.994
21708W        W81002  37.343  16.779   2.188
21709W        W81003  13.843   9.821   2.694
21710W        W81004   6.231   0.401   0.451
21711W        W81005  18.689  32.613   0.790
21712W        W81006  34.393   2.865  10.563
21713W        W81007  25.142  35.060   0.945
21714W        W81008   6.262  24.019   1.372
21715W        W81009   7.874   5.838  10.466
21716W        W81010   0.292  20.048   2.402
21717W        W81011   1.820  40.338  11.101
21718W        W81012  28.442   3.780   0.375
21719W        W81013  11.160   2.743   1.419
21720W        W81014   1.236  11.328  12.923
21721W        W81015   9.384  39.343  12.416
21722W        W81016  25.502   1.264  13.971
21723W        W81017  41.409  40.800   1.814
21724W        W81018   7.886  21.691   0.351
21725W        W81019  21.598   5.364   0.781
21726W        W81020  12.124  21.043   1.390
21727W        W81021  38.070  39.452  11.546
21728W        W81022  28.937  28.000   1.748
21729W        W81023  24.999  42.403   3.192
21730W        W81024  37.893  18.172   2.270
21731W        W81025  15.780  43.512   3.785
21732W        W81026  41.987  20.136   3.190
21733W        W81027  36.040   1.291  13.010
21734W        W81028  30.480  12.708   4.719
21735W        W81029  44.881  40.898  12.445
21736W        W81030  23.665  12.190  13.313
21737W        W81031  14.765  31.498   3.848
21738W        W81032  33.121  27.071   1.752
21739W        W81033  15.805  27.574  14.821
21740W        W81034   0.297  16.240  14.429
21741W        W81035  36.523  28.131  11.481
21742W        W81036  11.742  22.234   3.277
21743W        W81037  36.491  38.982   0.834
21744W        W81038  42.349  23.039   1.886
21745W        W81039  25.171  19.076  10.605
21746W        W81040   0.746  29.989  14.414
21747W        W81041  26.627  38.986  10.008
21748W        W81042  30.634  40.508   9.994
21749W        W81043  19.259  41.323   3.323
21750W        W81044  30.648  36.873  11.109
21751W        W81045  40.050  19.200  10.549
21752W        W81046   9.846  18.282   0.394
21753W        W81047  31.049   8.183  14.002
21754W        W81048  17.768  14.291  12.411
21755W        W81049  42.016  34.435   5.310
21756W        W81050  10.864  28.616  13.981
21757W        W81051  27.147  37.356  12.962
21758W        W81052  44.787  29.971  10.447
21759W        W81053  30.592  11.818  11.076
21760W        W81054  42.392  39.336  11.552
21761W        W81055   2.254  40.976  12.449
21762W        W81056  11.166  44.946  10.533
21763W        W81057  16.797  27.500   3.789
21764W        W81058   1.369  18.149   1.317
21765W        W81059  27.690   9.875  13.454
21766W        W81060   3.939  29.532  14.792
21767W        W81061  27.074  16.308  11.086
21768W        W81062  22.686  24.082   4.609
21769W        W81063  27.522   1.887   1.224
21770W        W81064  14.159   0.369  14.992
21771W        W81065   0.429  34.397  12.364
21772W        W81066  41.357   1.924  14.962
21773W        W81067   5.810  24.622  12.433
21774W        W81068  41.504   2.766  11.013
21775W        W81069  23.724  30.421  14.334
21776W        W81070   2.956  28.962   2.217
21777W        W81071   9.703   0.829  14.019
21778W        W81072   4.336  44.347   3.865
21779W        W81073   4.218   3.758   2.891
21780W        W81074  23.688  29.458   2.826
21781W        W81075   6.728  31.901  14.394
21782W        W81076  13.773  44.917  14.925
21783W        W81077  20.240   6.273  10.514
21784W        W81078   6.795  30.113   0.363
21785W        W81079  41.940   6.703  11.027
21786W        W81080   3.440  38.823   4.693
21787W        W81081  37.980  16.574  13.446
21788W        W81082  11.632  39.415   2.895
21789W        W81083  28.995   1.354   1.757
21790W        W81084   3.721  39.851  13.516
21791W        W81085  27.506  42.011   2.687
21792W        W81086  17.716  42.391   4.607
21793W        W81087  16.303  23.732   2.698
21794W        W81088  21.603  18.255  13.811
21795W        W81089   7.785  33.613   1.829
21796W        W81090   3.799   3.236  12.561
21797W        W81091  30.447   3.920   1.744
21798W        W81092  28.552  25.583   1.268
21799W        W81093  42.031  15.699  13.038
21800W        W81094  39.336  16.578   3.735
21801W        W81095  18.632  18.281   1.705
21802W        W81096  43.468  16.278  11.028
21803W        W81097  42.958   5.931   1.338
21804W        W81098  25.666  14.138   0.482
21805W        W81099  43.808  42.904   3.647
21806W        W81100  12.168  34.032   2.366
21807W        W81101  38.912  40.969  11.099
21808W        W81102  44.976   3.940  12.394
21809W        W81103   8.182  19.744   1.302
21810W        W81104   1.783  20.224  13.364
21811W        W81105  32.434  30.617   1.345
21812W        W81106  33.429  28.154  10.007
21813W        W81107  10.753  22.693   0.846
21814W        W81108  26.475  40.910   0.284
21815W        W81109  20.728  44.417  14.911
21816W        W81110   6.730  36.859   4.770
21817W        W81111  22.611   4.735   0.285
21818W        W81112  17.083  30.109  12.579
21819W        W81113  35.967  22.019   2.793
21820W        W81114  15.228  32.975   1.284
21821W        W81115  13.743  38.069  13.483
21822W        W81116  27.040  28.565  14.410
21823W        W81117  17.601  29.602   4.209
21824W        W81118  10.690  19.587  14.332
21825W        W81119  27.513   6.843   4.200
21826W        W81120  25.502   7.397   0.737
21827W        W81121  16.632  38.413   0.887
21828W        W81122  31.606  18.176  14.027
21829W        W81123  22.635  44.962   1.374
21830W        W81124  27.973  14.630  13.309
21831W        W81125  16.153  19.205   5.716
21832W        W81126   6.708  33.110  14.413
21833W        W81127  34.042  40.857  13.805
21834W        W81128  31.477  18.184   2.302
21835W        W81129   0.943  36.092  14.374
21836W        W81130  42.325  41.039  12.832
21837W        W81131  20.125  11.649   4.702
21838W        W81132  44.891  21.167  11.451
21839W        W81133  31.044  36.576  11.073
21840W        W81134   1.898  30.034  10.922
21841W        W81135   0.921  15.734   9.962
21842W        W81136  10.144  41.313   1.257
21843W        W81137  12.268  42.029   4.630
21844W        W81138   5.728  38.354   0.448
21845W        W81139  31.093   1.302  13.478
21846W        W81140   9.173   5.716  11.374
21847W        W81141  31.495  11.659  10.955
21848W        W81142  11.677  40.833   1.811
21849W        W81143   4.726  23.081  11.122
21850W        W81144  39.969  26.516   9.967
21851W        W81145  16.687  35.980   3.168
21852W        W81146  21.625  24.686  14.031
21853W        W81147  31.556  13.845  13.038
21854W        W81148  23.204  11.865  12.826
21855W        W81149  28.007  35.908   4.171
21856W        W81150  41.930  36.479  11.522
21857W        W81151   8.235   5.253   2.235
21858W        W81152  30.967   8.302   2.685
21859W        W81153   3.940   7.695  14.822
21860W        W81154  13.173  22.708   5.188
21861W        W81155   0.289  41.480   1.886
21862W        W81156  32.048  35.101  12.400
21863W        W81157   7.673  13.344  10.996
21864W        W81158  10.381  16.691   1.931
21865W        W81159  13.688  39.938  11.940
21866W        W81160  10.874  12.159   1.882
21867W        W81161  41.389  35.420   0.729
21868W        W81162  43.784   1.794  12.884
21869W        W81163  17.097  37.955  13.409
21870W        W81164  29.986   5.856  11.092
21871W        W81165  38.940  15.092  12.467
21872W        W81166   0.749  38.438   1.732
21873W        W81167  11.181  12.728   1.280
21874W        W81168   2.829   0.304  11.390
21875W        W81169  10.870  12.192   0.429
21876W        W81170   4.828  35.030  14.910
21877W        W81171  37.438  41.855   1.761
21878W        W81172   5.351  34.013   1.847
21879W        W81173  39.369  44.822   3.801
21880W        W81174  19.776  11.852  10.445
21881W        W81175  42.907  35.890  12.386
21882W        W81176   7.269  43.285   2.671
21883W        W81177  31.979  24.613   2.817
21884W        W81178  31.600  31.937   3.707
21885W        W81179  40.853   0.327  13.316
21886W        W81180  12.128   8.223  12.985
21887W        W81181  11.730  39.062   1.754
21888W        W81182   8.678   8.895  11.862
21889W        W81183  36.051  22.642  13.050
21890W        W81184  35.448   7.682   0.354
21891W        W81185  10.662  17.152   1.931
21892W        W81186  34.080  42.424   3.377
21893W        W81187  39.005  37.577   1.360
21894W        W81188   5.363  34.547  13.935
21895W        W81189  25.147  22.564  14.786
21896W        W81190  40.539  15.654   3.751
21897W        W81191  17.778  22.532   4.176
21898W        W81192   5.917  42.897  12.532
21899W        W81193  25.626  17.279  10.008
21900W        W81194  13.137  36.513   3.732
21901W        W81195  10.659  25.141   3.701
21902W        W81196  33.957   6.721  11.000
21903W        W81197  27.593   6.713  10.594
21904W        W81198  39.345   1.422   3.639
21905W        W81199  41.024  21.144  11.029
21906W        W81200   4.910   2.853   2.816
21907W        W81201  39.049  33.530   0.918
21908W        W81202  25.177  39.510  13.431
21909W        W81203  37.337   1.451   3.745
21910W        W81204  40.968  37.010   3.342
21911W        W81205  14.131  14.749   3.330
21912W        W81206   1.316  15.288  12.002
21913W        W81207  27.947   2.384  10.568
21914W        W81208  15.268  13.293  13.887
21915W        W81209  33.590  34.944  13.017
21916W        W81210  25.988  17.783  14.499
21917W        W81211   5.832  28.462   2.811
21918W        W81212  42.962  34.890   3.785
21919W        W81213  34.017  22.164  11.579
21920W        W81214  16.705   4.249   1.324
21921W        W81215  25.510  13.311  14.294
21922W        W81216  37.479  39.059  12.872
21923W        W81217   9.844  32.416   5.240
21924W        W81218  25.051  40.500   1.396
21925W        W81219  38.879  32.067  12.998
21926W        W81220  39.911  24.040   2.811
21927W        W81221  11.215  26.050   4.816
21928W        W81222  39.034  16.594  13.321
21929W        W81223  43.789  24.678   3.213
21930W        W81224  43.976   6.777  13.462
21931W        W81225  38.959  39.548  10.548
21932W        W81226  43.325  18.568   2.345
21933W        W81227  14.744  16.314   1.763
21934W        W81228  20.189  35.070  12.381
21935W        W81229  36.092  15.634   1.856
21936W        W81230   8.273  15.309  12.045
21937W        W81231  13.640  10.635   1.390
21938W        W81232  13.618  30.539  13.952
21939W        W81233  17.629  43.920  14.927
21940W        W81234   8.342  35.871  13.530
21941W        W81235  29.479  37.960  10.544
21942W        W81236  29.149  38.516  11.604
21943W        W81237   6.784  13.109  14.348
21944W        W81238  42.504  25.170   0.952
21945W        W81239  18.114   9.844   2.778
21946W        W81240  10.711  13.725   1.305
21947W        W81241  44.967  17.291   4.230
21948W        W81242  12.685   1.296  11.870
21949W        W81243  28.631   0.743  13.403
21950W        W81244  27.127   8.348  12.476
21951W        W81245  15.274   3.420  12.891
21952W        W81246  21.182   9.788  11.913
21953W        W81247  40.427  14.267  11.013
21954W        W81248  44.433  22.581  12.859
21955W        W81249  19.576  44.483  12.348
21956W        W81250  32.431  42.888  14.983
21957W        W81251   5.888  25.710  14.332
21958W        W81252  27.971  15.163  10.500
21959W        W81253  14.148  38.360  11.490
21960W        W81254  30.592  17.719  11.450
21961W        W81255  22.674  44.434   1.766
21962W        W81256   0.851  33.109   4.793
21963W        W81257  36.097  44.470   4.172
21964W        W81258  26.109   1.751  13.879
21965W        W81259   9.184  20.606   3.796
21966W        W81260  44.757  22.738  11.034
21967W        W81261  21.745  30.999  12.900
21968W        W81262  24.479  24.500  11.041
21969W        W81263   6.816  36.471  14.356
21970W        W81264  32.420  38.996   1.743
21971W        W81265  11.163  10.863   4.265
21972W        W81266  21.149   3.217   3.678
21973W        W81267  20.034  20.225   0.848
21974W        W81268  26.517  38.378   3.841
21975W        W81269  40.845  12.791   0.425
21976W        W81270   7.666  41.952  14.282
21977W        W81271   5.876  39.025  12.947
21978W        W81272  11.291  40.310  12.028
21979W        W81273  17.116  39.929   1.321
21980W        W81274  33.388  28.990   1.275
21981W        W81275  10.708  14.689   2.340
21982W        W81276   2.258  32.518   3.691
21983W        W81277  36.483   2.261  13.427
21984W        W81278  32.499  15.121   1.919
21985W        W81279  21.085  16.276   2.214
21986W        W81280  32.121  34.865   2.709
21987W        W81281  15.213  19.585   3.646
21988W        W81282  42.361   5.259   0.891
21989W        W81283  20.620   8.389   4.654
21990W        W81284  34.482   3.851  14.911
21991W        W81285  40.871   1.425  10.617
21992W        W81286  33.007  32.479  12.433
21993W        W81287   9.379   7.721   1.882
21994W        W81288   5.795   3.833  14.025
21995W        W81289  36.397  22.668  13.854
21996W        W81290  23.587  27.507  13.440
21997W        W81291  14.153  28.106  14.303
21998W        W81292  14.600  17.589   0.825
21999W        W81293  16.609  27.999  10.974
22000W        W81294   0.252   5.804   0.816
22001W        W81295   8.756  13.115  13.475
22002W        W81296  16.567  44.351   2.809
22003W        W81297  19.229   6.252   0.869
22004W        W81298  12.722   0.867   3.757
22005W        W81299  29.502  37.450  14.767
22006W        W81300   2.304  18.779   2.848
22007W        W81301  19.241  18.095  10.047
22008W        W81302  22.161  27.465   1.434
22009W        W81303  36.019   3.346   1.290
22010W        W81304  22.253  36.928  11.105
22011W        W81305  18.250  21.682   1.918
22012W        W81306  40.404  44.822   3.719
22013W        W81307  24.025  26.142  10.623
22014W        W81308  34.923  37.366  12.988
22015W        W81309  42.953  36.479  14.487
22016W        W81310  17.696  26.491  12.877
22017W        W81311  20.070  18.552  13.956
22018W        W81312  14.147  35.371  13.865
22019W        W81313  15.251  41.478  13.006
22020W        W81314  32.894   7.405  14.397
22021W        W81315  26.150   8.661   0.757
22022W        W81316  13.337  11.271  13.930
22023W        W81317  38.551  26.619  13.004
22024W        W81318  10.731   5.360   1.849
22025W        W81319  26.967  38.007  13.316
22026W        W81320  22.092  28.101   4.701
22027W        W81321   0.305  33.105   0.878
22028W        W81322   4.723  21.180  12.960
22029W        W81323  29.086  16.801   2.835
22030W        W81324  42.483  15.767  14.400
22031W        W81325  21.653  19.718  14.465
22032W        W81326   4.817  39.033   3.773
22033W        W81327  41.361  31.924   3.639
22034W        W81328  21.073  10.847  11.439
22035W        W81329  35.989  31.525   3.809
22036W        W81330   1.889  26.579   4.344
22037W        W81331   6.292  33.993  14.365
22038W        W81332   1.282  16.128   0.390
22039W        W81333   2.279   8.696   4.754
22040W        W81334  24.989  19.777   0.964
22041W        W81335  15.138  23.015   4.255
22042W        W81336  36.919   6.223   2.359
22043W        W81337  31.949  17.271   4.638
22044W        W81338  43.315  15.235  13.411
22045W        W81339  22.557  33.994   4.214
22046W        W81340  14.138  30.912   3.366
22047W        W81341   7.841  13.193  14.334
22048W        W81342  29.489  28.954  10.639
22049W        W81343  27.473  43.295   2.263
22050W        W81344  25.533  14.678   3.163
22051W        W81345  26.644  30.130   3.802
22052W        W81346  17.126  25.613   1.250
22053W        W81347  15.783  22.503   1.301
22054W        W81348  44.313   2.776   1.861
22055W        W81349  23.044  11.859   2.711
22056W        W81350  16.647   9.323   4.145
22057W        W81351  39.951  16.227  11.879
22058W        W81352  12.651   0.327  10.565
22059W        W81353  17.658  22.035   0.416
22060W        W81354  17.645  31.044   0.255
22061W        W81355  32.556   5.332  14.935
22062W        W81356  39.022  26.542   3.358
22063W        W81357  44.259  15.274  14.368
22064W        W81358  26.202  34.963   4.182
22065W        W81359  44.310  41.449  12.465
22066W        W81360   1.418  23.512   1.273
22067W        W81361  31.566  24.195   3.261
22068W        W81362  18.615  28.457   4.225
22069W        W81363  32.477  23.493   3.241
22070W        W81364  19.154  37.860   4.650
22071W        W81365  23.635  26.150  13.834
22072W        W81366   5.390  11.837  11.914
22073W        W81367  22.137   8.378  14.967
22074W        W81368   6.196   6.242  13.350
22075W        W81369   1.387   5.361   4.708
22076W        W81370  20.622   7.677  11.472
22077W        W81371  26.462  41.358   4.312
22078W        W81372  19.273   8.224  13.936
22079W        W81373  37.577  17.066  11.577
22080W        W81374  23.492   4.339   4.831
22081W        W81375   1.355  12.705   3.771
22082W        W81376  20.223  34.455   2.803
22083W        W81377  17.700  23.153   3.348
22084W        W81378  31.078  43.272  14.457
22085W        W81379  15.268  28.489   4.279
22086W        W81380  40.813  31.115  10.956
22087W        W81381  36.507  41.478   2.358
22088W        W81382   6.208  27.640   3.268
22089W        W81383  18.052  27.666   2.765
22090W        W81384  23.504  15.780   4.710
22091W        W81385  42.512  28.461   1.262
22092W        W81386   5.428  12.838  13.955
22093W        W81387  39.995  18.718   1.842
22094W        W81388  17.732  42.338  13.494
22095W        W81389  33.617  20.574  14.962
22096W        W81390   0.378   0.840  12.878
22097W        W81391  19.275  10.682  10.536
22098W        W81392  38.378   6.191   1.818
22099W        W81393   1.335  15.600   1.836
22100W        W81394   7.273  25.557   5.155
22101W        W81395  40.549  42.776  10.533
22102W        W81396  16.130  28.635  13.875
22103W        W81397   5.236  37.832   0.925
22104W        W81398  12.777  35.541   0.818
22105W        W81399   5.893  34.425  13.360
22106W        W81400  24.199  42.982   0.479
22107W        W81401  20.587  10.875  11.452
22108W        W81402  14.664   8.851  12.936
22109W        W81403   8.299  41.932  11.052
22110W        W81404   2.449  44.916  14.840
22111W        W81405   9.811  10.790  14.507
22112W        W81406  33.104  10.384  12.550
22113W        W81407  31.496  13.786  11.413
22114W        W81408   7.724  12.214  13.459
22115W        W81409  15.814  38.521   1.831
22116W        W81410  21.249  34.475  11.504
22117W        W81411  10.188  41.474  11.878
22118W        W81412  17.644  33.510   2.271
22119W        W81413  33.579   7.310  10.993
22120W        W81414  17.107   1.470  10.956
22121W        W81415  30.582   1.443   4.205
22122W        W81416  24.549   0.316  14.308
22123W        W81417  22.134   0.760   3.312
22124W        W81418  31.468  40.532  11.993
22125W        W81419  43.408  24.628   2.371
22126W        W81420  26.034   2.328   2.178
22127W        W81421   8.663  32.905   4.351
22128W        W81422  31.481  28.521   3.804
22129W        W81423  37.087  29.994  10.958
22130W        W81424  30.478  44.009  14.916
22131W        W81425  17.226  37.847   3.823
22132W        W81426  21.180  26.980  14.906
22133W        W81427  30.082   5.839   1.329
22134W        W81428   2.449  43.317   1.429
22135W        W81429  22.006  15.203   1.899
22136W        W81430  35.374   7.823   3.632
22137W        W81431  38.400  37.548   2.337
22138W        W81432   8.804  29.529   0.355
22139W        W81433  37.437   7.890  14.451
22140W        W81434  33.502  27.974   3.793
22141W        W81435  13.770  21.097  11.118
22142W        W81436  30.585  40.855   1.752
22143W        W81437  39.934   8.257   0.270
22144W        W81438   6.397  42.881  12.042
22145W        W81439  22.712  26.004   3.680
22146W        W81440  41.937  17.160   3.786
22147W        W81441  10.736  27.002  11.094
22148W        W81442   9.765  11.351  14.507
22149W        W81443  35.880  21.749  14.321
22150W        W81444  11.722  22.738  10.966
22151W        W81445  30.040   9.700   2.346
22152W        W81446  11.848  12.141   3.820
22153W        W81447  29.458  23.028  11.600
22154W        W81448  18.599  40.510   1.754
22155W        W81449   0.827  32.479  14.472
22156W        W81450   7.693  28.467  10.589
22157W        W81451  11.185  14.246   0.432
22158W        W81452  26.608  26.064   2.261
22159W        W81453  20.665  40.544  14.981
22160W        W81454  31.019   0.422  11.423
22161W        W81455  16.576   6.796   2.789
22162W        W81456  28.032  18.634   3.267
22163W        W81457   0.762  39.319   4.260
22164W        W81458  34.528  12.842   2.794
22165W        W81459  13.201  10.769   2.346
22166W        W81460   7.209   0.461   1.885
22167W        W81461  33.404  25.157  10.576
22168W        W81462  11.814  39.482  12.374
22169W        W81463  43.474   3.277  14.421
22170W        W81464  27.483  40.313   0.868
22171W        W81465  23.640   1.877  11.425
22172W        W81466  40.475  33.463  12.960
22173W        W81467  44.006   4.770  12.025
22174W        W81468  23.102  37.460  14.798
22175W        W81469   0.812  12.247   3.254
22176W        W81470   8.887  23.500  14.319
22177W        W81471   5.809  21.158   1.880
22178W        W81472  19.098   0.274  12.835
22179W        W81473   2.837  41.989  14.370
22180W        W81474  39.927   7.322   3.234
22181W        W81475  10.373  28.435  11.600
22182W        W81476  20.114  30.115   4.648
22183W        W81477  11.267  13.271   0.303
22184W        W81478   3.289  15.182  12.511
22185W        W81479   9.262  24.010   1.316
22186W        W81480  22.689   7.881  13.315
22187W        W81481  21.050  14.718   1.321
22188W        W81482  10.763   3.367   2.228
22189W        W81483  37.856  28.169   4.710
22190W        W81484  21.517  44.493  10.954
22191W        W81485  17.607  39.501  13.447
22192W        W81486  24.532  44.472  13.995
22193W        W81487  28.628  19.107   0.741
22194W        W81488   0.464  10.838  10.621
22195W        W81489  23.168  18.707  10.968
22196W        W81490  22.230  35.057  14.468
22197W        W81491  31.006   0.378  14.320
22198W        W81492  28.671  17.688  14.940
22199W        W81493  21.091  24.577   0.744
22200W        W81494   4.791  37.029  10.570
22201W        W81495  19.130  42.513   2.285
22202W        W81496  10.863   3.836   3.351
22203W        W81497  40.858   2.288   4.686
22204W        W81498  22.105  24.498  10.888
22205W        W81499  21.662  29.567  11.929
22206W        W81500  36.912   9.659  12.537
22207W        W81501  40.400  41.322  10.155
22208W        W81502  12.152  39.432  14.955
22209W        W81503  38.400  43.418   3.176
22210W        W81504   1.297   3.214   3.768
22211W        W81505   6.802  19.142   2.249
22212W        W81506  26.118  14.815  13.451
22213W        W81507  37.876  17.680   1.429
22214W        W81508  20.715  29.629  13.996
22215W        W81509  24.127  39.425   2.856
22216W        W81510  19.773  22.113   4.824
22217W        W81511  38.901  29.919  14.921
22218W        W81512   2.964  31.490   4.133
22219W        W81513  39.907   2.954   5.725
22220W        W81514  31.424   6.868  14.489
22221W        W81515  30.158  24.032   1.434
22222W        W81516   2.447   2.777  12.843
22223W        W81517   6.717  37.023  14.366
22224W        W81518  20.554  39.857   0.913
22225W        W81519  31.032  25.150   4.295
22226W        W81520  42.377   9.727  10.978
22227W        W81521  33.616  38.463   0.756
22228W        W81522  14.716  18.099  14.934
22229W        W81523  10.792   1.285   4.183
22230W        W81524  10.637  18.775  11.127
22231W        W81525  32.459  31.556   3.759
22232W        W81526   8.381  40.451  11.610
22233W        W81527  29.965  24.704  14.480
22234W        W81528   0.915  25.109   2.268
22235W        W81529  27.515  40.450  14.870
22236W        W81530   0.839   0.387  14.337
22237W        W81531  44.411  44.279   3.667
22238W        W81532   8.270  11.246   4.275
22239W        W81533  33.040  14.766  13.913
22240W        W81534  17.793  34.902  12.382
22241W        W81535   4.386   6.268   3.811
22242W        W81536  38.999  37.446   2.790
22243W        W81537  23.157  30.431  14.023
22244W        W81538  18.601  39.878  13.802
22245W        W81539  19.109   1.822  10.645
22246W        W81540  25.711  35.443   1.304
22247W        W81541  16.598  22.121  10.601
22248W        W81542   9.840   9.263   1.426
22249W        W81543  31.413  31.641   3.268
22250W        W81544  21.154  14.136   3.728
22251W        W81545  33.933   3.295  11.908
22252W        W81546  33.442  22.150  10.971
22253W        W81547  33.968  43.901  12.016
22254W        W81548  34.384  17.255  13.055
22255W        W81549  43.889  38.553  14.470
22256W        W81550   4.294  14.332   0.444
22257W        W81551  22.632  37.362  13.983
22258W        W81552  32.470  38.843  11.989
22259W        W81553  27.681  41.335  14.969
22260W        W81554   7.749  19.259  11.480
22261W        W81555   9.824  16.617   2.189
22262W        W81556  44.951  26.017   2.755
22263W        W81557  37.559  22.148   2.713
22264W        W81558  17.195   2.248   1.267
22265W        W81559   7.189  28.982   0.811
22266W        W81560   9.315  11.746   3.697
22267W        W81561  29.664  32.913  14.020
22268W        W81562   8.191  33.469  12.358
22269W        W81563  25.183   7.815   4.827
22270W        W81564  24.035  28.649  11.427
22271W        W81565   8.245  18.679  11.942
22272W        W81566  14.690  13.113   0.382
22273W        W81567   8.188  38.448   1.228
22274W        W81568  41.328  32.051  11.906
22275W        W81569  31.907  10.700   0.478
22276W        W81570  44.297  24.715  13.448
22277W        W81571   0.282  42.380   4.754
22278W        W81572  22.571   9.303  13.381
22279W        W81573  11.683  38.063  13.919
22280W        W81574   5.197   7.174  12.018
22281W        W81575  28.661  21.645   3.191
22282W        W81576  15.114  39.323   4.265
22283W        W81577  39.860  22.172  14.814
22284W        W81578  40.801  41.826   4.778
22285W        W81579  32.622  34.530   0.828
22286W        W81580  12.303  41.001   2.374
22287W        W81581  27.979  31.430   0.777
22288W        W81582  14.826  32.100  13.463
22289W        W81583  32.608  18.760   3.377
22290W        W81584  28.676  29.536   0.286
22291W        W81585  43.513  24.998  11.926
22292W        W81586  18.067  31.628   4.228
22293W        W81587  27.108  34.865  13.006
22294W        W81588  41.471  42.010   3.161
22295W        W81589  26.695  25.503  13.478
22296W        W81590   8.743  41.858   4.164
22297W        W81591   7.269  43.365  12.571
22298W        W81592  35.918   9.229   4.173
22299W        W81593   1.457  29.158   3.229
22300W        W81594  41.840  32.076  13.474
22301W        W81595   4.911  24.721  11.479
22302W        W81596  33.513  38.917   3.746
22303W        W81597   2.378  29.425   4.644
22304W        W81598  23.173  18.137   4.789
22305W        W81599  35.418  31.435   3.850
22306W        W81600  29.043  15.139  14.888
22307W        W81601  19.070  29.174   1.885
22308W        W81602  18.670  42.424   0.910
22309W        W81603  26.595  39.399  12.095
22310W        W81604  29.999  20.052   4.648
22311W        W81605  12.348  40.386  10.985
22312W        W81606   5.821  19.536  10.082
22313W        W81607   0.847  33.006  11.499
22314W        W81608   9.817   7.295  12.944
22315W        W81609   2.409  22.578   0.406
22316W        W81610  34.069  11.689   1.213
22317W        W81611  32.962  23.032   3.838
22318W        W81612  35.926   0.328  10.901
22319W        W81613  41.388  35.502  11.880
22320W        W81614   2.250  32.991  14.787
22321W        W81615  30.489   3.752  13.327
22322W        W81616   8.739   8.346   0.797
22323W        W81617  39.931   8.233   4.315
22324W        W81618  17.130   9.736  11.868
22325W        W81619   7.179   1.306  11.879
22326W        W81620   5.775  25.153   3.283
22327W        W81621  39.511  12.611   4.317
22328W        W81622  17.147   3.919  11.517
22329W        W81623  21.085  13.616   2.371
22330W        W81624  23.710  34.966  12.927
22331W        W81625  34.482  25.011   2.270
22332W        W81626   5.357   3.786   2.212
22333W        W81627  25.121   2.800  11.908
22334W        W81628  38.385  34.032  13.033
22335W        W81629  40.420   3.444   1.369
22336W        W81630  27.579   8.215  14.410
22337W        W81631  39.367  28.573  11.379
22338W        W81632  26.012  14.298   0.771
22339W        W81633  13.836  36.078  12.068
22340W        W81634  16.296   0.835  13.325
22341W        W81635  22.142   9.861   0.952
22342W        W81636   0.447  36.992   2.395
22343W        W81637   6.727  17.160  13.466
22344W        W81638  20.638   5.427   2.232
22345W        W81639  30.557   3.338  13.916
22346W        W81640  36.455  10.813   4.809
22347W        W81641  17.637  19.198   1.894
22348W        W81642  42.835  28.122   3.245
22349W        W81643  23.545  17.305   0.817
22350W        W81644  28.002  11.296  13.499
22351W        W81645  34.601  19.677  10.963
22352W        W81646  33.021  43.511   3.742
22353W        W81647  12.171  40.456  13.421
22354W        W81648  23.127  41.308   3.683
22355W        W81649  27.994  18.085   2.227
22356W        W81650   5.331  28.445  11.582
22357W        W81651   4.350  41.978   1.769
22358W        W81652  13.107  32.908  14.945
22359W        W81653  20.732  44.976   1.749
22360W        W81654  15.690  32.089  10.624
22361W        W81655  16.775   1.414  12.043
22362W        W81656  26.555  43.426   2.213
22363W        W81657   8.233  28.112   9.582
22364W        W81658   7.211   9.205   1.360
22365W        W81659   5.691   0.306  14.915
22366W        W81660  34.396  34.943   0.857
22367W        W81661   2.401  31.097   2.715
22368W        W81662   6.381  17.796   2.290
22369W        W81663  43.930  41.967   0.949
22370W        W81664  40.446  43.371   4.312
22371W        W81665  15.241  36.365   1.798
22372W        W81666  25.710  22.734   0.445
22373W        W81667   4.799   5.730  10.975
22374W        W81668   9.386  40.349  12.926
22375W        W81669  37.053  33.085   2.282
22376W        W81670  29.523  26.078  13.039
22377W        W81671   4.368  24.649   4.318
22378W        W81672  12.298  31.643   9.649
22379W        W81673   5.770  27.187  13.427
22380W        W81674  30.425  14.806   1.307
22381W        W81675  33.456  34.387   4.257
22382W        W81676  11.710  16.244   0.776
22383W        W81677   7.359  28.980   4.681
22384W        W81678  17.705  21.696   3.317
22385W        W81679  10.335  36.928   1.864
22386W        W81680   7.825  44.417  12.086
22387W        W81681  43.497  33.972  12.423
22388W        W81682  19.739  36.010  12.840
22389W        W81683   0.409  27.171   2.189
22390W        W81684  39.005   8.191   0.345
22391W        W81685  28.604  37.975  14.477
22392W        W81686  15.712  19.543  12.839
22393W        W81687  36.931   3.442   3.801
22394W        W81688  19.053  11.290  11.462
22395W        W81689  33.609  43.307  13.412
22396W        W81690  36.437  33.945   1.925
22397W        W81691  30.473  35.007   0.768
22398W        W81692  28.652   0.431  12.040
22399W        W81693  31.954  16.687  11.981
22400W        W81694  27.692  19.566  14.436
22401W        W81695  44.375  18.787  10.412
22402W        W81696   9.303  40.865  10.621
22403W        W81697   3.829   7.375  10.470
22404W        W81698  14.602  36.869   0.441
22405W        W81699  10.167  12.238  10.443
22406W        W81700  14.742  18.247   1.442
22407W        W81701  28.437  24.041  14.013
22408W        W81702  19.724  14.097   1.379
22409W        W81703  24.601  24.631   4.604
22410W        W81704  26.650  27.496   3.335
22411W        W81705  24.034   2.956   4.749
22412W        W81706  18.671   8.196  13.430
22413W        W81707  16.201  25.499  10.464
22414W        W81708   5.903  39.846  12.373
22415W        W81709   2.332  22.112   3.167
22416W        W81710   3.438  28.061   3.686
22417W        W81711  30.540  43.990   1.262
22418W        W81712  33.972  17.193  13.965
22419W        W81713  39.941  28.680  12.341
22420W        W81714  34.426  18.253  11.004
22421W        W81715  10.223   1.833   3.360
22422W        W81716   6.873   8.675  13.428
22423W        W81717  17.128  37.573  10.518
22424W        W81718  30.097  20.699  12.383
22425W        W81719  25.624  17.289   2.901
22426W        W81720  17.729  28.072   4.604
22427W        W81721  36.510  35.007   2.800
22428W        W81722  40.016  36.488   2.336
22429W        W81723  27.686  17.732  12.065
22430W        W81724  14.181   1.962  13.061
22431W        W81725  44.932  10.303   2.295
22432W        W81726  23.569  17.199  12.011
22433W        W81727  21.606  16.780  12.576
22434W        W81728  33.520  17.625  13.333
22435W        W81729  25.218  34.910  13.007
22436W        W81730  20.699  38.955  11.428
22437W        W81731  39.028  18.185  12.913
22438W        W81732  38.021   2.870   4.207
22439W        W81733  20.724   6.766  11.559
22440W        W81734  40.887  15.758  14.452
22441W        W81735  39.512  19.586  14.993
22442W        W81736   1.806   6.362   0.963
22443W        W81737  42.954  13.272  10.610
22444W        W81738  22.012  18.651   1.806
22445W        W81739   5.414  43.949   1.866
22446W        W81740  24.056   5.314   0.468
22447W        W81741  33.023  21.079  14.425
22448W        W81742  41.004  20.760   1.228
22449W        W81743   5.924  26.062   2.312
22450W        W81744  44.266   8.761  12.499
22451W        W81745  17.141   0.412   3.814
22452W        W81746  34.547  23.735   2.776
22453W        W81747  18.263  25.668  13.841
22454W        W81748  28.002  38.325  13.341
22455W        W81749  29.426  14.295  10.908
22456W        W81750  20.745   2.266  10.539
22457W        W81751   7.793   9.676  12.482
22458W        W81752  40.042  11.305   1.348
22459W        W81753   0.908  16.117   0.764
22460W        W81754   4.412  16.107  12.379
22461W        W81755  17.696  36.458   0.803
22462W        W81756  44.976  42.903  13.914
22463W        W81757  24.705  20.712   4.631
22464W        W81758  14.207   8.388   4.343
22465W        W81759  29.153  29.651   2.200
22466W        W81760  12.771  41.788  14.358
22467W        W81761  19.223  12.855  12.388
22468W        W81762  10.283  25.572  11.472
22469W        W81763  23.186  21.215  12.413
22470W        W81764  34.537  23.984   4.650
22471W        W81765  44.353  30.508  14.821
22472W        W81766  33.605   7.676  12.829
22473W        W81767   1.294  33.109  14.891
22474W        W81768  30.011  34.555   3.326
22475W        W81769   2.856  38.880   4.649
22476W        W81770   5.781  15.614  12.916
22477W        W81771   0.409  34.965  14.797
22478W        W81772  13.201  23.730  11.966
22479W        W81773  41.892  10.339   3.384
22480W        W81774  24.547  39.977  10.927
22481W        W81775  31.459  44.777  13.914
22482W        W81776  31.980  39.318   2.714
22483W        W81777  31.609  42.822   2.204
22484W        W81778  15.664   9.836  11.432
22485W        W81779  14.690  40.534   0.261
22486W        W81780  10.257  19.739  13.954
22487W        W81781  42.947  44.916  11.878
22488W        W81782   1.916  15.595  11.069
22489W        W81783  32.395  18.625  13.864
22490W        W81784   8.161  33.029  12.517
22491W        W81785  41.872  43.365  10.627
22492W        W81786  14.668   6.335  13.325
22493W        W81787  37.968  39.939   2.837
22494W        W81788  23.567  12.659   1.705
22495W        W81789   7.740  21.130   3.733
22496W        W81790  14.797  42.527  10.519
22497W        W81791  27.971   2.370   2.344
22498W        W81792   3.932  41.900   0.792
22499W        W81793  42.780  27.463   1.857
22500W        W81794  10.720  18.646  10.455
22501W        W81795  14.636  19.719   5.232
22502W        W81796   1.288  43.271  12.436
22503W        W81797   8.370   6.372  11.004
22504W        W81798  29.083  10.375  14.356
22505W        W81799  21.646  24.723   4.210
22506W        W81800   4.902  14.176   4.149
22507W        W81801  24.712  26.132  11.431
22508W        W81802  36.445   2.295   1.837
22509W        W81803  12.797  16.234  14.316
22510W        W81804  41.874  35.384   3.686
22511W        W81805  24.600  26.206   1.317
22512W        W81806  15.120  26.543   3.701
22513W        W81807  44.938  37.914  14.801
22514W        W81808  33.570  22.621   1.353
22515W        W81809  15.811  35.951   3.825
22516W        W81810  31.936  29.968  12.988
22517W        W81811  16.761  37.357   1.771
22518W        W81812  22.502  38.063  10.977
22519W        W81813  27.577   9.329  13.991
22520W        W81814  38.045  32.505  13.531
22521W        W81815  40.990  31.634  12.944
22522W        W81816   7.825  43.412  14.324
22523W        W81817   0.832   7.734  11.107
22524W        W81818  43.853  28.959   2.296
22525W        W81819  20.569  19.161   4.255
22526W        W81820  29.520  18.255   9.982
22527W        W81821   9.864   3.840   1.410
22528W        W81822  42.852  27.571  13.430
22529W        W81823  43.419   8.213  12.443
22530W        W81824   1.468  18.569   2.849
22531W        W81825  39.995  43.945  10.958
22532W        W81826  26.199  34.091   1.337
22533W        W81827   0.292   1.970   3.773
22534W        W81828  37.396  18.166  11.068
22535W        W81829  17.706  22.145   5.577
22536W        W81830   4.312  31.563   3.764
22537W        W81831  16.586  22.057   0.946
22538W        W81832  17.593   8.265  10.463
22539W        W81833   2.337  13.304  10.477
22540W        W81834   9.748   9.254   4.801
22541W        W81835  12.315  43.855   2.793
22542W        W81836  14.286   3.944  12.382
22543W        W81837   4.226  17.560  11.604
22544W        W81838   4.291   1.974   3.193
22545W        W81839  35.574   1.866   0.366
22546W        W81840  24.147   5.408   1.821
22547W        W81841   6.859  36.373   3.695
22548W        W81842  13.282  28.642   3.300
22549W        W81843  13.313  37.892  14.487
22550W        W81844   1.243   8.196  14.972
22551W        W81845  16.155  11.701  13.064
22552W        W81846  32.416  43.973   3.234
22553W        W81847  17.721  38.441   3.248
22554W        W81848  21.605   6.721  12.932
22555W        W81849  34.414  12.658   1.336
22556W        W81850  11.339  18.210  11.979
22557W        W81851  36.892  33.058  10.938
22558W        W81852  17.745  15.129   1.874
22559W        W81853  29.437  22.033   0.746
22560W        W81854  43.938  25.500  10.982
22561W        W81855  34.481   5.380  11.507
22562W        W81856  24.035  19.760   1.885
22563W        W81857  44.001  12.200  14.929
22564W        W81858  43.277  17.237   3.345
22565W        W81859   0.359  26.674   1.242
22566W        W81860  33.936  21.049   0.316
22567W        W81861  35.433   2.748  12.832
22568W        W81862  26.126  21.153   3.818
22569W        W81863   6.250   7.780   1.787
22570W        W81864  33.451  35.534  14.514
22571W        W81865  35.012   9.171  14.487
22572W        W81866  12.283  18.725  12.526
22573W        W81867  20.147  11.179   1.361
22574W        W81868  40.034  18.276   4.118
22575W        W81869  10.314   4.869  13.796
22576W        W81870  16.641  15.161  12.024
22577W        W81871  27.683   6.781  13.841
22578W        W81872  40.425  37.966   3.733
22579W        W81873  32.541  36.588   4.631
22580W        W81874   1.392  33.515   2.812
22581W        W81875  31.529  40.040  10.556
22582W        W81876  36.842  42.369   3.288
22583W        W81877  34.079  30.039   0.291
22584W        W81878   6.680   2.842  13.469
22585W        W81879  13.166  41.021  10.507
22586W        W81880  22.191   8.722   3.861
22587W        W81881  43.460  31.585   4.821
22588W        W81882   4.222   1.326  13.866
22589W        W81883  37.961   9.649  12.989
22590W        W81884  32.973  38.921   3.240
22591W        W81885   0.414  11.133  12.865
22592W        W81886  40.422  19.693  13.354
22593W        W81887  28.463  36.011   2.663
22594W        W81888  44.485  19.056  13.344
22595W        W81889  25.468  42.942   4.154
22596W        W81890  14.821  14.194   1.908
22597W        W81891  42.317  34.373  10.517
22598W        W81892  28.067  32.438  12.862
22599W        W81893  31.530  35.602  13.044
22600W        W81894   9.255  22.075  10.990
22601W        W81895   7.891   1.407   3.631
22602W        W81896  20.245   1.920   0.468
22603W        W81897  36.376  33.429  14.849
22604W        W81898  11.695  23.491   3.226
22605W        W81899   7.899  17.732   3.693
22606W        W81900   6.847  11.168   1.289
22607W        W81901   6.340  15.589  10.000
22608W        W81902  26.998   8.842   1.891
22609W        W81903  39.412  10.300  14.376
22610W        W81904  23.668  23.511   2.807
22611W        W81905  11.344  14.726   1.706
22612W        W81906  15.326   8.353  14.445
22613W        W81907   1.917   9.337  11.485
22614W        W81908  31.017  31.901  13.026
22615W        W81909  10.354  21.260  11.602
22616W        W81910  10.174  33.393  13.489
22617W        W81911  15.224  27.979   2.773
22618W        W81912  21.196  15.764   1.819
22619W        W81913   4.804  33.912  10.472
22620W        W81914  11.161  34.891  10.570
22621W        W81915  42.326  20.613  11.397
22622W        W81916   4.765  26.136   2.268
22623W        W81917  43.514  38.364  14.810
22624W        W81918  30.100  40.903  13.427
22625W        W81919  44.456  16.190  11.123
22626W        W81920  18.772   2.262  11.464
22627W        W81921  22.021  41.976  12.991
22628W        W81922  11.173  21.625   0.406
22629W        W81923   3.460  34.046   1.745
22630W        W81924  42.021  20.241   3.681
22631W        W81925  41.337  13.810   1.799
22632W        W81926  11.270  29.546  14.816
22633W        W81927  42.869  40.873  14.317
22634W        W81928   3.953  31.984  11.114
22635W        W81929  10.690   9.694  11.059
22636W        W81930  25.480  41.835  13.053
22637W        W81931  33.103  44.962   3.794
22638W        W81932  39.407  41.488  10.920
22639W        W81933  21.588  29.435   2.290
22640W        W81934  26.646   7.782  11.099
22641W        W81935  31.035  30.032   4.799
22642W        W81936  39.375  11.759  10.135
22643W        W81937  43.446   0.366   2.680
22644W        W81938  28.091  29.607   0.369
22645W        W81939  22.108  25.679  12.884
22646W        W81940   8.302   3.722  14.400
22647W        W81941  44.354  20.236  11.438
22648W        W81942  29.529  13.203   1.753
22649W        W81943  42.312  18.093   0.910
22650W        W81944  24.115  33.621   3.202
22651W        W81945   6.363  20.083   4.799
22652W        W81946  28.937  42.991  14.441
22653W        W81947   0.858  14.256   0.319
22654W        W81948  42.490  44.277  11.075
22655W        W81949   6.852  39.003   4.687
22656W        W81950  19.634   7.893  11.081
22657W        W81951  30.566  24.166   3.175
22658W        W81952   9.874  35.443   4.628
22659W        W81953   6.810  14.627  11.528
22660W        W81954  27.670  34.968   2.183
22661W        W81955  35.089  22.716  12.375
22662W        W81956  29.599  26.133   2.682
22663W        W81957  17.268  39.433  14.382
22664W        W81958  38.463  17.787   0.830
22665W        W81959  25.491   9.850   2.202
22666W        W81960   8.677   3.300   3.154
22667W        W81961   9.820  31.590  11.488
22668W        W81962  44.339  34.097  12.474
22669W        W81963   1.899   1.849  11.037
22670W        W81964   4.294  38.418  14.880
22671W        W81965  26.089   2.326  12.484
22672W        W81966  37.022  33.537   0.807
22673W        W81967   5.257  32.571  13.427
22674W        W81968  33.382  20.697   2.414
22675W        W81969  13.784  18.106   4.640
22676W        W81970  43.765  39.991   0.415
22677W        W81971  43.299  22.707   4.631
22678W        W81972   8.746  39.956   1.409
22679W        W81973   0.985  17.278   5.183
22680W        W81974  32.472   9.320  10.986
22681W        W81975  36.428  18.751   3.717
22682W        W81976  17.672   7.682  13.839
22683W        W81977   4.328  29.540  10.947
22684W        W81978  27.691  13.165  11.540
22685W        W81979  11.254   2.750  10.625
22686W        W81980  27.580  12.829   1.791
22687W        W81981  35.107  38.358   0.777
22688W        W81982  23.222  34.096   3.153
22689W        W81983  25.145  21.527  10.530
22690W        W81984  30.037  33.929  12.450
22691W        W81985  16.268  41.322   4.149
22692W        W81986  42.311  33.411  14.463
22693W        W81987  40.824  14.791  14.909
22694W        W81988  10.800   8.340  12.379
22695W        W81989   1.951  31.595   2.225
22696W        W81990  23.062  40.862  13.347
22697W        W81991   5.840  44.000   0.276
22698W        W81992  35.393  18.550   4.802
22699W        W81993  32.949  13.320   2.895
22700W        W81994  19.039  10.336  10.989
22701W        W81995  35.012  31.124  11.038
22702W        W81996  25.693  43.927   4.638
22703W        W81997  21.652  14.297  11.470
22704W        W81998   7.286  33.997  10.463
22705W        W81999  17.068  13.755   4.707
22706W        W82000  28.089  43.902  11.543
22707W        W82001  23.640  36.349  13.872
22708W        W82002  15.693  10.295   0.949
22709W        W82003   5.774  10.179   3.168
22710W        W82004  37.845  12.785   4.269
22711W        W82005  20.071  41.878  10.618
22712W        W82006  11.317  44.440  14.447
22713W        W82007  17.729   3.240  14.947
22714W        W82008  19.265   8.795  10.505
22715W        W82009  22.123  43.895  12.536
22716W        W82010  43.386   0.253  14.515
22717W        W82011   7.222  39.967  11.557
22718W        W82012   3.351  12.230  13.981
22719W        W82013  40.827   3.374   4.249
22720W        W82014  11.355  13.142  10.981
22721W        W82015  41.995  39.850  10.138
22722W        W82016  30.958  16.667  11.097
22723W        W82017  29.609  29.647  10.511
22724W        W82018  34.917  22.680   4.251
22725W        W82019  13.116  31.138   1.405
22726W        W82020  43.478  17.602   1.852
22727W        W82021  39.443  19.041  14.796
22728W        W82022  32.435  40.313  11.392
22729W        W82023   5.871  22.653  14.970
22730W        W82024  17.244  44.805  12.900
22731W        W82025  27.092  24.997  14.923
22732W        W82026   8.305  29.061   3.244
22733W        W82027  43.831  32.532  11.013
22734W        W82028  40.996  24.995  12.014
22735W        W82029  26.068   4.288  12.438
22736W        W82030  26.203  32.113   1.405
22737W        W82031  13.617  14.170   1.842
22738W        W82032   3.919  26.182   2.886
22739W        W82033  33.550   4.854  14.865
22740W        W82034  42.515  13.347   4.253
22741W        W82035  25.644  24.626   2.245
22742W        W82036  41.799   5.387  14.768
22743W        W82037   7.358  14.629  12.448
22744W        W82038  22.684  28.631  11.514
22745W        W82039  25.689  21.648   4.681
22746W        W82040  44.972   8.747  12.436
22747W        W82041  31.401  13.274   0.818
22748W        W82042   8.885   4.392   4.124
22749W        W82043  26.055  24.197  13.370
22750W        W82044  36.392  16.163   2.767
22751W        W82045  29.545  22.188  13.029
22752W        W82046  16.170  13.777   5.319
22753W        W82047  38.400  12.248  14.336
22754W        W82048  27.976   8.360  11.905
22755W        W82049  29.944  11.231  14.760
22756W        W82050  33.884  11.827  10.900
22757W        W82051  13.673  19.571  12.946
22758W        W82052  28.479  40.464  14.782
22759W        W82053  28.058  25.132   0.932
22760W        W82054  30.457  24.113  11.037
22761W        W82055   8.710   5.830   3.266
22762W        W82056  14.822  41.500  14.419
22763W        W82057  41.932  36.906  11.865
22764W        W82058  37.039   4.332   3.701
22765W        W82059  20.146  25.655  11.547
22766W        W82060  28.680  35.903   3.696
22767W        W82061  30.534  42.929  11.606
22768W        W82062  36.964  33.959  12.491
22769W        W82063   5.230  40.309  12.566
22770W        W82064  42.918  10.787   4.618
22771W        W82065  22.574  41.307   3.204
22772W        W82066   7.816  10.314  11.958
22773W        W82067   7.798  21.086  12.074
22774W        W82068  12.154  37.079   0.936
22775W        W82069   4.214  10.713   0.448
22776W        W82070  19.706  20.592  11.939
22777W        W82071  10.729   7.751   3.207
22778W        W82072  39.474  38.030  13.449
22779W        W82073  28.505  40.970  13.411
22780W        W82074  23.232  33.094  12.369
22781W        W82075  26.959   3.781   4.794
22782W        W82076  32.908  27.164  10.568
22783W        W82077  34.093  30.611   1.407
22784W        W82078  28.496  14.327   0.880
22785W        W82079   3.222   6.343  14.877
22786W        W82080  10.220  22.724  11.513
22787W        W82081  20.182  37.978  12.504
22788W        W82082  36.025  19.705  14.490
22789W        W82083  29.481   7.277  14.457
22790W        W82084  19.559  23.664  13.514
22791W        W82085  21.030  14.132  14.274
22792W        W82086   1.861  17.186   2.777
22793W        W82087  35.888  43.778   3.247
22794W        W82088  33.459  16.716   4.158
22795W        W82089  20.550  18.152  14.492
22796W        W82090  14.688  19.082  11.123
22797W        W82091  12.171  14.744  12.575
22798W        W82092  40.473  20.065  11.512
22799W        W82093  42.003  40.446   1.726
22800W        W82094  10.681  40.043  12.886
22801W        W82095  42.790   6.896   0.871
22802W        W82096  15.628  37.016   2.213
22803W        W82097  33.457  30.487   1.354
22804W        W82098  44.435  15.274   2.366
22805W        W82099   2.948  27.601  14.931
22806W        W82100   2.795  35.926  11.878
22807W        W82101  17.564  27.121   2.829
22808W        W82102  22.681  31.961  11.382
22809W        W82103   2.467   3.779   0.315
22810W        W82104  39.360   6.409   0.739
22811W        W82105  17.598   9.865  14.863
22812W        W82106  18.229  25.151   0.774
22813W        W82107  38.419   4.208   1.809
22814W        W82108  22.091   3.747   2.678
22815W        W82109  36.485  31.555  10.463
22816W        W82110  31.578  37.361   3.375
22817W        W82111   7.353  19.252   3.673
22818W        W82112  33.989  20.228   0.446
22819W        W82113  34.898  24.008   2.714
22820W        W82114  10.689  30.069   0.887
22821W        W82115  43.310  42.446   5.159
22822W        W82116   4.387  28.507   3.796
22823W        W82117   3.341  34.490  10.892
22824W        W82118  41.792   5.797  13.873
22825W        W82119  16.595  15.654  13.866
22826W        W82120  12.767   6.824   0.882
22827W        W82121   8.896  44.944   0.774
22828W        W82122   9.705   5.908  11.503
22829W        W82123  18.262  37.947  12.539
22830W        W82124   0.490  18.657  14.379
22831W        W82125  15.084  23.635  13.941
22832W        W82126  35.029  43.349  10.424
22833W        W82127   4.234  39.866   3.243
22834W        W82128   5.840  12.339  13.471
22835W        W82129  28.518   3.785  11.386
22836W        W82130  11.295  38.850  12.505
22837W        W82131  34.442  31.455   1.273
22838W        W82132  43.974   2.317   2.801
22839W        W82133  25.687  18.257   4.253
22840W        W82134  38.971  42.980   3.649
22841W        W82135  25.609  41.495   0.435
22842W        W82136   4.722  33.125   0.930
22843W        W82137  21.128   8.401  13.408
22844W        W82138  40.542  20.631  11.014
22845W        W82139  25.474  33.520  13.530
22846W        W82140  43.014  33.420   1.424
22847W        W82141  41.935  37.576   3.687
22848W        W82142  21.070  30.459  12.420
22849W        W82143  44.392  41.338   4.772
22850W        W82144  31.414   6.822   3.747
22851W        W82145  10.827  22.010   3.155
22852W        W82146  44.332  37.921  12.877
22853W        W82147  43.353  11.136   1.296
22854W        W82148  13.327  19.686   2.275
22855W        W82149  31.151  44.350  10.420
22856W        W82150  44.933   1.968   1.331
22857W        W82151   1.810  42.869  12.428
22858W        W82152  42.875   9.155   4.201
22859W        W82153  30.514  24.599  12.939
22860W        W82154  11.303  12.798   4.819
22861W        W82155  20.150  42.311  12.476
22862W        W82156  35.484  18.729  14.797
22863W        W82157   3.410  17.112  12.879
22864W        W82158  14.272   0.440  12.925
22865W        W82159  39.382   6.183   3.845
22866W        W82160  42.920  37.844   3.231
22867W        W82161  21.079  37.433   9.975
22868W        W82162  26.014   7.215   4.347
22869W        W82163  18.601  29.105  10.435
22870W        W82164  20.112  34.384   3.340
22871W        W82165  35.109  23.145  10.600
22872W        W82166  18.665  22.700   0.770
22873W        W82167   8.197  41.945   2.400
22874W        W82168  16.257  27.644   4.273
22875W        W82169  41.874  33.587  14.473
22876W        W82170  36.080  33.035  13.927
22877W        W82171  16.253  43.003  12.555
22878W        W82172  38.525  30.026  14.923
22879W        W82173   8.401  14.747  12.043
22880W        W82174   6.922  39.839  11.093
22881W        W82175  14.751  16.732  11.488
22882W        W82176   9.739  33.475   4.327
22883W        W82177  36.094   3.241  11.408
22884W        W82178   1.882  20.072   2.683
22885W        W82179  11.196  43.865   1.762
22886W        W82180  29.511   6.914  14.453
22887W        W82181  11.237  37.457   2.333
22888W        W82182  20.647  19.092  11.523
22889W        W82183  11.264   5.851   3.709
22890W        W82184  30.461  19.123   3.741
22891W        W82185   6.358  38.017   0.785
22892W        W82186   1.877  32.090  10.609
22893W        W82187  42.823  25.669   4.682
22894W        W82188  17.794   3.391   0.933
22895W        W82189  37.481  44.827   3.290
22896W        W82190  12.798   4.872  12.524
22897W        W82191   9.201   7.818   2.694
22898W        W82192  22.231  14.634   2.247
22899W        W82193  41.452   6.390  12.992
22900W        W82194  21.092  11.275  14.864
22901W        W82195  44.783  39.835   0.772
22902W        W82196  34.875  11.815  10.049
22903W        W82197  22.111   7.689   5.132
22904W        W82198  13.292  44.401   3.788
22905W        W82199  21.740  13.615  12.367
22906W        W82200  24.116  23.053  13.828
22907W        W82201  32.428  40.381  14.480
22908W        W82202  24.197  42.832  12.970
22909W        W82203   4.799  40.504   2.778
22910W        W82204  12.681  43.327   4.662
22911W        W82205  29.028  41.039   2.260
22912W        W82206  38.971   9.713   5.082
22913W        W82207  28.072   5.902   0.794
22914W        W82208  33.530  10.668  12.064
22915W        W82209  37.528  31.415   1.919
22916W        W82210  43.855  13.741  11.973
22917W        W82211  12.706   8.685   5.245
22918W        W82212  36.543  11.864   3.635
22919W        W82213  36.868   4.285  10.492
22920W        W82214  42.507  33.404   0.831
22921W        W82215  19.056  12.167  14.958
22922W        W82216   4.244  15.817   2.880
22923W        W82217  29.070  10.832  11.500
22924W        W82218  15.303  15.309  14.024
22925W        W82219  43.340  10.658   2.338
22926W        W82220  29.481  14.096  14.297
22927W        W82221  24.604  31.504   4.114
22928W        W82222   1.347   1.849   4.299
22929W        W82223  20.193  37.912  11.098
22930W        W82224  31.982  39.452   1.708
22931W        W82225   1.806   3.282   4.205
22932W        W82226  15.618  29.036   4.281
22933W        W82227  13.795  35.604   0.284
22934W        W82228  33.480  13.198   2.723
22935W        W82229  40.963  44.308   2.862
22936W        W82230  25.679  27.485   2.783
22937W        W82231  31.958  38.850   3.238
22938W        W82232  21.670  38.886   0.871
22939W        W82233  13.258  13.608   2.679
22940W        W82234   4.332  16.732   0.251
22941W        W82235  39.054  42.894   0.890
22942W        W82236  27.564  35.006   2.680
22943W        W82237  15.279   7.768   0.928
22944W        W82238  20.063  15.684  11.098
22945W        W82239  37.494  18.760  12.378
22946W        W82240  43.972  37.526  13.349
22947W        W82241  10.325  25.976   1.254
22948W        W82242   8.689  16.134  12.460
22949W        W82243  28.667  44.484   4.806
22950W        W82244  22.553  25.663  13.793
22951W        W82245   8.673   9.339   4.745
22952W        W82246   6.802  38.908  13.934
22953W        W82247  34.591  13.302  13.959
22954W        W82248  18.292   3.317   0.396
22955W        W82249   3.717  10.649   3.172
22956W        W82250  42.913   9.674  10.595
22957W        W82251  18.669  18.676  11.597
22958W        W82252  44.295  33.530   2.797
22959W        W82253  41.313  30.011   1.231
22960W        W82254  13.285  31.991  14.908
22961W        W82255  38.569  26.188   0.895
22962W        W82256  35.910  19.753   4.203
22963W        W82257  44.921  41.336   3.769
22964W        W82258  42.030  20.668  11.491
22965W        W82259  18.571  13.700   1.727
22966W        W82260  38.915  14.327  14.391
22967W        W82261  36.008  27.665  13.515
22968W        W82262  35.518  27.959  11.454
22969W        W82263  27.665  38.492   5.805
22970W        W82264  15.183  18.574  13.907
22971W        W82265   9.326  42.430  11.484
22972W        W82266  34.107   0.276  14.779
22973W        W82267  42.987  15.270  11.071
22974W        W82268  35.538   4.744  12.826
22975W        W82269  37.410  25.166  12.439
22976W        W82270  14.186   3.829   2.402
22977W        W82271  14.719  25.597   4.271
22978W        W82272   8.666  34.608   1.436
22979W        W82273   0.405  37.888  13.484
22980W        W82274   9.850  10.343  11.029
22981W        W82275  34.489  31.973   0.449
22982W        W82276  23.084  15.267  12.082
22983W        W82277   3.222   6.891  14.985
22984W        W82278  18.252  33.615   1.392
22985W        W82279  16.255  23.513  12.419
22986W        W82280   7.766  25.194   5.239
22987W        W82281  21.663  39.901   3.378
22988W        W82282  43.974  31.939   0.822
22989W        W82283  10.767   9.782  13.434
22990W        W82284   9.264  12.629  14.798
22991W        W82285  39.919   1.275   3.762
22992W        W82286   0.747  22.517   0.393
22993W        W82287   0.354  37.398  13.425
22994W        W82288  25.530  16.634   3.722
22995W        W82289   5.422  13.746  14.318
22996W        W82290  18.173  34.065   1.710
22997W        W82291  13.820   9.353   2.694
22998W        W82292  23.236  33.962  12.450
22999W        W82293  42.923  44.763   4.256
23000W        W82294  28.019  26.189  13.496
23001W        W82295  25.569  28.680   1.850
23002W        W82296  18.549  40.487   2.290
23003W        W82297  11.302  12.819   4.233
23004W        W82298   3.905  12.264  12.509
23005W        W82299  40.828  15.694  13.853
23006W        W82300  36.022  37.998  14.767
23007W        W82301  14.226  34.047  14.387
23008W        W82302  19.059  24.980   4.189
23009W        W82303  35.457  25.993  12.915
23010W        W82304   1.908   5.798   3.859
23011W        W82305   5.399  33.070   0.312
23012W        W82306  30.457   0.396   1.300
23013W        W82307   2.359  22.030   4.837
23014W        W82308  39.927  30.992   4.330
23015W        W82309   0.445  17.742  14.328
23016W        W82310  18.175   5.692   4.266
23017W        W82311  30.643  38.548   2.225
23018W        W82312   2.740  38.385   1.273
23019W        W82313  36.367  15.262  11.856
23020W        W82314  41.333   2.341   2.752
23021W        W82315  44.785  19.213   3.850
23022W        W82316   3.367  28.587  11.474
23023W        W82317  41.851  30.654  12.079
23024W        W82318  23.695  27.981  11.544
23025W        W82319  34.608   4.432  11.410
23026W        W82320  16.794  44.276  10.632
23027W        W82321   1.914  41.994   3.317
23028W        W82322  25.626  20.526   0.356
23029W        W82323  34.073  10.179  11.390
23030W        W82324  16.646  10.837  12.835
23031W        W82325  39.957  41.362   2.789
23032W        W82326   6.824   9.756   2.794
23033W        W82327  14.806   0.825  10.953
23034W        W82328   1.351  14.614  12.018
23035W        W82329  11.703  30.942   1.255
23036W        W82330  31.564  37.509   2.360
23037W        W82331  10.744  25.598  14.370
23038W        W82332  44.279  44.905  13.470
23039W        W82333   4.750  34.597   4.292
23040W        W82334  31.028  19.710  12.428
23041W        W82335  35.543  34.057   0.457
23042W        W82336  18.242  13.129  10.985
23043W        W82337  37.567  34.108   1.913
23044W        W82338  22.246  40.311  14.414
23045W        W82339  18.701   3.875  13.317
23046W        W82340  15.809  18.116  11.027
23047W        W82341  12.146  17.145  11.426
23048W        W82342   9.269  21.033   0.884
23049W        W82343  43.367  10.722  12.038
23050W        W82344   6.804   7.738   1.707
23051W        W82345  41.455   6.727  10.431
23052W        W82346  15.219  28.506  14.942
23053W        W82347  15.709  23.069  10.999
23054W        W82348   1.754  30.524   0.280
23055W        W82349  33.016  42.990  13.901
23056W        W82350  27.636  37.006   9.561
23057W        W82351  42.947  12.321   2.676
23058W        W82352  19.049  15.319   0.321
23059W        W82353  37.386  15.116   0.337
23060W        W82354  31.646  39.480  10.910
23061W        W82355   7.193  26.500  10.954
23062W        W82356  18.094   7.842   3.374
23063W        W82357  32.570  34.536   4.700
23064W        W82358  28.170   8.345  13.940
23065W        W82359  30.107  31.081   0.367
23066W        W82360  14.760  43.809   2.886
23067W        W82361   0.852   9.187   0.273
23068W        W82362  41.306  41.973  13.382
23069W        W82363   5.244  14.282   4.740
23070W        W82364  12.819  18.641  10.541
23071W        W82365  32.122  20.214   0.420
23072W        W82366  21.100  13.770  10.893
23073W        W82367  20.051  33.567   3.303
23074W        W82368  24.592   9.862  14.025
23075W        W82369  21.666   8.178   9.605
23076W        W82370  11.771  39.842   4.341
23077W        W82371  23.171  42.924   0.247
23078W        W82372   6.677   5.816   3.654
23079W        W82373  31.141  39.464   3.347
23080W        W82374  12.816  29.623   3.775
23081W        W82375   3.886   5.355  13.343
23082W        W82376  37.954  24.721  12.531
23083W        W82377  18.122   9.192   2.704
23084W        W82378  11.249  42.446  12.419
23085W        W82379  13.106   1.247   1.808
23086W        W82380  11.185  18.679   0.940
23087W        W82381  40.884  23.507   3.385
23088W        W82382  10.817  18.691   1.319
23089W        W82383  25.475  42.490   1.332
23090W        W82384   4.270  11.847  12.986
23091W        W82385   4.935   9.328  13.869
23092W        W82386  11.159  15.110   2.736
23093W        W82387  27.625   1.960  12.961
23094W        W82388  13.727   2.282   3.650
23095W        W82389   5.414  20.576   2.331
23096W        W82390  41.867  22.069  14.280
23097W        W82391  14.294  34.874   1.724
23098W        W82392   2.885   1.312   4.767
23099W        W82393  33.017   7.866   2.694
23100W        W82394  26.648   4.401   9.929
23101W        W82395  41.309  40.533  11.031
23102W        W82396  43.453   0.303  11.893
23103W        W82397   4.782  44.835   2.824
23104W        W82398  22.583  26.469  12.049
23105W        W82399  10.256  11.236   0.748
23106W        W82400  42.879  27.028  12.548
23107W        W82401  36.063  39.828  10.563
23108W        W82402  28.681  37.452   4.687
23109W        W82403  40.971  39.440  14.391
23110W        W82404  14.106  34.076  12.409
23111W        W82405  34.974  15.664  14.030
23112W        W82406   6.339  33.027  11.595
23113W        W82407  37.419  18.104   3.809
23114W        W82408  41.386  35.982  10.458
23115W        W82409  19.546  34.039  12.842
23116W        W82410   7.266  22.194   2.852
23117W        W82411  19.568  13.763   1.378
23118W        W82412  30.002  15.274  13.027
23119W        W82413   3.214  35.409   2.751
23120W        W82414  28.960  43.372   2.899
23121W        W82415  16.213  12.721   2.361
23122W        W82416  40.029   3.843   1.834
23123W        W82417  26.694  23.108  11.944
23124W        W82418  32.091  32.557  13.790
23125W        W82419  23.589  20.716  11.887
23126W        W82420  32.423  21.668  11.526
23127W        W82421  24.146   1.317  13.910
23128W        W82422  41.804  40.971   0.947
23129W        W82423  44.488  25.575  12.553
23130W        W82424  30.090  20.145   2.688
23131W        W82425  19.056  22.170   0.886
23132W        W82426  44.481  11.180  11.402
23133W        W82427   3.735  23.647   4.827
23134W        W82428  28.539  41.932  14.913
23135W        W82429  10.235  30.923  11.868
23136W        W82430  41.354  23.239   1.911
23137W        W82431  27.100  18.651   0.346
23138W        W82432  14.725  34.924  11.510
23139W        W82433  25.004  25.138   3.870
23140W        W82434  10.355  26.493  14.005
23141W        W82435  11.310   7.242   1.440
23142W        W82436  14.304  34.078  13.325
23143W        W82437  20.273  44.008   3.763
23144W        W82438   4.716  10.834  12.876
23145W        W82439  24.183  13.706  14.024
23146W        W82440   2.276  34.994   5.242
23147W        W82441   0.295  12.611  12.406
23148W        W82442  10.784   4.383  14.919
23149W        W82443  43.503  14.789  12.982
23150W        W82444  19.234  34.420  13.399
23151W        W82445   5.728  37.578   5.159
23152W        W82446   6.226  34.015  10.489
23153W        W82447  27.157  13.322  12.956
23154W        W82448  43.958  28.632   3.689
23155W        W82449  36.857  14.151   1.339
23156W        W82450  36.406  39.413  12.006
23157W        W82451  12.782  28.631  14.845
23158W        W82452  32.941   3.822  13.442
23159W        W82453  34.112   1.253   4.187
23160W        W82454   7.850  30.115  12.520
23161W        W82455   4.769  27.081   3.756
23162W        W82456   1.761  15.706  14.339
23163W        W82457  36.374  24.524   1.399
23164W        W82458  31.626  43.497  11.493
23165W        W82459   5.202   5.734   3.282
23166W        W82460  28.462  38.548  10.582
23167W        W82461  31.115  19.742  11.429
23168W        W82462  44.294  27.457  10.420
23169W        W82463  13.302  41.801  11.860
23170W        W82464  18.203  41.957   0.305
23171W        W82465  19.704   3.408   2.319
23172W        W82466   5.418  17.682  11.887
23173W        W82467  40.495   5.238   4.765
23174W        W82468  18.076  11.176  13.926
23175W        W82469  28.111  10.246  13.842
23176W        W82470  26.585  13.672   2.254
23177W        W82471  19.135   2.881   4.220
23178W        W82472  20.211  11.722   0.756
23179W        W82473  44.487  13.290   3.252
23180W        W82474   7.279  32.591   2.220
23181W        W82475   0.263  39.387  12.507
23182W        W82476   3.252  14.184   1.860
23183W        W82477  42.283  26.592  12.391
23184W        W82478  18.787  24.126  14.906
23185W        W82479  18.702  11.635  10.111
23186W        W82480  30.140   2.892  11.123
23187W        W82481   3.774   8.894   0.466
23188W        W82482  39.433  16.260   3.773
23189W        W82483   6.688   5.842  11.527
23190W        W82484   5.340  15.775   0.891
23191W        W82485  17.634  11.195  12.361
23192W        W82486  22.143  37.541  13.906
23193W        W82487  32.599  23.987   3.834
23194W        W82488   3.301   1.951  11.591
23195W        W82489   8.345  25.072   4.619
23196W        W82490  33.096   3.308   1.377
23197W        W82491  28.971  27.989   4.120
23198W        W82492  18.552  36.567  13.941
23199W        W82493   8.744  11.286  11.427
23200W        W82494  43.348  18.200   5.281
23201W        W82495  38.022  42.006  12.037
23202W        W82496  37.954  31.590   1.419
23203W        W82497  27.547  33.022   3.721
23204W        W82498  13.685  30.004  10.513
23205W        W82499  14.139  13.320   4.241
23206W        W82500  31.060   6.679   3.169
23207W        W82501  19.714  42.507  14.940
23208W        W82502  33.511  34.516   4.651
23209W        W82503  12.807  31.059   0.869
23210W        W82504  19.213  38.468   2.815
23211W        W82505  38.471   1.951  10.475
23212W        W82506  27.552  23.531   0.278
23213W        W82507  35.571  22.662   4.157
23214W        W82508  31.083  41.300   3.759
23215W        W82509   4.795  21.514  12.911
23216W        W82510   4.263  42.283   4.118
23217W        W82511  21.103  34.529  10.479
23218W        W82512   1.750   0.922  10.454
23219W        W82513   2.236   3.817  13.413
23220W        W82514   6.832  33.045   3.351
23221W        W82515   7.871  34.407   1.841
23222W        W82516  31.015  34.929  14.949
23223W        W82517   8.331  34.998   2.322
23224W        W82518  41.433  36.471   1.844
23225W        W82519   9.685  19.285  11.917
23226W        W82520   7.710   1.945   1.440
23227W        W82521  41.320   3.770  11.934
23228W        W82522  14.754   4.236  14.831
23229W        W82523   0.925  38.840  14.883
23230W        W82524  20.054  42.779  13.421
23231W        W82525  22.104  29.056  13.832
23232W        W82526  24.564  23.143  10.569
23233W        W82527   0.930   2.382   0.461
23234W        W82528  44.377  18.295  14.511
23235W        W82529  44.849   6.781   1.348
23236W        W82530   2.339  43.948   0.387
23237W        W82531  34.015  26.536  10.473
23238W        W82532  37.352  38.976   3.178
23239W        W82533  32.066  20.661  10.467
23240W        W82534  20.215  14.219   3.769
23241W        W82535  12.840   4.428   0.795
23242W        W82536   2.450   7.386   2.221
23243W        W82537  39.490  32.530   3.308
23244W        W82538  28.949  41.462   1.388
23245W        W82539  13.642   1.344   1.306
23246W        W82540  23.073  34.023   3.831
23247W        W82541  16.084  19.107  11.947
23248W        W82542  10.831  11.800  13.879
23249W        W82543  33.436  28.505   1.751
23250W        W82544   4.705  42.002   2.875
23251W        W82545  20.173  25.185  12.002
23252W        W82546   6.699  18.654  14.308
23253W        W82547  18.634  27.152  12.867
23254W        W82548  28.596  31.976   2.673
23255W        W82549  10.710  11.825  10.527
23256W        W82550  30.449   7.814  14.995
23257W        W82551  29.079  13.790   3.382
23258W        W82552  32.951  22.033   4.152
23259W        W82553  34.074   1.816   1.733
23260W        W82554  37.839  12.671  11.432
23261W        W82555  25.610  14.271   2.341
23262W        W82556   9.324  35.964  14.827
23263W        W82557  29.584   6.263  14.032
23264W        W82558   8.370  31.425  14.453
23265W        W82559  40.472  19.050   4.175
23266W        W82560  17.590  28.469   2.353
23267W        W82561  34.895  32.445  12.941
23268W        W82562  22.714  16.642  14.779
23269W        W82563  17.307  29.542  13.861
23270W        W82564  23.198   2.904   4.118
23271W        W82565  26.675  33.558   1.923
23272W        W82566  16.683   3.938  13.863
23273W        W82567  37.562  28.987  10.007
23274W        W82568   7.225  34.912   0.336
23275W        W82569  10.243  23.124   3.776
23276W        W82570   1.397  38.863   0.731
23277W        W82571  31.945  34.012  12.490
23278W        W82572   1.426  39.857  14.455
23279W        W82573  30.414  17.665   1.396
23280W        W82574  40.970  34.468   1.216
23281W        W82575  21.018  11.162   4.227
23282W        W82576  38.554   6.708   3.767
23283W        W82577  20.743  40.951  14.789
23284W        W82578  26.200  16.132  13.352
23285W        W82579   9.385  17.192   0.907
23286W        W82580  34.009  14.240   1.321
23287W        W82581   4.403  25.989  12.853
23288W        W82582  28.990   0.963  14.443
23289W        W82583  22.536  37.455  13.531
23290W        W82584  12.809  14.772   3.157
23291W        W82585  37.870  15.208  13.945
23292W        W82586  44.455  20.549   4.774
23293W        W82587  31.498   2.252  12.858
23294W        W82588  17.067   2.338   0.882
23295W        W82589  31.094   9.204  11.394
23296W        W82590   7.897  38.546   1.853
23297W        W82591  21.633  22.500   1.306
23298W        W82592  25.558  42.427  14.342
23299W        W82593  35.547  29.561  12.088
23300W        W82594  16.606  16.159  13.461
23301W        W82595  28.083   3.840   3.385
23302W        W82596  29.061   8.307  11.113
23303W        W82597  27.126   5.786  12.970
23304W        W82598  17.144  43.484   2.260
23305W        W82599  22.225  11.132   0.246
23306W        W82600  38.454  15.746   0.243
23307W        W82601  42.330   8.869   3.365
23308W        W82602   4.394  39.514   3.806
23309W        W82603  17.253  22.561   2.265
23310W        W82604  37.440  31.404   3.267
23311W        W82605  14.120  32.488  12.465
23312W        W82606  16.125  31.911  11.085
23313W        W82607  17.228  25.647   4.142
23314W        W82608  41.446   8.216  14.407
23315W        W82609   9.196  13.244   3.699
23316W        W82610  28.953  40.459   3.783
23317W        W82611  22.678   8.326   1.407
23318W        W82612   7.717   3.428   4.715
23319W        W82613  18.611  18.250   1.275
23320W        W82614  20.129  11.844  14.792
23321W        W82615   6.312  23.032  14.920
23322W        W82616   3.872  35.569  11.971
23323W        W82617  10.685  33.910   3.714
23324W        W82618  12.655  10.350  13.043
23325W        W82619  22.223  29.429  11.958
23326W        W82620  38.966   0.973   2.271
23327W        W82621  22.599  27.963   1.895
23328W        W82622   0.930   9.174   3.841
23329W        W82623  36.509  31.554  11.855
23330W        W82624  19.198  34.389  14.323
23331W        W82625   0.456  35.407  11.962
23332W        W82626  36.531   5.234   2.693
23333W        W82627  11.150  11.739   2.286
23334W        W82628  35.034  21.237  14.972
23335W        W82629  17.595  40.508   4.152
23336W        W82630   7.245  42.802  13.542
23337W        W82631  41.962  35.922  13.390
23338W        W82632  38.518   5.869   3.247
23339W        W82633   2.759  31.920   5.149
23340W        W82634  41.399  32.476  14.325
23341W        W82635  42.348  16.170  11.573
23342W        W82636  21.159  13.764   3.260
23343W        W82637   3.833  12.701  11.599
23344W        W82638  39.490  38.822   0.378
23345W        W82639  32.421   1.408   3.701
23346W        W82640  13.745  33.122   4.660
23347W        W82641  17.791  19.145  10.422
23348W        W82642  40.805  35.459   3.266
23349W        W82643  19.172  31.966  11.447
23350W        W82644   9.846  12.234   1.738
23351W        W82645  37.463  14.805   4.711
23352W        W82646  28.527   3.448   0.811
23353W        W82647  20.225  37.900   0.474
23354W        W82648  37.449  28.602   3.717
23355W        W82649  23.188  36.474   2.787
23356W        W82650  41.306   4.815   0.866
23357W        W82651  24.026  38.937  13.019
23358W        W82652   3.750  16.073   0.836
23359W        W82653   1.426  43.488   2.205
23360W        W82654  32.583   4.929   1.914
23361W        W82655   1.468  35.500  12.082
23362W        W82656  34.559  28.436   1.293
23363W        W82657  41.292  30.501  12.343
23364W        W82658  14.809  12.776   2.899
23365W        W82659   7.681  16.733  14.989
23366W        W82660  13.184  22.669  10.942
23367W        W82661   7.270   2.954  11.494
23368W        W82662  37.483  20.717  10.626
23369W        W82663  20.637  21.035   2.194
23370W        W82664  38.022  25.681  12.399
23371W        W82665  38.571   0.279  13.059
23372W        W82666  41.864  36.867  10.990
23373W        W82667   6.202  42.983   1.253
23374W        W82668   2.813  17.612  14.946
23375W        W82669  21.708  34.423   1.842
23376W        W82670  34.970  22.206   1.229
23377W        W82671   9.228  31.028  10.078
23378W        W82672   6.396  20.215   3.305
23379W        W82673   6.771   6.729   4.799
23380W        W82674  41.016  31.916   2.389
23381W        W82675  37.520  26.572   2.418
23382W        W82676  22.081  30.049  11.491
23383W        W82677  23.698  12.233   5.145
23384W        W82678  20.235  11.783   3.364
23385W        W82679   0.416  39.986   1.773
23386W        W82680  13.652  28.158  12.478
23387W        W82681   0.429  39.889  12.438
23388W        W82682  28.442  34.999   0.330
23389W        W82683  32.582  40.439  10.523
23390W        W82684  28.536   0.861   3.739
23391W        W82685  21.083  41.800  12.920
23392W        W82686   1.268  28.120  10.428
23393W        W82687  24.608  44.346   2.838
23394W        W82688  31.597   2.277   2.185
23395W        W82689   3.286   7.685  13.397
23396W        W82690  40.413   3.344  10.562
23397W        W82691  35.561  30.103  13.909
23398W        W82692  34.952  25.131  10.404
23399W        W82693   2.344  15.138  13.895
23400W        W82694   4.275  15.194  13.847
23401W        W82695  27.501  34.108   2.294
23402W        W82696  12.129  20.092   2.295
23403W        W82697  13.631   7.694  10.536
23404W        W82698  24.185  25.109  11.397
23405W        W82699   0.391   4.396  13.496
23406W        W82700  13.826  38.008  12.456
23407W        W82701  31.509   3.273   4.337
23408W        W82702  30.529  42.402   0.402
23409W        W82703  20.655  15.794  14.814
23410W        W82704  15.597  44.811   1.770
23411W        W82705   9.320  35.446   2.828
23412W        W82706  26.073  39.018  13.453
23413W        W82707   9.724  32.405   5.775
23414W        W82708  11.682  27.475  12.492
23415W        W82709  31.023  27.117   1.238
23416W        W82710  40.484   6.699  12.834
23417W        W82711  13.643  18.716  13.872
23418W        W82712  31.517   7.215  10.091
23419W        W82713   2.962  38.486  13.501
23420W        W82714  38.412  36.983  10.532
23421W        W82715  35.073  10.871   1.309
23422W        W82716   9.798  27.656   3.652
23423W        W82717   9.854   1.270   4.630
23424W        W82718  24.559  20.203   1.731
23425W        W82719  11.196  40.543  11.094
23426W        W82720  21.599  11.662   1.304
23427W        W82721  37.003  31.581   0.291
23428W        W82722   0.314   1.860  14.325
23429W        W82723   6.710   2.790  12.898
23430W        W82724  24.231  20.546  11.926
23431W        W82725  41.321  26.121   1.270
23432W        W82726  10.634   4.376   4.154
23433W        W82727  42.015  26.637  12.502
23434W        W82728  12.357  33.506   0.737
23435W        W82729   4.733  32.931   1.308
23436W        W82730  20.616  33.564   3.855
23437W        W82731  27.499  26.021  11.542
23438W        W82732  31.094  43.916  13.511
23439W        W82733   9.250  42.891  12.553
23440W        W82734  42.832  16.087   3.742
23441W        W82735  42.318  42.964  13.401
23442W        W82736  19.655  21.657   1.729
23443W        W82737  24.490   2.881  11.879
23444W        W82738  10.839  21.209  14.984
23445W        W82739  30.950  20.267  12.063
23446W        W82740   0.313  20.712   2.304
23447W        W82741   0.342  18.296   4.761
23448W        W82742   2.903  27.654  12.048
23449W        W82743   2.283   1.379  13.354
23450W        W82744  27.944  21.192  10.141
23451W        W82745   9.196  44.383  10.993
23452W        W82746  19.620  40.367  14.894
23453W        W82747  41.904  42.289   4.753
23454W        W82748  18.670   9.391   3.196
23455W        W82749   6.794  29.647   4.153
23456W        W82750  33.113  21.594   0.823
23457W        W82751  41.426   4.395  14.423
23458W        W82752  43.800  15.155  13.052
23459W        W82753  25.631   4.344  12.009
23460W        W82754  32.549  41.790   3.709
23461W        W82755  15.239  16.605  11.858
23462W        W82756   2.934  25.191   4.127
23463W        W82757  30.640   3.434   5.101
23464W        W82758   6.359  42.465   0.770
23465W        W82759  21.263  44.320   4.265
23466W        W82760   0.452  22.555   1.446
23467W        W82761  35.023   1.789  10.895
23468W        W82762  44.795  37.873   0.336
23469W        W82763  14.747  22.132   2.805
23470W        W82764  16.752  18.292   2.373
23471W        W82765  34.051  29.562  13.842
23472W        W82766  13.216  11.783  10.513
23473W        W82767  15.153  42.492   2.688
23474W        W82768  39.861  41.458   3.698
23475W        W82769   7.245  26.532  10.539
23476W        W82770  33.913  35.393   2.388
23477W        W82771  28.167  25.655   1.230
23478W        W82772  10.300  44.957  10.586
23479W        W82773  39.388  38.919  14.976
23480W        W82774  10.760  26.541   5.247
23481W        W82775  31.505  36.570   0.895
23482W        W82776  43.934  23.996  13.877
23483W        W82777  36.522   4.933   0.285
23484W        W82778  27.458  17.219  13.042
23485W        W82779  24.480   2.338  14.442
23486W        W82780  37.953   5.895   1.449
23487W        W82781  23.162  31.639  12.387
23488W        W82782   9.839  11.135   4.728
23489W        W82783  15.702  31.020   1.219
23490W        W82784  17.674  35.360   1.870
23491W        W82785  24.565  23.549   1.717
23492W        W82786  33.882  28.515  11.377
23493W        W82787  13.757  42.860   0.951
23494W        W82788  24.088  36.566   3.734
23495W        W82789   8.770  24.509   4.117
23496W        W82790  41.527  12.694   2.792
23497W        W82791  34.870  31.114   0.475
23498W        W82792  21.100  12.645   3.383
23499W        W82793  15.083  43.964   1.708
23500W        W82794  21.157   0.786  11.569
23501W        W82795  43.928  19.676  14.791
23502W        W82796  41.316  23.016  13.823
23503W        W82797  29.038   0.852   3.761
23504W        W82798   1.974  16.282  14.337
23505W        W82799  42.441  16.205  13.889
23506W        W82800  38.039  18.093   3.754
23507W        W82801  40.841  20.558   2.797
23508W        W82802  18.089  37.412   0.348
23509W        W82803   9.844  25.538  11.074
23510W        W82804  29.003  37.899   2.768
23511W        W82805   1.266   7.697  10.477
23512W        W82806   0.868   1.376   1.286
23513W        W82807  20.098  18.165  11.452
23514W        W82808   8.855  30.130  12.537
23515W        W82809  33.991  16.161  12.448
23516W        W82810   1.259  29.541  12.866
23517W        W82811  38.565  34.890  11.986
23518W        W82812  37.958  16.761   1.341
23519W        W82813   8.401  29.455   2.283
23520W        W82814  42.441  17.267   0.813
23521W        W82815  22.585   2.943   0.412
23522W        W82816  12.638  28.612  13.457
23523W        W82817  26.182  12.332  11.908
23524W        W82818   4.290  18.250  10.475
23525W        W82819   3.302  18.076  10.157
23526W        W82820   9.283  27.552   1.859
23527W        W82821  44.442  34.580  12.377
23528W        W82822  22.009  23.633  11.399
23529W        W82823  24.104  39.885   3.735
23530W        W82824  21.572  37.916  11.881
23531W        W82825  15.702   8.256   1.287
23532W        W82826   4.221  33.061   2.688
23533W        W82827  41.454  12.721   0.327
23534W        W82828  35.367  21.667  12.524
23535W        W82829  39.507  26.658   5.143
23536W        W82830  22.144   3.420  12.934
23537W        W82831  40.543  25.675   1.849
23538W        W82832  19.083  33.063  11.396
23539W        W82833  35.949  11.706  13.989
23540W        W82834   8.311   3.920  11.944
23541W        W82835  32.025  16.111   0.260
23542W        W82836  28.985  29.128  13.811
23543W        W82837   2.772  24.060  10.999
23544W        W82838   2.456  21.239   2.800
23545W        W82839  14.096  13.799  13.934
23546W        W82840  29.618   4.799   3.250
23547W        W82841  43.795  41.446  11.028
23548W        W82842  27.103   3.314  12.474
23549W        W82843  32.543   5.830  13.311
23550W        W82844  21.597  31.554   1.841
23551W        W82845   5.333   8.255  14.851
23552W        W82846  30.955  25.588   2.318
23553W        W82847   0.842  44.978   0.369
23554W        W82848  39.024  36.021   0.783
23555W        W82849  32.981  41.943  13.501
23556W        W82850  20.700  40.320   4.177
23557W        W82851  24.676   8.274  14.925
23558W        W82852  24.708  27.969  12.404
23559W        W82853  11.716  29.429  13.839
23560W        W82854  24.525  42.883   1.752
23561W        W82855   8.715  41.037   2.895
23562W        W82856  31.637  31.501  10.491
23563W        W82857  19.212  43.346  14.488
23564W        W82858  16.660   2.926  11.529
23565W        W82859  23.034  27.674   0.423
23566W        W82860  28.931   7.260  13.370
23567W        W82861   3.853   8.867   4.797
23568W        W82862  38.837  41.788   3.791
23569W        W82863  43.480   8.254   1.397
23570W        W82864   9.373  26.682  14.498
23571W        W82865  40.310  38.425   2.693
23572W        W82866   7.413  32.030  13.454
23573W        W82867  43.491   5.217   4.650
23574W        W82868  40.905  40.457   0.397
23575W        W82869  22.197  12.293  12.906
23576W        W82870  27.117   7.710   4.655
23577W        W82871  14.606  34.987  10.501
23578W        W82872  15.139  28.678  11.037
23579W        W82873  18.060  37.024   0.446
23580W        W82874   7.870  16.222  13.819
23581W        W82875  27.509  13.737  11.125
23582W        W82876  37.480   0.468   2.415
23583W        W82877  25.046   9.749   2.232
23584W        W82878   7.748  38.482   4.159
23585W        W82879  42.326   9.252   3.298
23586W        W82880  15.819  44.912   4.785
23587W        W82881  17.292  30.433  12.088
23588W        W82882   4.355  17.630   1.402
23589W        W82883  15.765  23.564  14.342
23590W        W82884  15.218  42.919   4.673
23591W        W82885  16.277  10.730  14.800
23592W        W82886  21.152  15.313  14.004
23593W        W82887  27.061  15.127   4.763
23594W        W82888  39.429  18.170  12.085
23595W        W82889  19.756  23.636   4.238
23596W        W82890  34.609   2.762   2.755
23597W        W82891  15.136  15.762   0.461
23598W        W82892   1.273  19.150   4.683
23599W        W82893  41.015  41.980   3.186
23600W        W82894  13.662  38.034  12.823
23601W        W82895  38.928  12.699  10.154
23602W        W82896  13.714  34.034   0.822
23603W        W82897  12.702  27.017  10.891
23604W        W82898  18.690  39.038   4.712
23605W        W82899   4.852  37.032   2.229
23606W        W82900  25.112  43.978   4.144
23607W        W82901  11.629  26.962  10.017
23608W        W82902  10.836   1.367  11.580
23609W        W82903  18.184  40.862   0.880
23610W        W82904  14.768  18.564   4.307
23611W        W82905  23.688  37.530  13.395
23612W        W82906  17.745   9.393  14.481
23613W        W82907  13.654  15.210   0.368
23614W        W82908   9.281  40.959   2.264
23615W        W82909  26.526   1.735  11.557
23616W        W82910   5.258  16.213  11.039
23617W        W82911  39.327   9.712   2.871
23618W        W82912  16.313  15.749  14.020
23619W        W82913  20.574  41.040   0.926
23620W        W82914  24.719   7.216   4.194
23621W        W82915  42.782  41.850  11.903
23622W        W82916  26.654  15.609   2.883
23623W        W82917  12.126   3.403  13.377
23624W        W82918   4.347  35.544  11.075
23625W        W82919  30.021  36.538  12.079
23626W        W82920  32.629  19.586   1.917
23627W        W82921  26.649   9.374  12.399
23628W        W82922  44.307  33.065   0.948
23629W        W82923  25.505   9.195  11.580
23630W        W82924  13.697  29.950   3.210
23631W        W82925  35.940   3.222   3.856
23632W        W82926   9.196  32.403  10.056
23633W        W82927  17.140  29.579   4.227
23634W        W82928  27.974   7.804   1.427
23635W        W82929  12.832   4.396  14.847
23636W        W82930   3.865   2.232   4.234
23637W        W82931  43.366  21.224   4.229
23638W        W82932  28.671  44.760  14.433
23639W        W82933   7.748   9.652   4.819
23640W        W82934  35.436  31.024   2.850
23641W        W82935   9.275   5.232  14.471
23642W        W82936  41.392  16.713   0.917
23643W        W82937  21.088  26.538   3.298
23644W        W82938  14.630   6.918  14.007
23645W        W82939  35.533   2.906   1.386
23646W        W82940  23.049  19.052   4.662
23647W        W82941  16.793  43.351   4.794
23648W        W82942  15.269  41.322  13.860
23649W        W82943   2.906  22.081   1.317
23650W        W82944  10.239  34.460   5.100
23651W        W82945  16.664  34.044   1.389
23652W        W82946  33.592   9.179  12.499
23653W        W82947  29.129  29.941  11.981
23654W        W82948  27.177  40.974  14.832
23655W        W82949  32.977  29.517  11.060
23656W        W82950  18.088  27.670  13.951
23657W        W82951   6.799  41.857  11.407
23658W        W82952  38.885  33.967   0.784
23659W        W82953  42.513  37.037   3.302
23660W        W82954  19.246  11.243   4.217
23661W        W82955  40.335   9.377  13.536
23662W        W82956  42.377  19.271  12.873
23663W        W82957  30.955  32.398   0.338
23664W        W82958   6.247  41.030  10.487
23665W        W82959  23.502  31.513  13.322
23666W        W82960  34.002  22.021   3.869
23667W        W82961  41.442  21.196   2.767
23668W        W82962  34.984  32.593   1.272
23669W        W82963   0.916  42.430   4.212
23670W        W82964  40.475  19.187  10.612
23671W        W82965  20.068  33.091   1.721
23672W        W82966   5.780   0.341  12.472
23673W        W82967  39.505  23.580  12.925
23674W        W82968   3.714  36.347  10.524
23675W        W82969  44.273  19.276   0.394
23676W        W82970  19.723  31.076   2.697
23677W        W82971   2.317  31.993   0.455
23678W        W82972   0.849  27.971  14.325
23679W        W82973  13.149   9.356  11.593
23680W        W82974   1.926  40.908   1.335
23681W        W82975  16.082  37.429  11.016
23682W        W82976  19.574  40.538   0.855
23683W        W82977  39.955  28.537  11.460
23684W        W82978  13.266  39.842   1.358
23685W        W82979  16.611   0.963  10.597
23686W        W82980  36.973  27.640   3.860
23687W        W82981  11.678   0.374  14.960
23688W        W82982   1.436  31.059   4.724
23689W        W82983  30.094   0.886  10.986
23690W        W82984  18.582  11.251  13.347
23691W        W82985  37.474   6.249  11.064
23692W        W82986  17.235   6.282  14.927
23693W        W82987  24.001   8.170   4.670
23694W        W82988  27.590  41.371   0.264
23695W        W82989  39.886   6.426  10.513
23696W        W82990  40.812  41.447  10.893
23697W        W82991  37.956  23.668  11.372
23698W        W82992  36.348  44.505   4.801
23699W        W82993   1.886  39.898   1.725
23700W        W82994  10.267   7.372  12.947
23701W        W82995  37.067  15.093   1.351
23702W        W82996  36.927   5.347  14.952
23703W        W82997  25.544  24.584   3.668
23704W        W82998   3.410  35.549   1.888
23705W        W82999  13.241  24.012   3.239
23706W        W83000  17.692  25.528  13.026
23707W        W83001   9.810   4.260   2.278
23708W        W83002  19.147  31.980   3.737
23709W        W83003  21.197  36.056  13.443
23710W        W83004  17.125  27.602   4.650
23711W        W83005  12.773  14.340   3.178
23712W        W83006  44.806   2.443   1.718
23713W        W83007  14.694   8.712   3.312
23714W        W83008  30.656  43.801  14.323
23715W        W83009  24.157  41.998  13.309
23716W        W83010   2.896  35.469   4.715
23717W        W83011  44.413  34.426  10.564
23718W        W83012   4.335  28.940  10.477
23719W        W83013  33.477  30.498   4.632
23720W        W83014  27.621   7.836   2.898
23721W        W83015  15.104  44.786   1.738
23722W        W83016  44.865  27.126  13.868
23723W        W83017  18.152  25.508   1.706
23724W        W83018  26.081   7.710  14.449
23725W        W83019   6.862  40.492  13.330
23726W        W83020  35.598  12.717  14.929
23727W        W83021   7.391  20.039   3.223
23728W        W83022  22.159  33.622   2.334
23729W        W83023  13.833   2.939  12.483
23730W        W83024  20.035   0.873   1.720
23731W        W83025   7.665   5.835   1.764
23732W        W83026   3.278  15.097   4.838
23733W        W83027  32.589   8.706   3.298
23734W        W83028  12.295   4.436   3.296
23735W        W83029  28.080  28.044   1.333
23736W        W83030  19.092  11.327  11.995
23737W        W83031   4.846  15.132   3.348
23738W        W83032  27.126  44.401  11.085
23739W        W83033  23.162  35.586  12.847
23740W        W83034  34.480   3.773  11.027
23741W        W83035   3.427  29.543  12.989
23742W        W83036  17.740  42.500   3.633
23743W        W83037  42.928  36.952   1.286
23744W        W83038  14.625   4.204  13.422
23745W        W83039  18.632   0.273   0.295
23746W        W83040  12.346  37.004  12.455
23747W        W83041  35.084  14.609  10.967
23748W        W83042  10.280  14.809   0.263
23749W        W83043  15.168   0.983  12.408
23750W        W83044  29.127  38.549   1.214
23751W        W83045  32.888  33.009   0.799
23752W        W83046  18.176  29.921   0.832
23753W        W83047  15.650  43.997   1.422
23754W        W83048  19.554  36.417  14.863
23755W        W83049  10.305  16.753  12.842
23756W        W83050  19.736  18.283  14.794
23757W        W83051  22.643  16.270   3.229
23758W        W83052  27.192  11.672  14.828
23759W        W83053   7.888  12.627   2.679
23760W        W83054  19.771   7.773  11.435
23761W        W83055  21.263   6.800   1.863
23762W        W83056   3.771  39.553  13.026
23763W        W83057  34.043  11.701   4.756
23764W        W83058  20.079  21.678  11.060
23765W        W83059   3.733  41.890   2.352
23766W        W83060  23.718  40.310  11.956
23767W        W83061  32.504  24.075  14.370
23768W        W83062  16.674  11.626   2.306
23769W        W83063  31.455  29.111   3.856
23770W        W83064  21.251  24.997   1.367
23771W        W83065  44.871  26.578   0.366
23772W        W83066   0.930   3.306   4.177
23773W        W83067  23.703  13.667   4.246
23774W        W83068   8.386  16.572  14.875
23775W        W83069   1.743  38.847  12.432
23776W        W83070   1.823  39.493   1.699
23777W        W83071  10.197  27.116  11.587
23778W        W83072  10.685  16.783  13.456
23779W        W83073   8.880   3.817   1.754
23780W        W83074  25.156  24.178  13.495
23781W        W83075  22.574   6.731   4.122
23782W        W83076  12.294   1.330  10.564
23783W        W83077   8.313  28.503  12.825
23784W        W83078   7.310  10.751   2.328
23785W        W83079  25.655   1.871   2.747
23786W        W83080   2.426  14.175   0.464
23787W        W83081  12.720  16.757  12.964
23788W        W83082  43.346   8.735   2.218
23789W        W83083  19.143  19.062  10.474
23790W        W83084   9.318  43.362  11.432
23791W        W83085   1.762  32.466  11.919
23792W        W83086   9.861  42.958   0.886
23793W        W83087  26.494  16.271   3.154
23794W        W83088  29.482  22.726   2.723
23795W        W83089  14.660  39.845  14.994
23796W        W83090  20.153  27.035  12.417
23797W        W83091  36.046  35.067  14.841
23798W        W83092  16.103   0.315  11.933
23799W        W83093  18.575  15.610   4.599
23800W        W83094   2.306  27.592  10.467
23801W        W83095  27.554   9.237  11.855
23802W        W83096  44.977  33.952  10.420
23803W        W83097  25.185  36.527  12.009
23804W        W83098  26.193  27.680  13.322
23805W        W83099  20.535  26.634   3.338
23806W        W83100   4.440  38.930   2.323
23807W        W83101  34.875  30.500  12.073
23808W        W83102  12.162   2.803  13.934
23809W        W83103   1.804  44.491   2.893
23810W        W83104  10.242  36.061   2.229
23811W        W83105   0.323  37.441  12.852
23812W        W83106  31.510  33.429   1.820
23813W        W83107  19.276  24.557  13.954
23814W        W83108   3.721  42.294  14.364
23815W        W83109  26.516  22.708  12.481
23816W        W83110   6.680  36.925  11.043
23817W        W83111   9.766  29.103   3.166
23818W        W83112  16.776  38.957   2.355
23819W        W83113  16.159  34.570   3.344
23820W        W83114   8.742  18.227  14.284
23821W        W83115   2.860  44.280  10.521
23822W        W83116  37.344  44.445  13.853
23823W        W83117   5.433   5.316   1.272
23824W        W83118  22.706  15.161   3.321
23825W        W83119  13.684  29.175  13.440
23826W        W83120  13.293  13.744   3.834
23827W        W83121  27.089  29.591  13.378
23828W        W83122  39.405  37.578  11.384
23829W        W83123  36.059  30.990   4.171
23830W        W83124  12.301   0.969  13.490
23831W        W83125  13.120   8.389  12.972
23832W        W83126  14.118   0.490   2.303
23833W        W83127  39.467  40.040  12.921
23834W        W83128  10.736  41.346  11.086
23835W        W83129  23.518  27.472  12.931
23836W        W83130  22.094  31.423  10.602
23837W        W83131  20.125   9.871  11.124
23838W        W83132   4.846  40.514   1.720
23839W        W83133  16.673  32.508   3.713
23840W        W83134  28.965  40.997   2.716
23841W        W83135  18.712  11.325   4.790
23842W        W83136   4.306   7.232   3.360
23843W        W83137   8.889  27.502  12.051
23844W        W83138   4.789  27.080  14.514
23845W        W83139  30.011   0.391   1.395
23846W        W83140  12.193  41.800  13.383
23847W        W83141  33.620  32.438  11.052
23848W        W83142  39.054  31.040  12.427
23849W        W83143  31.912   0.755  11.533
23850W        W83144  28.456   0.480   4.296
23851W        W83145   2.885  23.212   4.341
23852W        W83146  42.809  15.808  12.416
23853W        W83147  26.098  26.680  11.418
23854W        W83148  17.799  14.685  14.939
23855W        W83149  32.541  14.262   3.328
23856W        W83150  26.484  16.805   4.197
23857W        W83151  34.034   3.790   2.180
23858W        W83152  35.511  30.924  13.895
23859W        W83153  12.216  25.476  10.408
23860W        W83154  25.201  43.808   0.483
23861W        W83155   1.471   4.427  12.366
23862W        W83156  38.031  35.591   2.709
23863W        W83157  32.138  16.287   2.387
23864W        W83158   6.773  15.198   2.884
23865W        W83159   8.312  36.042  11.901
23866W        W83160  38.464   3.357   0.386
23867W        W83161  24.973  12.772  10.975
23868W        W83162  27.602   1.393  11.982
23869W        W83163  44.366  42.459  11.499
23870W        W83164  33.404  20.649  10.107
23871W        W83165   8.824  40.014  10.546
23872W        W83166  13.710  20.539  11.445
23873W        W83167  16.704  35.475  10.944
23874W        W83168  18.103  29.574  13.939
23875W        W83169  25.551  11.257  13.988
23876W        W83170  21.670  10.371  13.010
23877W        W83171   1.242  44.371   0.755
23878W        W83172   4.851  40.427   4.697
23879W        W83173   1.307  25.661   0.338
23880W        W83174  29.046   6.233   0.822
23881W        W83175  21.708   0.376   1.314
23882W        W83176  15.131  22.726   2.859
23883W        W83177   4.332  18.562  13.501
23884W        W83178  13.219  14.102   0.312
23885W        W83179   8.216  25.602  12.547
23886W        W83180  35.369  30.583   3.735
23887W        W83181  30.579  31.582   4.260
23888W        W83182  34.882  44.471  11.612
23889W        W83183  11.351  17.593   2.696
23890W        W83184   2.446   4.385  11.900
23891W        W83185  23.189   7.246  13.883
23892W        W83186  13.677  19.176   2.797
23893W        W83187  33.387   7.185   2.854
23894W        W83188  29.434   1.420  12.512
23895W        W83189  42.775   1.795   0.857
23896W        W83190  21.092  35.079   3.737
23897W        W83191  25.698   6.742   1.316
23898W        W83192  37.986  24.117  14.941
23899W        W83193  19.649  28.096   1.243
23900W        W83194  16.274  33.933  14.286
23901W        W83195  26.101  15.258  12.832
23902W        W83196  14.738  17.750   3.230
23903W        W83197  21.637  31.937   1.771
23904W        W83198  35.975  23.659  14.951
23905W        W83199   7.401  31.920  12.367
23906W        W83200   5.833  24.705   4.253
23907W        W83201  11.132  31.902   1.226
23908W        W83202  43.334  18.251   3.155
23909W        W83203  35.095  43.915  12.907
23910W        W83204  23.531   8.398   3.680
23911W        W83205  28.671   3.825   1.336
23912W        W83206   6.299   5.693  10.124
23913W        W83207   9.261  27.051  14.026
23914W        W83208  13.607  39.054   0.910
23915W        W83209  36.449  17.570   4.745
23916W        W83210  27.137  35.857   4.116
23917W        W83211  27.482  12.617  12.422
23918W        W83212  19.189  15.195   3.860
23919W        W83213  31.466   7.397  14.447
23920W        W83214  22.522  34.499   0.450
23921W        W83215  34.953  34.606   3.168
23922W        W83216   1.862  29.506   3.241
23923W        W83217   7.393   8.730   4.353
23924W        W83218   0.828  20.597   0.361
23925W        W83219   0.470   7.308  10.478
23926W        W83220  38.393   3.449   4.195
23927W        W83221  11.262   1.436   4.147
23928W        W83222  37.959  26.153   4.810
23929W        W83223   3.454  18.688  13.919
23930W        W83224  32.619  41.794  10.530
23931W        W83225  11.858  24.527   0.830
23932W        W83226  15.582  40.966   1.867
23933W        W83227  24.716  19.654  11.557
23934W        W83228  29.445  36.997   3.363
23935W        W83229   1.877  36.898   3.688
23936W        W83230  32.029  20.057   4.713
23937W        W83231   9.374   6.859  10.477
23938W        W83232  17.063  22.215   1.735
23939W        W83233  28.442  36.069  11.974
23940W        W83234  39.540   7.310  12.494
23941W        W83235  35.380  35.084   4.798
23942W        W83236  25.547  29.170   3.175
23943W        W83237  19.562  11.150  13.526
23944W        W83238  30.971  38.040   2.180
23945W        W83239   5.335  35.080   4.639
23946W        W83240  19.559   3.316  12.502
23947W        W83241  36.882  24.482  13.398
23948W        W83242  39.467  31.147   3.152
23949W        W83243   0.969  20.060   0.413
23950W        W83244  16.728  44.887  11.440
23951W        W83245  13.736  11.367   0.405
23952W        W83246  31.505   6.243   0.351
23953W        W83247   5.263  20.603   0.473
23954W        W83248   7.675  26.982  13.805
23955W        W83249   6.279  27.041  12.059
23956W        W83250  29.039  25.146  10.567
23957W        W83251  43.893  34.981   4.781
23958W        W83252  28.171  25.580  13.942
23959W        W83253  31.471   4.767   2.837
23960W        W83254  14.746  22.526  11.413
23961W        W83255  31.626  17.589  12.557
23962W        W83256   2.440  39.925   0.805
23963W        W83257  19.703  31.494   4.292
23964W        W83258  22.503  12.768   3.696
23965W        W83259   3.451  40.311  10.526
23966W        W83260  27.614  25.137   0.448
23967W        W83261  20.719  43.398  12.852
23968W        W83262  35.523  25.606   0.849
23969W        W83263  22.670   7.699  14.440
23970W        W83264  16.612  38.949  12.930
23971W        W83265  11.184  20.223   0.368
23972W        W83266   3.444  12.698   0.786
23973W        W83267  36.060   0.790   4.139
23974W        W83268  44.355  33.013   1.773
23975W        W83269  27.593  19.584   0.915
23976W        W83270  23.562  22.548   4.741
23977W        W83271  43.927  11.833  10.938
23978W        W83272   6.265  35.478  14.874
23979W        W83273  43.000  34.929   0.439
23980W        W83274   0.927  20.653   3.220
23981W        W83275  14.183  22.550  13.327
23982W        W83276  32.094  19.697   2.862
23983W        W83277  14.800  34.011   2.325
23984W        W83278  15.222  34.572  13.337
23985W        W83279  14.690  10.804  14.900
23986W        W83280   5.838  40.384   2.381
23987W        W83281  40.865  27.109   1.817
23988W        W83282   2.384  26.468   1.760
23989W        W83283  15.723  15.234  13.348
23990W        W83284  35.576  44.427  14.413
23991W        W83285  12.190  36.519  10.464
23992W        W83286  31.067  17.698  10.467
23993W        W83287  15.257   0.787  13.793
23994W        W83288  44.948  19.241   4.279
23995W        W83289  37.459  15.109  11.499
23996W        W83290   7.842  18.547   1.757
23997W        W83291   3.711   9.382   0.756
23998W        W83292  38.976  18.649  13.468
23999W        W83293   0.757  25.998  11.064
24000W        W83294  13.709  31.429  11.490
24001W        W83295  16.078   2.251   4.709
24002W        W83296   3.371  17.119  12.394
24003W        W83297   7.336  22.081   1.388
24004W        W83298  28.569   4.857   2.889
24005W        W83299  10.733  17.065  12.423
24006W        W83300  30.447   5.288  11.539
24007W        W83301  41.021  11.150  10.545
24008W        W83302  26.086  19.157  14.494
24009W        W83303  26.963  35.878  13.490
24010W        W83304  10.312  36.557   3.244
24011W        W83305   9.281  12.123  12.393
24012W        W83306  32.619  40.048  12.473
24013W        W83307  22.602   1.476   0.454
24014W        W83308  30.139  23.121  11.022
24015W        W83309  44.928  41.814  12.874
24016W        W83310  10.324  39.936  12.907
24017W        W83311   6.807   2.745  11.983
24018W        W83312  34.377  22.741   1.828
24019W        W83313  14.598   3.390   4.141
24020W        W83314   8.733   2.306   1.233
24021W        W83315   1.466  22.644  13.311
24022W        W83316  17.747  44.375  13.344
24023W        W83317  16.714  36.993  12.839
24024W        W83318   5.199  24.724   2.845
24025W        W83319   2.758  34.420   1.757
24026W        W83320  36.408  44.802  13.472
24027W        W83321  14.792  17.598   1.338
24028W        W83322  31.971  25.034  12.898
24029W        W83323   4.740  30.001  14.013
24030W        W83324  13.297  30.960   4.710
24031W        W83325  39.463   5.887   0.437
24032W        W83326  33.023   3.351  11.054
24033W        W83327   0.965  22.161   3.278
24034W        W83328  17.650  16.275  13.816
24035W        W83329  23.512  10.657   3.854
24036W        W83330  16.694  34.988   4.249
24037W        W83331  11.771  31.620  12.406
24038W        W83332  38.478  39.901   4.197
24039W        W83333  21.087  33.926   2.763
24040W        W83334  24.077  10.766   0.255
24041W        W83335   9.348  13.825   0.870
24042W        W83336   6.353   1.966  14.912
24043W        W83337   2.756  25.168   0.853
24044W        W83338   1.430   1.352  11.481
24045W        W83339  13.632   1.345   3.220
24046W        W83340  39.560  39.038   4.708
24047W        W83341   7.705  44.498   4.179
24048W        W83342  23.524  14.719  14.455
24049W        W83343  24.701   5.908  13.790
24050W        W83344  11.772   1.875  14.792
24051W        W83345  37.975  16.778   1.892
24052W        W83346  13.648   6.186  14.007
24053W        W83347   2.950  31.524  12.426
24054W        W83348   3.307   3.720   4.206
24055W        W83349  40.023  14.821   2.870
24056W        W83350   6.232  43.345   3.711
24057W        W83351  27.546  41.446   0.799
24058W        W83352  26.159  27.456  10.636
24059W        W83353  43.917  12.697  12.580
24060W        W83354  38.479  10.734  14.963
24061W        W83355   5.254  44.425   3.384
24062W        W83356  38.069   0.815  10.913
24063W        W83357   3.944   5.747   3.742
24064W        W83358  22.172  25.696  10.488
24065W        W83359  21.528  18.162   0.417
24066W        W83360  14.258  19.572  13.861
24067W        W83361  19.184  10.714   1.923
24068W        W83362  14.297  34.092  11.372
24069W        W83363  29.499  36.393  11.950
24070W        W83364   6.325  43.012   4.205
24071W        W83365   9.217  18.208   4.775
24072W        W83366   3.303  41.815   3.822
24073W        W83367   0.988  21.591   2.730
24074W        W83368  37.489  42.480  13.996
24075W        W83369   7.829  29.630   1.732
24076W        W83370  37.952  23.611   5.264
24077W        W83371   3.314   5.750   4.305
24078W        W83372   9.846  22.022  11.920
24079W        W83373  36.387  15.636  12.577
24080W        W83374  23.127   5.235   1.214
24081W        W83375  23.570  40.412  14.026
24082W        W83376  35.903  20.124   1.780
24083W        W83377   4.366  33.461  12.512
24084W        W83378  38.910  20.699  12.845
24085W        W83379  29.989   6.851  11.071
24086W        W83380  24.662  23.665   1.220
24087W        W83381  17.637   1.452  14.275
24088W        W83382  28.625   7.668  12.083
24089W        W83383  31.593  39.929  11.869
24090W        W83384  35.583  33.875  14.982
24091W        W83385   9.644  22.635  10.496
24092W        W83386   5.302  25.646   4.219
24093W        W83387  16.283  12.852  10.908
24094W        W83388   1.455  29.920   1.804
24095W        W83389  25.009  30.569  10.998
24096W        W83390   0.923  17.236  13.949
24097W        W83391  34.397  29.550  14.947
24098W        W83392  22.210  38.941  10.524
24099W        W83393  44.259  44.500  11.590
24100W        W83394  24.591  36.089  10.932
24101W        W83395  25.496   0.953   5.148
24102W        W83396  44.349  30.431  13.939
24103W        W83397   1.761  42.501  11.942
24104W        W83398  10.673   0.492  11.010
24105W        W83399  40.493  36.881   2.412
24106W        W83400   7.325  33.574  12.042
24107W        W83401   6.792  37.437   0.945
24108W        W83402  25.185  25.639   2.860
24109W        W83403  23.543  35.382   3.761
24110W        W83404   1.787   9.339  11.020
24111W        W83405  24.975  30.488   1.790
24112W        W83406  16.716  32.061  12.490
24113W        W83407  29.467  18.275  10.636
24114W        W83408  17.689  37.486   3.322
24115W        W83409   2.892  14.822  13.503
24116W        W83410  31.534  37.353   2.716
24117W        W83411  29.655  38.384  13.896
24118W        W83412   7.883  33.395   2.802
24119W        W83413  25.553  38.869   2.798
24120W        W83414  37.537   2.338  12.529
24121W        W83415  41.026  44.875   0.795
24122W        W83416  14.214  32.529  10.948
24123W        W83417  11.287  40.381   1.341
24124W        W83418  24.623  29.965   0.258
24125W        W83419  40.496  22.106   3.656
24126W        W83420  41.967  19.695   1.883
24127W        W83421  42.438  20.120   1.761
24128W        W83422  14.779  43.450  13.446
24129W        W83423  24.144  28.090  10.457
24130W        W83424  25.207   3.421  11.027
24131W        W83425  17.078   2.942  14.366
24132W        W83426  44.984   5.737  10.554
24133W        W83427   3.754   0.944  10.634
24134W        W83428   0.944   4.418   1.775
24135W        W83429  41.297   9.320  14.901
24136W        W83430   9.284  43.923   0.426
24137W        W83431  38.516  44.901   2.297
24138W        W83432  38.357  20.558   3.289
24139W        W83433  26.143  41.309   1.269
24140W        W83434  24.696   5.847  14.871
24141W        W83435   0.345  35.013  13.838
24142W        W83436  29.162  41.510  11.912
24143W        W83437   2.887  18.111  12.084
24144W        W83438  20.196  20.157   2.353
24145W        W83439   3.907  11.224   4.209
24146W        W83440  40.393  16.269   2.222
24147W        W83441  14.134  31.086   1.295
24148W        W83442   9.802  22.035   2.684
24149W        W83443  32.596   8.688  12.046
24150W        W83444  10.347   8.312   1.931
24151W        W83445   9.389   0.941   3.332
24152W        W83446  25.031  33.429   1.923
24153W        W83447   8.879   4.758  10.635
24154W        W83448   3.406  42.370   4.828
24155W        W83449  42.380  29.554  12.491
24156W        W83450  31.600  16.771   4.751
24157W        W83451  21.646  16.290   0.470
24158W        W83452  37.530  31.959   4.182
24159W        W83453  14.739  43.287   0.958
24160W        W83454  12.183  31.119  13.928
24161W        W83455  24.102  29.069  11.530
24162W        W83456   6.903  18.565   4.756
24163W        W83457   1.935  25.565   5.151
24164W        W83458  32.502   0.488   4.714
24165W        W83459   9.730  21.559  13.334
24166W        W83460  44.443  16.288   1.265
24167W        W83461  40.465  15.183   2.700
24168W        W83462  10.821  29.043  11.516
24169W        W83463  36.884  22.201  14.313
24170W        W83464  11.270   5.433  11.963
24171W        W83465  22.088   4.771   1.783
24172W        W83466  16.187  12.248  11.587
24173W        W83467   4.251  28.437  14.369
24174W        W83468  22.078  32.073  13.929
24175W        W83469  25.189  42.015   1.779
24176W        W83470   3.953  18.172  11.414
24177W        W83471  14.602  26.457   3.298
24178W        W83472  32.607  37.559   1.929
24179W        W83473   1.858  25.476  12.988
24180W        W83474  13.128  17.294  14.450
24181W        W83475   1.285  31.083  12.522
24182W        W83476   2.453  10.744   4.754
24183W        W83477  22.165   1.261   1.800
24184W        W83478  24.202  11.359   4.142
24185W        W83479  38.511  39.962  10.979
24186W        W83480   6.831  34.013  10.592
24187W        W83481  28.159  30.986   1.253
24188W        W83482  39.949  21.625  12.058
24189W        W83483  31.964  23.190   3.277
24190W        W83484  18.748   1.963  13.025
24191W        W83485  27.622  36.971   5.609
24192W        W83486  44.271  26.530  14.453
24193W        W83487  24.115  12.670  13.478
24194W        W83488  29.451   5.433  10.509
24195W        W83489   5.860   8.720   3.642
24196W        W83490  10.748  24.695  13.870
24197W        W83491  26.137  32.981   4.717
24198W        W83492   5.255  13.753   2.778
24199W        W83493  37.893  29.612   4.229
24200W        W83494  30.968  21.202  12.352
24201W        W83495  37.407  10.218  13.866
24202W        W83496  38.377  19.674   1.835
24203W        W83497   9.719   3.258  12.038
24204W        W83498  41.886  37.403  11.035
24205W        W83499  13.776  31.113   4.263
24206W        W83500  28.024   6.319   2.194
24207W        W83501  17.668  12.156   2.235
24208W        W83502  12.318  13.299   4.217
24209W        W83503  26.063  40.387  13.379
24210W        W83504  13.713   4.932   2.345
24211W        W83505  18.786   4.216  12.834
24212W        W83506  14.315  43.386  11.537
24213W        W83507  14.680   1.404   4.309
24214W        W83508   0.252   5.390   0.901
24215W        W83509  31.059  12.742  12.933
24216W        W83510  20.656  44.429  12.494
24217W        W83511  39.528  33.563  11.563
24218W        W83512  28.488   3.239   1.295
24219W        W83513  25.627  24.034  13.455
24220W        W83514   5.347  16.149  12.473
24221W        W83515  34.491  21.222   0.463
24222W        W83516  23.223  43.788   0.397
24223W        W83517   7.727  17.189   2.862
24224W        W83518  26.139  13.655   0.869
24225W        W83519  35.087  39.840  14.854
24226W        W83520   4.936  18.571  14.761
24227W        W83521   2.737  12.640  13.964
24228W        W83522  27.484  41.041  10.515
24229W        W83523  36.356  13.268  10.938
24230W        W83524   9.792   9.726   4.220
24231W        W83525  10.182  14.762  14.333
24232W        W83526  26.488  10.693   3.260
24233W        W83527  28.510  21.549  14.919
24234W        W83528   9.865  13.339  13.489
24235W        W83529  22.089  27.465   2.321
24236W        W83530   1.788  27.145  11.982
24237W        W83531  33.620  42.416  14.293
24238W        W83532  14.601  26.608  12.577
24239W        W83533  40.474  43.481   4.619
24240W        W83534   6.339  23.696  12.848
24241W        W83535  18.616  40.860  14.784
24242W        W83536  39.899   6.288  14.388
24243W        W83537  42.848  34.433  10.448
24244W        W83538   3.886  29.561   4.255
24245W        W83539  25.116   3.712   3.657
24246W        W83540  29.938  15.745  13.478
24247W        W83541  15.313  33.388   3.701
24248W        W83542  38.862  11.302  11.533
24249W        W83543  31.123  30.031  13.039
24250W        W83544  41.293  39.826  11.406
24251W        W83545  37.473  22.668  14.292
24252W        W83546  44.912  33.561   4.148
24253W        W83547  23.572  38.501  11.970
24254W        W83548   2.267  33.553   2.193
24255W        W83549  33.881  40.982   1.417
24256W        W83550   0.477  33.612  11.457
24257W        W83551   6.785  36.901   2.221
24258W        W83552  39.822  32.028   4.707
24259W        W83553  14.796  40.045  10.138
24260W        W83554  34.068  22.169  10.972
24261W        W83555  19.557  14.315  10.485
24262W        W83556   5.315  18.785  10.501
24263W        W83557  42.973  25.034  10.995
24264W        W83558  18.130  21.201   2.346
24265W        W83559  14.751   2.353  13.337
24266W        W83560  41.468  23.626   1.429
24267W        W83561  43.770  36.575   3.253
24268W        W83562  42.484  27.146   4.740
24269W        W83563  21.597  28.153  14.904
24270W        W83564  14.247  10.373   2.347
24271W        W83565   5.319  35.555   2.667
24272W        W83566  25.033  17.228   4.797
24273W        W83567  13.776   2.430   1.888
24274W        W83568  25.199  33.902   0.473
24275W        W83569  35.049  34.895   3.755
24276W        W83570  35.541   9.645   3.183
24277W        W83571  29.984   5.717  12.985
24278W        W83572  11.243  33.874  11.445
24279W        W83573  37.073  16.645  13.844
24280W        W83574   3.398  27.662  13.966
24281W        W83575  30.623  18.278   1.359
24282W        W83576  42.497  14.714  13.057
24283W        W83577  27.689  17.743   4.660
24284W        W83578  44.917   2.235  13.963
24285W        W83579  25.107   6.404  12.401
24286W        W83580   2.336  35.394   0.396
24287W        W83581  25.160  33.383   0.965
24288W        W83582  26.619  19.617   3.870
24289W        W83583   6.876  22.223  14.993
24290W        W83584  26.976  41.434  11.510
24291W        W83585  13.116  35.869   0.784
24292W        W83586  13.308  36.011   3.309
24293W        W83587  28.673  36.421  13.470
24294W        W83588  44.989  21.747   3.794
24295W        W83589  23.515   1.957  14.495
24296W        W83590   6.808  32.085   0.427
24297W        W83591  18.655  25.212  12.866
24298W        W83592  22.678  16.696  14.369
24299W        W83593  38.054  40.382   0.840
24300W        W83594  41.526  26.589  14.819
24301W        W83595  16.206   1.943  10.487
24302W        W83596  17.139  30.916   3.325
24303W        W83597  43.376   8.339   4.705
24304W        W83598  40.380  36.382   2.362
24305W        W83599  22.059  35.001   3.726
24306W        W83600  33.091  29.938   1.338
24307W        W83601  42.785  32.953  10.494
24308W        W83602  41.422  33.462   4.320
24309W        W83603  37.962  35.923   2.357
24310W        W83604  22.666   0.800  10.040
24311W        W83605  24.574  14.123   2.890
24312W        W83606  31.535  31.526  13.395
24313W        W83607  38.904  21.029   2.331
24314W        W83608  21.123  12.648   1.889
24315W        W83609  16.239   4.830  13.999
24316W        W83610  35.538  19.754  12.999
24317W        W83611  24.645  42.329  11.563
24318W        W83612  43.408  32.576  11.570
24319W        W83613   9.152  15.306  12.438
24320W        W83614   1.341   3.279   2.379
24321W        W83615  15.664  16.584   0.855
24322W        W83616  10.378   4.327   9.940
24323W        W83617  11.859  44.420  13.036
24324W        W83618   2.942   4.344   3.336
24325W        W83619  15.743  21.195   1.921
24326W        W83620  26.642  26.049  10.990
24327W        W83621  36.020  24.980  10.518
24328W        W83622  18.133  25.672  10.511
24329W        W83623  23.521  13.232  13.029
24330W        W83624  20.236  14.695   2.188
24331W        W83625  27.467  26.463   0.954
24332W        W83626   3.395   1.453   0.843
24333W        W83627  20.046  10.817  12.576
24334W        W83628  28.090  32.596  13.541
24335W        W83629  44.807  14.244   2.376
24336W        W83630  37.033  26.175  14.277
24337W        W83631  34.098  23.172   3.377
24338W        W83632  18.549  23.993   3.779
24339W        W83633  43.474  11.138   3.847
24340W        W83634   0.439  38.822   4.239
24341W        W83635   1.253   7.396   3.793
24342W        W83636   5.733  34.940   3.365
24343W        W83637  44.360  26.604   3.839
24344W        W83638   4.252  12.144   2.709
24345W        W83639  13.343   6.403   2.813
24346W        W83640   6.201  19.759  12.367
24347W        W83641  26.142  27.092   2.407
24348W        W83642  37.044  23.097  13.844
24349W        W83643   1.258  28.987   3.753
24350W        W83644  42.838  38.493   4.190
24351W        W83645  13.260  26.484  12.998
24352W        W83646  41.853   8.806   3.183
24353W        W83647  14.338  31.492  10.597
24354W        W83648  33.415  24.688  12.490
24355W        W83649  23.677   3.916  10.564
24356W        W83650  12.197  10.283   1.313
24357W        W83651  20.696  31.913  11.932
24358W        W83652  40.340  10.845   1.430
24359W        W83653  36.921   6.263   2.883
24360W        W83654  24.125   9.774  12.079
24361W        W83655  23.623   1.254   2.776
24362W        W83656  30.575  37.899  11.511
24363W        W83657  13.257  14.812  14.316
24364W        W83658  30.620  18.567   2.737
24365W        W83659  26.576  32.048   0.913
24366W        W83660   7.727  16.657   3.839
24367W        W83661  22.719   4.769   2.852
24368W        W83662  36.095  24.117   0.939
24369W        W83663  11.362   6.781  13.381
24370W        W83664  37.500  38.842  13.340
24371W        W83665  42.820  10.324  12.424
24372W        W83666   2.819  21.180   1.747
24373W        W83667  29.097  31.953  12.359
24374W        W83668  33.552  33.074  12.061
24375W        W83669   0.299   1.878  13.365
24376W        W83670  12.854  10.856   2.739
24377W        W83671  34.940  13.127   4.324
24378W        W83672  40.945  22.173   0.803
24379W        W83673  38.827  26.167  11.593
24380W        W83674   1.244  12.740   1.375
24381W        W83675  43.471  18.614  14.329
24382W        W83676  25.130  32.889  12.837
24383W        W83677  29.077   1.240  13.420
24384W        W83678  38.908   9.857   1.249
24385W        W83679   9.652  36.972   0.402
24386W        W83680   3.311  24.544  10.503
24387W        W83681  35.470   0.286  14.847
24388W        W83682   5.276  28.546   4.193
24389W        W83683   6.427  17.559   0.325
24390W        W83684  23.000  28.002  14.502
24391W        W83685   6.313  22.152   3.212
24392W        W83686  34.884  29.072   0.908
24393W        W83687  40.509   3.953   0.956
24394W        W83688  37.364  26.173  12.447
24395W        W83689  33.385  40.047   3.179
24396W        W83690  15.790  23.211  12.473
24397W        W83691  29.428  39.950  12.960
24398W        W83692  10.156  41.788   2.221
24399W        W83693  42.347  16.723   4.626
24400W        W83694  28.646  24.046  10.584
24401W        W83695   9.151  20.266   4.235
24402W        W83696   2.855   0.983  11.501
24403W        W83697  13.146  39.481   1.437
24404W        W83698  17.580   8.815   3.664
24405W        W83699  28.946   2.829   1.911
24406W        W83700  31.108  22.618   4.714
24407W        W83701  18.569   4.286   0.354
24408W        W83702  44.275  11.739  14.802
24409W        W83703  37.498  44.802   1.788
24410W        W83704  24.137  44.849  13.061
24411W        W83705  15.145  39.883  13.059
24412W        W83706  24.151  11.318   1.287
24413W        W83707  13.130   7.830   0.394
24414W        W83708  25.583   8.266  14.450
24415W        W83709  20.665   4.434   3.265
24416W        W83710   7.888   9.296   1.810
24417W        W83711  16.254  31.574  10.603
24418W        W83712   6.230  42.828  10.068
24419W        W83713  20.744  13.726  14.417
24420W        W83714  21.184  23.125  11.473
24421W        W83715   1.242  21.653  10.513
24422W        W83716  39.006  43.368  14.482
24423W        W83717  24.065  34.016  12.825
24424W        W83718   8.735  18.717   1.281
24425W        W83719  44.463  38.496  14.445
24426W        W83720   1.430  12.201   0.938
24427W        W83721  23.658  28.436  12.882
24428W        W83722  35.559  26.599  10.913
24429W        W83723  29.604  23.587  10.572
24430W        W83724  26.467  19.642  13.334
24431W        W83725  24.513   4.254  13.363
24432W        W83726  17.090   9.225   2.284
24433W        W83727  42.027  31.635  12.931
24434W        W83728  35.913  32.587   3.204
24435W        W83729   1.459  19.562   0.806
24436W        W83730  39.393   8.719   0.759
24437W        W83731  31.138   0.463   1.857
24438W        W83732  12.292  20.223  12.046
24439W        W83733   0.947   3.888  14.987
24440W        W83734  42.351  32.430   3.165
24441W        W83735  38.900   4.281   2.662
24442W        W83736  19.603   7.360  14.485
24443W        W83737  31.141  36.048  14.476
24444W        W83738  40.520   7.274   3.736
24445W        W83739  24.504  15.651  13.408
24446W        W83740  24.554  42.936  11.018
24447W        W83741  12.769  28.086  14.870
24448W        W83742  17.735  10.305  11.586
24449W        W83743   6.196   5.875   2.259
24450W        W83744  10.297  25.532   3.735
24451W        W83745  28.506   6.364  11.555
24452W        W83746  10.705   6.286   3.659
24453W        W83747  11.702  19.745   4.258
24454W        W83748  38.362  22.686  10.444
24455W        W83749   3.833  35.508   4.691
24456W        W83750   8.305  29.101   9.674
24457W        W83751  41.843   6.735  12.084
24458W        W83752   6.892   9.320  13.365
24459W        W83753  13.285  21.190   3.269
24460W        W83754   5.826  34.448   3.165
24461W        W83755  44.878  14.665   2.203
24462W        W83756  40.444  39.857   3.735
24463W        W83757  33.498  26.472   4.601
24464W        W83758  24.171  35.448   0.929
24465W        W83759   2.734  10.237  14.906
24466W        W83760  35.375  39.952   3.307
24467W        W83761  28.663   7.185  14.298
24468W        W83762  26.061  33.936   2.775
24469W        W83763  26.657  17.121   4.144
24470W        W83764  20.645  43.839  12.468
24471W        W83765   9.297   7.805  14.779
24472W        W83766  16.309  41.454   2.250
24473W        W83767  40.007  17.669   2.884
24474W        W83768  21.128   8.811  12.439
24475W        W83769   0.744  30.559  13.348
24476W        W83770  30.023  42.783  14.947
24477W        W83771  40.468  37.998   4.245
24478W        W83772  27.620   0.443   3.859
24479W        W83773  44.896  23.519  11.882
24480W        W83774  14.333  18.089   2.735
24481W        W83775   6.877   7.778   0.324
24482W        W83776  23.631  35.900  12.499
24483W        W83777  30.508  24.608   1.866
24484W        W83778  40.426  13.287   1.326
24485W        W83779  30.448   8.759   1.298
24486W        W83780  15.263   2.469   4.286
24487W        W83781  36.535  40.001   4.233
24488W        W83782  40.920  34.555   2.305
24489W        W83783   4.218   6.367  12.417
24490W        W83784  39.998  27.004   0.736
24491W        W83785  40.951  16.218   1.391
24492W        W83786  39.398  29.074   1.916
24493W        W83787  38.957  39.987   3.313
24494W        W83788  24.626  34.009   3.776
24495W        W83789   2.460  10.329   2.748
24496W        W83790   3.289  19.542   3.163
24497W        W83791   7.356  25.701   3.168
24498W        W83792  13.153  38.953   2.274
24499W        W83793  39.881  22.187   2.316
24500W        W83794  31.626  14.756   1.853
24501W        W83795  19.763  22.640   4.347
24502W        W83796  10.801  10.762  10.630
24503W        W83797  24.598  22.086  11.110
24504W        W83798   0.359   1.839   0.740
24505W        W83799  33.521   8.297   5.690
24506W        W83800  33.116  20.554   1.286
24507W        W83801  27.026  15.758  13.036
24508W        W83802  23.005  40.306   2.266
24509W        W83803  18.686   8.730   2.821
24510W        W83804  35.868   1.816  14.431
24511W        W83805  43.930  25.634   0.261
24512W        W83806  30.556  34.443   0.443
24513W        W83807  34.584  42.029   4.346
24514W        W83808   7.372  37.081  12.966
24515W        W83809  35.095  40.045   4.700
24516W        W83810  27.541  42.841   1.735
24517W        W83811  18.663  22.191  12.959
24518W        W83812  35.949  34.467   3.810
24519W        W83813  16.753  10.696   1.388
24520W        W83814  30.657  23.736  12.364
24521W        W83815   7.215   6.782  14.340
24522W        W83816   6.397  25.532   0.899
24523W        W83817   1.264  40.432   4.601
24524W        W83818  29.573  11.842  14.980
24525W        W83819  41.954  12.816   2.850
24526W        W83820  25.150  17.750   2.663
24527W        W83821  29.015  32.623   1.743
24528W        W83822  13.672  18.708  11.967
24529W        W83823   6.704  13.186  11.904
24530W        W83824  20.087  22.578   1.340
24531W        W83825  21.727  14.676   4.786
24532W        W83826  15.795  24.974  10.932
24533W        W83827  22.105  44.875  13.936
24534W        W83828  38.562  22.055   2.679
24535W        W83829   1.426  43.972   0.478
24536W        W83830  12.330  17.617   3.177
24537W        W83831  43.402  38.553   4.216
24538W        W83832  38.063   3.401  14.897
24539W        W83833  18.742   0.358  14.483
24540W        W83834   3.807   3.853  11.526
24541W        W83835  33.994  36.576  12.080
24542W        W83836  38.480   6.252  12.935
24543W        W83837  25.987  16.754  13.852
24544W        W83838  42.813   2.741  11.406
24545W        W83839  32.938  34.526   2.178
24546W        W83840   1.482  44.756   1.242
24547W        W83841   7.842  12.776   4.801
24548W        W83842   0.806   4.442  11.980
24549W        W83843  21.108  22.244  12.491
24550W        W83844  26.029  25.042  10.522
24551W        W83845   3.785   2.286  13.965
24552W        W83846  36.991  13.822  11.857
24553W        W83847  31.489   4.272  11.060
24554W        W83848  17.686  11.698   0.461
24555W        W83849  20.748  16.303   2.300
24556W        W83850  43.988  19.602   2.316
24557W        W83851   6.209  14.320  13.798
24558W        W83852  29.589  21.146   4.136
24559W        W83853   6.911   2.274  13.397
24560W        W83854   6.356  41.879   0.368
24561W        W83855   6.275  44.290  14.812
24562W        W83856  30.981   3.311  14.362
24563W        W83857  26.501  14.171  12.974
24564W        W83858   6.221   4.779   2.740
24565W        W83859  44.974  24.551  13.375
24566W        W83860  35.976  40.805  13.817
24567W        W83861  30.951  36.984   3.665
24568W        W83862  30.504  41.325  11.105
24569W        W83863  37.564   4.886   4.321
24570W        W83864   3.450   4.329  11.557
24571W        W83865  38.989  28.531   4.779
24572W        W83866  28.524  27.077   4.327
24573W        W83867   5.766  31.608  14.906
24574W        W83868   7.210  32.636  13.810
24575W        W83869  18.147  22.734  14.481
24576W        W83870  34.926  37.428   4.764
24577W        W83871  41.299  37.382  14.369
24578W        W83872  34.449  17.135  11.461
24579W        W83873  41.865  29.667   3.156
24580W        W83874   7.333  21.568   2.217
24581W        W83875  14.788  16.110  13.939
24582W        W83876   0.285  41.533  14.284
24583W        W83877  37.458  37.899  10.129
24584W        W83878  14.679   5.836  14.842
24585W        W83879  17.713  16.237   4.670
24586W        W83880  30.091  16.646   0.758
24587W        W83881  26.687  44.304   0.379
24588W        W83882   7.362   8.186  10.933
24589W        W83883  17.639   6.755  11.965
24590W        W83884  29.136  29.034   3.729
24591W        W83885  29.162  42.876  10.481
24592W        W83886   9.207  17.212   9.976
24593W        W83887  30.416   5.226   1.851
24594W        W83888  22.525  11.196   4.248
24595W        W83889  37.392  37.885  14.470
24596W        W83890  32.138  36.538   5.217
24597W        W83891  15.254  36.905   0.792
24598W        W83892  36.531  26.702  13.962
24599W        W83893   4.265  39.057   2.697
24600W        W83894  31.926  28.517  13.441
24601W        W83895  36.960   3.733  10.502
24602W        W83896  33.455   3.907  11.049
24603W        W83897  19.269  30.420  10.606
24604W        W83898  40.955   2.781  14.412
24605W        W83899  21.572  38.028   1.446
24606W        W83900  29.574  29.626  13.987
24607W        W83901  42.436   2.903  11.869
24608W        W83902  24.161  12.187  11.909
24609W        W83903  41.043  31.585  14.878
24610W        W83904   8.883  17.100  14.794
24611W        W83905  19.673  23.698  14.783
24612W        W83906   7.414  32.954  11.063
24613W        W83907  28.140   9.372  14.356
24614W        W83908  19.660  42.850  10.537
24615W        W83909  29.024  34.013   4.122
24616W        W83910  43.508  31.646   3.337
24617W        W83911   7.775  16.262  10.430
24618W        W83912  32.569  25.039   4.699
24619W        W83913   1.919  11.848   4.637
24620W        W83914  13.330  38.531  12.348
24621W        W83915  18.568  34.573  12.340
24622W        W83916  31.138  24.597   4.311
24623W        W83917  25.000  38.489  10.931
24624W        W83918  27.979   8.366  10.520
24625W        W83919   4.712  11.747   4.342
24626W        W83920  15.165  35.928   3.170
24627W        W83921  14.167  40.362   1.440
24628W        W83922  13.668  15.596   9.983
24629W        W83923  11.780   0.974   3.839
24630W        W83924  34.924  14.263  12.888
24631W        W83925  28.080  31.051  13.048
24632W        W83926  16.261  26.075   3.826
24633W        W83927  40.898  11.218  12.876
24634W        W83928   5.735  31.934  12.533
24635W        W83929  41.423  17.148   0.840
24636W        W83930  44.486   1.921  11.032
24637W        W83931  40.345  41.446  14.482
24638W        W83932   8.173  44.288  12.341
24639W        W83933  38.417  25.171  12.897
24640W        W83934   7.857  32.630  10.422
24641W        W83935  22.174   9.150   9.552
24642W        W83936  35.060   6.787   2.217
24643W        W83937  34.091  11.131  14.353
24644W        W83938   6.375  36.904  12.454
24645W        W83939  30.162  25.642  12.929
24646W        W83940  29.093  38.018   5.229
24647W        W83941  32.906  11.271  11.912
24648W        W83942  17.111  27.009  12.340
24649W        W83943  12.283  21.260  12.948
24650W        W83944   4.808   8.821   1.261
24651W        W83945  18.064  12.126  10.638
24652W        W83946  15.103  42.377   1.778
24653W        W83947  23.662  22.117  12.482
24654W        W83948   4.762  25.062  10.931
24655W        W83949  11.181  26.110   3.173
24656W        W83950   1.367  23.118   2.399
24657W        W83951  31.955   7.413  13.474
24658W        W83952  18.214   4.224   1.251
24659W        W83953   6.332   9.286   2.404
24660W        W83954  43.003  21.704   4.256
24661W        W83955  32.632  18.265   4.115
24662W        W83956  24.491  44.806  13.541
24663W        W83957  26.004   4.888  11.435
24664W        W83958  26.620  31.556  10.566
24665W        W83959  20.251  30.421  14.345
24666W        W83960  23.715  11.686  12.829
24667W        W83961   6.191  41.947  14.359
24668W        W83962  24.524  38.473  10.441
24669W        W83963  22.652   4.741   4.203
24670W        W83964   2.831  35.516   3.189
24671W        W83965  25.674  34.522   2.700
24672W        W83966  38.851   7.332  11.482
24673W        W83967  29.443  17.656   0.729
24674W        W83968   7.171  38.465   1.241
24675W        W83969  37.854   2.267   0.788
24676W        W83970  23.652  41.350   1.896
24677W        W83971  19.759  32.478   2.291
24678W        W83972   7.829  37.968   0.266
24679W        W83973  25.192  35.459  14.436
24680W        W83974  11.326  17.683  11.562
24681W        W83975  39.504  29.599  13.859
24682W        W83976   0.293  18.723  12.065
24683W        W83977  27.488   4.871   1.839
24684W        W83978  40.434  15.717   0.879
24685W        W83979   8.843  25.044   4.139
24686W        W83980  21.097  34.529   0.350
24687W        W83981  10.145  25.076   3.674
24688W        W83982   9.771   3.935  10.084
24689W        W83983   0.422  36.471  12.401
24690W        W83984  39.957  19.676  10.525
24691W        W83985   6.350  25.520   2.396
24692W        W83986   6.356  21.152   3.357
24693W        W83987  28.562  19.780   0.416
24694W        W83988  20.184  18.691   5.256
24695W        W83989  26.086  15.718  11.954
24696W        W83990  37.443  22.518   0.786
24697W        W83991  11.277   4.208  13.362
24698W        W83992  13.786  16.181   3.370
24699W        W83993  29.932  37.362  11.897
24700W        W83994  15.182  30.934  14.784
24701W        W83995  32.392   3.723  11.874
24702W        W83996  13.216   6.326  13.049
24703W        W83997  37.890   5.706  14.283
24704W        W83998  43.504  35.602  10.609
24705W        W83999  32.593  19.180   3.211
24706W        W84000  25.988  32.417   2.386
24707W        W84001  44.956  17.097   2.412
24708W        W84002   5.882  44.483  12.410
24709W        W84003  10.804  13.636  14.027
24710W        W84004  43.373  22.217  11.463
24711W        W84005  19.547  38.502   2.728
24712W        W84006  15.735   8.758  10.927
24713W        W84007  18.171   5.300   2.233
24714W        W84008  37.976  13.741   2.670
24715W        W84009  14.303   1.804   4.653
24716W        W84010  43.812  29.955  11.505
24717W        W84011  10.351  19.043  13.336
24718W        W84012  24.128  35.578   0.474
24719W        W84013  29.088   8.871  12.366
24720W        W84014  13.622  43.792  10.571
24721W        W84015  17.285   4.368  11.515
24722W        W84016  14.734  25.099  12.094
24723W        W84017  33.911  24.609   2.372
24724W        W84018  38.350  27.582  13.327
24725W        W84019  38.887   3.769   1.845
24726W        W84020  28.999  12.757   0.417
24727W        W84021  18.252   3.814   0.833
24728W        W84022  37.458  26.494  11.109
24729W        W84023  41.005  10.150  13.044
24730W        W84024  11.264  25.634  13.796
24731W        W84025   4.755   7.784  14.410
24732W        W84026  39.959  27.533   1.439
24733W        W84027  34.524   5.831  10.126
24734W        W84028   9.760  12.225  13.883
24735W        W84029  40.918  26.520  13.791
24736W        W84030  22.115  35.904   0.294
24737W        W84031   2.861  22.062   5.720
24738W        W84032  25.586  27.640   1.759
24739W        W84033   6.269  44.268  12.006
24740W        W84034  38.477  20.126   2.392
24741W        W84035  29.134   9.357  12.436
24742W        W84036  23.177  12.812  10.931
24743W        W84037  25.533  29.663  11.538
24744W        W84038  21.074   2.468  11.462
24745W        W84039  21.656   6.899  10.555
24746W        W84040  39.975  28.965   4.243
24747W        W84041  38.467  14.340  13.536
24748W        W84042  39.989   4.809  13.822
24749W        W84043  15.165  22.107  11.975
24750W        W84044  29.532  15.744   0.255
24751W        W84045  39.040  28.113   2.362
24752W        W84046  16.585   4.706  10.025
24753W        W84047  23.588  13.651   2.330
24754W        W84048  16.785  39.922  13.879
24755W        W84049  44.960  18.626   3.732
24756W        W84050  26.953   2.338  13.476
24757W        W84051  35.430  15.739   4.620
24758W        W84052   7.227  30.458   0.951
24759W        W84053  25.023  39.480  12.087
24760W        W84054  34.382   2.810   1.218
24761W        W84055  40.898   2.858  13.505
24762W        W84056  30.968  41.315   2.882
24763W        W84057  27.093   1.391  10.507
24764W        W84058  13.107  42.884  13.054
24765W        W84059   1.971   1.350  12.535
24766W        W84060  14.290  39.823  11.513
24767W        W84061  21.732  25.067   1.220
24768W        W84062  10.678  41.422  11.980
24769W        W84063  22.657  15.659  13.018
24770W        W84064  33.473  25.214   3.358
24771W        W84065  32.497   4.854  10.559
24772W        W84066  43.945  18.131   4.158
24773W        W84067  30.932  35.027  12.061
24774W        W84068  42.820  27.448   9.993
24775W        W84069  37.419   6.920   0.349
24776W        W84070  43.992   9.183  10.561
24777W        W84071   6.838  15.095  13.834
24778W        W84072  26.005  40.384   3.687
24779W        W84073  38.559  36.966   2.842
24780W        W84074  12.178  32.487  13.951
24781W        W84075  31.988  26.973  14.339
24782W        W84076  39.039   9.234   3.695
24783W        W84077   5.316  36.963  14.500
24784W        W84078  33.520   4.330   4.605
24785W        W84079  16.791  40.951  10.900
24786W        W84080   7.771  20.212  12.578
24787W        W84081   4.733  44.008  12.553
24788W        W84082   7.275  26.205   1.392
24789W        W84083  44.798  14.753   2.749
24790W        W84084  22.543  38.904   2.743
24791W        W84085  43.466  43.454   2.258
24792W        W84086  38.394  19.207  11.404
24793W        W84087  17.175  34.431   0.342
24794W        W84088  37.509  11.236  13.511
24795W        W84089   2.891   5.258  14.327
24796W        W84090  10.274   9.199  11.949
24797W        W84091  28.117  22.193   3.798
24798W        W84092  44.790  19.667  10.572
24799W        W84093  41.036  36.522   4.808
24800W        W84094  31.043  22.243  10.510
24801W        W84095   4.204   1.255   1.400
24802W        W84096  24.535  31.477   3.196
24803W        W84097  17.791  10.658   0.332
24804W        W84098  21.758  17.565   1.357
24805W        W84099  44.420  33.605   2.369
24806W        W84100  37.437  32.925  10.930
24807W        W84101  14.139  26.560   2.709
24808W        W84102  26.700  23.628   3.156
24809W        W84103  38.070  37.418   1.929
24810W        W84104  35.915  23.704   1.222
24811W        W84105  14.216  35.372   2.719
24812W        W84106  24.190  29.111  14.775
24813W        W84107  16.766   9.371   3.752
24814W        W84108  25.178  42.478   4.804
24815W        W84109  18.200   9.866  14.893
24816W        W84110  43.844  12.332  12.930
24817W        W84111  24.648  41.309  14.289
24818W        W84112  38.342  32.636   0.415
24819W        W84113   3.934   3.335  11.970
24820W        W84114  41.316  11.780   2.874
24821W        W84115  39.954  17.637   0.328
24822W        W84116   7.895  10.221   2.749
24823W        W84117  40.043  21.720  13.528
24824W        W84118  25.641  28.522  14.452
24825W        W84119  27.616   9.760  10.500
24826W        W84120  27.536  22.036  13.035
24827W        W84121  41.526  44.802  11.912
24828W        W84122  44.288  26.996   5.169
24829W        W84123  39.528  39.537  11.981
24830W        W84124   7.686  22.513   2.855
24831W        W84125  28.963  30.952  14.938
24832W        W84126   4.811  41.978  14.902
24833W        W84127  30.639  34.378   1.811
24834W        W84128  11.151  42.777  11.116
24835W        W84129  28.114  17.638   3.864
24836W        W84130  16.572  10.851   3.681
24837W        W84131  12.156  40.035   4.677
24838W        W84132   5.923   9.390  14.020
24839W        W84133  12.268  42.485   0.912
24840W        W84134   3.834  25.028  12.478
24841W        W84135  13.266  29.641  11.448
24842W        W84136  35.577  31.914   2.360
24843W        W84137   2.792   0.914   1.276
24844W        W84138   6.906  24.129   4.619
24845W        W84139  31.035  41.400   1.449
24846W        W84140   5.748  44.779  12.009
24847W        W84141  14.603  19.716   1.362
24848W        W84142  11.654  20.703  12.959
24849W        W84143  17.757  11.837  11.426
24850W        W84144  34.487  30.579  10.473
24851W        W84145  16.182   1.464  12.860
24852W        W84146  39.850   1.782  12.454
24853W        W84147  39.338  24.686   4.337
24854W        W84148  34.947  35.910  10.640
24855W        W84149  27.544  12.833   0.304
24856W        W84150  41.320  34.477  14.345
24857W        W84151  10.853  35.499  12.841
24858W        W84152  23.527  23.053  14.402
24859W        W84153   2.404   7.191  12.059
24860W        W84154  10.251   9.848   2.371
24861W        W84155  34.989  27.681  13.961
24862W        W84156  13.720  33.556   1.312
24863W        W84157  37.974  29.168   3.370
24864W        W84158  31.562   1.755  13.417
24865W        W84159  44.324   5.859  10.939
24866W        W84160   6.880  14.147  11.498
24867W        W84161  29.661  41.461  12.459
24868W        W84162   6.211  22.660   3.367
24869W        W84163  30.062  22.141  13.892
24870W        W84164  40.944  22.027  12.894
24871W        W84165  38.450  23.039   2.853
24872W        W84166  11.321  18.709  13.397
24873W        W84167  12.626   4.351  14.400
24874W        W84168  35.893  38.445   1.781
24875W        W84169  38.847  31.112   4.760
24876W        W84170  25.580  30.517   2.795
24877W        W84171  24.555   6.190   9.942
24878W        W84172  32.926  31.036  14.858
24879W        W84173  13.237   6.244  12.048
24880W        W84174  30.908  37.839  11.077
24881W        W84175  18.668  42.342   2.178
24882W        W84176  17.081  32.430  13.039
24883W        W84177  41.538   5.906   3.289
24884W        W84178   8.209  18.712   3.841
24885W        W84179  40.978  21.106  12.511
24886W        W84180  10.791  20.607   2.700
24887W        W84181   9.786  40.473   4.146
24888W        W84182  10.738  12.271  10.478
24889W        W84183   6.310  22.704   2.673
24890W        W84184  39.056  13.663   0.347
24891W        W84185  32.420  34.397   2.231
24892W        W84186  27.484  41.810  12.941
24893W        W84187   0.830  20.072   2.690
24894W        W84188   9.855  36.026  12.544
24895W        W84189   1.315  13.174  14.029
24896W        W84190   9.692   3.264  12.368
24897W        W84191   1.288  39.497   2.662
24898W        W84192  44.384  14.140  11.972
24899W        W84193   9.232  41.834  14.323
24900W        W84194  32.986  36.503   0.396
24901W        W84195  11.845   4.744  14.301
24902W        W84196  35.936   0.978  12.902
24903W        W84197  38.454  16.764   1.320
24904W        W84198  16.094   1.330  10.482
24905W        W84199  20.629   0.977  14.868
24906W        W84200  31.945  42.000   1.920
24907W        W84201  44.778  39.040   1.237
24908W        W84202  35.410  16.742  13.321
24909W        W84203  26.512  11.349  10.539
24910W        W84204  21.703  36.372   1.239
24911W        W84205  41.365  33.611  12.093
24912W        W84206  23.240  25.981   4.837
24913W        W84207  14.264  13.115  10.537
24914W        W84208  33.976  15.140   2.406
24915W        W84209  25.198   2.948  12.868
24916W        W84210  28.546  28.505   0.763
24917W        W84211   5.274  35.534   2.325
24918W        W84212  41.853  40.391   3.205
24919W        W84213   0.447  19.097   0.801
24920W        W84214   3.260   4.926  13.887
24921W        W84215  19.076  20.205   3.751
24922W        W84216  31.020  35.388   2.895
24923W        W84217   6.907  29.105   0.931
24924W        W84218  28.121   1.464   4.766
24925W        W84219   9.715  41.004  13.359
24926W        W84220  22.671  17.237  12.446
24927W        W84221  41.795  16.686  13.388
24928W        W84222   3.355  44.881  13.530
24929W        W84223  21.135  28.177  10.443
24930W        W84224  26.556  44.765  14.322
24931W        W84225  30.590  27.578  13.805
24932W        W84226  42.487  32.004   3.714
24933W        W84227  35.959  41.375   2.663
24934W        W84228   7.351  24.527  10.020
24935W        W84229  35.938   5.369   3.153
24936W        W84230  28.008   2.313  14.903
24937W        W84231  28.050  37.867   1.805
24938W        W84232  29.026  33.083  11.874
24939W        W84233  25.038  22.177   3.689
24940W        W84234   8.309   4.785   2.707
24941W        W84235  39.007   7.364  14.349
24942W        W84236  11.221  19.093  12.964
24943W        W84237  21.610  30.464  13.968
24944W        W84238  16.666  28.984   0.812
24945W        W84239  25.674  41.031  12.369
24946W        W84240  43.939  18.227  12.383
24947W        W84241  16.093  17.569  11.471
24948W        W84242  36.975  40.019   2.860
24949W        W84243  19.615  12.169   0.872
24950W        W84244  15.256  13.181  13.044
24951W        W84245  39.064  20.072   0.808
24952W        W84246  14.816  35.556  11.387
24953W        W84247   9.315  26.697  11.993
24954W        W84248   9.788  16.671   3.763
24955W        W84249  18.546  26.625   3.753
24956W        W84250  34.995  22.724  13.820
24957W        W84251  40.987  22.130  14.841
24958W        W84252   0.903   4.925  14.493
24959W        W84253  24.095  23.031   2.841
24960W        W84254  24.031  17.080  13.867
24961W        W84255   0.855   3.354   0.428
24962W        W84256   8.794  42.379   3.662
24963W        W84257  16.143  15.264   1.228
24964W        W84258  23.708  23.712  13.404
24965W        W84259  30.525  39.511   2.768
24966W        W84260  26.070   8.192   4.630
24967W        W84261  26.120  34.438  10.468
24968W        W84262  41.377  23.691   3.250
24969W        W84263  32.059  43.327   2.245
24970W        W84264  15.219  17.195   2.205
24971W        W84265  14.308  18.583   2.324
24972W        W84266   3.277  38.941  14.764
24973W        W84267  24.227  38.565   1.764
24974W        W84268  34.613  23.731   4.717
24975W        W84269   5.701  15.733  12.016
24976W        W84270  38.350  10.745   2.391
24977W        W84271   4.922  34.552   1.364
24978W        W84272   8.781   8.884   1.897
24979W        W84273  17.106  31.134  12.394
24980W        W84274  14.276  28.516   1.226
24981W        W84275  20.210   7.387  14.869
24982W        W84276   6.778  32.509   4.718
24983W        W84277  28.638  17.174  14.888
24984W        W84278  26.676  14.184  14.997
24985W        W84279  32.599  20.102  14.512
24986W        W84280  36.446   9.865   1.861
24987W        W84281  16.575  28.666  14.288
24988W        W84282  37.405  35.966  12.860
24989W        W84283  24.585  39.559  14.468
24990W        W84284   5.359  36.387  13.480
24991W        W84285  40.514  20.663   3.243
24992W        W84286  44.472  27.986  14.403
24993W        W84287  10.293  39.032  12.950
24994W        W84288  15.770  15.176  11.444
24995W        W84289  20.054   5.848  12.887
24996W        W84290  30.608   7.811   3.244
24997W        W84291  29.972  31.038  12.555
24998W        W84292  11.215  34.967  11.587
24999W        W84293   3.458   3.233  14.506
25000W        W84294  28.172   7.807  13.523
25001W        W84295   5.801  13.686   0.441
25002W        W84296  10.276  18.268  14.867
25003W        W84297  14.145  29.932   0.265
25004W        W84298  23.591  32.586  12.042
25005W        W84299  23.506  12.281   2.690
25006W        W84300  41.868  41.011  14.343
25007W        W84301  25.216  21.188   3.710
25008W        W84302   5.392  21.533  14.434
25009W        W84303  12.738  40.979  12.498
25010W        W84304  24.000  27.081  11.958
25011W        W84305  39.001   3.825   4.335
25012W        W84306  35.012  17.794  10.595
25013W        W84307  14.637  37.577   4.329
25014W        W84308  21.515  16.156  14.002
25015W        W84309  23.592  39.364   2.338
25016W        W84310  38.461  44.812   0.422
25017W        W84311  22.231  12.167   2.865
25018W        W84312  32.392  23.078  10.467
25019W        W84313  29.131  18.646   3.181
25020W        W84314   4.751  12.692   4.806
25021W        W84315   0.388  41.992  11.017
25022W        W84316  29.995  25.148   1.702
25023W        W84317  44.779  13.829  11.904
25024W        W84318  25.571  31.456   0.465
25025W        W84319  44.791   0.750   0.379
25026W        W84320  22.054  33.518  11.423
25027W        W84321  29.942  36.857  11.911
25028W        W84322  33.128  23.152  14.337
25029W        W84323  13.274   7.738   1.856
25030W        W84324  41.423  10.196  14.962
25031W        W84325  22.063  31.072  12.934
25032W        W84326  33.487  30.645   1.746
25033W        W84327  39.416  27.651   2.252
25034W        W84328  42.286  40.938  14.906
25035W        W84329  14.218  41.856   4.764
25036W        W84330   6.827  30.599  12.062
25037W        W84331  43.360  34.534  11.104
25038W        W84332  42.301  32.134   1.286
25039W        W84333  15.808  17.229   5.104
25040W        W84334  36.002   8.812   4.341
25041W        W84335  10.670  26.548   3.719
25042W        W84336  28.980  38.882  14.408
25043W        W84337  38.336   6.243  11.097
25044W        W84338  11.819   8.273   3.671
25045W        W84339  38.842  10.768  11.900
25046W        W84340  21.707  22.718  11.596
25047W        W84341  40.047  12.229  11.960
25048W        W84342  44.477  43.909   2.848
25049W        W84343  41.425  17.180   2.883
25050W        W84344  12.282  30.990   4.191
25051W        W84345  42.835  12.290   0.463
25052W        W84346  35.956  43.462   3.768
25053W        W84347   2.848  34.442  11.875
25054W        W84348  40.956  21.045   3.305
25055W        W84349  17.100  35.406  13.395
25056W        W84350  31.619  21.576   2.768
25057W        W84351  12.747  40.988   4.139
25058W        W84352   6.750   4.319  11.418
25059W        W84353  32.445  23.089   4.253
25060W        W84354   5.895  28.060   3.249
25061W        W84355  36.900  21.625  14.398
25062W        W84356   3.787  13.675   3.677
25063W        W84357  20.084  11.131   0.247
25064W        W84358  31.987  40.455  13.040
25065W        W84359  40.447   8.296  10.951
25066W        W84360  32.627   2.801  10.895
25067W        W84361  20.663   0.410   2.406
25068W        W84362  44.783  13.235   3.824
25069W        W84363  28.153  24.577   3.675
25070W        W84364  32.546   4.863   3.736
25071W        W84365  24.684  42.954  12.838
25072W        W84366  30.526  18.138  11.472
25073W        W84367   3.221   0.947  13.348
25074W        W84368  27.101  35.940  11.038
25075W        W84369  26.528  35.982   3.787
25076W        W84370  14.616  11.147  11.462
25077W        W84371  15.238   5.725  11.601
25078W        W84372  32.543  22.185   3.798
25079W        W84373  30.595   3.429   0.767
25080W        W84374  23.049  31.075   2.899
25081W        W84375  28.678  39.852  14.390
25082W        W84376  27.584  15.636   0.378
25083W        W84377  43.817  21.177   1.391
25084W        W84378  12.683  36.860   2.251
25085W        W84379  42.382  19.073  14.031
25086W        W84380   0.348  30.448   0.286
25087W        W84381  43.849  43.889  12.367
25088W        W84382  39.322  32.419  13.513
25089W        W84383   8.245  36.074   3.811
25090W        W84384  16.314  35.924   0.410
25091W        W84385  19.709  27.165   0.952
25092W        W84386   8.351  37.984   1.263
25093W        W84387  40.341   5.792  10.507
25094W        W84388  39.459  39.834   2.698
25095W        W84389   6.314  13.611   1.832
25096W        W84390   1.978  24.571   2.237
25097W        W84391  30.577   5.246   0.908
25098W        W84392  30.120  12.214  10.954
25099W        W84393  43.879   5.690  10.888
25100W        W84394  17.162  36.360   2.366
25101W        W84395   3.727  34.115  14.906
25102W        W84396  38.535   5.410   4.786
25103W        W84397  27.459   6.881  14.287
25104W        W84398  27.493   8.808  10.638
25105W        W84399  22.207  18.569   2.396
25106W        W84400  29.526   3.426  14.291
25107W        W84401  38.854  41.461   3.768
25108W        W84402  43.788   1.842   3.767
25109W        W84403  13.679  15.797  14.887
25110W        W84404  36.430   3.714   3.677
25111W        W84405   3.342  43.467   0.829
25112W        W84406  24.199  38.330   1.312
25113W        W84407  32.027   0.363   2.211
25114W        W84408  10.173  13.349   1.872
25115W        W84409  25.138  35.450   1.405
25116W        W84410  40.984   9.249   2.751
25117W        W84411  43.290   3.228   1.345
25118W        W84412  19.760  20.030  10.148
25119W        W84413  14.594  16.265   1.293
25120W        W84414   9.334   5.764  14.491
25121W        W84415  24.043  38.514   3.803
25122W        W84416  32.570  26.543   1.303
25123W        W84417   4.231   9.321   0.447
25124W        W84418   6.349   7.416  14.381
25125W        W84419   7.357   5.205   2.336
25126W        W84420  30.039  10.228  14.978
25127W        W84421   9.344  16.126   4.687
25128W        W84422  14.812  17.119  11.108
25129W        W84423  25.101  28.159   2.899
25130W        W84424  10.344  42.945  10.414
25131W        W84425  21.030  22.609  11.482
25132W        W84426  39.500   8.295   1.443
25133W        W84427   3.419  22.141  10.013
25134W        W84428  22.735   6.729  12.465
25135W        W84429   6.419  14.759   0.376
25136W        W84430  19.169  35.413  12.535
25137W        W84431  33.945  10.648   2.860
25138W        W84432  23.722   7.360  14.501
25139W        W84433  41.384   1.822  13.448
25140W        W84434  29.656  17.167   9.941
25141W        W84435  19.078   4.446  11.607
25142W        W84436  44.977  32.439   4.263
25143W        W84437  34.892  30.530   4.215
25144W        W84438  42.346  20.678  14.759
25145W        W84439  16.189  13.717   0.847
25146W        W84440   0.322  16.080   0.948
25147W        W84441  28.097  11.294  10.153
25148W        W84442  10.259  22.515   1.784
25149W        W84443  34.079  23.665  13.526
25150W        W84444  20.089  40.484  13.009
25151W        W84445  10.263  42.934   5.302
25152W        W84446  38.966   8.268   2.413
25153W        W84447   6.300  19.589   3.256
25154W        W84448   6.691  15.691   0.801
25155W        W84449  37.860  38.913   1.807
25156W        W84450  11.637   2.345   4.762
25157W        W84451  30.997  18.611  11.606
25158W        W84452  40.434  28.956   2.290
25159W        W84453  36.023  15.766  12.551
25160W        W84454  36.534  28.960   1.300
25161W        W84455  26.005  16.224   4.756
25162W        W84456  40.882   4.769   0.925
25163W        W84457  18.762  20.228  13.060
25164W        W84458   1.321  22.213  11.400
25165W        W84459  21.707  15.109  10.907
25166W        W84460  42.400  16.606   0.910
25167W        W84461  22.074  29.162  11.877
25168W        W84462  14.641  28.654   2.739
25169W        W84463  30.980   7.729   2.288
25170W        W84464   2.816  30.640  14.813
25171W        W84465  30.158  44.290  13.884
25172W        W84466  37.019  16.255   1.742
25173W        W84467  18.130   3.770  12.554
25174W        W84468  11.732  23.040   1.695
25175W        W84469  30.566  44.365   5.081
25176W        W84470   6.320  32.434   1.835
25177W        W84471  20.665   4.258  11.932
25178W        W84472   9.301   6.861  11.955
25179W        W84473   3.758  44.458   0.933
25180W        W84474  35.946   7.688   2.863
25181W        W84475  27.555  23.109  14.961
25182W        W84476  26.585  15.096  14.823
25183W        W84477  44.378  36.405   4.654
25184W        W84478  11.634  23.729   3.779
25185W        W84479  13.208  22.189  11.991
25186W        W84480  42.392   1.771   5.287
25187W        W84481  20.638  41.465  10.432
25188W        W84482   2.949  36.443   2.188
25189W        W84483  40.521   4.375   1.858
25190W        W84484  32.051  11.365  10.509
25191W        W84485  37.413  10.845  12.561
25192W        W84486  42.798  19.202   1.310
25193W        W84487  10.809   8.821   4.635
25194W        W84488  20.599   3.796   4.814
25195W        W84489  31.636  40.431   0.437
25196W        W84490  38.470  27.099  14.374
25197W        W84491  33.920  44.473  14.417
25198W        W84492   1.744  26.179  10.455
25199W        W84493  19.769  28.579  13.904
25200W        W84494  21.028  14.758  13.521
25201W        W84495  37.360   6.913  14.793
25202W        W84496  35.971  26.499  12.900
25203W        W84497  24.188  29.997  14.789
25204W        W84498  32.590  15.578   3.322
25205W        W84499  13.143  36.062  13.901
25206W        W84500  33.088  23.996   3.271
25207W        W84501   9.151   3.303  12.575
25208W        W84502  32.611  38.954  11.549
25209W        W84503  17.752   4.714   0.801
25210W        W84504  32.125   3.800  14.976
25211W        W84505  33.881  35.082   1.409
25212W        W84506  20.108  43.909   0.778
25213W        W84507  43.014  44.754   5.629
25214W        W84508  22.595  43.916   1.242
25215W        W84509  43.835  42.343  10.632
25216W        W84510  18.172  14.725   3.376
25217W        W84511  21.045  15.667  13.801
25218W        W84512  15.202  40.470   1.366
25219W        W84513   1.758   0.351  11.383
25220W        W84514  11.146  36.570   0.464
25221W        W84515  41.006  35.937   1.785
25222W        W84516   3.749  34.086   1.784
25223W        W84517  13.214  11.341   2.766
25224W        W84518  35.043  18.147   3.270
25225W        W84519  15.274   9.739  10.991
25226W        W84520  10.682  31.605   0.831
25227W        W84521  35.109   1.273  11.399
25228W        W84522  35.411  27.998  14.318
25229W        W84523   6.809  17.276   4.710
25230W        W84524  33.587  43.349   2.748
25231W        W84525  28.962  20.057  12.378
25232W        W84526  18.078   1.752   0.777
25233W        W84527  42.336  41.791  13.899
25234W        W84528   1.261   6.347  13.813
25235W        W84529  36.981  41.483  13.816
25236W        W84530  22.652   4.910  11.402
25237W        W84531  29.970   8.891   4.617
25238W        W84532  23.219   4.891  11.473
25239W        W84533  23.114  31.998   0.775
25240W        W84534  25.560  15.109   3.745
25241W        W84535   5.230  25.970   2.253
25242W        W84536  22.090   4.433   1.390
25243W        W84537  21.109  16.184  14.854
25244W        W84538  25.019  40.469   0.899
25245W        W84539  35.002  30.492   2.836
25246W        W84540  31.926  41.364   4.171
25247W        W84541  44.998  33.578  12.492
25248W        W84542  28.628  40.396  13.969
25249W        W84543  28.472  43.888   2.351
25250W        W84544   5.366  11.356  11.032
25251W        W84545  19.577  41.850  14.406
25252W        W84546  21.214  10.671  13.792
25253W        W84547  12.659  29.081   2.751
25254W        W84548  16.712  10.655  13.973
25255W        W84549   9.818  43.301  12.000
25256W        W84550   7.275  24.687   5.230
25257W        W84551  22.733   8.693   0.767
25258W        W84552  20.679  30.127  14.931
25259W        W84553  19.697   3.418   3.290
25260W        W84554  14.311  38.013   0.778
25261W        W84555  33.460  40.932   0.372
25262W        W84556  21.186  28.987   2.743
25263W        W84557   4.231  33.957  13.428
25264W        W84558  14.123  25.106  14.838
25265W        W84559  35.028  25.600  11.887
25266W        W84560  26.208   8.208  10.640
25267W        W84561  19.582   0.418  13.456
25268W        W84562  13.686  18.762  10.459
25269W        W84563  43.988  35.577   4.707
25270W        W84564  35.437   6.238   0.335
25271W        W84565  24.122  32.947   0.325
25272W        W84566  38.389  38.497  14.026
25273W        W84567  44.839  25.667  14.826
25274W        W84568  36.985  13.667  12.893
25275W        W84569  16.172  33.042  11.974
25276W        W84570  26.187  40.379  13.937
25277W        W84571   2.444  24.492   1.853
25278W        W84572  36.482  15.271  11.109
25279W        W84573  28.519  32.559   4.255
25280W        W84574  18.283  23.063  10.992
25281W        W84575   8.805  34.510   3.266
25282W        W84576  30.994  30.919   1.432
25283W        W84577  28.044  11.856   0.403
25284W        W84578  25.539   3.429   9.928
25285W        W84579  12.692  39.993   4.340
25286W        W84580  12.848  40.377   0.811
25287W        W84581  15.638  30.127  11.553
25288W        W84582  25.198  37.848   3.317
25289W        W84583  37.447  38.961  10.970
25290W        W84584  38.915  17.778  12.933
25291W        W84585  42.282   0.292   1.825
25292W        W84586  38.393  38.537  14.419
25293W        W84587  22.184  28.628  13.900
25294W        W84588   7.371  13.321  10.582
25295W        W84589  20.550   4.367  12.389
25296W        W84590  13.300  18.567   1.911
25297W        W84591  17.203   4.322  14.870
25298W        W84592  33.535  19.185   2.224
25299W        W84593  36.512   1.768   4.662
25300W        W84594   8.807  14.287   0.290
25301W        W84595  42.968  18.585   1.347
25302W        W84596   3.859  28.937   1.423
25303W        W84597  24.554  29.430  10.534
25304W        W84598   7.389  37.064  10.588
25305W        W84599  34.957  31.411   2.819
25306W        W84600  17.131   1.854   2.732
25307W        W84601  12.185  32.466   2.901
25308W        W84602  39.879  15.135   1.873
25309W        W84603   6.355   8.233  14.962
25310W        W84604  32.038   7.373   1.924
25311W        W84605  29.119  41.810   1.251
25312W        W84606   4.423  38.367  10.522
25313W        W84607   1.957  19.158  14.443
25314W        W84608  11.820  28.639  13.999
25315W        W84609   4.817  12.761  13.993
25316W        W84610   5.405  36.553  14.819
25317W        W84611  15.641  22.563  12.375
25318W        W84612  17.226  43.935  10.895
25319W        W84613   7.312  21.221  10.929
25320W        W84614  37.400  17.721   0.869
25321W        W84615  10.358  44.467  11.425
25322W        W84616  38.915  10.379  14.852
25323W        W84617  34.892  13.790   0.405
25324W        W84618  14.310  34.509   4.622
25325W        W84619  44.910  10.771  13.056
25326W        W84620  44.792  25.211   1.820
25327W        W84621  24.601  44.333   3.781
25328W        W84622  36.939   1.341   4.806
25329W        W84623  29.941  19.637  13.896
25330W        W84624   0.438  12.809   2.672
25331W        W84625   8.202  20.131  12.055
25332W        W84626  13.652   4.891  14.856
25333W        W84627   0.757  32.997  13.503
25334W        W84628   1.244  22.609   1.381
25335W        W84629  44.837   7.211  14.344
25336W        W84630   8.869  43.018   3.244
25337W        W84631  10.658  41.043  12.902
25338W        W84632  17.563  27.014  10.890
25339W        W84633  34.456  27.997   1.769
25340W        W84634  19.654   3.456  14.376
25341W        W84635  10.170  30.423  14.791
25342W        W84636   0.339   8.894   0.242
25343W        W84637  43.890  24.634  12.922
25344W        W84638  40.348  43.865   0.354
25345W        W84639  37.011  31.451  11.948
25346W        W84640  10.314  22.673   3.776
25347W        W84641  27.063  19.144  11.570
25348W        W84642  11.138  44.004   4.729
25349W        W84643  17.285  32.917   2.363
25350W        W84644   3.883  24.571   4.312
25351W        W84645  25.187   7.765   1.366
25352W        W84646   3.745  40.423   0.804
25353W        W84647   4.383  41.295  11.460
25354W        W84648  33.445  22.572  14.447
25355W        W84649  37.344  30.470  11.944
25356W        W84650  31.907  11.677   4.186
25357W        W84651  18.732  37.031   1.902
25358W        W84652  18.090  21.225   1.216
25359W        W84653  39.917  20.112  10.966
25360W        W84654  29.490   3.406  13.354
25361W        W84655  16.590  10.356  11.484
25362W        W84656  23.090  22.199   4.751
25363W        W84657  37.547  28.074  14.436
25364W        W84658  33.453  10.816  12.883
25365W        W84659  36.403  38.353   2.845
25366W        W84660  16.793  37.558  11.495
25367W        W84661  40.977  33.997  12.415
25368W        W84662   8.288  34.612   0.257
25369W        W84663  28.630  31.071  12.965
25370W        W84664  31.462   7.380   4.338
25371W        W84665  17.153  24.147  14.437
25372W        W84666   2.903  18.085   2.258
25373W        W84667  32.998  32.925   2.227
25374W        W84668  33.579  32.470  11.494
25375W        W84669  29.028  24.032  14.285
25376W        W84670  37.849   9.720   3.237
25377W        W84671  31.043  25.116  13.837
25378W        W84672  20.065  13.769   0.881
25379W        W84673  10.204   7.773   5.188
25380W        W84674   9.288   2.725  12.854
25381W        W84675  10.861  41.034  12.555
25382W        W84676  10.290  18.784   3.148
25383W        W84677   0.251  13.118   0.727
25384W        W84678   4.315  18.604   3.668
25385W        W84679  17.212  16.777  13.335
25386W        W84680   8.706  12.215   4.628
25387W        W84681   6.258  30.543   3.200
25388W        W84682   4.847  41.479  13.866
25389W        W84683  12.143   1.467  12.354
25390W        W84684   4.900   7.189   1.882
25391W        W84685  25.695   0.761  13.437
25392W        W84686  14.628  14.629   0.799
25393W        W84687  14.209  44.791   1.335
25394W        W84688  24.001  32.518   1.830
25395W        W84689  10.195  42.848  11.994
25396W        W84690  32.550  38.341   0.861
25397W        W84691  43.279  34.913   1.752
25398W        W84692  28.673   7.877  13.960
25399W        W84693  31.911  33.620   5.212
25400W        W84694  13.823  23.043   3.823
25401W        W84695  32.456   2.928  10.502
25402W        W84696   0.393  25.571  14.408
25403W        W84697  24.222  41.841   1.257
25404W        W84698   6.877  21.152   0.800
25405W        W84699  12.217  29.166   1.696
25406W        W84700  32.043   7.769  10.587
25407W        W84701  28.502  13.245   3.852
25408W        W84702  18.757  13.321   2.297
25409W        W84703  19.614  44.353  11.611
25410W        W84704  28.592   5.839  10.419
25411W        W84705   4.719  27.451   3.340
25412W        W84706  28.088  38.404   2.860
25413W        W84707   3.252  31.545  11.088
25414W        W84708  22.725  30.574   3.189
25415W        W84709   8.311  28.976  13.827
25416W        W84710   5.736   1.970  13.905
25417W        W84711  32.568  18.565  11.008
25418W        W84712   5.436  22.028   2.283
25419W        W84713  38.042   3.363   4.753
25420W        W84714  41.301  30.118   2.819
25421W        W84715  42.319  18.222  11.548
25422W        W84716   3.729   9.726  14.913
25423W        W84717  10.663  40.310  10.989
25424W        W84718  15.597  17.561   0.899
25425W        W84719  21.084  25.030  10.516
25426W        W84720   4.859   3.834   2.245
25427W        W84721  37.376  12.754   0.738
25428W        W84722  43.929  18.121   0.259
25429W        W84723   2.927  11.196  11.415
25430W        W84724  18.720   2.427  12.002
25431W        W84725  41.292  11.139  11.501
25432W        W84726   9.344   2.900   2.183
25433W        W84727  44.328   6.206   5.171
25434W        W84728  29.587  21.539   2.877
25435W        W84729  28.069  31.016  14.987
25436W        W84730  41.299   9.214   1.881
25437W        W84731   4.304  38.879   3.217
25438W        W84732  33.492  43.369  14.460
25439W        W84733  28.505   4.729   2.366
25440W        W84734  44.367  22.506   0.321
25441W        W84735  26.136  43.927  12.543
25442W        W84736  44.271  18.093   4.674
25443W        W84737  40.343  41.363   0.306
25444W        W84738  16.680  30.121   1.417
25445W        W84739  28.589  22.629   3.706
25446W        W84740  34.897  31.444  12.089
25447W        W84741  15.095   9.701  10.020
25448W        W84742  27.986   1.745  13.511
25449W        W84743   4.805   0.296  13.420
25450W        W84744  41.456  14.617   3.751
25451W        W84745  38.469  27.185   0.272
25452W        W84746  36.491   9.687   4.347
25453W        W84747   5.715  30.655  14.870
25454W        W84748   8.743  40.418   0.885
25455W        W84749  20.577   2.378  11.971
25456W        W84750   7.335  13.172   1.865
25457W        W84751  38.558  11.631  13.349
25458W        W84752  23.552  28.978  10.912
25459W        W84753  12.844  32.045   3.363
25460W        W84754  36.921  43.320  10.613
25461W        W84755   9.827  31.626   4.265
25462W        W84756  10.202   7.785   4.259
25463W        W84757  22.515  43.871  10.605
25464W        W84758  26.019   9.263   5.121
25465W        W84759  41.447  39.550   0.403
25466W        W84760  38.412  41.986   1.888
25467W        W84761  39.539  11.825  14.461
25468W        W84762  34.005  37.884  12.008
25469W        W84763  23.227  30.083   0.399
25470W        W84764   3.333  32.576  11.934
25471W        W84765  39.524  20.028  12.396
25472W        W84766  26.578   7.277   0.741
25473W        W84767  36.998  36.457   3.288
25474W        W84768  36.891  33.022   9.596
25475W        W84769  30.920   5.192   3.815
25476W        W84770   3.808  17.072  10.452
25477W        W84771  28.026  39.406  13.022
25478W        W84772  40.480  38.881   4.725
25479W        W84773  23.028  42.997  10.505
25480W        W84774   7.910  18.258   3.212
25481W        W84775  23.656   3.406   3.674
25482W        W84776  27.985  12.613  13.860
25483W        W84777  20.237  25.112   2.197
25484W        W84778  31.034  21.169   3.227
25485W        W84779  29.159   3.411   1.402
25486W        W84780  21.203  19.690   0.256
25487W        W84781  28.996  29.517   1.764
25488W        W84782  41.298  24.578  12.510
25489W        W84783  30.423  35.588   0.275
25490W        W84784  32.570   7.176  12.906
25491W        W84785  13.737  15.580   1.324
25492W        W84786  30.508   9.653   1.263
25493W        W84787   3.243  27.158   0.357
25494W        W84788  24.571  37.036   1.843
25495W        W84789  22.524  24.066  13.468
25496W        W84790  14.756  31.493  14.492
25497W        W84791  25.694  19.573  10.556
25498W        W84792  28.086  39.402  12.018
25499W        W84793  26.574  28.565  13.423
25500W        W84794  17.597   9.273   1.254
25501W        W84795  13.703  16.634  12.093
25502W        W84796  37.355  38.074   1.232
25503W        W84797   8.836  35.477  13.020
25504W        W84798  11.300  21.139  12.481
25505W        W84799  44.978  30.452   2.386
25506W        W84800  43.274  14.789   3.149
25507W        W84801  38.888  20.568  13.923
25508W        W84802   9.832  40.466  11.067
25509W        W84803  44.921  15.580  13.326
25510W        W84804  23.583   8.708   1.281
25511W        W84805  20.144   5.258  14.765
25512W        W84806  23.503  29.058   0.337
25513W        W84807   2.257   2.452   4.231
25514W        W84808   2.949  39.355   4.351
25515W        W84809  31.966  33.015   2.747
25516W        W84810   1.851  24.595   4.713
25517W        W84811  40.809  29.159   4.736
25518W        W84812  43.483  14.200  13.361
25519W        W84813  39.905   9.793  11.073
25520W        W84814  39.402   5.321   3.375
25521W        W84815  41.975  37.505   0.867
25522W        W84816  11.184   2.777  11.973
25523W        W84817  42.370  29.468   1.410
25524W        W84818  12.296  38.045  13.848
25525W        W84819  41.350  34.971  13.981
25526W        W84820   0.412  42.436   4.192
25527W        W84821  32.594  21.187   4.618
25528W        W84822  40.392  36.482  12.985
25529W        W84823   3.439  23.161  11.099
25530W        W84824  23.712  11.654   1.399
25531W        W84825  43.328  38.555  13.980
25532W        W84826  29.449  24.642   0.382
25533W        W84827  41.374  28.575  12.005
25534W        W84828  14.746   2.251  10.446
25535W        W84829   3.242  12.615  12.920
25536W        W84830  22.721  10.318  13.873
25537W        W84831  38.919  38.386  14.323
25538W        W84832   9.730  35.455  14.332
25539W        W84833  17.140  17.787  10.905
25540W        W84834   1.365  22.097  12.393
25541W        W84835  23.986  27.473  12.381
25542W        W84836  10.249  31.490  10.942
25543W        W84837  15.157  35.392   3.662
25544W        W84838  43.504  12.138   2.337
25545W        W84839   3.270   4.234  10.627
25546W        W84840  34.074  28.029  14.833
25547W        W84841  40.995  16.784   3.264
25548W        W84842   9.321  32.520   2.725
25549W        W84843  30.079  17.663  12.474
25550W        W84844  30.928   7.735   4.227
25551W        W84845  22.570  21.087   3.636
25552W        W84846  22.584   0.957  10.957
25553W        W84847  32.573  42.805  11.061
25554W        W84848  20.230  28.476   2.398
25555W        W84849  40.965  39.877   4.747
25556W        W84850   6.861  34.465  13.461
25557W        W84851  30.581   4.215  11.859
25558W        W84852  17.251  31.973   4.817
25559W        W84853  30.100  31.428   1.815
25560W        W84854  31.566  18.587  10.973
25561W        W84855  11.747  24.685  10.441
25562W        W84856  26.029  40.984   0.411
25563W        W84857  13.631  19.174  12.029
25564W        W84858  35.370   0.963  11.532
25565W        W84859  21.716   9.689   4.658
25566W        W84860  14.130  27.501  13.940
25567W        W84861  13.184  16.182   0.809
25568W        W84862  22.634  17.714   4.209
25569W        W84863  41.946  24.541   1.770
25570W        W84864  29.536   1.971  10.118
25571W        W84865  15.254   5.230  13.016
25572W        W84866  34.386  10.292   3.823
25573W        W84867  39.498  35.906  10.441
25574W        W84868  25.159  41.444  12.994
25575W        W84869   5.880   4.845  12.893
25576W        W84870  21.240   5.222  13.425
25577W        W84871   2.740  26.490   4.628
25578W        W84872  38.533  18.606  14.771
25579W        W84873  42.820  31.530   3.752
25580W        W84874  32.606  31.595   1.881
25581W        W84875  38.491  18.719   4.137
25582W        W84876   6.834  42.916   2.854
25583W        W84877   8.287  23.730   4.176
25584W        W84878   9.864   5.268   2.254
25585W        W84879  13.135  38.842  13.799
25586W        W84880  29.637  17.618  11.378
25587W        W84881   6.719   8.869  13.893
25588W        W84882  30.066  18.728   2.851
25589W        W84883  29.153  11.766  11.107
25590W        W84884   0.821  12.780  10.617
25591W        W84885   1.965  34.402  13.409
25592W        W84886  27.021  21.216  14.790
25593W        W84887  15.796  44.980  10.639
25594W        W84888   4.369  26.109   3.745
25595W        W84889  21.238  31.532  13.898
25596W        W84890  12.319   3.255   2.252
25597W        W84891  23.568  14.708  12.097
25598W        W84892   9.219  16.242  10.918
25599W        W84893  19.755  31.020   0.743
25600W        W84894   5.265  41.349   0.401
25601W        W84895  23.535  31.082   2.200
25602W        W84896  38.329  19.229  14.020
25603W        W84897   4.741  16.248   3.361
25604W        W84898  24.043  35.065   3.296
25605W        W84899   9.227  37.964   0.875
25606W        W84900  24.695  38.374  13.329
25607W        W84901  12.799  27.167  12.046
25608W        W84902  13.324  36.579  12.942
25609W        W84903   7.196  37.021  10.949
25610W        W84904  31.120  11.296   1.440
25611W        W84905  33.495   6.295   1.369
25612W        W84906  36.986  27.579   3.181
25613W        W84907  28.595  23.180   0.802
25614W        W84908  28.529  31.962  10.950
25615W        W84909  21.068  12.357   1.748
25616W        W84910  44.802  44.983   3.333
25617W        W84911   8.356  12.284  14.867
25618W        W84912  21.140  14.809  14.977
25619W        W84913  10.748  11.784  11.533
25620W        W84914   8.382   4.827  14.421
25621W        W84915  23.130   0.931  11.974
25622W        W84916  17.800  36.075   1.795
25623W        W84917  24.574  39.520   4.295
25624W        W84918  37.966  42.487   4.237
25625W        W84919  33.491  37.567   2.354
25626W        W84920  12.729  39.347  14.513
25627W        W84921  19.750  44.464   5.294
25628W        W84922  41.448  25.128   3.261
25629W        W84923  41.505  19.168  11.389
25630W        W84924  29.990  11.317  12.945
25631W        W84925   9.882  15.737   4.598
25632W        W84926  19.622   4.883  13.805
25633W        W84927  23.013   2.467  10.594
25634W        W84928  16.732  14.793   9.436
25635W        W84929   9.203  23.187   0.901
25636W        W84930  13.179   3.431  12.569
25637W        W84931  16.237  19.110   3.310
25638W        W84932  37.462   8.676   1.842
25639W        W84933  43.345  25.706   0.344
25640W        W84934  32.048  36.093   1.742
25641W        W84935  41.334   8.282   1.226
25642W        W84936  20.183   3.378   4.731
25643W        W84937  37.515   2.238  11.426
25644W        W84938   4.401  23.078  13.850
25645W        W84939  23.682   6.281  12.978
25646W        W84940  13.814  25.963   2.190
25647W        W84941  18.566   3.904   2.232
25648W        W84942  37.383  17.683   1.768
25649W        W84943  33.982  15.613   1.381
25650W        W84944  26.063  39.380   2.764
25651W        W84945  44.398  37.430  11.571
25652W        W84946  20.220  11.852   2.185
25653W        W84947  43.492  33.908  11.524
25654W        W84948  16.727  15.819   0.900
25655W        W84949   0.844   6.677  14.858
25656W        W84950  20.227  41.423  14.313
25657W        W84951   4.355  10.716  10.563
25658W        W84952   3.906  27.611   1.924
25659W        W84953  37.832   7.804  14.993
25660W        W84954   2.228  30.912   2.387
25661W        W84955  18.757  41.005   2.862
25662W        W84956  24.215  35.544  13.919
25663W        W84957  33.909  14.225   0.940
25664W        W84958  16.687   4.799  11.073
25665W        W84959  44.371  30.437  13.040
25666W        W84960   2.469  10.276  13.841
25667W        W84961  10.710  22.655  10.441
25668W        W84962   6.382  27.189   4.679
25669W        W84963  34.876   4.335  11.872
25670W        W84964  24.485  20.250  14.341
25671W        W84965  22.186  43.384  14.340
25672W        W84966  19.602  39.394  13.047
25673W        W84967  31.501   2.738  11.557
25674W        W84968  20.227  21.566  11.461
25675W        W84969  30.075  43.976   4.643
25676W        W84970  10.715  27.151   1.228
25677W        W84971  44.926  22.729   4.225
25678W        W84972  38.873  29.067   3.312
25679W        W84973  26.555   8.704   0.845
25680W        W84974   9.214  24.543  13.440
25681W        W84975  43.902  30.041   2.759
25682W        W84976  15.128   4.389  12.383
25683W        W84977   4.809  15.733   0.916
25684W        W84978  12.196  37.414   0.880
25685W        W84979  35.049  27.517   2.413
25686W        W84980   1.305  16.732   1.447
25687W        W84981  31.401  27.942  10.471
25688W        W84982   9.809  42.292  11.045
25689W        W84983  31.472   9.166   0.278
25690W        W84984  41.418  40.463  11.494
25691W        W84985  33.934  13.767  14.862
25692W        W84986   6.682   9.322   0.852
25693W        W84987  28.076  38.537   1.848
25694W        W84988  21.165  44.852   2.873
25695W        W84989  34.893  39.020  14.788
25696W        W84990   4.402  36.022  11.507
25697W        W84991  22.058  22.180  11.438
25698W        W84992  10.802  24.597  12.969
25699W        W84993   1.383  15.155  14.486
25700W        W84994  16.281  18.573   4.335
25701W        W84995  29.064  14.738  10.969
25702W        W84996   7.834  13.781  12.350
25703W        W84997  23.585  41.866  13.377
25704W        W84998  17.189  20.547   2.372
25705W        W84999  10.820  10.156  14.376
25706W        W85000  28.069  14.315   0.925
25707W        W85001  21.071   1.372  12.575
25708W        W85002  41.829  19.081  12.835
25709W        W85003  27.006  25.650  14.394
25710W        W85004  26.633  30.151  12.446
25711W        W85005  19.080  12.337  12.862
25712W        W85006  13.343   0.880  10.978
25713W        W85007  11.699  27.140  10.442
25714W        W85008   9.238  12.776   5.224
25715W        W85009  40.455  36.460  12.470
25716W        W85010  40.383   6.269   2.885
25717W        W85011  24.990   2.365   4.620
25718W        W85012  41.527  14.721   2.417
25719W        W85013   1.846  42.317  12.342
25720W        W85014   9.863  38.846   1.888
25721W        W85015  40.024  34.007  12.005
25722W        W85016  26.195  44.494   1.807
25723W        W85017  37.977  41.316   5.087
25724W        W85018   6.688  33.453   2.860
25725W        W85019  16.187   2.380   1.305
25726W        W85020   9.809  22.657  14.835
25727W        W85021  28.083  43.353  12.559
25728W        W85022  30.053   6.753  11.936
25729W        W85023  18.600  38.898   4.235
25730W        W85024   8.728   0.423   2.819
25731W        W85025  36.023   0.800  11.860
25732W        W85026  28.574  43.891   1.266
25733W        W85027  24.505  22.131  10.543
25734W        W85028  20.551  32.393   2.240
25735W        W85029  35.412  25.017   2.379
25736W        W85030  42.850  19.125   4.286
25737W        W85031  33.132  26.670  13.330
25738W        W85032   2.859  19.749   1.925
25739W        W85033  23.619   1.451  13.316
25740W        W85034  12.683  19.711   4.723
25741W        W85035  25.642  22.021   2.352
25742W        W85036   9.881  11.773  12.046
25743W        W85037  20.642   7.784   0.729
25744W        W85038  39.421   4.837  12.987
25745W        W85039  31.937  42.508   4.210
25746W        W85040  13.672  15.286   2.333
25747W        W85041  19.535  35.049  10.498
25748W        W85042   2.462  21.099   4.312
25749W        W85043  21.087  10.221  12.944
25750W        W85044   5.303  17.565   2.838
25751W        W85045   0.789  38.027   3.761
25752W        W85046  24.665  11.697  12.828
25753W        W85047  24.205   0.410   4.672
25754W        W85048   3.401  37.846  10.976
25755W        W85049  12.797  44.288  12.016
25756W        W85050   9.371  31.583   0.862
25757W        W85051  10.337  44.858   3.756
25758W        W85052  30.074  13.658  12.428
25759W        W85053  23.029  30.029  12.869
25760W        W85054  40.499  40.832  12.512
25761W        W85055   1.845  13.175  14.453
25762W        W85056  28.486  18.710  14.346
25763W        W85057   4.337  14.827   0.287
25764W        W85058  31.140   0.416   2.732
25765W        W85059   4.415  41.452  14.986
25766W        W85060   8.168  42.346   3.805
25767W        W85061  12.144  22.204   2.771
25768W        W85062  35.946  38.433  12.448
25769W        W85063  27.585   7.220   4.755
25770W        W85064  14.192   6.849  12.983
25771W        W85065   3.860   1.250  12.021
25772W        W85066  32.581  20.174  10.913
25773W        W85067  18.636  21.725  13.941
25774W        W85068  20.637   5.231  13.837
25775W        W85069  22.545  38.951   3.282
25776W        W85070  43.858  13.647   3.656
25777W        W85071   6.818  32.455  13.525
25778W        W85072  30.602  40.935   2.663
25779W        W85073  32.055  34.949   1.714
25780W        W85074  15.152  18.216  11.101
25781W        W85075   2.351  24.036  14.386
25782W        W85076  12.751  42.869  10.416
25783W        W85077  17.782  41.531   2.849
25784W        W85078  31.908  19.542  12.370
25785W        W85079  29.617  41.435   4.123
25786W        W85080  29.645  10.702   0.806
25787W        W85081  21.660  13.716   2.359
25788W        W85082  31.979  44.274   0.935
25789W        W85083  39.045  31.517  12.402
25790W        W85084  15.263  19.048   3.812
25791W        W85085  15.206  28.040   2.215
25792W        W85086  28.960  30.494  13.955
25793W        W85087  39.059  42.518  12.409
25794W        W85088   6.426  31.990  14.409
25795W        W85089  31.906  37.385  10.420
25796W        W85090  16.752  42.924  14.295
25797W        W85091   0.484  16.738  11.553
25798W        W85092  41.831  10.270  13.933
25799W        W85093  18.643  35.534  14.952
25800W        W85094  29.531  16.118   2.682
25801W        W85095  26.951  29.664  10.089
25802W        W85096  15.283   1.426   1.810
25803W        W85097  43.767  28.632  12.053
25804W        W85098   7.269   6.365   3.858
25805W        W85099  37.356  36.545  13.409
25806W        W85100   8.885  10.175  14.414
25807W        W85101  42.492  18.763   4.808
25808W        W85102  34.460  25.618   0.321
25809W        W85103  41.398  33.093   9.436
25810W        W85104   9.856  33.418  14.017
25811W        W85105  14.098   9.884  12.451
25812W        W85106   2.329  38.462   3.341
25813W        W85107  19.617   6.778   1.223
25814W        W85108   4.224  31.531  10.623
25815W        W85109  29.966  41.468  13.455
25816W        W85110  41.396  36.450   3.698
25817W        W85111  19.193  13.717   3.259
25818W        W85112  16.150   3.767   2.213
25819W        W85113  30.595  16.805  14.850
25820W        W85114   4.416   3.315   0.362
25821W        W85115  27.495  14.691  13.063
25822W        W85116  26.469   9.818   5.122
25823W        W85117  19.059  25.553   4.322
25824W        W85118  37.435  15.724  13.427
25825W        W85119   2.903  12.356   4.179
25826W        W85120  29.467  34.394   1.264
25827W        W85121  25.992  13.681  13.053
25828W        W85122  42.314  16.156  11.122
25829W        W85123  32.615   1.412   2.351
25830W        W85124  41.374  29.112  11.926
25831W        W85125  39.892  40.344   2.186
25832W        W85126   3.351   1.935  10.556
25833W        W85127   1.463  16.751  11.950
25834W        W85128  33.383  10.367  13.813
25835W        W85129  25.100  35.091  14.308
25836W        W85130  34.536  25.091   0.246
25837W        W85131  25.059  15.130   3.833
25838W        W85132   9.314  22.604   2.238
25839W        W85133  25.116  11.181   3.867
25840W        W85134   8.393  24.649  12.041
25841W        W85135  34.415  25.208  13.987
25842W        W85136   2.306  34.046   0.382
25843W        W85137  36.921  32.975  10.121
25844W        W85138   1.240  38.383  14.368
25845W        W85139   8.220  11.787  14.489
25846W        W85140  25.675  23.608   1.279
25847W        W85141  43.781  30.613  13.447
25848W        W85142  27.150  38.837   0.461
25849W        W85143  23.212  15.240   1.302
25850W        W85144  33.448  24.697   3.695
25851W        W85145   1.823   6.780   0.858
25852W        W85146  43.341  29.940  14.465
25853W        W85147  28.560  42.843  14.927
25854W        W85148   8.884  41.501  12.883
25855W        W85149  42.855  33.900   1.397
25856W        W85150   2.856  33.046   2.273
25857W        W85151  31.639  31.577  12.500
25858W        W85152   3.891  17.129   1.267
25859W        W85153   0.451  13.615   3.227
25860W        W85154  13.711  37.980  10.605
25861W        W85155   7.811  30.578   4.248
25862W        W85156  29.650  33.075  10.419
25863W        W85157  39.464  43.943  14.483
25864W        W85158   7.751  16.239   4.615
25865W        W85159  35.446   6.230   2.291
25866W        W85160   4.881  40.443  13.814
25867W        W85161   7.789   5.868   4.689
25868W        W85162  16.256  12.349   0.310
25869W        W85163   5.352   0.252   3.285
25870W        W85164  21.179   6.857  13.328
25871W        W85165  34.510   1.303  10.569
25872W        W85166  18.789  21.263  13.047
25873W        W85167   3.292  11.847   0.905
25874W        W85168  33.901  43.902   1.751
25875W        W85169  39.540   3.326   0.275
25876W        W85170  11.647   9.765  11.871
25877W        W85171  27.089  18.654  12.868
25878W        W85172  33.385  16.315  12.939
25879W        W85173  43.856  23.530  12.466
25880W        W85174  24.634   6.283  12.981
25881W        W85175  34.020  43.488   4.691
25882W        W85176  43.791  18.634  11.037
25883W        W85177   5.330  29.023   0.792
25884W        W85178  25.077   2.299  11.415
25885W        W85179  22.071  26.506   3.233
25886W        W85180   8.816  29.621   4.267
25887W        W85181  19.685  34.980   4.783
25888W        W85182  35.445  37.531  10.506
25889W        W85183  19.639  36.914   4.303
25890W        W85184  15.633  14.145  11.867
25891W        W85185   8.261   6.300   4.715
25892W        W85186  15.117   8.238   4.674
25893W        W85187  18.185  10.375   0.878
25894W        W85188   2.884  42.303  14.988
25895W        W85189  11.655  35.070   4.222
25896W        W85190  43.280  44.499   3.293
25897W        W85191   8.766  16.585  14.436
25898W        W85192   7.889  21.663   1.343
25899W        W85193  37.996  41.832  13.476
25900W        W85194  23.028   6.744   2.237
25901W        W85195  39.852   0.421   0.301
25902W        W85196  13.185  24.215   4.303
25903W        W85197  41.485  16.796  14.508
25904W        W85198  23.166   3.930  13.817
25905W        W85199  13.789   1.821  14.295
25906W        W85200  44.824  24.145   1.446
25907W        W85201  24.229  35.073  13.888
25908W        W85202  32.488  27.512   2.862
25909W        W85203  14.716   7.748  13.465
25910W        W85204  18.187  33.015  13.976
25911W        W85205  19.758  21.731  14.883
25912W        W85206  37.383  24.204   4.129
25913W        W85207  28.554  16.273   0.385
25914W        W85208  24.724  11.790  11.874
25915W        W85209   7.362  41.842   2.841
25916W        W85210   4.312   9.199   0.824
25917W        W85211  16.137  21.557   2.243
25918W        W85212  15.318  28.602   2.798
25919W        W85213  41.386  39.842   4.770
25920W        W85214   0.257   2.867  12.403
25921W        W85215  15.312   3.248   1.210
25922W        W85216  12.612  14.769  11.864
25923W        W85217  40.003  19.631   2.726
25924W        W85218  37.411  11.634   3.845
25925W        W85219  28.516  43.014  10.463
25926W        W85220   7.410  16.303  11.468
25927W        W85221  35.562  40.302   3.270
25928W        W85222  11.845  26.620  13.937
25929W        W85223  20.675  11.847   1.727
25930W        W85224  26.648  27.181  12.019
25931W        W85225   1.428  21.568   1.222
25932W        W85226  14.193  39.363   0.807
25933W        W85227  36.915   4.243  13.860
25934W        W85228  31.149   4.220  14.762
25935W        W85229  26.180  44.484  14.425
25936W        W85230  28.086  20.189  11.555
25937W        W85231  20.727  37.430  14.501
25938W        W85232  19.695  14.112  11.035
25939W        W85233  43.311  28.591  13.500
25940W        W85234  40.026  27.600  10.990
25941W        W85235   9.172  12.164  14.287
25942W        W85236  25.560   6.770  13.895
25943W        W85237  33.484  23.198   0.812
25944W        W85238  39.459  23.697  14.951
25945W        W85239  14.261  26.979   3.377
25946W        W85240  29.613  29.429  14.782
25947W        W85241  20.702  20.689   3.151
25948W        W85242  19.054  30.070   4.139
25949W        W85243  35.488  32.067   0.429
25950W        W85244   7.398  33.922  13.484
25951W        W85245   7.200  31.107   0.836
25952W        W85246  11.743  23.099  10.580
25953W        W85247  31.941   0.901  13.538
25954W        W85248  40.922  22.048   4.215
25955W        W85249  16.667  10.204  13.380
25956W        W85250  29.043   4.359  14.300
25957W        W85251   2.360  22.734  13.052
25958W        W85252  28.180  19.083  13.484
25959W        W85253  15.806   0.890   0.857
25960W        W85254  30.413  22.180   3.162
25961W        W85255  41.420   4.385   2.210
25962W        W85256  30.579  25.643  11.386
25963W        W85257  10.839   7.304  12.914
25964W        W85258  17.096  33.481   3.707
25965W        W85259  31.514  41.351   4.690
25966W        W85260  21.658  33.909  10.506
25967W        W85261   7.788  10.831   3.788
25968W        W85262  23.626   7.405  11.072
25969W        W85263   6.197  36.421  13.364
25970W        W85264  30.558  12.140   1.722
25971W        W85265  10.290  29.149  11.386
25972W        W85266  41.844  27.523   0.923
25973W        W85267   0.285  31.003   4.307
25974W        W85268  16.774  35.403   0.829
25975W        W85269   8.265  19.256   1.842
25976W        W85270  30.445  17.247  11.984
25977W        W85271  11.820  18.144   4.605
25978W        W85272   4.812  19.162   3.335
25979W        W85273  24.197  29.599  10.426
25980W        W85274  40.484   2.361   0.855
25981W        W85275  28.599  34.559   2.750
25982W        W85276  20.115  28.652   4.130
25983W        W85277  14.645  26.609   1.277
25984W        W85278  39.822   4.899   3.665
25985W        W85279  21.156   3.881   1.369
25986W        W85280  36.373  36.976   4.206
25987W        W85281  29.480  35.587   2.383
25988W        W85282  10.369  14.200   1.849
25989W        W85283  18.182  44.429   4.615
25990W        W85284  27.547  16.660  14.311
25991W        W85285  17.556  40.884  14.961
25992W        W85286  12.338   2.471   0.298
25993W        W85287  41.499   9.655   2.834
25994W        W85288  16.252  38.461   4.179
25995W        W85289   1.740  22.109   4.156
25996W        W85290  42.831  21.741   4.742
25997W        W85291  35.896   9.171   3.852
25998W        W85292   4.722  36.957   3.260
25999W        W85293  12.700  23.056   4.777
26000W        W85294  43.804  25.577   2.186
26001W        W85295  12.684  42.289  14.438
26002W        W85296   0.414  16.124  10.912
26003W        W85297  30.917  44.825   3.217
26004W        W85298  11.332  31.520  14.453
26005W        W85299  22.215  37.437   1.349
26006W        W85300  27.065  21.526   0.763
26007W        W85301  42.385  19.635   3.725
26008W        W85302  17.691   6.751   2.193
26009W        W85303   6.818  15.694   4.823
26010W        W85304  17.131  21.546  11.118
26011W        W85305  25.637  36.587  14.923
26012W        W85306  15.601  42.888   1.842
26013W        W85307   0.374  40.886   2.374
26014W        W85308   5.350  40.465   4.623
26015W        W85309  25.974  39.868  14.947
26016W        W85310  23.236  10.706  12.383
26017W        W85311  17.561  11.333   0.469
26018W        W85312  18.769  43.467   2.885
26019W        W85313   7.223  11.158  14.783
26020W        W85314  18.626  27.959  10.567
26021W        W85315  18.201  16.717   4.265
26022W        W85316  39.940  27.599  11.878
26023W        W85317  18.584  15.237   4.652
26024W        W85318  26.639  30.654  12.059
26025W        W85319  14.775  37.472  10.423
26026W        W85320  28.012   4.782  11.869
26027W        W85321  10.711  15.783   2.814
26028W        W85322  35.393   9.713   2.207
26029W        W85323  20.177  29.126  14.455
26030W        W85324   4.809  19.168   1.282
26031W        W85325  27.086   6.794  12.856
26032W        W85326  35.883  40.890  12.950
26033W        W85327   4.807  44.298  13.049
26034W        W85328  16.668  40.955  11.952
26035W        W85329  33.566   5.855   3.220
26036W        W85330  19.728  41.423  11.032
26037W        W85331   2.470  15.665   3.681
26038W        W85332  43.365   7.216   0.243
26039W        W85333   6.281  41.869   3.287
26040W        W85334  16.162   0.931  12.567
26041W        W85335  38.963  13.158   2.791
26042W        W85336  16.229  13.322   4.806
26043W        W85337  37.351  28.970  12.420
26044W        W85338  43.011  32.494   3.749
26045W        W85339  28.030  42.801  12.966
26046W        W85340  42.776  15.784  11.890
26047W        W85341  44.448  32.438   3.334
26048W        W85342   2.814   5.871  12.904
26049W        W85343  43.986  35.855   4.792
26050W        W85344  36.059  29.929  12.850
26051W        W85345  11.712   7.332  11.926
26052W        W85346  15.214  33.130  10.535
26053W        W85347   3.366  17.069   0.456
26054W        W85348   6.772  26.586  13.819
26055W        W85349  24.717  38.518   2.230
26056W        W85350   7.768   0.878  12.489
26057W        W85351   5.920  35.876   0.440
26058W        W85352   7.910  28.164   2.319
26059W        W85353  43.364  23.503   2.308
26060W        W85354   4.935  23.513   2.836
26061W        W85355  13.628   8.305   4.237
26062W        W85356   3.919  25.626  12.925
26063W        W85357  26.643  38.553  12.934
26064W        W85358  36.036  12.300   3.167
26065W        W85359  38.409  37.918   4.810
26066W        W85360  26.569  12.713   3.210
26067W        W85361   5.869  43.344  12.444
26068W        W85362   1.450  31.438  11.877
26069W        W85363   9.290  21.051   2.893
26070W        W85364  27.028  25.663  13.909
26071W        W85365  37.577   4.781   1.412
26072W        W85366  38.335  19.711   2.716
26073W        W85367  23.068  38.917  11.936
26074W        W85368   1.871  35.403   2.743
26075W        W85369  15.661  33.008   0.275
26076W        W85370  27.526  39.056  14.399
26077W        W85371  37.900  37.057   5.708
26078W        W85372  30.159  13.269  13.479
26079W        W85373  24.073  20.548   2.262
26080W        W85374  17.583   4.398  13.001
26081W        W85375  17.241  17.796  11.541
26082W        W85376  40.422  41.956   1.373
26083W        W85377  44.888  25.202   2.752
26084W        W85378   3.955  21.123   5.102
26085W        W85379  33.033  12.775   3.738
26086W        W85380  16.573  33.565  11.032
26087W        W85381   8.392   5.437   5.316
26088W        W85382   7.855   1.478  10.982
26089W        W85383  27.045  27.665   1.850
26090W        W85384  16.166   3.775  13.797
26091W        W85385  26.609  15.268   2.253
26092W        W85386  15.631  19.259  12.997
26093W        W85387  30.913  33.593  13.329
26094W        W85388  12.818  14.770  14.902
26095W        W85389  17.109  44.977  10.594
26096W        W85390  34.891  31.474   0.912
26097W        W85391  20.564  16.120  14.003
26098W        W85392   9.267  15.300  11.960
26099W        W85393  25.556  44.286  12.351
26100W        W85394  16.232  33.601  12.033
26101W        W85395  41.479  13.815  11.028
26102W        W85396   5.364  25.973   0.881
26103W        W85397  24.528  38.986   0.243
26104W        W85398  40.351  14.826  13.944
26105W        W85399  43.888  17.668   4.796
26106W        W85400  14.172   4.373   3.735
26107W        W85401  17.104  19.175   2.317
26108W        W85402  42.415  42.913   2.211
26109W        W85403  27.187  40.316  13.962
26110W        W85404  15.110  44.364  10.446
26111W        W85405  42.997  31.920  14.846
26112W        W85406  30.467  41.903   1.319
26113W        W85407   2.850  35.411  11.086
26114W        W85408  44.267   5.407   0.939
26115W        W85409   3.911  44.944  13.943
26116W        W85410   7.323  27.530  10.532
26117W        W85411  35.485   2.785   4.743
26118W        W85412   7.357  11.801   1.441
26119W        W85413  33.126   6.418   5.182
26120W        W85414  10.781   8.720  12.539
26121W        W85415  39.537  20.727  11.979
26122W        W85416  22.632  14.767   0.825
26123W        W85417  44.887  24.664  11.935
26124W        W85418   7.267  13.775  13.981
26125W        W85419  27.458  44.265   3.190
26126W        W85420   9.164  11.332   0.299
26127W        W85421   3.447  21.028   4.664
26128W        W85422  33.069  34.454  10.960
26129W        W85423  35.914   6.189  12.829
26130W        W85424   0.811   2.352   2.258
26131W        W85425  42.943  16.655   0.384
26132W        W85426  15.105  44.855   4.328
26133W        W85427  39.012  28.532  12.421
26134W        W85428  36.005   4.901  14.831
26135W        W85429  36.860   8.335   2.221
26136W        W85430  26.091  32.011  14.378
26137W        W85431  14.209  18.668   4.136
26138W        W85432   0.413  11.693  14.414
26139W        W85433  18.259  43.355  11.385
26140W        W85434   6.270  26.012   0.846
26141W        W85435  11.297  40.472   2.241
26142W        W85436  28.114  40.842  11.466
26143W        W85437   8.358  25.028   0.918
26144W        W85438  19.691   3.421   4.132
26145W        W85439   1.452  23.237  11.874
26146W        W85440  16.590  44.356   0.301
26147W        W85441  31.403  12.158   4.327
26148W        W85442  37.975  37.011   5.141
26149W        W85443  39.016  27.692  14.353
26150W        W85444   6.716  12.845  13.933
26151W        W85445  40.935   7.208   4.798
26152W        W85446  24.635  14.714   4.711
26153W        W85447  37.982  21.562  12.972
26154W        W85448  33.556  14.639  10.957
26155W        W85449   5.301  39.915  12.057
26156W        W85450  18.739   6.260  10.535
26157W        W85451   9.802  12.260   0.427
26158W        W85452  39.029  21.032   0.333
26159W        W85453  18.572   4.429  13.859
26160W        W85454   6.354  10.323   0.427
26161W        W85455  10.140  38.933  12.441
26162W        W85456  35.898  37.958  14.491
26163W        W85457  10.738   0.967   0.897
26164W        W85458  30.119   0.375   0.772
26165W        W85459  28.150  28.012   2.287
26166W        W85460   0.257   3.799  13.893
26167W        W85461  36.382  28.006  14.981
26168W        W85462  22.600  37.877  14.361
26169W        W85463  29.053  10.704   1.338
26170W        W85464  24.563  32.457   3.348
26171W        W85465  44.334  36.531   1.412
26172W        W85466   0.952  19.673   2.767
26173W        W85467  19.094  30.515   1.769
26174W        W85468  41.966  44.493   3.219
26175W        W85469   8.887  37.347   0.840
26176W        W85470  32.518   0.936   3.831
26177W        W85471  12.730  25.199  14.357
26178W        W85472  43.370   3.228  13.829
26179W        W85473  10.635   4.370  10.465
26180W        W85474   1.791   8.163  14.321
26181W        W85475  11.147  43.333  13.918
26182W        W85476  37.868  27.487  14.358
26183W        W85477  35.406  13.611  12.017
26184W        W85478   4.855  30.644   2.195
26185W        W85479   3.826   1.475  11.053
26186W        W85480  26.083  35.025   3.857
26187W        W85481  17.624  32.524   1.890
26188W        W85482   4.255  18.631  14.012
26189W        W85483  43.930  18.236   1.767
26190W        W85484   5.834  35.955   1.752
26191W        W85485  21.046   3.449   4.653
26192W        W85486  32.099  36.967  12.347
26193W        W85487   2.235  26.960  14.029
26194W        W85488  14.099  27.198  10.465
26195W        W85489  28.659   1.852   2.664
26196W        W85490  11.742  10.821  11.430
26197W        W85491  27.512  31.115   3.292
26198W        W85492   0.842  14.591   2.355
26199W        W85493  28.447  19.104   3.205
26200W        W85494  32.080  34.549   4.269
26201W        W85495   5.399  10.333  14.424
26202W        W85496  36.934  25.690   3.323
26203W        W85497  21.045  19.714   2.315
26204W        W85498  41.492  39.875   2.845
26205W        W85499  11.738  21.540  14.414
26206W        W85500   0.971  22.621   0.835
26207W        W85501  44.258   1.383  13.386
26208W        W85502   5.401  15.087   0.314
26209W        W85503  18.100  36.562  14.505
26210W        W85504  27.980  10.155  12.384
26211W        W85505  42.379  39.474   2.728
26212W        W85506  31.064  24.711  12.935
26213W        W85507   1.266   4.930   2.285
26214W        W85508  42.905  15.168   3.739
26215W        W85509  36.864   1.460  11.983
26216W        W85510  23.498  29.668   2.337
26217W        W85511  26.468  38.993  12.889
26218W        W85512  30.952  15.714  11.035
26219W        W85513  36.426  34.506  14.787
26220W        W85514   6.201   5.843   4.187
26221W        W85515   0.944  14.621  12.528
26222W        W85516  31.915  32.084   4.811
26223W        W85517  30.491  31.542  14.831
26224W        W85518   0.824  26.657  13.848
26225W        W85519  28.671  25.170   0.811
26226W        W85520  12.224  18.144  13.351
26227W        W85521   0.343  13.108   3.687
26228W        W85522  44.815  29.924  14.020
26229W        W85523  37.378   8.727   2.802
26230W        W85524  23.118  25.149   0.305
26231W        W85525  29.492  14.804  12.479
26232W        W85526  41.473  38.335   0.395
26233W        W85527  13.133   1.389   1.335
26234W        W85528  19.183  30.066  10.404
26235W        W85529  22.241  40.938   4.660
26236W        W85530  22.095  13.292  13.880
26237W        W85531  20.169   6.884  13.513
26238W        W85532  41.867   5.793  13.505
26239W        W85533  41.885   5.695  12.442
26240W        W85534   9.768  27.023  10.601
26241W        W85535  32.888  21.057   3.150
26242W        W85536  26.605  31.020  12.899
26243W        W85537  30.994   5.214   1.929
26244W        W85538  26.530  29.654   4.317
26245W        W85539  31.521  22.170   2.233
26246W        W85540   6.696   3.771   2.260
26247W        W85541  39.367   9.210  11.504
26248W        W85542   1.327  33.572  12.031
26249W        W85543  28.130  37.947  12.988
26250W        W85544  19.058  35.402   2.844
26251W        W85545  28.006  12.240   0.903
26252W        W85546  39.501  20.242  14.392
26253W        W85547  32.099   1.868   3.174
26254W        W85548  38.475  43.409  14.871
26255W        W85549  34.023   8.729   2.763
26256W        W85550  24.034  24.026   0.445
26257W        W85551  25.213  26.472  14.399
26258W        W85552  19.247  44.934  13.867
26259W        W85553  18.061  30.920  12.826
26260W        W85554  43.481  44.955  11.961
26261W        W85555  29.164  23.098   2.837
26262W        W85556   6.334  18.789  11.933
26263W        W85557  39.049  14.795   0.478
26264W        W85558  22.150  35.920  14.764
26265W        W85559  29.467  41.535  14.908
26266W        W85560  22.199  34.598   2.895
26267W        W85561  43.465  24.554  14.964
26268W        W85562   6.766  25.651   3.706
26269W        W85563  10.753  37.005  14.499
26270W        W85564  28.965  23.539   4.116
26271W        W85565  35.898  29.961  14.018
26272W        W85566  35.998   8.221  12.981
26273W        W85567   0.817  34.921  14.802
26274W        W85568  38.915  44.885   3.188
26275W        W85569   2.436  36.886  10.473
26276W        W85570  15.261  44.275  13.811
26277W        W85571  24.660  28.133  13.462
26278W        W85572   6.359  29.582   0.349
26279W        W85573  28.677  40.913  14.949
26280W        W85574  22.217  14.143  13.389
26281W        W85575   6.706   6.721  14.835
26282W        W85576  34.526  29.095   3.649
26283W        W85577  43.849  18.157   3.174
26284W        W85578  28.055  23.602   4.160
26285W        W85579  40.450   2.283  13.397
26286W        W85580  22.175  32.492  12.926
26287W        W85581  19.145  13.618  14.312
26288W        W85582   9.727  16.157  12.405
26289W        W85583  29.156  35.566   4.277
26290W        W85584  26.989  28.184  12.993
26291W        W85585  10.774  36.930  12.823
26292W        W85586  26.198  27.000  14.969
26293W        W85587  43.405  11.224  13.020
26294W        W85588  32.607   7.822   2.334
26295W        W85589  30.097  18.747  13.853
26296W        W85590  30.908  26.480  12.571
26297W        W85591   1.796  10.876  10.411
26298W        W85592  20.237  21.565  13.378
26299W        W85593  16.077  17.123   1.392
26300W        W85594  24.483   4.798  11.983
26301W        W85595  15.324  28.655   1.919
26302W        W85596  36.492  40.460   0.920
26303W        W85597  15.815  27.961   1.793
26304W        W85598   3.236  14.234  14.352
26305W        W85599  12.150  12.790  10.445
26306W        W85600   9.370  19.245   2.827
26307W        W85601   5.827  26.006  13.939
26308W        W85602  24.642  39.319  13.328
26309W        W85603   0.312  26.146  12.898
26310W        W85604   9.678  41.807  10.419
26311W        W85605  37.463  29.449  14.500
26312W        W85606  35.431  13.181   1.920
26313W        W85607  20.536  10.332  14.812
26314W        W85608  31.897   3.887   1.715
26315W        W85609   0.254  13.806   3.632
26316W        W85610  38.530  21.072   2.687
26317W        W85611  39.484  30.454   5.320
26318W        W85612  21.042  42.020  11.947
26319W        W85613  33.007   4.308   1.221
26320W        W85614  27.587  31.116   3.806
26321W        W85615   2.790   2.771   1.270
26322W        W85616  40.820  24.181   1.254
26323W        W85617  40.497  13.332   4.274
26324W        W85618  39.926  32.004   3.230
26325W        W85619  17.128  10.715  14.450
26326W        W85620  25.098  22.031  11.475
26327W        W85621  14.775   7.670  12.848
26328W        W85622  36.392  40.832  14.961
26329W        W85623  14.761  11.203   0.800
26330W        W85624   8.711   8.302  11.477
26331W        W85625   5.735  19.666  14.407
26332W        W85626   2.241  38.410   3.730
26333W        W85627  25.003  30.522  13.876
26334W        W85628  21.164  35.963  11.017
26335W        W85629  33.380  39.363  13.320
26336W        W85630   5.194  27.000   4.309
26337W        W85631  14.618  39.397   2.675
26338W        W85632  41.511   4.820  13.327
26339W        W85633  38.048   2.823  10.536
26340W        W85634  31.526  26.187  12.086
26341W        W85635   1.254  13.208   1.858
26342W        W85636  39.511   9.269   3.826
26343W        W85637  14.684  27.459   4.144
26344W        W85638  12.119  10.207  14.425
26345W        W85639  41.491  10.665  11.050
26346W        W85640   9.770  36.463  10.450
26347W        W85641  33.121  10.336   2.407
26348W        W85642  39.034  36.896   5.782
26349W        W85643   4.794   0.472   3.291
26350W        W85644  15.117  42.417  14.489
26351W        W85645   6.187  42.437   1.725
26352W        W85646  10.663   4.764   4.140
26353W        W85647  23.105   6.731  11.102
26354W        W85648  34.026  16.813  13.460
26355W        W85649  17.651  39.328   3.223
26356W        W85650  38.053  11.164   2.225
26357W        W85651  11.328  19.109  14.921
26358W        W85652  25.118  38.875  10.526
26359W        W85653  38.047  26.152  10.926
26360W        W85654   6.787  36.057   0.426
26361W        W85655  33.879  34.554   2.830
26362W        W85656  11.299  23.089   1.820
26363W        W85657  10.154  21.164   0.431
26364W        W85658  42.899   7.676   1.290
26365W        W85659  32.048  42.504  12.921
26366W        W85660  29.578  36.932   0.817
26367W        W85661   6.397  20.533  10.044
26368W        W85662   9.664  37.575   3.258
26369W        W85663  38.958  43.461   4.173
26370W        W85664  13.248  41.787   4.751
26371W        W85665  20.718  39.558  13.311
26372W        W85666  25.131   2.776  10.532
26373W        W85667  11.725  17.761  13.372
26374W        W85668  16.779  14.158  12.448
26375W        W85669  18.279  15.671   0.418
26376W        W85670  15.189  20.681   1.885
26377W        W85671   7.849  35.894   3.304
26378W        W85672   3.812  35.422   2.266
26379W        W85673  43.777  23.030   0.763
26380W        W85674  16.268  44.846  12.372
26381W        W85675   9.316  24.695   1.856
26382W        W85676  41.354  30.945   4.150
26383W        W85677   0.322   2.418   1.916
26384W        W85678  22.709  10.649  11.454
26385W        W85679  41.892  26.158   3.198
26386W        W85680  32.583  30.637  12.961
26387W        W85681  13.834  37.476  13.461
26388W        W85682  36.586  25.491   0.450
26389W        W85683   0.340  38.059   4.316
26390W        W85684  42.328  35.370   0.274
26391W        W85685  37.875  39.410   9.508
26392W        W85686  14.185  30.520   4.698
26393W        W85687  13.681  16.168   1.847
26394W        W85688  20.747  38.841   4.665
26395W        W85689  28.133  34.874   2.756
26396W        W85690  31.530  43.840  14.309
26397W        W85691  24.097  41.415  13.852
26398W        W85692   6.306   4.822  11.425
26399W        W85693  14.169  36.034  12.050
26400W        W85694  32.074  13.209   4.198
26401W        W85695  34.401  44.407  12.425
26402W        W85696   8.838   4.227   3.251
26403W        W85697  25.019  19.183   4.836
26404W        W85698  24.681   2.254   4.640
26405W        W85699  29.476   2.317   1.394
26406W        W85700  19.167  38.964   2.776
26407W        W85701   8.808  24.591  12.515
26408W        W85702   3.904  11.196   3.254
26409W        W85703  25.191  38.047   2.347
26410W        W85704  41.439  24.984   0.910
26411W        W85705   9.857  43.280  10.972
26412W        W85706  27.509  44.261  13.524
26413W        W85707  27.592   7.229  12.958
26414W        W85708  13.135  24.165  14.819
26415W        W85709  36.046   8.224  13.492
26416W        W85710  15.297  19.740  10.064
26417W        W85711  10.740  20.115   4.747
26418W        W85712  11.762   2.296   5.239
26419W        W85713  41.391   0.884  10.081
26420W        W85714  10.186   4.745  10.034
26421W        W85715   2.958  13.107   2.773
26422W        W85716  17.706  33.015  14.838
26423W        W85717  42.031  21.720   2.273
26424W        W85718  22.027  23.059   2.203
26425W        W85719  11.765   3.945   4.815
26426W        W85720  34.874  35.439  13.939
26427W        W85721  43.847  12.765   0.750
26428W        W85722  20.739  34.939   1.397
26429W        W85723   0.769  18.590  13.927
26430W        W85724   6.241  38.481   4.301
26431W        W85725  18.188   4.822   4.125
26432W        W85726  14.600  42.892   2.806
26433W        W85727  27.985  29.985   3.794
26434W        W85728  31.070   8.842   4.626
26435W        W85729  33.985   9.267   4.754
26436W        W85730  18.282  21.074   9.930
26437W        W85731  32.531  18.775   0.291
26438W        W85732  18.737  37.080  11.600
26439W        W85733  41.954  30.163   2.662
26440W        W85734  14.810  11.771  12.933
26441W        W85735   9.285  17.620   2.788
26442W        W85736   8.808  41.905  13.896
26443W        W85737   4.420  31.035   0.902
26444W        W85738  19.749  12.635  14.848
26445W        W85739  31.064   1.416   0.470
26446W        W85740  22.610  33.595  14.962
26447W        W85741  10.708   6.426  14.962
26448W        W85742  16.173  20.762   1.380
26449W        W85743   1.957  10.356  14.950
26450W        W85744   4.235  37.913   2.231
26451W        W85745  34.538  26.624   4.277
26452W        W85746  12.335  16.711   3.787
26453W        W85747  23.612   2.432   2.276
26454W        W85748  16.576   8.331   3.267
26455W        W85749   5.789  21.543   2.851
26456W        W85750   4.736   7.254  12.026
26457W        W85751  29.952   6.212   0.752
26458W        W85752   3.860  33.999  11.479
26459W        W85753   5.199  30.541   0.860
26460W        W85754   7.180  34.045  11.988
26461W        W85755  16.781   0.384  12.362
26462W        W85756  18.066  22.099   2.355
26463W        W85757  38.476  44.466  12.461
26464W        W85758  32.490  42.377   2.775
26465W        W85759  34.385  42.442  10.410
26466W        W85760  32.913  10.801   0.803
26467W        W85761  37.037  37.523  12.846
26468W        W85762   4.830   1.869   4.183
26469W        W85763   7.855  17.082   4.292
26470W        W85764  24.698  23.627  14.300
26471W        W85765   8.759  34.469   0.750
26472W        W85766  10.235  33.575  11.597
26473W        W85767  35.062  33.492  12.030
26474W        W85768  24.551   0.752   4.700
26475W        W85769   6.828  42.013  13.375
26476W        W85770  20.256  28.968   2.877
26477W        W85771  16.113  41.412   5.220
26478W        W85772  17.677  39.536   1.309
26479W        W85773  33.542  15.116  10.921
26480W        W85774   3.439  33.550   0.411
26481W        W85775  16.269   5.776  14.904
26482W        W85776  42.347   6.353  13.992
26483W        W85777   5.341  38.058  10.612
26484W        W85778  18.107  12.782  14.329
26485W        W85779   2.724   4.251  14.296
26486W        W85780  36.024   5.199   0.827
26487W        W85781  44.327  24.593   2.726
26488W        W85782  22.509  41.338   2.356
26489W        W85783  19.717   0.772  10.533
26490W        W85784  13.319  27.601  13.491
26491W        W85785  14.095  38.456  11.974
26492W        W85786   6.194   0.753  12.877
26493W        W85787  22.704   9.747   2.681
26494W        W85788  42.886  30.555   4.792
26495W        W85789  42.298  37.992  12.048
26496W        W85790   0.254   9.242  12.901
26497W        W85791  21.580   9.649   4.200
26498W        W85792  42.850  42.785   3.764
26499W        W85793  24.015  30.091   4.713
26500W        W85794  36.947   7.205  10.557
26501W        W85795   7.815  26.983  12.340
26502W        W85796   0.298  15.303  10.905
26503W        W85797   1.387  24.103   0.440
26504W        W85798  32.399  32.488  12.454
26505W        W85799   4.749  10.823   3.380
26506W        W85800  21.069  23.698   1.894
26507W        W85801  36.895  13.175   4.149
26508W        W85802   4.342   1.885   3.766
26509W        W85803   5.244  35.572   0.832
26510W        W85804  32.138   6.829   0.292
26511W        W85805   1.788  43.788  11.097
26512W        W85806  33.023  14.327  13.476
26513W        W85807  36.371   7.362   1.842
26514W        W85808  35.032  18.786  11.079
26515W        W85809   9.272   6.878   4.820
26516W        W85810  27.083  36.546   1.903
26517W        W85811   0.336  35.521  12.569
26518W        W85812  25.551  41.469  11.594
26519W        W85813  44.303  11.694   2.788
26520W        W85814  38.560   2.829  11.080
26521W        W85815   7.729  12.349   0.934
26522W        W85816  18.075  32.414   1.912
26523W        W85817  10.357  37.361   1.797
26524W        W85818   6.223  39.016  13.015
26525W        W85819  20.534  43.887   1.739
26526W        W85820  37.079   2.799   4.156
26527W        W85821  11.348   0.409  10.107
26528W        W85822   6.756  30.926   1.327
26529W        W85823  30.616  36.432   4.332
26530W        W85824  15.145  21.085  13.329
26531W        W85825  43.804  30.069  13.944
26532W        W85826   0.803   5.257  11.545
26533W        W85827  26.993  12.694  11.980
26534W        W85828  38.546  40.347   4.836
26535W        W85829  19.761  15.626   4.764
26536W        W85830  26.028  15.266  13.515
26537W        W85831  24.676  44.878  11.857
26538W        W85832   6.313   8.841  11.039
26539W        W85833  10.685  23.672  11.114
26540W        W85834  21.164  40.879   3.259
26541W        W85835   5.214   1.310  12.844
26542W        W85836  26.465  24.213  11.448
26543W        W85837  19.121  18.121   5.105
26544W        W85838  18.563  43.019  14.015
26545W        W85839  24.211  40.418  10.493
26546W        W85840  37.061  24.707  14.942
26547W        W85841   3.448  40.532   4.147
26548W        W85842  35.876  20.591  11.046
26549W        W85843   3.851  35.024  10.921
26550W        W85844  21.147  31.544  14.275
26551W        W85845  35.046   5.759  13.970
26552W        W85846  23.664  15.324  14.887
26553W        W85847   8.663  34.042   1.885
26554W        W85848  40.027  37.853  14.322
26555W        W85849   8.746   9.699  11.398
26556W        W85850  26.132  12.799  13.365
26557W        W85851   4.769   5.859   3.290
26558W        W85852  44.906  41.795   4.828
26559W        W85853   4.870  42.016  12.888
26560W        W85854  39.337  36.987  11.392
26561W        W85855  30.061  14.712   3.706
26562W        W85856   4.860  31.000   4.304
26563W        W85857   3.420   3.759  12.087
26564W        W85858  21.106  24.677  13.815
26565W        W85859  26.979  42.293  14.798
26566W        W85860  33.108  22.601   1.323
26567W        W85861  12.295  14.636  14.854
26568W        W85862   3.746  27.690  14.864
26569W        W85863  43.370  19.716   2.854
26570W        W85864  21.084  26.159   3.378
26571W        W85865  28.153  43.996   0.431
26572W        W85866  31.541  43.504  14.359
26573W        W85867   7.750   6.692   2.758
26574W        W85868  37.955  23.225   3.276
26575W        W85869  21.606  44.419  11.998
26576W        W85870  38.928  20.607   1.439
26577W        W85871  14.218   0.808   0.923
26578W        W85872  35.414  11.696   2.843
26579W        W85873  24.050  29.118  14.275
26580W        W85874  34.083  22.725   4.207
26581W        W85875   4.282   1.411  11.612
26582W        W85876  44.436  27.489  14.369
26583W        W85877   7.251   3.851   2.388
26584W        W85878  17.099  15.173  13.830
26585W        W85879  23.009   7.413   5.591
26586W        W85880  20.033  32.951  14.902
26587W        W85881  11.820  12.314   0.791
26588W        W85882  44.831  11.670   1.232
26589W        W85883  12.830  27.525  11.460
26590W        W85884   7.349  14.254  12.483
26591W        W85885   1.416   6.348  12.408
26592W        W85886   6.877  44.489   3.742
26593W        W85887  29.621  38.843  13.841
26594W        W85888  18.188  13.701   3.683
26595W        W85889  29.651   3.836   3.188
26596W        W85890  21.520  22.030  10.954
26597W        W85891   0.389   6.838   4.339
26598W        W85892  24.145  27.971  12.510
26599W        W85893  20.673  37.925   4.327
26600W        W85894  36.893   3.271   1.371
26601W        W85895   4.879  42.519   4.658
26602W        W85896  30.096  18.106  10.946
26603W        W85897  20.259  15.823   1.336
26604W        W85898   3.302  33.555   1.436
26605W        W85899  19.656  44.902   2.303
26606W        W85900  35.580  44.328  13.870
26607W        W85901  25.991   6.360   2.319
26608W        W85902  36.485   7.281  12.452
26609W        W85903   9.294  29.049   1.738
26610W        W85904  17.113   9.275   3.825
26611W        W85905  34.944  37.451  11.377
26612W        W85906  28.569  12.788   4.812
26613W        W85907  38.541  24.082  14.860
26614W        W85908  32.026  12.335  11.950
26615W        W85909  28.008  17.196   3.380
26616W        W85910   7.334   0.310   2.716
26617W        W85911  26.179  34.605   0.897
26618W        W85912   3.216   9.264  14.901
26619W        W85913  17.781  22.642  13.969
26620W        W85914  34.096  11.280  11.927
26621W        W85915  29.625  39.365   2.409
26622W        W85916  28.045   6.252  12.423
26623W        W85917  14.624   4.283   3.778
26624W        W85918  23.081   4.323   0.944
26625W        W85919   2.770  41.538  13.831
26626W        W85920  43.912  27.665   4.255
26627W        W85921  37.542  32.954  12.926
26628W        W85922  10.802  17.274   0.771
26629W        W85923  37.558  12.147  11.019
26630W        W85924  19.750  32.110   4.597
26631W        W85925   3.718  44.758  11.595
26632W        W85926  31.927  34.579   2.209
26633W        W85927  26.074  38.879   2.302
26634W        W85928  10.665  23.700  14.989
26635W        W85929  22.681  34.530   4.153
26636W        W85930  15.143  42.817   4.130
26637W        W85931   8.778  43.860  14.817
26638W        W85932  22.007  17.307  13.467
26639W        W85933   9.888   7.410   2.762
26640W        W85934  25.076  24.554   0.837
26641W        W85935   2.355  17.239   1.265
26642W        W85936  38.906  35.588  10.937
26643W        W85937  36.987   7.236   2.689
26644W        W85938  40.910  35.559   0.368
26645W        W85939  25.018  29.130  12.859
26646W        W85940  35.422   8.400   1.802
26647W        W85941  44.976  12.692   3.245
26648W        W85942   1.797   6.285   4.808
26649W        W85943   9.164  42.321  11.986
26650W        W85944   7.217  38.456  10.482
26651W        W85945  29.130  14.779  12.451
26652W        W85946  42.353  38.992   1.864
26653W        W85947   8.261  30.914  14.791
26654W        W85948   6.343   5.412  12.923
26655W        W85949  27.677  23.019  12.959
26656W        W85950  42.379   5.284   2.831
26657W        W85951  19.590  27.017   4.136
26658W        W85952  34.975  35.549   1.260
26659W        W85953  10.325   0.355   5.613
26660W        W85954  14.688  38.028  13.056
26661W        W85955  18.071  19.706   2.231
26662W        W85956  36.409  18.128   3.166
26663W        W85957  39.983  28.572   2.902
26664W        W85958  38.018  37.952  12.936
26665W        W85959   2.274  10.644  13.854
26666W        W85960   1.350  37.493  12.043
26667W        W85961  40.533  24.704  13.944
26668W        W85962  30.602  10.743   2.330
26669W        W85963  18.643   5.753   3.735
26670W        W85964   6.679   4.865   2.409
26671W        W85965   0.475  14.600  13.457
26672W        W85966  16.732  29.435  10.476
26673W        W85967  41.805   8.795   5.321
26674W        W85968  33.900  34.024  14.025
26675W        W85969  14.604  34.597   4.299
26676W        W85970  18.243  39.931  11.386
26677W        W85971  30.931  24.588  14.295
26678W        W85972  31.087  14.207  13.021
26679W        W85973  20.244  20.612  12.867
26680W        W85974   4.742   8.400   5.100
26681W        W85975   8.404   5.726  11.923
26682W        W85976  16.213  27.673  14.992
26683W        W85977   1.357   7.697   0.424
26684W        W85978  42.886  40.974   1.846
26685W        W85979  21.040   6.680   0.803
26686W        W85980  39.829  25.638   3.236
26687W        W85981  40.994  43.432   2.866
26688W        W85982  35.424  24.622   4.666
26689W        W85983  14.728   0.922  11.529
26690W        W85984   1.870  16.714  11.017
26691W        W85985  22.646  18.221  10.051
26692W        W85986  27.005   4.805  12.838
26693W        W85987  15.822  11.310   4.242
26694W        W85988  34.997  35.515  12.032
26695W        W85989  12.624  38.825  13.952
26696W        W85990  39.971   9.706  13.438
26697W        W85991   0.403   2.356  14.793
26698W        W85992  33.606  24.224   2.239
26699W        W85993  17.264   5.909  14.021
26700W        W85994  24.171  43.977   1.903
26701W        W85995  12.291  11.855  14.959
26702W        W85996  32.960  12.259  14.875
26703W        W85997  38.365   4.334   4.829
26704W        W85998  30.517  15.201   1.707
26705W        W85999  15.806  39.433   1.847
26706W        W86000  22.737   6.399  13.038
26707W        W86001  37.576  14.695  12.932
26708W        W86002  27.494  21.093  12.868
26709W        W86003  17.583  35.109   0.812
26710W        W86004  35.560  15.790  12.964
26711W        W86005  22.652   2.872   4.748
26712W        W86006  16.629  20.073  14.901
26713W        W86007  21.198  23.069   4.355
26714W        W86008  43.797  18.615  11.878
26715W        W86009  32.519  14.238   2.713
26716W        W86010  33.610  43.961   4.787
26717W        W86011  27.092  10.268  11.111
26718W        W86012  30.955   9.745  11.126
26719W        W86013  20.049   7.261  11.522
26720W        W86014  28.116  36.990   3.176
26721W        W86015  34.585  33.446  13.497
26722W        W86016   1.957  37.493   0.775
26723W        W86017  17.726  43.808  13.542
26724W        W86018  12.852  31.569   1.433
26725W        W86019  42.927  29.600   5.246
26726W        W86020  42.885  10.240  10.966
26727W        W86021   1.409  10.167  14.351
26728W        W86022  12.749  40.987   1.318
26729W        W86023   3.922  15.713  11.405
26730W        W86024  31.445  37.365   1.823
26731W        W86025  33.441  37.414   2.806
26732W        W86026   6.732  10.858  10.444
26733W        W86027  38.420   1.306  12.454
26734W        W86028  23.682  25.590  12.524
26735W        W86029   3.256  31.474   0.264
26736W        W86030   3.221  41.416  13.311
26737W        W86031   9.667  13.196  11.017
26738W        W86032  20.709  11.298   1.908
26739W        W86033  37.867   1.895  14.374
26740W        W86034   1.841  19.239  14.896
26741W        W86035  13.167  12.829   4.695
26742W        W86036  33.957  22.700   1.222
26743W        W86037  26.987  10.708   4.716
26744W        W86038  40.385  18.780  13.875
26745W        W86039  10.306   6.784   2.318
26746W        W86040   7.769   5.230   1.863
26747W        W86041  25.193  30.075   4.674
26748W        W86042   3.821   6.704  14.009
26749W        W86043  32.506  30.986   1.751
26750W        W86044  17.185   2.434  13.819
26751W        W86045  43.372  18.219  11.894
26752W        W86046   4.706  22.569  12.847
26753W        W86047   2.881   9.749   4.620
26754W        W86048  13.600   1.291   3.790
26755W        W86049  26.025  24.142  13.895
26756W        W86050  37.908  29.444  10.630
26757W        W86051   9.666  38.879  14.785
26758W        W86052   8.221   1.337  12.353
26759W        W86053   3.800  16.172   2.239
26760W        W86054  25.674  33.035   3.678
26761W        W86055   7.171  27.138   3.338
26762W        W86056  14.244  39.949   3.748
26763W        W86057  41.793  11.690  11.498
26764W        W86058  39.513  44.969  14.013
26765W        W86059  12.246  38.967  13.059
26766W        W86060   2.377  19.053  11.595
26767W        W86061  32.025  36.996   0.961
26768W        W86062  32.494  14.777  13.462
26769W        W86063  28.494  14.599   3.813
26770W        W86064  25.584   0.940  13.819
26771W        W86065   6.336   5.425   1.352
26772W        W86066   5.842  17.274  11.088
26773W        W86067   6.233   3.932  10.002
26774W        W86068  19.193  38.521  14.380
26775W        W86069  18.734  25.480  10.610
26776W        W86070  28.456   1.777  11.057
26777W        W86071  13.782  43.887   2.688
26778W        W86072  32.395  38.379   3.665
26779W        W86073  34.463  44.320  14.921
26780W        W86074   5.344  15.660   4.761
26781W        W86075  18.122  39.502   2.834
26782W        W86076   3.730  26.557  12.382
26783W        W86077   8.312  39.919   3.183
26784W        W86078   3.732  21.113  12.038
26785W        W86079  35.910   0.270   0.252
26786W        W86080  34.060  39.930  13.858
26787W        W86081  22.512  16.190   1.713
26788W        W86082  34.392  11.372   3.267
26789W        W86083   8.847   3.444  11.478
26790W        W86084  19.597   5.245   1.275
26791W        W86085  40.306  36.856   4.216
26792W        W86086  32.550  18.715   0.763
26793W        W86087   4.315  35.470  12.980
26794W        W86088   3.912  44.819  12.872
26795W        W86089  39.446  34.016   2.241
26796W        W86090   9.753  17.644   1.913
26797W        W86091  27.551  16.100   2.310
26798W        W86092  26.687  26.970  14.786
26799W        W86093  30.586  25.007   0.809
26800W        W86094  41.989  14.108   1.795
26801W        W86095  34.949   7.270  12.450
26802W        W86096  34.879   8.805  14.430
26803W        W86097   9.274  44.898   4.345
26804W        W86098  23.176   2.259   3.252
26805W        W86099  32.624  24.494   0.877
26806W        W86100   3.738  40.426   2.813
26807W        W86101  22.162  17.131   1.737
26808W        W86102  12.159  21.189   3.746
26809W        W86103  23.619   4.779   3.680
26810W        W86104  42.304  40.837  10.482
26811W        W86105  27.501  35.385   2.182
26812W        W86106  43.293  13.787   4.733
26813W        W86107   8.875  28.489   4.261
26814W        W86108  24.636   9.395   1.803
26815W        W86109   7.249  34.470   2.814
26816W        W86110  14.228   0.793   4.171
26817W        W86111  37.338  36.466  10.500
26818W        W86112  43.846  17.292  12.484
26819W        W86113  31.448  12.826   0.483
26820W        W86114  35.422   3.387  11.083
26821W        W86115  32.937   8.774   3.308
26822W        W86116  32.628  41.379   9.676
26823W        W86117  25.208  26.190  14.310
26824W        W86118   4.936  10.730  14.887
26825W        W86119  34.474  15.135   1.426
26826W        W86120  41.377  33.459   2.785
26827W        W86121  38.523  18.258   4.346
26828W        W86122  33.604  29.534  13.934
26829W        W86123  18.655  34.493   2.879
26830W        W86124   1.372   7.366   0.404
26831W        W86125  38.360  39.314   0.839
26832W        W86126  39.001  15.720   1.212
26833W        W86127  42.809  38.074  13.025
26834W        W86128  20.077  38.482   1.711
26835W        W86129  34.974  21.715  11.097
26836W        W86130  15.160   7.869  12.990
26837W        W86131  23.522  29.926  11.576
26838W        W86132  27.583  41.357  11.451
26839W        W86133  27.087  13.759  12.404
26840W        W86134  27.009   3.454  12.921
26841W        W86135   0.827  21.529  11.386
26842W        W86136  27.080  22.508   3.387
26843W        W86137  19.595  39.511   2.324
26844W        W86138  25.614  38.876   4.835
26845W        W86139  38.841   0.843   0.915
26846W        W86140  34.114   3.305  11.512
26847W        W86141  22.731  28.040  11.447
26848W        W86142  43.018  41.377  11.986
26849W        W86143  27.603  30.142  13.518
26850W        W86144  39.020  25.642  13.972
26851W        W86145  16.287  44.446   2.887
26852W        W86146  11.798  22.099  11.056
26853W        W86147  34.400  43.381   4.780
26854W        W86148  25.599  39.004  10.084
26855W        W86149  14.592  17.081  10.495
26856W        W86150   3.726  28.082   4.264
26857W        W86151  28.080  39.488   1.351
26858W        W86152   1.426  36.903   3.226
26859W        W86153   3.760  22.532  11.104
26860W        W86154  22.115   4.246   4.341
26861W        W86155  44.475  34.073  13.329
26862W        W86156  37.914  27.123  13.873
26863W        W86157  27.509   8.406   2.381
26864W        W86158  39.314  34.517  12.852
26865W        W86159  29.516  20.525   1.267
26866W        W86160  16.201  33.466   9.972
26867W        W86161   0.815  28.584  10.557
26868W        W86162  34.872  11.162  14.978
26869W        W86163  23.703  26.093   2.812
26870W        W86164  41.922  16.805   1.317
26871W        W86165  28.108  22.061   0.243
26872W        W86166  29.979  22.236   1.367
26873W        W86167  19.716  39.049   4.223
26874W        W86168   7.866  12.618  13.890
26875W        W86169  41.934  34.419   2.317
26876W        W86170  10.287  13.715   4.601
26877W        W86171  10.382   4.699   1.451
26878W        W86172   9.719  26.165   1.833
26879W        W86173  13.262  28.027   2.740
26880W        W86174   1.859  21.153   1.899
26881W        W86175  32.627  15.682   4.293
26882W        W86176  37.060  11.646  13.905
26883W        W86177  28.480   7.375   1.796
26884W        W86178  36.870  40.878   3.159
26885W        W86179  14.818   2.286   1.704
26886W        W86180  34.915  24.989   3.655
26887W        W86181  30.427  40.000   3.189
26888W        W86182  39.826  31.091  10.622
26889W        W86183  13.794  11.655   1.437
26890W        W86184  19.243  14.202  13.464
26891W        W86185  17.634  27.478  12.957
26892W        W86186  42.321  43.901   9.627
26893W        W86187  32.619  24.216  11.052
26894W        W86188  26.648  36.549  14.909
26895W        W86189  20.055  28.138  12.031
26896W        W86190  26.537  17.672   0.900
26897W        W86191  10.827  12.839   1.753
26898W        W86192  12.755  30.978  14.970
26899W        W86193  33.598  21.128   3.340
26900W        W86194   7.274  33.525   1.923
26901W        W86195  44.379  37.341   2.210
26902W        W86196  43.396  14.648  12.460
26903W        W86197  16.623  38.935  14.803
26904W        W86198   0.454  27.117   0.765
26905W        W86199   9.376  15.682  14.833
26906W        W86200  37.873   7.411   1.741
26907W        W86201  18.165  26.605   4.672
26908W        W86202  15.810   3.916   4.216
26909W        W86203  31.605  26.519  13.481
26910W        W86204  19.628   8.257  13.537
26911W        W86205  13.683  29.967   2.354
26912W        W86206  18.630   0.911  13.354
26913W        W86207  16.577  40.390  11.901
26914W        W86208  17.075  29.658   1.246
26915W        W86209  43.855  22.101   2.348
26916W        W86210  32.096  24.121   1.399
26917W        W86211  26.003  26.097   4.266
26918W        W86212  24.114  37.398   3.668
26919W        W86213  19.094  24.170  11.562
26920W        W86214  34.398   0.481  13.430
26921W        W86215  38.985  16.803   1.812
26922W        W86216   6.766   5.315   5.668
26923W        W86217   0.759  35.956  11.985
26924W        W86218  10.692  29.654  12.084
26925W        W86219   0.402  24.082   3.782
26926W        W86220   2.791  33.086  11.989
26927W        W86221  31.432  26.594   1.338
26928W        W86222  15.147  20.260   2.315
26929W        W86223   6.223  13.327   4.804
26930W        W86224  27.174   8.678   5.204
26931W        W86225  34.561  28.635  12.928
26932W        W86226   1.412  27.657   2.270
26933W        W86227  14.602  30.980   2.346
26934W        W86228  23.661  28.542   1.319
26935W        W86229  41.914  15.318  12.959
26936W        W86230  39.930  41.406  12.572
26937W        W86231  30.150  25.141  14.301
26938W        W86232  44.816  20.129  12.478
26939W        W86233   1.862  31.508  10.910
26940W        W86234  38.454  34.930  13.514
26941W        W86235  14.672  26.079   1.418
26942W        W86236  19.175  39.402  13.056
26943W        W86237  28.101   2.471  12.846
26944W        W86238  25.083  15.098   3.207
26945W        W86239  32.996  26.660  14.954
26946W        W86240   3.941  32.129  13.793
26947W        W86241   0.874  29.011   2.903
26948W        W86242  13.653  39.345   4.221
26949W        W86243  13.164  16.597   2.223
26950W        W86244  17.748  16.731   5.162
26951W        W86245  23.494  41.327  14.514
26952W        W86246  25.163  37.885   3.690
26953W        W86247  18.560  39.010   1.844
26954W        W86248  33.045  16.219  12.353
26955W        W86249  44.393  10.741  13.836
26956W        W86250  17.764   2.791   1.438
26957W        W86251  13.163   0.295   1.814
26958W        W86252  25.503  12.280  13.495
26959W        W86253  15.742  35.976   2.858
26960W        W86254  20.191  31.012  12.356
26961W        W86255  41.032  31.143  13.866
26962W        W86256   4.264   7.379  13.498
26963W        W86257  31.499  41.529  10.478
26964W        W86258  14.093  29.613  14.429
26965W        W86259   4.380  44.280   0.868
26966W        W86260  31.144  22.675  14.408
26967W        W86261  40.352  43.788   2.747
26968W        W86262  19.173  42.480  14.284
26969W        W86263  31.617  29.158   0.249
26970W        W86264   5.389  24.700  11.937
26971W        W86265  43.273  40.900   0.438
26972W        W86266  23.726  13.316   4.280
26973W        W86267  24.188  24.715   3.366
26974W        W86268  39.818  41.348  10.413
26975W        W86269   4.361  33.579   0.880
26976W        W86270  39.920  27.477   0.242
26977W        W86271  25.992  16.683   0.755
26978W        W86272   0.290  32.495   2.237
26979W        W86273  26.074  18.263  11.433
26980W        W86274   6.183  21.176  14.797
26981W        W86275  41.793   9.183   2.386
26982W        W86276  25.632  42.503  14.774
26983W        W86277  33.107  35.454  13.895
26984W        W86278  38.963  23.995  14.355
26985W        W86279  26.195   4.389  10.628
26986W        W86280  18.559  30.577  13.034
26987W        W86281  15.246  16.201  10.412
26988W        W86282  20.145  27.087  14.487
26989W        W86283  31.904   8.821  11.046
26990W        W86284  44.956  26.688  14.490
26991W        W86285  39.365  28.555   4.267
26992W        W86286  32.512  13.702   2.843
26993W        W86287  19.106  20.574   3.681
26994W        W86288   4.223  30.961   4.676
26995W        W86289  41.315   7.862  10.406
26996W        W86290  15.229  33.478  13.392
26997W        W86291   5.845  40.367   4.821
26998W        W86292  11.323  13.234   4.293
26999W        W86293  36.524  36.443   4.184
27000W        W86294  30.116  14.727   4.826
27001W        W86295  24.019  30.500  13.486
27002W        W86296  43.837   9.813   2.180
27003W        W86297  13.792   3.856   4.766
27004W        W86298  16.619  15.185  13.913
27005W        W86299  30.480   6.875  11.399
27006W        W86300  19.163  16.707   1.342
27007W        W86301  12.788  28.014  14.335
27008W        W86302  26.163   8.320   0.842
27009W        W86303  35.961  41.404  13.412
27010W        W86304  32.091  40.414   4.768
27011W        W86305  26.594  33.059  14.784
27012W        W86306   6.805  26.629   2.715
27013W        W86307  28.170  12.152   4.142
27014W        W86308  38.419   4.381  10.899
27015W        W86309  37.546   4.890   2.373
27016W        W86310  43.804  31.487   2.741
27017W        W86311  34.919  30.922  12.002
27018W        W86312  31.642  11.338   4.159
27019W        W86313  11.813  10.181  13.968
27020W        W86314  19.195   8.324  11.953
27021W        W86315  20.127   3.228   1.786
27022W        W86316  11.190  33.584  11.580
27023W        W86317   7.766   4.713  12.040
27024W        W86318   8.882  19.194   0.738
27025W        W86319  17.228  42.981   3.263
27026W        W86320  17.296   3.426   0.898
27027W        W86321  19.656  10.650   2.301
27028W        W86322  42.403  36.009   0.824
27029W        W86323  33.469   1.438  12.366
27030W        W86324  39.058  36.877   3.347
27031W        W86325  26.574  31.029  14.798
27032W        W86326  41.854  18.223  13.952
27033W        W86327   6.883  28.548   1.250
27034W        W86328  15.088  14.308  11.989
27035W        W86329  38.473  34.600   2.326
27036W        W86330   5.846  38.887   2.753
27037W        W86331   5.257  11.718  12.848
27038W        W86332  18.776  34.368   5.128
27039W        W86333  31.043  12.326  13.921
27040W        W86334  44.388  19.707  11.881
27041W        W86335  13.743  16.697   0.301
27042W        W86336  40.459   2.836   0.317
27043W        W86337   4.248   0.813  14.808
27044W        W86338  22.172  19.272   3.268
27045W        W86339  38.841  13.112  14.396
27046W        W86340  24.029   6.345   1.917
27047W        W86341  24.099  34.933  12.565
27048W        W86342  23.165  30.539  12.541
27049W        W86343  13.252  40.429   4.174
27050W        W86344  38.478  13.820   1.770
27051W        W86345  34.587  12.240   1.703
27052W        W86346  24.652  13.661  11.591
27053W        W86347  17.790  21.092  13.365
27054W        W86348   3.844  15.586   9.922
27055W        W86349  26.113  23.489  11.921
27056W        W86350   9.212  25.023   0.247
27057W        W86351  23.034  40.516  10.937
27058W        W86352  10.661  34.900   9.517
27059W        W86353  37.881  12.144  13.538
27060W        W86354   4.790  24.084   3.676
27061W        W86355  40.487  44.996   0.316
27062W        W86356   7.828  39.406  10.473
27063W        W86357  34.932   1.939  14.983
27064W        W86358  17.618  28.633   4.790
27065W        W86359  42.306  22.721  10.909
27066W        W86360  32.033  43.382   5.218
27067W        W86361   0.848   2.389  14.474
27068W        W86362  29.083  24.685   4.672
27069W        W86363  34.477  18.208   3.758
27070W        W86364  26.549   4.448   4.224
27071W        W86365  26.592  28.050   5.139
27072W        W86366  32.471   8.256   5.224
27073W        W86367  13.335  16.172   4.714
27074W        W86368  42.964   8.331  10.450
27075W        W86369   9.840  27.678  12.085
27076W        W86370  29.644  34.407  14.353
27077W        W86371  33.046   4.240   3.287
27078W        W86372  26.160  26.093  11.433
27079W        W86373  19.675  35.917   3.235
27080W        W86374  16.592  15.717   1.343
27081W        W86375  29.020  37.379  14.507
27082W        W86376   9.339  24.133  11.457
27083W        W86377  38.380  12.826  10.430
27084W        W86378  31.474  21.715   4.129
27085W        W86379  38.836  21.687   4.765
27086W        W86380  20.672  39.472   4.738
27087W        W86381  20.748  42.316  11.560
27088W        W86382  14.616  28.660   2.279
27089W        W86383   8.233  36.419  10.574
27090W        W86384  30.479  22.123   2.334
27091W        W86385   6.307  37.063   3.723
27092W        W86386  29.089  29.587  14.000
27093W        W86387  11.148   5.772  12.402
27094W        W86388  17.579  22.049  13.412
27095W        W86389  29.960   1.814   4.786
27096W        W86390  34.410  23.531  12.074
27097W        W86391   9.393  18.067  13.537
27098W        W86392   5.923   2.231   4.155
27099W        W86393  41.908  13.289   0.773
27100W        W86394  21.239  44.283   2.885
27101W        W86395  10.340  28.105   2.260
27102W        W86396  31.098  34.015   3.740
27103W        W86397  29.037  21.263   1.889
27104W        W86398   0.298  29.564   1.412
27105W        W86399  24.209  33.016   0.944
27106W        W86400  23.637   2.433  14.412
27107W        W86401  14.273  36.097   3.343
27108W        W86402  29.983   8.162   1.338
27109W        W86403  30.609  18.075  12.979
27110W        W86404  17.669  18.617   3.843
27111W        W86405  43.865   9.755  11.936
27112W        W86406  16.643  16.086  10.488
27113W        W86407  33.882  19.247   0.424
27114W        W86408  24.671   3.251  12.906
27115W        W86409  17.714  42.918  12.442
27116W        W86410  12.787  31.599  12.960
27117W        W86411  17.109  36.879  11.568
27118W        W86412  44.858   3.291   2.375
27119W        W86413  32.989  11.793   0.941
27120W        W86414  17.720  30.475   1.833
27121W        W86415  23.499   8.678  12.083
27122W        W86416  24.644  44.894   4.184
27123W        W86417  35.508  42.002  12.571
27124W        W86418  43.864   8.219  14.006
27125W        W86419  33.995  30.908   3.351
27126W        W86420  39.996  23.224  12.090
27127W        W86421  43.972  26.056  13.393
27128W        W86422  28.085  34.912  11.556
27129W        W86423  10.277  41.351  14.013
27130W        W86424  12.812  31.630   0.328
27131W        W86425  12.851  20.100   4.285
27132W        W86426  10.380  28.022  13.994
27133W        W86427   4.431   0.472  11.386
27134W        W86428  31.125  18.783   4.124
27135W        W86429  31.526  34.407   1.240
27136W        W86430  42.467  19.114  14.285
27137W        W86431  32.908  24.696   4.314
27138W        W86432   6.375  13.785   4.189
27139W        W86433  34.074  20.533  11.427
27140W        W86434  17.589  36.016  11.567
27141W        W86435  35.540  17.727  10.421
27142W        W86436  28.547  25.478   4.606
27143W        W86437  13.124  12.848   1.888
27144W        W86438  20.206   2.913  13.009
27145W        W86439   9.395   1.360  13.040
27146W        W86440  31.945  15.182   3.812
27147W        W86441   9.834  38.414  12.831
27148W        W86442  25.154  43.412   0.304
27149W        W86443  34.593  28.148  14.293
27150W        W86444  32.517  14.335   3.669
27151W        W86445  37.412  12.213  12.028
27152W        W86446  44.294   4.817  14.333
27153W        W86447  28.458  19.270  11.868
27154W        W86448  13.701  17.713   0.916
27155W        W86449  37.479  20.564   0.899
27156W        W86450  12.660  20.131  12.451
27157W        W86451  37.563   8.281  14.296
27158W        W86452   6.316  29.088  14.308
27159W        W86453  38.958  33.027  13.837
27160W        W86454  39.020  17.567  10.409
27161W        W86455  11.149  26.618   0.811
27162W        W86456  40.846   1.949   2.301
27163W        W86457  44.851   5.273  11.013
27164W        W86458  21.032  25.696  13.889
27165W        W86459  44.496  32.057   9.964
27166W        W86460   9.276  33.568  12.946
27167W        W86461  38.489   1.868   2.376
27168W        W86462   4.315  19.277   0.309
27169W        W86463  24.042  38.408   2.746
27170W        W86464  23.183  26.598  11.972
27171W        W86465  11.197  33.034  12.568
27172W        W86466  22.698  43.774   0.757
27173W        W86467   6.724  25.499  12.069
27174W        W86468  22.166  24.160  10.958
27175W        W86469   1.964   0.888   4.138
27176W        W86470  14.121  42.472   2.765
27177W        W86471  33.380  13.236  11.528
27178W        W86472   6.203   7.242   0.960
27179W        W86473   0.982   6.721  11.435
27180W        W86474  27.663  10.637   2.737
27181W        W86475  27.046  19.703   4.217
27182W        W86476  17.623  34.062  14.859
27183W        W86477  16.242  20.661   2.296
27184W        W86478   4.430  32.952   4.248
27185W        W86479  37.562  10.819  13.873
27186W        W86480  26.024   3.216  12.519
27187W        W86481  24.120  22.231   0.427
27188W        W86482  39.367  38.923   2.226
27189W        W86483  44.277  22.744   4.302
27190W        W86484  21.541  20.604   4.718
27191W        W86485  15.698  37.422  12.439
27192W        W86486  39.476   1.841  10.908
27193W        W86487  39.863  30.127   0.384
27194W        W86488  16.664  16.610  11.906
27195W        W86489  17.098  12.223  14.968
27196W        W86490  10.349  39.995   0.328
27197W        W86491  35.035   2.724  14.945
27198W        W86492  33.482  40.037   0.333
27199W        W86493  43.413   9.813   4.623
27200W        W86494  16.683  41.874   3.800
27201W        W86495  28.582  14.649  12.361
27202W        W86496  41.439  35.364  13.987
27203W        W86497  16.668  36.443  12.408
27204W        W86498  10.752   9.262   3.372
27205W        W86499  23.163  35.518  13.878
27206W        W86500  25.585  34.452   0.797
27207W        W86501  25.084  15.270  10.436
27208W        W86502   6.850  33.024  11.053
27209W        W86503   7.826  26.592  14.955
27210W        W86504  37.552  24.154   0.739
27211W        W86505  20.059   7.182  10.620
27212W        W86506  40.334  44.791  12.495
27213W        W86507   4.789  40.364  14.345
27214W        W86508  37.417  23.674  12.994
27215W        W86509  19.604  22.746  14.986
27216W        W86510  39.486  10.815  11.541
27217W        W86511  33.048  37.023  12.385
27218W        W86512  33.401  36.537   2.328
27219W        W86513  19.140  43.867  12.558
27220W        W86514  31.439  11.732   0.467
27221W        W86515  22.076  26.653  14.401
27222W        W86516  27.021  21.654   4.311
27223W        W86517  20.603  12.182   3.197
27224W        W86518  17.721  27.466  10.986
27225W        W86519  28.491  28.630  14.954
27226W        W86520  19.716  40.341   4.627
27227W        W86521   5.402  11.754  10.411
27228W        W86522  31.015  18.257  11.533
27229W        W86523  12.132   1.907   4.279
27230W        W86524  16.731  28.019   3.333
27231W        W86525   0.307  24.621   1.227
27232W        W86526  25.015   9.662  12.539
27233W        W86527  34.913  12.622  13.019
27234W        W86528   9.386  43.356   0.835
27235W        W86529  37.995  21.169  13.839
27236W        W86530   3.817  38.359  12.476
27237W        W86531  35.489  37.456   4.676
27238W        W86532  21.705  43.437  11.047
27239W        W86533  22.718  36.887   0.444
27240W        W86534   7.314  12.246  12.402
27241W        W86535   4.271  12.147   0.873
27242W        W86536   4.227   3.857   9.441
27243W        W86537  36.067  43.907   3.822
27244W        W86538  41.400  32.058  12.501
27245W        W86539  24.634   8.263   0.873
27246W        W86540  38.065   5.210  10.605
27247W        W86541  35.438  23.201   4.209
27248W        W86542  12.223  26.621  13.819
27249W        W86543   1.284  21.658   3.777
27250W        W86544  12.220   9.360  13.380
27251W        W86545  33.986  29.640   2.740
27252W        W86546  36.492  19.547   3.736
27253W        W86547  17.601  40.526  12.087
27254W        W86548  33.921  23.569   2.833
27255W        W86549  29.425  16.084   4.691
27256W        W86550  23.014  14.766   3.314
27257W        W86551  37.084  39.499  13.345
27258W        W86552   2.823   3.226   0.459
27259W        W86553  37.836  28.948  14.776
27260W        W86554  15.649   2.945  10.566
27261W        W86555  16.592  26.961  14.833
27262W        W86556  28.458  13.702   4.190
27263W        W86557  22.682  44.756   2.739
27264W        W86558  10.663  26.617  12.984
27265W        W86559   1.417   5.321  12.880
27266W        W86560  26.965  16.755  13.369
27267W        W86561  27.169  28.666  10.461
27268W        W86562   4.316  28.466  11.123
27269W        W86563   0.478  15.786   3.375
27270W        W86564  25.011  40.965  11.016
27271W        W86565   9.385  32.088   1.769
27272W        W86566   9.653  10.251   4.330
27273W        W86567  29.152   0.828  12.888
27274W        W86568   2.423  22.124  12.019
27275W        W86569  43.917   3.823  13.938
27276W        W86570   0.302  15.729   1.381
27277W        W86571  17.723  28.654  10.638
27278W        W86572  40.802  36.971  14.486
27279W        W86573  30.443   3.228  12.841
27280W        W86574  28.002  15.275  14.952
27281W        W86575   8.252  15.190  12.895
27282W        W86576   6.819  10.214   4.834
27283W        W86577   6.687  42.793  11.479
27284W        W86578  29.102  15.653   0.384
27285W        W86579   3.775  17.657   1.448
27286W        W86580  19.576   4.908   4.710
27287W        W86581  33.562  28.664  11.019
27288W        W86582  39.423  20.108   0.410
27289W        W86583   7.781   0.361  14.499
27290W        W86584  42.002   9.223   3.289
27291W        W86585  24.505  16.580  14.295
27292W        W86586   5.348  14.267  11.458
27293W        W86587  42.882  12.642   9.989
27294W        W86588   9.242   4.853  12.063
27295W        W86589  24.057  32.635   2.289
27296W        W86590  22.230  30.914   0.367
27297W        W86591  26.633  44.797   0.437
27298W        W86592  30.462  34.945  14.303
27299W        W86593  35.956  25.991   2.701
27300W        W86594  23.206  38.506   3.863
27301W        W86595  21.251   0.787  13.311
27302W        W86596   8.372  16.762   1.846
27303W        W86597   3.273  14.238  10.553
27304W        W86598  35.424  11.242  10.032
27305W        W86599  35.466  37.847  10.559
27306W        W86600   5.837  28.071   2.711
27307W        W86601   3.709  23.061  12.354
27308W        W86602  38.514  39.515   3.314
27309W        W86603  23.206   8.790   2.877
27310W        W86604  18.749  32.548  12.844
27311W        W86605  21.155   8.753  10.081
27312W        W86606   2.335  17.786  11.066
27313W        W86607  18.734  14.258   1.753
27314W        W86608  36.897  31.934  14.920
27315W        W86609   8.749   7.358  13.404
27316W        W86610  31.627  16.582  12.854
27317W        W86611  26.677   3.722   2.671
27318W        W86612  29.614  41.010   1.413
27319W        W86613  27.985   8.380   3.656
27320W        W86614  42.860  43.992   3.170
27321W        W86615  34.072  37.400   1.321
27322W        W86616  22.726  12.260  13.846
27323W        W86617   9.752  25.504  13.847
27324W        W86618  35.962   7.338   3.371
27325W        W86619  22.608  31.911  12.834
27326W        W86620  12.845  42.424   0.356
27327W        W86621  32.402  32.920   3.382
27328W        W86622  36.063   4.376  13.017
27329W        W86623  36.911  29.132  11.376
27330W        W86624  42.869  24.128   3.764
27331W        W86625  23.597  12.357  10.077
27332W        W86626  21.200  25.518   0.243
27333W        W86627  44.402   1.348   0.830
27334W        W86628   1.376  33.885   4.187
27335W        W86629   7.737   5.862   2.409
27336W        W86630  35.089  33.579   0.947
27337W        W86631  37.959  34.103  14.020
27338W        W86632  25.552  14.312   2.791
27339W        W86633  15.682  39.018   2.371
27340W        W86634  17.230   2.960   4.690
27341W        W86635   5.196  20.043   0.762
27342W        W86636   9.815  27.598   2.266
27343W        W86637  28.645  26.032   0.463
27344W        W86638  28.036  11.172   3.259
27345W        W86639  30.965  36.593  12.003
27346W        W86640   8.848   8.317  10.469
27347W        W86641  22.199  30.542   2.789
27348W        W86642  23.176  39.332  12.866
27349W        W86643  16.279  29.110   4.736
27350W        W86644  20.523  13.773  12.949
27351W        W86645   0.801  29.598   2.711
27352W        W86646  42.925  44.372  14.867
27353W        W86647  32.461  36.458  11.926
27354W        W86648   8.879  18.114  11.539
27355W        W86649   6.407  35.946   3.659
27356W        W86650   5.781  42.828  10.558
27357W        W86651   1.296  32.472  11.594
27358W        W86652  34.552  41.332  12.850
27359W        W86653  21.662  36.912  12.451
27360W        W86654  36.981  30.467   0.412
27361W        W86655  35.078  17.714  11.546
27362W        W86656  27.020  44.412  11.875
27363W        W86657  36.028  24.528   1.838
27364W        W86658  18.240  17.742  11.516
27365W        W86659  17.112   7.751  11.495
27366W        W86660  16.805   8.722   4.692
27367W        W86661  12.705   8.389  13.943
27368W        W86662  24.136  21.589  13.344
27369W        W86663  19.099  12.721   2.274
27370W        W86664   0.361  27.465   3.670
27371W        W86665  36.572  21.122   9.929
27372W        W86666  38.033  44.306   3.367
27373W        W86667  29.144  29.159  14.826
27374W        W86668   1.351  38.870  12.840
27375W        W86669  13.672  43.766  12.502
27376W        W86670   7.875  12.634  12.477
27377W        W86671  35.390  27.583  14.375
27378W        W86672  13.812  40.850  13.329
27379W        W86673  27.031  37.340  12.544
27380W        W86674  19.534  33.389  13.385
27381W        W86675   7.801   9.725  13.360
27382W        W86676   5.893  14.302  11.022
27383W        W86677  40.992   3.761  12.040
27384W        W86678  21.712   5.406  14.463
27385W        W86679  17.797  35.444   4.259
27386W        W86680  32.430  15.705  14.459
27387W        W86681  10.741   4.761  11.390
27388W        W86682  27.135   3.797  11.071
27389W        W86683  34.386   3.247  14.493
27390W        W86684   7.330   1.876   3.781
27391W        W86685  23.583  28.498   4.683
27392W        W86686  16.193   9.743   5.143
27393W        W86687  43.895  44.311  11.550
27394W        W86688   1.427  15.263   1.714
27395W        W86689  22.122  27.549  10.889
27396W        W86690  30.621  23.662  11.597
27397W        W86691  13.830  42.505  10.893
27398W        W86692  33.576  28.169   2.211
27399W        W86693  10.218  37.081   3.366
27400W        W86694  29.484   6.895   0.890
27401W        W86695   5.319  20.541  14.870
27402W        W86696  10.740  37.367  14.446
27403W        W86697  10.674   5.842   1.746
27404W        W86698  12.665  30.959   1.314
27405W        W86699  38.064  25.707   4.185
27406W        W86700  28.644  38.457   2.418
27407W        W86701  32.900   4.736   0.395
27408W        W86702  11.807  31.511  14.936
27409W        W86703  31.923  12.793   3.209
27410W        W86704   6.679  23.554   4.809
27411W        W86705  18.285   5.357   1.388
27412W        W86706  16.120  41.440   3.799
27413W        W86707  37.024  18.161   0.944
27414W        W86708  34.070   4.361  11.947
27415W        W86709  29.017  18.774   2.720
27416W        W86710  12.227  21.604  10.479
27417W        W86711   7.307  10.862   3.791
27418W        W86712  42.442  43.000   1.737
27419W        W86713  21.516  16.709  13.807
27420W        W86714  11.358  38.907  11.373
27421W        W86715   6.196  33.431   1.233
27422W        W86716  27.195  17.731  14.400
27423W        W86717   6.278  22.136  14.277
27424W        W86718  25.124   9.263  14.875
27425W        W86719   4.253   5.353   1.363
27426W        W86720   3.747  29.498   0.292
27427W        W86721  26.070  43.317   4.700
27428W        W86722  40.366  22.232  14.455
27429W        W86723   5.717  36.561   4.128
27430W        W86724  15.622  44.467   5.099
27431W        W86725  15.680  30.543  10.087
27432W        W86726   1.835  12.204  14.368
27433W        W86727  39.994  21.243  13.441
27434W        W86728  23.029  14.184  14.280
27435W        W86729  34.466   2.911   0.463
27436W        W86730  23.604  12.280  13.923
27437W        W86731   9.741  22.717   5.222
27438W        W86732  28.514  37.006   4.247
27439W        W86733  43.366  24.088  13.031
27440W        W86734  40.980  18.137   4.704
27441W        W86735  43.869  40.003  11.053
27442W        W86736   2.407  24.651  14.311
27443W        W86737  32.582  34.036  10.598
27444W        W86738  13.732   7.269   4.702
27445W        W86739   2.912  22.541  10.923
27446W        W86740  27.093  29.609  11.932
27447W        W86741  10.778  42.519  13.487
27448W        W86742  29.514  26.995  12.994
27449W        W86743  39.881   3.760  11.118
27450W        W86744  25.576   1.885  14.004
27451W        W86745  34.921  20.636  11.446
27452W        W86746  17.092  29.482   1.920
27453W        W86747  31.633  36.439   3.297
27454W        W86748   8.864  26.977   4.724
27455W        W86749   0.310  16.084  13.978
27456W        W86750  43.332  13.204   4.214
27457W        W86751   9.343  34.544   1.226
27458W        W86752  34.581  16.666  14.823
27459W        W86753  31.619   4.306   1.450
27460W        W86754   1.259  37.975  12.578
27461W        W86755   2.801  40.483   3.669
27462W        W86756  38.012  20.080  11.092
27463W        W86757   3.287  36.498  13.484
27464W        W86758  16.296  11.266  12.004
27465W        W86759  11.801  27.494   2.324
27466W        W86760  21.697  28.460  13.976
27467W        W86761  25.575  27.641  12.455
27468W        W86762  44.848   6.335   3.642
27469W        W86763  32.043   5.693   2.820
27470W        W86764  35.359  13.628  14.382
27471W        W86765  14.654  41.513   5.261
27472W        W86766   5.744  27.164  14.406
27473W        W86767  34.402   1.466   1.387
27474W        W86768  17.165  12.661   2.670
27475W        W86769   7.300  18.192   2.288
27476W        W86770  35.099  14.283  13.375
27477W        W86771   0.257  21.534   3.186
27478W        W86772  25.664  30.908   0.432
27479W        W86773  35.447  15.609   0.895
27480W        W86774  21.060  34.548  12.488
27481W        W86775  42.410   5.697   4.290
27482W        W86776  29.483  27.578  14.379
27483W        W86777  33.051  42.444   2.250
27484W        W86778  26.144  18.089   2.666
27485W        W86779  14.678  24.618   3.847
27486W        W86780  29.549  40.465   2.181
27487W        W86781  36.466  43.386   4.223
27488W        W86782  40.466  29.537  10.994
27489W        W86783  11.655   3.416   4.758
27490W        W86784  42.901  27.677  11.855
27491W        W86785  17.595  25.620   2.838
27492W        W86786   8.178  38.885   3.298
27493W        W86787  12.648  24.511  14.850
27494W        W86788   2.782  26.129   2.802
27495W        W86789  15.143  27.189   0.245
27496W        W86790  39.440  34.928  14.344
27497W        W86791  15.193  20.652  13.358
27498W        W86792   7.174  42.896   0.390
27499W        W86793   1.927  29.542  10.507
27500W        W86794  26.473  44.935  10.597
27501W        W86795  10.312  28.521   2.776
27502W        W86796  31.924  21.564   0.808
27503W        W86797   2.251   1.930   9.938
27504W        W86798  24.486  24.554  11.425
27505W        W86799   6.311  32.635   5.213
27506W        W86800  18.708   0.857   9.959
27507W        W86801  23.535  28.985   0.790
27508W        W86802  10.650  26.626  13.486
27509W        W86803  18.579   7.879  11.445
27510W        W86804   8.294  34.932   3.712
27511W        W86805  10.150  29.438   1.893
27512W        W86806  18.255   8.252  14.335
27513W        W86807  21.230   8.298  10.030
27514W        W86808  38.347  20.150   1.315
27515W        W86809  16.593  33.484   3.822
27516W        W86810  12.709   4.389   3.733
27517W        W86811  17.712  30.065   4.599
27518W        W86812  17.260   8.183   1.381
27519W        W86813  23.173  10.190  12.864
27520W        W86814   5.762  38.546  13.951
27521W        W86815  24.594   8.859  13.393
27522W        W86816  27.197   4.720   4.787
27523W        W86817  19.118   4.833  13.039
27524W        W86818  21.043  37.449  11.478
27525W        W86819  21.200  35.929   3.751
27526W        W86820  24.151  33.118  12.360
27527W        W86821  11.788  26.142   0.858
27528W        W86822  14.707  23.522  14.031
27529W        W86823  23.992  12.712  11.980
27530W        W86824  35.393  28.959   1.787
27531W        W86825  20.181  12.215   3.853
27532W        W86826  23.194   9.668  12.443
27533W        W86827  17.792  33.952   3.191
27534W        W86828  30.035  34.965   4.277
27535W        W86829  31.610   9.676  13.909
27536W        W86830  23.582   4.312   1.335
27537W        W86831  23.230  21.574  13.009
27538W        W86832   5.817   1.931   3.777
27539W        W86833  15.755  16.633  11.874
27540W        W86834   3.305   8.382  12.948
27541W        W86835  41.304  31.598   0.830
27542W        W86836  29.141  20.170   0.254
27543W        W86837   2.847   0.978   4.716
27544W        W86838  27.464  42.381  14.760
27545W        W86839  42.927   4.755   3.247
27546W        W86840   9.275  24.612  14.371
27547W        W86841   4.879  16.155  10.994
27548W        W86842  34.114  26.054  12.854
27549W        W86843  28.561  28.538  12.343
27550W        W86844   8.359  25.976   0.905
27551W        W86845  36.456  20.566   4.796
27552W        W86846  17.114  44.406   0.446
27553W        W86847  18.078  21.708   5.118
27554W        W86848   8.892   7.830  10.932
27555W        W86849  31.052   0.292  12.992
27556W        W86850  30.111  20.227  13.499
27557W        W86851  18.113  38.918   4.307
27558W        W86852  10.264  38.014   4.830
27559W        W86853   9.156  20.051   1.283
27560W        W86854   5.197  17.303  11.940
27561W        W86855  37.516  19.722  12.981
27562W        W86856   1.837   6.827   3.811
27563W        W86857  29.932  21.143   2.418
27564W        W86858   5.332  44.876  13.397
27565W        W86859  28.458  40.486   3.842
27566W        W86860  39.057  22.612   5.209
27567W        W86861   3.221  24.617  13.908
27568W        W86862  13.322   0.416   2.344
27569W        W86863   5.756  39.339   3.274
27570W        W86864   8.335  43.982  14.514
27571W        W86865  17.183  32.507  12.429
27572W        W86866  21.534  13.290  13.498
27573W        W86867  29.594   1.811  12.343
27574W        W86868  16.215  12.748  10.589
27575W        W86869   9.347  19.209  12.533
27576W        W86870  19.725  41.348   1.716
27577W        W86871  24.195  28.168   3.322
27578W        W86872  25.155   6.362   3.332
27579W        W86873  12.782  25.534   3.372
27580W        W86874  44.007  40.041   1.742
27581W        W86875  37.351  16.684   0.368
27582W        W86876  23.029  18.244   3.251
27583W        W86877  17.660  26.995   4.755
27584W        W86878   7.733  37.079  11.930
27585W        W86879  34.415  29.925  12.879
27586W        W86880  11.864  18.160   5.198
27587W        W86881  32.124  37.875   1.273
27588W        W86882  23.145  26.672   4.661
27589W        W86883   7.745  32.113  10.573
27590W        W86884  33.960  21.117   1.369
27591W        W86885   7.670   5.689  11.869
27592W        W86886  17.727  31.580   2.861
27593W        W86887  14.205  20.219  10.606
27594W        W86888   9.770  18.671  10.551
27595W        W86889  16.164  34.904  11.064
27596W        W86890  43.856  44.375  11.018
27597W        W86891  12.646  22.726  12.476
27598W        W86892  37.953  33.442  12.384
27599W        W86893  30.504  31.037   4.646
27600W        W86894  29.465  33.618  12.419
27601W        W86895  44.380  43.378  13.509
27602W        W86896  17.177   2.803   1.926
27603W        W86897  37.027   9.724   0.467
27604W        W86898  25.151  43.009  13.043
27605W        W86899  20.696   5.289   4.145
27606W        W86900  13.250  31.029  10.413
27607W        W86901  24.011   3.758  13.315
27608W        W86902  13.237   9.810  14.373
27609W        W86903  38.950  20.115   2.691
27610W        W86904   4.391  24.652  13.455
27611W        W86905  20.704  16.236  13.382
27612W        W86906   3.815  40.484  13.063
27613W        W86907  18.651   5.711   4.632
27614W        W86908  16.223  24.715   3.692
27615W        W86909  44.282  14.165   3.332
27616W        W86910  42.783  42.825   4.722
27617W        W86911   8.690  19.767  14.849
27618W        W86912  40.041  37.928   0.426
27619W        W86913   0.884   6.772   0.433
27620W        W86914  35.985   6.908   4.698
27621W        W86915  39.952  28.618  14.393
27622W        W86916   3.811  32.539   3.795
27623W        W86917  23.685  16.195  12.858
27624W        W86918  33.069  22.722   3.858
27625W        W86919  21.054   5.878  11.046
27626W        W86920  42.017   0.893  14.435
27627W        W86921  10.364  36.932  12.963
27628W        W86922  42.348  43.404  12.983
27629W        W86923  35.590  21.072  10.630
27630W        W86924   4.861  31.035  11.073
27631W        W86925  32.142   7.850  11.600
27632W        W86926   5.906   9.656   0.805
27633W        W86927  10.254  10.179  11.017
27634W        W86928  21.753  14.771   4.180
27635W        W86929  21.031  35.595   3.368
27636W        W86930   6.897  18.117  10.899
27637W        W86931  19.062  43.443   4.763
27638W        W86932   2.786  24.184  14.995
27639W        W86933  34.462   8.330  11.903
27640W        W86934  24.085  31.505  11.949
27641W        W86935  40.529  36.944  14.872
27642W        W86936  29.483  28.650  14.764
27643W        W86937  12.187   8.901  13.011
27644W        W86938  29.449  32.075  10.072
27645W        W86939   9.690  18.653   1.899
27646W        W86940  29.536   3.925   4.733
27647W        W86941  33.602  23.990  11.912
27648W        W86942  15.304  27.148   2.790
27649W        W86943  18.754  35.551   2.377
27650W        W86944  24.134  21.561   4.330
27651W        W86945  35.955  37.442   3.257
27652W        W86946   5.269  36.554   3.164
27653W        W86947   8.830  32.968   0.451
27654W        W86948  25.663   5.360   1.358
27655W        W86949  26.993  24.038   4.725
27656W        W86950  40.525  28.100   4.690
27657W        W86951  12.204  14.696  10.425
27658W        W86952   6.700   4.907   0.811
27659W        W86953  33.396   4.347   1.387
27660W        W86954  25.536   6.228  13.504
27661W        W86955  11.333  32.922  14.889
27662W        W86956   3.885  22.506   0.770
27663W        W86957   2.759  27.553   4.702
27664W        W86958  32.912  10.662   2.222
27665W        W86959  34.610   6.748   9.942
27666W        W86960  12.739  39.885  10.539
27667W        W86961  36.865   3.395   0.867
27668W        W86962   2.440  10.380  12.397
27669W        W86963  35.481  19.675  11.501
27670W        W86964  18.693  40.512  12.455
27671W        W86965  11.348   1.833  14.366
27672W        W86966  28.519   1.868   4.138
27673W        W86967  41.379  37.343  10.556
27674W        W86968  11.785  31.139  13.834
27675W        W86969  23.236  21.110   2.305
27676W        W86970  11.705  32.628   1.317
27677W        W86971   9.807  20.076   4.697
27678W        W86972  19.053  36.395  12.419
27679W        W86973  27.452   7.782   4.759
27680W        W86974   5.931  29.010   0.797
27681W        W86975  35.892  33.494   2.258
27682W        W86976   8.896   1.745  14.431
27683W        W86977  12.626   9.203  14.811
27684W        W86978  18.693   3.919  11.997
27685W        W86979   2.409   5.691   4.225
27686W        W86980  32.074  34.596  11.421
27687W        W86981   7.830  36.582  12.990
27688W        W86982   0.334  11.680   3.194
27689W        W86983  29.082  38.374  13.835
27690W        W86984  39.946  36.580  14.011
27691W        W86985  25.689   9.787   2.817
27692W        W86986   4.396  32.440  12.959
27693W        W86987   4.328   0.763   0.791
27694W        W86988  30.000  19.701  14.354
27695W        W86989   4.937  42.503   0.844
27696W        W86990  19.745   4.291   1.294
27697W        W86991  36.495   5.274  12.418
27698W        W86992   1.437  25.675   4.688
27699W        W86993  15.133  17.617  11.613
27700W        W86994  10.162   5.402  10.499
27701W        W86995  44.480  13.831  10.417
27702W        W86996  36.481  39.469  14.430
27703W        W86997  27.074  34.072   0.310
27704W        W86998  22.026  18.188   2.809
27705W        W86999  38.032  20.135   2.400
27706W        W87000  30.917   9.758   0.881
27707W        W87001   2.458   5.713   4.829
27708W        W87002  19.107   6.319   2.356
27709W        W87003   8.685  17.623  14.842
27710W        W87004  33.896   5.846   0.274
27711W        W87005   5.398   9.696  14.282
27712W        W87006  22.608  29.635   1.870
27713W        W87007  43.920  34.038   4.241
27714W        W87008  38.363  25.119  11.946
27715W        W87009  32.909  37.037  11.056
27716W        W87010  27.001  10.738   2.310
27717W        W87011  42.988   5.437  10.516
27718W        W87012  11.864  34.874  11.538
27719W        W87013  35.398  11.209  11.894
27720W        W87014   2.808  32.428  13.930
27721W        W87015  40.524  12.834  12.432
27722W        W87016  22.580  44.369   0.445
27723W        W87017  13.243  36.391  14.385
27724W        W87018  23.603  26.182  11.601
27725W        W87019  41.863  12.121   0.802
27726W        W87020   4.855  39.008   1.309
27727W        W87021   3.226  44.461   2.256
27728W        W87022  37.992  41.429  12.452
27729W        W87023  16.267  34.045   3.630
27730W        W87024   0.403  22.668   1.788
27731W        W87025  22.665  24.133  14.342
27732W        W87026  28.516  29.071   3.361
27733W        W87027  35.933  12.179  13.442
27734W        W87028  11.795  41.411  13.939
27735W        W87029   0.470  16.286   2.301
27736W        W87030  42.285  24.704   0.314
27737W        W87031  32.539  33.993   0.325
27738W        W87032  33.591  44.390  13.414
27739W        W87033  38.908  13.175   0.394
27740W        W87034  12.136  36.891   3.738
27741W        W87035   6.832  11.258  14.505
27742W        W87036  24.554   5.699  11.551
27743W        W87037  39.487  13.797  11.083
27744W        W87038  10.263  29.625   2.831
27745W        W87039   1.872  18.267   1.922
27746W        W87040  41.001  43.957  11.469
27747W        W87041  31.487  25.112  14.796
27748W        W87042  28.984  30.494   1.343
27749W        W87043   3.348   9.347   4.647
27750W        W87044  34.999   0.921   2.829
27751W        W87045  30.626  38.070   3.285
27752W        W87046  13.805  34.374   2.263
27753W        W87047  18.148  43.889  13.394
27754W        W87048  35.961   7.275  14.797
27755W        W87049  15.093   9.682   3.736
27756W        W87050  18.783  37.924   3.674
27757W        W87051  19.131  28.124   3.669
27758W        W87052  31.934  43.276  14.375
27759W        W87053   4.842  10.229   0.898
27760W        W87054   8.891  31.497   3.187
27761W        W87055   6.765   5.396   3.828
27762W        W87056  22.164  34.432  10.624
27763W        W87057  36.521  12.283   2.792
27764W        W87058  11.358  23.052   4.221
27765W        W87059  29.524  20.216  13.314
27766W        W87060  25.009  16.793   1.312
27767W        W87061  13.832   0.300   0.309
27768W        W87062  30.108  10.781   2.374
27769W        W87063  27.668  44.476  10.924
27770W        W87064  20.683  14.778   3.157
27771W        W87065  43.889  30.996   2.250
27772W        W87066  42.786  22.246  12.858
27773W        W87067   8.767  44.373  13.425
27774W        W87068  42.997   2.378   4.829
27775W        W87069  40.334  41.924  14.918
27776W        W87070  33.910  35.040   3.719
27777W        W87071  33.958  30.066  10.925
27778W        W87072  31.899   0.469   3.363
27779W        W87073  36.540  14.126   2.894
27780W        W87074  40.053  27.041  14.393
27781W        W87075   1.959  23.146   1.738
27782W        W87076   9.216  35.078  10.964
27783W        W87077  28.995  24.663   2.663
27784W        W87078   8.865   9.161   3.744
27785W        W87079   7.362  13.244  14.438
27786W        W87080   0.264   6.768  11.094
27787W        W87081  18.766  42.889  12.949
27788W        W87082  36.022  32.885  10.961
27789W        W87083  41.331   2.850   1.219
27790W        W87084  27.083  44.800  12.829
27791W        W87085  37.859  25.150  10.046
27792W        W87086  23.625  39.823  14.493
27793W        W87087  20.746   4.743  10.550
27794W        W87088  42.451   2.801  11.049
27795W        W87089  31.578   2.236   3.382
27796W        W87090   9.662  28.559  10.891
27797W        W87091  23.139  10.809  11.013
27798W        W87092   5.714  25.559   2.703
27799W        W87093  28.126  24.104  12.551
27800W        W87094  30.452  19.643  11.977
27801W        W87095  27.115  12.120   2.296
27802W        W87096  23.114  17.130  14.882
27803W        W87097   1.365  30.059  13.999
27804W        W87098  32.991  30.127   0.785
27805W        W87099   7.287  13.339   4.725
27806W        W87100  23.614  13.815  13.436
27807W        W87101   6.800   6.406  12.908
27808W        W87102  41.398  18.696  11.606
27809W        W87103  24.166  19.706   3.207
27810W        W87104  21.687   3.392  13.443
27811W        W87105  28.087   3.389   3.274
27812W        W87106  31.453  25.974   2.258
27813W        W87107  18.637   8.201   0.944
27814W        W87108  43.445  39.408   4.781
27815W        W87109   6.741  42.342  12.369
27816W        W87110  22.575  23.167   1.875
27817W        W87111  28.963   8.376  13.421
27818W        W87112  18.152  20.579  11.974
27819W        W87113  25.607  38.892   1.806
27820W        W87114  27.593  36.843   3.239
27821W        W87115   3.416   2.367   2.219
27822W        W87116   9.865   5.251  13.983
27823W        W87117  40.894  27.146   0.902
27824W        W87118  44.262  15.743   0.372
27825W        W87119  37.371  20.040  13.918
27826W        W87120  43.814   4.831  10.973
27827W        W87121  16.663  18.236   1.407
27828W        W87122  37.578  33.623   9.650
27829W        W87123   7.902  10.337  12.859
27830W        W87124  28.147  20.266   3.870
27831W        W87125  32.576  38.957   2.389
27832W        W87126  13.344   4.777  13.858
27833W        W87127  14.649  26.542  11.002
27834W        W87128   5.859   3.304   3.755
27835W        W87129  19.594  13.631  12.063
27836W        W87130  14.762  33.393  12.453
27837W        W87131  30.106  11.787  10.906
27838W        W87132   3.281  26.966   3.852
27839W        W87133   8.239  11.688   3.340
27840W        W87134  31.553  22.664   2.808
27841W        W87135  30.517  22.174   1.820
27842W        W87136  10.143  22.027   2.268
27843W        W87137  20.173  21.192  13.001
27844W        W87138  22.647  37.085   3.732
27845W        W87139  16.784   1.952   2.396
27846W        W87140   0.390   2.830   4.179
27847W        W87141  17.758  37.564   4.834
27848W        W87142  19.065  21.144  13.409
27849W        W87143  17.672   4.290   2.683
27850W        W87144   7.794  25.198  14.504
27851W        W87145  39.429  17.236   0.377
27852W        W87146   6.209   4.757   3.304
27853W        W87147   9.221  38.526  13.058
27854W        W87148  39.853  28.456   0.891
27855W        W87149   0.383   8.386  11.855
27856W        W87150  19.750   0.475   2.398
27857W        W87151  34.881  11.838  11.089
27858W        W87152  29.559  43.889   3.258
27859W        W87153  11.206  22.684   3.693
27860W        W87154  43.447   6.710  11.568
27861W        W87155  20.150  41.520   4.783
27862W        W87156  13.671   2.428   2.195
27863W        W87157  43.912  10.197  13.850
27864W        W87158  15.320  11.127  11.569
27865W        W87159  36.987   8.328   3.313
27866W        W87160  43.899  31.942   0.442
27867W        W87161  10.155  39.493   1.300
27868W        W87162  44.864  21.188  12.554
27869W        W87163  22.577   4.298  13.857
27870W        W87164   7.381  29.622   3.368
27871W        W87165  38.031  44.897  11.904
27872W        W87166  26.589  32.941   3.656
27873W        W87167  24.974  40.398   2.279
27874W        W87168  19.145   8.841  11.464
27875W        W87169  38.986  23.172   2.828
27876W        W87170  14.618  24.990   1.891
27877W        W87171  35.595   0.968   1.814
27878W        W87172  18.259  11.207  14.489
27879W        W87173   9.241  12.788  14.006
27880W        W87174  42.378  43.278   4.835
27881W        W87175  20.044   9.862   0.751
27882W        W87176  41.384  11.865   0.728
27883W        W87177  23.692   6.246  13.493
27884W        W87178  32.016  44.756   4.192
27885W        W87179   9.862  34.422   1.278
27886W        W87180  21.674  44.269  11.580
27887W        W87181  11.713  40.804  12.974
27888W        W87182   0.365  33.122  10.997
27889W        W87183  40.452  32.922   0.785
27890W        W87184   9.842  27.942   4.346
27891W        W87185   6.414  21.672  14.475
27892W        W87186   4.718   5.222  11.983
27893W        W87187  35.454  37.890  11.510
27894W        W87188  43.925  36.010   0.262
27895W        W87189   0.810  27.472   3.357
27896W        W87190  41.497  27.518  10.474
27897W        W87191  16.200  36.556  14.947
27898W        W87192  19.274  20.033  11.992
27899W        W87193  38.485  32.064  14.276
27900W        W87194  44.430   2.756  13.907
27901W        W87195   1.335  41.519   4.189
27902W        W87196   0.941  16.315   3.796
27903W        W87197  39.026  26.035   4.695
27904W        W87198  10.241  21.105  11.872
27905W        W87199  34.901  11.628   4.638
27906W        W87200  12.763  39.345  11.875
27907W        W87201   2.920  44.843   4.170
27908W        W87202   8.768   2.837  11.420
27909W        W87203   7.717  16.304  13.533
27910W        W87204  35.979  34.396  12.527
27911W        W87205   8.342  21.749  12.574
27912W        W87206  24.135  15.321   2.403
27913W        W87207  11.180   9.290   4.733
27914W        W87208  40.818   1.944  12.341
27915W        W87209  40.026  29.592   4.797
27916W        W87210  22.703  14.275   5.250
27917W        W87211   9.717  36.883   0.823
27918W        W87212   5.208  36.042   4.628
27919W        W87213  21.022  28.937  11.390
27920W        W87214  36.060  36.068  13.937
27921W        W87215   4.767  10.636  10.931
27922W        W87216  33.412  22.669  14.881
27923W        W87217  23.605  24.011  13.030
27924W        W87218  26.496  18.062   1.261
27925W        W87219  21.618  40.905  10.994
27926W        W87220   6.840  10.180  11.954
27927W        W87221   2.730   7.258  12.897
27928W        W87222  33.968   3.889  12.497
27929W        W87223  10.857  33.431   0.863
27930W        W87224  25.177  37.962   0.434
27931W        W87225  16.811  34.066   0.394
27932W        W87226  17.219   9.708  14.776
27933W        W87227   2.299  38.938   2.319
27934W        W87228  18.589  44.006   0.886
27935W        W87229   8.777  19.139   0.312
27936W        W87230  44.758   9.359   1.310
27937W        W87231  22.656  34.051  14.473
27938W        W87232  37.072   2.303  14.972
27939W        W87233  22.703  14.172  14.940
27940W        W87234  35.428  37.019  13.378
27941W        W87235   8.662  31.537  12.083
27942W        W87236   9.692  32.544   3.651
27943W        W87237   1.343  41.346  10.478
27944W        W87238  33.580  28.478   3.379
27945W        W87239   3.434  12.313   1.920
27946W        W87240  39.365  27.138   2.792
27947W        W87241  11.368  27.521   3.842
27948W        W87242   3.217   0.915   0.843
27949W        W87243   8.232  20.059   9.665
27950W        W87244  10.691  35.520   1.914
27951W        W87245  42.428  34.468  11.877
27952W        W87246  32.954  33.608  14.361
27953W        W87247   1.402  39.345  11.016
27954W        W87248  33.401  37.934   1.868
27955W        W87249   1.309  21.747   4.149
27956W        W87250   6.268  40.952  11.861
27957W        W87251  13.183  24.614   3.758
27958W        W87252   5.266  14.730  12.892
27959W        W87253  30.114  17.579  11.478
27960W        W87254  42.455  42.897  12.427
27961W        W87255  31.039   7.676  10.566
27962W        W87256   0.312  39.050  10.092
27963W        W87257   2.912  18.770  12.364
27964W        W87258   6.219   5.259   3.639
27965W        W87259  16.746  41.852   4.712
27966W        W87260   3.713   0.869   0.892
27967W        W87261  39.421  10.316   3.814
27968W        W87262   0.981  43.952  13.853
27969W        W87263  28.142   1.857  14.929
27970W        W87264  23.654   7.769   1.404
27971W        W87265  32.905  22.644   4.297
27972W        W87266   1.827  15.259  13.943
27973W        W87267   5.370  14.192  14.482
27974W        W87268  27.070  38.008  14.759
27975W        W87269  11.658  19.263  12.387
27976W        W87270   8.357  16.317  12.464
27977W        W87271  20.710  43.792   4.723
27978W        W87272  23.607   2.793   4.301
27979W        W87273  37.453  32.982  14.822
27980W        W87274   5.906   7.272  13.923
27981W        W87275   8.860   7.745   5.279
27982W        W87276  17.778   6.327  12.006
27983W        W87277  28.120  12.314   2.751
27984W        W87278  21.674  42.861   4.338
27985W        W87279  35.474  18.297   3.178
27986W        W87280  25.601  21.582   0.405
27987W        W87281  39.347  23.193   1.764
27988W        W87282  44.962  41.024  13.841
27989W        W87283   5.930  11.708   3.689
27990W        W87284  15.258  32.074  14.338
27991W        W87285   8.721  24.159  14.761
27992W        W87286   4.912  21.665   5.250
27993W        W87287  22.233  37.347  10.563
27994W        W87288  19.759   2.757   1.716
27995W        W87289  34.413  12.293   3.784
27996W        W87290   4.927  42.412  10.894
27997W        W87291  41.851   8.854   0.378
27998W        W87292  30.436   1.867  12.895
27999W        W87293  36.044  12.204  11.989
28000W        W87294  43.414   1.870  13.377
28001W        W87295  24.979  26.582  10.984
28002W        W87296  30.584  24.979  12.496
28003W        W87297  27.679  35.964  11.870
28004W        W87298  35.025  37.555   1.388
28005W        W87299  32.890  13.621   3.229
28006W        W87300   7.755  25.670   3.280
28007W        W87301  22.097  38.360   1.424
28008W        W87302  43.426   3.424   2.405
28009W        W87303  27.979  14.224  12.953
28010W        W87304  41.492  14.676   4.724
28011W        W87305  18.212  38.029   3.358
28012W        W87306  19.115   5.400   4.637
28013W        W87307  24.495  11.131  14.431
28014W        W87308  32.894  34.486  14.969
28015W        W87309  27.533  14.806  12.491
28016W        W87310  40.436  11.630   0.855
28017W        W87311  43.352  41.437   1.792
28018W        W87312  30.519  40.375  12.534
28019W        W87313  11.351  15.691   1.741
28020W        W87314   0.453  23.580   0.876
28021W        W87315  11.776  40.543  12.839
28022W        W87316  17.599  32.890   3.243
28023W        W87317  16.745  36.028   3.765
28024W        W87318  16.181  25.497   2.849
28025W        W87319  30.651  22.018  14.392
28026W        W87320   7.880  31.498   0.838
28027W        W87321  34.073  18.782  14.402
28028W        W87322  27.596  24.630   0.431
28029W        W87323  44.324  41.494   3.286
28030W        W87324  22.208  43.843   1.355
28031W        W87325  20.746  20.577  11.517
28032W        W87326  18.561  22.138   0.409
28033W        W87327  37.070  42.451   4.120
28034W        W87328  21.744   7.768   4.620
28035W        W87329  35.521   5.205   2.360
28036W        W87330  13.835   9.773   1.802
28037W        W87331  11.740  34.534  12.957
28038W        W87332  38.895  22.191   3.257
28039W        W87333  41.428  39.510  13.835
28040W        W87334  26.143  14.323  12.886
28041W        W87335  24.558  26.080   0.962
28042W        W87336  10.758  19.173  13.910
28043W        W87337   8.160  15.110   0.941
28044W        W87338  18.679  14.630  12.469
28045W        W87339  33.589  36.550  13.442
28046W        W87340  21.038  44.352   2.317
28047W        W87341  42.903  42.324  12.489
28048W        W87342  31.422  11.359  14.918
28049W        W87343  12.185  37.023   0.432
28050W        W87344   8.298  11.330  11.032
28051W        W87345  39.501  41.365  13.422
28052W        W87346  40.950   0.826   9.657
28053W        W87347  18.545  37.885  13.987
28054W        W87348  20.217  21.195   0.301
28055W        W87349  15.229  28.095   4.750
28056W        W87350  29.089  27.630   0.939
28057W        W87351  38.544   4.764   3.751
28058W        W87352   8.201  32.536   2.383
28059W        W87353  30.440  44.402  11.534
28060W        W87354  10.237  44.802   0.376
28061W        W87355  24.053   9.653   1.777
28062W        W87356  10.665  15.087   4.832
28063W        W87357   4.745  37.966   3.771
28064W        W87358  30.105  30.594  14.789
28065W        W87359   7.895  33.035   0.349
28066W        W87360   7.178  30.015   4.278
28067W        W87361  26.474  38.567   2.703
28068W        W87362  24.578  30.117  11.963
28069W        W87363   6.252  37.946  10.504
28070W        W87364   7.701   5.427   1.389
28071W        W87365  42.928  28.986   0.432
28072W        W87366   1.277  37.985  14.973
28073W        W87367  17.692  27.641   2.859
28074W        W87368  27.490  19.677   4.269
28075W        W87369  13.819  27.008  12.831
28076W        W87370  18.752  23.182  12.553
28077W        W87371   4.294  15.731  14.478
28078W        W87372  36.524  41.506   0.727
28079W        W87373  35.922   5.379  10.902
28080W        W87374   2.724  24.623  11.107
28081W        W87375  22.049  44.007   1.795
28082W        W87376  22.639   5.873  13.420
28083W        W87377  27.055  40.889  10.956
28084W        W87378  34.462   3.829  10.488
28085W        W87379  19.573  33.107  14.013
28086W        W87380   8.363   4.724  13.355
28087W        W87381   6.889   0.975  13.324
28088W        W87382   1.887   1.363  12.975
28089W        W87383  16.081   9.868  11.900
28090W        W87384  44.371  36.888  11.005
28091W        W87385  11.364  33.881  13.503
28092W        W87386  39.498   3.380   3.800
28093W        W87387   5.436  21.097  13.911
28094W        W87388  27.102  15.752  12.504
28095W        W87389  35.430  41.830  11.932
28096W        W87390  28.938  38.849   2.666
28097W        W87391  40.990   6.880  14.021
28098W        W87392  19.168  41.906  10.445
28099W        W87393  43.480   3.923   3.641
28100W        W87394  37.876  43.985  12.942
28101W        W87395   6.899   6.379  11.498
28102W        W87396   3.265   0.360  13.818
28103W        W87397  29.008   2.464   0.729
28104W        W87398  43.864  27.056  13.468
28105W        W87399  18.274  15.803  12.917
28106W        W87400   1.829   6.848  10.585
28107W        W87401   6.224  37.850  13.336
28108W        W87402   4.740  25.483   3.332
28109W        W87403  26.657  40.925  14.513
28110W        W87404   0.931  18.615   2.234
28111W        W87405   2.828  33.534   3.367
28112W        W87406  18.097  39.343   4.318
28113W        W87407  12.322  17.302   1.701
28114W        W87408   1.805  25.036   2.900
28115W        W87409  36.997   0.427   2.769
28116W        W87410  11.853  29.660   3.249
28117W        W87411  42.462  25.642   4.707
28118W        W87412  37.545   1.817  12.560
28119W        W87413  18.267   5.767  10.503
28120W        W87414  35.469   5.907   1.215
28121W        W87415  21.544  37.962  13.994
28122W        W87416   6.268   3.360   2.284
28123W        W87417  14.277  11.368   4.835
28124W        W87418  44.284   6.218  10.446
28125W        W87419   2.350   1.870   2.676
28126W        W87420  35.362  27.544  13.473
28127W        W87421  43.472  16.199  11.513
28128W        W87422  43.343  24.569   0.349
28129W        W87423  10.672   8.305   2.293
28130W        W87424  31.086  42.471  10.534
28131W        W87425  40.832   5.210  14.809
28132W        W87426  33.388  19.767   3.860
28133W        W87427   8.701  33.897   0.355
28134W        W87428  25.502  38.468   5.264
28135W        W87429   9.864  10.724  12.833
28136W        W87430  34.517  26.668   2.213
28137W        W87431  32.981  16.615   3.755
28138W        W87432  39.469  42.000  11.390
28139W        W87433   8.343  32.944   1.732
28140W        W87434   2.732   3.436   3.856
28141W        W87435  41.341  13.706   4.684
28142W        W87436   7.856  20.545   0.450
28143W        W87437  40.038  20.769   0.741
28144W        W87438   8.732  28.940  11.004
28145W        W87439   6.709  32.081   1.775
28146W        W87440  17.765   5.377   0.367
28147W        W87441  21.067   7.183   0.248
28148W        W87442  31.014  14.834  11.461
28149W        W87443  19.278  40.037  13.468
28150W        W87444   6.820  29.958   2.285
28151W        W87445   7.862  27.664  11.965
28152W        W87446  40.343  14.153   1.750
28153W        W87447   6.189  31.459  12.484
28154W        W87448  25.523  16.118   0.837
28155W        W87449  15.115  15.726   1.736
28156W        W87450  36.477  21.624  10.919
28157W        W87451   0.742   2.347   3.210
28158W        W87452  15.777   7.366  11.042
28159W        W87453  42.983   6.877   0.401
28160W        W87454  25.601  25.997  13.464
28161W        W87455   9.747   4.267  13.442
28162W        W87456  37.569  19.144   1.720
28163W        W87457  31.636   5.717   2.333
28164W        W87458   5.271  28.186  13.894
28165W        W87459  28.677  32.434   1.330
28166W        W87460   8.366  26.120   2.825
28167W        W87461  29.026  32.120   3.279
28168W        W87462   6.395  36.431  13.908
28169W        W87463  18.569  30.011   0.920
28170W        W87464  24.560  34.438   4.603
28171W        W87465  14.240  37.950  13.878
28172W        W87466  41.969  23.050   1.257
28173W        W87467   7.385  24.026   4.343
28174W        W87468   0.258  35.603   0.759
28175W        W87469  10.171  14.336   4.347
28176W        W87470   0.950  35.938   0.900
28177W        W87471  34.445  43.010  11.989
28178W        W87472  23.555   9.389  13.532
28179W        W87473  29.598  21.565   1.214
28180W        W87474  41.504  31.404  11.109
28181W        W87475  16.768  15.163  14.488
28182W        W87476  23.647  40.936  10.922
28183W        W87477   9.713  19.133   3.242
28184W        W87478  19.225  40.046   4.219
28185W        W87479  38.856  35.466   2.334
28186W        W87480  25.060  33.916  11.476
28187W        W87481  23.494  22.160   0.736
28188W        W87482  17.082  17.691  12.070
28189W        W87483   0.823   8.762   5.277
28190W        W87484  20.630  24.012   3.263
28191W        W87485  18.112  25.662   0.335
28192W        W87486  26.956   5.709   4.733
28193W        W87487  32.414  41.416   4.661
28194W        W87488  20.601  15.256  11.591
28195W        W87489  36.081  42.423   0.775
28196W        W87490  31.078  41.300  12.420
28197W        W87491  44.328  36.876  10.095
28198W        W87492  27.483  13.730  14.447
28199W        W87493  27.569  44.006  11.574
28200W        W87494   8.759  12.796   1.242
28201W        W87495  14.145  14.800   1.406
28202W        W87496  16.316  43.902   3.695
28203W        W87497  42.985  33.524  11.866
28204W        W87498  22.219  17.249  11.987
28205W        W87499  13.720  33.549  10.908
28206W        W87500  27.589   9.388   1.782
28207W        W87501  13.111  17.084   3.229
28208W        W87502  41.799  43.802  13.808
28209W        W87503   3.350  15.273   0.468
28210W        W87504  22.226  25.075   3.321
28211W        W87505  40.491   6.342  10.433
28212W        W87506  21.249  35.966  10.598
28213W        W87507  19.599  32.973   2.270
28214W        W87508   8.818   1.748   1.217
28215W        W87509  31.032  20.579  12.350
28216W        W87510   6.781  17.154  14.877
28217W        W87511   9.155  11.152  12.934
28218W        W87512   3.332  38.531  10.409
28219W        W87513   5.210   7.324   1.449
28220W        W87514  28.135  36.097  13.494
28221W        W87515  13.753  16.675   2.355
28222W        W87516  42.878  31.952  10.629
28223W        W87517   8.753   6.735  11.032
28224W        W87518   8.823   6.378  11.907
28225W        W87519  33.494  11.779  10.642
28226W        W87520  39.906  33.124   1.337
28227W        W87521  38.457  20.673   0.741
28228W        W87522  44.945  18.199   2.768
28229W        W87523  10.233  35.387   1.806
28230W        W87524  37.351  37.361  11.945
28231W        W87525  43.977  16.653   0.951
28232W        W87526   9.267  43.438  14.337
28233W        W87527  31.944  26.120  11.426
28234W        W87528   8.732  34.420  11.406
28235W        W87529  44.451  38.398   0.330
28236W        W87530  30.649  20.182   4.766
28237W        W87531  16.126  19.166   0.848
28238W        W87532  11.156  32.094  14.866
28239W        W87533   3.368  26.658  14.323
28240W        W87534  21.115  26.640   2.799
28241W        W87535   1.272  24.048  11.554
28242W        W87536  17.202   9.375  13.890
28243W        W87537  19.144  40.448   3.667
28244W        W87538  14.241  43.385   2.751
28245W        W87539   7.175   3.400   9.514
28246W        W87540  14.692  10.721  13.322
28247W        W87541  39.841  28.018   0.439
28248W        W87542  42.847   4.348  11.428
28249W        W87543  29.666  19.225  10.624
28250W        W87544  34.374  42.487   3.704
28251W        W87545  42.934  37.382  11.540
28252W        W87546  42.512  24.110  11.444
28253W        W87547  31.054   5.830  13.955
28254W        W87548  42.013  39.500  10.509
28255W        W87549  35.463  25.515   1.717
28256W        W87550  23.148  34.883   0.759
28257W        W87551  29.966   9.659  11.471
28258W        W87552   8.219  25.038  14.472
28259W        W87553  44.406  14.257  11.040
28260W        W87554  30.430  30.161  10.629
28261W        W87555  27.561  38.973   0.481
28262W        W87556  20.228  23.082  12.916
28263W        W87557  20.190  12.673   4.172
28264W        W87558  32.604  27.573   0.360
28265W        W87559  23.690  41.852   2.337
28266W        W87560  35.875   9.174   2.308
28267W        W87561   6.241  26.639  11.971
28268W        W87562  41.797  24.136  10.977
28269W        W87563  37.566  26.553   3.838
28270W        W87564  22.167  11.830   2.183
28271W        W87565  11.860  27.518  14.012
28272W        W87566  28.985  10.809   4.308
28273W        W87567  28.962   9.819   1.698
28274W        W87568   4.894  22.227   3.182
28275W        W87569  20.143   2.809   0.820
28276W        W87570  37.464  41.832  14.275
28277W        W87571  20.203  15.321  14.001
28278W        W87572   4.275   4.215  14.359
28279W        W87573  22.202  22.577  14.438
28280W        W87574  14.216  12.767  11.557
28281W        W87575  43.020  43.764  14.998
28282W        W87576  16.594   0.403   3.236
28283W        W87577  30.026  43.410  11.470
28284W        W87578   5.234  29.442  10.638
28285W        W87579  15.325  34.919   4.313
28286W        W87580  39.478   3.355   2.874
28287W        W87581  27.178  36.934  14.935
28288W        W87582  35.006  36.858  10.473
28289W        W87583  18.268   4.932  10.409
28290W        W87584  33.509  12.837   0.395
28291W        W87585  41.296  34.567  12.914
28292W        W87586  29.629  39.814  13.474
28293W        W87587  28.667  35.088   2.194
28294W        W87588  24.495  41.352   3.197
28295W        W87589   6.374  37.479   2.891
28296W        W87590  41.299  41.446   2.862
28297W        W87591  42.854  24.680   4.637
28298W        W87592  39.560  26.072   3.214
28299W        W87593  29.468  40.471   4.829
28300W        W87594  34.910   3.282   2.321
28301W        W87595   5.427   6.388   0.354
28302W        W87596  25.601  13.189   1.728
28303W        W87597  43.377  44.873  10.549
28304W        W87598  42.442  27.976   3.855
28305W        W87599  12.724  40.458   2.732
28306W        W87600  15.222   5.865  13.975
28307W        W87601  41.946  34.026   0.934
28308W        W87602  10.868   5.282  14.865
28309W        W87603  38.407  13.337   2.336
28310W        W87604  29.035   1.866  12.347
28311W        W87605  43.396  23.720  14.494
28312W        W87606  26.592  18.753  12.918
28313W        W87607  17.244  26.153   1.242
28314W        W87608  22.725  18.094   2.694
28315W        W87609  22.210  23.200  11.875
28316W        W87610   1.454  15.695  10.423
28317W        W87611  17.183   3.259  12.513
28318W        W87612   8.705  21.049  14.437
28319W        W87613  19.214  10.142  12.833
28320W        W87614  28.009  25.669   0.916
28321W        W87615  32.932  29.557   1.265
28322W        W87616  39.326  12.163  12.863
28323W        W87617   7.182  21.115  11.558
28324W        W87618  13.819  28.525  13.322
28325W        W87619  26.610   3.874   0.349
28326W        W87620  26.498  28.620  11.989
28327W        W87621  36.351  16.637   3.171
28328W        W87622  42.480   5.905   4.815
28329W        W87623   6.688  24.036   3.798
28330W        W87624  24.583  32.064   0.455
28331W        W87625   4.884   0.456   0.447
28332W        W87626  39.407  26.155   0.760
28333W        W87627  37.347  35.103  12.529
28334W        W87628  39.558  21.660   3.861
28335W        W87629  13.312   6.369   3.171
28336W        W87630   8.714  25.550  13.895
28337W        W87631   7.702  30.543  14.411
28338W        W87632  31.474  41.842   5.694
28339W        W87633  31.569  42.376   1.255
28340W        W87634  18.277  30.510  14.308
28341W        W87635  43.006  11.262  14.457
28342W        W87636   4.827  28.931   1.279
28343W        W87637   0.395  26.551   0.402
28344W        W87638  38.926  16.080   1.844
28345W        W87639  28.486  24.149   4.662
28346W        W87640  15.096   7.747  14.935
28347W        W87641  30.521   0.357  11.502
28348W        W87642   9.800  41.028   2.380
28349W        W87643  26.612  43.398  12.504
28350W        W87644  41.953  10.647   2.394
28351W        W87645  14.738  36.007  10.144
28352W        W87646  14.617  14.728  13.467
28353W        W87647  18.754  39.890  10.953
28354W        W87648  37.477   3.233   1.915
28355W        W87649  12.746  38.517  13.011
28356W        W87650  16.254  28.557  13.046
28357W        W87651  34.066  14.721  12.386
28358W        W87652  32.550  32.042   3.273
28359W        W87653  43.508  25.496  11.537
28360W        W87654  40.997   8.309   2.418
28361W        W87655  12.298  38.963  13.800
28362W        W87656  14.105  23.666  13.467
28363W        W87657   4.284  41.867   4.121
28364W        W87658   2.895  29.145   0.801
28365W        W87659   4.439  30.502   1.222
28366W        W87660  41.834  26.531  14.785
28367W        W87661   5.234  25.972  13.985
28368W        W87662  23.176   7.685   9.448
28369W        W87663  11.775  12.243  14.971
28370W        W87664   1.823  11.362   2.230
28371W        W87665  13.294  15.774   0.732
28372W        W87666  17.129  17.701   4.323
28373W        W87667  43.882  24.211   3.714
28374W        W87668  10.873  42.794  13.058
28375W        W87669  17.255  42.373  14.824
28376W        W87670  19.209   0.749   3.198
28377W        W87671  10.784  41.989  11.415
28378W        W87672  31.420  40.338  10.505
28379W        W87673  37.452  35.901   0.776
28380W        W87674  43.021  13.835   0.737
28381W        W87675  23.130   5.796   1.871
28382W        W87676   0.767  18.700  12.508
28383W        W87677   6.209  15.229   2.403
28384W        W87678   7.723  22.075  14.814
28385W        W87679  30.018  15.313  14.486
28386W        W87680   1.317  38.842  13.818
28387W        W87681  16.196  16.598   4.707
28388W        W87682  25.052   4.770   2.893
28389W        W87683  29.442  15.207  12.360
28390W        W87684  32.439   4.910   4.655
28391W        W87685  10.262   0.870  14.467
28392W        W87686  27.480  28.498  10.434
28393W        W87687  13.258  26.104   2.382
28394W        W87688  23.503  41.884  12.493
28395W        W87689  41.811   8.366  13.906
28396W        W87690  20.099  41.014   3.746
28397W        W87691   9.818  14.762   3.269
28398W        W87692  14.203  41.936   0.308
28399W        W87693  17.654   7.820   2.708
28400W        W87694  17.152   5.924  12.068
28401W        W87695  43.979   9.851  13.462
28402W        W87696  10.324  16.710  13.901
28403W        W87697   3.796  41.414  13.000
28404W        W87698   7.251  44.844  11.500
28405W        W87699   5.747  34.930  10.642
28406W        W87700   7.779  36.847  12.939
28407W        W87701   2.304   1.386   0.886
28408W        W87702  26.609   0.771   5.317
28409W        W87703  36.025  40.955   3.761
28410W        W87704  22.141   3.899  12.399
28411W        W87705  21.142  18.599  12.444
28412W        W87706   0.903  21.090   0.823
28413W        W87707  12.656   8.726  13.843
28414W        W87708  13.160  42.006  12.910
28415W        W87709  32.393  22.180   2.284
28416W        W87710  36.382   0.798  13.831
28417W        W87711  25.048  21.688   1.888
28418W        W87712  11.709  39.536   4.230
28419W        W87713  16.705  23.219   4.626
28420W        W87714  29.049  15.614   2.885
28421W        W87715  23.543  40.043   4.678
28422W        W87716   8.173  27.057   1.317
28423W        W87717  43.931  14.788   0.323
28424W        W87718   4.711  29.660  13.918
28425W        W87719  31.993  38.061  13.061
28426W        W87720  10.763  11.158   1.853
28427W        W87721  18.785  44.315  11.897
28428W        W87722  19.272  21.234   3.639
28429W        W87723  28.154  17.650  14.778
28430W        W87724  13.155  43.930   3.314
28431W        W87725  41.880  43.456  14.948
28432W        W87726  21.705  10.329  11.410
28433W        W87727   9.324   7.386  13.840
28434W        W87728  33.980  33.040   2.180
28435W        W87729  32.613  36.436  12.962
28436W        W87730   6.833  11.828  11.528
28437W        W87731  10.219  31.632  13.327
28438W        W87732  26.556  25.117   3.805
28439W        W87733  24.666  37.354   1.287
28440W        W87734  32.600   4.732   3.211
28441W        W87735   1.362  38.475  13.367
28442W        W87736  42.420   7.417  14.285
28443W        W87737  23.049  11.369   3.374
28444W        W87738  38.326   2.244   3.804
28445W        W87739  15.149   3.793   4.697
28446W        W87740  21.677   3.727  13.460
28447W        W87741   7.775   9.832   1.276
28448W        W87742  42.364  14.104  12.022
28449W        W87743  18.227  41.531  13.869
28450W        W87744  25.043  27.148   0.425
28451W        W87745   3.951  10.678  14.431
28452W        W87746  37.033   3.773  12.434
28453W        W87747  25.657  39.932  11.478
28454W        W87748  28.097  18.749  12.967
28455W        W87749  23.623  44.279   4.319
28456W        W87750  30.625   2.947   3.379
28457W        W87751  26.114  30.943  12.073
28458W        W87752   0.264   0.801  14.411
28459W        W87753   9.667  10.178  12.890
28460W        W87754  24.480  26.079  10.490
28461W        W87755   8.822  11.160   1.404
28462W        W87756  13.325  27.019  12.873
28463W        W87757  11.320   8.768  14.982
28464W        W87758  19.264  17.754  11.112
28465W        W87759  21.068  17.715  10.432
28466W        W87760  10.835  15.713  14.352
28467W        W87761  27.513  16.242  13.951
28468W        W87762  33.383  40.397   4.630
28469W        W87763  10.163  12.853  11.433
28470W        W87764  43.944  31.583  14.993
28471W        W87765  29.511  41.342   3.379
28472W        W87766  26.647  23.221  14.999
28473W        W87767  19.579  40.451   3.263
28474W        W87768  34.424  18.689   4.342
28475W        W87769  30.473  33.064  11.432
28476W        W87770  44.007  17.718   4.132
28477W        W87771  13.226  34.028  14.813
28478W        W87772  29.580  30.597  14.815
28479W        W87773   1.475  40.530   3.765
28480W        W87774  29.950  22.683  10.612
28481W        W87775  40.028  36.477  14.929
28482W        W87776  20.590  19.654   3.769
28483W        W87777  24.099  22.563  11.878
28484W        W87778   9.267  41.945   4.199
28485W        W87779   1.905   9.249  14.356
28486W        W87780   8.326  20.233   0.259
28487W        W87781  14.662   0.424  10.912
28488W        W87782  18.122  32.425   4.732
28489W        W87783   8.723  19.746   0.760
28490W        W87784  32.035  27.054   4.284
28491W        W87785  21.079  28.664  10.612
28492W        W87786  21.229  31.053   0.355
28493W        W87787  42.887  40.520   4.246
28494W        W87788   1.840   2.360   4.710
28495W        W87789   1.861  20.120   0.263
28496W        W87790  41.834  38.850   3.796
28497W        W87791  11.297  42.324  13.942
28498W        W87792  16.627   7.347  12.878
28499W        W87793  35.024  18.549   2.333
28500W        W87794   0.824  29.134  12.043
28501W        W87795  14.760  35.550   3.373
28502W        W87796  39.454  25.198  13.963
28503W        W87797  35.049   5.362  14.336
28504W        W87798  30.435  39.337  12.395
28505W        W87799  41.917  21.167  13.438
28506W        W87800  16.698  15.083   1.413
28507W        W87801  26.575  32.958   4.241
28508W        W87802   5.914  41.869   1.841
28509W        W87803  29.486  43.815   2.416
28510W        W87804  34.378  19.606   3.725
28511W        W87805  34.604  29.987  11.064
28512W        W87806  24.052  11.647  11.103
28513W        W87807  34.903   1.856   1.753
28514W        W87808  10.247  14.115  10.946
28515W        W87809   9.855   5.357  10.641
28516W        W87810  16.662   2.889  10.920
28517W        W87811  38.003   1.252  11.942
28518W        W87812  27.586  23.138  13.859
28519W        W87813  26.998  41.338  12.563
28520W        W87814  26.977  20.705  14.780
28521W        W87815   9.696  36.485   2.767
28522W        W87816  14.314  17.086   4.230
28523W        W87817   2.403  29.986  14.961
28524W        W87818  25.638  26.139  14.415
28525W        W87819  33.491  17.698   3.157
28526W        W87820  25.089  17.216  14.514
28527W        W87821  25.003  21.652  11.986
28528W        W87822  31.025   6.729  10.576
28529W        W87823  24.619  34.582  12.982
28530W        W87824  25.037  13.766   3.235
28531W        W87825  40.334  23.116   3.324
28532W        W87826  41.853  13.827  12.454
28533W        W87827  35.994   8.664  13.056
28534W        W87828  44.468  29.158   3.346
28535W        W87829  42.476  32.106   0.854
28536W        W87830  12.793  19.245  11.867
28537W        W87831  31.561   4.362   3.261
28538W        W87832  37.407  20.608  14.813
28539W        W87833   5.289  40.028   2.838
28540W        W87834  30.124  42.847   3.673
28541W        W87835   6.803  34.453  10.907
28542W        W87836   7.761  13.741   3.635
28543W        W87837  28.936  37.862   0.450
28544W        W87838   5.873   0.804  14.825
28545W        W87839  27.507   4.374  14.928
28546W        W87840  36.853   3.765   1.837
28547W        W87841  24.056  16.281   2.758
28548W        W87842  16.146  25.049   4.648
28549W        W87843  23.166  27.487  12.481
28550W        W87844   0.424  38.431  10.608
28551W        W87845  32.028  27.489  14.813
28552W        W87846  26.169  24.140   2.194
28553W        W87847  14.750  32.043   3.342
28554W        W87848   8.371   6.884  12.368
28555W        W87849  41.842  27.088  10.559
28556W        W87850   1.293  32.559  12.347
28557W        W87851  27.085   6.423   4.675
28558W        W87852   6.702  15.118   3.270
28559W        W87853   8.674  43.322   0.456
28560W        W87854  30.990   9.810  14.444
28561W        W87855  15.225   3.722  13.051
28562W        W87856  40.004   2.899  14.992
28563W        W87857  15.720  25.689   0.952
28564W        W87858  31.463  28.592  11.396
28565W        W87859  37.011  26.004  12.936
28566W        W87860  39.542   2.238  11.988
28567W        W87861  20.705  24.204   4.270
28568W        W87862   4.821  35.862  10.112
28569W        W87863  21.588  16.587  11.555
28570W        W87864  41.995  33.600  12.442
28571W        W87865   5.813  20.677   1.407
28572W        W87866  34.400  36.526  10.056
28573W        W87867  31.499   8.257   1.408
28574W        W87868  32.450  32.520   2.856
28575W        W87869  40.022   3.250   1.291
28576W        W87870  34.593  17.649  12.922
28577W        W87871  29.921   8.776  10.445
28578W        W87872  11.842  39.848   0.870
28579W        W87873  39.993  31.898   1.919
28580W        W87874  37.904  37.980  14.952
28581W        W87875  35.037   7.224   1.401
28582W        W87876   6.715  13.748  13.946
28583W        W87877   7.823  26.010  12.994
28584W        W87878  28.484  35.057  13.820
28585W        W87879  30.990  12.120   3.350
28586W        W87880  26.697   5.363  11.127
28587W        W87881  22.216  19.715   3.795
28588W        W87882  24.640  16.104   0.265
28589W        W87883   1.378  12.712  14.332
28590W        W87884  29.946  25.568   2.386
28591W        W87885  43.415  35.925  12.985
28592W        W87886  25.572  14.251  10.602
28593W        W87887   2.252  27.017   4.268
28594W        W87888  20.574  28.570   2.796
28595W        W87889  25.079  13.694  13.542
28596W        W87890  13.225  32.550  14.969
28597W        W87891   7.226  41.340  14.347
28598W        W87892   1.740  32.510  12.939
28599W        W87893  34.014  14.828   2.220
28600W        W87894  31.468  17.307   4.231
28601W        W87895  16.153   0.968   4.176
28602W        W87896  18.786  28.050   4.754
28603W        W87897  33.948  37.078  14.797
28604W        W87898   6.315   3.899  13.049
28605W        W87899  13.728  11.659   3.783
28606W        W87900  19.760   8.778   2.872
28607W        W87901  32.115  32.575  11.532
28608W        W87902   0.953  33.948   1.387
28609W        W87903  19.183  15.211   2.319
28610W        W87904   6.186   9.817  13.455
28611W        W87905  38.964  41.980  14.412
28612W        W87906  16.297  23.658   4.781
28613W        W87907  11.853  10.788   2.870
28614W        W87908  10.650  40.009   2.752
28615W        W87909  35.369  13.712   4.721
28616W        W87910  28.516  30.009   2.232
28617W        W87911  35.080   9.341   1.884
28618W        W87912   9.855  40.509  12.845
28619W        W87913   0.744   2.404   9.965
28620W        W87914  29.505  34.978  13.495
28621W        W87915  24.519  25.696   3.721
28622W        W87916  26.599   2.827   1.388
28623W        W87917  39.833  25.187   2.824
28624W        W87918  24.108   3.798   2.332
28625W        W87919   8.233   9.682  10.960
28626W        W87920  44.367  43.437   2.371
28627W        W87921  19.662  30.972  13.823
28628W        W87922  14.808  23.708  13.420
28629W        W87923  12.719  13.827  13.855
28630W        W87924  29.519  37.007  11.001
28631W        W87925  39.812  14.812  12.978
28632W        W87926  18.783  35.472  11.595
28633W        W87927   4.796  18.294   4.792
28634W        W87928   7.253  42.335   2.302
28635W        W87929  41.343   6.883   4.678
28636W        W87930   7.224  30.982   3.670
28637W        W87931  27.588  37.544  13.449
28638W        W87932   5.906  44.500  14.416
28639W        W87933  28.488  41.507   0.879
28640W        W87934  38.524  39.958  14.862
28641W        W87935  41.971  30.978  10.560
28642W        W87936  28.540  26.205   2.413
28643W        W87937  40.377  34.090  10.969
28644W        W87938  16.259  43.303  11.903
28645W        W87939  14.257  34.048  12.911
28646W        W87940   4.387  29.136  12.827
28647W        W87941  38.456  32.077   4.686
28648W        W87942  43.880  21.229   0.767
28649W        W87943  42.871   3.912  14.019
28650W        W87944  35.909  29.500  13.842
28651W        W87945  16.766  10.212  12.475
28652W        W87946  11.188  26.204   0.478
28653W        W87947  24.990  31.980  10.906
28654W        W87948  43.305  37.052   2.212
28655W        W87949   6.910  25.603   2.823
28656W        W87950  32.514  23.524   0.349
28657W        W87951  29.065  44.453   2.311
28658W        W87952   9.733  10.284   3.161
28659W        W87953  27.129   3.297   3.281
28660W        W87954  25.644   8.712   2.902
28661W        W87955   8.750   9.178  11.000
28662W        W87956  12.181   2.444   1.875
28663W        W87957  41.020  17.236  13.950
28664W        W87958   2.738  34.105  13.008
28665W        W87959  16.644   8.829  13.877
28666W        W87960  42.921  15.311   0.965
28667W        W87961  20.265  42.336   1.786
28668W        W87962  11.282  38.508   1.211
28669W        W87963  27.627  14.683   0.295
28670W        W87964  33.519   4.704  13.433
28671W        W87965  43.483  44.432  14.489
28672W        W87966  15.701   6.903  12.084
28673W        W87967  19.556  26.027  10.414
28674W        W87968  40.882  42.377   2.743
28675W        W87969  11.127  10.351   0.278
28676W        W87970  40.306  30.970  11.860
28677W        W87971  37.983  18.723   0.962
28678W        W87972  41.836  24.489   4.165
28679W        W87973   2.227  19.704  10.610
28680W        W87974  44.773  28.009  10.094
28681W        W87975  14.295  25.059  12.531
28682W        W87976  39.499   8.684   1.242
28683W        W87977   0.929  36.395  12.384
28684W        W87978  35.942   7.875   1.223
28685W        W87979  40.829  13.690   3.375
28686W        W87980  11.366  23.615   4.186
28687W        W87981   4.774  26.473   2.318
28688W        W87982  29.575  15.109  14.372
28689W        W87983   5.891  15.149  12.871
28690W        W87984  18.550   7.393  14.358
28691W        W87985   8.369  26.619  11.375
28692W        W87986  16.585   1.415   4.327
28693W        W87987   8.320  19.660   2.840
28694W        W87988   0.434  33.598  10.624
28695W        W87989  36.057  43.467   2.222
28696W        W87990  34.395  18.589  13.428
28697W        W87991  19.744  12.756  13.992
28698W        W87992  13.721   6.217  13.013
28699W        W87993  20.031  43.353   1.823
28700W        W87994  38.026  43.890   0.277
28701W        W87995   0.813  32.038   4.780
28702W        W87996   4.741  18.753  13.973
28703W        W87997  36.460  22.229   3.667
28704W        W87998  24.586  41.444   3.783
28705W        W87999  11.760  39.403  13.409
28706W        W88000   3.320  36.970   4.753
28707W        W88001  34.576  12.648  14.788
28708W        W88002  13.714  27.627   3.203
28709W        W88003  34.052  23.147   0.782
28710W        W88004  43.428  22.119  11.122
28711W        W88005  14.148   9.845   1.297
28712W        W88006  19.777   5.744  13.325
28713W        W88007  37.864  43.369   0.927
28714W        W88008   8.692  11.204  11.859
28715W        W88009  29.073  38.018   4.665
28716W        W88010   8.695   3.256  14.893
28717W        W88011  36.880  20.206   1.451
28718W        W88012  15.219   4.774  13.047
28719W        W88013   8.192  23.095  14.504
28720W        W88014  14.714   5.374   1.806
28721W        W88015  20.615  16.628  13.836
28722W        W88016   0.842  34.018   4.715
28723W        W88017  18.268  14.167   2.196
28724W        W88018  18.787  26.652   5.144
28725W        W88019  13.329  15.242   4.729
28726W        W88020   9.264  36.371  14.444
28727W        W88021  32.393  25.562  13.469
28728W        W88022  27.964  15.794   2.678
28729W        W88023  43.311  25.639  14.794
28730W        W88024  28.608   7.782   0.774
28731W        W88025  13.832  37.998   4.310
28732W        W88026  37.388  31.102   1.749
28733W        W88027  43.329  10.211   4.823
28734W        W88028  10.283  41.379   1.828
28735W        W88029  11.735   8.405  10.931
28736W        W88030   1.827  35.563   0.905
28737W        W88031  17.114  12.660   0.742
28738W        W88032   8.672  16.800  13.343
28739W        W88033   7.883  18.545  11.381
28740W        W88034  14.207   7.228  14.966
28741W        W88035   4.438   2.929  10.514
28742W        W88036  16.248   7.876   2.234
28743W        W88037   6.212  34.899   4.673
28744W        W88038  21.710  40.017   4.235
28745W        W88039  15.237  14.750   2.798
28746W        W88040  25.987  44.361  14.817
28747W        W88041   5.311  43.832   2.751
28748W        W88042  30.029   8.855  11.514
28749W        W88043  11.865  34.528  14.427
28750W        W88044  26.121  41.307   2.233
28751W        W88045  35.904  10.879  12.895
28752W        W88046  24.495   2.954  11.126
28753W        W88047  38.958  30.589   3.251
28754W        W88048  20.038  32.633   0.797
28755W        W88049  39.405   9.317   3.373
28756W        W88050   6.397   6.729   0.343
28757W        W88051  21.248  23.218   2.807
28758W        W88052  30.562  15.646  11.977
28759W        W88053  29.578  42.858   3.225
28760W        W88054  25.530  34.451  10.504
28761W        W88055  24.109  38.961   3.691
28762W        W88056  15.084  14.760  11.919
28763W        W88057  23.708  38.944  14.872
28764W        W88058  31.982  22.738  12.843
28765W        W88059   4.316  22.190  12.395
28766W        W88060  13.712  36.998   4.136
28767W        W88061  16.721  14.201   9.920
28768W        W88062  12.323  37.078  11.026
28769W        W88063   3.290  17.113  11.958
28770W        W88064  23.728   5.840  10.469
28771W        W88065  29.994  29.537   4.709
28772W        W88066  24.669  27.052  13.861
28773W        W88067  35.045  40.348  12.902
28774W        W88068  36.561  24.671  12.017
28775W        W88069  11.866  38.063   2.780
28776W        W88070  14.590  17.205  12.403
28777W        W88071  43.462  29.009  14.871
28778W        W88072  39.421  43.401  13.328
28779W        W88073  37.913  20.232  14.463
28780W        W88074   8.374  35.581   2.789
28781W        W88075   7.291  16.161  10.543
28782W        W88076  33.070   6.285   3.356
28783W        W88077  36.875  17.260  11.604
28784W        W88078  25.528  42.863   3.254
28785W        W88079  13.151  19.675  13.530
28786W        W88080  10.790  43.420   1.845
28787W        W88081  16.295   9.278  14.356
28788W        W88082   1.751  44.332  11.414
28789W        W88083  41.319  23.110   1.342
28790W        W88084  35.566  17.779   4.812
28791W        W88085  27.957  18.626  11.051
28792W        W88086  17.794  23.183  10.624
28793W        W88087  39.964  24.550   3.704
28794W        W88088  23.203  44.805  11.106
28795W        W88089  29.090  23.641  11.590
28796W        W88090  19.706  38.565  12.022
28797W        W88091  31.111  39.558  13.844
28798W        W88092  44.390  43.974  14.877
28799W        W88093  14.323   1.817  10.636
28800W        W88094   8.163  42.940  13.029
28801W        W88095  11.263  12.624   0.911
28802W        W88096  43.355  43.947  11.104
28803W        W88097  16.590  17.798   3.735
28804W        W88098  35.412  32.637  12.549
28805W        W88099   1.314  18.056  10.514
28806W        W88100  12.290  11.866   1.210
28807W        W88101  17.063  28.093   3.203
28808W        W88102  31.964  16.810   2.195
28809W        W88103  43.368  12.343  13.831
28810W        W88104  42.448   4.355  10.932
28811W        W88105  34.596  40.803  10.982
28812W        W88106  44.474  38.853   2.222
28813W        W88107  33.544  35.892  14.021
28814W        W88108  36.474  22.013  11.973
28815W        W88109  12.147  28.089  12.053
28816W        W88110  37.005  39.048  14.426
28817W        W88111  10.197   1.365   1.214
28818W        W88112   2.785  13.125  13.483
28819W        W88113  14.270  11.720   0.428
28820W        W88114  43.781  34.484   3.356
28821W        W88115  23.013  24.724   3.237
28822W        W88116  13.161  17.296  11.503
28823W        W88117  32.003   5.372   3.826
28824W        W88118  17.253  39.927   4.113
28825W        W88119   4.844  37.035   3.787
28826W        W88120  41.871   4.329   3.151
28827W        W88121  28.583  14.156  11.868
28828W        W88122  12.634  10.633  11.052
28829W        W88123  15.147  28.070  14.379
28830W        W88124  10.292   7.217   4.625
28831W        W88125   1.958  14.707   0.901
28832W        W88126   5.741  41.492   2.773
28833W        W88127   9.764  42.460  13.345
28834W        W88128  41.941   1.305   3.354
28835W        W88129  22.693  39.010   2.211
28836W        W88130  25.111  37.855   4.302
28837W        W88131  19.638  20.032  13.805
28838W        W88132  44.466  31.515   2.783
28839W        W88133  31.058  38.821   0.345
28840W        W88134  11.844  26.141  13.062
28841W        W88135   1.291   9.861   1.425
28842W        W88136  15.677  38.862  14.014
28843W        W88137   0.884  40.018  14.870
28844W        W88138  34.532  25.971  14.975
28845W        W88139  11.184   3.945   4.215
28846W        W88140  22.113  41.309   0.351
28847W        W88141   1.871  39.816   4.602
28848W        W88142  40.449  43.973   3.374
28849W        W88143  32.910  13.843   4.631
28850W        W88144  26.519  25.207  11.038
28851W        W88145  23.495  11.284  12.384
28852W        W88146   0.828  28.560  12.475
28853W        W88147  35.508   3.244  12.014
28854W        W88148  43.998  34.905   2.379
28855W        W88149   0.269  23.114  13.439
28856W        W88150   7.263  23.728   4.267
28857W        W88151   3.375  23.700   4.336
28858W        W88152   0.318  18.057  13.389
28859W        W88153  23.493   0.948   1.315
28860W        W88154  21.039  36.500  12.545
28861W        W88155  34.058  30.950  11.384
28862W        W88156  42.320   6.737   4.608
28863W        W88157  15.178   8.196   3.205
28864W        W88158  20.235   2.315  11.972
28865W        W88159  39.439  39.541   2.419
28866W        W88160  40.946  15.795   0.317
28867W        W88161  28.061  12.171  10.044
28868W        W88162  25.168  22.219  14.354
28869W        W88163  25.681  17.746   4.126
28870W        W88164  22.713   2.894   3.779
28871W        W88165   2.780   7.286   3.340
28872W        W88166  17.667  40.030  12.923
28873W        W88167  36.395  14.632   1.368
28874W        W88168  35.416  38.923   3.860
28875W        W88169   3.878  16.312   4.153
28876W        W88170  21.573   5.833  11.578
28877W        W88171  21.041  36.957  12.565
28878W        W88172  11.254  13.609  14.446
28879W        W88173  29.628  17.724  14.343
28880W        W88174  41.899  26.645  11.955
28881W        W88175  18.788  37.493   1.918
28882W        W88176   0.295  44.369   3.278
28883W        W88177   0.270   7.316  13.439
28884W        W88178   3.852   3.389   2.768
28885W        W88179  36.957  29.494  14.488
28886W        W88180  11.205  10.160   0.817
28887W        W88181  11.726  43.314  11.380
28888W        W88182  35.887  31.427  14.967
28889W        W88183  40.537   6.424  11.446
28890W        W88184   9.713  34.584  14.408
28891W        W88185  22.103   4.313   2.684
28892W        W88186  37.490   7.266   1.847
28893W        W88187  37.478  10.381   2.380
28894W        W88188   4.382  44.267  10.540
28895W        W88189  31.068  36.051  13.392
28896W        W88190  29.609  25.591  13.978
28897W        W88191  26.955  28.509  12.970
28898W        W88192   2.833  42.915  12.018
28899W        W88193   4.860  30.996   1.292
28900W        W88194  23.679  22.503   3.303
28901W        W88195  35.380  23.545   1.397
28902W        W88196  29.066  31.469  14.906
28903W        W88197  36.929  40.431   0.288
28904W        W88198  21.709   8.380  12.561
28905W        W88199  32.557  11.231  13.504
28906W        W88200   8.177  39.337   4.678
28907W        W88201   2.326  11.854   0.894
28908W        W88202   8.810  21.052  12.990
28909W        W88203  43.958   4.211   3.743
28910W        W88204  40.813  41.894  12.982
28911W        W88205  43.784  23.516   4.662
28912W        W88206   1.751  20.120   4.148
28913W        W88207  10.302   6.854   2.701
28914W        W88208  35.567  20.730  13.397
28915W        W88209  21.118  21.217   4.303
28916W        W88210  31.105  13.116  14.760
28917W        W88211   0.319  42.309  10.423
28918W        W88212   0.981   8.287   1.384
28919W        W88213   4.844  16.270   4.820
28920W        W88214  43.902  32.560   2.283
28921W        W88215  40.968  36.949  12.577
28922W        W88216   4.744  14.755  12.854
28923W        W88217  37.046  14.602   4.629
28924W        W88218  30.464   8.369  13.828
28925W        W88219  11.241  23.141   2.316
28926W        W88220  39.518   4.716   2.223
28927W        W88221  42.984  40.317   1.374
28928W        W88222  41.866  24.008   2.838
28929W        W88223   5.293  32.535   3.706
28930W        W88224  12.788  31.408   4.810
28931W        W88225  14.651  34.526  14.406
28932W        W88226  22.588  25.110   1.932
28933W        W88227  16.139  28.125   3.790
28934W        W88228  29.555   7.334  10.411
28935W        W88229  26.116  28.014  14.332
28936W        W88230   3.877  42.949   1.723
28937W        W88231  15.720  30.964   2.757
28938W        W88232  39.911  25.102  11.022
28939W        W88233   6.286   2.952   2.670
28940W        W88234  22.586  23.491   3.295
28941W        W88235  37.525   6.236  14.827
28942W        W88236   1.976  25.026  11.031
28943W        W88237  32.951   7.384  10.904
28944W        W88238  19.713  22.687   4.821
28945W        W88239  42.814  19.711   3.247
28946W        W88240  43.407  44.497   0.348
28947W        W88241  26.982  12.737   0.295
28948W        W88242  20.568  13.816   0.278
28949W        W88243  31.919  12.216   3.778
28950W        W88244  16.714  25.669   3.344
28951W        W88245  27.112  27.130   1.779
28952W        W88246  33.059   5.242  12.886
28953W        W88247  14.275  12.792  13.980
28954W        W88248  18.145   9.843   5.192
28955W        W88249  41.988  19.744  12.503
28956W        W88250  25.549  27.452  10.584
28957W        W88251  16.115  28.069  11.100
28958W        W88252  44.937  26.078   0.437
28959W        W88253  36.983  32.487  11.113
28960W        W88254  12.657  15.313   2.780
28961W        W88255   4.221  27.562  11.531
28962W        W88256  39.968  19.273   3.713
28963W        W88257  17.194  36.392  13.920
28964W        W88258   0.302  35.985  12.079
28965W        W88259  42.462  29.662  12.979
28966W        W88260  10.879  17.275   2.365
28967W        W88261  27.151  33.910  11.410
28968W        W88262  35.402   3.396   0.300
28969W        W88263  39.820  24.597   0.318
28970W        W88264  23.627  16.216   1.246
28971W        W88265  24.525  27.958   2.897
28972W        W88266  27.959   1.435   3.867
28973W        W88267   6.298  26.077   4.172
28974W        W88268  16.114  42.961   2.695
28975W        W88269  21.226  10.741  13.032
28976W        W88270   3.339   2.933  13.828
28977W        W88271  14.305  44.370  14.464
28978W        W88272  37.057  39.460   0.242
28979W        W88273  41.038  11.275   3.826
28980W        W88274  40.529  20.759  14.970
28981W        W88275  29.984  35.105  13.882
28982W        W88276  34.900  23.140   0.752
28983W        W88277   1.788   8.313  14.004
28984W        W88278  17.707   2.754  11.070
28985W        W88279  38.945  12.295  13.421
28986W        W88280   7.809  27.578  11.090
28987W        W88281  38.556  14.683  14.803
28988W        W88282   0.962   8.209   4.756
28989W        W88283  32.466   1.324  12.832
28990W        W88284  40.958   9.749   0.939
28991W        W88285  30.569  17.602   0.416
28992W        W88286  15.261  26.041  11.585
28993W        W88287   5.393  42.805   4.220
28994W        W88288   8.837  38.409   0.481
28995W        W88289  28.003   8.217  11.399
28996W        W88290  40.031   0.441   4.661
28997W        W88291  36.466   0.380   3.260
28998W        W88292   4.295  12.332   0.444
28999W        W88293   8.167  19.282   3.251
29000W        W88294  17.773  28.619  11.573
29001W        W88295  39.874  14.284   3.738
29002W        W88296  30.453   5.407  12.864
29003W        W88297  37.509   8.894  14.980
29004W        W88298  13.732  20.757   4.208
29005W        W88299  32.629  14.590  11.090
29006W        W88300  39.957   1.971  14.769
29007W        W88301  26.031   2.327  14.466
29008W        W88302  42.345  14.236   1.821
29009W        W88303  41.003  12.194   1.846
29010W        W88304  22.683  20.115   3.810
29011W        W88305  12.320   0.395  14.009
29012W        W88306  43.393  24.183  10.626
29013W        W88307  27.571   2.423  14.941
29014W        W88308   1.806   5.718  12.953
29015W        W88309  24.715  13.758   0.861
29016W        W88310  44.354  25.194   1.844
29017W        W88311  14.260  15.758  14.949
29018W        W88312  20.256  18.681   3.773
29019W        W88313  24.711  39.058  11.074
29020W        W88314  38.438  12.704   2.889
29021W        W88315  34.473  31.093  11.562
29022W        W88316  33.395  39.047  10.543
29023W        W88317  16.208  39.055  13.024
29024W        W88318   2.834  19.071  11.956
29025W        W88319  43.466  35.388  12.848
29026W        W88320  41.385  28.155  13.834
29027W        W88321  13.105  41.398   2.178
29028W        W88322  38.961  12.636   2.738
29029W        W88323   1.840  21.553  12.870
29030W        W88324  35.561   0.333  11.410
29031W        W88325  30.528  10.876   3.228
29032W        W88326  27.025  42.373   1.925
29033W        W88327  38.554  32.480  13.985
29034W        W88328   4.872  44.494  11.478
29035W        W88329  16.813   6.854  13.542
29036W        W88330  42.901   7.268   2.769
29037W        W88331  26.606  15.617   4.135
29038W        W88332  38.052  39.883  12.000
29039W        W88333  31.516  22.996   4.608
29040W        W88334  17.755  16.189  11.444
29041W        W88335   7.315  14.198   2.760
29042W        W88336  33.964  30.634  12.993
29043W        W88337   2.897  25.177   2.199
29044W        W88338  36.945  43.014   3.802
29045W        W88339  18.138  10.871   1.731
29046W        W88340  44.334  22.207   4.297
29047W        W88341  10.364  15.791  12.956
29048W        W88342  41.808  11.232  11.492
29049W        W88343  29.122  21.523   0.365
29050W        W88344  32.922  33.402  13.457
29051W        W88345   3.387  42.526   0.798
29052W        W88346  43.800  18.117  14.927
29053W        W88347  25.962  35.432   0.377
29054W        W88348   7.287  19.587  13.335
29055W        W88349  18.118  19.124  13.395
29056W        W88350  37.054  31.526   3.705
29057W        W88351  38.333  29.986  10.558
29058W        W88352  26.476  38.034  12.443
29059W        W88353  14.777  38.449  11.927
29060W        W88354  15.300   4.892  14.360
29061W        W88355  20.184  24.211   0.882
29062W        W88356   6.251  20.576   4.324
29063W        W88357  41.506  24.097   1.865
29064W        W88358  32.069  19.636   4.296
29065W        W88359   4.417  12.192   1.435
29066W        W88360  41.436  35.382   9.575
29067W        W88361  25.126  17.303   1.302
29068W        W88362  18.765   0.848   0.264
29069W        W88363  27.587  16.778  11.466
29070W        W88364  33.466  11.220   2.826
29071W        W88365   4.720  27.160   0.967
29072W        W88366  29.132  10.237   3.304
29073W        W88367   6.415  13.202   0.244
29074W        W88368  30.604  19.611   4.260
29075W        W88369  15.621  10.736   3.153
29076W        W88370  23.170  20.214  14.772
29077W        W88371  27.073  43.418  13.393
29078W        W88372  21.669  13.250  12.960
29079W        W88373   4.314  39.363   2.244
29080W        W88374   5.380   5.313  13.426
29081W        W88375  33.428   1.376  11.990
29082W        W88376  29.575  25.214   0.298
29083W        W88377  29.095  31.442   3.741
29084W        W88378  34.375  10.709  12.857
29085W        W88379  32.124   7.859   2.725
29086W        W88380  28.563  39.420   1.331
29087W        W88381  38.423   1.940   0.376
29088W        W88382  44.810  35.513  13.415
29089W        W88383  29.532  24.086   4.134
29090W        W88384  17.670  23.227  11.074
29091W        W88385  21.027  37.363   1.843
29092W        W88386  17.668   3.896  13.931
29093W        W88387  15.120  16.144  12.973
29094W        W88388   5.916  15.745  14.296
29095W        W88389   8.712  32.116   2.852
29096W        W88390  28.491   4.210   2.786
29097W        W88391   6.865  38.070   1.430
29098W        W88392   6.797   4.381   0.734
29099W        W88393   0.797  15.253  13.852
29100W        W88394  10.752  24.673  12.473
29101W        W88395  41.822  26.677   0.731
29102W        W88396  38.423   8.711   4.744
29103W        W88397   8.329  31.018   1.416
29104W        W88398  39.921  44.503   0.362
29105W        W88399  34.393  33.036   0.351
29106W        W88400  35.019   6.353  13.546
29107W        W88401  27.620   1.957  11.589
29108W        W88402  22.999  34.997  13.338
29109W        W88403  20.042  15.100   3.242
29110W        W88404  19.119  38.919   3.680
29111W        W88405  12.796   7.391  13.523
29112W        W88406   6.212  21.668  11.421
29113W        W88407   0.769  27.981  13.518
29114W        W88408  15.137  27.478   1.845
29115W        W88409  30.601  24.723   0.797
29116W        W88410  13.727  21.701   1.429
29117W        W88411  41.976  41.398   9.955
29118W        W88412  25.647  12.679   0.440
29119W        W88413   6.297  36.590   3.346
29120W        W88414  17.128  36.036   5.198
29121W        W88415  27.983  36.590   4.674
29122W        W88416  39.871  28.036   3.634
29123W        W88417  43.912  37.539  10.595
29124W        W88418  44.835  19.274   0.748
29125W        W88419  14.291  17.291   2.284
29126W        W88420   4.284   4.224   0.941
29127W        W88421  19.047   3.777   1.929
29128W        W88422   3.416  19.232   0.410
29129W        W88423  36.988  32.964   4.664
29130W        W88424  28.999  37.964  14.002
29131W        W88425  40.374  22.528  10.131
29132W        W88426  26.121  38.947  10.453
29133W        W88427  16.098  12.705  13.446
29134W        W88428  12.140  40.337   4.635
29135W        W88429  10.658  28.002  14.334
29136W        W88430  33.924  31.636  11.503
29137W        W88431  14.224  18.557   4.719
29138W        W88432  35.107  42.933   4.152
29139W        W88433  18.108  17.307   4.170
29140W        W88434   2.937   2.226   4.353
29141W        W88435  34.471   5.747  14.824
29142W        W88436  19.659  26.120   0.762
29143W        W88437  35.910  38.846  11.883
29144W        W88438  18.665  41.928  13.798
29145W        W88439  25.127   0.772   0.761
29146W        W88440   8.662   4.905   3.280
29147W        W88441  37.580  39.912  10.537
29148W        W88442  38.860  34.406  14.477
29149W        W88443  29.521  34.956   1.796
29150W        W88444  11.742  12.614   2.810
29151W        W88445  36.456  26.003   1.921
29152W        W88446  29.624  30.414   5.228
29153W        W88447  32.486  17.099   9.981
29154W        W88448  25.647   2.868  12.420
29155W        W88449  37.928  34.500  12.957
29156W        W88450  43.798  39.501  11.564
29157W        W88451  19.592   9.686  14.985
29158W        W88452  24.488  17.785  13.362
29159W        W88453   6.213  23.730   2.763
29160W        W88454  16.720   8.656   2.700
29161W        W88455  28.041   3.892  14.470
29162W        W88456  27.568   1.867  14.010
29163W        W88457  29.538  36.097  10.501
29164W        W88458  41.790  13.844   3.304
29165W        W88459  23.153  11.848  12.084
29166W        W88460  19.284  33.086   1.820
29167W        W88461   9.873  11.220  10.452
29168W        W88462  20.082   1.832  12.921
29169W        W88463  35.902  32.933  11.434
29170W        W88464  36.961   8.852  12.542
29171W        W88465  16.665  41.431  14.836
29172W        W88466  38.333   0.354  12.346
29173W        W88467  17.207   0.839   3.735
29174W        W88468  16.159  12.343  14.516
29175W        W88469   9.659  38.843   0.300
29176W        W88470   2.294  39.427  10.909
29177W        W88471  26.543  28.075   1.240
29178W        W88472   8.669  10.863  13.319
29179W        W88473   4.223  39.394   4.224
29180W        W88474  26.557   1.821  13.326
29181W        W88475  42.851  15.166  11.608
29182W        W88476   5.341   3.421  11.122
29183W        W88477  44.805  40.882  12.061
29184W        W88478  37.961  33.881  11.556
29185W        W88479  31.461  17.719   2.410
29186W        W88480  33.889  14.132  11.509
29187W        W88481  22.251  24.014   0.401
29188W        W88482  41.960  30.972   1.778
29189W        W88483  36.017  21.018  14.759
29190W        W88484  28.174  36.877  12.046
29191W        W88485  11.234  28.484  13.985
29192W        W88486  26.157   3.232  14.762
29193W        W88487  11.143  36.960   0.309
29194W        W88488  13.739   3.813  12.354
29195W        W88489  27.098  38.862  14.377
29196W        W88490   9.689  11.832  11.440
29197W        W88491  11.231  37.458   1.214
29198W        W88492  43.393  13.740  12.493
29199W        W88493  26.105   1.920  12.939
29200W        W88494   1.345  37.494   3.788
29201W        W88495  25.552  37.970  12.881
29202W        W88496  44.765  20.676  12.912
29203W        W88497  44.871  29.073   2.883
29204W        W88498  44.273   9.155  14.311
29205W        W88499  18.112  18.781   3.205
29206W        W88500  16.686  43.018  13.428
29207W        W88501  25.622  16.295  11.524
29208W        W88502  17.581  19.729  12.956
29209W        W88503   4.359  23.709   1.266
29210W        W88504  25.698  17.245  11.951
29211W        W88505   5.889   0.807  11.968
29212W        W88506  27.585  37.880  11.431
29213W        W88507  43.908  16.717  12.946
29214W        W88508   9.707   9.882  10.895
29215W        W88509   9.311   8.888  11.107
29216W        W88510   0.354   9.378  11.902
29217W        W88511   5.757   5.256  12.520
29218W        W88512  39.507  30.976  12.907
29219W        W88513  19.168   1.461   2.675
29220W        W88514  38.833   1.273  12.511
29221W        W88515  34.597  29.532   1.443
29222W        W88516  10.670  21.755  11.867
29223W        W88517  31.046  34.922  13.424
29224W        W88518   8.817  42.445   2.229
29225W        W88519  13.318  19.176   3.283
29226W        W88520  22.121  17.739  13.497
29227W        W88521  14.684  29.569  11.389
29228W        W88522  39.847  39.889   4.701
29229W        W88523  15.107  15.656   3.672
29230W        W88524  44.356  31.105  12.421
29231W        W88525  25.533  12.266  12.460
29232W        W88526  43.404  13.109   2.859
29233W        W88527  19.160  11.351   0.773
29234W        W88528   3.732  22.248   2.843
29235W        W88529  35.389  32.085  14.804
29236W        W88530  21.196   6.324   0.351
29237W        W88531  10.172  36.501   1.386
29238W        W88532  40.503  21.256   4.163
29239W        W88533  39.460  29.569   1.863
29240W        W88534  42.830  22.691   5.215
29241W        W88535  39.860  19.633  13.308
29242W        W88536   5.749   5.198  13.533
29243W        W88537  10.800  11.284   3.688
29244W        W88538  38.984  23.616  14.804
29245W        W88539  23.539  39.362  10.920
29246W        W88540  27.539  43.451  14.855
29247W        W88541  40.398   8.256   1.334
29248W        W88542   7.228  11.137  14.022
29249W        W88543   2.947   7.767   0.420
29250W        W88544  17.182  33.042   3.705
29251W        W88545  28.963  35.881  11.513
29252W        W88546   4.820  30.531   5.095
29253W        W88547   2.383  34.953   2.710
29254W        W88548  43.276  34.506  12.017
29255W        W88549  10.212  19.656   0.759
29256W        W88550   3.372  15.820  14.332
29257W        W88551  29.001  20.117   3.689
29258W        W88552  23.637  35.583   2.793
29259W        W88553  19.675  21.110  12.441
29260W        W88554  35.903  27.522   0.337
29261W        W88555   0.491  31.640   4.162
29262W        W88556  43.007  24.032   5.259
29263W        W88557  37.974  36.424   1.278
29264W        W88558  15.711  29.616   1.826
29265W        W88559  15.602   5.788  10.440
29266W        W88560  35.360  28.491  14.318
29267W        W88561  11.281  43.504   3.231
29268W        W88562   2.938  15.093   0.949
29269W        W88563  35.417  10.372   4.828
29270W        W88564  11.256  14.758   1.368
29271W        W88565   2.811  39.995   3.742
29272W        W88566  11.769   4.738   0.769
29273W        W88567  34.041   3.266  13.326
29274W        W88568  39.350  33.124  14.857
29275W        W88569  28.561  19.575  11.121
29276W        W88570  18.720  31.622  10.900
29277W        W88571  28.654  11.628   1.714
29278W        W88572   2.727  40.842   0.265
29279W        W88573  20.139  13.116   3.802
29280W        W88574  41.799  40.371   4.760
29281W        W88575  26.668  30.638  12.959
29282W        W88576   4.857  41.933  11.384
29283W        W88577  43.448  33.395   3.293
29284W        W88578  28.666   5.778  12.936
29285W        W88579  44.441   5.313  10.990
29286W        W88580  14.274  24.552   3.328
29287W        W88581  33.600   9.861  13.886
29288W        W88582  33.402   1.777   4.740
29289W        W88583  34.068  20.738   2.739
29290W        W88584   2.241  31.551  14.294
29291W        W88585  18.711  10.778  13.974
29292W        W88586  12.761  34.109   1.900
29293W        W88587  41.326  40.448   3.742
29294W        W88588  15.725  28.500  12.410
29295W        W88589  15.088  36.494  14.923
29296W        W88590  30.651  27.535  10.915
29297W        W88591  42.790   9.237   3.852
29298W        W88592  12.827   2.844  11.378
29299W        W88593  24.523   5.362   2.874
29300W        W88594  26.042  22.121   1.328
29301W        W88595  14.809  10.306  12.561
29302W        W88596  33.073  18.633   3.667
29303W        W88597  19.578   9.778   2.850
29304W        W88598   1.766  34.486   1.924
29305W        W88599   5.817  23.209  10.449
29306W        W88600  12.766  28.011  12.510
29307W        W88601  21.148  17.592   3.805
29308W        W88602  27.468  26.970   1.696
29309W        W88603  33.036  41.347  12.442
29310W        W88604  40.832   7.753  13.507
29311W        W88605  41.963  19.054  10.934
29312W        W88606  30.524  33.410  11.478
29313W        W88607  30.049  40.452   9.986
29314W        W88608  13.702  37.377   4.827
29315W        W88609  35.006  14.600   0.373
29316W        W88610   6.332  16.232  14.491
29317W        W88611  25.631  42.959   1.428
29318W        W88612  30.446  29.962   0.270
29319W        W88613  15.767  25.173  12.563
29320W        W88614  42.847  24.189  10.487
29321W        W88615  22.554  17.108  12.083
29322W        W88616  25.504  28.004   1.264
29323W        W88617  32.107  42.877   2.793
29324W        W88618  37.040  29.918  13.036
29325W        W88619  38.338  29.038  14.428
29326W        W88620  36.882  30.015   0.373
29327W        W88621  14.254   3.377   0.758
29328W        W88622   0.896  33.977  13.357
29329W        W88623   2.964  31.571   0.453
29330W        W88624  43.895  43.809   5.704
29331W        W88625  26.697  30.599   4.233
29332W        W88626  11.737  42.362  12.963
29333W        W88627  24.026  35.994   3.735
29334W        W88628   4.404  40.526   4.248
29335W        W88629   8.248  29.963  12.427
29336W        W88630  38.860  30.004   0.917
29337W        W88631  13.317  21.757  11.527
29338W        W88632  41.448   0.466  10.584
29339W        W88633  34.574  34.606  12.006
29340W        W88634  22.157  37.845  12.356
29341W        W88635  12.696  38.948   2.244
29342W        W88636   2.873   9.157  11.909
29343W        W88637  14.160  10.836  11.004
29344W        W88638  20.590  43.416   4.293
29345W        W88639  39.361  17.750   1.918
29346W        W88640  42.846  40.380  13.425
29347W        W88641   4.254  36.922  12.438
29348W        W88642  39.895   3.221  13.842
29349W        W88643   4.439  14.334   2.737
29350W        W88644  37.554   6.790   2.368
29351W        W88645  23.118  16.141   0.929
29352W        W88646   0.779  33.005  11.980
29353W        W88647  12.755   8.871   4.838
29354W        W88648  10.867  17.560  11.041
29355W        W88649  39.951  22.650  10.579
29356W        W88650  26.499  27.084  12.413
29357W        W88651  43.881  42.896   0.350
29358W        W88652  10.849  13.261  11.477
29359W        W88653  16.124  30.579   2.407
29360W        W88654   1.294   9.682  14.014
29361W        W88655  14.109  23.557   4.302
29362W        W88656   2.878  30.006  12.417
29363W        W88657  25.184  31.485  14.423
29364W        W88658   8.737  10.361  11.464
29365W        W88659   6.342  19.220   2.752
29366W        W88660  34.416  42.366   1.383
29367W        W88661  42.818  25.022  13.515
29368W        W88662   7.283   2.735  12.874
29369W        W88663  26.656  25.996  13.989
29370W        W88664   6.403  17.764  10.990
29371W        W88665  12.304  30.425  12.825
29372W        W88666  20.172  13.186  11.913
29373W        W88667  38.008   7.344   4.124
29374W        W88668  15.097   1.899   4.647
29375W        W88669  35.917  26.038  12.399
29376W        W88670  35.396  10.203  12.428
29377W        W88671  29.158  24.510  11.034
29378W        W88672  43.407   7.702   1.433
29379W        W88673   7.781  43.308   4.156
29380W        W88674  23.525   7.902   2.699
29381W        W88675  42.307  16.231   0.405
29382W        W88676   8.726   8.333   2.234
29383W        W88677  11.858   3.844   0.829
29384W        W88678  36.555  11.841  10.954
29385W        W88679  13.664  43.326  13.863
29386W        W88680   1.321  36.545   0.273
29387W        W88681  36.068   1.437  12.529
29388W        W88682  41.426  22.078  12.989
29389W        W88683  10.825  27.678  13.429
29390W        W88684  40.861  14.282   4.653
29391W        W88685   1.446   3.952  11.993
29392W        W88686  28.482   5.253   3.209
29393W        W88687  21.700  35.908  14.924
29394W        W88688  13.240   8.794  10.432
29395W        W88689  24.129  37.523  12.385
29396W        W88690  18.092  25.596   2.371
29397W        W88691   6.796  37.399  12.061
29398W        W88692  38.935   9.845  14.888
29399W        W88693  34.866  22.109  14.440
29400W        W88694  22.547  31.568  13.808
29401W        W88695  19.743  35.892   1.255
29402W        W88696  41.805  25.988  10.429
29403W        W88697  39.511  30.431  13.409
29404W        W88698  26.115  28.968  12.919
29405W        W88699  19.044  38.903   1.901
29406W        W88700  41.538  37.485  13.540
29407W        W88701  20.755  13.844   0.958
29408W        W88702  26.623  22.079   4.346
29409W        W88703  43.817  39.475   2.766
29410W        W88704  15.711  14.101   0.321
29411W        W88705  26.661  24.607   4.658
29412W        W88706  39.040   6.377   1.301
29413W        W88707  34.398  26.954   1.379
29414W        W88708   3.738   0.362   9.989
29415W        W88709  44.900   4.806   4.335
29416W        W88710   2.254   7.199   1.301
29417W        W88711  36.894  13.774  10.450
29418W        W88712   8.207  30.627  11.880
29419W        W88713   5.396  13.109  11.401
29420W        W88714  27.037   5.932  11.446
29421W        W88715  30.550  20.212   4.213
29422W        W88716  36.936  11.236  11.459
29423W        W88717  28.541  31.052  14.763
29424W        W88718  10.846  15.749   3.763
29425W        W88719  40.858  43.782  11.895
29426W        W88720  22.731  40.323   4.184
29427W        W88721  12.271   3.804  12.426
29428W        W88722  12.610  27.641  13.395
29429W        W88723  20.699  13.842  13.510
29430W        W88724  27.518   9.285   0.920
29431W        W88725   8.296  38.974   1.268
29432W        W88726  28.447  40.457   0.869
29433W        W88727  20.096  21.725   9.619
29434W        W88728  40.486  15.705  10.149
29435W        W88729  25.620  43.951   1.411
29436W        W88730  11.301  34.914   0.737
29437W        W88731  24.046   9.175   1.745
29438W        W88732  40.023   8.367   4.786
29439W        W88733   4.213  43.287  10.406
29440W        W88734  36.928  22.145  12.940
29441W        W88735  32.403   9.247   4.227
29442W        W88736   1.786  22.144  10.586
29443W        W88737  22.662  33.876  13.824
29444W        W88738  37.550  42.885  14.461
29445W        W88739  43.492  19.223  11.487
29446W        W88740  43.997   7.327  14.362
29447W        W88741  37.849  13.728  11.922
29448W        W88742  32.414  27.040   4.225
29449W        W88743  25.564   2.838  11.094
29450W        W88744  29.654  33.101  12.438
29451W        W88745  10.163  21.119  10.018
29452W        W88746  28.155  28.998   2.779
29453W        W88747  15.703  40.948   2.762
29454W        W88748  35.109   2.335   3.225
29455W        W88749  26.594  10.319   0.902
29456W        W88750  15.775  31.941  12.059
29457W        W88751  44.331   4.364   3.856
29458W        W88752  40.305  24.158  12.578
29459W        W88753  31.577  33.400  14.808
29460W        W88754  27.489  36.980  11.549
29461W        W88755  37.078   8.848  12.834
29462W        W88756  10.170  31.059   0.410
29463W        W88757  12.138   7.734   4.256
29464W        W88758  21.160  25.530  11.121
29465W        W88759  23.989  41.521   2.290
29466W        W88760  24.110   4.811   4.185
29467W        W88761  40.835  17.757  14.945
29468W        W88762  18.639  25.657   2.771
29469W        W88763  11.292  21.089  14.877
29470W        W88764  43.922  30.591  14.431
29471W        W88765  17.143  21.676  14.012
29472W        W88766   7.245  43.889  10.516
29473W        W88767  30.983  10.698   0.434
29474W        W88768  33.587   0.883   3.357
29475W        W88769  41.988  43.426  12.401
29476W        W88770  18.131  28.989  14.791
29477W        W88771  20.676  42.874  14.841
29478W        W88772  34.602   2.942  11.023
29479W        W88773   4.894  11.659  13.950
29480W        W88774   6.876  28.486  12.542
29481W        W88775  18.669  44.815   3.687
29482W        W88776   2.314  38.565  11.514
29483W        W88777  44.366  22.555  13.502
29484W        W88778  31.597  38.418   3.871
29485W        W88779  19.629  30.076   0.767
29486W        W88780  30.938  13.303   2.350
29487W        W88781  11.666  36.533   4.333
29488W        W88782  15.589  40.052  13.977
29489W        W88783  32.393  26.499  14.368
29490W        W88784  12.803  22.560   3.148
29491W        W88785  19.262  36.380   4.150
29492W        W88786   7.179  41.002  10.487
29493W        W88787   7.213  37.851  10.606
29494W        W88788  41.986   9.347  12.096
29495W        W88789  42.855  44.767   9.581
29496W        W88790  42.461  39.368  12.865
29497W        W88791  34.023   5.798  12.373
29498W        W88792  42.353  36.856  12.562
29499W        W88793  10.810  42.984  13.488
29500W        W88794   8.197  24.493   2.226
29501W        W88795  19.647  43.304  12.992
29502W        W88796  43.919   6.316  12.944
29503W        W88797  40.468   8.395   3.851
29504W        W88798  43.996  25.097  13.500
29505W        W88799   6.711  42.313  14.915
29506W        W88800   4.831  26.641   5.274
29507W        W88801  33.109  21.222   2.325
29508W        W88802  30.504  30.068  12.999
29509W        W88803  21.533  42.504  14.995
29510W        W88804  12.197  12.140  12.086
29511W        W88805  38.835   9.390   0.891
29512W        W88806   0.492  41.506   1.333
29513W        W88807  14.777   9.214   0.739
29514W        W88808  28.109  44.980  10.921
29515W        W88809  21.060  31.454   1.832
29516W        W88810  20.769  24.526   0.814
29517W        W88811  38.395  29.023  14.882
29518W        W88812  15.801  35.051  14.855
29519W        W88813  44.404  25.660  11.995
29520W        W88814  29.025   5.854   1.880
29521W        W88815  38.569  12.160   2.229
29522W        W88816  28.060   2.236   1.248
29523W        W88817  11.705   6.862   0.856
29524W        W88818  11.834  32.090   3.174
29525W        W88819  18.673  25.711  14.775
29526W        W88820  13.233  42.341   4.307
29527W        W88821   1.735  27.496  10.985
29528W        W88822  21.691  40.450   3.327
29529W        W88823  43.974   8.665   1.887
29530W        W88824  44.849  36.580   1.715
29531W        W88825  10.330  28.068  11.051
29532W        W88826  34.497  19.709  12.938
29533W        W88827   7.849  14.804  12.559
29534W        W88828  11.630  15.819  13.465
29535W        W88829  17.613  20.757  10.907
29536W        W88830  26.029   8.338  11.973
29537W        W88831  16.693  32.554  14.298
29538W        W88832  11.365   0.362  12.529
29539W        W88833  25.525  40.367   2.878
29540W        W88834   6.836  40.366  14.497
29541W        W88835  19.099  22.682  10.633
29542W        W88836  16.687  36.857   3.380
29543W        W88837  41.526  29.474  14.019
29544W        W88838  40.363  11.316  11.035
29545W        W88839  33.091  17.151   1.894
29546W        W88840  41.500  11.185   4.756
29547W        W88841  17.289  42.296  13.410
29548W        W88842  42.317  31.020  12.519
29549W        W88843  42.436  26.554   3.797
29550W        W88844  21.219  18.607   0.297
29551W        W88845  18.559  10.256   3.293
29552W        W88846  36.955  11.139  11.933
29553W        W88847  41.372  19.071  13.900
29554W        W88848  43.818  19.541   0.729
29555W        W88849  11.287  30.150   3.270
29556W        W88850   5.361   6.300   3.152
29557W        W88851  38.375  18.634   1.913
29558W        W88852   7.766  25.020  11.071
29559W        W88853  35.060  39.866  13.364
29560W        W88854   0.259   3.761   0.859
29561W        W88855  28.662  37.351  11.928
29562W        W88856  18.694  38.867   1.364
29563W        W88857   8.395  13.634   3.674
29564W        W88858   9.152   4.272  14.877
29565W        W88859  17.230  11.323  11.065
29566W        W88860  15.742  43.823   1.887
29567W        W88861   9.226  43.915  14.764
29568W        W88862  34.051   3.224  10.964
29569W        W88863  30.602  14.680   3.798
29570W        W88864   3.718  16.304   1.907
29571W        W88865   2.259  20.234  14.816
29572W        W88866  39.035  25.124   3.666
29573W        W88867  27.960  30.565  13.427
29574W        W88868  32.634  21.529   2.868
29575W        W88869   2.754  36.906   0.278
29576W        W88870  31.973  43.440   0.907
29577W        W88871  41.925  32.548  12.505
29578W        W88872  28.168  23.016   3.189
29579W        W88873  18.737  42.932   1.762
29580W        W88874  41.496  30.478   0.337
29581W        W88875  18.674  23.574  12.879
29582W        W88876  38.387  28.943  12.898
29583W        W88877  33.494   2.466  11.544
29584W        W88878  25.196  19.094  12.843
29585W        W88879  17.080  42.873   2.369
29586W        W88880  22.068  22.135   1.448
29587W        W88881   6.876  31.632   5.621
29588W        W88882  33.130  36.355  12.395
29589W        W88883  31.426  20.587  12.347
29590W        W88884  19.654  38.837  13.523
29591W        W88885   7.756  25.567   5.238
29592W        W88886   2.767  18.181   2.900
29593W        W88887   7.181   3.385  11.403
29594W        W88888  21.048  14.202  11.419
29595W        W88889  21.112  28.485  13.850
29596W        W88890  34.557   8.295  14.370
29597W        W88891  41.468  42.312   1.933
29598W        W88892  38.929  22.019  14.907
29599W        W88893  39.982   3.289   2.781
29600W        W88894   3.882  31.066  14.867
29601W        W88895  23.504  14.161   3.728
29602W        W88896  20.032   1.384  12.416
29603W        W88897  37.907   3.774   4.230
29604W        W88898  32.437  19.779   3.740
29605W        W88899  34.992  15.254   0.249
29606W        W88900  31.957  33.418  12.461
29607W        W88901  24.179  19.725  11.582
29608W        W88902   7.680   3.381   1.406
29609W        W88903   1.784  17.595   3.374
29610W        W88904  20.704   4.413  11.519
29611W        W88905  27.525  15.645   3.290
29612W        W88906  31.632  31.927   4.780
29613W        W88907  33.538  29.139   3.698
29614W        W88908  41.985  22.198  13.040
29615W        W88909  16.192  43.322  12.496
29616W        W88910   0.484  39.969  11.019
29617W        W88911  34.378   1.958   4.293
29618W        W88912  37.427  31.573  13.481
29619W        W88913  40.494  12.352  11.089
29620W        W88914  27.540  30.424  13.358
29621W        W88915  33.069  22.624  13.536
29622W        W88916  41.327  43.954  13.994
29623W        W88917   6.793  24.093  11.898
29624W        W88918  31.124  26.558   1.409
29625W        W88919  43.357   8.863   1.729
29626W        W88920   3.768  30.157   0.306
29627W        W88921  41.829  10.274   0.281
29628W        W88922  27.621  31.084   4.166
29629W        W88923  10.166  39.855  13.376
29630W        W88924  26.639  43.341   3.280
29631W        W88925  43.453  40.007  11.467
29632W        W88926  16.692  25.523  14.420
29633W        W88927  27.133   3.725   2.882
29634W        W88928   2.431   9.272   0.961
29635W        W88929   1.429  43.901  14.314
29636W        W88930  22.052  28.480   4.680
29637W        W88931  34.527  19.566   3.265
29638W        W88932  26.196   5.701   2.859
29639W        W88933  36.528  39.542  10.504
29640W        W88934  30.147  18.578  13.380
29641W        W88935   3.910   8.375  11.119
29642W        W88936  41.372  11.184  13.342
29643W        W88937  22.021  22.063   2.284
29644W        W88938  27.996  18.769  14.824
29645W        W88939  40.383  44.928   1.935
29646W        W88940  11.187  14.639  13.413
29647W        W88941  27.507  33.888   1.856
29648W        W88942  21.640  28.965  11.539
29649W        W88943  36.392  25.469  11.880
29650W        W88944  29.973  32.525  12.420
29651W        W88945  40.884  11.689   0.383
29652W        W88946  31.087  38.451   1.389
29653W        W88947  13.328  21.090   1.849
29654W        W88948  30.941  30.601   4.601
29655W        W88949  31.993   1.432  12.999
29656W        W88950  14.654  42.844  11.568
29657W        W88951  15.099  18.697   3.827
29658W        W88952  40.518  42.889  11.608
29659W        W88953   3.870  11.824  14.784
29660W        W88954  23.127  18.063   1.298
29661W        W88955  36.496  20.234  13.493
29662W        W88956  44.792  36.548  11.928
29663W        W88957  13.338  32.446  13.983
29664W        W88958  40.976  27.949  12.032
29665W        W88959  38.823  33.105   2.334
29666W        W88960  26.579  18.575  10.888
29667W        W88961  25.160  40.047   4.228
29668W        W88962   2.961   3.297  12.847
29669W        W88963   6.227  22.673   0.412
29670W        W88964  33.933  31.034  12.061
29671W        W88965  12.798   5.300  12.567
29672W        W88966  38.438   7.735  13.428
29673W        W88967  42.474   3.773  11.566
29674W        W88968  26.090   6.866   3.815
29675W        W88969   3.407   8.240   2.868
29676W        W88970  37.925  44.302   0.927
29677W        W88971  35.859  14.792   1.925
29678W        W88972  13.611  27.992   1.929
29679W        W88973  42.425  28.668   1.734
29680W        W88974  12.159   4.721  14.860
29681W        W88975   3.223  44.807   0.411
29682W        W88976  18.651  35.865   1.894
29683W        W88977  25.112  37.488   2.741
29684W        W88978   4.772  38.392  11.125
29685W        W88979  38.956  43.993  14.986
29686W        W88980  32.939  36.468   3.260
29687W        W88981  18.620  35.601   3.205
29688W        W88982   9.263   6.290  13.414
29689W        W88983  16.590  21.635   1.885
29690W        W88984   5.917  24.110   2.839
29691W        W88985   8.857  30.142   0.457
29692W        W88986  40.948  25.682   3.675
29693W        W88987  33.100  24.710  14.465
29694W        W88988  33.623  23.630  11.008
29695W        W88989  31.094   4.734   4.742
29696W        W88990  25.498  11.373   3.747
29697W        W88991  28.615   7.754   0.360
29698W        W88992   5.831  40.372  14.369
29699W        W88993  32.104  34.971   0.875
29700W        W88994  26.075  41.452   2.771
29701W        W88995  28.956  16.604   4.663
29702W        W88996   4.864   2.930   1.224
29703W        W88997  27.687   3.265  14.029
29704W        W88998  36.476  39.016  12.893
29705W        W88999  26.054  34.554  13.812
29706W        W89000   6.218  36.584  14.380
29707W        W89001  27.523   1.863  10.538
29708W        W89002   0.758  31.611   2.225
29709W        W89003  28.449  28.532   4.137
29710W        W89004  24.214  11.744  14.450
29711W        W89005  44.899  21.225  11.024
29712W        W89006  34.925  24.577   3.379
29713W        W89007  20.154  38.993  13.417
29714W        W89008  27.573  24.664  11.405
29715W        W89009  33.007   9.816   3.695
29716W        W89010  34.419   6.720   3.293
29717W        W89011  22.597   8.873   3.250
29718W        W89012   4.432  16.079   4.750
29719W        W89013  12.201  27.182  13.465
29720W        W89014  27.672  18.133  14.965
29721W        W89015  34.886   6.888   4.160
29722W        W89016   8.742  39.323  11.555
29723W        W89017  37.944  13.741   0.733
29724W        W89018  40.865   5.832   3.860
29725W        W89019  11.713  10.736  13.481
29726W        W89020   4.280  42.335  11.107
29727W        W89021  18.105  36.053   0.752
29728W        W89022  13.224  25.035   3.208
29729W        W89023  23.218  14.715  11.047
29730W        W89024  36.003  44.893  13.816
29731W        W89025  34.080  29.651  10.987
29732W        W89026  37.435  16.148  13.820
29733W        W89027   6.397  41.435   4.307
29734W        W89028  29.590  30.648  11.508
29735W        W89029  14.761  37.048  13.835
29736W        W89030  23.009  33.966  10.586
29737W        W89031   8.244  16.255   4.713
29738W        W89032  44.440  42.819   4.210
29739W        W89033  28.930  11.202  11.448
29740W        W89034   7.219  22.151  12.062
29741W        W89035  13.662  35.532   2.389
29742W        W89036  33.100  42.348  14.868
29743W        W89037  26.970  31.992  12.949
29744W        W89038  32.478   8.285  12.061
29745W        W89039  29.107  30.949  10.556
29746W        W89040   3.798  43.995   3.816
29747W        W89041  11.676  10.333   3.853
29748W        W89042  42.874  31.912  13.319
29749W        W89043  21.604   7.796  14.457
29750W        W89044   6.273  25.566  10.006
29751W        W89045  15.235  23.621   3.703
29752W        W89046  44.846   6.848   2.305
29753W        W89047  26.197  40.884   9.612
29754W        W89048  42.485  30.041  11.393
29755W        W89049  43.275   0.775   1.800
29756W        W89050  18.651  28.025   1.800
29757W        W89051  14.257  36.860  13.947
29758W        W89052  22.197  37.455   0.830
29759W        W89053  12.641  22.586   0.304
29760W        W89054  20.038   7.336   0.287
29761W        W89055  33.993  24.000  11.584
29762W        W89056  34.525  34.009   0.356
29763W        W89057  21.079   8.689   1.817
29764W        W89058  23.719  21.591  12.919
29765W        W89059  22.239   6.850  12.354
29766W        W89060   6.831  41.870   1.353
29767W        W89061   2.769  16.294   1.849
29768W        W89062  39.504  44.264  12.404
29769W        W89063  36.939  30.510  13.901
29770W        W89064  15.112   1.758   2.367
29771W        W89065  14.753  42.884  11.924
29772W        W89066   8.770   5.369   4.622
29773W        W89067  33.888   0.482   3.709
29774W        W89068  36.851  27.587   4.167
29775W        W89069   8.246   5.322  11.464
29776W        W89070   2.366  37.343   3.761
29777W        W89071   0.359   3.712   3.242
29778W        W89072  11.665  22.522   2.684
29779W        W89073  33.895  44.754  14.301
29780W        W89074  14.242  32.934   2.822
29781W        W89075   7.270  34.934   5.136
29782W        W89076  36.494  17.287   2.211
29783W        W89077  44.899  28.992   3.261
29784W        W89078  21.693  16.778   1.298
29785W        W89079  17.231  43.365  12.576
29786W        W89080  38.033   7.689  11.999
29787W        W89081  10.780  33.440  11.612
29788W        W89082  24.037  32.922  14.473
29789W        W89083   2.252  14.791   4.124
29790W        W89084  35.938  16.177  13.910
29791W        W89085  25.687   7.843  13.467
29792W        W89086   6.679  27.028  10.444
29793W        W89087  29.509  31.077   3.779
29794W        W89088  21.651  40.495   2.716
29795W        W89089  15.129  17.232  11.954
29796W        W89090  26.183  25.022  13.940
29797W        W89091  21.227   6.899  10.497
29798W        W89092  34.096  14.132   2.688
29799W        W89093  29.668  30.026  13.026
29800W        W89094  37.466  11.688  11.862
29801W        W89095   9.878  34.934  10.606
29802W        W89096  11.202  40.396   2.746
29803W        W89097  27.986  30.446   3.164
29804W        W89098  12.820   9.271   1.929
29805W        W89099   1.473  38.481   1.310
29806W        W89100  43.821  43.969   1.828
29807W        W89101  10.290   0.488   3.734
29808W        W89102   6.723  31.459   2.749
29809W        W89103  29.424  25.497  14.796
29810W        W89104  17.242  40.003  14.326
29811W        W89105  39.353  19.223   4.158
29812W        W89106  24.608   1.768  13.429
29813W        W89107  35.402  29.431  11.412
29814W        W89108   5.801  20.637   0.774
29815W        W89109  37.878  30.542  14.500
29816W        W89110  40.512  38.980  12.541
29817W        W89111  23.120  10.219   4.259
29818W        W89112   7.398  17.766  14.799
29819W        W89113   5.384   2.820  14.899
29820W        W89114  12.135  36.383  13.442
29821W        W89115   8.683  26.000   3.659
29822W        W89116  41.031  39.431   2.837
29823W        W89117  36.850   2.252   3.794
29824W        W89118  12.613  33.476   3.294
29825W        W89119  20.536  28.572   1.276
29826W        W89120  37.543  30.009  10.562
29827W        W89121  11.277  39.412  14.350
29828W        W89122  33.897  11.680   3.866
29829W        W89123  15.715  26.469  10.528
29830W        W89124  28.035  33.416  14.345
29831W        W89125  11.798  40.419  10.503
29832W        W89126   7.228  25.178   3.834
29833W        W89127   7.284  16.178   0.269
29834W        W89128  31.993   2.307   3.836
29835W        W89129   1.920  13.777   1.427
29836W        W89130  13.804   5.292   0.960
29837W        W89131  28.968  31.027  14.403
29838W        W89132  44.972  36.404  10.951
29839W        W89133  25.048  42.959  14.312
29840W        W89134  11.257  15.681   4.792
29841W        W89135  36.567  31.979  14.773
29842W        W89136  36.528  21.250   3.345
29843W        W89137  23.098  31.086  14.974
29844W        W89138  22.678  21.630   2.881
29845W        W89139  15.233  24.508  13.537
29846W        W89140  12.622  23.068  14.400
29847W        W89141   8.279   9.239   4.808
29848W        W89142  13.811  38.393  13.364
29849W        W89143  22.574  12.770  12.086
29850W        W89144  21.526  25.669  14.016
29851W        W89145  15.105  34.386   4.647
29852W        W89146  11.369  37.434   2.834
29853W        W89147  25.157   8.866  14.764
29854W        W89148   2.289   4.444   3.360
29855W        W89149  31.924  17.782  11.940
29856W        W89150  42.902  35.924   0.825
29857W        W89151  22.198   8.843   2.714
29858W        W89152  17.225  19.173   9.569
29859W        W89153   3.329  43.274   1.837
29860W        W89154  19.655  29.025   1.268
29861W        W89155   1.896  17.584   4.808
29862W        W89156  33.923  16.589  11.539
29863W        W89157  32.547   9.716   0.333
29864W        W89158  21.091  38.947  14.327
29865W        W89159  19.280  44.780   2.260
29866W        W89160  36.041  36.378   1.932
29867W        W89161   4.812  17.154   2.738
29868W        W89162  28.650   7.711  14.372
29869W        W89163  28.459  19.281  14.451
29870W        W89164   6.785  35.485  11.473
29871W        W89165  28.984   9.800   3.219
29872W        W89166   5.431  12.314   0.767
29873W        W89167  18.780  24.112   4.620
29874W        W89168  11.716  41.025  13.447
29875W        W89169   9.230  32.076  11.506
29876W        W89170  42.828  38.997   1.222
29877W        W89171  14.790   9.874  13.792
29878W        W89172  21.752  26.653   1.277
29879W        W89173  33.092  19.629  12.834
29880W        W89174  10.172  18.058   4.826
29881W        W89175  13.243  40.868  12.998
29882W        W89176  41.516   1.468   3.258
29883W        W89177  33.525   7.786   0.464
29884W        W89178  10.270   4.346   0.743
29885W        W89179  32.461  43.021  13.469
29886W        W89180  14.227  42.374   1.761
29887W        W89181  31.070  14.715  13.909
29888W        W89182   4.439  28.084   3.228
29889W        W89183   5.214   5.890   2.825
29890W        W89184  38.362   2.326   4.302
29891W        W89185   3.771   8.677  12.089
29892W        W89186  11.743  24.498  12.008
29893W        W89187   7.310  42.962   3.191
29894W        W89188  16.661  13.663  11.887
29895W        W89189  29.942  32.634   1.735
29896W        W89190  10.803   8.830   2.326
29897W        W89191  29.578  32.075  12.842
29898W        W89192  39.873  30.002   2.354
29899W        W89193   1.267   1.754   1.705
29900W        W89194  38.964  21.230  10.510
29901W        W89195  26.481  34.005   4.348
29902W        W89196  23.075  41.471  14.012
29903W        W89197  16.744  21.734  13.913
29904W        W89198  22.680   8.714  13.372
29905W        W89199  35.082   3.846  14.759
29906W        W89200  29.647  43.888   3.857
29907W        W89201   9.847  28.961  11.073
29908W        W89202  41.827   6.367   0.315
29909W        W89203   4.370  32.414  14.514
29910W        W89204  29.440  40.403  13.349
29911W        W89205  23.639  22.239   1.768
29912W        W89206  28.971  43.379  12.484
29913W        W89207  34.551  26.125  10.911
29914W        W89208  35.541  44.920  10.410
29915W        W89209   0.352  27.539  10.510
29916W        W89210  20.743  42.523  10.899
29917W        W89211  37.499   9.817  12.994
29918W        W89212  24.156  10.269  14.993
29919W        W89213   9.206  34.876  13.929
29920W        W89214  11.703  39.892   3.163
29921W        W89215  13.194  38.438   0.888
29922W        W89216  31.565  29.480   4.166
29923W        W89217   4.778  39.413  13.403
29924W        W89218  39.391  33.468   2.682
29925W        W89219  38.865  39.057   3.773
29926W        W89220   8.841  34.902  10.409
29927W        W89221  24.712   0.322  13.361
29928W        W89222  11.844  27.954   0.744
29929W        W89223   8.405  25.083  11.374
29930W        W89224  27.468  10.728  12.376
29931W        W89225  22.161  30.974  11.535
29932W        W89226   9.206  14.592  13.806
29933W        W89227  15.594   0.251  11.528
29934W        W89228  25.646  24.996   3.161
29935W        W89229   7.212  40.412   0.769
29936W        W89230   5.341  36.917  10.931
29937W        W89231  43.825  42.974  14.370
29938W        W89232  29.638  21.199  11.955
29939W        W89233  37.846   9.687  13.432
29940W        W89234  12.776   0.793  11.567
29941W        W89235  32.989  27.014  13.031
29942W        W89236  43.422  21.643  11.507
29943W        W89237  16.163  19.710  14.866
29944W        W89238  39.347   3.384  12.456
29945W        W89239  18.572  18.732  14.939
29946W        W89240  35.976  14.270   3.791
29947W        W89241  36.972  17.077   1.832
29948W        W89242  42.522  30.514  14.976
29949W        W89243  24.986   5.383   0.870
29950W        W89244  26.703  36.083   2.682
29951W        W89245  23.146  25.017   4.219
29952W        W89246  32.430  39.004  12.958
29953W        W89247  32.564  17.663  14.316
29954W        W89248  12.674  19.707  13.946
29955W        W89249  35.077   7.184  14.349
29956W        W89250  42.828   2.235  12.438
29957W        W89251  26.500  33.473  11.961
29958W        W89252  29.609  36.040   0.825
29959W        W89253   0.868  43.471  13.903
29960W        W89254  43.932  14.141  10.963
29961W        W89255  24.694   4.752   3.721
29962W        W89256   3.865  12.819  14.808
29963W        W89257  14.750   6.222  10.923
29964W        W89258  32.455  40.846  11.506
29965W        W89259   9.176   4.204  11.403
29966W        W89260   0.832  41.379   3.346
29967W        W89261  42.979  28.979   0.923
29968W        W89262  18.785  35.916  12.545
29969W        W89263  35.999   6.255   2.390
29970W        W89264  34.075  30.921  13.427
29971W        W89265   0.421  41.965   4.724
29972W        W89266  34.578  27.153   2.193
29973W        W89267  32.608  34.988   4.781
29974W        W89268  42.368  20.182  10.583
29975W        W89269  32.013  14.226   3.213
29976W        W89270  36.449   3.322   1.339
29977W        W89271  39.522  16.137   2.365
29978W        W89272  21.173  25.195   0.283
29979W        W89273  30.907  28.546  14.993
29980W        W89274  17.611  24.110  14.014
29981W        W89275  27.493  35.899  13.847
29982W        W89276  24.596   0.779   0.945
29983W        W89277  41.437  16.220  14.430
29984W        W89278  29.112  29.011   1.819
29985W        W89279  33.053  36.906   2.853
29986W        W89280   2.434  28.946   1.330
29987W        W89281   5.431  41.294  11.012
29988W        W89282  10.297  39.003   4.277
29989W        W89283  14.244  43.810   3.770
29990W        W89284  36.500  17.286   4.240
29991W        W89285  12.250  21.198  11.905
29992W        W89286  33.902  32.609  13.413
29993W        W89287  39.903  19.097  13.447
29994W        W89288  26.003   0.412  12.508
29995W        W89289   7.203  44.974   0.930
29996W        W89290  24.009  29.966  12.558
29997W        W89291  33.593  25.043   0.348
29998W        W89292  29.479  41.940   0.248
29999W        W89293  18.072  29.158  12.562
30000W        W89294   2.458  42.521   3.777
30001W        W89295   0.386  39.917   3.641
30002W        W89296  33.389  32.049  11.563
30003W        W89297  32.139  44.864   0.380
30004W        W89298  35.950   4.224   3.829
30005W        W89299   5.326  17.570  13.947
30006W        W89300  14.302  40.351   3.841
30007W        W89301  31.013  17.268   4.309
30008W        W89302  39.909  16.776   2.415
30009W        W89303   0.934   4.431  14.999
30010W        W89304  12.833  30.153  11.925
30011W        W89305  13.147  17.157  11.125
30012W        W89306  14.832  15.632  10.537
30013W        W89307  11.831  35.583   4.647
30014W        W89308  29.654  26.521   4.669
30015W        W89309  35.865  21.549  13.823
30016W        W89310  34.895  31.643  14.973
30017W        W89311  39.371   3.398   4.191
30018W        W89312  39.339  40.541   2.880
30019W        W89313  13.267   9.681  11.381
30020W        W89314  33.958  28.184  13.009
30021W        W89315  15.693  44.962   3.713
30022W        W89316  12.354  30.650   4.718
30023W        W89317  13.171  43.328  11.377
30024W        W89318  41.409  11.209   1.428
30025W        W89319   1.839  44.812  14.896
30026W        W89320  28.538  37.518   2.215
30027W        W89321  21.176  18.113   3.242
30028W        W89322  17.635  22.191  14.478
30029W        W89323  36.053  14.661  12.426
30030W        W89324  31.935  21.539  14.304
30031W        W89325  41.874  20.204  13.352
30032W        W89326   3.376  30.013   3.272
30033W        W89327   9.698  19.724   0.762
30034W        W89328   5.356  26.199   2.758
30035W        W89329  41.431  36.448  14.456
30036W        W89330  32.033   9.355  12.944
30037W        W89331  34.546   1.784  13.047
30038W        W89332  21.054  31.547  12.026
30039W        W89333  28.532   0.299  11.559
30040W        W89334  10.738  34.966   5.759
30041W        W89335  43.942  42.491  11.022
30042W        W89336   3.758  15.255   4.646
30043W        W89337  35.104   5.813  11.609
30044W        W89338  41.355  29.158   0.282
30045W        W89339   4.385  27.609   2.903
30046W        W89340  31.122   5.241  14.406
30047W        W89341  38.513  24.124   0.319
30048W        W89342  18.276   7.766   1.272
30049W        W89343  34.949  44.787   1.727
30050W        W89344  11.363  34.887   1.847
30051W        W89345  35.928  35.582   0.465
30052W        W89346  32.086  31.488   4.618
30053W        W89347   9.243  18.597  12.975
30054W        W89348   8.759   4.324   2.886
30055W        W89349  17.588  42.008   4.749
30056W        W89350  20.749  29.614  14.786
30057W        W89351  22.063  10.847  13.829
30058W        W89352  24.670  25.652   0.839
30059W        W89353  36.404  28.461   0.466
30060W        W89354   4.421  43.392   4.715
30061W        W89355  30.614  11.659  14.929
30062W        W89356  23.558  43.404  13.407
30063W        W89357  38.566  17.686  11.485
30064W        W89358  17.726  13.836   0.813
30065W        W89359  23.514  40.435   0.430
30066W        W89360  34.535  40.376  12.536
30067W        W89361  31.573  16.584   2.803
30068W        W89362  38.034   8.276  14.784
30069W        W89363  18.194  44.920  12.429
30070W        W89364  41.375  28.087  14.373
30071W        W89365  10.197  25.982  10.596
30072W        W89366  11.792  22.621   4.659
30073W        W89367  26.967  40.316  14.810
30074W        W89368  25.521  19.726   1.312
30075W        W89369   0.912  40.998   1.697
30076W        W89370  33.880  32.478   3.292
30077W        W89371  20.576  34.391  13.837
30078W        W89372  34.525  40.327  12.050
30079W        W89373  41.823   3.324   0.311
30080W        W89374  31.555  32.043   1.805
30081W        W89375   0.323   5.271  13.967
30082W        W89376  27.952  28.440  14.031
30083W        W89377   2.761  36.359   4.151
30084W        W89378  37.985  27.993  13.341
30085W        W89379  37.463  43.407   1.896
30086W        W89380  19.156  24.199  12.394
30087W        W89381  17.082  32.898   0.727
30088W        W89382  21.102  28.979  10.092
30089W        W89383   6.867  29.027   9.934
30090W        W89384  37.417  41.409   0.847
30091W        W89385  38.518   2.242  14.913
30092W        W89386  42.385   8.394  12.472
30093W        W89387  41.801  30.649   3.778
30094W        W89388  16.200  32.480   0.831
30095W        W89389  30.043   6.323   1.299
30096W        W89390  37.891  44.347  12.545
30097W        W89391  25.199  34.076   3.199
30098W        W89392  29.525  29.505  12.570
30099W        W89393  25.983  34.500  13.350
30100W        W89394  44.444   0.839  13.458
30101W        W89395   1.317   7.877   2.863
30102W        W89396   1.827  37.516   3.269
30103W        W89397  16.130   7.700   3.304
30104W        W89398  23.996   0.270  10.998
30105W        W89399  35.000  41.006   2.355
30106W        W89400   5.322   3.810   0.767
30107W        W89401  37.361   0.389   3.286
30108W        W89402  25.480  21.057  13.480
30109W        W89403   0.956  39.492  11.539
30110W        W89404  21.676   2.798  13.328
30111W        W89405   6.358  10.303   0.867
30112W        W89406  43.006   3.433   0.399
30113W        W89407  21.514  22.240   4.255
30114W        W89408  38.053  31.063   3.161
30115W        W89409  26.998   8.857  11.393
30116W        W89410   6.415  30.575  14.846
30117W        W89411  32.582  32.413   1.756
30118W        W89412   2.960  34.570   4.800
30119W        W89413  41.436  29.022   4.673
30120W        W89414  41.488  37.005   2.237
30121W        W89415  11.794  26.069  12.441
30122W        W89416  21.619  27.998   2.253
30123W        W89417  28.600  18.557  13.983
30124W        W89418  24.974  41.877   4.251
30125W        W89419  35.100  40.999  11.553
30126W        W89420  25.026  27.146   1.728
30127W        W89421  23.156  40.357  13.878
30128W        W89422  12.332  36.015   4.699
30129W        W89423  32.925  29.100   4.193
30130W        W89424  33.581  12.223  14.378
30131W        W89425   0.367  11.211  11.574
30132W        W89426  24.483  17.649   4.145
30133W        W89427   7.864  10.721  12.977
30134W        W89428   3.365  42.437  13.945
30135W        W89429  15.104  42.803  11.010
30136W        W89430  21.535  16.190  11.002
30137W        W89431   2.278   7.401  13.312
30138W        W89432   7.362   2.383  13.405
30139W        W89433  18.690   7.667  12.487
30140W        W89434  24.124  36.906   4.833
30141W        W89435  33.065  37.413   1.788
30142W        W89436  42.015  39.814  13.465
30143W        W89437  21.525  13.600  11.501
30144W        W89438  27.028  35.578   0.834
30145W        W89439   5.201  26.577   0.369
30146W        W89440   5.318  18.545   1.407
30147W        W89441   7.189  34.888  11.973
30148W        W89442  44.995  25.704  12.068
30149W        W89443   2.872  15.656   4.167
30150W        W89444  33.573  18.614   2.729
30151W        W89445   2.429  12.661  11.553
30152W        W89446  41.418  25.672  12.927
30153W        W89447  32.012  17.179   1.254
30154W        W89448  11.663  42.994   5.136
30155W        W89449  41.799  42.360  14.279
30156W        W89450  41.420  14.119   1.354
30157W        W89451  18.254  31.922   0.760
30158W        W89452  26.560  18.723   5.237
30159W        W89453  24.679  19.115  14.299
30160W        W89454  26.207  39.054   2.901
30161W        W89455  20.143  41.297   0.371
30162W        W89456  20.194  37.571   2.842
30163W        W89457  38.074  10.749  10.421
30164W        W89458  13.131  32.613  10.594
30165W        W89459  12.263   6.408  11.411
30166W        W89460  42.875  11.230  10.572
30167W        W89461  36.375  30.064  13.436
30168W        W89462  32.055  18.688  10.637
30169W        W89463  20.709   7.731  14.816
30170W        W89464  20.662  27.007  12.560
30171W        W89465  36.904  41.513  11.870
30172W        W89466  18.655   2.414   4.767
30173W        W89467  43.984  22.700  14.948
30174W        W89468   2.270   4.273   0.395
30175W        W89469   8.655  13.629   4.796
30176W        W89470  32.447  29.993  12.921
30177W        W89471   1.890  27.615   3.302
30178W        W89472  15.651   3.290  14.832
30179W        W89473  11.370  38.329  14.897
30180W        W89474  16.242  32.994   0.903
30181W        W89475  25.539   0.837  10.904
30182W        W89476   3.405  42.306  10.964
30183W        W89477  18.723  28.072  14.888
30184W        W89478   1.318  20.142   4.353
30185W        W89479  18.065  33.876   4.777
30186W        W89480  41.308  30.653  13.317
30187W        W89481   8.211   7.266   2.768
30188W        W89482   1.252  44.984   0.482
30189W        W89483  23.607  22.583  10.968
30190W        W89484  43.457   2.412  10.626
30191W        W89485  11.260  19.114   2.218
30192W        W89486   5.277  34.469   4.609
30193W        W89487  31.047   3.245   4.801
30194W        W89488  22.511  24.099  10.540
30195W        W89489   7.680   3.458  13.478
30196W        W89490  41.492   7.847   3.273
30197W        W89491  35.066  20.588  12.093
30198W        W89492   1.396   3.312   1.286
30199W        W89493   0.374  11.279   4.689
30200W        W89494   0.290  27.603   1.383
30201W        W89495  15.677  25.634  12.032
30202W        W89496  27.679   0.279  14.019
30203W        W89497   0.486   7.743  11.446
30204W        W89498  25.126  24.220  13.889
30205W        W89499  39.487  40.946  14.939
30206W        W89500  31.940  42.031  14.287
30207W        W89501  25.570  34.954   4.153
30208W        W89502   3.732   0.881   5.156
30209W        W89503  24.109  23.538   3.300
30210W        W89504  30.135  21.652   4.834
30211W        W89505  17.099   1.443  12.935
30212W        W89506  26.554  28.132  10.533
30213W        W89507   9.797  42.504   3.844
30214W        W89508  22.570  32.982   2.888
30215W        W89509  18.724  40.423  13.541
30216W        W89510  14.162  26.182   3.153
30217W        W89511  34.007  39.380  13.846
30218W        W89512   3.386  22.095   3.351
30219W        W89513  42.464  11.751  11.981
30220W        W89514   3.760  27.062  11.015
30221W        W89515   6.698  37.449  14.882
30222W        W89516  26.589  42.914   3.740
30223W        W89517   1.321  39.337  12.032
30224W        W89518  11.859  37.919  10.969
30225W        W89519  27.627  27.508  13.436
30226W        W89520   4.404  44.270  10.926
30227W        W89521   0.329  25.677   2.831
30228W        W89522  12.732  32.558  10.956
30229W        W89523  19.068  28.151  13.046
30230W        W89524   2.888  23.708  14.922
30231W        W89525   5.199   4.295   4.635
30232W        W89526  43.796  12.756  14.338
30233W        W89527   6.270  40.933   0.744
30234W        W89528   3.368  18.614   5.214
30235W        W89529  19.048   3.367  12.826
30236W        W89530  34.527  11.716  10.963
30237W        W89531  34.562   4.926   2.346
30238W        W89532  10.721   1.261   3.851
30239W        W89533  43.447  30.492   2.346
30240W        W89534   7.367  23.121  14.001
30241W        W89535  43.436  39.327  12.496
30242W        W89536  41.439  12.179  10.615
30243W        W89537  32.048  42.373  10.422
30244W        W89538  42.441  21.618   3.160
30245W        W89539  11.293   3.407  14.372
30246W        W89540  26.977  29.430   3.235
30247W        W89541   2.869   1.786  12.562
30248W        W89542  41.875   4.309   1.402
30249W        W89543  18.574  19.734  12.081
30250W        W89544   4.311  20.071   0.924
30251W        W89545   6.882  25.616   0.746
30252W        W89546  42.395  37.380  11.997
30253W        W89547  18.580  43.945  12.495
30254W        W89548  39.438  29.125   0.957
30255W        W89549  28.048  42.899   2.186
30256W        W89550  18.674  35.079  13.470
30257W        W89551  35.582  34.429  13.022
30258W        W89552   5.340  43.512  13.045
30259W        W89553  25.034  13.699  11.871
30260W        W89554  40.921  22.203   3.825
30261W        W89555  41.526  13.628   2.685
30262W        W89556  43.484  38.354   0.922
30263W        W89557  25.009  14.295   4.708
30264W        W89558   3.904  38.456   4.639
30265W        W89559  13.173  21.719  13.944
30266W        W89560  10.807  28.444   4.806
30267W        W89561  25.621  29.991  13.532
30268W        W89562   3.343  31.580   1.878
30269W        W89563  16.160  12.669  13.031
30270W        W89564  18.175  33.108  11.932
30271W        W89565  14.753   1.288  13.827
30272W        W89566   1.733  14.709  11.003
30273W        W89567  28.950   4.377  12.566
30274W        W89568   8.845  13.344   2.187
30275W        W89569  26.981  25.066   1.276
30276W        W89570  40.529  41.941   0.938
30277W        W89571  19.774  43.328  14.428
30278W        W89572   8.292  10.227   1.289
30279W        W89573  41.969  38.031  11.089
30280W        W89574   6.788  16.795   2.891
30281W        W89575   7.275  30.559   4.251
30282W        W89576  15.327  42.980  11.980
30283W        W89577  22.180  44.340  10.565
30284W        W89578  42.904   1.324  13.371
30285W        W89579  28.447  16.184  10.602
30286W        W89580  26.155  33.916  14.776
30287W        W89581   5.904  36.352   0.954
30288W        W89582  21.100   1.961   3.771
30289W        W89583   7.880  43.873  11.568
30290W        W89584  42.519  36.540  11.877
30291W        W89585  10.215  43.317  12.485
30292W        W89586  21.713  34.940   4.711
30293W        W89587   2.792  13.659   3.799
30294W        W89588  21.711  11.731  11.099
30295W        W89589  33.432   4.794   1.313
30296W        W89590  10.674  25.086  12.397
30297W        W89591  19.690   7.275  14.774
30298W        W89592  28.470  14.669  11.085
30299W        W89593  44.836  18.686   1.278
30300W        W89594  23.697  28.007   3.770
30301W        W89595  22.059  39.022   1.718
30302W        W89596   3.724   0.827   1.255
30303W        W89597  14.722   0.334   2.372
30304W        W89598  27.652  21.017   3.781
30305W        W89599  16.685  32.033  11.026
30306W        W89600  19.703  33.887   1.784
30307W        W89601  32.132  16.292   0.843
30308W        W89602  30.945  22.103  12.381
30309W        W89603  36.524  30.464  14.303
30310W        W89604  13.264  24.695   1.902
30311W        W89605   4.347   4.803   0.306
30312W        W89606  22.710  33.506  11.045
30313W        W89607  40.868  43.478  10.419
30314W        W89608  16.271  33.611  14.453
30315W        W89609  30.068   7.194  11.978
30316W        W89610  17.583  40.412   3.707
30317W        W89611  37.442  44.483   1.710
30318W        W89612  41.515  21.595   4.833
30319W        W89613  20.226   7.188   2.373
30320W        W89614  30.161  28.438   1.703
30321W        W89615   3.401  33.409  13.448
30322W        W89616  17.089  10.643   1.728
30323W        W89617   4.283  22.696   2.190
30324W        W89618  14.187  28.998   3.167
30325W        W89619  31.043   0.348   3.201
30326W        W89620  17.695  13.627  13.513
30327W        W89621   9.173  38.497  14.783
30328W        W89622  10.294  10.685  10.944
30329W        W89623  14.788  35.083  14.296
30330W        W89624   0.952  36.842   3.235
30331W        W89625  37.389  16.176   3.859
30332W        W89626   8.387  15.666  11.112
30333W        W89627  44.934  28.097   2.807
30334W        W89628  20.142  19.759   5.168
30335W        W89629  39.505   9.690  11.398
30336W        W89630  33.590  42.004   0.335
30337W        W89631  16.794  26.973   0.299
30338W        W89632  16.283   2.731  12.520
30339W        W89633   0.401   9.664   3.689
30340W        W89634  41.503  17.583  12.093
30341W        W89635  42.384  28.442  12.488
30342W        W89636  14.244  28.023   0.273
30343W        W89637   4.440  38.908   4.225
30344W        W89638  35.467  20.137  13.465
30345W        W89639  13.638  12.651  13.824
30346W        W89640   5.869  32.969   1.707
30347W        W89641  33.877  17.208  11.052
30348W        W89642   2.862  27.123  14.774
30349W        W89643  38.536  25.640  14.512
30350W        W89644   8.830  28.054  14.810
30351W        W89645  30.953  28.162  12.091
30352W        W89646  27.955   2.279  14.337
30353W        W89647  21.140  24.110   1.868
30354W        W89648   1.800  18.706  11.396
30355W        W89649  28.968  15.651  11.943
30356W        W89650  43.378  28.082   4.153
30357W        W89651   0.909  37.404   1.853
30358W        W89652   4.265  42.319   1.854
30359W        W89653  10.359  43.797   3.791
30360W        W89654   0.779  27.640  14.759
30361W        W89655  15.656  25.566   2.218
30362W        W89656  35.416   9.330  13.418
30363W        W89657   0.380   0.345  12.423
30364W        W89658  15.717  37.533  11.386
30365W        W89659  43.480   0.749   1.428
30366W        W89660  30.541  36.478  14.018
30367W        W89661   6.252   6.828  13.944
30368W        W89662  22.511   7.207  11.888
30369W        W89663  19.100  11.807  14.939
30370W        W89664  22.727   5.439   1.345
30371W        W89665  12.627  19.564   0.853
30372W        W89666  12.698  40.449  14.505
30373W        W89667  31.918   2.400  12.977
30374W        W89668  11.646   1.264   0.365
30375W        W89669  37.560  43.317   2.874
30376W        W89670  26.087  13.341   1.809
30377W        W89671  43.507  40.826  12.432
30378W        W89672  26.014  21.256   4.774
30379W        W89673  42.300  16.100   2.270
30380W        W89674  22.063  22.043   3.792
30381W        W89675  32.629  17.167  14.326
30382W        W89676   7.757  28.593  11.955
30383W        W89677   9.764  38.431  13.937
30384W        W89678  16.205  34.916   4.187
30385W        W89679  35.866   5.722   1.239
30386W        W89680  25.562  26.621  11.492
30387W        W89681   6.902  22.661  12.449
30388W        W89682  32.039  20.549  10.994
30389W        W89683   5.292   4.313   1.869
30390W        W89684   6.220  37.922  12.047
30391W        W89685  33.915  33.526  10.473
30392W        W89686   1.748  42.853   4.835
30393W        W89687  44.328  17.235   3.758
30394W        W89688  16.813  10.635  13.363
30395W        W89689   1.250  15.191  10.525
30396W        W89690  36.973   8.864  14.804
30397W        W89691   2.368  32.551  13.803
30398W        W89692   9.368  11.136  10.599
30399W        W89693  17.171  22.130   4.281
30400W        W89694  35.415  13.720  10.424
30401W        W89695  31.462   9.861  10.435
30402W        W89696  33.435  40.497  10.596
30403W        W89697  16.157  27.114  12.462
30404W        W89698  12.807  37.018  14.885
30405W        W89699  42.819  37.067  10.917
30406W        W89700   0.747   5.688   3.655
30407W        W89701   5.860  25.561   4.698
30408W        W89702  15.088  31.133   3.658
30409W        W89703  19.588   8.875   4.229
30410W        W89704  40.893  34.382  14.438
30411W        W89705   3.293   3.913   3.166
30412W        W89706  26.076  43.786   0.903
30413W        W89707  23.684  34.003  12.483
30414W        W89708  27.161  16.314   2.675
30415W        W89709  20.561  30.995   2.312
30416W        W89710   2.731   0.855   0.870
30417W        W89711  31.643   8.383  13.955
30418W        W89712  42.894   7.670  13.836
30419W        W89713   6.242  14.747  10.990
30420W        W89714  18.199  16.129  10.628
30421W        W89715   8.811  13.671   3.815
30422W        W89716  39.419   8.807   4.251
30423W        W89717  29.081  26.464  10.971
30424W        W89718   9.818   6.387   0.842
30425W        W89719  21.545   0.851   2.777
30426W        W89720  41.358  16.740   4.618
30427W        W89721  26.522   1.381  13.007
30428W        W89722   0.771  13.639  14.882
30429W        W89723  13.634  10.220   2.262
30430W        W89724  17.126  24.695   1.910
30431W        W89725  16.659  17.727  14.900
30432W        W89726  13.727  22.635   1.812
30433W        W89727  10.676  20.219  11.373
30434W        W89728  15.165  42.510  12.339
30435W        W89729   5.429  36.570   4.600
30436W        W89730   3.802   3.332  11.096
30437W        W89731  30.593  40.849   4.191
30438W        W89732  12.749  42.818   2.751
30439W        W89733  38.325  21.539  10.929
30440W        W89734  39.005  33.527   4.636
30441W        W89735  23.079  38.853  14.291
30442W        W89736  20.208   0.343  13.379
30443W        W89737  44.286   0.807   3.274
30444W        W89738  42.514   2.443  11.021
30445W        W89739  15.197   9.807  13.841
30446W        W89740  34.891  21.716   4.142
30447W        W89741  41.971  33.612  14.999
30448W        W89742   6.721   3.359  12.069
30449W        W89743   3.322  30.034   4.806
30450W        W89744  28.933   0.855  13.345
30451W        W89745  41.402  36.875   0.852
30452W        W89746   0.281  16.226   4.195
30453W        W89747  23.991  11.846   1.391
30454W        W89748  14.190   7.706  11.005
30455W        W89749  30.045   2.247  14.820
30456W        W89750  14.160  24.702   2.204
30457W        W89751  32.422  14.833   1.906
30458W        W89752  11.771  33.130  12.832
30459W        W89753  24.193  33.975   0.859
30460W        W89754  24.029   1.263  12.063
30461W        W89755  31.119  42.882   2.397
30462W        W89756   4.314  12.830   4.815
30463W        W89757   7.389  11.241   1.917
30464W        W89758  14.624  27.124   2.229
30465W        W89759  18.288   6.295  11.062
30466W        W89760   5.778  38.467   2.839
30467W        W89761   0.939  12.712  14.298
30468W        W89762   1.958   4.720   1.882
30469W        W89763  21.047  30.580  12.874
30470W        W89764  40.878  21.623   3.865
30471W        W89765   3.435  35.439   3.145
30472W        W89766  34.063  32.977  14.490
30473W        W89767  12.121  41.828  12.019
30474W        W89768  23.616  29.147   1.705
30475W        W89769   4.387   3.734  13.458
30476W        W89770  15.119   7.313   0.750
30477W        W89771  42.022  31.964  12.551
30478W        W89772  43.956  23.147  10.509
30479W        W89773  38.982  42.953  12.972
30480W        W89774  35.993  12.145  11.052
30481W        W89775  13.741   6.739  11.601
30482W        W89776  40.948  31.952  14.019
30483W        W89777  27.079  35.389   3.332
30484W        W89778  35.096  44.482   4.198
30485W        W89779  27.006   1.837   2.878
30486W        W89780  23.163   4.223  10.611
30487W        W89781  38.935  10.824  12.449
30488W        W89782  34.908   4.916   2.727
30489W        W89783  36.052  14.096  14.908
30490W        W89784  17.069  26.591  14.780
30491W        W89785  11.350   5.834  11.940
30492W        W89786  30.625  20.245   0.940
30493W        W89787  23.638  26.179   0.806
30494W        W89788   6.335   7.666   4.765
30495W        W89789  20.544  43.009   3.289
30496W        W89790   8.287   6.304   0.392
30497W        W89791   6.807  40.329  12.904
30498W        W89792  33.888   1.894  14.010
30499W        W89793  14.707  24.631  14.876
30500W        W89794   4.246  34.103  10.980
30501W        W89795  33.936  29.101   0.464
30502W        W89796  11.733  18.111  14.454
30503W        W89797  38.375  24.042   4.683
30504W        W89798   2.353   3.359   2.410
30505W        W89799  43.421   8.898   4.759
30506W        W89800  27.598  39.990   2.191
30507W        W89801  15.288  24.134   4.216
30508W        W89802  18.677  33.623  12.468
30509W        W89803  10.342  22.231   1.759
30510W        W89804  13.787  37.055  12.472
30511W        W89805  20.753  34.011   0.924
30512W        W89806  24.169   7.892   9.604
30513W        W89807  20.762  21.578  13.531
30514W        W89808   3.819   2.824   3.742
30515W        W89809  25.477  38.519   0.288
30516W        W89810  36.959   5.266   1.359
30517W        W89811  40.514  38.368  10.940
30518W        W89812   2.296  26.587  12.024
30519W        W89813  22.068  18.669   4.830
30520W        W89814  10.874  13.681  12.415
30521W        W89815  27.530  16.739  13.809
30522W        W89816  25.164  37.495   4.288
30523W        W89817  31.966  30.562   2.813
30524W        W89818  34.602  25.092   2.719
30525W        W89819  10.181   9.778  10.933
30526W        W89820  26.483   6.241   4.311
30527W        W89821  40.424  43.018  13.451
30528W        W89822  34.494  18.654  11.583
30529W        W89823  43.838  22.703  12.535
30530W        W89824  41.937  10.330   1.862
30531W        W89825  22.677  40.397   2.212
30532W        W89826  22.736  40.490   5.108
30533W        W89827  25.568  33.400   4.286
30534W        W89828  21.749  27.124  11.098
30535W        W89829  18.780   3.714   4.699
30536W        W89830  25.165  20.163  12.412
30537W        W89831  44.459  11.867  11.573
30538W        W89832  28.944  29.918   3.762
30539W        W89833   0.446  38.006  10.503
30540W        W89834  30.151   9.836  10.620
30541W        W89835   7.851  38.355  13.380
30542W        W89836   6.735  31.571   1.913
30543W        W89837  31.145   5.756   4.742
30544W        W89838  15.260  43.919  14.491
30545W        W89839   1.815  17.261  14.395
30546W        W89840  14.605   9.320   1.363
30547W        W89841  28.025  15.796   1.852
30548W        W89842  12.206  17.761   0.409
30549W        W89843   9.791  31.456  12.051
30550W        W89844  36.589  23.156   3.767
30551W        W89845  44.389  37.356   3.761
30552W        W89846  23.161   6.272   4.738
30553W        W89847  42.779  31.015   5.320
30554W        W89848  13.734  36.492   1.935
30555W        W89849  36.547  27.984   3.167
30556W        W89850  19.095  31.460  14.962
30557W        W89851  34.918  12.668   0.805
30558W        W89852  16.678  23.205  11.063
30559W        W89853   7.213  39.552  13.837
30560W        W89854   2.873  20.097   0.384
30561W        W89855  31.145  10.818   4.783
30562W        W89856   5.831  27.156  10.489
30563W        W89857  15.098  39.489   0.314
30564W        W89858  33.989  30.464   3.639
30565W        W89859  31.013  22.602   2.717
30566W        W89860  32.887  15.611  12.378
30567W        W89861  44.497  20.720   0.946
30568W        W89862  29.098  34.109  14.984
30569W        W89863   5.908  29.009   2.878
30570W        W89864  34.104  38.416  13.413
30571W        W89865  17.294  21.242  13.399
30572W        W89866  44.311  33.422  13.498
30573W        W89867  44.446  41.918   3.815
30574W        W89868  18.149  17.732  13.063
30575W        W89869  17.758   6.351  13.358
30576W        W89870  22.647  15.765  10.007
30577W        W89871  33.440   6.354  12.923
30578W        W89872  21.686  19.178   3.717
30579W        W89873   7.371  44.375  11.856
30580W        W89874  22.541   2.375   4.299
30581W        W89875  16.608  25.656  12.832
30582W        W89876  12.116  25.620   0.920
30583W        W89877  34.396  30.159   0.363
30584W        W89878   7.727  40.943  14.455
30585W        W89879  23.013  32.408  14.813
30586W        W89880  28.182  13.740  14.850
30587W        W89881  17.667  22.683   0.420
30588W        W89882  35.472  37.453   1.894
30589W        W89883  17.203  41.945  12.997
30590W        W89884  13.828  35.092   0.852
30591W        W89885  29.973  42.336   5.617
30592W        W89886  38.837   9.824   2.208
30593W        W89887   8.719  38.430   2.303
30594W        W89888  18.271  11.812  13.791
30595W        W89889  27.448  35.990  10.092
30596W        W89890  11.760  39.481  10.507
30597W        W89891  43.007  38.835   5.315
30598W        W89892  30.924  11.649   0.909
30599W        W89893  29.005  29.520   0.443
30600W        W89894  25.624   2.283  10.459
30601W        W89895  12.178  43.278  12.019
30602W        W89896  28.558   7.819   3.750
30603W        W89897  36.439  40.913   2.888
30604W        W89898  29.438  28.111   1.324
30605W        W89899  19.184  28.157  14.510
30606W        W89900  43.385  40.399   1.426
30607W        W89901   8.779  28.510  10.413
30608W        W89902  25.188  30.478  11.502
30609W        W89903   5.244   5.201  11.081
30610W        W89904  17.586  10.809  12.988
30611W        W89905  39.025  31.064  13.525
30612W        W89906  37.013  14.220  14.934
30613W        W89907  35.467  42.378   4.295
30614W        W89908  35.039  44.966  13.853
30615W        W89909  26.498  24.489  14.376
30616W        W89910  33.972   7.288   3.763
30617W        W89911  11.372  34.534  10.483
30618W        W89912  13.351  10.374  10.139
30619W        W89913  29.975  31.586   1.225
30620W        W89914   5.766  24.115   2.387
30621W        W89915  25.683  38.420  14.901
30622W        W89916  42.286  33.393   0.395
30623W        W89917  36.013  39.492  11.980
30624W        W89918  32.008  40.934   4.353
30625W        W89919  24.479  32.023   1.849
30626W        W89920  11.755  43.867   2.730
30627W        W89921  21.738  29.158   4.603
30628W        W89922  16.784  19.713  14.459
30629W        W89923  35.375  21.106   4.233
30630W        W89924   6.420   5.860  13.799
30631W        W89925  42.440  41.432   0.458
30632W        W89926  42.496  16.704  12.988
30633W        W89927  13.149   4.404  13.867
30634W        W89928   6.691   0.353   2.696
30635W        W89929  28.507  22.105   2.749
30636W        W89930  31.070  41.795  12.877
30637W        W89931  33.057  12.192  13.968
30638W        W89932   1.404  22.159   3.213
30639W        W89933  34.601  34.564   1.860
30640W        W89934  30.470  27.184   4.310
30641W        W89935   4.374  44.412  14.284
30642W        W89936  17.594  10.155  11.931
30643W        W89937   2.354  17.763   1.386
30644W        W89938  14.297  30.002  14.280
30645W        W89939  36.381  17.099   0.386
30646W        W89940  11.336  20.768   4.682
30647W        W89941  25.684  17.769  10.947
30648W        W89942  44.457  28.185   2.686
30649W        W89943  16.172  29.103  14.960
30650W        W89944  25.103   3.910   0.458
30651W        W89945  40.927  36.534  14.401
30652W        W89946  40.366   2.948  11.873
30653W        W89947   5.812  17.715   4.150
30654W        W89948   6.236  43.924   3.705
30655W        W89949   0.326   8.790   4.769
30656W        W89950  13.235  32.894   1.429
30657W        W89951   6.815   4.784   1.819
30658W        W89952  31.561   3.915   0.299
30659W        W89953  31.557  42.780   1.885
30660W        W89954  14.234  18.729  12.549
30661W        W89955  42.408  41.502   2.212
30662W        W89956  24.528  36.587  12.931
30663W        W89957  18.211  25.102   4.166
30664W        W89958  17.746  24.000   3.361
30665W        W89959  23.212   3.424  13.310
30666W        W89960   9.307  34.113  14.366
30667W        W89961  29.538  30.928   4.721
30668W        W89962   7.331  18.778   0.743
30669W        W89963  18.625  19.252  10.404
30670W        W89964  43.504  32.431  12.948
30671W        W89965  15.684   9.191  13.003
30672W        W89966   5.247  19.633   0.777
30673W        W89967  28.151  12.258  10.912
30674W        W89968   2.751  43.797  13.983
30675W        W89969   4.309  40.038   0.918
30676W        W89970   6.683  22.643   5.580
30677W        W89971  18.571  33.968  10.956
30678W        W89972  31.466  40.801   0.943
30679W        W89973  19.655  42.888   2.714
30680W        W89974  22.735  12.837   4.759
30681W        W89975  23.140  30.416   1.278
30682W        W89976  14.135  12.314   1.698
30683W        W89977  20.206  35.922   4.216
30684W        W89978  31.612  27.958   4.759
30685W        W89979  25.653   5.879  10.632
30686W        W89980  39.946   4.872   4.698
30687W        W89981  35.512  37.392   2.800
30688W        W89982  27.554  36.518  13.342
30689W        W89983   2.252  28.956  12.391
30690W        W89984   5.930  17.678  11.909
30691W        W89985  23.207   4.419  13.914
30692W        W89986   5.709  43.333  13.427
30693W        W89987  40.320   9.316   3.770
30694W        W89988  15.087  42.906  14.862
30695W        W89989  17.105   3.223  14.419
30696W        W89990  20.094  10.171  10.417
30697W        W89991  29.591  24.532   1.378
30698W        W89992  43.485  11.270  14.767
30699W        W89993  37.967  22.185   3.246
30700W        W89994  10.769  41.342  11.527
30701W        W89995  20.270  19.064   4.152
30702W        W89996  18.591  44.995   0.778
30703W        W89997  15.624  20.063  14.845
30704W        W89998  32.914  39.917  13.010
30705W        W89999   6.719  38.346  14.962
30706W        W90000  28.038   3.888   0.245
30707W        W90001  32.026  11.226   2.285
30708W        W90002  18.088  10.346  11.000
30709W        W90003  28.110  41.014   1.834
30710W        W90004  30.413  44.314  11.020
30711W        W90005  31.017  41.308  13.467
30712W        W90006  14.132  38.373  14.906
30713W        W90007  39.889  42.959   3.324
30714W        W90008   9.839  29.445  14.498
30715W        W90009  37.873  14.294   1.361
30716W        W90010  21.057  38.433  12.830
30717W        W90011   5.213  27.457  14.003
30718W        W90012  40.860  40.370  12.403
30719W        W90013  12.142  25.662  13.398
30720W        W90014  32.530  25.669  14.370
30721W        W90015  16.164  38.325   1.236
30722W        W90016  25.538  27.681  14.492
30723W        W90017  40.840  23.242   2.279
30724W        W90018  17.176  27.691   2.734
30725W        W90019  24.512  38.049  10.951
30726W        W90020  31.987   1.749  13.887
30727W        W90021  22.206  39.419  11.888
30728W        W90022  20.683   4.740  13.956
30729W        W90023  22.622  11.352   1.243
30730W        W90024  33.491  29.033  11.560
30731W        W90025   0.382   8.197   3.838
30732W        W90026  21.571   1.435   2.212
30733W        W90027  23.678  41.485   1.369
30734W        W90028  11.860   7.406  11.078
30735W        W90029  36.539  41.871  12.493
30736W        W90030  40.826   4.329  12.443
30737W        W90031  27.492  31.597   2.186
30738W        W90032  42.876  37.861   3.806
30739W        W90033   6.343  39.487   3.224
30740W        W90034  11.758  10.743   2.416
30741W        W90035  21.035   9.879  10.634
30742W        W90036  32.535   8.168  14.314
30743W        W90037  27.547  14.736   1.293
30744W        W90038  27.591  43.304   0.838
30745W        W90039  24.708   2.398  13.486
30746W        W90040  35.490  26.072  12.566
30747W        W90041  33.421  40.532   3.299
30748W        W90042  19.279   4.356  14.937
30749W        W90043  30.587  12.683   3.778
30750W        W90044  20.260  16.613  11.433
30751W        W90045  18.654   3.828   1.390
30752W        W90046  19.236  36.856  12.955
30753W        W90047   5.417   3.355  14.498
30754W        W90048  16.130  38.405   0.449
30755W        W90049  12.634  34.883  10.949
30756W        W90050   7.790   0.930   2.733
30757W        W90051  38.438   3.458  14.954
30758W        W90052  13.229  35.069  13.504
30759W        W90053   3.265  37.943  13.830
30760W        W90054  20.698  27.690  10.894
30761W        W90055  33.553  37.425   1.442
30762W        W90056  18.661   6.305   4.317
30763W        W90057  34.890  10.302  11.486
30764W        W90058  17.094  25.593  10.498
30765W        W90059  39.375  25.122   3.323
30766W        W90060   8.376  16.689  14.281
30767W        W90061  41.962  34.497  11.547
30768W        W90062  41.039  15.211  10.532
30769W        W90063  31.433  11.819   0.800
30770W        W90064  38.401  28.070  13.996
30771W        W90065  18.196  43.943  13.924
30772W        W90066  39.539   6.869   1.785
30773W        W90067  43.011  35.099  13.452
30774W        W90068  25.167  30.022   3.689
30775W        W90069  37.352   9.230  12.411
30776W        W90070  28.140  22.101  12.388
30777W        W90071   6.685  43.365   0.820
30778W        W90072  43.837  43.366   1.892
30779W        W90073  36.357  23.683  12.888
30780W        W90074  24.696  21.637  11.561
30781W        W90075   9.186  26.573  11.035
30782W        W90076  19.558  28.437  10.608
30783W        W90077  44.906   7.824  11.922
30784W        W90078  30.046   6.189  11.501
30785W        W90079   1.260  16.288  13.034
30786W        W90080  34.080  10.843   0.433
30787W        W90081  26.135   3.889   2.824
30788W        W90082  13.345  27.168   0.413
30789W        W90083  17.163  42.313  14.407
30790W        W90084  40.549  40.957   3.656
30791W        W90085  42.009  27.039  13.426
30792W        W90086  20.101   3.421  12.024
30793W        W90087  32.472  37.521   4.258
30794W        W90088  31.026   2.308  13.960
30795W        W90089  16.271   8.191   4.267
30796W        W90090  33.619  39.000   0.366
30797W        W90091  37.836  28.517  11.927
30798W        W90092  15.693   5.260  13.523
30799W        W90093   3.337   3.317   5.239
30800W        W90094  30.030  27.158   1.440
30801W        W90095  34.556  11.622  14.020
30802W        W90096  37.052  17.744   3.326
30803W        W90097   4.772  29.036   0.893
30804W        W90098  25.988  13.312   2.231
30805W        W90099  36.955   8.195  14.288
30806W        W90100   1.403  40.418  13.370
30807W        W90101   4.783  37.064   5.107
30808W        W90102  34.496  11.649  11.531
30809W        W90103   0.881  25.697   4.685
30810W        W90104  41.531   2.929   4.279
30811W        W90105  36.882   0.764  13.858
30812W        W90106  35.358  21.159   3.663
30813W        W90107   7.821  18.652   2.404
30814W        W90108   5.782  22.593  11.383
30815W        W90109   2.294   8.230  10.524
30816W        W90110  14.196  32.105  13.041
30817W        W90111  22.586  33.960   1.272
30818W        W90112  20.153  16.727  14.832
30819W        W90113  36.564  33.609   1.381
30820W        W90114  22.521  36.502  10.146
30821W        W90115  20.729  20.239   1.733
30822W        W90116  19.737  20.238   2.856
30823W        W90117   1.732   2.458   1.390
30824W        W90118  26.124   4.219  11.068
30825W        W90119  19.703  34.422   1.759
30826W        W90120  42.458   1.283  14.398
30827W        W90121  35.087  10.147  11.900
30828W        W90122   7.210   9.392   1.800
30829W        W90123  24.991   3.874  14.011
30830W        W90124   0.322   7.751  14.360
30831W        W90125  15.175  26.544  12.973
30832W        W90126  39.518  19.187   2.897
30833W        W90127  36.904   6.224   0.927
30834W        W90128  19.242  34.974   3.751
30835W        W90129  31.081  43.008  13.413
30836W        W90130  39.502  20.554  12.384
30837W        W90131   4.740  15.652  12.925
30838W        W90132   8.859  29.450  12.933
30839W        W90133  16.247  26.094   0.954
30840W        W90134   0.842  11.799  14.997
30841W        W90135  11.147  18.189   0.797
30842W        W90136  22.017  37.350  14.403
30843W        W90137  11.191   2.258  13.432
30844W        W90138  14.726   0.476  11.865
30845W        W90139  26.542   1.334   3.822
30846W        W90140  42.420  34.119   1.787
30847W        W90141  18.636  30.064  14.324
30848W        W90142  10.210  18.160   9.934
30849W        W90143  31.915   7.805   0.789
30850W        W90144  37.924  35.969   0.805
30851W        W90145   6.822  39.833   0.820
30852W        W90146  11.365  32.078   2.316
30853W        W90147  12.681  29.981   1.918
30854W        W90148  36.586  18.058   9.936
30855W        W90149  14.767  16.210   3.704
30856W        W90150  26.003  32.539  11.384
30857W        W90151  36.900  41.010   4.131
30858W        W90152  34.552  40.953   0.949
30859W        W90153  36.557  11.634  12.387
30860W        W90154  26.483   3.860   3.386
30861W        W90155  35.962  22.099   3.631
30862W        W90156   9.739  37.919   4.331
30863W        W90157   2.945   1.415  13.371
30864W        W90158  25.671  11.754  11.952
30865W        W90159  26.159  13.185  14.929
30866W        W90160  37.910  14.304   4.325
30867W        W90161  39.473   0.397   3.782
30868W        W90162  28.613  13.636  12.834
30869W        W90163  44.903  27.519   2.662
30870W        W90164  42.843  29.047  11.571
30871W        W90165   0.942   3.434   2.216
30872W        W90166  28.100  32.942  10.065
30873W        W90167  43.481  10.170   3.833
30874W        W90168   7.844   2.830   4.177
30875W        W90169  31.535  35.484   2.280
30876W        W90170   5.922  15.171   0.838
30877W        W90171  42.413  20.051  14.339
30878W        W90172  42.019  18.681  14.332
30879W        W90173  34.452  31.145   2.686
30880W        W90174  34.437  38.048   3.836
30881W        W90175   5.250   1.303   2.794
30882W        W90176  41.025   4.735  11.585
30883W        W90177  14.325  42.890  14.352
30884W        W90178   7.191  36.039  14.312
30885W        W90179   2.898   0.358   3.811
30886W        W90180  12.357  17.567   3.840
30887W        W90181  22.026  12.248   0.447
30888W        W90182  20.528   8.283   3.753
30889W        W90183   0.836  28.177   5.249
30890W        W90184  35.929   2.883  14.995
30891W        W90185  11.803  29.482   0.891
30892W        W90186  19.675  14.589  11.007
30893W        W90187  18.134  20.721   2.721
30894W        W90188   7.894   3.397   4.283
30895W        W90189  22.129  44.823   2.677
30896W        W90190  39.464   8.852  10.541
30897W        W90191  24.569  35.374   2.231
30898W        W90192  28.935  10.659  13.846
30899W        W90193  15.197  21.166   0.853
30900W        W90194  21.601  40.798   3.856
30901W        W90195  12.343  17.557   2.238
30902W        W90196  44.779   8.276   3.849
30903W        W90197  29.955  10.874   1.213
30904W        W90198  44.345  12.638  12.437
30905W        W90199  14.666  27.653  13.484
30906W        W90200  22.539  43.389   4.657
30907W        W90201  17.605  32.132   1.368
30908W        W90202   7.898  25.007  12.865
30909W        W90203  16.589  13.280   2.789
30910W        W90204  40.373   3.864   2.732
30911W        W90205  11.129  35.397  14.382
30912W        W90206  19.655  15.154   3.647
30913W        W90207  36.009  10.150  14.008
30914W        W90208  31.445  44.368   1.266
30915W        W90209  10.358   9.852   4.267
30916W        W90210   7.748  15.696   2.748
30917W        W90211  15.094  44.324  12.876
30918W        W90212   1.874  39.507  12.876
30919W        W90213   7.244  15.793  12.425
30920W        W90214   3.247  29.970   1.263
30921W        W90215  36.027  10.700  13.510
30922W        W90216  40.980   6.210   2.703
30923W        W90217  19.213  11.189  10.043
30924W        W90218  25.056   9.881   5.743
30925W        W90219  10.787  31.960  12.987
30926W        W90220   7.853  27.597   4.815
30927W        W90221  32.474  30.498  11.955
30928W        W90222   9.790  13.690   2.725
30929W        W90223  12.320  25.193   2.237
30930W        W90224   7.741  40.310   1.778
30931W        W90225  38.028  34.001  12.438
30932W        W90226   8.383  21.522   2.217
30933W        W90227   7.380  18.157  13.311
30934W        W90228  11.833  38.979  12.490
30935W        W90229   0.988  12.156   1.310
30936W        W90230  13.760   5.798  14.831
30937W        W90231  12.684  16.211  11.860
30938W        W90232  33.042  11.297  14.358
30939W        W90233  15.680  34.609   2.260
30940W        W90234  13.604   0.404  14.483
30941W        W90235  34.500  32.488  12.009
30942W        W90236  35.000   7.247   4.670
30943W        W90237  23.074  12.680   4.713
30944W        W90238  40.393  15.710  10.994
30945W        W90239  22.082  43.983   0.366
30946W        W90240  15.225  18.083  13.384
30947W        W90241  28.458  41.874  14.377
30948W        W90242   1.475  34.478  11.606
30949W        W90243  28.016  20.231   2.875
30950W        W90244  19.043  39.930   0.257
30951W        W90245  25.025  11.848   3.226
30952W        W90246  38.842  39.871   0.453
30953W        W90247  12.225  32.609  13.425
30954W        W90248  34.497  15.639   2.354
30955W        W90249  42.940  24.570  13.411
30956W        W90250   1.391  42.525   0.776
30957W        W90251  34.109  11.136  13.537
30958W        W90252   7.798  11.354   3.822
30959W        W90253  42.484  24.130   3.153
30960W        W90254  33.418   5.775   2.410
30961W        W90255  27.517  22.065  14.970
30962W        W90256  39.022  25.058  12.387
30963W        W90257   8.828  15.107  13.334
30964W        W90258  20.551   5.220  14.306
30965W        W90259  32.492  14.778   4.650
30966W        W90260  24.663  42.355   4.273
30967W        W90261  29.103  41.382   3.789
30968W        W90262   9.837   6.835   2.322
30969W        W90263  19.208  15.328  14.992
30970W        W90264   3.337  38.397  12.398
30971W        W90265  20.253  24.492   3.312
30972W        W90266   2.245  27.956  14.427
30973W        W90267  32.393  42.397   1.742
30974W        W90268  11.326  25.667  12.915
30975W        W90269  26.591  25.182  13.512
30976W        W90270  40.908  43.463  14.337
30977W        W90271  32.930  41.876  13.802
30978W        W90272  20.758  14.682  11.957
30979W        W90273  26.089  27.604   0.438
30980W        W90274  41.462  43.784  10.025
30981W        W90275   2.900  16.616   2.249
30982W        W90276  38.827   4.212   4.306
30983W        W90277   5.811   2.830   2.315
30984W        W90278  27.662  17.243   4.245
30985W        W90279  39.984   7.886  10.634
30986W        W90280   7.271  36.059   3.706
30987W        W90281  44.972  43.913  13.810
30988W        W90282  27.102  31.057   1.409
30989W        W90283  26.673  38.043  14.989
30990W        W90284  22.016  24.480   4.138
30991W        W90285   2.742  37.891  12.480
30992W        W90286  24.157  38.339  12.926
30993W        W90287  40.978  29.596  14.310
30994W        W90288  40.849  40.817   3.803
30995W        W90289  42.964  27.175  14.384
30996W        W90290  40.433  18.175   3.719
30997W        W90291  22.740   6.385   3.814
30998W        W90292  37.461  12.714   4.772
30999W        W90293  42.338   7.875   1.837
31000W        W90294  44.929  34.077   2.729
31001W        W90295  24.558   3.361   4.121
31002W        W90296   2.334  25.020  13.435
31003W        W90297  43.324  11.317  13.925
31004W        W90298  26.005  40.436  11.453
31005W        W90299  23.001  24.986   3.852
31006W        W90300  18.603   8.820  10.440
31007W        W90301   8.803  43.495  11.599
31008W        W90302   8.364  26.615   1.364
31009W        W90303  22.073   2.389  14.935
31010W        W90304  27.469  44.330  11.392
31011W        W90305   6.310  25.146   1.307
31012W        W90306   8.361  25.967  11.521
31013W        W90307   8.337  17.217  14.431
31014W        W90308  18.175  14.709   0.409
31015W        W90309   5.373  38.869   4.775
31016W        W90310   0.493  23.039   2.281
31017W        W90311  38.349  25.691  13.920
31018W        W90312  33.460   9.205  10.895
31019W        W90313  12.227  13.220   2.399
31020W        W90314  44.326   8.333   1.288
31021W        W90315  20.040   6.757   1.902
31022W        W90316  16.219  14.096   4.798
31023W        W90317  26.968  16.631  14.940
31024W        W90318  23.081   1.476  11.085
31025W        W90319  40.474   0.387  10.011
31026W        W90320  27.679  23.231  13.517
31027W        W90321  38.464  26.199   2.809
31028W        W90322  29.659   9.182  13.881
31029W        W90323  44.463   7.858   2.710
31030W        W90324  32.956  30.527   2.205
31031W        W90325  33.985  13.802   0.823
31032W        W90326  14.766  10.700  11.998
31033W        W90327  39.403  26.147  14.018
31034W        W90328  22.613  20.228   4.758
31035W        W90329  42.406   8.235  14.394
31036W        W90330  39.064  44.870  11.525
31037W        W90331   2.867  36.377  12.851
31038W        W90332  42.917  39.359  12.426
31039W        W90333  29.639   2.384   3.248
31040W        W90334  35.499  27.533   3.767
31041W        W90335   7.693  14.278   3.253
31042W        W90336  11.770  28.929  14.936
31043W        W90337  20.563  33.064   2.855
31044W        W90338  12.117  25.648   3.215
31045W        W90339  16.708  40.878  14.293
31046W        W90340   7.299  27.116   1.747
31047W        W90341  16.573  16.742   3.243
31048W        W90342  32.513  19.606  10.120
31049W        W90343  16.185  41.972   2.865
31050W        W90344  20.207   5.705  10.534
31051W        W90345   5.803  18.591  14.386
31052W        W90346  31.416  39.444  14.376
31053W        W90347  16.606  20.239   0.899
31054W        W90348  30.650   8.404  14.923
31055W        W90349  24.698  14.214   0.481
31056W        W90350   6.687   3.295   0.791
31057W        W90351  38.450   8.229   1.745
31058W        W90352  20.722  35.427  12.999
31059W        W90353  44.420  37.061   2.385
31060W        W90354  14.172  31.592  12.986
31061W        W90355   7.843  41.422  13.487
31062W        W90356  44.497  17.646  10.622
31063W        W90357  35.999  28.958   2.779
31064W        W90358  27.534  13.143  14.363
31065W        W90359  21.215   0.413  10.981
31066W        W90360  10.321  32.505   3.272
31067W        W90361  40.811  11.855   4.250
31068W        W90362  26.688  25.615   2.186
31069W        W90363  40.310  34.478   0.871
31070W        W90364   4.396  12.773  11.566
31071W        W90365  40.536  35.875  13.807
31072W        W90366  22.718  33.037  13.411
31073W        W90367   4.371  24.552  10.951
31074W        W90368  36.497  24.139  10.145
31075W        W90369  40.358  30.517  12.943
31076W        W90370  27.533   9.249  14.781
31077W        W90371  32.982  14.593  10.596
31078W        W90372   1.260  14.312   0.770
31079W        W90373  32.546  42.442  11.446
31080W        W90374  12.841   0.428   4.158
31081W        W90375  26.539  33.556  13.539
31082W        W90376  29.970  24.503   3.837
31083W        W90377  21.261   6.830  14.378
31084W        W90378   7.241  34.014  14.910
31085W        W90379  40.935  42.398  13.309
31086W        W90380  20.247   1.310   3.759
31087W        W90381  30.097  22.171   1.908
31088W        W90382  15.676  23.218   3.183
31089W        W90383  13.255  37.931  14.858
31090W        W90384  22.192  35.386   3.750
31091W        W90385  10.205  21.641   9.991
31092W        W90386   9.772  44.787  12.507
31093W        W90387  44.312   7.727  14.487
31094W        W90388   4.882   8.670   3.384
31095W        W90389   4.784  23.512   1.391
31096W        W90390  26.169  42.948  14.334
31097W        W90391   8.784   9.320   0.370
31098W        W90392  11.761  20.176   2.703
31099W        W90393  28.509   9.277   4.136
31100W        W90394   1.336  20.650  13.051
31101W        W90395  37.870  43.767   2.386
31102W        W90396   8.897   5.289   3.150
31103W        W90397  11.752  22.199  13.827
31104W        W90398  26.646   9.685   3.858
31105W        W90399  35.516  28.929   0.378
31106W        W90400  17.741  18.250  12.438
31107W        W90401  20.595  18.689   3.311
31108W        W90402   2.282  22.570   4.172
31109W        W90403  21.568  34.987  13.501
31110W        W90404  43.779  15.303   4.133
31111W        W90405  14.117   8.704   4.751
31112W        W90406  44.980  24.150   3.754
31113W        W90407  23.015  21.595  11.931
31114W        W90408  21.192   5.923   2.747
31115W        W90409  23.567  36.922   4.298
31116W        W90410  24.665  29.026  11.584
31117W        W90411   7.759  38.014  11.534
31118W        W90412   4.274  36.086   0.772
31119W        W90413  22.628  12.196  12.056
31120W        W90414  10.282  32.960  13.055
31121W        W90415  13.808  17.776  11.459
31122W        W90416   1.742   4.403  14.509
31123W        W90417  24.530   1.253  13.455
31124W        W90418  29.650   7.176   3.170
31125W        W90419  13.213  28.601  11.857
31126W        W90420  10.792  34.942   3.206
31127W        W90421  14.291  18.082  10.528
31128W        W90422  44.881  26.488  11.076
31129W        W90423  10.205  17.161   2.839
31130W        W90424   1.903  41.027   1.722
31131W        W90425  42.973  12.136   4.149
31132W        W90426  44.983  39.379   2.813
31133W        W90427  44.852  40.444   4.669
31134W        W90428   1.912  11.713  13.013
31135W        W90429   2.786  35.861   2.377
31136W        W90430  27.489  10.168   3.215
31137W        W90431  26.065  32.124   3.215
31138W        W90432  33.519  27.469   1.740
31139W        W90433  10.732  35.965   4.342
31140W        W90434  21.120   3.804   4.121
31141W        W90435   2.299   5.418   0.916
31142W        W90436   1.909  10.810   1.292
31143W        W90437  40.418  21.705   0.363
31144W        W90438  25.507  29.471  14.947
31145W        W90439  29.667  20.682  13.442
31146W        W90440  36.853  31.606   9.945
31147W        W90441   4.735   9.268   2.232
31148W        W90442  11.330  10.638  10.913
31149W        W90443  24.061  43.302   0.362
31150W        W90444  25.065  14.125   0.763
31151W        W90445  28.664  30.532  12.358
31152W        W90446  40.533  35.946  11.388
31153W        W90447  43.304  35.538  12.508
31154W        W90448  41.313  44.859  10.940
31155W        W90449  17.105  33.116   4.693
31156W        W90450  14.816  29.477  12.518
31157W        W90451  26.628  30.613   1.740
31158W        W90452  34.476  23.530  10.634
31159W        W90453  29.920  43.309  10.938
31160W        W90454   1.460  17.732  12.837
31161W        W90455  14.637  38.912   3.222
31162W        W90456  14.276  35.951  13.370
31163W        W90457  33.938  38.009  11.112
31164W        W90458  41.001  20.736   2.418
31165W        W90459  27.085   1.424   3.191
31166W        W90460  14.654   4.408  13.838
31167W        W90461   9.396  40.517  11.373
31168W        W90462  28.493  29.611   1.800
31169W        W90463  21.555  14.150  14.872
31170W        W90464  29.004  21.076   4.663
31171W        W90465  13.108  14.123  13.489
31172W        W90466  16.581  43.386   0.916
31173W        W90467  25.971   1.881   4.665
31174W        W90468  39.820  42.399   4.629
31175W        W90469   5.877  25.178   4.792
31176W        W90470  14.798  36.097   4.782
31177W        W90471  15.776  30.093  13.938
31178W        W90472  12.264  44.766  10.532
31179W        W90473   8.396  28.187  10.477
31180W        W90474  32.916  22.088   0.743
31181W        W90475  11.201  23.733  13.514
31182W        W90476  30.918   7.716   0.462
31183W        W90477  23.586  29.573  14.974
31184W        W90478   9.165  25.095   3.736
31185W        W90479  32.095  20.541   2.349
31186W        W90480  30.438  33.500  13.539
31187W        W90481  13.272   8.381   3.793
31188W        W90482  11.636  22.132  10.625
31189W        W90483  25.030  23.728  14.986
31190W        W90484  23.236   0.755  13.396
31191W        W90485  15.191  26.703   4.316
31192W        W90486  28.590  30.510   4.208
31193W        W90487   7.349  32.116  10.426
31194W        W90488  39.494  12.133  11.530
31195W        W90489  25.155  12.211  14.296
31196W        W90490  43.841  44.879   1.861
31197W        W90491  24.042  22.550   1.716
31198W        W90492  28.072  40.324  11.991
31199W        W90493   1.417  35.097   2.847
31200W        W90494  20.625  39.888   2.732
31201W        W90495  16.677  31.600  10.470
31202W        W90496   9.344  42.395   0.312
31203W        W90497  27.511  15.258   1.785
31204W        W90498  17.244  25.581  13.391
31205W        W90499  12.170  23.620  14.986
31206W        W90500   9.376   0.458   9.541
31207W        W90501   6.204   7.332   0.424
31208W        W90502   6.745  31.925   5.608
31209W        W90503   2.462   2.804   2.207
31210W        W90504   1.249  44.998  13.850
31211W        W90505  15.236  38.075   3.312
31212W        W90506  35.552  20.250   2.193
31213W        W90507  20.665  18.624  14.765
31214W        W90508   8.365  32.515   5.298
31215W        W90509  19.115   8.761  14.456
31216W        W90510  39.897  12.176  14.981
31217W        W90511  22.565  25.009  12.941
31218W        W90512   6.813  29.958   3.648
31219W        W90513  32.568  27.688   0.812
31220W        W90514  22.041  40.334   1.725
31221W        W90515  40.350  37.976  12.883
31222W        W90516  33.948  33.049  14.860
31223W        W90517  33.969  16.579  12.499
31224W        W90518  44.360  19.651   1.776
31225W        W90519  18.680  39.517   0.253
31226W        W90520  34.014  13.652   2.779
31227W        W90521  19.175  33.503   1.846
31228W        W90522  16.746  24.141   0.816
31229W        W90523  43.866   2.768  14.787
31230W        W90524   9.764  25.091  14.307
31231W        W90525   7.830  31.094   0.921
31232W        W90526  39.356  11.322  14.354
31233W        W90527  24.055  10.295   0.330
31234W        W90528  27.136  40.838   3.839
31235W        W90529   0.493  15.686   3.820
31236W        W90530   3.343  13.268  11.536
31237W        W90531  44.877   0.411  12.969
31238W        W90532  10.367  35.477   4.191
31239W        W90533  17.195  28.567  10.479
31240W        W90534  37.568  15.701   1.440
31241W        W90535   6.206   8.728  13.390
31242W        W90536  15.302  44.373   1.841
31243W        W90537  23.239  21.115   3.159
31244W        W90538  30.049  10.800  13.476
31245W        W90539   8.697   6.401   3.661
31246W        W90540  11.350  26.626  14.003
31247W        W90541  32.630   8.736   4.169
31248W        W90542  10.807   0.331   0.334
31249W        W90543   7.825  40.959   0.770
31250W        W90544   6.378  37.489  13.999
31251W        W90545  28.997  30.586   1.774
31252W        W90546  34.477  23.213   2.359
31253W        W90547  19.214  10.268  14.897
31254W        W90548  11.326  34.898  13.494
31255W        W90549  21.036  15.811  12.546
31256W        W90550  20.211   4.398  13.988
31257W        W90551  30.560  39.057  12.872
31258W        W90552  22.136   5.760   4.309
31259W        W90553   0.768  26.999   2.235
31260W        W90554  36.539  42.344  13.013
31261W        W90555  28.066  25.615  11.376
31262W        W90556  41.004   3.371  11.504
31263W        W90557  14.723  40.800   3.752
31264W        W90558  40.005  27.984   1.212
31265W        W90559  34.472  14.317  13.871
31266W        W90560   7.178  42.025  14.952
31267W        W90561   0.273  19.654  11.967
31268W        W90562  12.185  19.088   3.263
31269W        W90563  13.165   0.950   1.856
31270W        W90564   4.862  44.932   1.730
31271W        W90565  30.442  42.002   3.734
31272W        W90566   6.800  33.010  12.383
31273W        W90567  29.614  11.128   1.781
31274W        W90568  26.964   7.739   0.838
31275W        W90569  18.674   2.308  13.379
31276W        W90570  24.481  44.769  14.489
31277W        W90571  32.011   8.240   0.941
31278W        W90572   0.838  20.659   2.677
31279W        W90573  35.867  34.018  10.529
31280W        W90574  41.474  10.188  14.460
31281W        W90575  12.321  20.260   2.802
31282W        W90576  38.423   9.257   3.297
31283W        W90577  15.116  10.865  13.976
31284W        W90578   2.937  26.961  13.047
31285W        W90579  24.011  22.252   4.113
31286W        W90580   3.295  35.961  12.344
31287W        W90581   8.739  40.351   2.336
31288W        W90582  16.641  28.117  10.544
31289W        W90583  10.775  22.696   3.223
31290W        W90584  37.013  16.190   3.312
31291W        W90585  10.729  21.064   0.751
31292W        W90586  24.677  44.283  12.518
31293W        W90587  25.554  32.999   2.855
31294W        W90588  39.490  41.872   0.864
31295W        W90589  12.116  18.648   1.443
31296W        W90590  24.065  40.903  13.388
31297W        W90591  14.296  24.211   2.196
31298W        W90592  32.971  37.468  11.932
31299W        W90593  42.398  20.131   0.771
31300W        W90594  38.934  16.753   1.351
31301W        W90595  29.485  12.850  10.444
31302W        W90596   9.253  12.778   3.795
31303W        W90597  17.171  17.280   3.668
31304W        W90598  26.490  23.573  13.360
31305W        W90599   7.851  20.085   1.388
31306W        W90600   3.317  11.756   3.856
31307W        W90601  38.534   2.832   1.901
31308W        W90602  30.991  38.022  10.588
31309W        W90603   1.960  24.215  11.026
31310W        W90604  22.122  31.079   2.878
31311W        W90605  43.015  15.213   2.783
31312W        W90606   3.779  26.994  10.520
31313W        W90607  31.023  24.109   3.186
31314W        W90608  43.288  42.458  14.884
31315W        W90609   8.353  31.067   2.758
31316W        W90610  31.616  41.788   2.688
31317W        W90611  23.550  31.117  11.944
31318W        W90612  24.137  27.488  12.843
31319W        W90613  18.673  24.178  13.804
31320W        W90614  22.521  37.389  14.827
31321W        W90615  40.978  33.531  13.858
31322W        W90616   8.185  14.290   4.785
31323W        W90617  41.347  30.606   3.786
31324W        W90618  35.388   9.241   3.735
31325W        W90619  15.729  26.075   1.719
31326W        W90620  22.110  21.260   2.213
31327W        W90621  42.923  25.480  11.445
31328W        W90622  16.075   9.881  12.565
31329W        W90623  19.734  43.945  12.369
31330W        W90624  33.088  10.784  13.966
31331W        W90625  21.105  43.016   2.798
31332W        W90626  24.527   5.793  13.535
31333W        W90627  12.661  16.749   4.126
31334W        W90628  18.275  33.515  10.551
31335W        W90629   8.406  38.026  11.422
31336W        W90630  17.102  42.980   5.322
31337W        W90631  18.612  24.486   2.329
31338W        W90632  41.991   6.400   0.815
31339W        W90633   8.790  39.538   2.667
31340W        W90634  24.066   7.309  11.573
31341W        W90635  10.217  28.127   4.778
31342W        W90636   4.369  30.597   0.475
31343W        W90637   3.785  14.316  12.446
31344W        W90638   6.801  39.319   0.929
31345W        W90639   2.448  19.230  12.902
31346W        W90640  21.627  44.298  12.435
31347W        W90641  30.087  30.559   3.696
31348W        W90642  33.880  21.165   1.703
31349W        W90643   9.363   7.366  13.435
31350W        W90644   5.219   7.725   4.228
31351W        W90645  27.671  36.964  10.433
31352W        W90646  12.705  14.590   4.768
31353W        W90647  42.328   9.869  10.454
31354W        W90648  41.482  17.641  14.917
31355W        W90649   7.351  42.833   4.333
31356W        W90650  43.957   6.728   1.769
31357W        W90651  24.538  23.063   1.357
31358W        W90652  28.980  30.023   0.963
31359W        W90653  42.811   5.872  13.400
31360W        W90654  43.901  41.491  11.924
31361W        W90655  22.688  24.543  14.937
31362W        W90656  32.579  14.747  11.433
31363W        W90657  11.704  10.669  12.950
31364W        W90658  35.375  16.197   2.789
31365W        W90659  12.785   3.329   1.212
31366W        W90660  24.027   2.323  14.988
31367W        W90661  39.843  17.717   1.219
31368W        W90662  29.120  23.199  11.473
31369W        W90663  12.133  30.412   0.398
31370W        W90664  36.413  19.672  12.021
31371W        W90665  37.019  23.217  12.344
31372W        W90666  25.173  25.012   3.156
31373W        W90667  23.026   0.322  10.590
31374W        W90668  44.861  24.661   1.749
31375W        W90669  39.023  38.513  10.992
31376W        W90670  18.241  19.239   1.703
31377W        W90671   0.773  15.661  12.431
31378W        W90672  14.698  10.741   0.401
31379W        W90673  31.622  17.220  12.086
31380W        W90674  20.112   3.311   3.194
31381W        W90675  27.513  13.283   4.158
31382W        W90676  26.574  19.546   0.957
31383W        W90677  20.063  36.894  10.602
31384W        W90678  20.525  17.627  14.020
31385W        W90679  15.597  27.588   0.897
31386W        W90680  38.437  42.452   1.352
31387W        W90681  12.233  37.081  12.920
31388W        W90682  10.778  19.761  11.898
31389W        W90683  23.633  10.314   4.692
31390W        W90684   2.955  27.013   2.209
31391W        W90685   7.873  15.591  13.846
31392W        W90686  30.458   1.761   2.234
31393W        W90687  14.823  32.101   2.873
31394W        W90688  22.650  37.912  14.027
31395W        W90689  16.165  30.591   1.836
31396W        W90690  43.780  36.516  13.893
31397W        W90691   9.818  39.993  13.934
31398W        W90692  37.018  25.075   0.447
31399W        W90693  34.601  43.972   4.221
31400W        W90694  12.162  33.875  10.887
31401W        W90695  15.295  13.228   2.354
31402W        W90696   1.857  12.830  13.988
31403W        W90697  20.179   2.732   3.155
31404W        W90698  31.439  34.545  12.001
31405W        W90699  27.188  40.492  13.425
31406W        W90700   8.697  13.625   2.334
31407W        W90701  20.585   9.335   2.199
31408W        W90702  23.096  25.517  13.327
31409W        W90703  18.620   1.461   4.189
31410W        W90704   6.234  16.686  10.548
31411W        W90705  24.482  44.282   4.802
31412W        W90706  17.650  35.474  14.466
31413W        W90707  19.105  10.240  11.578
31414W        W90708  26.109  17.174  14.323
31415W        W90709  15.329  43.502   0.268
31416W        W90710  14.102   4.877  14.486
31417W        W90711   2.299   3.835   3.223
31418W        W90712  23.185  26.602  14.936
31419W        W90713  19.171  13.219  12.574
31420W        W90714  36.979   3.307   1.777
31421W        W90715   8.322  18.760   1.231
31422W        W90716  40.343  43.444   0.747
31423W        W90717  27.102  19.703   5.230
31424W        W90718  40.495  42.841   2.315
31425W        W90719  12.206  20.676  14.335
31426W        W90720  32.887  26.155   1.709
31427W        W90721   4.778  26.997   2.199
31428W        W90722  12.340   8.736   0.477
31429W        W90723  42.808  30.469   2.252
31430W        W90724  31.012  28.096  13.979
31431W        W90725  25.143   0.354   0.808
31432W        W90726  10.213   8.247  13.482
31433W        W90727  41.868  25.988   2.412
31434W        W90728  19.562  28.678   0.281
31435W        W90729  10.769  15.610   1.282
31436W        W90730  16.113  34.461  12.407
31437W        W90731  43.388  41.348   0.747
31438W        W90732  32.627  38.068   3.690
31439W        W90733  37.858  34.950  11.964
31440W        W90734  43.012  35.585   2.678
31441W        W90735  15.768  16.246  12.077
31442W        W90736  39.399  38.840   3.303
31443W        W90737  36.976  43.764   3.838
31444W        W90738  42.479   3.925  11.936
31445W        W90739   4.282  32.420  11.077
31446W        W90740  39.012  18.575   0.815
31447W        W90741  37.930  44.356   2.708
31448W        W90742  15.209  41.381  12.033
31449W        W90743  15.704  23.496  13.944
31450W        W90744  32.086  31.058  14.975
31451W        W90745  14.695  13.157   1.394
31452W        W90746  17.689   4.892  14.945
31453W        W90747  27.521  36.964   1.849
31454W        W90748  18.634  37.848  14.841
31455W        W90749  28.651  33.920  10.423
31456W        W90750  25.978   0.476   1.881
31457W        W90751  44.825   6.718   4.153
31458W        W90752  34.035  38.548   1.864
31459W        W90753  37.518  14.191   4.252
31460W        W90754  10.223  35.539  11.559
31461W        W90755  26.493  37.385   2.718
31462W        W90756  28.625  22.714   0.328
31463W        W90757  38.356  22.571   0.411
31464W        W90758  30.514  17.159   3.160
31465W        W90759  29.136  19.777  13.903
31466W        W90760  44.891   9.679  14.906
31467W        W90761  23.093  42.930   1.787
31468W        W90762  31.456  21.040  12.567
31469W        W90763  30.493  38.953   1.854
31470W        W90764   2.313  20.210  11.088
31471W        W90765  26.592   4.706   0.831
31472W        W90766  25.113  18.559   2.397
31473W        W90767   7.243  10.717   1.228
31474W        W90768  32.896   7.198  11.396
31475W        W90769  32.508  10.353  14.323
31476W        W90770  28.678  43.362   1.215
31477W        W90771   6.331   5.924  12.829
31478W        W90772  37.395  27.548  14.944
31479W        W90773   2.934  44.797   1.424
31480W        W90774   2.337   5.399   4.280
31481W        W90775   3.320   4.865  12.387
31482W        W90776   0.319  31.406  11.868
31483W        W90777  25.009  21.512  11.431
31484W        W90778  32.892  15.691   4.196
31485W        W90779  11.225   6.798  11.464
31486W        W90780  19.575  34.036   2.683
31487W        W90781  42.346  10.140   2.349
31488W        W90782  15.755  20.563  11.391
31489W        W90783  20.552  20.749  11.059
31490W        W90784  33.116  37.939   0.474
31491W        W90785   5.705  18.766  11.441
31492W        W90786  40.802  34.410   4.711
31493W        W90787   7.825  37.571   1.762
31494W        W90788  39.360  25.634   1.445
31495W        W90789  17.273   2.414   4.198
31496W        W90790  35.014  42.434  10.462
31497W        W90791  35.899  30.532   0.282
31498W        W90792  34.416   6.218  14.888
31499W        W90793  44.337   3.294   1.211
31500W        W90794  37.406  12.228  12.551
31501W        W90795  10.670  10.226  11.901
31502W        W90796  44.471  11.237  13.872
31503W        W90797  42.525   6.870   0.422
31504W        W90798  19.729   2.795  14.961
31505W        W90799  15.720  39.537   0.760
31506W        W90800  11.289  38.392  11.481
31507W        W90801  27.582  25.693  14.896
31508W        W90802  22.716  28.143  13.333
31509W        W90803  18.635  21.701  10.156
31510W        W90804  38.060   0.348   0.275
31511W        W90805  29.513  17.774   1.841
31512W        W90806  43.793   8.329  13.012
31513W        W90807   3.427  16.242  12.874
31514W        W90808  21.209  35.533  13.844
31515W        W90809  33.880  35.105  14.799
31516W        W90810  13.123   2.773   4.283
31517W        W90811  17.082  38.866   1.278
31518W        W90812  43.929  43.844   1.369
31519W        W90813  21.055   6.703   2.289
31520W        W90814   1.311  44.375  11.898
31521W        W90815  43.447  29.136   4.249
31522W        W90816  18.577   6.290   4.669
31523W        W90817  21.257   9.153  14.391
31524W        W90818  19.190  16.200   4.758
31525W        W90819  24.197   7.382   2.289
31526W        W90820   2.731   1.889  13.045
31527W        W90821  13.687  18.661   1.812
31528W        W90822  31.927   1.920  12.415
31529W        W90823  15.789  32.504   4.646
31530W        W90824   1.406  13.231   4.768
31531W        W90825  25.102  32.525  12.418
31532W        W90826   1.806  19.617   0.383
31533W        W90827  10.689   2.928   1.841
31534W        W90828  20.215  15.178  11.922
31535W        W90829   1.790  20.621  12.543
31536W        W90830  42.299  14.689  14.878
31537W        W90831  20.686  41.915  13.513
31538W        W90832  24.628  35.445   4.157
31539W        W90833   0.953  28.573  12.018
31540W        W90834  44.993  24.187  10.527
31541W        W90835  16.599  42.505  11.458
31542W        W90836  25.703  29.428  13.528
31543W        W90837  22.207  29.979   2.247
31544W        W90838  13.309  32.391   3.701
31545W        W90839  31.623  38.328   1.928
31546W        W90840  11.259  18.561   2.800
31547W        W90841  12.663  18.268   3.364
31548W        W90842  42.982  44.260   4.305
31549W        W90843  39.560  38.400   2.682
31550W        W90844  15.297  31.589  12.007
31551W        W90845   8.845   2.256   4.279
31552W        W90846  38.333  10.683  14.450
31553W        W90847  25.993  16.586   2.313
31554W        W90848  34.948  28.059  11.379
31555W        W90849  37.527  39.351  12.391
31556W        W90850   9.290  21.153   3.821
31557W        W90851  38.455  30.159   3.179
31558W        W90852  43.378   5.218  10.996
31559W        W90853  31.048  44.497   9.947
31560W        W90854  14.324  25.044   0.403
31561W        W90855  16.243  13.599   0.248
31562W        W90856  36.937  30.533   2.260
31563W        W90857  13.111   3.281  10.466
31564W        W90858  16.314  18.772   3.646
31565W        W90859  27.614  25.512   3.308
31566W        W90860  44.381  28.526  13.527
31567W        W90861   0.863  12.126  13.934
31568W        W90862   5.330  26.147   4.607
31569W        W90863  37.915  16.273   2.346
31570W        W90864  33.607   4.710  11.479
31571W        W90865  17.093  33.937   1.766
31572W        W90866  31.122   8.714  12.014
31573W        W90867  36.435  21.204  10.540
31574W        W90868   3.374  16.184  11.906
31575W        W90869  39.058  22.506   0.841
31576W        W90870  16.141  41.002   2.337
31577W        W90871  22.062  20.647   0.948
31578W        W90872  31.498  13.737   2.412
31579W        W90873  19.748   5.247  13.546
31580W        W90874  24.201  35.456  14.462
31581W        W90875  27.121  10.244  11.865
31582W        W90876   3.386  43.346  13.063
31583W        W90877  37.935  15.176  14.886
31584W        W90878  32.550  19.722  13.959
31585W        W90879  25.973  40.012  13.329
31586W        W90880  44.850  28.614  14.445
31587W        W90881  24.713   1.785  12.093
31588W        W90882   5.792  41.900   4.700
31589W        W90883   8.277  29.590  10.469
31590W        W90884  11.234   8.312  13.845
31591W        W90885  44.000  35.104  14.010
31592W        W90886  11.679  26.574   1.228
31593W        W90887   0.848  40.353  12.870
31594W        W90888  20.733  18.213   1.419
31595W        W90889  34.955  17.743  12.026
31596W        W90890  20.119   1.473   4.244
31597W        W90891  34.024  42.343   1.357
31598W        W90892  37.838  32.929   2.674
31599W        W90893  10.145  27.065  10.471
31600W        W90894  21.199  34.385   2.409
31601W        W90895  24.095   3.330   1.331
31602W        W90896  44.462  34.559   0.385
31603W        W90897  20.270   4.837  12.458
31604W        W90898  28.047  12.643  12.830
31605W        W90899  27.500   3.255  11.897
31606W        W90900  22.514  31.543   2.331
31607W        W90901  43.415  17.627   3.789
31608W        W90902   7.220  40.999  13.401
31609W        W90903  33.614  35.976  12.520
31610W        W90904  18.075  25.627   3.188
31611W        W90905   2.407  22.038   9.983
31612W        W90906  37.905  28.984  11.456
31613W        W90907  33.883  28.591   1.332
31614W        W90908  43.938  35.491  14.402
31615W        W90909  38.955  26.504   5.277
31616W        W90910   1.927  41.867   0.821
31617W        W90911   7.821  10.711  12.564
31618W        W90912  41.829  44.268   4.309
31619W        W90913  24.479  10.843  13.932
31620W        W90914  15.603  40.005  10.080
31621W        W90915  35.383   7.791   0.736
31622W        W90916  39.336   7.362  13.336
31623W        W90917  27.959  33.920   3.334
31624W        W90918  18.232  44.948  10.958
31625W        W90919  42.411  18.606  14.423
31626W        W90920  26.476  43.846  13.840
31627W        W90921  37.490  35.978   2.246
31628W        W90922   6.692   3.421   3.354
31629W        W90923  31.939  29.975  12.394
31630W        W90924  41.039  24.691  12.082
31631W        W90925  19.151  24.523  11.452
31632W        W90926  37.574  34.884  12.882
31633W        W90927  17.592  28.021   4.245
31634W        W90928  29.554  22.740   4.218
31635W        W90929  10.670  30.423  14.832
31636W        W90930  24.556  38.555   3.311
31637W        W90931  42.840   0.404   2.394
31638W        W90932  17.224   3.862  13.814
31639W        W90933  34.091   7.745  14.906
31640W        W90934  25.635   0.364   3.700
31641W        W90935  34.082  24.073   0.932
31642W        W90936  14.747  32.921   2.271
31643W        W90937   9.152  21.169  10.426
31644W        W90938  36.506  37.950  12.998
31645W        W90939  31.425  12.688  10.427
31646W        W90940  44.849   7.179  10.494
31647W        W90941  29.571  14.689  11.931
31648W        W90942  31.545  40.434  12.973
31649W        W90943   2.764   3.736  14.308
31650W        W90944  30.979  34.868  14.444
31651W        W90945   1.310  43.376   3.719
31652W        W90946  24.636  29.077  14.816
31653W        W90947  10.701   1.429   2.240
31654W        W90948  38.511  44.393   1.292
31655W        W90949   0.408  20.560  10.528
31656W        W90950   4.792  22.592  13.316
31657W        W90951  28.581  31.035  13.431
31658W        W90952  35.984  20.766   4.176
31659W        W90953  38.871  37.047   2.203
31660W        W90954  21.132   0.970  10.521
31661W        W90955  25.560  35.012  14.343
31662W        W90956  30.980   7.765   0.967
31663W        W90957  43.015   2.303  13.877
31664W        W90958   9.164  43.787  13.898
31665W        W90959   0.255  19.604   0.263
31666W        W90960  31.143   6.698  11.052
31667W        W90961   6.205  23.589  11.560
31668W        W90962  23.241   9.318   0.242
31669W        W90963  18.121  22.678  12.903
31670W        W90964  19.182  35.074  10.407
31671W        W90965  21.745  19.540  12.872
31672W        W90966  16.812  14.095  14.898
31673W        W90967  30.607  19.614   2.393
31674W        W90968  40.831  28.936   3.845
31675W        W90969  43.393  16.672  10.564
31676W        W90970  24.193  32.117  10.560
31677W        W90971  38.345  19.717  12.018
31678W        W90972  24.480  28.462   3.645
31679W        W90973   1.316  20.130   4.715
31680W        W90974  37.907  17.785  13.955
31681W        W90975  24.641  13.186  12.469
31682W        W90976   9.686  44.327   1.395
31683W        W90977  11.151   3.337  13.040
31684W        W90978  33.972  32.586  14.968
31685W        W90979  30.106  27.154  13.843
31686W        W90980  22.130  21.668  14.316
31687W        W90981  14.147  24.119   0.308
31688W        W90982   1.445  28.434   0.291
31689W        W90983  30.912  14.755  11.963
31690W        W90984  32.551  37.000   3.312
31691W        W90985  15.087  11.152  12.946
31692W        W90986  33.446  10.238  10.437
31693W        W90987  12.821  30.152  11.516
31694W        W90988  18.125  13.303  13.001
31695W        W90989  30.593  29.059   3.160
31696W        W90990  28.934  20.595   1.885
31697W        W90991  30.941  37.861  12.985
31698W        W90992  17.623  32.606   3.790
31699W        W90993  35.057  29.094  11.568
31700W        W90994   1.460  28.662   2.738
31701W        W90995   4.787  12.726   4.167
31702W        W90996  29.090  40.007  10.154
31703W        W90997   8.403  31.514   1.392
31704W        W90998  24.491  24.605  14.303
31705W        W90999  32.437  18.756  11.414
31706W        W91000   8.697  34.579   1.745
31707W        W91001   4.867  26.530  13.449
31708W        W91002  10.760  44.775   9.516
31709W        W91003  18.073   8.891  13.470
31710W        W91004  40.390  10.318   2.239
31711W        W91005  24.147  25.176  11.929
31712W        W91006  32.619  31.939  14.338
31713W        W91007   5.374  43.860  14.331
31714W        W91008  13.187  19.689  11.989
31715W        W91009  23.014   6.815   1.292
31716W        W91010  22.720  34.099   2.689
31717W        W91011  36.579  42.017   1.927
31718W        W91012   8.367  33.073  13.882
31719W        W91013  31.076  39.841   0.941
31720W        W91014  35.506   8.336   2.709
31721W        W91015  19.041  36.525   4.834
31722W        W91016  13.697  16.807  11.523
31723W        W91017  13.751   3.352   4.118
31724W        W91018  38.326  44.004   1.817
31725W        W91019  36.535  31.494   3.158
31726W        W91020  12.190  39.556  12.918
31727W        W91021   5.361   6.783  12.530
31728W        W91022   3.738   9.825   4.760
31729W        W91023  38.957   1.443   0.391
31730W        W91024  30.557  40.005  14.450
31731W        W91025  34.951  30.547   0.783
31732W        W91026  30.449  10.294  13.423
31733W        W91027  30.163   6.893   0.437
31734W        W91028  34.487   3.368   0.846
31735W        W91029  18.240   2.312  14.988
31736W        W91030  17.158  15.135   2.418
31737W        W91031   0.876  29.547   3.151
31738W        W91032  18.243   7.881  11.985
31739W        W91033  10.684  32.626   4.627
31740W        W91034  38.395  34.458   1.783
31741W        W91035  28.649   9.848  11.103
31742W        W91036  20.256  12.691  11.474
31743W        W91037  31.915  36.373  11.002
31744W        W91038  18.565   8.802   5.201
31745W        W91039   6.414  42.879   1.813
31746W        W91040   4.936   3.252   2.194
31747W        W91041  23.075   3.268   4.302
31748W        W91042  26.463  41.840  11.481
31749W        W91043  17.189  24.159  14.857
31750W        W91044  11.684  40.382   5.092
31751W        W91045  38.885   3.273  10.015
31752W        W91046  10.226  25.613  14.967
31753W        W91047  33.012   2.455  12.449
31754W        W91048  35.563   7.846  13.491
31755W        W91049  37.866   4.298  12.496
31756W        W91050  21.087   1.861  12.401
31757W        W91051  40.333  43.005   3.866
31758W        W91052  27.484  19.623  14.830
31759W        W91053  31.065  21.242   4.713
31760W        W91054  21.687   7.806   3.693
31761W        W91055  29.468   9.854  12.062
31762W        W91056  37.961  18.660  14.513
31763W        W91057  26.120  43.358  14.831
31764W        W91058  38.827   1.285   2.890
31765W        W91059  39.864  26.637  11.093
31766W        W91060  23.122  41.459  10.984
31767W        W91061  33.524  30.079  11.955
31768W        W91062  39.960  16.290  13.344
31769W        W91063  38.385  16.753  14.328
31770W        W91064  34.093  25.669  10.926
31771W        W91065  14.324  31.006  11.096
31772W        W91066  37.450  28.641   1.424
31773W        W91067  17.594  15.118  11.479
31774W        W91068   0.358  34.540   3.234
31775W        W91069  43.404  24.701  11.391
31776W        W91070  41.305  36.014  13.922
31777W        W91071  41.791  37.843  14.893
31778W        W91072  14.683  35.375  12.924
31779W        W91073   5.355  17.223   3.634
31780W        W91074  21.245  11.855  11.516
31781W        W91075  19.559   3.733   5.174
31782W        W91076  40.961  15.775  11.999
31783W        W91077  25.601  32.941  11.431
31784W        W91078   3.744  41.904  11.102
31785W        W91079  17.672   0.879  14.771
31786W        W91080  26.989  42.309   2.386
31787W        W91081  37.499  23.658   1.769
31788W        W91082  35.500  29.487   4.323
31789W        W91083   3.710  41.968  11.944
31790W        W91084  24.481  25.496  11.599
31791W        W91085  43.965  22.079   0.908
31792W        W91086  32.103  17.798   3.348
31793W        W91087  35.559   8.390  11.882
31794W        W91088  23.499  13.223  13.390
31795W        W91089   4.268   5.740  10.930
31796W        W91090   4.276  28.142   3.829
31797W        W91091  39.005  34.059   2.409
31798W        W91092  44.459  32.099   5.185
31799W        W91093  41.825  35.950   4.340
31800W        W91094  26.469  13.266   3.864
31801W        W91095  42.520  16.202   4.613
31802W        W91096  18.778  23.736   1.219
31803W        W91097  29.954  16.613  12.880
31804W        W91098  34.873   7.191  10.429
31805W        W91099  10.369  43.834   2.320
31806W        W91100  33.417  35.892  14.480
31807W        W91101  25.600  36.906   2.264
31808W        W91102   9.710  38.990  11.541
31809W        W91103  13.736  18.285  10.548
31810W        W91104  10.164   8.788  14.965
31811W        W91105   3.709  35.927   0.740
31812W        W91106  32.093   0.447  14.797
31813W        W91107  13.650  30.502  14.946
31814W        W91108  11.663  16.181   2.866
31815W        W91109  40.448   9.225  14.961
31816W        W91110  32.498  42.504  14.502
31817W        W91111  31.414  36.940  13.501
31818W        W91112  37.475   3.450  10.482
31819W        W91113   1.947   7.683  10.946
31820W        W91114  33.898  34.926  14.323
31821W        W91115  26.638  12.810  11.987
31822W        W91116   9.667  14.744   4.170
31823W        W91117  14.094  29.154  14.983
31824W        W91118   2.358  37.872   3.233
31825W        W91119  34.103  23.557   4.658
31826W        W91120   7.762  13.762   0.826
31827W        W91121  27.182  12.840  14.925
31828W        W91122  39.465  35.892   1.347
31829W        W91123   8.756  28.134   3.160
31830W        W91124   9.205  26.082   0.774
31831W        W91125   3.319   6.353   5.264
31832W        W91126   1.431  30.050  12.924
31833W        W91127  10.333  37.873  13.794
31834W        W91128  37.384  41.788   2.697
31835W        W91129  36.994   0.786   0.436
31836W        W91130   3.856  23.568   4.188
31837W        W91131  23.670  25.593   4.782
31838W        W91132  19.704   4.406  14.783
31839W        W91133  17.307  34.392   3.299
31840W        W91134   6.337  44.965   1.770
31841W        W91135  11.749   1.754  10.889
31842W        W91136  41.861  16.095   3.254
31843W        W91137  24.184  24.068  13.896
31844W        W91138  38.341  28.038   4.638
31845W        W91139   0.800  22.079  14.507
31846W        W91140   3.933  26.602  11.109
31847W        W91141  18.052   7.318   4.317
31848W        W91142  28.008  25.534   0.417
31849W        W91143  12.238  15.786  11.481
31850W        W91144  42.932  42.921   2.787
31851W        W91145  43.870   1.291  11.993
31852W        W91146  25.468  24.190   0.333
31853W        W91147  40.880  11.239   2.347
31854W        W91148  31.455  23.527   3.685
31855W        W91149   3.229  30.493   0.727
31856W        W91150   4.768  23.587   0.787
31857W        W91151  13.802  22.509   4.118
31858W        W91152   9.155  12.736   4.239
31859W        W91153  25.002  42.971  12.502
31860W        W91154  35.982  36.057  13.034
31861W        W91155  22.141  11.788   0.787
31862W        W91156  30.063   9.774   3.231
31863W        W91157   0.286  17.737  14.759
31864W        W91158  34.449   3.725   4.660
31865W        W91159  13.794   2.462   0.334
31866W        W91160  29.982  25.092  10.957
31867W        W91161  39.550  21.735  10.572
31868W        W91162  44.370  13.298  14.440
31869W        W91163  33.006  39.992  12.568
31870W        W91164  31.571  25.650  14.016
31871W        W91165  20.052  38.909  10.156
31872W        W91166  14.615  35.092   3.248
31873W        W91167  11.647  28.447  12.006
31874W        W91168   2.964  32.482   3.241
31875W        W91169  33.916  21.617  12.830
31876W        W91170  41.358   1.418   0.258
31877W        W91171  24.187  10.379   4.299
31878W        W91172  21.532   1.300  14.902
31879W        W91173  14.707  36.397  13.849
31880W        W91174  23.211   7.296  11.497
31881W        W91175  27.192  24.655   1.369
31882W        W91176   7.756   5.279   0.891
31883W        W91177  10.177   8.290   0.467
31884W        W91178  23.652  12.705  13.964
31885W        W91179   3.774  21.115   3.866
31886W        W91180  27.106  15.602   0.362
31887W        W91181   4.274   0.424   3.198
31888W        W91182   0.369  29.451  12.408
31889W        W91183  23.670   1.872   4.719
31890W        W91184  44.299  24.999   3.340
31891W        W91185  15.138  19.233   1.362
31892W        W91186   9.699  28.160   0.868
31893W        W91187  10.237  27.667   2.752
31894W        W91188  28.590  22.121   0.750
31895W        W91189  41.020   4.870   1.274
31896W        W91190   3.753  19.082  14.960
31897W        W91191  26.143  26.157  10.959
31898W        W91192  24.709   7.791  11.471
31899W        W91193   9.690   8.231   2.415
31900W        W91194  21.745  43.313  11.435
31901W        W91195  15.819  34.588  12.579
31902W        W91196  30.096  42.791   1.866
31903W        W91197  44.410  36.413   0.930
31904W        W91198  23.672  15.812   0.384
31905W        W91199  24.058  36.971  12.470
31906W        W91200  11.867  33.088   1.903
31907W        W91201  32.590  42.839  13.979
31908W        W91202  35.440  13.631  11.607
31909W        W91203  12.196  13.689  14.901
31910W        W91204  32.012  26.555   3.826
31911W        W91205  38.465  34.092  13.466
31912W        W91206   9.243  38.037   0.373
31913W        W91207  19.683  33.391  14.376
31914W        W91208  27.090   8.671   2.698
31915W        W91209   0.748   5.741   4.282
31916W        W91210  42.817  39.903  12.425
31917W        W91211  34.470   4.814   3.205
31918W        W91212   5.905   4.265   2.180
31919W        W91213   4.740  36.393  10.450
31920W        W91214  11.272   0.444  14.831
31921W        W91215  18.237  11.698   4.776
31922W        W91216  30.473  38.554  14.391
31923W        W91217  27.562  12.712  12.012
31924W        W91218  14.145  31.963  13.878
31925W        W91219  31.497  42.384  11.557
31926W        W91220   6.272  43.948  10.574
31927W        W91221  19.220  44.440   3.261
31928W        W91222  30.446  27.621   2.666
31929W        W91223   9.258  12.694  12.065
31930W        W91224  30.152   4.281  12.512
31931W        W91225  13.249   0.415   3.303
31932W        W91226  16.567   1.953  13.029
31933W        W91227  44.310   8.877  10.997
31934W        W91228  36.857   4.743  13.016
31935W        W91229  25.707  37.558  11.470
31936W        W91230  36.037  16.256  11.017
31937W        W91231   4.726  28.969  13.488
31938W        W91232  43.423  23.059   1.363
31939W        W91233  24.991  20.217   0.476
31940W        W91234  39.907  44.302   1.430
31941W        W91235  26.980   8.388   2.334
31942W        W91236  44.003   9.279  14.850
31943W        W91237  20.155  36.051   2.296
31944W        W91238  41.356   7.705  14.414
31945W        W91239  41.421   9.312   3.171
31946W        W91240  36.503   0.820   0.840
31947W        W91241  26.617  35.926   1.754
31948W        W91242  12.284   2.311   1.244
31949W        W91243  13.236  28.439   4.610
31950W        W91244  34.875   9.715  12.573
31951W        W91245  23.062  22.514  12.908
31952W        W91246   3.415  30.093  11.940
31953W        W91247  12.775  37.577  11.855
31954W        W91248   6.243   6.260   1.231
31955W        W91249  44.761  39.014  14.848
31956W        W91250  43.458  10.808  14.458
31957W        W91251   5.233  18.629   5.718
31958W        W91252  34.911  37.893   3.726
31959W        W91253  29.952  20.758   1.803
31960W        W91254  23.141  27.063   0.858
31961W        W91255  42.440  38.919  11.382
31962W        W91256  12.756  22.025  12.081
31963W        W91257  15.158  40.304   0.434
31964W        W91258  20.541  43.489   0.951
31965W        W91259  30.434  36.997  13.354
31966W        W91260  43.401   7.218  13.960
31967W        W91261  34.973   4.776   3.297
31968W        W91262  16.213  35.579  13.836
31969W        W91263  27.480   2.740   0.415
31970W        W91264  43.505  25.183   0.916
31971W        W91265  10.730  32.114   2.419
31972W        W91266  18.790  21.577   1.726
31973W        W91267  17.266   1.744   5.234
31974W        W91268  43.378  18.293  12.896
31975W        W91269  21.534  30.072   3.207
31976W        W91270  42.020  26.066  11.540
31977W        W91271  30.087  41.039  12.396
31978W        W91272  29.060  12.791   2.874
31979W        W91273  13.818  13.179  10.522
31980W        W91274  38.868  27.652  13.434
31981W        W91275   2.401  20.558   3.870
31982W        W91276  35.985   1.841   1.364
31983W        W91277  42.465   1.300   2.369
31984W        W91278   2.853  32.985  13.535
31985W        W91279  41.455  33.543  13.871
31986W        W91280  39.853  35.032   2.740
31987W        W91281  36.545  33.063  14.851
31988W        W91282   8.270  24.714  12.449
31989W        W91283  13.328  39.507   3.843
31990W        W91284   7.341  44.844  14.345
31991W        W91285  17.304   0.371  12.514
31992W        W91286  26.668  26.033   4.154
31993W        W91287  24.546  35.604   3.387
31994W        W91288   3.345   5.276  13.320
31995W        W91289  25.560  41.463   4.150
31996W        W91290  28.101  38.498  14.330
31997W        W91291  20.765  17.629   3.710
31998W        W91292   5.747  44.893   3.660
31999W        W91293  27.036  34.014  13.518
32000W        W91294  40.887   1.344   2.315
32001W        W91295  16.148  18.725  10.134
32002W        W91296  26.163   4.927   4.120
32003W        W91297   1.749   7.681   3.658
32004W        W91298  37.082  21.518   1.826
32005W        W91299  14.099  22.996  12.996
32006W        W91300  31.614   6.352  12.581
32007W        W91301  38.042  33.610   3.339
32008W        W91302   2.922  38.443  14.310
32009W        W91303  22.536  36.431  10.959
32010W        W91304  43.778  23.620  13.310
32011W        W91305  17.108   8.700  14.350
32012W        W91306   0.782   5.386  12.985
32013W        W91307   6.426  11.740   3.358
32014W        W91308  40.430  29.565  14.496
32015W        W91309  20.723  12.242   3.855
32016W        W91310   4.712   7.740  14.836
32017W        W91311  35.891  25.547   2.335
32018W        W91312   7.399  30.087   5.294
32019W        W91313  44.504  14.603   1.895
32020W        W91314   6.415  38.877  11.376
32021W        W91315   2.754  25.561   1.928
32022W        W91316  43.896   1.248   3.386
32023W        W91317  36.899  12.808   4.794
32024W        W91318  33.381   6.209  14.948
32025W        W91319  28.624  34.082   4.269
32026W        W91320   2.941   9.713   3.360
32027W        W91321  43.919  40.973  13.036
32028W        W91322  10.273   9.827  10.467
32029W        W91323  19.092   7.290   0.949
32030W        W91324  20.609  25.476  14.340
32031W        W91325   3.361  12.668  14.429
32032W        W91326  42.852  25.477  10.581
32033W        W91327  28.554  36.004  10.485
32034W        W91328  28.485   8.839  14.813
32035W        W91329  42.424  10.799  14.338
32036W        W91330  42.849  22.672   4.319
32037W        W91331   6.343  22.178  12.348
32038W        W91332  28.121  44.265   1.719
32039W        W91333   5.712   5.882  14.802
32040W        W91334  21.631  34.050  14.943
32041W        W91335  33.982  42.003   0.364
32042W        W91336  26.594  12.847  14.324
32043W        W91337  14.201  32.939  12.371
32044W        W91338  15.261  37.949   2.374
32045W        W91339  16.707  24.518  11.061
32046W        W91340  13.108  15.192  10.641
32047W        W91341   9.783   8.173   0.941
32048W        W91342   5.822  23.549  11.091
32049W        W91343  34.606  26.975  12.859
32050W        W91344  41.979  29.623  11.999
32051W        W91345   3.946  25.511  14.397
32052W        W91346  12.657  18.237  11.536
32053W        W91347  17.626  27.599  14.861
32054W        W91348  39.943   8.822   4.645
32055W        W91349  39.349   5.430  12.859
32056W        W91350  27.975  13.164  13.313
32057W        W91351  20.611  22.072  14.461
32058W        W91352  20.722  35.504   1.278
32059W        W91353  31.515  34.455   4.795
32060W        W91354   2.240  14.756  14.499
32061W        W91355  34.037  20.544  14.018
32062W        W91356  29.631  19.726  11.966
32063W        W91357  25.524  34.110   3.827
32064W        W91358  16.770  24.687   3.714
32065W        W91359  36.591  14.616  13.424
32066W        W91360  30.963  42.325  13.949
32067W        W91361  24.723  11.728   4.783
32068W        W91362  26.117   7.384  14.900
32069W        W91363   9.375  10.648   2.805
32070W        W91364  43.464  35.917   2.257
32071W        W91365  16.797  38.820  13.971
32072W        W91366  15.677  10.668  11.969
32073W        W91367  43.380  23.581  11.415
32074W        W91368  16.658  36.936  12.095
32075W        W91369  26.575  34.403   2.882
32076W        W91370   3.946  25.602   3.224
32077W        W91371   0.900  23.501  12.857
32078W        W91372  20.703  10.762   2.878
32079W        W91373   4.809  43.480  12.471
32080W        W91374   9.332  15.248   2.278
32081W        W91375   4.256  23.010  11.461
32082W        W91376  12.283  13.314  13.843
32083W        W91377  18.197  21.050   9.549
32084W        W91378  23.228  27.002   2.663
32085W        W91379  40.833   8.303   3.236
32086W        W91380   2.419  37.336   4.734
32087W        W91381  19.696  42.494  12.886
32088W        W91382  39.035  28.078  11.907
32089W        W91383  24.065  12.791   2.752
32090W        W91384   7.830  19.573   3.313
32091W        W91385  43.008  43.298  10.504
32092W        W91386  36.481   7.268   2.387
32093W        W91387   4.721  37.536   3.675
32094W        W91388  35.416  21.232   2.232
32095W        W91389  17.753  34.455  14.851
32096W        W91390  11.183  26.603  10.427
32097W        W91391  23.591  44.907  13.814
32098W        W91392  44.447  33.621   4.125
32099W        W91393   8.279  34.522  10.501
32100W        W91394   8.718   2.441   4.761
32101W        W91395  40.420  40.323  11.985
32102W        W91396  38.003   3.859  11.873
32103W        W91397  14.120  14.209  12.979
32104W        W91398  32.478  17.563   3.695
32105W        W91399  33.457   7.807   5.636
32106W        W91400  10.870  26.141  14.435
32107W        W91401  20.125  36.453   2.252
32108W        W91402  28.992  14.680   1.211
32109W        W91403  14.292   3.454  14.841
32110W        W91404  41.941  40.351   0.767
32111W        W91405  19.717  16.103   4.665
32112W        W91406   5.398  16.700  10.431
32113W        W91407  25.489  36.072  14.500
32114W        W91408   2.917  28.051   0.443
32115W        W91409  28.982   8.726   4.115
32116W        W91410  21.060  37.525   2.399
32117W        W91411  10.211  29.048  10.601
32118W        W91412  34.541  11.151  11.424
32119W        W91413   8.864  25.483   2.800
32120W        W91414   6.384  31.926   2.333
32121W        W91415  22.726  37.864  10.514
32122W        W91416   7.259  22.664   2.354
32123W        W91417   1.362   4.896   1.736
32124W        W91418   9.292  32.634  11.585
32125W        W91419  32.085  10.675  13.446
32126W        W91420  27.029  21.200  13.850
32127W        W91421  24.189  36.054   2.195
32128W        W91422  31.957   5.745  12.561
32129W        W91423  13.673  42.353  14.012
32130W        W91424  11.622  41.427   2.731
32131W        W91425  25.690  38.431   3.284
32132W        W91426   9.347  42.284   4.701
32133W        W91427  23.099  22.205   2.692
32134W        W91428   0.746  29.613   5.237
32135W        W91429  25.667  37.544  14.840
32136W        W91430  14.637  20.616   3.237
32137W        W91431  43.430   4.441   4.764
32138W        W91432  25.678  12.128   9.986
32139W        W91433  14.686  11.733   1.307
32140W        W91434  35.518  28.470   1.241
32141W        W91435  41.474  37.358  13.001
32142W        W91436  26.532  38.861   5.221
32143W        W91437  12.724  35.383   4.287
32144W        W91438  43.445  12.816   0.870
32145W        W91439  26.033  20.141   1.825
32146W        W91440  16.707  30.072  10.517
32147W        W91441  11.223   4.836   1.855
32148W        W91442  43.402  21.666  14.845
32149W        W91443  29.576  18.160   2.399
32150W        W91444  13.195   6.399   4.833
32151W        W91445   5.809  30.452   4.728
32152W        W91446  22.723  12.786   0.309
32153W        W91447  41.324  25.534   0.779
32154W        W91448  10.771  19.655  13.325
32155W        W91449   4.216  43.929  13.833
32156W        W91450  34.019  13.719  10.569
32157W        W91451  12.287  34.924  10.480
32158W        W91452   2.824  41.827   0.472
32159W        W91453   0.324  43.955   1.374
32160W        W91454   1.262  39.990   4.168
32161W        W91455  40.904  18.652  11.037
32162W        W91456  12.630  27.006  14.321
32163W        W91457  15.586  22.213  10.954
32164W        W91458  41.976  14.233   0.400
32165W        W91459  23.238  39.984  11.545
32166W        W91460  34.400  19.211  11.611
32167W        W91461  25.597  26.534  14.956
32168W        W91462  26.470  36.947   2.344
32169W        W91463   0.818   7.706  13.402
32170W        W91464  30.104  10.863  11.387
32171W        W91465  43.427  31.554   2.669
32172W        W91466   4.702  10.259   2.731
32173W        W91467  25.108   9.336   1.442
32174W        W91468  42.354  17.172  13.062
32175W        W91469   1.961  42.458   1.847
32176W        W91470  43.427  30.050  11.472
32177W        W91471   1.904   9.725  11.491
32178W        W91472   7.707  19.595   2.304
32179W        W91473   4.708  39.968   0.364
32180W        W91474  42.469  22.505  13.005
32181W        W91475  14.162  15.784  13.924
32182W        W91476  16.081  29.664   1.395
32183W        W91477  28.461   8.788  10.564
32184W        W91478  44.418  14.212  14.784
32185W        W91479   8.765  43.372  13.810
32186W        W91480  38.543  43.399   4.823
32187W        W91481  14.236  16.270   2.826
32188W        W91482  38.565  18.208  12.504
32189W        W91483  33.596  14.317   1.779
32190W        W91484   5.826  21.547  12.375
32191W        W91485  26.046  43.779   4.219
32192W        W91486   8.404  17.176  10.408
32193W        W91487   0.879  31.117  13.483
32194W        W91488   1.456  18.720   3.189
32195W        W91489  37.833  29.130   2.405
32196W        W91490  13.114  31.502   4.342
32197W        W91491   2.461  43.812  10.528
32198W        W91492  11.210  40.419  12.870
32199W        W91493  27.169   8.303   2.848
32200W        W91494  12.287  21.608  11.440
32201W        W91495  16.691  37.923  14.988
32202W        W91496   6.214   5.908   1.405
32203W        W91497  15.220  13.115  14.303
32204W        W91498  13.844  44.376  10.487
32205W        W91499   0.912  36.051   1.793
32206W        W91500  36.553  10.330  14.763
32207W        W91501  39.854   1.455   0.247
32208W        W91502   9.194  23.687  11.090
32209W        W91503  41.487  29.132  13.934
32210W        W91504  33.919  35.493  11.938
32211W        W91505  40.456  40.890   0.822
32212W        W91506  34.887  36.395   2.820
32213W        W91507   7.185  21.041   9.924
32214W        W91508  34.898   0.979   2.240
32215W        W91509  20.069  33.024   2.841
32216W        W91510  41.034  25.005  13.045
32217W        W91511  30.004   9.663   1.322
32218W        W91512   0.478  17.761   4.163
32219W        W91513  43.955  27.941  12.848
32220W        W91514   8.767  37.070  13.937
32221W        W91515  19.080  13.336   3.773
32222W        W91516   7.861  41.989   2.677
32223W        W91517  41.848  41.811   1.337
32224W        W91518  34.027  31.639   1.926
32225W        W91519   8.194   2.457   5.180
32226W        W91520  17.062  38.874   3.670
32227W        W91521   4.821  26.015  13.840
32228W        W91522   6.894  11.305   4.278
32229W        W91523  39.352  10.353  11.112
32230W        W91524  13.806  44.380  14.416
32231W        W91525  12.638  28.609   2.417
32232W        W91526  19.728  40.383  13.951
32233W        W91527   3.828  15.690   4.639
32234W        W91528  30.022  35.377   1.835
32235W        W91529  19.650  37.555  12.877
32236W        W91530  11.301  28.005  14.017
32237W        W91531  13.285  42.525  11.088
32238W        W91532  24.088  27.487   2.405
32239W        W91533   7.238  15.711  10.889
32240W        W91534  40.940  27.676   2.661
32241W        W91535  37.900  34.019  12.085
32242W        W91536   6.205  10.378   4.778
32243W        W91537  17.736  34.526   4.207
32244W        W91538  18.737  43.848  10.493
32245W        W91539  35.365  33.505   2.885
32246W        W91540  43.500   6.397  10.136
32247W        W91541   8.802  16.708  11.915
32248W        W91542  35.054   9.687  13.308
32249W        W91543  39.488  34.937  11.090
32250W        W91544  16.762  10.321   3.297
32251W        W91545  24.073  19.280  12.506
32252W        W91546  31.540  34.898   3.793
32253W        W91547  11.252  21.661  10.464
32254W        W91548  38.944  21.020  10.978
32255W        W91549  28.647  20.142   3.721
32256W        W91550  11.850  39.448   2.349
32257W        W91551  14.122  39.852   3.181
32258W        W91552  43.770   6.921   3.809
32259W        W91553  25.591   2.435  12.976
32260W        W91554  12.145   9.185   2.819
32261W        W91555  19.071  29.619   3.342
32262W        W91556   2.374   7.676  10.920
32263W        W91557  16.799  38.349  10.969
32264W        W91558  18.757  27.556  14.303
32265W        W91559  10.325  24.032   0.300
32266W        W91560  23.719  35.977  13.992
32267W        W91561  26.039  21.093  11.982
32268W        W91562  38.847  28.981  10.639
32269W        W91563   3.275  29.550   0.407
32270W        W91564  27.502  14.804  14.944
32271W        W91565  42.374  25.035  11.117
32272W        W91566  15.122   3.223  14.369
32273W        W91567  17.144  13.748  13.410
32274W        W91568  25.045   5.439   3.636
32275W        W91569  29.503  22.656   4.755
32276W        W91570  29.604  30.947   3.218
32277W        W91571  20.694   3.397   3.725
32278W        W91572  44.440  29.593  10.631
32279W        W91573  36.065  37.946   2.271
32280W        W91574  12.824  37.835  14.775
32281W        W91575  25.698  35.918   3.648
32282W        W91576  28.468  10.678   0.778
32283W        W91577   7.384  39.470  14.921
32284W        W91578   7.295  33.544   2.222
32285W        W91579  10.643  23.516  13.028
32286W        W91580  38.074  36.520  13.876
32287W        W91581  27.574  44.758  11.458
32288W        W91582  18.246   4.736   3.197
32289W        W91583   7.865  40.512  12.013
32290W        W91584  14.100  12.750   1.833
32291W        W91585  30.585  37.967  11.000
32292W        W91586   1.809  41.341   3.305
32293W        W91587  23.040  23.625  13.902
32294W        W91588  14.232  39.061  14.863
32295W        W91589   9.181   2.848  11.606
32296W        W91590   3.949  21.519  12.364
32297W        W91591  33.077   7.382   4.813
32298W        W91592   5.689  25.170  13.316
32299W        W91593  21.175  32.392   1.225
32300W        W91594  35.414  44.280   4.669
32301W        W91595  25.183  10.655   0.768
32302W        W91596  20.765   7.405   1.932
32303W        W91597  20.082  21.206   1.262
32304W        W91598  44.948  15.808  13.877
32305W        W91599  44.269   3.793   1.399
32306W        W91600   1.953  22.136   0.304
32307W        W91601  22.656  40.003   3.867
32308W        W91602  10.680   2.786  11.102
32309W        W91603  14.673  37.850   1.447
32310W        W91604  41.861  22.014   4.202
32311W        W91605  39.862  41.898   1.373
32312W        W91606  12.818  16.093   4.667
32313W        W91607  40.973  44.315   4.826
32314W        W91608  29.446   4.351   1.320
32315W        W91609   8.870   8.793   2.765
32316W        W91610  42.440   1.434  11.940
32317W        W91611   2.361  23.565  11.466
32318W        W91612  33.434  27.690   0.477
32319W        W91613   3.391  26.146  13.949
32320W        W91614  44.275  26.965  13.322
32321W        W91615  41.895   2.775  14.863
32322W        W91616  20.677  29.599   2.239
32323W        W91617  38.554   3.449  14.004
32324W        W91618  11.256  16.313  11.400
32325W        W91619  44.287   1.816  14.977
32326W        W91620  39.841  41.905  10.465
32327W        W91621   5.240  10.283   4.161
32328W        W91622  13.294  44.962  14.949
32329W        W91623  12.691  21.732   4.294
32330W        W91624  11.136   0.858  12.935
32331W        W91625   2.254   8.750   0.336
32332W        W91626  18.687   4.836   2.722
32333W        W91627  16.753  33.435   2.861
32334W        W91628  43.810  25.981  13.862
32335W        W91629  12.285  44.501  13.397
32336W        W91630   2.815  25.703   1.293
32337W        W91631  29.072  34.990   1.451
32338W        W91632  32.992  32.485   1.254
32339W        W91633  14.255  40.520   2.376
32340W        W91634  26.544   9.328  11.973
32341W        W91635  16.570  42.510   4.320
32342W        W91636  43.947  30.539   2.810
32343W        W91637  28.502  11.629  13.373
32344W        W91638  42.855  10.341  11.907
32345W        W91639  40.905  32.966   0.303
32346W        W91640   4.411  42.868  10.586
32347W        W91641  32.918  17.277  14.293
32348W        W91642  38.033  11.316   4.266
32349W        W91643  39.421  20.205   2.822
32350W        W91644   2.349   7.688  13.022
32351W        W91645  16.283  26.641  14.761
32352W        W91646  14.096  10.374   2.896
32353W        W91647  32.924  12.669  13.850
32354W        W91648  15.725  40.799  11.525
32355W        W91649   7.878   7.180   9.992
32356W        W91650  12.643  22.085   2.893
32357W        W91651  12.293  36.865  11.889
32358W        W91652  32.076  15.626  14.439
32359W        W91653  33.613  15.624  13.351
32360W        W91654  26.124   8.804   9.621
32361W        W91655   2.335  15.625   1.318
32362W        W91656   3.773  25.994  11.043
32363W        W91657  25.130  27.461  14.363
32364W        W91658  25.608  18.725   0.902
32365W        W91659  35.878  18.234  11.390
32366W        W91660   9.715  39.374   2.759
32367W        W91661  41.356  26.577  10.460
32368W        W91662  38.472  24.528   0.449
32369W        W91663  29.980  38.396   5.719
32370W        W91664  17.640  25.639   4.673
32371W        W91665  15.173  38.915  12.852
32372W        W91666  37.391  14.267   9.941
32373W        W91667  18.664  11.234  10.603
32374W        W91668  36.524  43.463   3.248
32375W        W91669  29.619   8.796   4.256
32376W        W91670  30.494   1.756   3.345
32377W        W91671  22.081  43.374   3.269
32378W        W91672  42.366  38.069  12.865
32379W        W91673  28.954  42.897   2.843
32380W        W91674  16.156   7.682   1.217
32381W        W91675  12.348  23.209  13.855
32382W        W91676  22.553  11.641   3.364
32383W        W91677   7.339   8.752  11.111
32384W        W91678  24.050   1.758   1.757
32385W        W91679  34.428  28.514  12.394
32386W        W91680  26.080   4.246  12.034
32387W        W91681  11.255  24.974   3.321
32388W        W91682  28.185   8.830  12.085
32389W        W91683  18.123  15.636   2.351
32390W        W91684  17.565  14.312  10.965
32391W        W91685   3.444  28.519  13.353
32392W        W91686  42.437  28.462   3.181
32393W        W91687  27.500  29.979   3.814
32394W        W91688   4.898  31.460   4.689
32395W        W91689  20.105   5.906   0.840
32396W        W91690  12.775  23.228  13.920
32397W        W91691  30.488  36.007  10.475
32398W        W91692  44.343  37.375   1.277
32399W        W91693  23.650  24.206  10.564
32400W        W91694   4.944  11.138   0.258
32401W        W91695  43.486  28.650   1.890
32402W        W91696   8.303  19.631  13.863
32403W        W91697  36.925  43.804   0.841
32404W        W91698  41.972  22.209  14.911
32405W        W91699  33.977  10.770  12.021
32406W        W91700  13.234  31.621   0.736
32407W        W91701  30.969  23.037   2.704
32408W        W91702  26.099  31.104  12.918
32409W        W91703  25.633  39.455   2.386
32410W        W91704  36.544  19.229   1.381
32411W        W91705  21.664   1.410  13.918
32412W        W91706  15.230  41.349   0.328
32413W        W91707   9.156  23.509   3.348
32414W        W91708  44.404  40.504   1.838
32415W        W91709   1.403   6.817  11.578
32416W        W91710  12.767  21.621   1.317
32417W        W91711   5.784  25.563  12.489
32418W        W91712  30.448   1.808  13.950
32419W        W91713   0.329  29.983  10.551
32420W        W91714  44.300   6.822  10.574
32421W        W91715  17.286  35.372  12.823
32422W        W91716  18.769  16.720  10.931
32423W        W91717   4.836  14.111   2.857
32424W        W91718   6.811  28.163  12.930
32425W        W91719   7.870  38.481  14.832
32426W        W91720   9.170  43.952   4.349
32427W        W91721  22.033  22.707   2.850
32428W        W91722  29.637  40.031  12.565
32429W        W91723  17.680   4.256  12.489
32430W        W91724   2.960  37.553  14.504
32431W        W91725  17.565  29.543   2.288
32432W        W91726  22.547  24.126   1.759
32433W        W91727  29.174  24.040  14.917
32434W        W91728  23.133  17.235   3.746
32435W        W91729  34.897  33.912   1.839
32436W        W91730  28.513  17.103   2.711
32437W        W91731  44.855  43.007   0.899
32438W        W91732  41.458  37.998   1.310
32439W        W91733  11.636  30.598   4.703
32440W        W91734  16.189   6.730   0.859
32441W        W91735   9.388  36.460   0.931
32442W        W91736   0.776  25.690  10.962
32443W        W91737   0.918   7.318   4.664
32444W        W91738  19.209  26.618   1.309
32445W        W91739  25.093  20.544  11.057
32446W        W91740  33.483  18.563   0.814
32447W        W91741   8.252   0.825   0.890
32448W        W91742  14.810   3.273  11.911
32449W        W91743  27.564  36.074  10.507
32450W        W91744   0.309  26.142  11.066
32451W        W91745  32.086  22.704  14.469
32452W        W91746   1.354  29.590   3.201
32453W        W91747  14.749   0.379  10.488
32454W        W91748   9.180  15.717  11.433
32455W        W91749  21.035  14.703  11.589
32456W        W91750  29.584   0.905   1.231
32457W        W91751  24.167  40.463  11.942
32458W        W91752  39.558   4.365  14.964
32459W        W91753  41.839  39.959   4.154
32460W        W91754  32.963  37.834   3.856
32461W        W91755   1.328  44.261  12.512
32462W        W91756  39.429  15.752   0.847
32463W        W91757  27.096  43.924   2.390
32464W        W91758  42.349   8.750  10.630
32465W        W91759  17.212  42.430  12.868
32466W        W91760  43.961  43.515  13.015
32467W        W91761  30.916  23.148  13.403
32468W        W91762  22.573  10.347   0.754
32469W        W91763  23.076   6.215   0.856
32470W        W91764  19.148  14.100   4.673
32471W        W91765   6.360   7.400  11.400
32472W        W91766  30.939  35.586  12.374
32473W        W91767   2.365  26.571   2.715
32474W        W91768   0.461  26.614   3.788
32475W        W91769  24.609   3.297   2.233
32476W        W91770  19.747  42.967  13.352
32477W        W91771   4.407  21.155   5.146
32478W        W91772  31.436  27.539  14.796
32479W        W91773  18.687   6.908  11.511
32480W        W91774   6.264  39.468  11.114
32481W        W91775  33.603  17.785   0.773
32482W        W91776  22.065  15.276   4.686
32483W        W91777  25.469  43.982  10.979
32484W        W91778  42.425  37.553   3.368
32485W        W91779  30.440  38.865   2.810
32486W        W91780  36.942  24.107  10.548
32487W        W91781  13.659   8.284  12.490
32488W        W91782  16.640  27.105  13.015
32489W        W91783  32.390  30.427   2.216
32490W        W91784  12.334  40.017   2.794
32491W        W91785  33.877  28.061  13.463
32492W        W91786  18.152  31.603  10.479
32493W        W91787  32.631  14.335   0.873
32494W        W91788   0.256   8.405  14.954
32495W        W91789  26.086  39.474  10.617
32496W        W91790  36.491  36.443  12.872
32497W        W91791  40.543  23.610   3.723
32498W        W91792  23.517   6.861   4.650
32499W        W91793  35.539  10.706  13.860
32500W        W91794   7.325   2.344   2.800
32501W        W91795  11.670   7.236   0.931
32502W        W91796   6.266  25.679  12.832
32503W        W91797  26.629  43.399   4.172
32504W        W91798  33.414  40.433  14.460
32505W        W91799   6.901  29.174  11.120
32506W        W91800  41.949  11.281  10.468
32507W        W91801   8.160  44.360  11.055
32508W        W91802  37.886  13.787  11.446
32509W        W91803  14.794  42.777  12.477
32510W        W91804   4.867  32.107   2.380
32511W        W91805   0.782  20.697  12.505
32512W        W91806  32.582  37.856   4.656
32513W        W91807  25.104  44.489   1.816
32514W        W91808  15.228  15.692   1.415
32515W        W91809  17.235  11.706   0.892
32516W        W91810   4.834  18.650  13.497
32517W        W91811  38.538   2.258  13.912
32518W        W91812   4.401  27.603   3.735
32519W        W91813  40.518  24.661  11.426
32520W        W91814  26.596  41.404  14.277
32521W        W91815  21.156  15.191   4.695
32522W        W91816  24.710  10.300   5.614
32523W        W91817  25.140  32.044   4.199
32524W        W91818  38.059  13.114  10.476
32525W        W91819   5.854  26.126  14.471
32526W        W91820  32.960  40.016  14.781
32527W        W91821  28.630  11.653  13.977
32528W        W91822  44.845  15.119  14.831
32529W        W91823  11.205  37.482   4.675
32530W        W91824  42.812  17.569  13.518
32531W        W91825  24.560   3.759   1.419
32532W        W91826  14.228  14.802  13.503
32533W        W91827  36.846  14.127  11.905
32534W        W91828  15.744   4.814  13.492
32535W        W91829  23.537  15.669  12.574
32536W        W91830  42.831  44.464  14.459
32537W        W91831  41.974  20.707  14.398
32538W        W91832  17.139  20.605   3.265
32539W        W91833   3.239  34.959  10.924
32540W        W91834   3.443  25.480  13.310
32541W        W91835  38.381   4.704  12.959
32542W        W91836  34.371  42.781   2.412
32543W        W91837  29.625  38.441  12.413
32544W        W91838   6.700  15.670  11.439
32545W        W91839  23.729  10.752   1.238
32546W        W91840  10.661  40.897  13.353
32547W        W91841  27.037  24.045  11.425
32548W        W91842  43.381  21.241   5.208
32549W        W91843  23.525  32.903  12.061
32550W        W91844  11.367  39.382   0.471
32551W        W91845   9.770  43.283   1.326
32552W        W91846  12.259   9.158   3.860
32553W        W91847   2.333  25.598  14.907
32554W        W91848  14.327  21.041   3.857
32555W        W91849  15.757   5.385   1.357
32556W        W91850  31.484  39.046  14.307
32557W        W91851  33.083  15.119   4.332
32558W        W91852   4.872  14.761   1.923
32559W        W91853  24.702   0.396  13.956
32560W        W91854  25.087   4.804   4.292
32561W        W91855  38.849  15.317   1.828
32562W        W91856  34.564   0.786  12.987
32563W        W91857  31.106  42.445   1.916
32564W        W91858  35.001  34.972  11.049
32565W        W91859  31.089  19.283  11.378
32566W        W91860  28.158  17.160   0.378
32567W        W91861  44.998  33.016   1.855
32568W        W91862  19.599   3.261   0.940
32569W        W91863   6.291   9.818   2.880
32570W        W91864   6.275  22.007   3.718
32571W        W91865  17.225  38.412  13.411
32572W        W91866  31.940  30.588  11.939
32573W        W91867  23.159  30.003   3.708
32574W        W91868  34.387  35.963  14.799
32575W        W91869  22.564   6.782  12.030
32576W        W91870  24.491  20.687   4.175
32577W        W91871  16.658  29.620   2.188
32578W        W91872  25.180  19.053  13.385
32579W        W91873   8.363   4.205  10.630
32580W        W91874   2.432  11.200   4.621
32581W        W91875  13.613  25.079   4.612
32582W        W91876  31.084  44.938  14.400
32583W        W91877   7.740  11.647   3.778
32584W        W91878   1.849  35.951   4.289
32585W        W91879  15.608  31.906   1.298
32586W        W91880  26.507  25.710   0.416
32587W        W91881  35.904  15.131   2.812
32588W        W91882  38.936  40.834  12.475
32589W        W91883  20.213  29.602  14.405
32590W        W91884  17.248  38.518  14.325
32591W        W91885  29.122   1.853   3.683
32592W        W91886  29.492  29.551   3.169
32593W        W91887  17.096   0.845   4.684
32594W        W91888  25.120   1.839   1.825
32595W        W91889  23.123   0.960   2.797
32596W        W91890  31.960  39.534   0.272
32597W        W91891   2.234  16.236  12.093
32598W        W91892  13.668  42.420   1.778
32599W        W91893  25.004   6.362  11.576
32600W        W91894  42.476  28.074  13.531
32601W        W91895   0.931  32.918  12.426
32602W        W91896  12.763  31.987   4.818
32603W        W91897  39.387  20.264   4.790
32604W        W91898  16.228   0.436   0.813
32605W        W91899  23.036  18.252   2.663
32606W        W91900  12.354  19.719  12.994
32607W        W91901  20.127  14.678  14.816
32608W        W91902  39.821  24.200   0.965
32609W        W91903  35.546   8.192  12.995
32610W        W91904   3.775  31.925   0.352
32611W        W91905  37.416  22.658   3.774
32612W        W91906  38.010  32.565   0.736
32613W        W91907  40.933  10.309   3.163
32614W        W91908  23.703  38.872  11.587
32615W        W91909   4.345  11.309  12.023
32616W        W91910   1.274  33.480  12.528
32617W        W91911  44.288  38.524   3.272
32618W        W91912  31.415  41.877  14.492
32619W        W91913  13.837  41.820   2.196
32620W        W91914  34.920   1.848  10.135
32621W        W91915  22.609  10.174  11.898
32622W        W91916  38.942  10.763   9.597
32623W        W91917  31.990  15.788  12.567
32624W        W91918  26.676  20.110  10.963
32625W        W91919  17.080  32.487   2.313
32626W        W91920  34.033  19.264   4.670
32627W        W91921  25.554  34.422   1.234
32628W        W91922  34.966  14.796  12.006
32629W        W91923  20.219   6.326   4.269
32630W        W91924   8.860   5.828  10.466
32631W        W91925   1.855  42.990   1.286
32632W        W91926  28.169  37.549  13.405
32633W        W91927  39.928  31.531   3.147
32634W        W91928  25.635  37.411  12.828
32635W        W91929   4.898  38.466  11.856
32636W        W91930   8.680  20.577  13.433
32637W        W91931  24.120  10.348  13.918
32638W        W91932  39.843   7.319   3.750
32639W        W91933  11.310  36.905  14.816
32640W        W91934  41.326  31.146  13.311
32641W        W91935  16.094   1.801  11.601
32642W        W91936  16.785  34.985  11.891
32643W        W91937  30.975  14.808   3.643
32644W        W91938   4.294  24.642   2.844
32645W        W91939  44.401  30.042   0.730
32646W        W91940  29.093  13.814  14.903
32647W        W91941  33.080  41.418  14.450
32648W        W91942  43.987  14.662  13.387
32649W        W91943  13.210  22.629  10.634
32650W        W91944   8.673  29.011   3.177
32651W        W91945   5.436  31.018   4.734
32652W        W91946   4.262  14.682   2.381
32653W        W91947  15.730  26.983  12.364
32654W        W91948  39.527  42.430  10.604
32655W        W91949   2.394   6.853  10.487
32656W        W91950   1.434  10.357   2.239
32657W        W91951  30.583  21.130   0.438
32658W        W91952   5.887  26.617   0.246
32659W        W91953  28.931  23.074   0.938
32660W        W91954  12.274  30.137  13.327
32661W        W91955  19.617   9.813  11.014
32662W        W91956   2.764  43.348   3.772
32663W        W91957  28.561  18.063  14.437
32664W        W91958  11.758  21.162   0.894
32665W        W91959  38.407  35.058   2.821
32666W        W91960  18.131   5.718   4.757
32667W        W91961  33.088   6.676   4.237
32668W        W91962   0.746  32.483   3.675
32669W        W91963   2.881  22.504   3.675
32670W        W91964  15.689  23.579   2.338
32671W        W91965  44.868  17.727   2.890
32672W        W91966  12.673  13.247  10.448
32673W        W91967  34.481  19.273  12.406
32674W        W91968   7.209  32.432  11.907
32675W        W91969   1.886  21.148  13.310
32676W        W91970  31.560  44.877  11.047
32677W        W91971  12.355  32.976   3.334
32678W        W91972   5.807  32.412   9.966
32679W        W91973   0.356  13.166   2.347
32680W        W91974  22.105  42.436   2.396
32681W        W91975  31.517  31.473  11.587
32682W        W91976   2.330  29.548  14.999
32683W        W91977   5.835  26.502  13.921
32684W        W91978  36.989  18.199  11.381
32685W        W91979  41.433  42.971   1.219
32686W        W91980  36.035  41.026  13.444
32687W        W91981  37.978  32.099   2.319
32688W        W91982  25.099  29.628   3.776
32689W        W91983  41.890  28.151   0.366
32690W        W91984  19.697  44.361   1.217
32691W        W91985  27.943  16.114   0.939
32692W        W91986   7.854   1.932   4.662
32693W        W91987  35.498  35.563  12.557
32694W        W91988  37.388  43.320   3.782
32695W        W91989   8.358  29.130  10.042
32696W        W91990   3.334  42.452   3.673
32697W        W91991  38.955  34.482  13.917
32698W        W91992  11.807   6.379   4.684
32699W        W91993  32.471  34.584  10.979
32700W        W91994  16.213   8.224  12.071
32701W        W91995  36.382  32.574   0.840
32702W        W91996   4.228  37.493  14.468
32703W        W91997  30.428   2.268  13.824
32704W        W91998   7.220  26.115  14.932
32705W        W91999  26.966  12.192  14.307
32706W        W92000   2.464   4.925  13.531
32707W        W92001  44.864  15.663  11.863
32708W        W92002  31.080   5.341  11.496
32709W        W92003  13.609   9.678   0.793
32710W        W92004  24.528   6.311  11.872
32711W        W92005  11.691  29.593   3.671
32712W        W92006  31.031  40.887   4.120
32713W        W92007  41.788   9.166   3.767
32714W        W92008  30.463   7.282   1.305
32715W        W92009  16.297  37.482   4.815
32716W        W92010  15.223  14.604   4.219
32717W        W92011  25.518  37.366   0.749
32718W        W92012  12.349  10.157   3.255
32719W        W92013  16.220   1.407  14.317
32720W        W92014  41.492  25.138  12.868
32721W        W92015   4.441  19.701   4.652
32722W        W92016  17.775   0.266   2.330
32723W        W92017  31.495  31.100   0.767
32724W        W92018  13.209  34.540   2.671
32725W        W92019  37.985   0.744  14.898
32726W        W92020  37.005  38.445  11.994
32727W        W92021   7.704  21.640   3.182
32728W        W92022   8.825  34.405  14.921
32729W        W92023  25.103  24.079   3.732
32730W        W92024   2.860  24.545   0.348
32731W        W92025  36.510  44.808  12.384
32732W        W92026  39.893  38.052   3.848
32733W        W92027   8.875   3.386   3.770
32734W        W92028  20.670   0.481  13.334
32735W        W92029  25.164  14.317  14.435
32736W        W92030  14.198  15.761  11.094
32737W        W92031  35.876   8.232   3.279
32738W        W92032   7.857  33.538  14.817
32739W        W92033  38.355  38.436   4.782
32740W        W92034  29.499  21.582  13.486
32741W        W92035  33.052  38.835  10.558
32742W        W92036  39.432   0.850  11.875
32743W        W92037   8.683  12.729  14.978
32744W        W92038  29.144  42.357  14.791
32745W        W92039  21.677   6.304   2.256
32746W        W92040   0.869  11.256  14.026
32747W        W92041   5.433  12.280  14.310
32748W        W92042  23.040  13.786  12.500
32749W        W92043  37.991  32.515  10.427
32750W        W92044  35.373  16.804   0.361
32751W        W92045  36.490   7.777  12.849
32752W        W92046  43.823  22.118  10.465
32753W        W92047  42.515  39.508   4.600
32754W        W92048  10.694  25.991   4.188
32755W        W92049  25.588   6.397   1.403
32756W        W92050  32.627  33.514   0.746
32757W        W92051  19.099  37.908  10.530
32758W        W92052  17.291  15.715  10.541
32759W        W92053  18.151  36.894   1.431
32760W        W92054  27.170  27.063  12.540
32761W        W92055  33.007   0.954   2.411
32762W        W92056  24.557  21.705   1.766
32763W        W92057  23.644  39.057   2.357
32764W        W92058   3.229  18.788   4.170
32765W        W92059  35.596   4.210   3.716
32766W        W92060   6.316  15.326   2.800
32767W        W92061  37.523  34.370   1.922
32768W        W92062  27.636  22.717   4.214
32769W        W92063  36.991  34.103  13.830
32770W        W92064  43.271  16.228   4.681
32771W        W92065  11.314  32.420   2.399
32772W        W92066   6.394  21.626   2.302
32773W        W92067   1.287  15.225  12.419
32774W        W92068  16.776  31.579   4.746
32775W        W92069   5.700  27.475  11.400
32776W        W92070  29.435  23.697  14.312
32777W        W92071  20.687  23.011  14.437
32778W        W92072  32.518  20.561   4.619
32779W        W92073  27.586  12.250   0.795
32780W        W92074  37.889  16.642  13.836
32781W        W92075  24.148  44.304   1.332
32782W        W92076   0.455  20.645   4.699
32783W        W92077  11.229  20.660  13.315
32784W        W92078  34.514   6.199   9.989
32785W        W92079  22.227   8.189   2.306
32786W        W92080  41.969   8.787  12.090
32787W        W92081  28.114   1.258   0.892
32788W        W92082  16.722  14.233   1.855
32789W        W92083   3.440  28.097  11.000
32790W        W92084  41.839  34.982  10.115
32791W        W92085  31.636  23.724  10.976
32792W        W92086  35.108   5.419   0.466
32793W        W92087   9.718  11.279   3.178
32794W        W92088   8.348   0.259   0.266
32795W        W92089  42.953  11.157   4.636
32796W        W92090  12.262  41.477   4.663
32797W        W92091  10.339  19.540   3.771
32798W        W92092   9.783   2.226  11.931
32799W        W92093  38.066  11.863   1.338
32800W        W92094  12.662   6.740   3.860
32801W        W92095  35.483  19.089   0.771
32802W        W92096  10.742  43.394  12.344
32803W        W92097   6.216  40.978  10.936
32804W        W92098   7.823  17.248  14.476
32805W        W92099  44.925  20.236  11.951
32806W        W92100  32.404  19.064   0.872
32807W        W92101  42.925  11.813  14.887
32808W        W92102   3.876  15.628   5.132
32809W        W92103  34.587  43.812  11.442
32810W        W92104  27.024   7.848   3.221
32811W        W92105  32.409  20.605   3.855
32812W        W92106  24.558   8.301  12.557
32813W        W92107  44.932  18.133  10.474
32814W        W92108  34.877  24.103   3.801
32815W        W92109  34.999  41.415  13.864
32816W        W92110  33.477  12.687   3.211
32817W        W92111  37.038  23.064  14.771
32818W        W92112  36.418   0.911  13.346
32819W        W92113   3.224  43.839  10.092
32820W        W92114  27.661  42.280  13.446
32821W        W92115  41.339  43.889  11.940
32822W        W92116  30.139  32.468   0.783
32823W        W92117  17.188  10.849   1.399
32824W        W92118  17.138  31.562   0.794
32825W        W92119  33.944  20.262  10.625
32826W        W92120  34.971   8.173  12.412
32827W        W92121  37.412  30.540  11.518
32828W        W92122  35.380  44.862   2.663
32829W        W92123  40.848  27.122   2.730
32830W        W92124   2.326  23.101   1.214
32831W        W92125  24.670  44.437  10.630
32832W        W92126  44.409  18.570   5.298
32833W        W92127   4.914  37.019  14.382
32834W        W92128  28.069  37.069  14.303
32835W        W92129  11.198   8.806  10.492
32836W        W92130  11.340  23.226  13.056
32837W        W92131  10.349  25.548  12.566
32838W        W92132  42.905  10.642   2.738
32839W        W92133  26.583  40.472  11.550
32840W        W92134   9.208  37.017  11.468
32841W        W92135  24.602  24.060  11.433
32842W        W92136  20.169   3.759   2.307
32843W        W92137   4.813  22.130  11.113
32844W        W92138  44.273   6.731   4.269
32845W        W92139   9.272  41.856   1.766
32846W        W92140  39.828  38.337  13.013
32847W        W92141  13.323   4.710  10.619
32848W        W92142  17.604  14.277  14.990
32849W        W92143   0.813  10.317   0.358
32850W        W92144   9.368  23.686  14.857
32851W        W92145  10.679   6.905   1.212
32852W        W92146  35.373   8.333  13.314
32853W        W92147  33.024  19.740  12.077
32854W        W92148  10.774  34.389   5.111
32855W        W92149  25.567   7.820  13.898
32856W        W92150  24.066   8.346  12.829
32857W        W92151   4.799  17.758  10.064
32858W        W92152   5.746  33.432   3.212
32859W        W92153  32.504  22.710  11.001
32860W        W92154  31.529  10.655  13.806
32861W        W92155  35.378   9.165  12.020
32862W        W92156  40.414  32.545  10.569
32863W        W92157  27.150   6.850   1.265
32864W        W92158  36.561   1.420  10.440
32865W        W92159  22.094   8.195   5.719
32866W        W92160   9.263  31.085  12.026
32867W        W92161  43.963  42.336  14.764
32868W        W92162  30.461   1.372  13.932
32869W        W92163  17.725  38.044  14.505
32870W        W92164  26.628   5.894   1.294
32871W        W92165  24.586  11.134  10.110
32872W        W92166   6.356   2.360   3.202
32873W        W92167  14.810  28.134  10.524
32874W        W92168  12.119  29.980  12.867
32875W        W92169  15.099   8.681   0.350
32876W        W92170  37.469  18.133  11.893
32877W        W92171  18.194  15.147   1.270
32878W        W92172  41.822  19.547   4.705
32879W        W92173  13.635  37.840   1.239
32880W        W92174  26.531  38.553  11.954
32881W        W92175  42.482  36.456   1.365
32882W        W92176  36.518  40.549   0.252
32883W        W92177   5.891  22.158   1.716
32884W        W92178  40.964   8.784  11.122
32885W        W92179  40.896  13.116  11.587
32886W        W92180   3.904  43.985  11.905
32887W        W92181  25.988   4.736  14.456
32888W        W92182  24.208  34.444   4.322
32889W        W92183  29.142  35.377  10.612
32890W        W92184  15.731  29.165  10.033
32891W        W92185  43.951  41.876   1.734
32892W        W92186   6.900  38.395  13.849
32893W        W92187  24.990  34.878   0.473
32894W        W92188  25.586  11.793   0.387
32895W        W92189  17.791  15.751  10.025
32896W        W92190  19.166  22.538  11.562
32897W        W92191  19.539   8.707   3.790
32898W        W92192  11.828   1.351  12.901
32899W        W92193  27.495  37.954  12.527
32900W        W92194   6.707  36.393  12.938
32901W        W92195  10.280  16.291   4.161
32902W        W92196   8.782  33.402   0.816
32903W        W92197  36.560  25.141  11.058
32904W        W92198   4.910  27.179   4.600
32905W        W92199   9.786  31.970  10.632
32906W        W92200  39.553  26.590   3.326
32907W        W92201   8.850   1.371   0.864
32908W        W92202  15.124  16.716  10.005
32909W        W92203  18.658   9.207   0.418
32910W        W92204  10.368  26.580  14.850
32911W        W92205  16.282  36.086  11.102
32912W        W92206  34.439  29.592  13.023
32913W        W92207  42.871  29.547  14.441
32914W        W92208   8.708   6.702   2.838
32915W        W92209   9.200  13.193  11.903
32916W        W92210  38.873  23.553  11.537
32917W        W92211   2.879   2.774   3.849
32918W        W92212  44.929  15.792   4.710
32919W        W92213  23.162  33.542  14.935
32920W        W92214  34.500  28.598   4.706
32921W        W92215  39.998  20.064   2.856
32922W        W92216  12.220  21.651  13.803
32923W        W92217  16.164  40.905  14.389
32924W        W92218  24.202  19.712   1.330
32925W        W92219  44.761   3.946   5.605
32926W        W92220  40.940   4.406  12.950
32927W        W92221  24.128  34.435   0.245
32928W        W92222  18.547  11.183   4.116
32929W        W92223  41.455  34.064   0.446
32930W        W92224  14.240  40.910  11.891
32931W        W92225   4.382  23.100   9.596
32932W        W92226  19.087  40.969  11.900
32933W        W92227  41.032  44.965   1.263
32934W        W92228   8.260  40.840  10.596
32935W        W92229  27.524  38.397   2.359
32936W        W92230   3.813  24.165   4.198
32937W        W92231  28.969  37.917  11.550
32938W        W92232  32.956  24.694  11.910
32939W        W92233  31.065   9.368   0.904
32940W        W92234  25.196  31.478   3.763
32941W        W92235  28.985  25.473   4.730
32942W        W92236  31.954  20.240  13.966
32943W        W92237  12.806   4.265   2.269
32944W        W92238  10.815  10.147   1.247
32945W        W92239  28.531  15.765   3.833
32946W        W92240  33.608  37.514   0.845
32947W        W92241   7.319  27.491  13.346
32948W        W92242   5.921  30.119  14.966
32949W        W92243  12.263   3.908   0.771
32950W        W92244  23.730  27.044  12.837
32951W        W92245  20.124  12.238   1.371
32952W        W92246   9.844   8.778   3.844
32953W        W92247  11.214  44.459   3.680
32954W        W92248  14.798  40.014  11.015
32955W        W92249  26.992   7.196   1.721
32956W        W92250  13.300   7.871  14.509
32957W        W92251  20.683  32.066  14.319
32958W        W92252  35.098   4.251  13.828
32959W        W92253  39.357  44.283  14.780
32960W        W92254  23.217  28.446   0.478
32961W        W92255   4.390  26.176   1.284
32962W        W92256  44.952  22.576  12.881
32963W        W92257  27.141   6.391  11.591
32964W        W92258  35.575  44.928   4.738
32965W        W92259  35.005  24.020  11.542
32966W        W92260  17.091  24.567  13.860
32967W        W92261  25.160   3.339   4.231
32968W        W92262   8.221  42.953   9.964
32969W        W92263  31.638  24.674  13.935
32970W        W92264   8.352   6.235  14.337
32971W        W92265  10.877  16.760  12.491
32972W        W92266  39.025   8.304  13.905
32973W        W92267  28.985   1.848   4.792
32974W        W92268  33.057  39.380   3.655
32975W        W92269  43.473  22.141  10.490
32976W        W92270   7.267  11.673   0.771
32977W        W92271  22.245   5.194   2.319
32978W        W92272  22.197  42.817  10.585
32979W        W92273  15.202  35.417   0.256
32980W        W92274  37.942  16.575   2.231
32981W        W92275   7.697  41.362   0.941
32982W        W92276  11.730  26.671   2.226
32983W        W92277  10.320   8.883   5.202
32984W        W92278  12.627  26.639   0.247
32985W        W92279   3.307  27.190  14.472
32986W        W92280   2.404  42.975   3.679
32987W        W92281  35.406  42.381  14.307
32988W        W92282  44.328  18.613  12.508
32989W        W92283  20.745  20.178   1.377
32990W        W92284  21.565  33.614  13.851
32991W        W92285  36.996  39.404   4.637
32992W        W92286  23.591  21.513   0.344
32993W        W92287  25.120   2.399  14.400
32994W        W92288   7.815  28.007  14.455
32995W        W92289  29.991  39.860  10.634
32996W        W92290  39.912  36.025  14.861
32997W        W92291   3.276  19.705   1.341
32998W        W92292  38.475  39.560  10.478
32999W        W92293  38.846   9.322  13.939
33000W        W92294  39.330   7.666  14.464
33001W        W92295  43.799  15.611  11.551
33002W        W92296   0.836  18.148  11.974
33003W        W92297  13.330  28.649  12.998
33004W        W92298  32.445  43.355  12.076
33005W        W92299  34.584  41.801  14.963
33006W        W92300  38.821   9.885   2.842
33007W        W92301  26.110  19.702   1.907
33008W        W92302  28.957  26.699   2.829
33009W        W92303  14.668   2.238   4.711
33010W        W92304  35.926  24.218  10.939
33011W        W92305  13.747  11.698   4.669
33012W        W92306  20.619  34.517   2.215
33013W        W92307  33.541  21.576   4.207
33014W        W92308  11.253  20.535  12.962
33015W        W92309  21.536   1.918  13.311
33016W        W92310  31.099  35.002   4.837
33017W        W92311  18.175  14.162   1.400
33018W        W92312  41.491  34.475   1.364
33019W        W92313  27.598  11.300  10.608
33020W        W92314   6.384  10.210  10.904
33021W        W92315  35.467  29.025  12.438
33022W        W92316  17.754  34.611   3.206
33023W        W92317  38.872  42.305   4.185
33024W        W92318  21.043  20.707   0.290
33025W        W92319  28.074  32.137  11.409
33026W        W92320  11.867  41.364   3.281
33027W        W92321  11.673   7.791  11.448
33028W        W92322  10.652  36.065  11.999
33029W        W92323  19.569  44.806   2.871
33030W        W92324  15.659  21.533   0.295
33031W        W92325  15.681   1.312   4.217
33032W        W92326  25.055  35.546  12.376
33033W        W92327  18.578  44.259  11.037
33034W        W92328   5.428  10.726  14.405
33035W        W92329  25.100   9.759  13.853
33036W        W92330  34.106  17.651  13.375
33037W        W92331  20.615   6.819   2.386
33038W        W92332  10.190  14.194   3.315
33039W        W92333  23.178  24.137   0.438
33040W        W92334   3.829  13.735  11.950
33041W        W92335   8.259  28.582   0.962
33042W        W92336  24.620  36.987  14.016
33043W        W92337  17.241   8.228  10.542
33044W        W92338  17.766  16.136   3.341
33045W        W92339  33.893  43.344   4.144
33046W        W92340  15.217  34.063   4.652
33047W        W92341  27.997  35.005   0.802
33048W        W92342  11.716   1.364   1.249
33049W        W92343  26.545   0.478  14.852
33050W        W92344   7.409  41.792   0.392
33051W        W92345  19.121  26.154   0.354
33052W        W92346  27.452  35.030  12.528
33053W        W92347  12.278  24.220   0.277
33054W        W92348  14.766   9.651   0.322
33055W        W92349  26.567  16.102  13.947
33056W        W92350  39.913   5.714   0.382
33057W        W92351  36.072  19.168  12.430
33058W        W92352   3.783  44.885  11.878
33059W        W92353  38.501   6.723  11.598
33060W        W92354  22.694  42.327   4.598
33061W        W92355   3.894   7.337   5.132
33062W        W92356  16.138  33.916   4.229
33063W        W92357  36.884  37.420   1.882
33064W        W92358  32.621  33.492  10.066
33065W        W92359   1.788  11.760   0.455
33066W        W92360  18.077   0.370  10.988
33067W        W92361  36.853  40.858   1.381
33068W        W92362  28.968  42.487   3.252
33069W        W92363  34.106  17.556   3.786
33070W        W92364   8.850  27.610   0.797
33071W        W92365  21.247  12.284   3.249
33072W        W92366   0.862   8.856   3.254
33073W        W92367  15.774   5.349  13.015
33074W        W92368  36.418  12.820   3.847
33075W        W92369  42.496  13.846   1.249
33076W        W92370  34.460  20.236  13.007
33077W        W92371  29.071  37.341  11.882
33078W        W92372  24.538  43.460  13.873
33079W        W92373  29.473  27.078   0.469
33080W        W92374  38.339  13.282   4.815
33081W        W92375  33.489  22.585   4.708
33082W        W92376  17.207  37.875  13.012
33083W        W92377  16.227  18.741   9.523
33084W        W92378  12.848   7.897   4.285
33085W        W92379  41.871  33.589   0.252
33086W        W92380   7.313  41.830   1.922
33087W        W92381  15.578  30.033  12.858
33088W        W92382  28.127  22.061  11.031
33089W        W92383  24.195   4.296   1.809
33090W        W92384  33.533  18.214   1.770
33091W        W92385  14.641  32.444  13.062
33092W        W92386  36.002  13.650  11.510
33093W        W92387  28.092  10.756   4.289
33094W        W92388  22.570  23.124   0.875
33095W        W92389   1.820  18.284   2.238
33096W        W92390  13.836  14.746   4.177
33097W        W92391  42.326   0.321   2.811
33098W        W92392  44.327  27.545  14.881
33099W        W92393  34.031  42.848  12.891
33100W        W92394   7.708   5.916  13.045
33101W        W92395  20.256  20.545  12.485
33102W        W92396  20.105   2.346   4.298
33103W        W92397   8.239  27.972  11.504
33104W        W92398  10.782   9.280   0.886
33105W        W92399  18.182   5.908   2.858
33106W        W92400  24.649  13.122   5.317
33107W        W92401   9.764  37.056  10.945
33108W        W92402  11.787  21.170  13.486
33109W        W92403  14.277  32.568   0.446
33110W        W92404  12.816   0.803  11.077
33111W        W92405  37.582  20.077  14.306
33112W        W92406  24.066  30.032  13.980
33113W        W92407  12.743   7.207  11.450
33114W        W92408  19.711  44.942  12.422
33115W        W92409   4.870   0.365   5.239
33116W        W92410   8.856  41.298  14.331
33117W        W92411  28.166  27.640  10.966
33118W        W92412  38.821   3.223   0.837
33119W        W92413  34.511  26.612   1.395
33120W        W92414  35.553  30.974  12.919
33121W        W92415  31.145  18.745   2.691
33122W        W92416  44.320   6.915  12.831
33123W        W92417   4.712   3.732  11.949
33124W        W92418   9.314   7.739   4.180
33125W        W92419   1.922  25.519   1.406
33126W        W92420  41.519   7.184   3.683
33127W        W92421  27.966  43.411  14.436
33128W        W92422  39.064  19.210  13.021
33129W        W92423  42.943   6.854  12.875
33130W        W92424  13.182  29.531   0.375
33131W        W92425   3.781   1.312  12.488
33132W        W92426   6.390  29.015   4.201
33133W        W92427  16.217  21.073  12.536
33134W        W92428  23.491  29.542  13.972
33135W        W92429  12.162  36.030  13.969
33136W        W92430  26.176   8.194  12.580
33137W        W92431  11.370  41.465  11.056
33138W        W92432  27.513   7.175   2.897
33139W        W92433   2.925  24.582  14.918
33140W        W92434   0.277   0.429   5.572
33141W        W92435  16.736  10.840  12.071
33142W        W92436   8.235  43.307  14.777
33143W        W92437  44.884   8.895  13.860
33144W        W92438  26.610  18.772   3.319
33145W        W92439  31.523  23.117  12.918
33146W        W92440  16.800  42.285   0.483
33147W        W92441   7.354  14.259  13.488
33148W        W92442  31.017  41.341  13.006
33149W        W92443  29.504  25.070  11.421
33150W        W92444  43.852   1.425   1.930
33151W        W92445  28.995  30.432  13.379
33152W        W92446  27.172  10.272  12.855
33153W        W92447  21.185   4.751   0.895
33154W        W92448  28.982  28.150  14.298
33155W        W92449  26.040  27.608  12.439
33156W        W92450   2.413   4.893   3.163
33157W        W92451  21.173  14.138  11.965
33158W        W92452  38.884  18.739  11.404
33159W        W92453  29.625  41.815  14.281
33160W        W92454  38.057  31.147  12.492
33161W        W92455   0.760   8.659  13.907
33162W        W92456  34.936  37.437   5.108
33163W        W92457  38.960  14.705   2.249
33164W        W92458  10.757  37.352   0.937
33165W        W92459   3.835  31.912  12.044
33166W        W92460  24.538   4.299   3.293
33167W        W92461   5.770  18.761  12.923
33168W        W92462  36.476  11.859  11.515
33169W        W92463  31.407  27.551   4.661
33170W        W92464  12.196  26.570   4.307
33171W        W92465  27.197  28.442  13.527
33172W        W92466   9.347  35.545  11.442
33173W        W92467  26.123   8.227   4.126
33174W        W92468  29.533  20.589  14.449
33175W        W92469  14.119  23.020   2.290
33176W        W92470  44.387  15.791   0.961
33177W        W92471   2.910  34.426  12.898
33178W        W92472   0.784  38.996  12.089
33179W        W92473  43.783   9.865   1.859
33180W        W92474  18.788   1.788  14.325
33181W        W92475  36.582  39.505  12.886
33182W        W92476   6.783   9.867   1.289
33183W        W92477  13.803   0.440  10.578
33184W        W92478  16.610  17.213   2.882
33185W        W92479  17.202  20.642  13.045
33186W        W92480  14.701  24.071  14.988
33187W        W92481   7.247  41.790   4.736
33188W        W92482   9.186  16.754  10.932
33189W        W92483  31.041  11.348  10.901
33190W        W92484  32.466   8.362   9.991
33191W        W92485  35.493   6.370  11.501
33192W        W92486  15.223  40.434   2.693
33193W        W92487   8.295  37.499   4.175
33194W        W92488  13.252  16.128  14.832
33195W        W92489  17.079   6.189   0.337
33196W        W92490  10.851  34.097  13.495
33197W        W92491  39.491   3.809  10.524
33198W        W92492  40.335   8.199  11.585
33199W        W92493  17.275  10.162  11.521
33200W        W92494   6.361  13.609  13.981
33201W        W92495  40.538  34.497   3.358
33202W        W92496   1.925  36.993  11.457
33203W        W92497   2.727  44.263  13.491
33204W        W92498  10.373  42.847   4.706
33205W        W92499  17.245  40.848   2.867
33206W        W92500   0.315  23.735   4.277
33207W        W92501  34.048  40.524   2.893
33208W        W92502  13.706  23.593   2.858
33209W        W92503   0.809  24.192   2.262
33210W        W92504  15.185  18.583  13.028
33211W        W92505   7.292  39.901  10.616
33212W        W92506  35.095  31.036   2.348
33213W        W92507  15.231   2.258  12.506
33214W        W92508   2.355  34.895   1.212
33215W        W92509  14.112  13.297   2.189
33216W        W92510  11.280  18.261  10.634
33217W        W92511  28.496   1.924  11.394
33218W        W92512  43.272  40.943  12.941
33219W        W92513  44.362  33.482  11.082
33220W        W92514  39.831  32.134  14.413
33221W        W92515  39.314  38.346  13.527
33222W        W92516  13.806  11.820   4.281
33223W        W92517   7.725  21.626  11.518
33224W        W92518  11.748  15.279   9.945
33225W        W92519  21.643  14.629  14.325
33226W        W92520  24.218  29.483   0.430
33227W        W92521  36.520  39.840  10.572
33228W        W92522   4.821  13.178   1.386
33229W        W92523  18.083  27.569   3.329
33230W        W92524  16.762  16.281  14.022
33231W        W92525  30.503  29.518   2.698
33232W        W92526  23.985  13.825  14.445
33233W        W92527   2.797  45.000   3.808
33234W        W92528   7.779   2.376  12.046
33235W        W92529  40.024  43.971   1.725
33236W        W92530  26.114  40.897  13.042
33237W        W92531  18.762  43.330   2.207
33238W        W92532  41.403  19.077  12.341
33239W        W92533  11.354  19.045  12.400
33240W        W92534  12.142  20.753   0.795
33241W        W92535  18.288  35.080   4.225
33242W        W92536  41.916  19.589   1.266
33243W        W92537  32.914  40.905  11.950
33244W        W92538  29.663   0.867  12.015
33245W        W92539  20.654  23.695   1.339
33246W        W92540  25.210  27.487  12.863
33247W        W92541  11.302  35.957   4.179
33248W        W92542  27.007  26.993  12.030
33249W        W92543  39.044  21.093  10.035
33250W        W92544   2.837  17.592   3.857
33251W        W92545  20.161  15.820  14.290
33252W        W92546  44.999  28.950   4.345
33253W        W92547  10.865  22.514   1.366
33254W        W92548  34.565  37.508  12.570
33255W        W92549   5.217  32.918   3.796
33256W        W92550  27.091  20.228  14.029
33257W        W92551  27.122  39.958   1.410
33258W        W92552  33.047  15.783   3.379
33259W        W92553  25.050  17.718  14.852
33260W        W92554   3.454  41.343   0.894
33261W        W92555  37.399  13.843  11.548
33262W        W92556  38.414   1.909  13.900
33263W        W92557  36.074  30.480  14.497
33264W        W92558   5.231  12.669  12.405
33265W        W92559  12.751   2.305  14.938
33266W        W92560  12.754  25.013  12.557
33267W        W92561  41.535  36.882  11.550
33268W        W92562  33.918  32.967   0.304
33269W        W92563  17.699  42.785  14.471
33270W        W92564   7.703  38.828   2.861
33271W        W92565  37.061  18.725   3.811
33272W        W92566  26.156  39.360   9.592
33273W        W92567  32.969  38.873  12.990
33274W        W92568  26.457  37.557  12.990
33275W        W92569   3.852  30.472   2.370
33276W        W92570   9.682  36.582  13.956
33277W        W92571  16.647   8.401   4.267
33278W        W92572   2.915  23.136  13.307
33279W        W92573  28.036  13.713  12.864
33280W        W92574  10.307  43.935   4.646
33281W        W92575  36.012  20.086   3.637
33282W        W92576   0.341  19.534   4.237
33283W        W92577  34.449  14.780  14.317
33284W        W92578  20.035   6.284   3.708
33285W        W92579  19.265  20.750   5.592
33286W        W92580   1.276   0.747   5.091
33287W        W92581  24.057  37.073   1.251
33288W        W92582  30.094  35.896   1.891
33289W        W92583  14.174  14.183   3.731
33290W        W92584  39.545  27.515  14.404
33291W        W92585  30.954  11.180   0.731
33292W        W92586  35.991  33.934  10.125
33293W        W92587   6.257  18.164   4.174
33294W        W92588  34.865  10.839   5.723
33295W        W92589   8.888  23.186   3.297
33296W        W92590  13.734  24.715  14.500
33297W        W92591  10.854   4.749   4.607
33298W        W92592  43.924  33.973  14.948
33299W        W92593   2.251  40.391  10.523
33300W        W92594  10.707  31.516  11.869
33301W        W92595  27.654   5.419   0.788
33302W        W92596  10.216   3.354   2.178
33303W        W92597  20.220  44.290  11.441
33304W        W92598  38.523  40.455  10.536
33305W        W92599   9.793  30.547   2.726
33306W        W92600  26.547  36.876   3.338
33307W        W92601   8.235   7.770   3.240
33308W        W92602  29.160   9.687   3.719
33309W        W92603  41.886  33.939   0.350
33310W        W92604  17.783  27.044  14.392
33311W        W92605  36.410  27.964  13.990
33312W        W92606  37.564   6.306  13.811
33313W        W92607  24.113  44.418  12.486
33314W        W92608  19.550   6.773   3.659
33315W        W92609  34.943  11.236   1.291
33316W        W92610  39.410  25.999  13.032
33317W        W92611  41.351  17.260   3.833
33318W        W92612  33.983  43.808  10.415
33319W        W92613  18.713  27.627   1.796
33320W        W92614   5.218  17.725   4.209
33321W        W92615  38.884  21.139   3.749
33322W        W92616  39.004  26.600  13.061
33323W        W92617   8.355  12.235   3.630
33324W        W92618  29.964  43.904  13.533
33325W        W92619  19.114   7.305  14.991
33326W        W92620  19.629   3.759  11.462
33327W        W92621  44.896  16.744  11.979
33328W        W92622   9.354  11.842   2.857
33329W        W92623  31.129  15.176  10.606
33330W        W92624  44.408  35.571  10.444
33331W        W92625  23.094  36.042  14.026
33332W        W92626  37.002  40.939  13.893
33333W        W92627  19.615   4.917  13.477
33334W        W92628  27.601  44.790   2.312
33335W        W92629  11.833  12.230  12.993
33336W        W92630  31.959  41.819   3.280
33337W        W92631  15.181  21.214  12.016
33338W        W92632  44.971  17.294  11.930
33339W        W92633  11.364  15.609   0.951
33340W        W92634  44.827   3.265   0.748
33341W        W92635  16.693  34.018  10.614
33342W        W92636  19.072  29.612  10.990
33343W        W92637   0.369  28.015   0.276
33344W        W92638  34.453  29.493   4.305
33345W        W92639  27.489  20.061  11.900
33346W        W92640  35.404  39.523  14.392
33347W        W92641  19.274  18.791   1.436
33348W        W92642   0.944   1.935   3.645
33349W        W92643  43.468  35.094  12.538
33350W        W92644  18.554  25.041   2.740
33351W        W92645  14.094  27.110   2.673
33352W        W92646  28.592  35.065  12.548
33353W        W92647   9.709  23.687   0.352
33354W        W92648  34.560   8.731   2.347
33355W        W92649   2.347  14.318  12.423
33356W        W92650  40.804  36.878   0.396
33357W        W92651  42.310  41.426  12.929
33358W        W92652  36.492  14.314   1.705
33359W        W92653  30.441  22.738  11.385
33360W        W92654  23.176  15.700   1.215
33361W        W92655  14.285  42.487   4.116
33362W        W92656  23.670  12.613   4.139
33363W        W92657  20.066  10.152   4.786
33364W        W92658  18.771  42.452   2.865
33365W        W92659  36.045  22.677  11.469
33366W        W92660  31.420   6.733   2.870
33367W        W92661   2.945   5.220   2.235
33368W        W92662  29.011  10.327   4.317
33369W        W92663  44.282  28.540   1.234
33370W        W92664   6.913  31.635   3.202
33371W        W92665  25.204  21.099  11.991
33372W        W92666  21.026  25.488   1.797
33373W        W92667  39.880  43.300   4.164
33374W        W92668  38.563   5.725   2.765
33375W        W92669  14.704  28.595  14.822
33376W        W92670  43.921  17.710  10.890
33377W        W92671  42.402  33.913  13.847
33378W        W92672  27.493  42.938  13.867
33379W        W92673   4.367   1.755  14.817
33380W        W92674   0.304  37.424  11.102
33381W        W92675  40.951  20.247   2.219
33382W        W92676  44.992  42.297  13.828
33383W        W92677  36.935  21.020  12.457
33384W        W92678  43.410  37.987   3.235
33385W        W92679  18.762  27.646   4.314
33386W        W92680   2.792  42.315  11.881
33387W        W92681  22.176  15.175   3.729
33388W        W92682  34.027  27.582  14.825
33389W        W92683  27.155   4.836  14.343
33390W        W92684  43.913  33.409   3.327
33391W        W92685  43.495   9.830   3.735
33392W        W92686   9.303  24.029   4.174
33393W        W92687   1.479  14.180   5.106
33394W        W92688   7.734  34.389   0.297
33395W        W92689  19.062  42.340  11.072
33396W        W92690  10.730  16.631   4.300
33397W        W92691   9.185  24.190  14.453
33398W        W92692   2.401  35.091  14.953
33399W        W92693   0.855  25.620   3.838
33400W        W92694  16.302  22.120  13.044
33401W        W92695  23.216  23.021   1.770
33402W        W92696   4.356   8.355   2.299
33403W        W92697  44.896  15.690  13.000
33404W        W92698  34.437  26.023  12.488
33405W        W92699  30.502   4.354  14.389
33406W        W92700  17.305  37.008   4.669
33407W        W92701  29.521   9.249  10.574
33408W        W92702  27.964  18.244  14.825
33409W        W92703  26.965  20.149  10.511
33410W        W92704  44.271  13.627   1.896
33411W        W92705  34.075  44.467  14.934
33412W        W92706   5.882  38.039   0.424
33413W        W92707  39.916  28.932   1.260
33414W        W92708  10.780  22.146  13.018
33415W        W92709   6.741  23.688  13.950
33416W        W92710  15.171  34.428   3.730
33417W        W92711  30.960  27.023   2.872
33418W        W92712  41.374  30.547   0.959
33419W        W92713  36.996  33.916   3.196
33420W        W92714  10.164  13.325   3.676
33421W        W92715  21.602   8.324  11.863
33422W        W92716   5.928  42.960  11.423
33423W        W92717  26.617  30.487   0.484
33424W        W92718  20.597  43.905  10.957
33425W        W92719  38.958  38.063  10.111
33426W        W92720  17.263  34.385   9.931
33427W        W92721  13.707  20.081   1.910
33428W        W92722  31.483   7.310   1.864
33429W        W92723   9.283  42.942  10.435
33430W        W92724  31.094  43.965   3.277
33431W        W92725  34.420   0.961  14.880
33432W        W92726  42.861  25.487   5.130
33433W        W92727  14.243  23.113   9.467
33434W        W92728  18.699  22.045  12.089
33435W        W92729  32.517  35.025   1.222
33436W        W92730  38.418   0.862  11.947
33437W        W92731  36.514   4.929   4.643
33438W        W92732   2.376   2.267  12.348
33439W        W92733  16.645  24.090  14.453
33440W        W92734   9.840   1.794  14.970
33441W        W92735  38.444  40.473  13.920
33442W        W92736  25.479  15.221  14.502
33443W        W92737   1.315   2.237   0.930
33444W        W92738   5.318  38.990  14.458
33445W        W92739  43.433  15.622  13.508
33446W        W92740  26.664  38.927  11.408
33447W        W92741  40.922  26.198   2.791
33448W        W92742   9.677   1.932  12.552
33449W        W92743  23.717  16.162   4.731
33450W        W92744  10.230  34.943   3.249
33451W        W92745   1.482  29.535   4.620
33452W        W92746  26.667   3.255   4.321
33453W        W92747  43.967   5.221  12.855
33454W        W92748  12.186  43.344   2.860
33455W        W92749  18.568  12.828   3.751
33456W        W92750  29.601  16.148  11.950
33457W        W92751  14.281  12.344  13.047
33458W        W92752  25.652  19.737   2.877
33459W        W92753  25.206  12.262  10.895
33460W        W92754  34.586  36.390   3.869
33461W        W92755  40.044  28.958  10.892
33462W        W92756  14.252  23.654  14.787
33463W        W92757  28.052   9.781  14.981
33464W        W92758   7.791  43.916  14.384
33465W        W92759  23.180   0.324  11.597
33466W        W92760  11.704  12.768  13.386
33467W        W92761  18.691  29.050   4.688
33468W        W92762  22.563   1.300   4.240
33469W        W92763  38.336  18.265   2.319
33470W        W92764  12.627  41.837   1.915
33471W        W92765  16.219  33.433   0.420
33472W        W92766  17.652   9.874  13.395
33473W        W92767   8.237  23.203  12.550
33474W        W92768  44.922   3.452  14.286
33475W        W92769  20.180  32.957  13.898
33476W        W92770  36.930  42.430  11.094
33477W        W92771  18.061  36.021   4.802
33478W        W92772   6.398  25.019  14.344
33479W        W92773   2.355  24.125   4.791
33480W        W92774  33.430  42.017   3.723
33481W        W92775  19.285  26.188  14.354
33482W        W92776  34.885  43.781  12.365
33483W        W92777  28.464   6.312   2.399
33484W        W92778  44.870  14.606   4.123
33485W        W92779  23.086   7.895  13.419
33486W        W92780   3.931  36.470   3.384
33487W        W92781  23.608   9.375   0.953
33488W        W92782   0.808  26.183   2.293
33489W        W92783  44.833   3.428   1.343
33490W        W92784  35.910  26.188   3.789
33491W        W92785  19.247  43.475  13.507
33492W        W92786  41.489   2.441  13.956
33493W        W92787   6.233  32.573  13.975
33494W        W92788  32.928  35.479   1.451
33495W        W92789   4.699   8.362  10.134
33496W        W92790  43.019  19.655   2.785
33497W        W92791  40.872   0.887   0.763
33498W        W92792  21.027   2.882  13.471
33499W        W92793  42.454  14.622  10.641
33500W        W92794  18.652   6.875   4.801
33501W        W92795  42.817  35.587  10.603
33502W        W92796  18.734  16.314  14.976
33503W        W92797  37.368  26.493  12.414
33504W        W92798  24.085  36.363  13.480
33505W        W92799   9.264  14.596  14.426
33506W        W92800  23.153  35.009  14.024
33507W        W92801  19.579   1.385   3.294
33508W        W92802   0.468  26.478   5.248
33509W        W92803  25.977  17.202  10.604
33510W        W92804  25.604   6.719  12.923
33511W        W92805   8.272  32.901   1.278
33512W        W92806  43.764  41.842   0.358
33513W        W92807  23.152  29.532   0.250
33514W        W92808   1.886  44.403   3.721
33515W        W92809  31.432  16.719   3.315
33516W        W92810  13.199   7.195   4.208
33517W        W92811  37.071  43.945   2.764
33518W        W92812   6.216  40.871   1.765
33519W        W92813  36.381  42.442  11.453
33520W        W92814  13.811  27.552   0.400
33521W        W92815  38.570   8.240   4.833
33522W        W92816  28.475  26.687   4.695
33523W        W92817  35.875  17.124   0.891
33524W        W92818  40.492  16.735  11.882
33525W        W92819  25.005  19.659   2.684
33526W        W92820  42.886  36.850   1.842
33527W        W92821  33.969   1.858  11.969
33528W        W92822   5.897  29.967   2.212
33529W        W92823  24.208   3.327  13.795
33530W        W92824  43.772  25.075   0.844
33531W        W92825  12.642  42.321   1.933
33532W        W92826  11.747  32.556   0.455
33533W        W92827  22.041   1.299  10.918
33534W        W92828  29.535  18.649  13.841
33535W        W92829   6.288  17.242   2.357
33536W        W92830  34.567  38.059  11.594
33537W        W92831  20.077   6.319   2.779
33538W        W92832   5.312  21.096  12.498
33539W        W92833  21.682  21.568  13.310
33540W        W92834  12.628  24.185  11.471
33541W        W92835  19.255   6.709  11.476
33542W        W92836  42.521  27.553  14.340
33543W        W92837  20.156  38.364   0.907
33544W        W92838  40.019  20.034  10.405
33545W        W92839  30.960   4.935  13.006
33546W        W92840  26.545   4.917   0.253
33547W        W92841  44.323  25.123  13.044
33548W        W92842  26.143   0.880   3.181
33549W        W92843  15.119   4.889  11.932
33550W        W92844   3.402  20.580   2.240
33551W        W92845  15.745  40.340   2.859
33552W        W92846  32.504  32.604   4.322
33553W        W92847   6.213  34.442   1.334
33554W        W92848  40.385  36.934   1.415
33555W        W92849  13.635  40.961   3.794
33556W        W92850  36.530   2.735  14.365
33557W        W92851  38.860  30.096  14.020
33558W        W92852  27.030  36.548  14.833
33559W        W92853  34.580   9.261   2.210
33560W        W92854   4.920  24.118  13.039
33561W        W92855  28.538  26.986   3.350
33562W        W92856  39.019  44.003   1.721
33563W        W92857  23.496  19.146  10.929
33564W        W92858  14.600  17.636   0.402
33565W        W92859  11.241  38.538  13.910
33566W        W92860  43.493  28.034  12.007
33567W        W92861   8.325  27.633   3.689
33568W        W92862   4.332  37.918  12.035
33569W        W92863  31.468   2.318   0.863
33570W        W92864   3.354  36.453   2.829
33571W        W92865  30.071   7.275  14.503
33572W        W92866  31.596  25.546   1.326
33573W        W92867   4.891  12.315  10.991
33574W        W92868   6.822   5.799  11.123
33575W        W92869  35.027   7.201  11.575
33576W        W92870  39.832   8.367  14.996
33577W        W92871  42.850  16.115  11.561
33578W        W92872  32.036  27.178  11.016
33579W        W92873  36.063  11.858   2.809
33580W        W92874  32.083  16.783  11.493
33581W        W92875  24.711  35.057  10.905
33582W        W92876  40.320  41.848  13.402
33583W        W92877  35.935  28.001  13.923
33584W        W92878  44.860  42.932   4.789
33585W        W92879   7.260  17.701   0.458
33586W        W92880  43.502  36.448  14.386
33587W        W92881  23.597  17.068   4.265
33588W        W92882  43.365  13.756   4.200
33589W        W92883  31.965  19.148   0.419
33590W        W92884   8.395   5.433  13.826
33591W        W92885   3.799  15.715  14.796
33592W        W92886  28.020  44.421   2.734
33593W        W92887  18.090   4.733   0.850
33594W        W92888  34.541   6.326   1.397
33595W        W92889  18.759  19.716   0.791
33596W        W92890   4.764  38.425   2.664
33597W        W92891   6.335  39.545  12.953
33598W        W92892  16.669  30.612  14.368
33599W        W92893  22.693  44.862   4.740
33600W        W92894  16.667  19.628  12.479
33601W        W92895  20.658   6.343   1.277
33602W        W92896   8.314  10.791  13.804
33603W        W92897  38.954  10.335   0.405
33604W        W92898  44.443  15.320   0.251
33605W        W92899  36.981   0.345   1.916
33606W        W92900  20.156   7.711  12.471
33607W        W92901  26.100  20.709  10.427
33608W        W92902  19.539  12.692  12.501
33609W        W92903  32.017  42.419  12.375
33610W        W92904  25.093   4.273   4.716
33611W        W92905  25.132  29.173   3.860
33612W        W92906   6.789  37.576   3.694
33613W        W92907   6.704  31.430  12.572
33614W        W92908  35.901  18.747  13.401
33615W        W92909  35.870  28.505   3.147
33616W        W92910  13.815  28.105   4.605
33617W        W92911   1.767  35.019   0.474
33618W        W92912  19.575  15.230  14.284
33619W        W92913  35.058  44.454   3.157
33620W        W92914  10.164  18.260   2.344
33621W        W92915  16.272  16.616  10.577
33622W        W92916  14.811  10.177  13.974
33623W        W92917  26.629  20.530   1.348
33624W        W92918  28.119   0.804   4.797
33625W        W92919   1.306   1.387   0.406
33626W        W92920  41.790  36.475   9.658
33627W        W92921  43.941   9.275   2.769
33628W        W92922  18.218  10.356  13.989
33629W        W92923  35.075   7.871   1.257
33630W        W92924   2.300  27.651   0.870
33631W        W92925   6.263   7.355   1.355
33632W        W92926  26.556  21.740   3.763
33633W        W92927  44.387  38.565  14.024
33634W        W92928  44.304  12.719   2.677
33635W        W92929   7.799   5.285  11.379
33636W        W92930  40.904  41.901  14.857
33637W        W92931  28.516  26.640  13.385
33638W        W92932  43.011  25.581   2.372
33639W        W92933   0.462  37.441   3.223
33640W        W92934  19.135  12.333  12.577
33641W        W92935  40.414  28.043   2.383
33642W        W92936  23.604  17.727  13.458
33643W        W92937  35.431  22.102   3.224
33644W        W92938  24.573  40.456  13.469
33645W        W92939  12.767  29.460  10.612
33646W        W92940   2.265  32.474  11.000
33647W        W92941  35.458  40.947  11.917
33648W        W92942  32.106  30.482   1.404
33649W        W92943  19.097  23.104   3.265
33650W        W92944  20.730  15.752   3.298
33651W        W92945  34.391  25.599   1.892
33652W        W92946   5.731  39.040  12.441
33653W        W92947  27.603  16.184  10.888
33654W        W92948  20.067  40.449   2.736
33655W        W92949  42.811  43.288   2.306
33656W        W92950  41.838  27.095   0.817
33657W        W92951  14.326   6.676   3.675
33658W        W92952   0.957   1.921   3.147
33659W        W92953  23.715  30.496   3.339
33660W        W92954  23.158  14.591  14.418
33661W        W92955  14.627   1.249  11.018
33662W        W92956  18.577  43.480   4.122
33663W        W92957   9.282   4.434   0.410
33664W        W92958  28.669   7.367  13.380
33665W        W92959   2.804  17.622   1.741
33666W        W92960  26.611  40.931  11.049
33667W        W92961  39.882  31.118   3.152
33668W        W92962  32.099  43.964   1.448
33669W        W92963  37.349   3.795   1.891
33670W        W92964  11.141  36.988  11.015
33671W        W92965  16.207  44.840   4.786
33672W        W92966  24.204   4.934   0.752
33673W        W92967  21.103  36.086  14.281
33674W        W92968  26.058   0.255   4.129
33675W        W92969   3.750  28.499   0.312
33676W        W92970  13.146   5.361   2.896
33677W        W92971   1.349   4.440   2.386
33678W        W92972   3.348  24.055  13.902
33679W        W92973  20.030  16.623   4.196
33680W        W92974  33.094  43.443  13.814
33681W        W92975  36.910  41.323  13.482
33682W        W92976  17.727  14.680  12.941
33683W        W92977  10.838  34.455   3.267
33684W        W92978   9.379   5.412  13.456
33685W        W92979  26.051   0.847  14.860
33686W        W92980  36.980  33.921  14.885
33687W        W92981   1.892  44.766   3.718
33688W        W92982  21.630  12.695  10.634
33689W        W92983  32.030  41.513  11.587
33690W        W92984   8.171  41.422   1.877
33691W        W92985  32.995  42.457   2.728
33692W        W92986  35.486  22.521  13.373
33693W        W92987  43.933   1.900  11.552
33694W        W92988   3.745  35.895  12.466
33695W        W92989  11.829  22.216   0.308
33696W        W92990  21.711   3.868  10.984
33697W        W92991  43.877  32.433   3.720
33698W        W92992  13.780   6.182  11.592
33699W        W92993  21.043   1.849  11.510
33700W        W92994  16.206  27.950  13.544
33701W        W92995  13.609  30.935  12.560
33702W        W92996  16.688   2.726   1.709
33703W        W92997  16.275   9.854   2.855
33704W        W92998  42.926  44.289   9.526
33705W        W92999  14.116  42.423   3.228
33706W        W93000   0.852   6.884   0.885
33707W        W93001  35.522  40.470  10.638
33708W        W93002  25.693  41.346  13.999
33709W        W93003  10.316  21.106  10.986
33710W        W93004  19.137  10.680  14.870
33711W        W93005  12.636  29.432  12.023
33712W        W93006  11.303  30.521   0.324
33713W        W93007  18.674  27.088   3.776
33714W        W93008  25.544  10.215   3.845
33715W        W93009  35.026  28.046  13.046
33716W        W93010  39.331  22.127  11.129
33717W        W93011  12.670  39.497   1.338
33718W        W93012  13.302  16.780   0.256
33719W        W93013  26.109  30.053  13.331
33720W        W93014   2.320  42.899   1.369
33721W        W93015  18.293  14.822  10.622
33722W        W93016   0.279  43.873  13.345
33723W        W93017   8.272  27.666   0.779
33724W        W93018  23.190  19.711  11.063
33725W        W93019   4.418  44.333   0.457
33726W        W93020   8.198  22.195   5.291
33727W        W93021  19.714  16.186   2.316
33728W        W93022  13.133  17.087   1.908
33729W        W93023  10.791  34.900  12.084
33730W        W93024  18.216  32.987   1.310
33731W        W93025  21.649  37.532   3.345
33732W        W93026  20.670  20.254   4.353
33733W        W93027  15.647  29.477   3.361
33734W        W93028  19.166   7.282  11.500
33735W        W93029  21.036  16.811   4.779
33736W        W93030  35.066  12.246   2.821
33737W        W93031   3.409  28.586   3.731
33738W        W93032  40.360  41.985  12.572
33739W        W93033  30.571  18.705   5.225
33740W        W93034  23.663  35.932  12.949
33741W        W93035  44.267   1.953  11.991
33742W        W93036  24.168  29.927   3.177
33743W        W93037  10.638  32.546  12.503
33744W        W93038   2.228   8.352  14.368
33745W        W93039  35.419  29.575  13.953
33746W        W93040  20.710  12.718   3.338
33747W        W93041  19.120   1.475   4.167
33748W        W93042  24.207  41.998  12.096
33749W        W93043  13.782  40.509   2.178
33750W        W93044  41.900  29.447  14.307
33751W        W93045   4.787   7.693   0.269
33752W        W93046  32.108  35.509  11.559
33753W        W93047  23.985  13.198  13.366
33754W        W93048  40.802   8.775   2.841
33755W        W93049  22.621  29.032  10.007
33756W        W93050  17.153  32.053  11.926
33757W        W93051   2.449  22.520  14.973
33758W        W93052  41.911   6.396  12.499
33759W        W93053  30.934  18.578   1.694
33760W        W93054   2.337  23.033   3.853
33761W        W93055  40.016  43.514   2.182
33762W        W93056  22.501  12.309  12.549
33763W        W93057  39.387  24.144  11.525
33764W        W93058  34.991   2.887   4.750
33765W        W93059  25.117  31.563  10.480
33766W        W93060  41.004  31.037  11.493
33767W        W93061  39.044  44.314  14.482
33768W        W93062  24.575  35.519  12.358
33769W        W93063   6.227  40.935  13.322
33770W        W93064   1.353  28.061   0.410
33771W        W93065  44.344  11.799   4.829
33772W        W93066  37.455   5.713  13.323
33773W        W93067  23.081   4.943  13.510
33774W        W93068  26.010  27.178  13.023
33775W        W93069  34.384   1.894  13.439
33776W        W93070   1.283  18.783  12.848
33777W        W93071   1.437  42.826  11.883
33778W        W93072  26.182  38.546  13.413
33779W        W93073  33.110  26.045  13.006
33780W        W93074  35.969  15.761  10.062
33781W        W93075  37.541  35.572  11.881
33782W        W93076  29.052  20.662  12.006
33783W        W93077  39.008  37.938  14.921
33784W        W93078  28.149  18.199  11.433
33785W        W93079   1.399  37.390   4.716
33786W        W93080  26.572  25.055   2.816
33787W        W93081  14.210  38.489  12.987
33788W        W93082  35.417  25.208   2.735
33789W        W93083  42.300  15.768   5.224
33790W        W93084  35.874  42.327   2.190
33791W        W93085  34.382  43.341  12.394
33792W        W93086  22.513  16.763  12.918
33793W        W93087  27.097  42.845   4.695
33794W        W93088  40.034   3.772   1.295
33795W        W93089   1.889  38.404  11.932
33796W        W93090  12.169  28.122  13.506
33797W        W93091   2.421  34.944   3.788
33798W        W93092  13.184  13.705  14.486
33799W        W93093   7.783  28.478   4.598
33800W        W93094  26.015  10.764  13.007
33801W        W93095  13.613  41.368  10.539
33802W        W93096   3.388  13.838   0.890
33803W        W93097  11.310  31.048   3.712
33804W        W93098  29.959  17.753   1.723
33805W        W93099   3.771  29.035   0.884
33806W        W93100  17.099  19.189   5.105
33807W        W93101  36.071  44.329  14.870
33808W        W93102  29.488  22.026  14.914
33809W        W93103  23.180  39.410   1.776
33810W        W93104  40.502  32.492  13.366
33811W        W93105  11.329  25.714  11.398
33812W        W93106  43.446   3.795   2.821
33813W        W93107  30.520  12.325   3.329
33814W        W93108   3.333  23.586   2.891
33815W        W93109   2.888   0.852   3.323
33816W        W93110  14.693  16.730  13.370
33817W        W93111  18.686  14.227   0.347
33818W        W93112  40.463  39.486   0.289
33819W        W93113  36.433  29.469   2.687
33820W        W93114   0.296   1.478   1.725
33821W        W93115   9.827  39.009  11.003
33822W        W93116  20.048  12.268   0.363
33823W        W93117   5.829  27.094   4.156
33824W        W93118  33.018   2.228   2.393
33825W        W93119  15.768  31.624  12.012
33826W        W93120   5.788   3.341  14.909
33827W        W93121   3.218  44.817   4.617
33828W        W93122  42.881  23.555  10.520
33829W        W93123   8.843  17.703   2.412
33830W        W93124  32.061  16.230   4.308
33831W        W93125  35.005  31.558  14.411
33832W        W93126  17.139  33.004  12.441
33833W        W93127  32.605  30.027   1.423
33834W        W93128  31.430  43.018   3.191
33835W        W93129  15.295   1.918  11.588
33836W        W93130   3.329  12.732   2.868
33837W        W93131  11.660  31.536   9.572
33838W        W93132  44.854  12.777  13.431
33839W        W93133   5.714   0.801   2.828
33840W        W93134  28.452  19.282   2.314
33841W        W93135  30.529  44.902   1.808
33842W        W93136  16.590  32.428  12.951
33843W        W93137  21.515   1.932  12.493
33844W        W93138   0.348  36.969   3.351
33845W        W93139  39.368  24.155   0.926
33846W        W93140  38.022  42.906  11.448
33847W        W93141  10.780  24.703   3.735
33848W        W93142   3.871  44.362   1.816
33849W        W93143  39.010  24.502  12.044
33850W        W93144   6.811  14.199  13.051
33851W        W93145  39.892  11.173  12.547
33852W        W93146  11.636  10.771  12.085
33853W        W93147  42.847  37.403   3.767
33854W        W93148   5.287  24.618  13.486
33855W        W93149  21.718  22.034   2.366
33856W        W93150   1.369  41.523   1.292
33857W        W93151   9.685  28.929   3.803
33858W        W93152  27.084  13.729  13.865
33859W        W93153   4.387  24.052  11.028
33860W        W93154   9.157  18.674   4.338
33861W        W93155  31.048  20.054   1.247
33862W        W93156  25.621  31.434  11.987
33863W        W93157  27.509  25.662   1.242
33864W        W93158  34.059  40.394   1.861
33865W        W93159  24.206   4.300   4.313
33866W        W93160  25.173   2.317   3.731
33867W        W93161  16.747   1.881   2.806
33868W        W93162  39.895  34.024  10.541
33869W        W93163  37.432  12.203   1.222
33870W        W93164  30.417  15.236  12.370
33871W        W93165  30.051  34.565   4.762
33872W        W93166  24.693  31.513  11.110
33873W        W93167  27.999  29.515   2.348
33874W        W93168  12.805   5.372  14.858
33875W        W93169  43.441  22.032   3.373
33876W        W93170  34.921  26.616  12.037
33877W        W93171  39.034  14.764  11.945
33878W        W93172  12.679  15.591   3.772
33879W        W93173  32.491   9.235   2.672
33880W        W93174  29.494   1.821  13.374
33881W        W93175   6.834  10.841  12.527
33882W        W93176  38.440  23.637   3.253
33883W        W93177   0.869  38.411   2.286
33884W        W93178  12.280   1.755  12.073
33885W        W93179  44.845   5.287  12.971
33886W        W93180  44.978   3.312  11.477
33887W        W93181  33.019  32.589  11.427
33888W        W93182   3.273  16.311  13.865
33889W        W93183  44.322   2.863  11.881
33890W        W93184  28.528  19.205  10.578
33891W        W93185  24.685  28.546  14.790
33892W        W93186  38.472  42.809  11.504
33893W        W93187   0.804  10.807   4.765
33894W        W93188  18.598  15.652   3.321
33895W        W93189  43.489  24.000   0.946
33896W        W93190  30.488  26.564   0.968
33897W        W93191   5.761  14.762  13.876
33898W        W93192  41.346   9.211  11.492
33899W        W93193   0.491  37.553  11.917
33900W        W93194  29.031  36.524   0.793
33901W        W93195   1.831  41.935  12.015
33902W        W93196  39.325   7.850   3.206
33903W        W93197  18.790  13.136   1.720
33904W        W93198  25.987  18.664  11.545
33905W        W93199  35.561   3.266   4.712
33906W        W93200   0.432  13.721  13.900
33907W        W93201  20.685   9.242  12.926
33908W        W93202   1.361  26.088  14.333
33909W        W93203  44.385  34.964  10.927
33910W        W93204  30.159  15.654  12.457
33911W        W93205   0.955  38.945  12.359
33912W        W93206  10.155  31.620   2.292
33913W        W93207  20.204   2.369   3.849
33914W        W93208  10.176  12.677  13.416
33915W        W93209  14.629  44.279  14.958
33916W        W93210   2.760  23.993  13.908
33917W        W93211  43.920   0.936   0.482
33918W        W93212  21.252   0.829  10.916
33919W        W93213  22.082  17.270  12.395
33920W        W93214   8.819  12.270   1.220
33921W        W93215  30.447  36.072   3.660
33922W        W93216  22.658  13.662   4.613
33923W        W93217   6.823  38.422  10.504
33924W        W93218  30.939   6.231  13.967
33925W        W93219  42.281  10.854   2.362
33926W        W93220  29.464  44.975  12.383
33927W        W93221  38.392   8.656   2.320
33928W        W93222  31.922  44.783  14.337
33929W        W93223   0.835  43.453  12.403
33930W        W93224  29.157  22.560  13.844
33931W        W93225  15.126  35.586   1.789
33932W        W93226  26.051   9.315  13.031
33933W        W93227  30.646   6.386   1.448
33934W        W93228  30.919  39.403  12.414
33935W        W93229  20.538  10.142  10.948
33936W        W93230  33.958  25.118  10.946
33937W        W93231  16.157   6.802  11.895
33938W        W93232   2.863  10.740   3.262
33939W        W93233  41.519  26.063   4.612
33940W        W93234  26.519  32.065  12.960
33941W        W93235  34.898  38.820  11.608
33942W        W93236  44.270  34.946  13.922
33943W        W93237  43.406  10.736  12.443
33944W        W93238  33.578  35.905  12.977
33945W        W93239  22.558  42.817  13.938
33946W        W93240  20.747   8.243   5.756
33947W        W93241   7.676  30.553   3.373
33948W        W93242  37.364  26.527  11.501
33949W        W93243  31.603   2.948  14.870
33950W        W93244  15.740  18.212   9.668
33951W        W93245  13.666  25.664  12.440
33952W        W93246  14.783  24.132  10.888
33953W        W93247  17.629  30.504   0.341
33954W        W93248   0.416   5.263  12.900
33955W        W93249  11.752  20.228  13.062
33956W        W93250   7.304  38.825   3.296
33957W        W93251   9.341  12.653   2.846
33958W        W93252  27.474  24.560  12.400
33959W        W93253   1.977  33.054   0.441
33960W        W93254  11.176  22.534  12.511
33961W        W93255  29.150   6.313  14.355
33962W        W93256   1.339   3.829   2.251
33963W        W93257  27.596  37.546  11.420
33964W        W93258  38.529  28.547  14.022
33965W        W93259  34.951  36.029  10.133
33966W        W93260   5.813  31.429  14.363
33967W        W93261  11.658  42.988   0.836
33968W        W93262  34.440  21.218   1.326
33969W        W93263   5.836  16.730   0.350
33970W        W93264  21.628  22.063   1.856
33971W        W93265   5.411  34.448  14.873
33972W        W93266   5.321   3.373   9.965
33973W        W93267   9.658   4.418   2.816
33974W        W93268  22.138  36.068   1.367
33975W        W93269  24.069   0.941   2.877
33976W        W93270  13.132   5.723  12.364
33977W        W93271  42.305  37.345  10.500
33978W        W93272  37.833   5.716   0.255
33979W        W93273   1.483  20.754   2.326
33980W        W93274  11.850  22.132   4.125
33981W        W93275  43.363  39.845  13.841
33982W        W93276  14.760   4.746  12.866
33983W        W93277  35.060  13.132   1.787
33984W        W93278   4.448  36.459   2.763
33985W        W93279  23.194  39.539   3.760
33986W        W93280  32.100  36.366  13.468
33987W        W93281  29.620  13.721  12.867
33988W        W93282  44.307  42.851  11.918
33989W        W93283  18.622   4.284  13.325
33990W        W93284  31.565  18.084   0.374
33991W        W93285  32.539  37.072   4.603
33992W        W93286   6.298  43.331   1.875
33993W        W93287  36.087  25.120  13.435
33994W        W93288  22.064  27.674   3.147
33995W        W93289  14.657  32.500   1.415
33996W        W93290   3.936   1.930   0.752
33997W        W93291  26.209  14.802   1.915
33998W        W93292  28.613   8.245   0.432
33999W        W93293  33.951   0.480  12.422
34000W        W93294  36.974  20.581  13.058
34001W        W93295  18.564  10.648  11.983
34002W        W93296  31.466  32.024  12.835
34003W        W93297   6.873  40.955  12.895
34004W        W93298  18.688  13.626   4.720
34005W        W93299  23.548   5.420  10.617
34006W        W93300   7.352  43.314  12.916
34007W        W93301  25.148   8.774   1.854
34008W        W93302   7.231  39.912   0.249
34009W        W93303  15.127   2.730   4.678
34010W        W93304  36.386  29.109  13.317
34011W        W93305  22.623   2.377  11.606
34012W        W93306  22.510  30.160  12.995
34013W        W93307  11.622  26.112  11.951
34014W        W93308  15.301  14.214   0.808
34015W        W93309   8.871  33.511  14.868
34016W        W93310  11.849  15.248   2.216
34017W        W93311  12.274  44.904   3.373
34018W        W93312  16.223   8.735   1.789
34019W        W93313  18.764  37.569   3.243
34020W        W93314   0.882  29.443   0.317
34021W        W93315   6.244   3.778   1.725
34022W        W93316   4.425  22.522  13.386
34023W        W93317  34.987  39.847   3.306
34024W        W93318  39.977  19.106  11.067
34025W        W93319   6.231  26.153  12.909
34026W        W93320  32.982  11.238   9.985
34027W        W93321   4.777  23.156   1.318
34028W        W93322   5.269  44.480  12.896
34029W        W93323  10.661   7.766   0.965
34030W        W93324  40.478   2.459   4.814
34031W        W93325   3.417  27.570  11.593
34032W        W93326  17.253  11.683   0.312
34033W        W93327  33.509   7.265   2.259
34034W        W93328  35.990  24.982   4.749
34035W        W93329  31.934  35.929   4.698
34036W        W93330  42.522  11.354  11.117
34037W        W93331  43.952  44.912   1.349
34038W        W93332  41.307  42.007   3.762
34039W        W93333  34.978  20.683   0.737
34040W        W93334  15.783  15.144   0.403
34041W        W93335   2.901  25.063  13.480
34042W        W93336  15.724  41.958   2.204
34043W        W93337   8.777  12.146   2.817
34044W        W93338  41.917   0.299  11.123
34045W        W93339   6.210   4.329  12.975
34046W        W93340  21.534  14.683  13.959
34047W        W93341  44.444  21.221   5.106
34048W        W93342  41.472  15.101  13.041
34049W        W93343  27.530  24.659   1.722
34050W        W93344   5.892  16.104  13.488
34051W        W93345  18.125   5.236   4.610
34052W        W93346  41.362  42.916   0.299
34053W        W93347  13.659  19.194  10.588
34054W        W93348  11.690  40.934   4.250
34055W        W93349   5.331  33.553   0.411
34056W        W93350   9.833  44.340  13.460
34057W        W93351  18.706   6.419  11.041
34058W        W93352   0.259  20.543   0.419
34059W        W93353   6.864  41.518   0.461
34060W        W93354  35.875   5.376   2.766
34061W        W93355   5.393   0.399   0.842
34062W        W93356   5.351  34.121   4.697
34063W        W93357   0.324  34.971   3.854
34064W        W93358  31.095  25.594  10.500
34065W        W93359  24.690   4.331   2.212
34066W        W93360  24.720  13.810   2.399
34067W        W93361   2.261  38.454  14.884
34068W        W93362   8.260   8.745  14.389
34069W        W93363  37.996  39.969   4.125
34070W        W93364  42.846  12.857   0.436
34071W        W93365  28.618   8.271  14.912
34072W        W93366  31.449  12.831  14.801
34073W        W93367  14.648  44.326  10.148
34074W        W93368  25.105  21.092  12.959
34075W        W93369   6.764   8.184  11.093
34076W        W93370  12.232  28.582   3.643
34077W        W93371   5.707  13.312  13.886
34078W        W93372  29.509  12.635  10.942
34079W        W93373   4.307  26.191  10.533
34080W        W93374   5.250  22.041  13.047
34081W        W93375  11.746  34.881  14.018
34082W        W93376  43.328  17.563  12.846
34083W        W93377  37.357  21.646  13.450
34084W        W93378  11.213   6.871   1.449
34085W        W93379  25.159   1.447  14.925
34086W        W93380  36.494   5.826  12.486
34087W        W93381  36.528  29.468  13.799
34088W        W93382  23.643   4.915  14.765
34089W        W93383  38.910  26.003  10.970
34090W        W93384  37.028  18.058  11.046
34091W        W93385  20.259   8.170   4.712
34092W        W93386  33.390  15.806   4.827
34093W        W93387  20.595   7.840  10.447
34094W        W93388  14.612  28.574   1.374
34095W        W93389  40.323  11.321   3.842
34096W        W93390  26.544  43.925  11.517
34097W        W93391  41.013  39.343  14.809
34098W        W93392  44.396  26.495   0.263
34099W        W93393  12.706  29.135  11.068
34100W        W93394  37.837  11.809   4.786
34101W        W93395  13.229  10.763  12.551
34102W        W93396  26.652  17.749  14.410
34103W        W93397  20.261  35.931   1.227
34104W        W93398   7.372   5.231  11.060
34105W        W93399  26.113   0.887  13.014
34106W        W93400  10.749  23.100  13.479
34107W        W93401   9.320   4.926  11.512
34108W        W93402  20.606  24.161   4.760
34109W        W93403  36.459  21.232   2.755
34110W        W93404  20.553  40.345   4.609
34111W        W93405   2.397  21.519  12.458
34112W        W93406   1.268  13.619  14.977
34113W        W93407  14.236  42.308  14.317
34114W        W93408  13.205  19.647  13.794
34115W        W93409  14.099   7.276  11.945
34116W        W93410  32.579  28.549   2.232
34117W        W93411  21.619  15.811  10.611
34118W        W93412   3.740  20.757  10.015
34119W        W93413  16.245  36.571   1.259
34120W        W93414   7.898  11.272  12.093
34121W        W93415  38.405  32.914   2.270
34122W        W93416   3.718  22.153   1.387
34123W        W93417  13.121  29.118  13.030
34124W        W93418  19.737  40.856  13.390
34125W        W93419   9.199  43.928  14.405
34126W        W93420  39.017  17.077  12.864
34127W        W93421  19.620  27.617   3.358
34128W        W93422  11.356  22.250  11.002
34129W        W93423  37.342  41.833  11.409
34130W        W93424  13.153  30.004   4.628
34131W        W93425  41.317  32.041   4.802
34132W        W93426  30.934  35.907   2.851
34133W        W93427  13.728  26.487  14.968
34134W        W93428  43.276  33.432  12.993
34135W        W93429  29.000  15.267  12.541
34136W        W93430  30.641   0.351  13.501
34137W        W93431  24.176   5.193   2.249
34138W        W93432  23.635  13.697  14.907
34139W        W93433  37.462  13.192   0.325
34140W        W93434  21.739  42.365  10.964
34141W        W93435   3.934  40.858   0.404
34142W        W93436  39.931   5.368  10.481
34143W        W93437  20.215  14.207   3.281
34144W        W93438  44.894  22.094   0.946
34145W        W93439  38.831  20.696  11.115
34146W        W93440  33.622  26.955  14.799
34147W        W93441  33.474  25.484   3.258
34148W        W93442  19.598  25.999  11.861
34149W        W93443  26.584   8.359   2.248
34150W        W93444  27.625  27.008  10.581
34151W        W93445  32.446  34.507  14.295
34152W        W93446   3.324  40.821  11.397
34153W        W93447  23.543  44.362  10.148
34154W        W93448  17.196  14.725  14.389
34155W        W93449  32.007  12.193   3.164
34156W        W93450   4.756   2.799  11.481
34157W        W93451   3.901   8.193   0.328
34158W        W93452  20.166  20.683   3.789
34159W        W93453  36.523   5.333  11.046
34160W        W93454  32.593   9.773   3.829
34161W        W93455  12.800  10.258  10.916
34162W        W93456   2.811  36.033   4.686
34163W        W93457  11.230  17.282  13.827
34164W        W93458  16.309  14.786  13.971
34165W        W93459   0.837  32.919  10.629
34166W        W93460  29.963   7.871   4.754
34167W        W93461  31.898   5.775  11.013
34168W        W93462  32.888  14.702  13.412
34169W        W93463  17.298  16.270  12.091
34170W        W93464  10.852   2.861  11.996
34171W        W93465  30.650  32.613   1.754
34172W        W93466  13.835  20.557  13.525
34173W        W93467  16.746  18.148  12.925
34174W        W93468  30.158  26.198  11.608
34175W        W93469  38.927   5.817   4.761
34176W        W93470  31.976   1.837  10.982
34177W        W93471  31.980  30.914   1.276
34178W        W93472  16.172  36.386   2.333
34179W        W93473  20.707  30.981   0.373
34180W        W93474  20.159  32.139   2.267
34181W        W93475  21.542  40.821   3.349
34182W        W93476  41.325  21.629  14.394
34183W        W93477   0.378  25.671   0.945
34184W        W93478  34.899  13.685  14.926
34185W        W93479  28.027   7.668  10.588
34186W        W93480  37.973  15.585  11.107
34187W        W93481  11.846  17.067   3.772
34188W        W93482   8.227   9.250   4.172
34189W        W93483  12.297   0.382  11.451
34190W        W93484  38.568  43.859  14.994
34191W        W93485  12.824  13.683  11.018
34192W        W93486  30.626   2.423   4.814
34193W        W93487  36.992  29.023  13.445
34194W        W93488  13.706  11.683   2.200
34195W        W93489  34.073  44.922   3.679
34196W        W93490  38.051   7.390   1.329
34197W        W93491  30.013  36.075  10.605
34198W        W93492  41.357  20.265   3.720
34199W        W93493  16.107  21.218  11.892
34200W        W93494   9.800  16.812  13.998
34201W        W93495  25.541  42.027   1.776
34202W        W93496  10.159  38.895  11.529
34203W        W93497  39.997  26.995  13.405
34204W        W93498  27.137  16.673   0.429
34205W        W93499   8.688   9.174  11.528
34206W        W93500   5.912  26.639  13.351
34207W        W93501  19.744  14.816  13.969
34208W        W93502  42.879  32.086   4.796
34209W        W93503  20.103   3.947  14.907
34210W        W93504  11.163  33.534  14.015
34211W        W93505  42.970  36.534  13.505
34212W        W93506   0.387   0.933   1.357
34213W        W93507  38.551  26.522  13.547
34214W        W93508  11.765  27.001  11.493
34215W        W93509  32.936  25.019  14.339
34216W        W93510  43.010   8.657   0.745
34217W        W93511  37.026  30.115  12.550
34218W        W93512  20.531  14.816   4.343
34219W        W93513  41.871   8.694  10.145
34220W        W93514  37.871  40.945  11.543
34221W        W93515  41.478  10.793   4.719
34222W        W93516   1.804  16.802  11.577
34223W        W93517   1.416  42.358   1.861
34224W        W93518   1.331  33.121   1.785
34225W        W93519   2.754   1.291   2.740
34226W        W93520   1.872   4.809  14.021
34227W        W93521   3.335  24.115   4.234
34228W        W93522  24.021  21.043  13.423
34229W        W93523   8.766  35.092   3.697
34230W        W93524  19.154  39.355  11.553
34231W        W93525  13.637  26.086  11.536
34232W        W93526   2.733  11.269  14.921
34233W        W93527  14.721  34.103   1.210
34234W        W93528  13.676  12.688   3.273
34235W        W93529   3.882  37.526   0.872
34236W        W93530   6.912  11.130  13.990
34237W        W93531  24.524   8.300   3.225
34238W        W93532  25.029  43.346   4.696
34239W        W93533   2.892  14.727   2.407
34240W        W93534   4.412  39.481  10.422
34241W        W93535   1.942  32.030  13.472
34242W        W93536  26.567   4.405   3.811
34243W        W93537  26.474  18.199   1.808
34244W        W93538  35.591   1.304   1.296
34245W        W93539  34.028  12.828  11.599
34246W        W93540  33.539  32.993  13.928
34247W        W93541  38.943  14.641  12.524
34248W        W93542  15.130  24.013   0.735
34249W        W93543   6.313  39.028  10.529
34250W        W93544   7.738  10.782   4.296
34251W        W93545  28.135  14.251  12.059
34252W        W93546  14.747  22.503   4.258
34253W        W93547  37.878  13.322   4.691
34254W        W93548   4.899   2.753   0.279
34255W        W93549  38.990  25.071  14.385
34256W        W93550  27.566   8.337   9.574
34257W        W93551  42.893  28.500   2.692
34258W        W93552  22.742  11.678   0.444
34259W        W93553  32.441  33.941  13.463
34260W        W93554  12.216  13.792  13.492
34261W        W93555  40.973  35.407   5.116
34262W        W93556   1.266   9.264   4.163
34263W        W93557   8.235  33.544   1.282
34264W        W93558  19.752  41.866  13.987
34265W        W93559   7.283  38.016   3.709
34266W        W93560  10.721   3.811  14.342
34267W        W93561  41.859  22.740  13.997
34268W        W93562  26.647  39.888   2.788
34269W        W93563  34.380  26.668  12.556
34270W        W93564   2.278   9.352   3.805
34271W        W93565  38.368   9.714  11.032
34272W        W93566  22.721   8.796  12.559
34273W        W93567  35.095  19.675   3.711
34274W        W93568  16.644  42.885  12.971
34275W        W93569  15.318  11.837   3.264
34276W        W93570  40.846   6.822   3.301
34277W        W93571  15.695  26.012  11.903
34278W        W93572  29.664  23.144  14.304
34279W        W93573  41.917  37.037   4.672
34280W        W93574  28.522  32.620  11.955
34281W        W93575   5.221   2.947   2.725
34282W        W93576  21.740   4.886  12.515
34283W        W93577   5.697  32.567   0.465
34284W        W93578  14.136  21.601   1.285
34285W        W93579   1.430  11.321   4.804
34286W        W93580  40.497  34.588   4.715
34287W        W93581  10.700  36.555   3.281
34288W        W93582  22.588   5.816  10.597
34289W        W93583   9.743   2.881  12.998
34290W        W93584  36.977  30.655   1.358
34291W        W93585  11.360   3.869   0.874
34292W        W93586  38.829  44.759   4.821
34293W        W93587   4.267  13.793  11.077
34294W        W93588  32.392  12.185  13.429
34295W        W93589  38.858  13.835  14.959
34296W        W93590  33.393  35.578  13.799
34297W        W93591  23.703  43.353   3.279
34298W        W93592  18.183  10.365   4.632
34299W        W93593  38.486   7.192   4.178
34300W        W93594  28.073  13.734   9.921
34301W        W93595   3.813   8.874   2.788
34302W        W93596   1.432  26.696   4.684
34303W        W93597  26.109  11.302  12.052
34304W        W93598  42.870  41.818  13.469
34305W        W93599  27.494  38.942   1.213
34306W        W93600  26.139  11.144   1.282
34307W        W93601  34.437  35.383  14.451
34308W        W93602  10.814  18.789   1.725
34309W        W93603  11.705  16.179   1.353
34310W        W93604  12.332  27.115  11.373
34311W        W93605  29.169  28.009   3.256
34312W        W93606   3.927  44.424  12.497
34313W        W93607   5.810  34.400  11.479
34314W        W93608  19.705   8.294   1.221
34315W        W93609   3.748  29.945  11.594
34316W        W93610  34.975  23.115   2.202
34317W        W93611  38.415   1.335   2.844
34318W        W93612  20.724   9.823   2.268
34319W        W93613  26.571  26.568   0.287
34320W        W93614   6.398   0.823  12.388
34321W        W93615  44.479  29.510  12.522
34322W        W93616  31.632  18.717  11.459
34323W        W93617  14.170  20.696  13.825
34324W        W93618  42.309   7.802   4.701
34325W        W93619  24.592  19.266   2.385
34326W        W93620  28.966  41.462  11.465
34327W        W93621  29.670  29.450  11.048
34328W        W93622   3.349  30.438  11.415
34329W        W93623  17.576  34.930  13.365
34330W        W93624  38.919  29.078   0.856
34331W        W93625   6.839  27.660  13.054
34332W        W93626   7.335  19.716   0.849
34333W        W93627  32.627  41.537  11.903
34334W        W93628  19.595  44.850  14.854
34335W        W93629   1.734  27.188  11.480
34336W        W93630  13.782  35.593  12.403
34337W        W93631  28.068  42.004  12.553
34338W        W93632  15.577   0.386  13.000
34339W        W93633  44.007   8.343   0.300
34340W        W93634   8.328  38.362  14.933
34341W        W93635  38.077  14.800  13.473
34342W        W93636  24.067  36.845  13.860
34343W        W93637  43.412  42.455   4.618
34344W        W93638  36.075  32.504   2.199
34345W        W93639  16.313   8.855   2.286
34346W        W93640   2.333  25.613   2.206
34347W        W93641  20.160   6.389  13.429
34348W        W93642  13.752  12.212   3.788
34349W        W93643   9.275  44.914   5.224
34350W        W93644  20.234  39.532  12.956
34351W        W93645  31.042  27.562  11.569
34352W        W93646  44.370  16.110   3.665
34353W        W93647  12.680  39.416  13.050
34354W        W93648   4.304  18.098  11.535
34355W        W93649  16.282  38.904   9.942
34356W        W93650  31.049   1.917  11.881
34357W        W93651   4.849  39.838  14.360
34358W        W93652  21.030  34.605   1.422
34359W        W93653  41.852  42.397   2.389
34360W        W93654  39.862  36.847   0.825
34361W        W93655  11.157  19.767  13.890
34362W        W93656  31.153  20.571  10.447
34363W        W93657  27.116  14.268  11.016
34364W        W93658  25.645  41.433   2.728
34365W        W93659  11.298  24.121   4.649
34366W        W93660  10.313   3.333   0.784
34367W        W93661  14.797  20.752   0.285
34368W        W93662  15.114  43.897   4.827
34369W        W93663   5.201  10.854  13.860
34370W        W93664  29.119  10.659  14.834
34371W        W93665   7.331  27.525   0.904
34372W        W93666  21.562  18.270  14.466
34373W        W93667   1.867  24.625   1.406
34374W        W93668  16.811  22.590  13.524
34375W        W93669  12.287  27.166   2.778
34376W        W93670   6.252   9.845   1.451
34377W        W93671   2.392  42.408   1.814
34378W        W93672  35.596  43.995   0.289
34379W        W93673  12.138  36.415  11.998
34380W        W93674  13.212  29.573  14.279
34381W        W93675  42.866  28.992  10.630
34382W        W93676  20.102  29.945   1.698
34383W        W93677  41.833   0.952   0.282
34384W        W93678  44.954  31.538  13.417
34385W        W93679  21.074   8.308   9.559
34386W        W93680  24.119  19.675  12.359
34387W        W93681  15.255  15.809  11.490
34388W        W93682  34.387  19.109   0.313
34389W        W93683   8.771  31.603  12.856
34390W        W93684  22.014  25.479  10.918
34391W        W93685  42.392  37.365   4.746
34392W        W93686  43.504  14.686  11.878
34393W        W93687  25.680  37.513   1.901
34394W        W93688  19.653   7.237   3.346
34395W        W93689  14.287  30.154  11.608
34396W        W93690  43.009  17.598  11.912
34397W        W93691  18.656  28.484  11.449
34398W        W93692  37.011  33.493   4.794
34399W        W93693  25.087   9.723  11.918
34400W        W93694  22.682  35.909   0.945
34401W        W93695   8.180  39.844  12.422
34402W        W93696   1.441   4.362  10.453
34403W        W93697  22.666  28.963   0.436
34404W        W93698  32.095  30.645   0.909
34405W        W93699   0.408  39.988  13.532
34406W        W93700  16.590  16.277   2.821
34407W        W93701   4.311  24.125  12.478
34408W        W93702  19.686  33.461   1.304
34409W        W93703   7.792  21.115  14.503
34410W        W93704  35.003  13.309  10.613
34411W        W93705  24.673  14.320   1.221
34412W        W93706   5.316   9.158  13.850
34413W        W93707  26.007  25.471   3.334
34414W        W93708  42.871  19.174   4.715
34415W        W93709  29.926  29.446   3.707
34416W        W93710  11.651  24.139   2.712
34417W        W93711  14.284  19.547   1.795
34418W        W93712  30.090  34.410  14.365
34419W        W93713   0.467  32.037   0.937
34420W        W93714   9.293   1.742   5.209
34421W        W93715  34.119  39.402  13.464
34422W        W93716   8.745  14.183  14.881
34423W        W93717   1.443   5.843   0.412
34424W        W93718  27.002  25.220   1.865
34425W        W93719   0.821  25.967   4.237
34426W        W93720   3.372  38.470   1.917
34427W        W93721  13.281   6.913   3.703
34428W        W93722   7.769  24.615  12.993
34429W        W93723  19.543  27.681   3.687
34430W        W93724  15.631  13.775   0.394
34431W        W93725   5.768  40.800   2.866
34432W        W93726  34.875  24.725   3.705
34433W        W93727  32.933  29.105   0.776
34434W        W93728  29.536   6.204   4.827
34435W        W93729  13.331  20.733   3.176
34436W        W93730  42.335  15.675   0.328
34437W        W93731  41.428  13.200  14.430
34438W        W93732   6.855   2.430  12.386
34439W        W93733  15.286  35.963  14.780
34440W        W93734  10.870   9.330   0.416
34441W        W93735  43.937  10.318  11.014
34442W        W93736   7.892   8.234   1.736
34443W        W93737  42.398  41.832   0.960
34444W        W93738  36.444  23.003   0.294
34445W        W93739   7.865  36.880   3.160
34446W        W93740  28.477  44.910  14.898
34447W        W93741   8.798   5.755  10.024
34448W        W93742  26.657  38.838  11.042
34449W        W93743  15.612  34.385   9.978
34450W        W93744  30.636  15.232  11.480
34451W        W93745  25.127   4.766   3.218
34452W        W93746  44.936  36.937   2.352
34453W        W93747  19.060  19.245  14.379
34454W        W93748  43.786  26.660   3.816
34455W        W93749  22.546  22.542  14.851
34456W        W93750  35.418  34.109   0.894
34457W        W93751  33.997  37.382   4.726
34458W        W93752  22.250  17.193  11.559
34459W        W93753  25.028  14.689   0.407
34460W        W93754  23.067  16.765   4.245
34461W        W93755  18.567  17.298   2.743
34462W        W93756   2.316   3.834  14.465
34463W        W93757  23.731  18.093  13.536
34464W        W93758  20.212  30.124  11.507
34465W        W93759  29.008  29.158   0.480
34466W        W93760  43.302  41.887  13.810
34467W        W93761   7.337  23.058   0.242
34468W        W93762  22.027  13.278   4.163
34469W        W93763  28.469   9.837   2.275
34470W        W93764   8.258   1.895   4.640
34471W        W93765  41.369  32.006  14.934
34472W        W93766   6.420   6.805  12.091
34473W        W93767  14.679  12.338   0.260
34474W        W93768  29.549   9.349  14.784
34475W        W93769  15.722  36.353  12.560
34476W        W93770  19.239  17.065  12.090
34477W        W93771  33.059  34.080   0.845
34478W        W93772  35.099  11.731  14.859
34479W        W93773  19.661   9.751  14.510
34480W        W93774  36.572   8.358   0.808
34481W        W93775  40.913  35.369  10.073
34482W        W93776  41.869  29.606  11.410
34483W        W93777  14.808  37.482  11.472
34484W        W93778  26.113   0.473   0.767
34485W        W93779  18.237  24.645   4.132
34486W        W93780  24.708  22.202   2.360
34487W        W93781  43.355  40.483   2.705
34488W        W93782  26.617  19.710  12.462
34489W        W93783  13.725  35.528  12.041
34490W        W93784   6.420  44.814   3.202
34491W        W93785  41.456  36.960   0.387
34492W        W93786  16.121  13.738   4.129
34493W        W93787  43.506  16.187  11.880
34494W        W93788  10.258   1.435   9.447
34495W        W93789  29.945  19.603  14.876
34496W        W93790  33.439  26.592   3.760
34497W        W93791   2.399   7.190   2.805
34498W        W93792  25.089  36.527  11.120
34499W        W93793  26.582  33.899  10.430
34500W        W93794  18.098  17.749  12.543
34501W        W93795  15.197   6.391  11.571
34502W        W93796  35.004  13.637  14.358
34503W        W93797  31.907   9.221   2.890
34504W        W93798   6.843  44.497   2.827
34505W        W93799   0.249  19.265  13.988
34506W        W93800  17.753  22.738   4.652
34507W        W93801  10.173   5.287  11.384
34508W        W93802  33.911  36.996  13.833
34509W        W93803  27.524  34.398   4.213
34510W        W93804  22.589  28.668   2.189
34511W        W93805   8.849  31.911  13.947
34512W        W93806  31.067  16.191  13.883
34513W        W93807  38.503  43.316   4.183
34514W        W93808  10.764   2.354  12.828
34515W        W93809  31.450  39.459  12.006
34516W        W93810  27.000   2.725  10.470
34517W        W93811  39.907  42.820   0.351
34518W        W93812  23.125  20.673   1.748
34519W        W93813   4.861   1.468  10.892
34520W        W93814  31.615  25.515   2.766
34521W        W93815  26.594  34.539  13.012
34522W        W93816   5.356  15.691   3.191
34523W        W93817  23.044  19.049   4.338
34524W        W93818  27.613  18.556   4.721
34525W        W93819   7.200   2.402   0.474
34526W        W93820  13.636  29.533   1.310
34527W        W93821  36.091  23.116   1.925
34528W        W93822   6.795  44.848  12.487
34529W        W93823  34.946   5.347  12.946
34530W        W93824  20.257   5.352   0.319
34531W        W93825  31.043  44.954  10.424
34532W        W93826  41.394  18.060   2.214
34533W        W93827   8.288  20.036   2.868
34534W        W93828  17.117   6.320   3.384
34535W        W93829  36.942  43.965   2.228
34536W        W93830   1.427  32.083  12.541
34537W        W93831  27.999  43.274   3.283
34538W        W93832   6.319   1.414  14.357
34539W        W93833  36.406  19.182  10.617
34540W        W93834   5.237  18.156  14.829
34541W        W93835  40.926  43.335  11.977
34542W        W93836   7.897  16.678  11.553
34543W        W93837  31.496   2.324  11.114
34544W        W93838  38.016  26.686  12.387
34545W        W93839  34.489  41.804  14.421
34546W        W93840  30.543  14.724  11.566
34547W        W93841  24.666  26.637   1.215
34548W        W93842   4.297   9.294   1.249
34549W        W93843  26.983   1.739  10.487
34550W        W93844   2.320  38.363  14.426
34551W        W93845   4.254   3.335  13.366
34552W        W93846   1.360  30.914  11.936
34553W        W93847  41.979  27.156   4.350
34554W        W93848  44.793  33.054  13.994
34555W        W93849   3.955   7.724  13.929
34556W        W93850   4.427  41.511   2.865
34557W        W93851  34.527  41.865  12.375
34558W        W93852   9.773  17.779   2.662
34559W        W93853   9.663  37.336  12.548
34560W        W93854  16.769   3.749   0.861
34561W        W93855  44.447  33.110  12.566
34562W        W93856  35.412  16.147  11.951
34563W        W93857  12.147  41.391  14.838
34564W        W93858   8.279  10.806   0.449
34565W        W93859  37.851  22.132   4.274
34566W        W93860  25.607   6.855  14.433
34567W        W93861  13.185  12.838  11.510
34568W        W93862  30.638  29.088   0.254
34569W        W93863  19.666  29.943  13.008
34570W        W93864  37.340  17.791  14.482
34571W        W93865  25.699  43.462  12.439
34572W        W93866  28.644  44.354  12.078
34573W        W93867  28.019  36.016   4.803
34574W        W93868  17.690  43.989   2.223
34575W        W93869  15.784  13.830  10.935
34576W        W93870  31.471   6.317  11.562
34577W        W93871  12.307  17.797  10.465
34578W        W93872  28.997   0.471   4.661
34579W        W93873  15.102   9.710   4.740
34580W        W93874  18.108  25.013  11.957
34581W        W93875  15.699  39.325   4.127
34582W        W93876  12.706  20.593  12.989
34583W        W93877   7.415  36.436   3.258
34584W        W93878  10.806  35.562   4.280
34585W        W93879  20.532  34.511  10.544
34586W        W93880  38.363  34.369   2.807
34587W        W93881   0.779  14.695   3.810
34588W        W93882  42.498   7.314  11.059
34589W        W93883  15.612  43.474   1.282
34590W        W93884  11.367  31.041  13.875
34591W        W93885  16.089  41.038   0.438
34592W        W93886   0.802  24.070   3.766
34593W        W93887  16.093  26.654  10.447
34594W        W93888  37.376  28.522   0.769
34595W        W93889  40.447  33.469   3.843
34596W        W93890  38.934  29.035   0.362
34597W        W93891  34.905  28.984  12.918
34598W        W93892  36.966   1.777  10.579
34599W        W93893  11.862  30.565  13.929
34600W        W93894  21.087  28.509  13.492
34601W        W93895  32.475  11.128  12.848
34602W        W93896  16.749  32.592  12.341
34603W        W93897   1.254   0.338   9.931
34604W        W93898  14.281   6.250  12.039
34605W        W93899  20.716  13.735  11.967
34606W        W93900  42.317   0.465   5.758
34607W        W93901  32.130  27.025   4.713
34608W        W93902  44.810  22.195   3.312
34609W        W93903  40.802  35.071  14.361
34610W        W93904   4.724  43.490  13.343
34611W        W93905   3.720  24.581   3.339
34612W        W93906  41.848  14.784  12.485
34613W        W93907   9.194  30.441   4.758
34614W        W93908   9.807  34.528  10.425
34615W        W93909  17.614  40.007   2.682
34616W        W93910  32.959  38.076  14.350
34617W        W93911   4.764  33.067   2.372
34618W        W93912  34.109  40.798  14.951
34619W        W93913  25.550   9.284   0.905
34620W        W93914  32.404   9.335  14.301
34621W        W93915  20.249  16.741   3.793
34622W        W93916   9.784  35.519   2.775
34623W        W93917  22.633   4.429   1.814
34624W        W93918   5.785  30.491  10.589
34625W        W93919   2.844  32.626  10.427
34626W        W93920   4.431  13.627  13.418
34627W        W93921  43.323  20.132  14.924
34628W        W93922  19.645  29.045  10.921
34629W        W93923   3.334  33.122  11.981
34630W        W93924   4.751  44.951   3.220
34631W        W93925  23.237  34.378   1.261
34632W        W93926   7.759  11.654   5.193
34633W        W93927   7.397  13.199   1.403
34634W        W93928  35.576  14.331   3.166
34635W        W93929   5.696  34.588   4.727
34636W        W93930   6.890  25.219   0.302
34637W        W93931  38.541  32.888  11.590
34638W        W93932  12.713  26.195   4.642
34639W        W93933  14.777  31.603  11.952
34640W        W93934  15.822  42.797  13.935
34641W        W93935  38.378  25.605  12.073
34642W        W93936  32.904  29.449  12.845
34643W        W93937  34.515  34.580   0.959
34644W        W93938  26.014   2.243   3.306
34645W        W93939  14.732  10.271   9.992
34646W        W93940  22.723  19.778  12.892
34647W        W93941  40.329  32.907  11.053
34648W        W93942  26.096  18.186   3.185
34649W        W93943  22.067  28.526  10.548
34650W        W93944  33.011  14.766  11.524
34651W        W93945  24.004  16.588  14.983
34652W        W93946  39.953  12.763   4.233
34653W        W93947  36.496  25.200  12.543
34654W        W93948  14.745  43.396   1.303
34655W        W93949  19.696  23.009   4.837
34656W        W93950  29.031  23.085  10.909
34657W        W93951  44.765  23.532  11.443
34658W        W93952  44.481  40.539   3.849
34659W        W93953  23.179  14.328   2.292
34660W        W93954  44.760  29.613  14.976
34661W        W93955  14.680  19.238   2.311
34662W        W93956  10.878   9.387  10.614
34663W        W93957  28.555   3.956  12.867
34664W        W93958  14.189  12.221   3.858
34665W        W93959  29.598   8.179  11.549
34666W        W93960  10.634   9.822   3.377
34667W        W93961  37.838  34.875  12.845
34668W        W93962   5.799  35.936   1.292
34669W        W93963  43.454  37.895  12.493
34670W        W93964  36.572   1.305   4.139
34671W        W93965  32.426  37.998   0.803
34672W        W93966  36.930  29.131   0.312
34673W        W93967  21.661  31.592  11.101
34674W        W93968  18.621  16.116  13.380
34675W        W93969   9.862   3.426  13.458
34676W        W93970  23.056  36.084  12.533
34677W        W93971  19.141   0.957   0.404
34678W        W93972  20.737  36.560   3.825
34679W        W93973  11.651   2.419  14.870
34680W        W93974   0.459  12.289   2.742
34681W        W93975  12.646  38.526  14.762
34682W        W93976  27.602  30.494   1.812
34683W        W93977  10.323  11.763   5.099
34684W        W93978  13.281  32.898  13.517
34685W        W93979   2.846  23.589   3.201
34686W        W93980  39.369  35.038  11.969
34687W        W93981  36.490  42.411  14.978
34688W        W93982   1.393  15.643  12.459
34689W        W93983  16.200  33.408  12.418
34690W        W93984  41.945   9.826   3.276
34691W        W93985  35.386  38.379  14.963
34692W        W93986  18.664   2.778   1.814
34693W        W93987  22.144  30.595   3.793
34694W        W93988  40.971  36.928  13.333
34695W        W93989   0.820  13.814  10.609
34696W        W93990  13.812   4.879   3.789
34697W        W93991  41.423  13.197   4.296
34698W        W93992  38.486   5.904  14.961
34699W        W93993  29.141  29.074  11.432
34700W        W93994   1.397  27.611  11.385
34701W        W93995  32.927   0.364   0.905
34702W        W93996  37.014  20.149   1.742
34703W        W93997  24.495   7.912   1.839
34704W        W93998  22.067  14.750   4.786
34705W        W93999  44.808   7.830  10.990
34706W        W94000  31.142  21.218   1.231
34707W        W94001  14.776   3.277   1.700
34708W        W94002  11.162  29.143  12.856
34709W        W94003   2.817  24.084   4.611
34710W        W94004  12.761   6.367  13.446
34711W        W94005  22.548  10.316   3.325
34712W        W94006   9.177  24.079  12.949
34713W        W94007  10.799  31.582   2.737
34714W        W94008   7.300  37.865  11.097
34715W        W94009  30.546   3.851   2.352
34716W        W94010  10.261  15.314  11.403
34717W        W94011   4.918  39.873  13.465
34718W        W94012  15.308  12.340   0.890
34719W        W94013  22.094  28.943  12.510
34720W        W94014  20.078  11.793  10.147
34721W        W94015  17.080  34.033  12.045
34722W        W94016  34.881  19.745   0.264
34723W        W94017  23.611   5.771  13.536
34724W        W94018   8.729  44.926   1.300
34725W        W94019   5.909  15.623  13.381
34726W        W94020  24.112  26.626  13.926
34727W        W94021  21.714  31.123  14.873
34728W        W94022   8.877  17.618  10.932
34729W        W94023  28.665  26.003  14.827
34730W        W94024  22.584  11.328   3.704
34731W        W94025  24.011   0.761  13.916
34732W        W94026   0.381  29.935   4.655
34733W        W94027  41.828   9.698   4.792
34734W        W94028  33.385  41.013   5.171
34735W        W94029  22.726  29.940   2.238
34736W        W94030  24.677   4.831  13.361
34737W        W94031  38.955  42.297   0.329
34738W        W94032  37.066  44.500   0.740
34739W        W94033  44.755   7.733   3.297
34740W        W94034  42.420  25.085  13.384
34741W        W94035  17.285  30.477   3.377
34742W        W94036  29.155  10.165  11.584
34743W        W94037  12.324  36.488   0.952
34744W        W94038   1.813  29.463   1.230
34745W        W94039  41.484   5.793  14.835
34746W        W94040  35.507  14.712  12.898
34747W        W94041  35.534  21.575   1.215
34748W        W94042  25.184  35.904  11.102
34749W        W94043  20.736  30.031   2.673
34750W        W94044   3.215   9.647  11.937
34751W        W94045   2.469  30.039   2.314
34752W        W94046  32.063  24.690   3.694
34753W        W94047   0.848  30.446  13.020
34754W        W94048  37.866   0.398   3.715
34755W        W94049   9.856  15.797   4.285
34756W        W94050  24.217  16.201  13.531
34757W        W94051   2.733   5.244  13.454
34758W        W94052  37.385  12.292  13.991
34759W        W94053  33.991  10.646   1.218
34760W        W94054  43.839   1.885   1.809
34761W        W94055  15.102  20.575   2.745
34762W        W94056   7.183  34.490  10.607
34763W        W94057  26.699  13.349  13.368
34764W        W94058  10.228  17.204  11.432
34765W        W94059   1.870  21.235  10.424
34766W        W94060  36.841  14.274  14.287
34767W        W94061  22.114  42.283   0.256
34768W        W94062  40.418  37.498  10.407
34769W        W94063  19.063  38.872   4.295
34770W        W94064  44.921  42.494  14.998
34771W        W94065   1.937   2.770   0.350
34772W        W94066   9.822  33.479  10.428
34773W        W94067  34.071  24.049  10.535
34774W        W94068  27.941  41.041   0.333
34775W        W94069  33.467  17.662  12.537
34776W        W94070  11.725   3.745  13.503
34777W        W94071   2.825  13.132   4.298
34778W        W94072  12.740  16.793   2.796
34779W        W94073  16.774  23.530  14.840
34780W        W94074  34.421   2.362   1.727
34781W        W94075  31.931   5.700  14.414
34782W        W94076  40.391  16.645   2.243
34783W        W94077  30.098  24.063  12.085
34784W        W94078  44.891  37.433  12.896
34785W        W94079  27.506  27.014  12.824
34786W        W94080  17.569  37.555  14.292
34787W        W94081  32.429  33.022   2.370
34788W        W94082  39.934  41.788  11.127
34789W        W94083  41.381  35.385  13.346
34790W        W94084   9.303  26.505  14.835
34791W        W94085  42.859  39.906   2.337
34792W        W94086   6.250  27.478  13.009
34793W        W94087  44.318  37.401  14.816
34794W        W94088  19.662  27.666  12.886
34795W        W94089  43.317  34.552   3.339
34796W        W94090   1.335  25.991  10.953
34797W        W94091   9.270  40.813  14.017
34798W        W94092  26.641  15.727   0.293
34799W        W94093  15.783  39.962  12.419
34800W        W94094  15.688  39.826   3.205
34801W        W94095  27.037  38.444   2.300
34802W        W94096  18.090   6.403   0.967
34803W        W94097  32.518  14.274  14.836
34804W        W94098  21.731  37.044   0.836
34805W        W94099  37.980  44.504   4.236
34806W        W94100  19.540  30.935  11.385
34807W        W94101  22.581  25.072  12.086
34808W        W94102  35.511  17.114  11.413
34809W        W94103  29.045  42.384  13.988
34810W        W94104  31.502   2.778   3.665
34811W        W94105  16.220  25.022   4.261
34812W        W94106   3.461  27.560   4.681
34813W        W94107  41.307  31.907  13.463
34814W        W94108  24.056  14.627  14.997
34815W        W94109  19.668  13.129  12.072
34816W        W94110  41.360  26.663  11.032
34817W        W94111   6.261  40.399  13.448
34818W        W94112  10.700  35.362   9.444
34819W        W94113   8.168  32.516  10.556
34820W        W94114  32.031  17.613  10.505
34821W        W94115  41.002  19.754   1.834
34822W        W94116  23.630  36.049   0.362
34823W        W94117  42.505  44.500   4.634
34824W        W94118  19.601   7.358  11.432
34825W        W94119  29.571  20.038   4.835
34826W        W94120  29.949  11.638  13.431
34827W        W94121  21.539  28.126  10.964
34828W        W94122  39.417  32.485  14.973
34829W        W94123  25.045  29.635   4.323
34830W        W94124  37.856  17.618   3.174
34831W        W94125  32.534  43.981   0.859
34832W        W94126  10.639   3.895  11.046
34833W        W94127  38.945  21.100   1.318
34834W        W94128  25.561  34.987  12.504
34835W        W94129  43.357  29.012  14.484
34836W        W94130  10.753  30.100  11.100
34837W        W94131  36.482  14.745   2.262
34838W        W94132  18.075  36.360  11.428
34839W        W94133  18.243  18.762  11.412
34840W        W94134  22.597   9.377  11.405
34841W        W94135  26.659  29.618   0.320
34842W        W94136  24.494  26.016   4.350
34843W        W94137  39.823  38.931   1.268
34844W        W94138   7.264  40.395  11.949
34845W        W94139  41.359  42.520  12.580
34846W        W94140  36.449  36.984  12.010
34847W        W94141  40.867   7.863   1.766
34848W        W94142  34.498  40.009   2.205
34849W        W94143  38.000   9.730   0.963
34850W        W94144  19.075  34.547  12.478
34851W        W94145  31.620   8.178  11.571
34852W        W94146  33.004  17.789   4.197
34853W        W94147  15.152  30.994   0.772
34854W        W94148  43.971  43.514   3.309
34855W        W94149  26.123   8.323   5.705
34856W        W94150  19.057  44.843  12.401
34857W        W94151  44.882  11.315  10.570
34858W        W94152  29.152  11.687   2.858
34859W        W94153  29.046  14.604   4.190
34860W        W94154  27.082   0.759   1.254
34861W        W94155   5.795  26.621  10.497
34862W        W94156  37.919   5.776   2.686
34863W        W94157  13.603  39.350   2.694
34864W        W94158  40.002  24.025   4.671
34865W        W94159  31.627   7.847   1.807
34866W        W94160  17.745  36.857   1.222
34867W        W94161  34.115  17.078   3.650
34868W        W94162  20.263  18.113  10.921
34869W        W94163  36.517  42.781  13.485
34870W        W94164   3.765  33.509   2.778
34871W        W94165  27.549  34.021   0.479
34872W        W94166   4.931  42.873   5.119
34873W        W94167  18.250  20.209   0.272
34874W        W94168   6.895   8.225   3.271
34875W        W94169  40.855  39.041   2.662
34876W        W94170  36.514  44.311  10.074
34877W        W94171  29.923   3.950   4.315
34878W        W94172  15.594  12.634   2.744
34879W        W94173  24.170   5.875  13.367
34880W        W94174   6.204  34.935  13.960
34881W        W94175  44.992  25.620   2.787
34882W        W94176  17.248   4.819  13.915
34883W        W94177   0.261   8.809   2.887
34884W        W94178  15.622  17.678  10.115
34885W        W94179   7.415   4.381  14.832
34886W        W94180  14.605   2.304  12.467
34887W        W94181  35.381  11.187   3.303
34888W        W94182  22.681  32.018  10.059
34889W        W94183   7.407   4.779  10.955
34890W        W94184   3.314  39.400   1.917
34891W        W94185  16.315  38.456  13.899
34892W        W94186   3.946  37.410   4.278
34893W        W94187   6.184  36.493  11.595
34894W        W94188  36.397  29.000   1.734
34895W        W94189  14.741  22.032  12.477
34896W        W94190  21.519  25.053   0.773
34897W        W94191   8.698  18.271   4.662
34898W        W94192  28.032  16.777  12.913
34899W        W94193  12.160  10.161   4.807
34900W        W94194  25.179  36.584   5.181
34901W        W94195   7.270  36.392   2.722
34902W        W94196  14.318  32.040   3.158
34903W        W94197  30.632  14.172   0.350
34904W        W94198  29.650   1.850  11.103
34905W        W94199  10.845  21.176  12.005
34906W        W94200   8.402  11.855   0.794
34907W        W94201  18.629  33.043   4.345
34908W        W94202  43.412  25.060   1.921
34909W        W94203  30.642   3.785  13.040
34910W        W94204  32.633  11.681   4.218
34911W        W94205  40.341  14.608  11.006
34912W        W94206  19.773  26.068  11.032
34913W        W94207  29.649  12.292  12.830
34914W        W94208  25.479  37.500   3.243
34915W        W94209  21.027  11.331  13.899
34916W        W94210  11.325  23.014   3.348
34917W        W94211  40.474  20.600   2.687
34918W        W94212  39.963  39.516   1.785
34919W        W94213   9.692  32.984  11.957
34920W        W94214   4.755  35.907   0.394
34921W        W94215   7.733  19.764   2.773
34922W        W94216  38.055  30.440   3.681
34923W        W94217  18.655  30.422  13.977
34924W        W94218  35.443   2.400  11.865
34925W        W94219   2.276  25.504   4.289
34926W        W94220  33.506   8.306  13.033
34927W        W94221  41.426  28.020  12.013
34928W        W94222   5.836  27.597  13.388
34929W        W94223   0.897  12.718  13.966
34930W        W94224  23.614  11.769   5.694
34931W        W94225  31.631  21.551  10.638
34932W        W94226  35.091  41.862   2.218
34933W        W94227   6.315  39.323  14.360
34934W        W94228  39.907  28.988   4.834
34935W        W94229  26.136   1.789   2.322
34936W        W94230  21.064  12.837   4.818
34937W        W94231  36.402  22.502   0.409
34938W        W94232   3.384  44.381  11.608
34939W        W94233  15.766  11.849   1.879
34940W        W94234   3.815  28.169  13.537
34941W        W94235  31.119   8.295   0.817
34942W        W94236  25.185   7.860   3.840
34943W        W94237  31.502  30.439  11.095
34944W        W94238   2.791  14.146  12.882
34945W        W94239  15.233  21.590  13.972
34946W        W94240  26.986   2.414  11.431
34947W        W94241  29.651  42.418  13.887
34948W        W94242  43.778  17.725   0.824
34949W        W94243  17.173  18.755   3.763
34950W        W94244   3.879  40.419  10.965
34951W        W94245  25.086   7.209  13.876
34952W        W94246  34.875  38.870   4.210
34953W        W94247  27.129  28.091   0.274
34954W        W94248  21.233   9.341   4.339
34955W        W94249   2.328  42.805  10.109
34956W        W94250   3.411  36.926  11.041
34957W        W94251  16.086  23.097  12.358
34958W        W94252  19.654  18.198  13.893
34959W        W94253  42.458  30.089   3.156
34960W        W94254   3.241   4.440  13.913
34961W        W94255   5.921   9.395   4.245
34962W        W94256  33.985  31.432  14.920
34963W        W94257  32.438  39.405  14.465
34964W        W94258   1.804  26.498   0.332
34965W        W94259  35.009  11.809   3.780
34966W        W94260   8.198   5.205   0.458
34967W        W94261   8.292  16.221   3.298
34968W        W94262   5.193  41.825  10.470
34969W        W94263  36.350  35.073   1.325
34970W        W94264  17.744  40.811   1.317
34971W        W94265  30.484  38.931   3.294
34972W        W94266  29.542  40.860   0.871
34973W        W94267  31.409  35.422   2.889
34974W        W94268   0.954  14.216  12.557
34975W        W94269  25.485  37.054  10.603
34976W        W94270  21.524   7.907  13.952
34977W        W94271   4.759  39.375  10.905
34978W        W94272   1.769  33.093  13.321
34979W        W94273  28.543  38.861   1.252
34980W        W94274  22.635  16.244   2.703
34981W        W94275   9.223  39.954  14.886
34982W        W94276  44.800  41.446  12.406
34983W        W94277   0.298   9.286  10.947
34984W        W94278  35.886  31.505   0.300
34985W        W94279  13.823  28.009  11.511
34986W        W94280  42.819  39.370   2.704
34987W        W94281  33.914   4.869  14.984
34988W        W94282   4.227   4.266   3.379
34989W        W94283   5.700  10.652   1.700
34990W        W94284  38.458  16.261  11.457
34991W        W94285  23.551  25.523   2.771
34992W        W94286  29.530  42.495  10.952
34993W        W94287  23.703   0.769   3.648
34994W        W94288  38.924   5.257  14.284
34995W        W94289  18.576  41.425   9.990
34996W        W94290  11.725  22.590   0.937
34997W        W94291  39.480  39.054   2.827
34998W        W94292  20.574  42.804  12.510
34999W        W94293  37.353   2.350   1.837
35000W        W94294  10.778  30.638  13.499
35001W        W94295  43.380  38.482   1.723
35002W        W94296  26.028  39.951   3.853
35003W        W94297  42.479  44.431  14.021
35004W        W94298   0.914  29.590  11.955
35005W        W94299  32.411  44.873   4.126
35006W        W94300  25.692  22.152  14.853
35007W        W94301  32.452  34.001  11.986
35008W        W94302  30.576  29.431   0.284
35009W        W94303  36.957  40.329   4.239
35010W        W94304  16.764  32.008  11.994
35011W        W94305  33.531   3.314   0.386
35012W        W94306  19.729   7.733  11.855
35013W        W94307  36.408  37.485   1.817
35014W        W94308  28.438  14.792  10.517
35015W        W94309  35.101  37.459   3.825
35016W        W94310  22.550  31.107  10.911
35017W        W94311  34.867  36.060   1.786
35018W        W94312  43.288   3.879  10.969
35019W        W94313  11.273  13.328  11.533
35020W        W94314  39.921  41.804   4.154
35021W        W94315  15.152  27.090   2.314
35022W        W94316   8.816  44.398   3.287
35023W        W94317   3.859  42.357   3.692
35024W        W94318  28.514  27.173  13.407
35025W        W94319  39.556  30.641   0.425
35026W        W94320  40.048  16.781   1.820
35027W        W94321   5.859  38.394  11.560
35028W        W94322  37.033  10.158  11.954
35029W        W94323  37.002  33.452  11.456
35030W        W94324   3.766  18.187   2.748
35031W        W94325  32.427  43.453   0.358
35032W        W94326   0.355  33.389   1.393
35033W        W94327  33.127  43.866  12.362
35034W        W94328  41.855  28.183   2.736
35035W        W94329  25.525  33.456  14.977
35036W        W94330  41.431  15.224  12.060
35037W        W94331  18.554   9.392  11.401
35038W        W94332   8.663  16.204   1.369
35039W        W94333  36.063   2.898   2.900
35040W        W94334  27.599  27.976   2.858
35041W        W94335   8.733  36.506   0.950
35042W        W94336  39.834   5.254   1.883
35043W        W94337  41.519   7.189  14.349
35044W        W94338  27.111  12.276   0.870
35045W        W94339   5.921  33.102   4.610
35046W        W94340  12.281   5.212  12.048
35047W        W94341   5.780   7.799  14.929
35048W        W94342  42.498  33.918   3.168
35049W        W94343  28.930  15.811   3.198
35050W        W94344  19.590  20.710  10.544
35051W        W94345  21.163   3.418   3.289
35052W        W94346  14.123  15.110  13.370
35053W        W94347  40.853   4.369   2.387
35054W        W94348  20.677  31.936   2.680
35055W        W94349   2.789  11.801  12.840
35056W        W94350  31.598  34.590   3.681
35057W        W94351  42.419  20.557  12.928
35058W        W94352   3.229  13.328   5.101
35059W        W94353  22.051  41.458   4.630
35060W        W94354  42.490  34.111  13.366
35061W        W94355   4.865  32.122   5.277
35062W        W94356  19.694  17.062  14.471
35063W        W94357  37.436  44.890   2.330
35064W        W94358   1.929  27.980   3.352
35065W        W94359  42.408  19.567   0.443
35066W        W94360  11.185  27.980   1.423
35067W        W94361  17.691   6.739  13.504
35068W        W94362  19.583  35.566   1.291
35069W        W94363  39.889  28.610  13.481
35070W        W94364  40.524  34.951   2.347
35071W        W94365  27.508  27.070  14.945
35072W        W94366  10.648   5.712  11.030
35073W        W94367  27.591  43.866  12.410
35074W        W94368  38.021  26.496  10.633
35075W        W94369  40.382  27.167   0.820
35076W        W94370   5.355  37.073   3.146
35077W        W94371   5.420   8.802  10.629
35078W        W94372  18.153   7.214   0.766
35079W        W94373  14.678   2.878  11.972
35080W        W94374  13.336  33.597  14.884
35081W        W94375  10.861  14.108  12.842
35082W        W94376   2.326   2.321  12.034
35083W        W94377  22.532  21.668  10.976
35084W        W94378   9.259   2.230  13.459
35085W        W94379  41.466  30.038  13.874
35086W        W94380  31.545  13.786   4.656
35087W        W94381  26.995  26.513   2.313
35088W        W94382   0.802  40.420   1.292
35089W        W94383   1.786   4.740   1.210
35090W        W94384  27.096   2.774  13.970
35091W        W94385  27.002  29.652   1.350
35092W        W94386  11.175  27.031   4.714
35093W        W94387  15.196  40.449  11.993
35094W        W94388  36.405  36.438  13.926
35095W        W94389  10.855  27.688   1.437
35096W        W94390  12.611   2.287  12.372
35097W        W94391  24.527  31.985   3.160
35098W        W94392  37.362  19.666   4.603
35099W        W94393  44.280  23.063   4.147
35100W        W94394  33.533  10.331   3.821
35101W        W94395  20.177   1.384   1.709
35102W        W94396  35.533  37.484  14.957
35103W        W94397  29.127  29.661  14.378
35104W        W94398  13.238  41.417  11.390
35105W        W94399  20.182  37.898   0.966
35106W        W94400  31.633   9.858   5.091
35107W        W94401  18.203  22.252  12.570
35108W        W94402  19.275  14.804  12.379
35109W        W94403  37.407  43.436   0.837
35110W        W94404   5.927  28.110   0.962
35111W        W94405  18.760  34.883  10.059
35112W        W94406  15.776  43.000  14.337
35113W        W94407   4.355  10.684  13.488
35114W        W94408  35.470  28.960  14.928
35115W        W94409  21.165   6.241   4.647
35116W        W94410   2.813  11.771  10.432
35117W        W94411  12.215  32.627   1.895
35118W        W94412  17.137  41.886   4.738
35119W        W94413  19.062  26.522   3.742
35120W        W94414  36.934  42.449   0.860
35121W        W94415  15.637  33.396   4.639
35122W        W94416  37.030  42.929  11.947
35123W        W94417   0.293  34.606  11.523
35124W        W94418  27.557  21.139   4.167
35125W        W94419  34.566  18.221   0.781
35126W        W94420   1.478  27.047   3.864
35127W        W94421   1.734   0.481   4.789
35128W        W94422   8.387  29.139   2.790
35129W        W94423   0.318  34.573   0.804
35130W        W94424  30.915  30.164   2.810
35131W        W94425  41.469   2.836   0.319
35132W        W94426  24.491  32.455  11.530
35133W        W94427   9.203  44.781  10.160
35134W        W94428  28.078  21.228  14.975
35135W        W94429  43.352   9.328   4.264
35136W        W94430  13.109  31.082   5.215
35137W        W94431  14.302  18.163   1.723
35138W        W94432  15.255   0.752   0.820
35139W        W94433  23.634   0.423   3.245
35140W        W94434   2.825   9.733  14.804
35141W        W94435  42.955  35.071  10.468
35142W        W94436  39.879   0.769  13.370
35143W        W94437  10.312  20.600  12.028
35144W        W94438  30.065  34.611  13.974
35145W        W94439   5.316  33.604  14.935
35146W        W94440  10.165  39.316  13.015
35147W        W94441   3.761  35.412   0.884
35148W        W94442  24.125  26.123  11.417
35149W        W94443  41.326  16.759  14.801
35150W        W94444  24.001  35.991  13.808
35151W        W94445  10.805  23.534   1.932
35152W        W94446  14.248   9.874  10.913
35153W        W94447  11.671  13.109   1.278
35154W        W94448   9.149  14.834   1.373
35155W        W94449   7.694  21.753  10.538
35156W        W94450  17.782  29.476  14.513
35157W        W94451  44.263  21.752   4.244
35158W        W94452  19.092   6.406  12.924
35159W        W94453   6.877  43.830  10.900
35160W        W94454  43.432   5.921   1.436
35161W        W94455  42.923  27.464  10.507
35162W        W94456   2.295  44.766  12.936
35163W        W94457  22.036   7.340   2.698
35164W        W94458  42.328  44.980   3.195
35165W        W94459  40.844  21.692  11.040
35166W        W94460  41.853  17.691  12.339
35167W        W94461  10.799  18.090   0.841
35168W        W94462  42.818  38.873   1.763
35169W        W94463   6.818   1.835   0.809
35170W        W94464  23.042  36.018   0.465
35171W        W94465   5.257  34.021   3.270
35172W        W94466  22.512  27.513   3.657
35173W        W94467   3.735  16.220   2.803
35174W        W94468  33.466  14.149   0.461
35175W        W94469  42.330  15.187  12.077
35176W        W94470  20.254  15.258  14.948
35177W        W94471  22.558   0.476   1.400
35178W        W94472  41.303  14.736  13.062
35179W        W94473   0.790  38.955   4.673
35180W        W94474  25.630   5.883  14.922
35181W        W94475  26.068   9.336   2.219
35182W        W94476   8.336  29.549  14.779
35183W        W94477  42.019  27.002   3.765
35184W        W94478  23.221  38.365   0.803
35185W        W94479  23.177   5.725   5.149
35186W        W94480  22.666  19.196  10.539
35187W        W94481  12.696   4.333  11.033
35188W        W94482  20.081   2.869   3.805
35189W        W94483   0.269  35.534   3.321
35190W        W94484   7.727  19.721   1.219
35191W        W94485  33.605  12.696  13.945
35192W        W94486  33.106  37.456  14.513
35193W        W94487  28.050   5.192   4.759
35194W        W94488   2.726   9.180  14.290
35195W        W94489  11.803   8.369   0.834
35196W        W94490  40.518  18.112  14.834
35197W        W94491   6.706  25.566  13.524
35198W        W94492  43.440   8.833  14.854
35199W        W94493  44.281  16.803   4.298
35200W        W94494  15.659   8.193   3.262
35201W        W94495   3.775   3.438   5.114
35202W        W94496   6.698  24.630   4.608
35203W        W94497  19.743  12.138  11.058
35204W        W94498   1.446  29.920   3.860
35205W        W94499   1.786  16.757   0.784
35206W        W94500  26.531  41.965  10.978
35207W        W94501   1.411   0.761  12.347
35208W        W94502   7.872  17.781  14.023
35209W        W94503  10.317   1.822  13.912
35210W        W94504  41.808  26.132   4.756
35211W        W94505  29.014  35.044  14.405
35212W        W94506  20.115  19.678   4.123
35213W        W94507  10.816  20.744  13.022
35214W        W94508   4.922  35.094   3.340
35215W        W94509  30.059   1.362   4.150
35216W        W94510  32.081  29.961   0.430
35217W        W94511  29.547   1.776   0.482
35218W        W94512  35.549   8.896   4.824
35219W        W94513   8.686  10.777   2.889
35220W        W94514   2.344   2.468  10.049
35221W        W94515  43.774  10.190  12.360
35222W        W94516   7.857   8.392  14.507
35223W        W94517  28.449  24.158  13.463
35224W        W94518  27.989  11.799  10.538
35225W        W94519   5.725  43.929   3.655
35226W        W94520  41.796  23.210  12.574
35227W        W94521  12.794  26.134  12.527
35228W        W94522  20.711  23.228  12.092
35229W        W94523  10.225  38.016  12.364
35230W        W94524  24.087  23.550   2.903
35231W        W94525  18.066  11.353  12.893
35232W        W94526  43.812  40.542  12.417
35233W        W94527  30.642   6.745  10.596
35234W        W94528  41.421  19.245   2.732
35235W        W94529  38.016  22.514  11.399
35236W        W94530  35.601   2.303   3.637
35237W        W94531  18.101   8.341  13.938
35238W        W94532   7.864  15.660   1.242
35239W        W94533   5.381  37.409   2.212
35240W        W94534  19.152   6.808   1.364
35241W        W94535  39.911  31.147   1.734
35242W        W94536  37.838  16.624   3.660
35243W        W94537  35.375  36.935  14.383
35244W        W94538  14.293  20.245   1.747
35245W        W94539  26.125  14.600  11.107
35246W        W94540  38.869  39.452   0.252
35247W        W94541  18.622  25.971   3.868
35248W        W94542  18.279  19.591   5.722
35249W        W94543  17.208  19.060  14.962
35250W        W94544   0.473   4.886   3.805
35251W        W94545  40.524  13.766   1.780
35252W        W94546  43.909  23.603  14.917
35253W        W94547   7.387  30.518  13.365
35254W        W94548  29.486  23.124  12.017
35255W        W94549  31.632  25.675   4.752
35256W        W94550  19.274  31.937   1.799
35257W        W94551  27.646  14.240  14.498
35258W        W94552  21.190  15.714  14.789
35259W        W94553  31.543  14.817  11.575
35260W        W94554  28.441  32.115  14.413
35261W        W94555  15.783  24.168   3.341
35262W        W94556  11.241  38.976   1.761
35263W        W94557  37.363  15.238   1.726
35264W        W94558  37.008   5.193   4.709
35265W        W94559  19.741  23.020  12.859
35266W        W94560  21.595  18.131   1.318
35267W        W94561   2.921  20.608  11.954
35268W        W94562  36.966  13.678   2.675
35269W        W94563   9.748  19.254  12.839
35270W        W94564  14.099  31.569   2.225
35271W        W94565  36.905  12.162  13.492
35272W        W94566  10.289  42.316   5.158
35273W        W94567  34.465  40.047  14.876
35274W        W94568  10.241  38.067   4.331
35275W        W94569  24.104  33.387   0.398
35276W        W94570  17.717  34.076  10.472
35277W        W94571  28.537   1.346  11.526
35278W        W94572  31.110   2.357   3.839
35279W        W94573  22.117  11.181   2.318
35280W        W94574  18.724  10.753  13.495
35281W        W94575  14.102  28.173   1.339
35282W        W94576  41.500  11.735   1.296
35283W        W94577   1.822   9.281  12.455
35284W        W94578  29.536  23.659  12.487
35285W        W94579  35.570  41.917   0.413
35286W        W94580  26.090  21.532   4.342
35287W        W94581  26.965  27.474  14.003
35288W        W94582  43.773  30.494  11.864
35289W        W94583   8.694  39.052   0.420
35290W        W94584  42.293  22.723  13.391
35291W        W94585   0.803  19.126  14.849
35292W        W94586  23.065  29.043  11.897
35293W        W94587   4.789   7.696  10.600
35294W        W94588  20.668  36.586  12.443
35295W        W94589  39.371   7.905   4.156
35296W        W94590  29.082  18.731   4.816
35297W        W94591  32.084  14.110   0.856
35298W        W94592   8.317  19.081   2.886
35299W        W94593  34.017  10.382  10.920
35300W        W94594  29.057   2.863   2.856
35301W        W94595  17.141  23.993   2.391
35302W        W94596  40.024  25.215  11.604
35303W        W94597  14.300  21.081   4.607
35304W        W94598   8.238  32.523   4.152
35305W        W94599  28.933  19.619  14.401
35306W        W94600  35.987  16.662   2.875
35307W        W94601   8.842   7.209   3.297
35308W        W94602  10.141  44.985  11.984
35309W        W94603  29.496  29.572   2.774
35310W        W94604   9.273  37.832  11.553
35311W        W94605  37.393   3.362  12.358
35312W        W94606  28.028   2.292  12.376
35313W        W94607  31.610  17.190   1.784
35314W        W94608  10.822  19.053   3.227
35315W        W94609  19.197  35.991   1.314
35316W        W94610  34.528  21.540   0.455
35317W        W94611  44.476  41.901  14.455
35318W        W94612   0.413  28.552  13.534
35319W        W94613  42.430   9.745  14.363
35320W        W94614  24.670  28.612  14.514
35321W        W94615  33.069  12.683  11.444
35322W        W94616  31.979  15.124   4.782
35323W        W94617  33.955   8.218  12.007
35324W        W94618  32.961  38.866   0.770
35325W        W94619  25.083  41.836  12.992
35326W        W94620  21.230  26.190  14.471
35327W        W94621  25.662  12.630   2.281
35328W        W94622  22.133   3.835   4.825
35329W        W94623  11.327  10.232  10.091
35330W        W94624  44.952  23.174  14.003
35331W        W94625   2.919  12.314  12.964
35332W        W94626  43.773   0.371   4.300
35333W        W94627  42.362  31.026  11.015
35334W        W94628  13.156  26.987   4.222
35335W        W94629  24.027  22.510  13.503
35336W        W94630  26.966  36.434  11.921
35337W        W94631   9.325  16.781   1.342
35338W        W94632  33.518   4.727   3.345
35339W        W94633  35.468  19.718  13.928
35340W        W94634  40.431  16.602   0.374
35341W        W94635  19.626   1.334  14.960
35342W        W94636  40.966   6.301   4.721
35343W        W94637  21.727  43.931   3.774
35344W        W94638  23.171  17.237   1.773
35345W        W94639  13.748  24.541  10.635
35346W        W94640  42.818  38.821   4.734
35347W        W94641  14.335  17.706  10.897
35348W        W94642  22.023  42.502   0.787
35349W        W94643  43.923  23.640  13.985
35350W        W94644  37.946  17.599  11.462
35351W        W94645  26.493  33.921  13.500
35352W        W94646   0.332  29.024   4.691
35353W        W94647  10.298  41.016  13.366
35354W        W94648  28.496  12.776  14.976
35355W        W94649  15.708  21.259  14.279
35356W        W94650  31.607  15.124  13.467
35357W        W94651  28.951  12.230  10.945
35358W        W94652  21.215  36.546   3.155
35359W        W94653  43.947  27.490  13.447
35360W        W94654  36.878  17.690  10.439
35361W        W94655  25.512  14.214   1.213
35362W        W94656  43.413  19.773   3.679
35363W        W94657  34.429  24.678  12.346
35364W        W94658  21.715  40.991  10.510
35365W        W94659  31.419  22.538  12.020
35366W        W94660  26.573  24.193   1.715
35367W        W94661  37.971  31.064   2.811
35368W        W94662   4.357  21.728  13.312
35369W        W94663  32.957  18.121   3.668
35370W        W94664   1.436  33.070  11.415
35371W        W94665   2.923  37.508  12.066
35372W        W94666  36.431  20.077  10.410
35373W        W94667  27.593  42.505   3.864
35374W        W94668  14.823  34.898  11.876
35375W        W94669  13.797   9.815  14.412
35376W        W94670  14.611  10.762   3.689
35377W        W94671  22.189  27.943  11.476
35378W        W94672  10.318  26.617   2.409
35379W        W94673  21.632  20.566  12.018
35380W        W94674  12.309  44.466   0.364
35381W        W94675  21.141  37.072   1.776
35382W        W94676  28.569   1.354  10.897
35383W        W94677  12.213  23.555   2.764
35384W        W94678  19.755  27.033   5.118
35385W        W94679  32.601   1.957   4.822
35386W        W94680  29.490  11.745  13.062
35387W        W94681  33.568  34.961   2.388
35388W        W94682   0.290  41.534   0.420
35389W        W94683   8.230  15.821   0.770
35390W        W94684  15.216  22.734  14.426
35391W        W94685  32.523   5.731  14.447
35392W        W94686  14.336  15.584   2.311
35393W        W94687   7.820  32.550  12.537
35394W        W94688  26.532  44.474   2.884
35395W        W94689  22.013  24.122   3.367
35396W        W94690  26.503  35.966   4.794
35397W        W94691  38.477  19.763  13.848
35398W        W94692   5.868  44.907   5.113
35399W        W94693  20.267  23.185  13.903
35400W        W94694  43.992  38.922   2.253
35401W        W94695  31.901  42.851   4.804
35402W        W94696  16.168  40.378   1.404
35403W        W94697   6.886  20.586  13.343
35404W        W94698   3.419   6.247   0.406
35405W        W94699  17.584  11.862   4.170
35406W        W94700  32.934  42.416   1.917
35407W        W94701   6.910  23.537   2.249
35408W        W94702  29.160   0.315   2.849
35409W        W94703  40.398   5.306  10.906
35410W        W94704  34.912  38.977   5.081
35411W        W94705  36.389  23.715  13.440
35412W        W94706  16.786  20.236  12.836
35413W        W94707  35.542   9.220   5.186
35414W        W94708  11.861  16.792  12.423
35415W        W94709  10.756  36.561  13.045
35416W        W94710  27.604  24.718  14.407
35417W        W94711   3.419  14.238   1.411
35418W        W94712  41.522  37.347   0.769
35419W        W94713  44.762  17.193  14.459
35420W        W94714  34.876  15.307  12.564
35421W        W94715  30.038   3.261  13.797
35422W        W94716  23.670  13.721   1.225
35423W        W94717  25.024   6.327  13.923
35424W        W94718  29.537  34.567  11.554
35425W        W94719   6.814  27.182  13.806
35426W        W94720  39.854   1.969  11.858
35427W        W94721  38.499  43.480  10.997
35428W        W94722   5.765  28.503  10.430
35429W        W94723  30.558  16.786   3.366
35430W        W94724  19.280  26.042   1.337
35431W        W94725  12.327   3.756  12.026
35432W        W94726  28.561   1.742   0.762
35433W        W94727  39.349  20.117   3.348
35434W        W94728  28.010  11.654   2.318
35435W        W94729   3.844  23.142   4.142
35436W        W94730  22.129  11.315   5.240
35437W        W94731  10.691  44.447  11.940
35438W        W94732  31.943  16.615   4.792
35439W        W94733  13.785  38.342   1.925
35440W        W94734  42.379  17.606   0.729
35441W        W94735   9.756  41.950  14.286
35442W        W94736  22.070  21.261  12.427
35443W        W94737  15.319  14.727   0.811
35444W        W94738  41.324   1.399  12.502
35445W        W94739  17.124  32.023   5.293
35446W        W94740   1.460  42.783   9.977
35447W        W94741   0.382  18.612   4.341
35448W        W94742  32.910  31.127   1.804
35449W        W94743  42.524  42.300   4.694
35450W        W94744  26.984  27.947   0.749
35451W        W94745  18.767  20.748   1.405
35452W        W94746  40.505  41.016   2.326
35453W        W94747  14.779  35.462   0.736
35454W        W94748  30.156  37.921  11.963
35455W        W94749  36.972   0.425  14.015
35456W        W94750   0.937   2.345  13.376
35457W        W94751  41.393  10.380   1.932
35458W        W94752  16.611  11.676  14.382
35459W        W94753  13.236   4.247   4.317
35460W        W94754  17.139   7.383   1.440
35461W        W94755  22.654  13.278  10.534
35462W        W94756  33.019   2.348   2.773
35463W        W94757   5.276   5.267   3.680
35464W        W94758   1.457   8.880  13.379
35465W        W94759  20.252  25.474   4.658
35466W        W94760  31.931  10.658  13.800
35467W        W94761  37.031   9.739  14.501
35468W        W94762  22.011  42.370  11.392
35469W        W94763  30.476  29.430  13.794
35470W        W94764   9.720  33.916   0.929
35471W        W94765  22.046  22.661  11.537
35472W        W94766   9.335  32.108  14.799
35473W        W94767  18.748  22.195   0.865
35474W        W94768  39.544  21.570   4.648
35475W        W94769  32.093  13.668   4.799
35476W        W94770   4.705  42.454   1.214
35477W        W94771  11.666  37.389  11.437
35478W        W94772   6.697  20.210   0.948
35479W        W94773   9.378  11.355   1.411
35480W        W94774   9.671  39.368   4.689
35481W        W94775   7.682   3.778   4.319
35482W        W94776  17.605  24.062   4.713
35483W        W94777  41.023  15.627  12.387
35484W        W94778   9.246  25.488   4.745
35485W        W94779   3.295  15.764   1.823
35486W        W94780  41.996  18.624  13.002
35487W        W94781  23.622  24.625   4.692
35488W        W94782  17.093  31.943   2.799
35489W        W94783  35.950  29.631  14.773
35490W        W94784  37.478  11.350   3.724
35491W        W94785  21.568   3.925   0.966
35492W        W94786  36.590  24.695  10.455
35493W        W94787  33.915  40.516  13.358
35494W        W94788  29.539  43.446   3.157
35495W        W94789  33.447   9.688  14.339
35496W        W94790  31.501   2.962   3.374
35497W        W94791  29.438  30.109  13.954
35498W        W94792  27.985  19.224   0.902
35499W        W94793  42.807  31.006  10.988
35500W        W94794   2.338  37.027   0.433
35501W        W94795  19.753  32.986   2.835
35502W        W94796  35.019  33.611   2.881
35503W        W94797  42.291   9.270   1.257
35504W        W94798   5.916  34.983   0.799
35505W        W94799   4.792  14.287   1.391
35506W        W94800  31.025  43.915   1.792
35507W        W94801  34.032  12.154   2.898
35508W        W94802  11.169  40.417   3.318
35509W        W94803  12.136   3.291   1.811
35510W        W94804  25.177  14.211  10.583
35511W        W94805  31.039  21.733   2.678
35512W        W94806  10.721  15.745  13.421
35513W        W94807  23.157   7.720   1.393
35514W        W94808  24.006   7.395  14.846
35515W        W94809  35.600  14.245  10.567
35516W        W94810   4.868  37.362   4.620
35517W        W94811  36.514  24.079   1.224
35518W        W94812  32.905  11.775   1.373
35519W        W94813  10.846  11.339  11.589
35520W        W94814  35.034   6.358   0.960
35521W        W94815  33.051  42.800  13.419
35522W        W94816  12.253  25.071   1.403
35523W        W94817   8.186   8.776   2.780
35524W        W94818   5.288  36.372   4.127
35525W        W94819  17.576   2.804  12.082
35526W        W94820  38.884  35.479  13.869
35527W        W94821   2.954  26.967  10.557
35528W        W94822  20.528  37.392  13.821
35529W        W94823   3.269  15.166   2.853
35530W        W94824   4.797  32.109   3.179
35531W        W94825   1.805  23.538   1.331
35532W        W94826  30.917  33.559  14.828
35533W        W94827  26.610  24.510   3.176
35534W        W94828   7.409   2.782  13.806
35535W        W94829  14.817  15.083   1.934
35536W        W94830   2.237  39.408  14.476
35537W        W94831   4.288  19.689   3.238
35538W        W94832  40.920   0.775  14.948
35539W        W94833  30.041  31.517   0.399
35540W        W94834  17.246  24.725  14.892
35541W        W94835   2.785  14.764  11.494
35542W        W94836   7.782  15.214   1.745
35543W        W94837   9.691  13.166   2.263
35544W        W94838  30.515   8.363   4.200
35545W        W94839  30.999  16.262  10.957
35546W        W94840   9.345   1.746   4.620
35547W        W94841  44.340  35.083   4.753
35548W        W94842  25.214   5.370  12.866
35549W        W94843  41.898   2.846   2.730
35550W        W94844   0.356   9.770   0.456
35551W        W94845  42.419  42.491   3.151
35552W        W94846   0.788  24.996   3.357
35553W        W94847  36.356  16.626   2.217
35554W        W94848  25.538  36.582   3.809
35555W        W94849  24.075  42.479   3.157
35556W        W94850  28.477  14.281  10.898
35557W        W94851  30.518  28.948   1.734
35558W        W94852   0.786  34.993   9.991
35559W        W94853  27.989   9.834   1.224
35560W        W94854  34.508  20.727   1.248
35561W        W94855  29.004  40.342   1.390
35562W        W94856   1.402  41.352   1.768
35563W        W94857  30.420  36.951   0.922
35564W        W94858  14.098  42.919   1.907
35565W        W94859  16.227  30.061   0.729
35566W        W94860  30.041  27.474   0.881
35567W        W94861  19.761  32.549  14.912
35568W        W94862  36.085  41.336   3.834
35569W        W94863   7.832  29.166  12.958
35570W        W94864  18.545  34.609   1.910
35571W        W94865   9.753  44.950   4.259
35572W        W94866  35.592  34.385   0.480
35573W        W94867  20.157   1.402  11.479
35574W        W94868   6.267  44.857   5.783
35575W        W94869  28.935  30.072   2.776
35576W        W94870  13.331  30.491  13.831
35577W        W94871  12.684  11.699  12.427
35578W        W94872  24.568   0.373  11.424
35579W        W94873  28.585   8.667  13.396
35580W        W94874  15.135  15.320  11.413
35581W        W94875  22.707  30.587   1.350
35582W        W94876  17.183  35.910   3.739
35583W        W94877  33.090   1.742   4.656
35584W        W94878  42.809  16.590  12.522
35585W        W94879  28.646   5.427   2.791
35586W        W94880   9.792  37.077   3.200
35587W        W94881   1.435  39.364   4.301
35588W        W94882  11.685  37.013   2.780
35589W        W94883  13.345  40.002   4.263
35590W        W94884  25.672  28.544   3.360
35591W        W94885  20.048  32.430   4.296
35592W        W94886  17.134  44.269  11.923
35593W        W94887   7.736  20.601  12.861
35594W        W94888   3.926  10.195   0.440
35595W        W94889   7.191  41.424  13.929
35596W        W94890   2.840   1.875  10.897
35597W        W94891  27.549  26.078   1.212
35598W        W94892  26.699  38.471  14.013
35599W        W94893  38.942  29.106  10.083
35600W        W94894  31.019  15.253  14.828
35601W        W94895  40.523  15.774  12.026
35602W        W94896  15.327   2.886   3.824
35603W        W94897  22.101  10.791  12.517
35604W        W94898  16.197  39.994  14.849
35605W        W94899  17.600  20.171  14.483
35606W        W94900  41.910   1.260  14.901
35607W        W94901   3.920   8.876  12.887
35608W        W94902  12.651  38.363  12.480
35609W        W94903  17.626  40.428  13.532
35610W        W94904  28.112  24.499   2.704
35611W        W94905  22.628  42.980  14.300
35612W        W94906  24.213  24.551  14.398
35613W        W94907  33.578  40.400  11.080
35614W        W94908  43.820  13.760   4.760
35615W        W94909  17.140   1.457  11.404
35616W        W94910  36.939  23.044   0.742
35617W        W94911   6.895  22.012  12.424
35618W        W94912  12.745  12.151   2.682
35619W        W94913  29.666  19.606   1.927
35620W        W94914  20.762  28.458  14.788
35621W        W94915  27.454  30.074   4.348
35622W        W94916   3.849  26.157  14.939
35623W        W94917  13.785  41.456   3.774
35624W        W94918  28.068  42.869   2.792
35625W        W94919  32.888  33.898  14.833
35626W        W94920  13.119  23.087  12.061
35627W        W94921  15.087   9.742  12.928
35628W        W94922  16.273  28.082   2.775
35629W        W94923  22.080  39.953  14.793
35630W        W94924  44.893   3.952   3.269
35631W        W94925   1.412  16.295   0.789
35632W        W94926   5.853   8.289   4.682
35633W        W94927  36.479  43.910  13.475
35634W        W94928  13.350  12.123   4.836
35635W        W94929  19.286   8.303   4.149
35636W        W94930  34.572  19.606   4.213
35637W        W94931  31.409   4.903  12.866
35638W        W94932   9.781  17.169  13.059
35639W        W94933   0.781  26.053   3.828
35640W        W94934  38.327  20.107  11.493
35641W        W94935  27.579  10.238   2.263
35642W        W94936  12.220  24.690  12.963
35643W        W94937  23.655  41.924  10.932
35644W        W94938  32.892  26.528  11.385
35645W        W94939  28.168  33.073  11.894
35646W        W94940   7.376  16.128  13.804
35647W        W94941  19.215  30.080  14.815
35648W        W94942  20.049  28.057   4.819
35649W        W94943  36.540  25.188  13.988
35650W        W94944  22.079  33.560  13.541
35651W        W94945  38.854  33.494  13.845
35652W        W94946  16.710   4.303  10.445
35653W        W94947  22.006   7.726   1.299
35654W        W94948   5.367  38.414  13.987
35655W        W94949  11.362   8.293   1.926
35656W        W94950   8.227   3.396  14.310
35657W        W94951  28.669  33.414  10.985
35658W        W94952  22.545  23.021   4.173
35659W        W94953  10.275  17.190  12.823
35660W        W94954  40.946  10.384   4.621
35661W        W94955  43.841  39.376  13.848
35662W        W94956  27.679  23.694   4.341
35663W        W94957   9.761   7.736   2.255
35664W        W94958  35.061   0.777   0.912
35665W        W94959  43.794  44.756  12.993
35666W        W94960   3.244  28.556   4.199
35667W        W94961  21.156  43.479   2.798
35668W        W94962   8.693  16.111  14.511
35669W        W94963  32.116  30.999   4.744
35670W        W94964   3.443  39.930   2.230
35671W        W94965   8.248  19.138  14.305
35672W        W94966   4.782  18.215   9.957
35673W        W94967  17.618  16.641   2.222
35674W        W94968   7.856   1.445   1.856
35675W        W94969  12.805  21.066   2.418
35676W        W94970  33.877  41.917  10.595
35677W        W94971  17.186  19.174  11.418
35678W        W94972   9.775  44.358  13.991
35679W        W94973  17.131  23.726   2.355
35680W        W94974  10.266  23.017  14.893
35681W        W94975  42.027  27.635  12.982
35682W        W94976  16.140  18.062  14.317
35683W        W94977  12.264  28.604   0.322
35684W        W94978  10.199  20.173   4.673
35685W        W94979   3.908  32.009   2.400
35686W        W94980  40.852   0.304  12.493
35687W        W94981   4.931  40.972   3.718
35688W        W94982  13.206   8.369  14.951
35689W        W94983  20.534  34.394   3.781
35690W        W94984  33.064  32.447   4.687
35691W        W94985  22.548  28.975   1.249
35692W        W94986  21.147  42.868   4.759
35693W        W94987  17.226   8.895  13.961
35694W        W94988  12.235  17.763  14.013
35695W        W94989  43.511  21.538   0.790
35696W        W94990  30.492   6.787   4.267
35697W        W94991  11.208   7.272   1.913
35698W        W94992   3.730  27.550   3.354
35699W        W94993  14.214  28.666   4.799
35700W        W94994  14.619   3.246   0.823
35701W        W94995  42.360  29.436   3.700
35702W        W94996  17.206  22.017   0.370
35703W        W94997  33.578  41.809  14.497
35704W        W94998  10.213  22.687   9.970
35705W        W94999  32.088   7.286  10.988
35706W        W95000   1.347  19.275  11.488
35707W        W95001  28.058  15.328  14.019
35708W        W95002   2.722  23.672  13.996
35709W        W95003  25.613   9.814  12.525
35710W        W95004  39.966  42.862  13.889
35711W        W95005   2.298  22.600  12.384
35712W        W95006  15.318  38.417  13.062
35713W        W95007  34.033  33.506   2.293
35714W        W95008   7.716  39.958  11.859
35715W        W95009   7.806  21.575  13.858
35716W        W95010   0.985  11.728   5.287
35717W        W95011  30.618  28.053   3.294
35718W        W95012  24.543  36.560  13.392
35719W        W95013  41.952   9.298   4.795
35720W        W95014  16.274  30.105  14.022
35721W        W95015  39.395  39.903  13.802
35722W        W95016  11.647   4.410  14.775
35723W        W95017  17.706  16.078   1.372
35724W        W95018  26.029  11.212   3.355
35725W        W95019   0.919  37.525   0.912
35726W        W95020  38.333  39.954  14.491
35727W        W95021  30.049  33.484   1.317
35728W        W95022  18.711   3.239   4.738
35729W        W95023   2.304  43.962   2.876
35730W        W95024  42.392  14.175   2.392
35731W        W95025  28.447   8.375  14.024
35732W        W95026  33.895  42.876   1.429
35733W        W95027   5.880   4.281  13.906
35734W        W95028  29.609  33.091   2.307
35735W        W95029  34.420   0.764  11.530
35736W        W95030   8.797  34.593  12.857
35737W        W95031  22.709  12.841  11.590
35738W        W95032  14.240   2.768  13.428
35739W        W95033   7.697  41.990   1.221
35740W        W95034  33.883  29.066   1.360
35741W        W95035   6.886  17.142  12.036
35742W        W95036  18.747  44.386   5.202
35743W        W95037  43.378  16.203   2.310
35744W        W95038   4.852  21.086  14.881
35745W        W95039  12.310  40.948  10.896
35746W        W95040  13.159   2.471   2.303
35747W        W95041   8.714  37.959   4.202
35748W        W95042   7.308   2.765  14.336
35749W        W95043  16.745  31.432   1.298
35750W        W95044  29.505  39.978  10.927
35751W        W95045  15.118  40.381   0.865
35752W        W95046   6.908   8.757   3.665
35753W        W95047  15.740   6.885  13.346
35754W        W95048  22.209  10.831   2.705
35755W        W95049  24.497   2.371   0.311
35756W        W95050  18.593   0.387  13.366
35757W        W95051  14.779   0.982  11.953
35758W        W95052   3.323  24.067   1.757
35759W        W95053   0.328  15.124  14.502
35760W        W95054  22.138  18.081  14.470
35761W        W95055  23.039  24.616  14.804
35762W        W95056  37.054  24.588   0.316
35763W        W95057  24.649  20.099   3.775
35764W        W95058  11.723  42.388  10.642
35765W        W95059   6.689  22.675   1.885
35766W        W95060  29.476  20.142   3.827
35767W        W95061  10.874  25.560   0.938
35768W        W95062  39.021   6.302  11.034
35769W        W95063  17.674  14.288  11.487
35770W        W95064  32.931  38.932  11.500
35771W        W95065  30.046   8.384  12.025
35772W        W95066   0.955  38.906   1.286
35773W        W95067  13.802  26.013   3.766
35774W        W95068   9.277  20.127  14.421
35775W        W95069  33.012  41.911   0.329
35776W        W95070  10.273  33.963  14.921
35777W        W95071  26.005  35.491   1.371
35778W        W95072  42.511  35.887  14.974
35779W        W95073  30.581   2.234   3.711
35780W        W95074  29.175  22.570   3.826
35781W        W95075  39.405  21.704   1.856
35782W        W95076   2.451  34.883   0.333
35783W        W95077  13.274  26.089  12.915
35784W        W95078  34.372  20.581  12.047
35785W        W95079  26.681  41.982   1.819
35786W        W95080  24.079  13.811  13.495
35787W        W95081  24.160   2.812   2.838
35788W        W95082  40.875   5.407   3.848
35789W        W95083  10.802   7.866  11.016
35790W        W95084   7.324  39.427  14.329
35791W        W95085   4.379  20.203   9.583
35792W        W95086  39.435  19.591   1.719
35793W        W95087  29.958  31.080  13.803
35794W        W95088  38.371  11.633  11.931
35795W        W95089  28.453  11.333   0.809
35796W        W95090  39.517   4.212  13.449
35797W        W95091   0.431   8.829   3.791
35798W        W95092   2.318  18.605   3.638
35799W        W95093  43.456  37.466   2.282
35800W        W95094  22.610   9.822   0.307
35801W        W95095  11.781   5.212  11.403
35802W        W95096  34.024   8.223  14.502
35803W        W95097  26.490  26.073  13.520
35804W        W95098  33.067   2.419  10.581
35805W        W95099  44.418   6.233   3.309
35806W        W95100  41.417   8.388   4.340
35807W        W95101  22.568   2.804   2.822
35808W        W95102  36.019  29.154   2.415
35809W        W95103  30.585  26.996  12.067
35810W        W95104  31.150  19.543   5.265
35811W        W95105  39.422  43.275   2.775
35812W        W95106  23.181   2.336   0.357
35813W        W95107   5.835  14.151   1.772
35814W        W95108  11.305  19.563  12.518
35815W        W95109  18.552   3.866   0.267
35816W        W95110  21.150  13.122  10.405
35817W        W95111  24.620  13.830  14.452
35818W        W95112   5.303  17.606  10.583
35819W        W95113   3.356  41.955   4.295
35820W        W95114   0.332  44.962  10.411
35821W        W95115  20.728  42.865   1.264
35822W        W95116  19.213  36.507   2.412
35823W        W95117   4.749  38.379   4.351
35824W        W95118   3.751  33.094   2.814
35825W        W95119  23.517  44.946   4.652
35826W        W95120  13.815   5.718  11.865
35827W        W95121  20.040  35.086   1.766
35828W        W95122   2.763  11.755  11.511
35829W        W95123  25.557  25.639  11.054
35830W        W95124  44.307  36.972  13.856
35831W        W95125  28.135  16.794   1.350
35832W        W95126  12.253  21.636  13.039
35833W        W95127  43.426  17.707  11.969
35834W        W95128  33.531  12.691  12.352
35835W        W95129  26.599  44.486  14.969
35836W        W95130  19.631  15.699  12.054
35837W        W95131  39.431  27.974   4.639
35838W        W95132  21.114  12.753  13.363
35839W        W95133  32.612   4.851   4.167
35840W        W95134  44.376   0.361   2.380
35841W        W95135   2.940  15.710  12.405
35842W        W95136  29.605  14.230   4.772
35843W        W95137   3.755  42.868   9.933
35844W        W95138  31.084  25.020  12.523
35845W        W95139  34.589  21.248   1.806
35846W        W95140   1.951  17.772  13.969
35847W        W95141  35.462  30.654  10.424
35848W        W95142  44.861  27.568   2.185
35849W        W95143  24.529  36.359  11.373
35850W        W95144  36.068  40.438  12.386
35851W        W95145  37.532   3.395   0.462
35852W        W95146  16.789  18.785   2.740
35853W        W95147  33.516  38.032   1.363
35854W        W95148  41.501  27.116  14.891
35855W        W95149   8.367  36.921  10.967
35856W        W95150  24.144  26.670   2.386
35857W        W95151   5.258   7.752   4.621
35858W        W95152   6.786  14.616   0.885
35859W        W95153   3.361  25.155   4.295
35860W        W95154  10.159  31.596   3.663
35861W        W95155   8.221  17.301   4.354
35862W        W95156  12.331  14.093   1.229
35863W        W95157  26.013  13.344   0.944
35864W        W95158  32.532  31.632   1.388
35865W        W95159  30.435  20.168  14.882
35866W        W95160   5.194  17.102  14.800
35867W        W95161   6.297  21.029  11.982
35868W        W95162  15.100   2.420  13.056
35869W        W95163   7.196   0.883  12.578
35870W        W95164  38.871  28.514  11.982
35871W        W95165  44.993  23.008  13.365
35872W        W95166  39.829  24.214  14.946
35873W        W95167  35.861  37.992   2.723
35874W        W95168  44.432  35.915   3.358
35875W        W95169  35.078   8.745   1.720
35876W        W95170  15.769   6.744   1.906
35877W        W95171  15.143  15.802   5.240
35878W        W95172   9.717  40.445   2.260
35879W        W95173  34.431  37.505   1.925
35880W        W95174  39.422  32.104  10.451
35881W        W95175  33.389  44.867   2.289
35882W        W95176  34.046  31.020   4.327
35883W        W95177  31.480  23.617   4.249
35884W        W95178  33.450   2.371  10.488
35885W        W95179   3.856  19.586  12.568
35886W        W95180  19.091  43.936  10.623
35887W        W95181  25.592   0.825   4.205
35888W        W95182  38.528  30.474   1.800
35889W        W95183  28.641  26.071  13.538
35890W        W95184  21.060   2.800  11.381
35891W        W95185   8.700  11.259  12.387
35892W        W95186  31.020  36.904   0.951
35893W        W95187   6.851  35.853   3.220
35894W        W95188  38.011  28.165   2.883
35895W        W95189  23.067  26.541   0.322
35896W        W95190  27.656  22.669   1.780
35897W        W95191  23.520  32.895  12.365
35898W        W95192  28.993  13.774  12.022
35899W        W95193  35.866  26.167  13.818
35900W        W95194  15.266   2.287  14.021
35901W        W95195  44.351   7.217  13.847
35902W        W95196   0.375  33.585  13.521
35903W        W95197  24.717  44.845  12.995
35904W        W95198  41.877  14.149  11.883
35905W        W95199  31.467  17.162   2.313
35906W        W95200   4.226   3.898  12.366
35907W        W95201  26.689  30.004   0.370
35908W        W95202  36.973   0.866   4.648
35909W        W95203  17.632   1.957   1.804
35910W        W95204  39.963  36.902  13.792
35911W        W95205  20.159  34.384  11.549
35912W        W95206   4.246  27.507  13.448
35913W        W95207  27.001  40.915   4.798
35914W        W95208   0.279   6.257   1.846
35915W        W95209  15.710  42.442   2.345
35916W        W95210  12.823  22.087  10.425
35917W        W95211   4.933  20.208   2.788
35918W        W95212  26.644  42.389   3.354
35919W        W95213   7.259   0.488  10.433
35920W        W95214  36.888  12.131  10.550
35921W        W95215   1.739   5.419  11.056
35922W        W95216  42.379   6.427   3.175
35923W        W95217  40.327   3.800  10.436
35924W        W95218  21.154   9.310   1.845
35925W        W95219  18.678   5.376   2.841
35926W        W95220  43.328   2.839  13.314
35927W        W95221   7.190  13.725   0.347
35928W        W95222   9.325  11.647   9.972
35929W        W95223  23.539  32.982   2.756
35930W        W95224  27.057   4.897   0.364
35931W        W95225  30.972  28.521   2.848
35932W        W95226  14.139   5.815  11.097
35933W        W95227  12.662  22.505   1.222
35934W        W95228  31.066  35.060   1.333
35935W        W95229  18.198  35.596  11.393
35936W        W95230   0.945  13.326  13.375
35937W        W95231  37.455  20.721   0.376
35938W        W95232  12.734  26.685  12.096
35939W        W95233   4.814   1.450   3.660
35940W        W95234  28.019  30.545  12.387
35941W        W95235  21.538   9.669  11.068
35942W        W95236  13.796   0.893   0.347
35943W        W95237  28.439  41.851  11.497
35944W        W95238   8.307  16.729  11.055
35945W        W95239  16.147  38.392  14.403
35946W        W95240  26.160  32.549   0.954
35947W        W95241   7.237  11.300  13.473
35948W        W95242  12.161  26.559   0.409
35949W        W95243  29.092   8.692  13.313
35950W        W95244  10.254  10.659   1.377
35951W        W95245  20.218   3.951  13.504
35952W        W95246   9.337  25.677   3.378
35953W        W95247  17.724  21.723   0.745
35954W        W95248   4.721  37.558  10.003
35955W        W95249   9.662  21.677   4.179
35956W        W95250  32.451  13.679  11.587
35957W        W95251   2.779   3.848   3.665
35958W        W95252   1.409  43.795  14.821
35959W        W95253  15.660  33.989  11.489
35960W        W95254  43.493  17.252   2.770
35961W        W95255  33.580  19.543  10.079
35962W        W95256  33.547  41.529   1.862
35963W        W95257   7.872  44.463  12.548
35964W        W95258  44.806  23.187  12.050
35965W        W95259  22.232  16.726   1.926
35966W        W95260  14.691   3.736  13.509
35967W        W95261  29.568  31.013   4.236
35968W        W95262  43.959   6.321   0.283
35969W        W95263   2.248  11.768  11.555
35970W        W95264  24.091  26.179  12.944
35971W        W95265  12.261  33.880   3.150
35972W        W95266  26.466   3.724   1.450
35973W        W95267   2.414  23.097   2.386
35974W        W95268   4.789  33.042  11.947
35975W        W95269  32.979  21.700   4.331
35976W        W95270  14.202  14.123  13.426
35977W        W95271  23.632   1.354  12.463
35978W        W95272  44.876  41.421   2.752
35979W        W95273   1.299  14.110   1.405
35980W        W95274  38.372  41.363   1.804
35981W        W95275   6.759  18.132   3.840
35982W        W95276  23.148  37.363   3.292
35983W        W95277  10.381  22.656  11.958
35984W        W95278  41.308  31.002   1.737
35985W        W95279  41.030  40.830   4.197
35986W        W95280   1.365   0.389  11.064
35987W        W95281  27.187  39.493   1.239
35988W        W95282  30.954  38.950   1.253
35989W        W95283   7.834  40.943   2.194
35990W        W95284  42.006  20.097  10.956
35991W        W95285  37.531  11.823   1.860
35992W        W95286  18.717  38.523   4.264
35993W        W95287  13.754  31.953   3.350
35994W        W95288  44.502  37.984   4.756
35995W        W95289  22.684  10.376  13.385
35996W        W95290  25.112  16.688  11.086
35997W        W95291  16.695  14.773  11.977
35998W        W95292  11.269  26.659   4.637
35999W        W95293  36.349  39.955  12.980
36000W        W95294  28.096  16.235   2.859
36001W        W95295  15.248  15.692   4.327
36002W        W95296  18.704  40.307   0.331
36003W        W95297  24.070  12.670  11.016
36004W        W95298  27.007  13.724  11.020
36005W        W95299  38.875  13.272   0.755
36006W        W95300  13.816  43.508   1.924
36007W        W95301   1.425  33.459  10.992
36008W        W95302   8.863  39.926  12.038
36009W        W95303  16.670   9.758  14.445
36010W        W95304   9.866  21.709   2.183
36011W        W95305  37.997  12.685  13.007
36012W        W95306  33.003  29.173  13.485
36013W        W95307  36.904  36.986  14.492
36014W        W95308  33.095  42.409  12.008
36015W        W95309   8.360   6.185   3.250
36016W        W95310   4.922  11.266  11.062
36017W        W95311  15.723   0.776   5.211
36018W        W95312  40.528  39.381  11.488
36019W        W95313  36.457  25.053  10.481
36020W        W95314  30.011  26.182  14.960
36021W        W95315  10.665   2.379  13.337
36022W        W95316  37.958   1.429   3.257
36023W        W95317  11.833  26.485   3.320
36024W        W95318  43.845  17.650  11.944
36025W        W95319   5.760   5.279  11.506
36026W        W95320  32.923  21.734  11.034
36027W        W95321  34.486  32.988   1.724
36028W        W95322   1.771  26.536  13.404
36029W        W95323  14.630  21.180   1.224
36030W        W95324  23.117  16.114   1.902
36031W        W95325  10.226  12.233  14.448
36032W        W95326  32.058   5.265  14.370
36033W        W95327  17.233  33.993   4.674
36034W        W95328   7.206  40.329  12.547
36035W        W95329  43.505   0.373  12.379
36036W        W95330   5.782  39.941  14.407
36037W        W95331   1.260   5.827  12.952
36038W        W95332   3.811  35.871   9.937
36039W        W95333   5.270   9.859   3.151
36040W        W95334  22.736  41.498   9.964
36041W        W95335  41.437  18.718   2.775
36042W        W95336  28.587  14.319   1.220
36043W        W95337   0.385  12.120   4.824
36044W        W95338  19.615   1.777  12.847
36045W        W95339  39.950  17.756   1.763
36046W        W95340   5.777  34.015  14.823
36047W        W95341  10.274  25.167   4.678
36048W        W95342  28.665  18.643  11.986
36049W        W95343   3.819  16.568   0.384
36050W        W95344  36.358  43.906  11.122
36051W        W95345  15.778   3.791  10.995
36052W        W95346  17.121   5.732   3.796
36053W        W95347  19.180   2.737   3.282
36054W        W95348  21.108   9.699  11.581
36055W        W95349  34.481  34.573  10.953
36056W        W95350  28.156  39.452  14.024
36057W        W95351  37.551  24.558  11.528
36058W        W95352  39.559  31.407  10.535
36059W        W95353  19.259  29.568   2.689
36060W        W95354  25.202   0.272  11.065
36061W        W95355  23.238  36.004   1.705
36062W        W95356  41.986  14.730   0.357
36063W        W95357   1.735  12.153  12.005
36064W        W95358  25.490   1.821   0.839
36065W        W95359  10.152  43.375  13.380
36066W        W95360   1.483  24.075   4.297
36067W        W95361  29.428  35.933   4.149
36068W        W95362  30.086  28.034  14.286
36069W        W95363   1.320  23.695   4.725
36070W        W95364  29.015  38.982   1.347
36071W        W95365  28.565  27.482   0.476
36072W        W95366  15.784  38.924   0.886
36073W        W95367  42.925  26.513  13.420
36074W        W95368  16.097  32.044   1.839
36075W        W95369  16.774  28.074   2.220
36076W        W95370  34.095   4.254   2.754
36077W        W95371   3.324  11.304   2.283
36078W        W95372  37.997  35.560   3.199
36079W        W95373  36.561  23.505  13.850
36080W        W95374   1.284  39.850  12.447
36081W        W95375  35.859  16.235   2.309
36082W        W95376  15.592   2.420  14.434
36083W        W95377  25.654  27.643   2.401
36084W        W95378  41.374  38.019   2.372
36085W        W95379  12.736  18.654  12.944
36086W        W95380  16.300  26.172  13.945
36087W        W95381  34.458  33.609   4.352
36088W        W95382  36.862  10.276   0.359
36089W        W95383   2.902   8.306   3.358
36090W        W95384  15.815  37.860   1.870
36091W        W95385  32.998  25.098   0.410
36092W        W95386   8.895   5.289   0.249
36093W        W95387  34.613  36.447  13.002
36094W        W95388  15.270  41.789   4.750
36095W        W95389  20.117   4.787   1.879
36096W        W95390  40.326  25.571  10.580
36097W        W95391  14.694  35.386   1.699
36098W        W95392   7.780   3.422   3.770
36099W        W95393  35.941   8.693   1.285
36100W        W95394   4.789   4.709  11.986
36101W        W95395  36.591  29.618   3.699
36102W        W95396  30.028  40.981   2.846
36103W        W95397   5.319   0.749   2.408
36104W        W95398   5.247  12.687   1.695
36105W        W95399  35.379  20.169  13.811
36106W        W95400  40.520  32.133   3.854
36107W        W95401  42.445  18.166  11.058
36108W        W95402  18.669  10.657  14.798
36109W        W95403  44.979  28.025   1.705
36110W        W95404   3.398  26.186  10.903
36111W        W95405  31.995  36.064  10.956
36112W        W95406  36.548  29.607  11.497
36113W        W95407   9.387   7.258   3.295
36114W        W95408  11.373  44.847  13.958
36115W        W95409  37.963   4.800   3.206
36116W        W95410  21.525  37.506  11.576
36117W        W95411   6.221  17.614   1.249
36118W        W95412  23.032  33.446   1.825
36119W        W95413  21.593  34.579  13.997
36120W        W95414  38.822  11.662   1.360
36121W        W95415  40.894  40.403  11.451
36122W        W95416   9.352  12.269  11.044
36123W        W95417  19.191  36.968   0.426
36124W        W95418  12.273   8.223  11.477
36125W        W95419  35.583  33.125   4.273
36126W        W95420  27.524   8.282   4.673
36127W        W95421  20.581   0.976   4.178
36128W        W95422   8.855   1.479   2.830
36129W        W95423  33.430  19.208  12.469
36130W        W95424   8.775  41.852  14.791
36131W        W95425  27.008   7.312   3.852
36132W        W95426   8.786  17.655   0.749
36133W        W95427  20.677  17.244  14.475
36134W        W95428  38.823   1.885   3.298
36135W        W95429  15.818   1.920   1.857
36136W        W95430  27.125   2.453   4.312
36137W        W95431  22.512  30.543   0.768
36138W        W95432   9.228  27.567   3.762
36139W        W95433  27.092  23.646  13.803
36140W        W95434  35.402   3.455  14.438
36141W        W95435  24.166  43.382   2.316
36142W        W95436  36.584   8.301  12.079
36143W        W95437  11.856  13.253   3.854
36144W        W95438   3.294  32.910  10.097
36145W        W95439  17.782  27.952  12.342
36146W        W95440  38.899  10.766  13.336
36147W        W95441  25.539   2.751   4.162
36148W        W95442  43.007   7.226   2.282
36149W        W95443  21.189  31.523  12.925
36150W        W95444  38.073   0.837  12.072
36151W        W95445  15.149  34.973  13.912
36152W        W95446  21.246  15.690   0.965
36153W        W95447  11.248   4.836  13.949
36154W        W95448   8.670   1.913   0.810
36155W        W95449  39.914  29.647   3.180
36156W        W95450  10.759  42.031   0.249
36157W        W95451  32.594  28.978  12.392
36158W        W95452  35.978   8.713   2.861
36159W        W95453  43.462  15.145   4.180
36160W        W95454   8.375  35.916   3.290
36161W        W95455  43.963  27.144  11.396
36162W        W95456   1.334   6.193  14.490
36163W        W95457  43.973  38.944   4.275
36164W        W95458   8.344  23.017   1.771
36165W        W95459  28.105  24.005   2.683
36166W        W95460  42.970  40.054   3.773
36167W        W95461  21.530  25.121   2.277
36168W        W95462  43.868  40.050   4.345
36169W        W95463  33.504  17.590  13.853
36170W        W95464  28.551  14.737  14.974
36171W        W95465  35.437  30.974   3.262
36172W        W95466  15.720  13.823  13.500
36173W        W95467  25.596  17.619  10.496
36174W        W95468  39.428  33.410   3.294
36175W        W95469   4.743   9.682   0.742
36176W        W95470   2.237  43.767   1.905
36177W        W95471   7.864  17.068  13.533
36178W        W95472  31.539  42.783  13.507
36179W        W95473  34.467  43.509  12.885
36180W        W95474  31.551  29.943  14.430
36181W        W95475   5.772   5.845  10.578
36182W        W95476  25.684  24.555   1.797
36183W        W95477  19.670  44.942  13.947
36184W        W95478  38.916  22.238  10.088
36185W        W95479  31.590   9.300  11.378
36186W        W95480  26.660   9.318   0.920
36187W        W95481   6.800  13.809   2.706
36188W        W95482   4.401   3.895  12.083
36189W        W95483   9.181  25.514   0.874
36190W        W95484  16.695  42.472   2.856
36191W        W95485  43.991  17.163  11.580
36192W        W95486  24.072  23.238   3.839
36193W        W95487  44.002  44.321   0.947
36194W        W95488  37.013   3.945  13.858
36195W        W95489  32.424   9.342   2.397
36196W        W95490  33.472  33.614   0.381
36197W        W95491  38.073  17.224  11.381
36198W        W95492   1.952   8.732   0.257
36199W        W95493  22.019  23.669  12.485
36200W        W95494  37.469  44.280  12.042
36201W        W95495  31.618  39.972   1.875
36202W        W95496  43.823   7.298  11.415
36203W        W95497  33.482  37.920  13.519
36204W        W95498  38.415  15.266  11.919
36205W        W95499  14.696  44.331   5.192
36206W        W95500  25.649  34.986   1.890
36207W        W95501  40.416   7.759  14.986
36208W        W95502  15.767   3.330   3.304
36209W        W95503   7.364  29.952   2.782
36210W        W95504  30.136  18.104  12.362
36211W        W95505   0.792  19.108  11.074
36212W        W95506  16.590  15.757  10.553
36213W        W95507   7.268  25.966   3.346
36214W        W95508  42.026  25.659   0.948
36215W        W95509  13.337  31.949  12.449
36216W        W95510   3.312   1.367  14.994
36217W        W95511  40.424  34.421  14.855
36218W        W95512  12.295  27.195  10.977
36219W        W95513   8.376  43.463   5.617
36220W        W95514   7.281  37.854   2.786
36221W        W95515  31.974  43.491  10.436
36222W        W95516  25.975   2.308   0.897
36223W        W95517  17.758  29.014   1.754
36224W        W95518  37.842  42.375   2.186
36225W        W95519  24.538   3.234  11.944
36226W        W95520   6.778  15.598   4.219
36227W        W95521  14.326   2.287  12.072
36228W        W95522  20.676  18.559   4.142
36229W        W95523   9.747  23.211  11.587
36230W        W95524  26.667  26.460   3.698
36231W        W95525  34.378  42.402  10.940
36232W        W95526  11.150  37.987  13.328
36233W        W95527  33.451   9.740   2.842
36234W        W95528   5.893  37.434  12.395
36235W        W95529   2.393  21.666  10.525
36236W        W95530  34.923  23.035  12.948
36237W        W95531   6.872  12.242  12.900
36238W        W95532  36.013  42.007  13.987
36239W        W95533  10.823  42.926   4.602
36240W        W95534   7.885  40.933  13.055
36241W        W95535  34.512  37.041  12.832
36242W        W95536  38.490  21.190   3.285
36243W        W95537  16.760  17.192  14.795
36244W        W95538  41.924  40.547  13.544
36245W        W95539  20.742   2.906   4.256
36246W        W95540  24.084  37.347  14.784
36247W        W95541   8.748   7.761   3.691
36248W        W95542   0.926  10.669   0.455
36249W        W95543  43.286  11.159   3.201
36250W        W95544  41.996   4.253  12.914
36251W        W95545  22.550  19.607   0.833
36252W        W95546  37.517  23.992  13.322
36253W        W95547  10.156  27.122   2.285
36254W        W95548   3.360  22.211  14.953
36255W        W95549  18.616  15.226  13.983
36256W        W95550  29.519  15.759   3.767
36257W        W95551  21.116  16.733   9.976
36258W        W95552  23.673  19.198  11.496
36259W        W95553  14.813  12.235  12.507
36260W        W95554  26.178  17.663   0.860
36261W        W95555  34.508  33.989   1.216
36262W        W95556  19.174  16.671  12.982
36263W        W95557  22.578   3.932   4.275
36264W        W95558  27.140  40.900  14.275
36265W        W95559  39.439   4.870   4.238
36266W        W95560  12.157   7.692  11.971
36267W        W95561   1.775   9.339   0.252
36268W        W95562   7.385   3.402  10.016
36269W        W95563  26.513  31.980  14.367
36270W        W95564  32.630  26.042  13.446
36271W        W95565   7.739   1.921   3.301
36272W        W95566  13.814  10.366  11.055
36273W        W95567   6.366  32.095  13.383
36274W        W95568  18.155  28.108   1.878
36275W        W95569  17.693   5.875  14.515
36276W        W95570   0.938  17.793  10.560
36277W        W95571  39.868  12.218   2.863
36278W        W95572  41.790  19.199   3.689
36279W        W95573  22.230  44.427   3.279
36280W        W95574   8.213  34.043  11.581
36281W        W95575  43.379  44.423   9.497
36282W        W95576   2.750  20.173  12.061
36283W        W95577  40.472  42.421   2.839
36284W        W95578   4.342   0.924   2.780
36285W        W95579  16.101   3.451   2.834
36286W        W95580  28.079  18.205   3.823
36287W        W95581  39.819  10.644   1.247
36288W        W95582  40.355   5.363  14.791
36289W        W95583  36.528  16.610   4.160
36290W        W95584  24.712  16.673  12.925
36291W        W95585  15.716  18.715  14.841
36292W        W95586  15.223  17.152  11.512
36293W        W95587  17.792  44.829  11.902
36294W        W95588  10.138  35.474   5.190
36295W        W95589  25.580  38.912  12.380
36296W        W95590  36.519   5.886   0.876
36297W        W95591  25.167  41.795   2.280
36298W        W95592  39.050  11.273   0.325
36299W        W95593  12.661  28.533  11.954
36300W        W95594  34.476  39.009   3.845
36301W        W95595  29.968  39.463   0.298
36302W        W95596  29.946  44.371  12.955
36303W        W95597   4.701   9.844   5.170
36304W        W95598   6.776  13.305  12.874
36305W        W95599  34.381  12.304   3.225
36306W        W95600   6.270  36.950   4.262
36307W        W95601  44.354  40.029  14.321
36308W        W95602  39.416  20.538   0.794
36309W        W95603  10.874  16.766  14.803
36310W        W95604  11.332   4.391  11.487
36311W        W95605  28.119  22.053  13.817
36312W        W95606  26.691  10.820  13.335
36313W        W95607  44.347   5.704   4.308
36314W        W95608  11.704  43.293   3.727
36315W        W95609   1.962   2.431   1.844
36316W        W95610  16.258   9.819   1.331
36317W        W95611  24.505  11.339  11.919
36318W        W95612  38.552  42.466  10.904
36319W        W95613  32.412  41.476  14.462
36320W        W95614  40.457  18.682   4.314
36321W        W95615  19.089  33.460   3.842
36322W        W95616  30.021  29.448  14.858
36323W        W95617  36.436  32.044   0.898
36324W        W95618  20.231  37.387  11.394
36325W        W95619  41.362   3.758   2.280
36326W        W95620  16.692  28.145   4.191
36327W        W95621   0.389  29.524  11.401
36328W        W95622  37.981   6.908   0.255
36329W        W95623   6.228  30.990   0.421
36330W        W95624  25.608   3.862   2.773
36331W        W95625  44.478  25.659   3.253
36332W        W95626  39.461  43.981   0.371
36333W        W95627   5.194  26.694   3.279
36334W        W95628  37.949  44.427  13.493
36335W        W95629  40.916   8.847   1.326
36336W        W95630  23.524  34.572   3.801
36337W        W95631  18.284   0.326  12.347
36338W        W95632  25.704  32.938  11.934
36339W        W95633   3.799  22.182   5.616
36340W        W95634  43.391  39.940   2.730
36341W        W95635   1.345  14.232  12.096
36342W        W95636  30.569   4.775   0.356
36343W        W95637   3.883  38.039  12.566
36344W        W95638  44.878  13.756   2.286
36345W        W95639  26.196   5.285   0.906
36346W        W95640  16.654  15.811   9.509
36347W        W95641  20.248  14.250  11.452
36348W        W95642  41.528  35.092   2.255
36349W        W95643   0.468   7.710   1.352
36350W        W95644  40.484  21.142  14.903
36351W        W95645  42.937  15.770  10.462
36352W        W95646  21.647  40.435   1.930
36353W        W95647   4.836   1.830   0.783
36354W        W95648  30.653  17.743   4.656
36355W        W95649  32.631  28.991   0.271
36356W        W95650  34.442   4.343  13.800
36357W        W95651   4.914  40.341   0.734
36358W        W95652  32.595  15.578  11.405
36359W        W95653  13.293  37.955   0.397
36360W        W95654  13.237  14.134   2.722
36361W        W95655  14.765  19.113  12.013
36362W        W95656  12.654   9.318  11.123
36363W        W95657  11.128  31.627  12.460
36364W        W95658  40.307  24.609   1.784
36365W        W95659  14.605  39.338   3.785
36366W        W95660  33.617  32.602  11.969
36367W        W95661  16.713  40.372   2.373
36368W        W95662   9.164  23.573   4.176
36369W        W95663  34.971  24.114   0.841
36370W        W95664  16.204   7.723   4.308
36371W        W95665  41.321  11.169   2.343
36372W        W95666   6.779  18.686  11.864
36373W        W95667  37.028  15.596   4.753
36374W        W95668  11.164  43.355   4.209
36375W        W95669  10.138  36.908  10.960
36376W        W95670  16.078   4.885   3.683
36377W        W95671  34.937  16.679   4.705
36378W        W95672  31.103   3.455  12.385
36379W        W95673   8.215  40.931   0.453
36380W        W95674  34.560   1.377   4.804
36381W        W95675  41.980  16.282   2.800
36382W        W95676   5.887  44.497   3.697
36383W        W95677  13.297  13.633   0.901
36384W        W95678  24.604  21.737  11.092
36385W        W95679  31.593  27.451  11.931
36386W        W95680  10.228  41.880   0.793
36387W        W95681  44.772  37.511   4.645
36388W        W95682  13.165   3.334   3.269
36389W        W95683  16.753  10.342   1.322
36390W        W95684  24.081  14.146   3.330
36391W        W95685  17.283  34.891  12.563
36392W        W95686  10.785  29.549  12.444
36393W        W95687  16.675  28.532   4.791
36394W        W95688  28.021  24.538   0.268
36395W        W95689  31.056  32.084  10.121
36396W        W95690  26.043  13.753   1.934
36397W        W95691  27.039   3.732  12.072
36398W        W95692   7.265  10.772   1.739
36399W        W95693  34.959  26.099   3.826
36400W        W95694  44.855  26.086   3.229
36401W        W95695  29.568  20.565  10.636
36402W        W95696  14.265   5.335   4.252
36403W        W95697  19.049  43.803   0.252
36404W        W95698  43.963  11.724   0.809
36405W        W95699  34.976  40.961  12.563
36406W        W95700  22.030   1.274  13.493
36407W        W95701   2.813  15.750   2.692
36408W        W95702  39.419   4.851  10.966
36409W        W95703  37.833  23.128  14.765
36410W        W95704  36.993   6.214  14.922
36411W        W95705   9.683  35.012   0.929
36412W        W95706  28.626   7.347   3.244
36413W        W95707   8.817  14.336   5.276
36414W        W95708  21.081  40.434   3.635
36415W        W95709  18.085   7.712  13.920
36416W        W95710  23.704  22.618   0.731
36417W        W95711  16.090  12.711   3.866
36418W        W95712   8.269  23.189  13.486
36419W        W95713  26.145  22.169   2.725
36420W        W95714  44.818  14.200  10.924
36421W        W95715  13.310  21.213  14.935
36422W        W95716  36.048  43.926  11.527
36423W        W95717   1.381  36.890  14.279
36424W        W95718   9.886  12.814  12.452
36425W        W95719   3.366  44.333   2.804
36426W        W95720  41.957  14.105   3.711
36427W        W95721  19.110  42.002   2.260
36428W        W95722  26.206  44.769  13.430
36429W        W95723   6.404  27.158   3.253
36430W        W95724   9.736  16.227  12.937
36431W        W95725  32.921  40.389   1.746
36432W        W95726  25.484  38.445  12.830
36433W        W95727  31.525   1.378  11.877
36434W        W95728  34.068  11.237   2.780
36435W        W95729  37.458  27.997  13.933
36436W        W95730   4.720  21.194  13.515
36437W        W95731  40.515  18.092  11.988
36438W        W95732  36.393   5.336  14.018
36439W        W95733  16.188  25.135   3.682
36440W        W95734  42.792   8.220  12.962
36441W        W95735   5.359   0.254  14.385
36442W        W95736  41.471  43.914   4.300
36443W        W95737  42.014  39.037  12.928
36444W        W95738  44.834  31.977   1.219
36445W        W95739  24.218  19.069   0.961
36446W        W95740   5.819  41.908   3.710
36447W        W95741   7.896  20.576   0.734
36448W        W95742  21.687  36.413  13.341
36449W        W95743  19.152  41.293   3.666
36450W        W95744   6.413   9.706   3.163
36451W        W95745  28.101  26.198  11.996
36452W        W95746  35.973  40.424  13.967
36453W        W95747   8.756  17.307   1.816
36454W        W95748  33.524  24.599  13.997
36455W        W95749  33.022  35.902  13.025
36456W        W95750  31.062  28.155   3.710
36457W        W95751  40.895  31.141   0.435
36458W        W95752  40.473  24.025  10.559
36459W        W95753  19.102  30.574   4.125
36460W        W95754  40.895  29.957   4.248
36461W        W95755   2.237  20.556  12.343
36462W        W95756  16.698  40.054  11.579
36463W        W95757  39.980  32.627  12.516
36464W        W95758  10.772  10.317   4.152
36465W        W95759  34.572  17.201   1.756
36466W        W95760  39.014  24.000  10.534
36467W        W95761  37.549   4.416  12.905
36468W        W95762  14.622  20.067   9.641
36469W        W95763   4.725  12.692   1.730
36470W        W95764   9.330   8.839  10.516
36471W        W95765  23.686   9.675  12.999
36472W        W95766  13.114  36.070  13.548
36473W        W95767  42.917  43.385  11.450
36474W        W95768  23.054  41.407   2.684
36475W        W95769  39.894  13.782  12.456
36476W        W95770  43.407  40.820  10.937
36477W        W95771  43.864  35.039  10.910
36478W        W95772  34.571   7.751  12.943
36479W        W95773   7.871  40.396  12.846
36480W        W95774  11.750  31.585  13.350
36481W        W95775   4.231   6.236  14.336
36482W        W95776  22.688  29.588   4.143
36483W        W95777  22.211  44.296   2.326
36484W        W95778  29.521  25.977  14.485
36485W        W95779  36.528  26.664  12.361
36486W        W95780  21.687  21.524   3.272
36487W        W95781   2.361  27.172  12.442
36488W        W95782  17.769  13.309  11.962
36489W        W95783   1.873  35.362  14.394
36490W        W95784  27.618  34.115   3.192
36491W        W95785  38.943   6.275   4.166
36492W        W95786   3.382  27.597   4.317
36493W        W95787  19.605  11.733   0.759
36494W        W95788  43.793  30.954  13.917
36495W        W95789  13.352  13.600   5.705
36496W        W95790  34.907   0.411  12.037
36497W        W95791  15.246  10.291  12.374
36498W        W95792  24.055  31.572  13.906
36499W        W95793  39.833  41.455  14.809
36500W        W95794  28.661  25.059  11.487
36501W        W95795  24.020   2.446  10.910
36502W        W95796  18.706  44.377  14.434
36503W        W95797  31.978   5.878   4.797
36504W        W95798  26.105  39.545   1.338
36505W        W95799  11.274  18.618  12.063
36506W        W95800  30.133  25.196   4.268
36507W        W95801  43.842  27.641   3.806
36508W        W95802  37.540   2.904  12.061
36509W        W95803  24.616  31.463   1.366
36510W        W95804  19.580  38.059   3.822
36511W        W95805  30.514  19.574   2.702
36512W        W95806  37.863  12.173  12.339
36513W        W95807  33.590  10.166  14.289
36514W        W95808  29.528  31.455  11.119
36515W        W95809  29.990  14.312   2.366
36516W        W95810  34.068  14.227   2.394
36517W        W95811  13.666  23.038  12.842
36518W        W95812  23.557  37.372   5.314
36519W        W95813  24.515  11.763   1.231
36520W        W95814  34.972  34.116   3.640
36521W        W95815  29.003   1.937  11.912
36522W        W95816  32.542  12.327   4.620
36523W        W95817   0.315  17.291   0.925
36524W        W95818  22.092  35.989  11.548
36525W        W95819  38.486  32.552  14.848
36526W        W95820  33.565  15.714  14.414
36527W        W95821  34.463  12.271  14.335
36528W        W95822   5.715  15.728   4.303
36529W        W95823  43.958   2.381  12.407
36530W        W95824  19.069  13.347  11.047
36531W        W95825  20.160  44.372   3.713
36532W        W95826   9.237  14.684   0.462
36533W        W95827   3.881  16.811  13.415
36534W        W95828  37.840  20.231  14.021
36535W        W95829  38.042  40.007  10.407
36536W        W95830  21.130  11.282  14.499
36537W        W95831  15.108  25.508   3.264
36538W        W95832   0.394  20.228  12.477
36539W        W95833   9.243  32.946   3.712
36540W        W95834   4.388  18.161   4.730
36541W        W95835  14.664  24.113   4.623
36542W        W95836   7.207  32.468   4.720
36543W        W95837   6.849  43.437  12.998
36544W        W95838   8.855  21.553   3.654
36545W        W95839  17.066  38.954   2.219
36546W        W95840  18.690  17.144  14.367
36547W        W95841  20.710  24.161  14.428
36548W        W95842  32.124  14.277   0.309
36549W        W95843  20.708  44.329  12.874
36550W        W95844  41.846  38.076  11.871
36551W        W95845  13.139  38.342  14.285
36552W        W95846  18.615  41.788  12.021
36553W        W95847   1.846   9.676   0.354
36554W        W95848  12.143  15.234   3.154
36555W        W95849  19.158  35.094  14.929
36556W        W95850  35.957  35.444   0.818
36557W        W95851   4.217  24.088   2.897
36558W        W95852  25.624   4.887  14.373
36559W        W95853  15.306  37.396  10.563
36560W        W95854   4.841  33.945   3.770
36561W        W95855   2.454  28.158   4.805
36562W        W95856  21.078  24.141   3.834
36563W        W95857  35.023  39.407  11.987
36564W        W95858   6.733   2.961  14.015
36565W        W95859  15.215   9.169   5.084
36566W        W95860  43.326  32.407   0.938
36567W        W95861  18.263  37.567   4.310
36568W        W95862  39.507  26.052  11.944
36569W        W95863  41.521  12.825  14.435
36570W        W95864  10.814  26.055   4.825
36571W        W95865   6.206  20.252   5.155
36572W        W95866  41.305  21.073  10.406
36573W        W95867   5.793  43.428   1.831
36574W        W95868   8.190  17.137   3.261
36575W        W95869  27.483  21.626   4.800
36576W        W95870  42.998  20.722   1.874
36577W        W95871  38.021  27.549  12.057
36578W        W95872   7.235  26.097   4.651
36579W        W95873  29.041  20.735   3.727
36580W        W95874  12.725  20.715  10.637
36581W        W95875  37.903   1.410   4.744
36582W        W95876  20.665   6.366   0.803
36583W        W95877  23.616   9.164  12.564
36584W        W95878   7.413  15.303  14.020
36585W        W95879  27.618  11.263  10.888
36586W        W95880  25.153  10.846   4.655
36587W        W95881  23.049  16.579  12.063
36588W        W95882   1.294  21.718  12.926
36589W        W95883  17.079  15.607   3.285
36590W        W95884  38.532   2.830   2.385
36591W        W95885   6.258  32.566  13.441
36592W        W95886  15.715   4.290   3.289
36593W        W95887  19.048   0.263   2.770
36594W        W95888  26.030  37.384   2.692
36595W        W95889  15.785  10.377   4.809
36596W        W95890  36.913  33.389   2.902
36597W        W95891  35.567  32.904  11.377
36598W        W95892  40.978  34.508  13.996
36599W        W95893  40.908  38.935   2.325
36600W        W95894  11.349  20.586  12.052
36601W        W95895   1.820   9.774   1.382
36602W        W95896  14.200   9.662   9.571
36603W        W95897  34.571  41.410  14.981
36604W        W95898  14.602   4.265   1.833
36605W        W95899  31.425   7.820  13.867
36606W        W95900  25.670  18.135   0.359
36607W        W95901  40.809  16.311   0.736
36608W        W95902  14.125  13.623  14.996
36609W        W95903  25.503  11.313   2.871
36610W        W95904  22.588  43.469  14.946
36611W        W95905  26.698   7.714  13.794
36612W        W95906  21.569  28.967  13.957
36613W        W95907  12.141  41.866   1.390
36614W        W95908   7.281  42.958  12.877
36615W        W95909  35.918  10.706  12.445
36616W        W95910  41.787  16.614   1.870
36617W        W95911  10.800  41.837  14.779
36618W        W95912   5.892  33.875   0.386
36619W        W95913  14.721   4.802   0.317
36620W        W95914  15.304   3.882   2.719
36621W        W95915  25.040  22.732  12.341
36622W        W95916  44.811   0.436   5.750
36623W        W95917   1.748  35.973  13.541
36624W        W95918  11.747  24.083   3.649
36625W        W95919  21.121  26.470  12.398
36626W        W95920  37.404   1.813   9.980
36627W        W95921   9.284  17.622  10.940
36628W        W95922   5.306   1.844   0.801
36629W        W95923  34.592   5.336   1.236
36630W        W95924   9.318  10.846  11.065
36631W        W95925  30.066  42.420  10.412
36632W        W95926  43.011  30.949   0.875
36633W        W95927   7.791  20.065   0.821
36634W        W95928  32.529  40.953   2.725
36635W        W95929  28.103   4.436  13.344
36636W        W95930   9.790  27.062  11.433
36637W        W95931  24.025  14.807  13.793
36638W        W95932  27.488  26.085  12.956
36639W        W95933   6.294   9.760  12.399
36640W        W95934   9.824   4.255  14.901
36641W        W95935   6.252  14.144  14.510
36642W        W95936  22.532   4.827   4.801
36643W        W95937   9.792  22.197   4.252
36644W        W95938  28.109  39.822   3.219
36645W        W95939  35.582   2.445  10.985
36646W        W95940  18.675  37.970  12.960
36647W        W95941  24.624  40.519   2.884
36648W        W95942   5.244   2.257  13.962
36649W        W95943  13.710   7.832  14.006
36650W        W95944   3.713   6.775   4.794
36651W        W95945  23.617  21.556  10.581
36652W        W95946  33.508  38.534   3.729
36653W        W95947   9.858  16.742   2.858
36654W        W95948  29.006  12.248   3.776
36655W        W95949  15.790  33.048  14.477
36656W        W95950   3.936  25.616  12.024
36657W        W95951  21.734  19.566  10.536
36658W        W95952  41.908   4.270  10.138
36659W        W95953  11.754  19.651   3.340
36660W        W95954  19.145  11.236   2.790
36661W        W95955  15.290  32.524   0.308
36662W        W95956  35.871  20.038   3.183
36663W        W95957  19.658  39.458  11.014
36664W        W95958  42.472  28.163  12.852
36665W        W95959  12.819  35.004  11.515
36666W        W95960   8.202  15.218   1.306
36667W        W95961  22.073   5.225  13.058
36668W        W95962   9.365   0.260  11.411
36669W        W95963  10.265   2.292  12.937
36670W        W95964  39.966  30.431  10.569
36671W        W95965  14.796  40.354  11.917
36672W        W95966   7.255  41.940   3.271
36673W        W95967  30.054  23.207   4.210
36674W        W95968  32.091  16.094   3.764
36675W        W95969  16.670  25.643   4.252
36676W        W95970  27.160  31.131   3.707
36677W        W95971   0.471  41.485  12.438
36678W        W95972   1.468  25.092   4.624
36679W        W95973  27.545  30.077   2.728
36680W        W95974  15.269  28.583  14.403
36681W        W95975  35.450  16.172   0.836
36682W        W95976   7.369  16.750  11.008
36683W        W95977  43.803  40.946  10.623
36684W        W95978  21.188  11.799  12.476
36685W        W95979  11.164  18.743  14.460
36686W        W95980  12.654  11.263  10.484
36687W        W95981  40.895  41.514  12.344
36688W        W95982  28.078  35.391   4.222
36689W        W95983  11.736  23.116  13.014
36690W        W95984  35.930  32.487  13.921
36691W        W95985  40.966   8.772  14.832
36692W        W95986  19.217  16.309  10.984
36693W        W95987   9.304  21.019  13.917
36694W        W95988  30.094  27.546   3.273
36695W        W95989   4.218  22.598  10.505
36696W        W95990  18.225  27.476   3.678
36697W        W95991   6.353  44.409  11.566
36698W        W95992  15.689  24.489  14.392
36699W        W95993  35.596  34.928  14.954
36700W        W95994   9.204  14.322   4.308
36701W        W95995  39.057  14.191  10.614
36702W        W95996  15.313  34.536  14.357
36703W        W95997  24.638  18.248  12.361
36704W        W95998  38.350  12.128   4.119
36705W        W95999  26.052  25.149   0.788
36706W        W96000  12.197  35.864  12.915
36707W        W96001  38.898  22.069  12.954
36708W        W96002  38.834  23.554   5.212
36709W        W96003   4.392  12.839   2.691
36710W        W96004  26.703  20.761   1.733
36711W        W96005  29.639  14.623   0.385
36712W        W96006  28.573  22.155  12.500
36713W        W96007  15.711   0.829   2.277
36714W        W96008  21.686   6.757   3.343
36715W        W96009  39.559  37.532   3.732
36716W        W96010  37.384  25.518  14.284
36717W        W96011  13.267  36.988   0.396
36718W        W96012  29.105  22.210   2.891
36719W        W96013  35.978   2.842   3.156
36720W        W96014  42.977  14.722   0.784
36721W        W96015  32.566  26.562   0.380
36722W        W96016  24.561  43.487   0.887
36723W        W96017  11.132   9.164  12.564
36724W        W96018  19.210  36.917  10.944
36725W        W96019  22.685  33.911  12.365
36726W        W96020  39.957   2.784  10.064
36727W        W96021   4.375  20.167  11.452
36728W        W96022  18.787  38.451  11.102
36729W        W96023  23.705  37.982  10.427
36730W        W96024   8.322   3.880   1.434
36731W        W96025   3.303  16.644   2.239
36732W        W96026  26.591   0.299  13.507
36733W        W96027  26.656  13.148   1.862
36734W        W96028  11.272  43.823   2.250
36735W        W96029  39.887   1.843  13.016
36736W        W96030  44.841  39.019   2.800
36737W        W96031   2.240  16.752  14.478
36738W        W96032  15.192  40.026   1.294
36739W        W96033  25.037   1.927  11.076
36740W        W96034  35.434   3.894   1.800
36741W        W96035  32.138   4.405   3.641
36742W        W96036  37.925  23.012   2.788
36743W        W96037  35.092  18.270   5.196
36744W        W96038  14.182  32.448  14.415
36745W        W96039  22.717  32.473  14.515
36746W        W96040   9.302   7.193   0.869
36747W        W96041   4.339   9.391   2.371
36748W        W96042   5.780  32.032  14.471
36749W        W96043  11.363   3.947   2.408
36750W        W96044  27.122   1.251  11.456
36751W        W96045  40.973  17.229  12.412
36752W        W96046  39.973  41.032   4.597
36753W        W96047  43.773  18.228   2.664
36754W        W96048  43.431  23.526   4.742
36755W        W96049  30.535  21.149  11.949
36756W        W96050  33.904  19.072  13.325
36757W        W96051  33.082  14.803  12.863
36758W        W96052  39.434  38.874   4.168
36759W        W96053  30.603  21.191   3.309
36760W        W96054  35.515   3.879   0.307
36761W        W96055  34.499  17.745  11.499
36762W        W96056  25.674  31.642  12.354
36763W        W96057   4.916  25.499  13.053
36764W        W96058  13.678   7.263  12.359
36765W        W96059  14.261  26.519  10.939
36766W        W96060   3.250  10.823   2.280
36767W        W96061  29.633  40.900   5.625
36768W        W96062  44.278  21.546   3.700
36769W        W96063  40.868  12.649  10.917
36770W        W96064   9.184  42.347   1.321
36771W        W96065  24.556  33.904   3.343
36772W        W96066  16.191  34.432   2.323
36773W        W96067   8.727   2.920  11.011
36774W        W96068   0.282  34.068   0.464
36775W        W96069  21.241  29.663  12.576
36776W        W96070  36.004   2.466  14.941
36777W        W96071  41.892  15.217   0.374
36778W        W96072  19.642  18.787  10.643
36779W        W96073   1.450  17.084   1.782
36780W        W96074  15.129  24.184  13.523
36781W        W96075  19.590   6.330   4.277
36782W        W96076   6.911  30.547  12.865
36783W        W96077   4.758  11.256  14.481
36784W        W96078   1.449  41.295  10.965
36785W        W96079  37.552  38.336   3.844
36786W        W96080  21.624  27.545   0.932
36787W        W96081  27.011  12.647   1.253
36788W        W96082  30.545   1.394   0.747
36789W        W96083   0.774  28.105  12.448
36790W        W96084  36.888  30.161  13.970
36791W        W96085  39.475  24.198  13.401
36792W        W96086  32.429   2.278   3.689
36793W        W96087  35.063  13.645  11.856
36794W        W96088  34.090  16.683  12.026
36795W        W96089   8.172  41.019  12.541
36796W        W96090  35.544  25.596   4.351
36797W        W96091  25.518  12.225   9.547
36798W        W96092  35.453  43.494   3.836
36799W        W96093   8.215  10.875   4.749
36800W        W96094  42.483   9.158   4.178
36801W        W96095  32.431  30.007   1.740
36802W        W96096  33.459  35.101   1.779
36803W        W96097   1.799  17.090  13.860
36804W        W96098  22.581   2.364  10.980
36805W        W96099  29.667   7.687  14.780
36806W        W96100   8.160  33.891   0.477
36807W        W96101  37.032  35.416   1.275
36808W        W96102  24.485  42.950   4.657
36809W        W96103  22.609  22.602   1.427
36810W        W96104   2.369  34.545  10.618
36811W        W96105  34.118  14.305  14.499
36812W        W96106  10.333  30.068   5.268
36813W        W96107  30.506  30.465   3.255
36814W        W96108   3.937  26.166   0.292
36815W        W96109  33.065  18.114  13.972
36816W        W96110  13.152  40.866  10.955
36817W        W96111  43.389  29.586   1.409
36818W        W96112  42.457  24.184  14.976
36819W        W96113  40.464  12.700   3.225
36820W        W96114   2.859  10.201  10.494
36821W        W96115  22.142  24.118   1.928
36822W        W96116  22.165  16.183   4.677
36823W        W96117  25.202  40.014   3.667
36824W        W96118  18.684  34.537  13.849
36825W        W96119  11.817  33.593  12.842
36826W        W96120   2.935  25.558   4.180
36827W        W96121  18.701   4.757  13.856
36828W        W96122  26.114  29.062   0.789
36829W        W96123  41.458  36.485  12.072
36830W        W96124  29.991  42.363   9.613
36831W        W96125  44.785  20.717   2.299
36832W        W96126  41.338   0.379  11.902
36833W        W96127  23.225  20.660   3.361
36834W        W96128  16.699  17.672   1.323
36835W        W96129  33.874  15.629  13.883
36836W        W96130  28.982  41.919   2.291
36837W        W96131  23.015  24.030  11.534
36838W        W96132  41.829  36.962   3.794
36839W        W96133  13.831  13.680   0.777
36840W        W96134  42.009  15.679   1.841
36841W        W96135  20.586  21.185   1.346
36842W        W96136  29.469   4.207   2.361
36843W        W96137   5.799  17.605   0.340
36844W        W96138  19.739  15.251   1.896
36845W        W96139  34.390  18.148   4.722
36846W        W96140  32.077  40.323  14.974
36847W        W96141  20.673   3.421   0.338
36848W        W96142   1.837  10.736   3.320
36849W        W96143  38.506  35.875   4.618
36850W        W96144  20.557  40.549   2.359
36851W        W96145  29.618  31.607  11.566
36852W        W96146  30.023  34.547  10.427
36853W        W96147   4.842   5.217  12.377
36854W        W96148  22.178   4.258  13.463
36855W        W96149  18.677  24.589   2.707
36856W        W96150   4.398  30.997  13.896
36857W        W96151  10.670  19.636   1.301
36858W        W96152  13.642  40.359  10.481
36859W        W96153  17.668   8.814   0.956
36860W        W96154  18.627  27.548  12.053
36861W        W96155  37.054  18.237   3.686
36862W        W96156   8.704   6.398   5.152
36863W        W96157  34.897   3.379   0.950
36864W        W96158   6.185  44.007   3.288
36865W        W96159  17.733   0.308  11.995
36866W        W96160   9.368   3.712  14.858
36867W        W96161  29.468  27.536  13.039
36868W        W96162  27.560  23.034   0.315
36869W        W96163  16.318  34.929   0.422
36870W        W96164  19.277  19.728  14.307
36871W        W96165  25.033   2.249  12.928
36872W        W96166  34.487  10.821  13.971
36873W        W96167  26.459  31.542   2.751
36874W        W96168  12.705  21.084  14.759
36875W        W96169  20.102  17.304   4.287
36876W        W96170   2.380  10.662  12.457
36877W        W96171  18.566  21.062  11.864
36878W        W96172  31.150   5.283   4.331
36879W        W96173  40.832  39.006   3.361
36880W        W96174  29.611  19.575  12.518
36881W        W96175  18.204  32.486  12.546
36882W        W96176  29.627  44.000   1.773
36883W        W96177  40.022   2.875   0.743
36884W        W96178   8.301  35.548  10.423
36885W        W96179   0.888  18.053   1.743
36886W        W96180  44.787  42.329   1.275
36887W        W96181  23.693  16.651  10.474
36888W        W96182   7.759  33.490   1.348
36889W        W96183  15.222  15.652   0.737
36890W        W96184   9.759   1.386   1.251
36891W        W96185  20.565  44.805   1.408
36892W        W96186  23.210   7.390   3.834
36893W        W96187   5.439  26.669   3.795
36894W        W96188  33.494   4.854   4.141
36895W        W96189  29.492  28.133  10.549
36896W        W96190  20.615   1.445   0.875
36897W        W96191   7.382  43.875   3.647
36898W        W96192  38.958  32.392   2.674
36899W        W96193  12.692  43.276   2.378
36900W        W96194  18.055  13.721  10.497
36901W        W96195  33.058  19.176   3.253
36902W        W96196  13.719  22.190   1.902
36903W        W96197  42.523  35.102  12.984
36904W        W96198  27.665   0.882   0.943
36905W        W96199  37.921   1.814   2.717
36906W        W96200  26.662   0.260   2.285
36907W        W96201  26.598  18.681  14.509
36908W        W96202  14.618   3.373   5.093
36909W        W96203  20.722  17.617   2.671
36910W        W96204   0.447  21.666   1.705
36911W        W96205  35.911  38.910   2.741
36912W        W96206  43.963  24.033   0.898
36913W        W96207  40.976  23.985   4.731
36914W        W96208  27.979  44.383  12.858
36915W        W96209  23.021   0.279   3.342
36916W        W96210  44.935   9.645   2.243
36917W        W96211   2.338  32.547  14.336
36918W        W96212   0.462  34.393  13.822
36919W        W96213  43.274  11.710   2.288
36920W        W96214   9.860   5.900   2.860
36921W        W96215  28.048  39.449  12.457
36922W        W96216  40.962  17.790   4.673
36923W        W96217  35.587  35.388  12.974
36924W        W96218   7.188   3.257  12.434
36925W        W96219  16.259  17.559   5.100
36926W        W96220  33.555  10.303  11.500
36927W        W96221   7.785  13.186   4.152
36928W        W96222  32.956  12.330   0.382
36929W        W96223  39.854  31.982   2.834
36930W        W96224  13.621   6.312   0.470
36931W        W96225  35.068  20.718   3.771
36932W        W96226  14.163  34.925   4.311
36933W        W96227  34.541   3.766   0.848
36934W        W96228   1.882  20.580   3.788
36935W        W96229   4.880  43.299   3.354
36936W        W96230  34.501  27.471   0.840
36937W        W96231  11.743   8.884   1.705
36938W        W96232  23.606   5.422  14.794
36939W        W96233  21.518  17.234  14.453
36940W        W96234   5.842  20.232   2.292
36941W        W96235  30.417  19.672   3.155
36942W        W96236  22.647   4.802  12.031
36943W        W96237   0.761  11.212  11.952
36944W        W96238  23.529  18.643   4.221
36945W        W96239  19.194  16.158  11.469
36946W        W96240  10.183  13.640  13.886
36947W        W96241  25.641  23.132  12.845
36948W        W96242   8.197   5.763   1.876
36949W        W96243  12.339  31.523  11.963
36950W        W96244  39.394  37.442  12.859
36951W        W96245  28.063  15.323   4.794
36952W        W96246  23.110  31.596   1.819
36953W        W96247   2.899  24.676   0.946
36954W        W96248  22.598   4.943  13.347
36955W        W96249   9.753  37.371   0.967
36956W        W96250  24.116  33.390   2.847
36957W        W96251  11.175   0.269  10.441
36958W        W96252  29.590  41.319   4.659
36959W        W96253  11.697  42.971   4.124
36960W        W96254   5.275  43.964   3.646
36961W        W96255  27.009  39.507   2.330
36962W        W96256  24.517  35.854  11.958
36963W        W96257   5.859   8.403  14.467
36964W        W96258  38.077  22.537  14.376
36965W        W96259   5.247  17.192  11.112
36966W        W96260  12.166  23.646  14.339
36967W        W96261  11.249   0.748   3.818
36968W        W96262  31.145  27.677   0.374
36969W        W96263  36.894  15.120  14.283
36970W        W96264  41.826  34.380  14.819
36971W        W96265  34.435  13.127   3.693
36972W        W96266  34.447  28.669  14.822
36973W        W96267  11.692   7.758  14.002
36974W        W96268  19.086  11.203   3.861
36975W        W96269  32.540  33.056  12.562
36976W        W96270  33.442   8.690   0.383
36977W        W96271  26.145   0.848  13.471
36978W        W96272  21.512  44.778   3.156
36979W        W96273  38.937  33.027  12.407
36980W        W96274  35.469  13.836  14.826
36981W        W96275  29.577  36.024   2.664
36982W        W96276   2.794  18.782  11.021
36983W        W96277   0.373  41.870   4.227
36984W        W96278   8.854  44.971   2.280
36985W        W96279  37.510   0.947  12.540
36986W        W96280   2.394  24.699  11.021
36987W        W96281  21.558  41.481   3.288
36988W        W96282  32.949  20.540   2.230
36989W        W96283   2.792   3.377   2.779
36990W        W96284  37.553  19.739   3.357
36991W        W96285  13.177  17.166   4.710
36992W        W96286  19.659  18.764  13.313
36993W        W96287  33.939  36.503   3.206
36994W        W96288   4.330   2.751  11.415
36995W        W96289  17.652  21.565  14.873
36996W        W96290  42.909  24.076  11.954
36997W        W96291   0.390   0.438   2.786
36998W        W96292  36.423  15.315  11.397
36999W        W96293  31.019  39.451   2.747
37000W        W96294  41.943  21.049  12.902
37001W        W96295  21.224  23.652   1.332
37002W        W96296  28.511   2.277   2.670
37003W        W96297  26.648   5.392  13.849
37004W        W96298  16.742   3.328   4.332
37005W        W96299  34.036   1.348   0.951
37006W        W96300  17.234  13.770  14.374
37007W        W96301  37.337  31.475   5.207
37008W        W96302  20.164   0.311   1.414
37009W        W96303  31.995  11.736  10.014
37010W        W96304   1.798  34.376   2.372
37011W        W96305  31.462  33.452  13.012
37012W        W96306   1.824  39.319  11.876
37013W        W96307   3.303  31.022  14.001
37014W        W96308  29.429  13.832  14.902
37015W        W96309  27.522   8.892  11.386
37016W        W96310  40.374   3.407   9.945
37017W        W96311  31.083  32.510   2.676
37018W        W96312  40.914  20.256  11.417
37019W        W96313  41.850  15.787   3.357
37020W        W96314  30.588  27.960   5.200
37021W        W96315  21.667   9.707  11.540
37022W        W96316  19.164  38.850  12.546
37023W        W96317  16.270  42.470   4.299
37024W        W96318  10.773  11.346   2.309
37025W        W96319  21.652  10.148  12.426
37026W        W96320  10.190  22.101  12.368
37027W        W96321  28.975  18.670  14.495
37028W        W96322  12.215  18.202  14.401
37029W        W96323   7.191  17.229   0.894
37030W        W96324  10.345  36.990   0.354
37031W        W96325  40.507  15.146   1.259
37032W        W96326   7.771   7.359  10.452
37033W        W96327  19.082  37.867  12.039
37034W        W96328  17.606  43.821   4.724
37035W        W96329  44.866  35.895   4.254
37036W        W96330  42.848  37.941  12.576
37037W        W96331  19.242  12.761  11.914
37038W        W96332  42.931   5.194   9.931
37039W        W96333   3.786  38.829  14.920
37040W        W96334  41.896  29.135  10.561
37041W        W96335   7.250  24.022   1.426
37042W        W96336   1.395  37.908   0.424
37043W        W96337  10.846   8.183  14.028
37044W        W96338  19.274  41.333  10.485
37045W        W96339  16.677  31.977   4.795
37046W        W96340  15.158  35.101   3.224
37047W        W96341   5.812   3.260  14.416
37048W        W96342  37.560  13.228   1.872
37049W        W96343  40.979  25.654  11.599
37050W        W96344  14.618  35.920   1.381
37051W        W96345  39.319   0.347  14.014
37052W        W96346   0.372  32.903   0.396
37053W        W96347  14.740  34.885   0.899
37054W        W96348  24.498   7.278   0.471
37055W        W96349  28.520  35.956  10.937
37056W        W96350  10.337  24.031  13.331
37057W        W96351  32.912  44.788  12.484
37058W        W96352   0.277  13.752   4.297
37059W        W96353  16.167  42.517  13.953
37060W        W96354  32.955  44.311   3.705
37061W        W96355   5.362   2.820   0.471
37062W        W96356  42.867  39.314   1.450
37063W        W96357  17.569  21.756   2.856
37064W        W96358  22.601  37.407  11.019
37065W        W96359  18.613   9.865  14.401
37066W        W96360   3.846  27.464   1.451
37067W        W96361   8.201  31.538  13.930
37068W        W96362  27.945  40.462   2.377
37069W        W96363  37.578  19.605  11.539
37070W        W96364   0.942  13.746   3.669
37071W        W96365  40.480   0.861   1.428
37072W        W96366  28.646  12.756  12.979
37073W        W96367   7.277   3.911  10.984
37074W        W96368   0.428  44.992  13.880
37075W        W96369  34.973  27.052   2.264
37076W        W96370  36.421   5.239  10.584
37077W        W96371  14.789  36.846   4.622
37078W        W96372   0.293   2.356  14.373
37079W        W96373  13.723  29.930   3.839
37080W        W96374  38.542  25.072   3.377
37081W        W96375  14.185  20.182  13.025
37082W        W96376  38.019   1.338   1.717
37083W        W96377  34.954  12.675  10.948
37084W        W96378  40.995  42.358  11.595
37085W        W96379  27.940  38.012   9.506
37086W        W96380  21.737  16.618   0.883
37087W        W96381   9.793  12.671  12.904
37088W        W96382  17.721  40.955  11.980
37089W        W96383  31.442  19.146   2.864
37090W        W96384  32.973  10.201  11.084
37091W        W96385  28.169  35.966   3.845
37092W        W96386  15.592  11.332  13.341
37093W        W96387  20.105  38.873  14.758
37094W        W96388  13.643  35.534   4.802
37095W        W96389   5.381  40.303   2.798
37096W        W96390  22.728  20.215   4.298
37097W        W96391  39.440   5.792   4.647
37098W        W96392  42.418  41.303   3.724
37099W        W96393  34.520   4.287  13.510
37100W        W96394  38.892  28.619  14.290
37101W        W96395  17.179  15.234   0.475
37102W        W96396   5.381  18.556  12.900
37103W        W96397  15.163  15.207  12.432
37104W        W96398  11.710   8.293   2.853
37105W        W96399  38.564  27.663   1.340
37106W        W96400   7.257   2.760   9.645
37107W        W96401  10.811  43.473  14.307
37108W        W96402  28.619   4.240  10.555
37109W        W96403  27.117  43.369  12.936
37110W        W96404  15.622  26.195   3.750
37111W        W96405  15.711  41.968  12.067
37112W        W96406  41.375  42.847   3.655
37113W        W96407  31.153   7.738   2.890
37114W        W96408   6.253  36.852  10.913
37115W        W96409  35.080   6.209   5.088
37116W        W96410  27.481   3.944  11.912
37117W        W96411  33.431  26.089  10.597
37118W        W96412  40.536   3.886  14.953
37119W        W96413  36.070   6.821  11.029
37120W        W96414  20.050   6.321   0.867
37121W        W96415  18.185   8.727  13.942
37122W        W96416  38.333  37.381  12.015
37123W        W96417  24.701  31.996  13.885
37124W        W96418   2.903   5.768   3.728
37125W        W96419   0.798   9.769  11.510
37126W        W96420   2.859  13.782   2.246
37127W        W96421  44.976  33.917  14.431
37128W        W96422  43.013  31.642  13.046
37129W        W96423  17.237  27.557  14.759
37130W        W96424  29.092   3.413   2.244
37131W        W96425   7.334  37.890  14.879
37132W        W96426  39.864  34.524  11.523
37133W        W96427   1.338  12.816  12.469
37134W        W96428  38.916  33.546  12.970
37135W        W96429  12.645  12.767   1.884
37136W        W96430  22.507  11.172   1.714
37137W        W96431  33.104  37.867   3.165
37138W        W96432  44.785  29.113  14.969
37139W        W96433   6.875  42.516  13.435
37140W        W96434  37.070  29.163   2.354
37141W        W96435  11.183   9.704   1.712
37142W        W96436  23.079  22.013   1.309
37143W        W96437  44.390   6.741  12.091
37144W        W96438  37.492  12.350   3.853
37145W        W96439  15.777  42.308  10.002
37146W        W96440  43.296   9.819  12.424
37147W        W96441  36.576  25.060   2.684
37148W        W96442  13.698  34.383   4.696
37149W        W96443  43.444  44.969   2.739
37150W        W96444   7.768  40.798   3.779
37151W        W96445  37.037  22.522  11.403
37152W        W96446   1.899  24.195  12.500
37153W        W96447  35.103  38.556   4.769
37154W        W96448   1.416  28.158  11.403
37155W        W96449  44.905  36.032  12.477
37156W        W96450  35.884  37.024  11.577
37157W        W96451  29.657  17.111   1.779
37158W        W96452  36.501  10.676  14.011
37159W        W96453  24.230  21.618  12.033
37160W        W96454   2.400  35.866  10.951
37161W        W96455  35.990  35.418   2.377
37162W        W96456  33.054  12.662   0.782
37163W        W96457  34.522  37.351   2.310
37164W        W96458  14.142  26.535   5.278
37165W        W96459   8.261   6.873   1.825
37166W        W96460   5.383  31.424  12.865
37167W        W96461   8.871  33.393   1.848
37168W        W96462   9.735  24.672  13.451
37169W        W96463   3.807  12.700  14.352
37170W        W96464  25.693  43.843  10.543
37171W        W96465  12.732  36.536  12.412
37172W        W96466  17.140  31.453  13.544
37173W        W96467  30.929  24.116   4.737
37174W        W96468  41.438  15.245  14.369
37175W        W96469  28.032   1.295  14.394
37176W        W96470  14.642  23.683   1.721
37177W        W96471  29.572   6.724   3.347
37178W        W96472  17.137  33.626  13.017
37179W        W96473  10.290  42.823   0.890
37180W        W96474  13.268  31.099   3.694
37181W        W96475  24.119  39.981  10.539
37182W        W96476  42.028  25.519   3.326
37183W        W96477   0.274  12.783  13.842
37184W        W96478  31.572  37.049  11.072
37185W        W96479  37.362  43.884   0.741
37186W        W96480  40.396  28.499  13.016
37187W        W96481  11.790  27.635  13.051
37188W        W96482  38.824   9.340   3.163
37189W        W96483   7.195  44.271   9.954
37190W        W96484  28.566  13.620  11.042
37191W        W96485  15.119  34.868  11.001
37192W        W96486  39.399   2.926   3.699
37193W        W96487  35.857  28.151   5.170
37194W        W96488  38.334  27.126   4.173
37195W        W96489  21.715  10.301   3.757
37196W        W96490   5.216   2.284   1.755
37197W        W96491  44.998   3.763   1.430
37198W        W96492  19.578  13.797   4.218
37199W        W96493  24.171   2.423  13.943
37200W        W96494   0.430  36.874   3.716
37201W        W96495  17.776   6.748   0.812
37202W        W96496  30.088  27.451  12.980
37203W        W96497  13.834   5.397  14.428
37204W        W96498  23.639  23.214   3.728
37205W        W96499  17.700  35.407  11.568
37206W        W96500  42.998  29.999  10.469
37207W        W96501  25.167   1.455  13.309
37208W        W96502   2.868  30.428  12.512
37209W        W96503  31.421   4.436   3.817
37210W        W96504  12.758  43.317  12.831
37211W        W96505   3.924  36.091  12.060
37212W        W96506  20.089  37.013   4.238
37213W        W96507  41.030  16.601  12.404
37214W        W96508   7.287  26.659  14.015
37215W        W96509  27.582  33.078   4.133
37216W        W96510  27.003  41.381  14.027
37217W        W96511  18.618  34.885   2.820
37218W        W96512  23.014  19.663  14.761
37219W        W96513   6.823  28.462   3.769
37220W        W96514  33.891  43.862   4.155
37221W        W96515  39.450   9.772  12.090
37222W        W96516  29.550  33.109   0.275
37223W        W96517  18.262   1.862  10.595
37224W        W96518  13.704   3.317  12.961
37225W        W96519  11.318   4.748  11.020
37226W        W96520  25.103  12.206   3.817
37227W        W96521  21.121   1.761  14.378
37228W        W96522   3.455  39.442  11.553
37229W        W96523  24.003   6.282   3.786
37230W        W96524  19.119  18.707  14.281
37231W        W96525  10.322  35.592  13.794
37232W        W96526  38.061  35.858  11.929
37233W        W96527  31.072  13.329  12.851
37234W        W96528  13.637   4.382   4.237
37235W        W96529  38.058   8.264  13.925
37236W        W96530  28.596  38.505   2.711
37237W        W96531  20.653  12.709   1.257
37238W        W96532   9.674  38.021   1.272
37239W        W96533  43.865  13.181   0.727
37240W        W96534  12.233  29.961   2.798
37241W        W96535  23.149  19.204  10.535
37242W        W96536  44.327  34.382  10.942
37243W        W96537  39.472  28.955  12.024
37244W        W96538  26.558  43.874  14.300
37245W        W96539   8.778   6.813   3.364
37246W        W96540  42.363  12.665  10.896
37247W        W96541   3.766  36.858   1.250
37248W        W96542  11.637  43.390   3.188
37249W        W96543  14.631   1.779  14.305
37250W        W96544  31.515   4.728  14.902
37251W        W96545  33.404  40.868  10.997
37252W        W96546  33.551  38.443   1.419
37253W        W96547  30.081  32.477   4.772
37254W        W96548  23.063  34.908   1.233
37255W        W96549  27.065  11.262  13.383
37256W        W96550   1.378  13.748   1.352
37257W        W96551   3.458  11.232  12.058
37258W        W96552  42.424  22.199   4.611
37259W        W96553   4.365  17.677  13.542
37260W        W96554  30.088  16.724  13.940
37261W        W96555  17.602  24.684  14.381
37262W        W96556   4.767  10.874   1.436
37263W        W96557  26.624  36.049  13.063
37264W        W96558   6.856  43.346   0.462
37265W        W96559   6.272  31.955   4.275
37266W        W96560  15.635   6.262  13.837
37267W        W96561  31.495  31.494   1.308
37268W        W96562  24.133  20.645   0.454
37269W        W96563  10.789  42.845  12.091
37270W        W96564   3.711  21.135  14.822
37271W        W96565  22.659  16.090  13.316
37272W        W96566  22.669  35.415   3.258
37273W        W96567  25.510  27.468  13.362
37274W        W96568  35.982  29.534   3.232
37275W        W96569  24.583  10.145   4.267
37276W        W96570  10.311   6.713   1.327
37277W        W96571  30.535  16.255   3.338
37278W        W96572  10.777  11.276  11.908
37279W        W96573   0.462  39.432   2.766
37280W        W96574  27.570  34.379  12.875
37281W        W96575  19.776  37.574   1.837
37282W        W96576   5.314  26.977  14.871
37283W        W96577  21.025  42.487  12.959
37284W        W96578  17.293  31.465  12.568
37285W        W96579  16.177  42.520  12.857
37286W        W96580   3.724  27.142  12.473
37287W        W96581  39.327  36.356  12.959
37288W        W96582   2.376  29.036  12.849
37289W        W96583  44.813  44.826  12.464
37290W        W96584  42.850  14.659  14.323
37291W        W96585  11.248  39.358   4.618
37292W        W96586  26.591  25.064  10.624
37293W        W96587  40.970  43.790   4.812
37294W        W96588  21.027  23.700  11.075
37295W        W96589  21.196   6.704  10.145
37296W        W96590  30.013   9.199   1.275
37297W        W96591  26.151  33.524  11.613
37298W        W96592  33.915   0.402  10.492
37299W        W96593  24.104  20.191  14.915
37300W        W96594  25.509  40.518  14.411
37301W        W96595  12.260   5.746  12.342
37302W        W96596  44.937   0.412   2.197
37303W        W96597  39.908  39.402  11.117
37304W        W96598   4.396  32.628  10.534
37305W        W96599  21.543  42.824  15.000
37306W        W96600  15.130  25.483  11.580
37307W        W96601  39.392  38.032   9.975
37308W        W96602   9.164  37.422   3.361
37309W        W96603  23.627  16.120  14.990
37310W        W96604  35.109  23.596   1.831
37311W        W96605  10.186  23.635  12.041
37312W        W96606  32.913   5.746  10.983
37313W        W96607  20.056  25.213  13.798
37314W        W96608  35.370  30.939   2.285
37315W        W96609  41.819  15.084  13.504
37316W        W96610  35.099  42.511  13.874
37317W        W96611  40.478  28.467   2.730
37318W        W96612  13.811   6.721  12.444
37319W        W96613  36.467  19.063   0.369
37320W        W96614  36.942  34.918  11.914
37321W        W96615  11.157  24.501   0.243
37322W        W96616  39.545  42.478   2.742
37323W        W96617  14.094  14.693   4.320
37324W        W96618  29.509   9.316   3.692
37325W        W96619  26.033  40.899  10.579
37326W        W96620  17.287  32.581  10.499
37327W        W96621  10.311   7.853  14.822
37328W        W96622  26.198   3.800   2.199
37329W        W96623   6.368  32.084   9.998
37330W        W96624  15.151  26.601   2.404
37331W        W96625   5.788  20.259  11.960
37332W        W96626   1.851  18.672   4.681
37333W        W96627  42.291  14.178   3.216
37334W        W96628  16.221  38.068  12.355
37335W        W96629   8.810  27.488   2.415
37336W        W96630  30.052  10.207  12.017
37337W        W96631  26.462  35.913   0.291
37338W        W96632   0.286  12.200   4.349
37339W        W96633  25.169  43.379   2.405
37340W        W96634  35.957  23.034   1.424
37341W        W96635   9.234  32.612   1.740
37342W        W96636  14.826  39.964   2.292
37343W        W96637  38.357  39.538  12.891
37344W        W96638  17.704   8.284   4.251
37345W        W96639  27.191  16.702   2.332
37346W        W96640   5.317   4.213   2.382
37347W        W96641  10.161   4.710   5.150
37348W        W96642  38.960   9.228  11.070
37349W        W96643  25.102  44.779   2.862
37350W        W96644  38.364  42.431  11.919
37351W        W96645   0.408  14.605   2.221
37352W        W96646  14.832   3.377   0.248
37353W        W96647  26.591  26.479  10.457
37354W        W96648  10.862  20.634  10.568
37355W        W96649  20.575  34.113  11.900
37356W        W96650  32.890   1.361  12.392
37357W        W96651   8.352  32.620   2.764
37358W        W96652  23.194  18.195  10.995
37359W        W96653  41.467  39.006   2.398
37360W        W96654  34.564  14.271   2.398
37361W        W96655   9.323  38.440  10.447
37362W        W96656  35.488  12.305  11.521
37363W        W96657  21.542  21.109  11.461
37364W        W96658  26.653  32.111   5.247
37365W        W96659  42.012   0.821  13.376
37366W        W96660  11.367  13.841   3.290
37367W        W96661  28.639  22.638  12.404
37368W        W96662  33.448  19.618   4.314
37369W        W96663   7.893  44.343  10.508
37370W        W96664   8.694  26.566   0.758
37371W        W96665  10.303  36.852  14.983
37372W        W96666  13.628  24.724   1.907
37373W        W96667  42.842  22.679   4.763
37374W        W96668  32.451  40.430   5.287
37375W        W96669   9.165  40.469   1.259
37376W        W96670  31.026  44.976   0.387
37377W        W96671  14.595  16.141   2.737
37378W        W96672  32.140   2.364  14.445
37379W        W96673  25.051   2.463   0.243
37380W        W96674   6.222   0.751  13.950
37381W        W96675  14.771   6.229   4.838
37382W        W96676   3.314   8.204   2.408
37383W        W96677  14.770  34.006  10.589
37384W        W96678  32.439  10.179   1.869
37385W        W96679  38.407  25.194   1.313
37386W        W96680  13.225  37.513  14.855
37387W        W96681  32.999   0.300   2.870
37388W        W96682  38.533  40.836   2.212
37389W        W96683  37.849  23.094   0.771
37390W        W96684  15.166  24.626   2.295
37391W        W96685  28.014  33.477   2.275
37392W        W96686  14.715  11.867   1.807
37393W        W96687  36.549   3.442   2.892
37394W        W96688  23.135   3.778  10.615
37395W        W96689   4.815  20.263  13.951
37396W        W96690   3.415  20.764   0.891
37397W        W96691  38.041   6.231   1.284
37398W        W96692  23.198  14.807  14.904
37399W        W96693  16.568  14.713   1.402
37400W        W96694   1.387  12.811  12.933
37401W        W96695  44.269  14.757  11.416
37402W        W96696  12.707  24.688  12.991
37403W        W96697  11.270  23.697  12.854
37404W        W96698   1.892  40.548   2.785
37405W        W96699  25.178  28.968   2.887
37406W        W96700  29.041  34.444   0.471
37407W        W96701  14.112  26.693   1.773
37408W        W96702   6.257  30.442  12.475
37409W        W96703  28.943  17.307   1.897
37410W        W96704  36.563  22.115  11.443
37411W        W96705   7.716  24.489   0.907
37412W        W96706  17.176  32.476   1.452
37413W        W96707  25.159   8.178   3.221
37414W        W96708  31.438  29.578   1.275
37415W        W96709  10.245  21.647  11.517
37416W        W96710   3.231  32.610  14.976
37417W        W96711   6.779  32.393  14.491
37418W        W96712  35.518  15.279   3.176
37419W        W96713  26.679  20.597   2.269
37420W        W96714  28.106  35.463  13.369
37421W        W96715   6.234  13.635  11.523
37422W        W96716  13.205  23.624  10.036
37423W        W96717  26.622  35.083  13.903
37424W        W96718  43.767   7.320  12.925
37425W        W96719   7.310  17.220   2.268
37426W        W96720  13.215   1.822  11.482
37427W        W96721   9.379  32.633   0.870
37428W        W96722  30.553  41.442  12.567
37429W        W96723  20.216  34.536   4.766
37430W        W96724  19.730  33.064   4.312
37431W        W96725  28.158  26.702   0.794
37432W        W96726  27.946  37.072   2.218
37433W        W96727   9.698  29.471  14.919
37434W        W96728  41.350  21.699  10.418
37435W        W96729  35.362  12.756   3.675
37436W        W96730   0.791   5.761   1.311
37437W        W96731  33.968  26.130  12.458
37438W        W96732  16.294  34.061  12.369
37439W        W96733  35.571  22.721   0.901
37440W        W96734  40.898  30.415  13.986
37441W        W96735  22.721  32.602  13.941
37442W        W96736   8.241  32.434   0.856
37443W        W96737  34.485   5.868   3.189
37444W        W96738  22.615  41.815   4.646
37445W        W96739  16.112  22.733  14.422
37446W        W96740  43.343   6.345  13.978
37447W        W96741  41.518  39.973  11.086
37448W        W96742   8.296  20.253   5.100
37449W        W96743  42.959  42.894  12.401
37450W        W96744   1.316  36.882   1.859
37451W        W96745  41.514  33.896  10.448
37452W        W96746  11.212  35.990   3.826
37453W        W96747  32.474  19.179  13.424
37454W        W96748  36.352  41.525   3.222
37455W        W96749  13.791  28.674  11.409
37456W        W96750  29.989  28.658   2.329
37457W        W96751  29.606  39.539  10.479
37458W        W96752  39.354  42.509  13.878
37459W        W96753  39.495  38.029   1.352
37460W        W96754  25.046   0.818  13.988
37461W        W96755  32.581   2.229   2.681
37462W        W96756  41.021  41.341  14.447
37463W        W96757  27.195   9.854   4.130
37464W        W96758  28.597   9.712  12.002
37465W        W96759  16.281  13.838  12.077
37466W        W96760  11.621  28.573  14.330
37467W        W96761  22.515  37.834   4.230
37468W        W96762   6.863  39.915   1.380
37469W        W96763  28.536  24.030   3.671
37470W        W96764  16.230   1.467  14.913
37471W        W96765  41.931   7.884   3.254
37472W        W96766  41.363  23.079   2.898
37473W        W96767  43.961  25.115  11.379
37474W        W96768  39.503  25.696  14.879
37475W        W96769  15.096  11.348   0.962
37476W        W96770  29.959  17.709   0.414
37477W        W96771  14.673   8.164  13.052
37478W        W96772  29.105  11.669   3.183
37479W        W96773  11.143  10.838  14.959
37480W        W96774  21.736   5.759   0.949
37481W        W96775   2.805  10.176   3.276
37482W        W96776  43.765  22.042   3.837
37483W        W96777  21.710   0.255  11.936
37484W        W96778  25.065  27.647   4.323
37485W        W96779  29.113  36.571   1.864
37486W        W96780   1.880  34.920  14.899
37487W        W96781  19.598   5.197   2.700
37488W        W96782  40.329  20.250   4.168
37489W        W96783  30.473  42.495  11.074
37490W        W96784  39.894  11.262  13.793
37491W        W96785  12.811  33.515  10.546
37492W        W96786  39.377  43.475  12.563
37493W        W96787  41.990  21.251  14.831
37494W        W96788  32.530  42.994   5.168
37495W        W96789  40.031  15.230  13.352
37496W        W96790  19.072  44.977   3.668
37497W        W96791  19.237   7.791   4.643
37498W        W96792   8.700  41.845  12.352
37499W        W96793  11.371  32.626  10.979
37500W        W96794  38.899  21.206  12.966
37501W        W96795  30.909  21.043   2.289
37502W        W96796  22.654   3.803  13.005
37503W        W96797  43.481  26.139  12.444
37504W        W96798   4.223  15.679  12.838
37505W        W96799  24.070  37.547  10.615
37506W        W96800  38.834  40.007   0.860
37507W        W96801   3.381  23.570   9.449
37508W        W96802   1.854   2.453  10.059
37509W        W96803  27.451  25.093  14.826
37510W        W96804  17.185  30.531   1.896
37511W        W96805  37.914  18.698  12.362
37512W        W96806   7.370   1.431  11.488
37513W        W96807   7.300  19.161   0.305
37514W        W96808  21.027  40.377   4.728
37515W        W96809  16.781  27.000   3.268
37516W        W96810  16.670  34.980   0.769
37517W        W96811  30.955  21.756  14.016
37518W        W96812  32.443  33.605  12.825
37519W        W96813  25.569  34.072   4.329
37520W        W96814   5.202  17.267  14.019
37521W        W96815  18.092   2.836  14.290
37522W        W96816  15.677   0.324  11.871
37523W        W96817  30.418  21.715   0.449
37524W        W96818   9.672   5.776   4.326
37525W        W96819   2.963  23.544  10.963
37526W        W96820  34.419  30.502  14.286
37527W        W96821  29.474  26.542  11.551
37528W        W96822   0.411  30.648   4.296
37529W        W96823   6.192  38.040   4.165
37530W        W96824   5.219  22.038   0.896
37531W        W96825  19.167  30.446  13.544
37532W        W96826  37.431  20.579   4.346
37533W        W96827   0.876   8.225  13.548
37534W        W96828  15.236  31.644   3.331
37535W        W96829  21.022  16.260  12.930
37536W        W96830  15.316  19.557  13.387
37537W        W96831  25.066  37.011  13.846
37538W        W96832  12.319  44.986  12.421
37539W        W96833  44.346  19.731  13.419
37540W        W96834   0.966  17.224   1.371
37541W        W96835  33.082  36.939   0.358
37542W        W96836  27.680  18.753  12.479
37543W        W96837  15.284   0.398  13.408
37544W        W96838   5.785  24.623  13.922
37545W        W96839  18.692  34.449  14.993
37546W        W96840  26.606  32.445  11.094
37547W        W96841  38.000  32.918   2.326
37548W        W96842  31.986  21.689  10.537
37549W        W96843   1.260   9.163  12.090
37550W        W96844  36.099  13.326   2.284
37551W        W96845   8.285   8.827  12.042
37552W        W96846  15.236   8.673   9.959
37553W        W96847  14.688  35.571  10.915
37554W        W96848  21.653  17.622  11.884
37555W        W96849  18.720   1.458   0.798
37556W        W96850  32.572  25.518   2.719
37557W        W96851  27.105  12.355  10.628
37558W        W96852  32.430   3.730   0.917
37559W        W96853  14.596   5.736  13.894
37560W        W96854  23.202  29.012  12.881
37561W        W96855  23.057   6.288  12.456
37562W        W96856  18.240  43.341  14.879
37563W        W96857  43.392   5.278   2.307
37564W        W96858  25.152  27.012  13.817
37565W        W96859  37.514  28.675   4.710
37566W        W96860  29.963  26.460  11.082
37567W        W96861  32.576  35.567   1.828
37568W        W96862  40.826  22.605  13.428
37569W        W96863   5.428  36.895   2.683
37570W        W96864  17.564  15.630  11.443
37571W        W96865   0.316  10.286   2.812
37572W        W96866  42.013  25.627  14.339
37573W        W96867  14.825  35.859  10.464
37574W        W96868  19.560  36.358   4.153
37575W        W96869  16.218  36.091  13.992
37576W        W96870   5.233  18.712   3.702
37577W        W96871   8.758  41.398  10.125
37578W        W96872  33.008  29.481  12.419
37579W        W96873  33.532  34.104   2.779
37580W        W96874   6.265   1.422   0.323
37581W        W96875  31.639  15.669   2.722
37582W        W96876  12.322  39.320   3.365
37583W        W96877  15.724  22.173   2.353
37584W        W96878  18.201  37.952  13.395
37585W        W96879  10.203  13.704   1.434
37586W        W96880  22.031  38.397  11.948
37587W        W96881  23.114  37.448  13.837
37588W        W96882  34.524  44.753   0.277
37589W        W96883  16.805  25.657  13.431
37590W        W96884  44.942   8.824   2.277
37591W        W96885  10.252  25.096   1.248
37592W        W96886  14.766  26.187  10.976
37593W        W96887   5.724  34.031   2.758
37594W        W96888  44.493   7.175   9.920
37595W        W96889  25.554  35.979   0.473
37596W        W96890  25.550   8.655   3.340
37597W        W96891  23.224  37.348  14.447
37598W        W96892  27.074  30.982  10.452
37599W        W96893  18.277  23.706   1.250
37600W        W96894  20.552   7.809  12.845
37601W        W96895   8.745  36.427   1.364
37602W        W96896  40.356  34.521   3.789
37603W        W96897   1.400  29.571  10.951
37604W        W96898  26.672  37.547   1.339
37605W        W96899   9.684  14.819   1.359
37606W        W96900  11.158  32.010   4.649
37607W        W96901  11.244  21.587  13.808
37608W        W96902  44.826   8.369   4.641
37609W        W96903  14.744  29.624  13.535
37610W        W96904  17.232   7.320   2.873
37611W        W96905  35.066   1.785   4.136
37612W        W96906   3.783  14.604   0.427
37613W        W96907  43.910   6.917   3.207
37614W        W96908  44.400  21.700  11.468
37615W        W96909   0.873  41.443   2.180
37616W        W96910  44.364  32.609  11.568
37617W        W96911  27.041   6.852   0.278
37618W        W96912  16.264  35.892   5.205
37619W        W96913  26.951  21.671   2.363
37620W        W96914  25.624  25.491  11.447
37621W        W96915  12.125  33.935   0.479
37622W        W96916  40.344   2.727   5.607
37623W        W96917  10.728  40.854  10.508
37624W        W96918  39.009  26.694   4.657
37625W        W96919   5.844  40.923   0.730
37626W        W96920  26.504  27.470   1.844
37627W        W96921   8.356  17.730  14.897
37628W        W96922  22.076  36.867   4.351
37629W        W96923  23.046  14.102   1.805
37630W        W96924   5.269  23.575   1.396
37631W        W96925  32.499  38.974  10.908
37632W        W96926   0.981  27.673  12.923
37633W        W96927   3.844  22.069   1.854
37634W        W96928  44.869  31.547  12.547
37635W        W96929  19.630   7.202  12.372
37636W        W96930  14.297   7.812  12.354
37637W        W96931  25.008  11.631  13.850
37638W        W96932  20.066   5.330  10.419
37639W        W96933  20.238  16.074   3.732
37640W        W96934  13.648  20.198   0.853
37641W        W96935  38.846  35.463   0.263
37642W        W96936  28.531  11.705  11.387
37643W        W96937   4.870  32.539  13.973
37644W        W96938  38.397  17.248  10.585
37645W        W96939   7.794  35.999   2.888
37646W        W96940  36.899   9.801   4.832
37647W        W96941  15.727  14.659  13.042
37648W        W96942  36.378  27.059  10.480
37649W        W96943  22.540  21.118  10.018
37650W        W96944   2.398   0.820   1.327
37651W        W96945  33.992  33.482   1.847
37652W        W96946  23.204  15.581  13.858
37653W        W96947  11.284  25.556   4.137
37654W        W96948  32.000  11.275  12.440
37655W        W96949  30.938   0.847  11.600
37656W        W96950  44.951  11.149  13.867
37657W        W96951  24.035  25.602  14.326
37658W        W96952  24.991  20.729   1.886
37659W        W96953  12.816   1.882   4.163
37660W        W96954  32.111  26.624   2.731
37661W        W96955  35.981  28.082   4.339
37662W        W96956  16.611  18.720   3.277
37663W        W96957  10.729  30.634  12.502
37664W        W96958   9.778  10.352  14.507
37665W        W96959  18.684  34.046   1.253
37666W        W96960  12.808  22.623   3.798
37667W        W96961  12.297  27.532  13.981
37668W        W96962  33.463   4.743   2.827
37669W        W96963  14.145  14.637  12.030
37670W        W96964  19.108  22.124   3.735
37671W        W96965   8.655  22.713   1.267
37672W        W96966  30.943  14.735   4.225
37673W        W96967   2.250  12.310  12.513
37674W        W96968   9.297  21.093   4.723
37675W        W96969  17.588  43.942   1.275
37676W        W96970  27.624  44.766  13.313
37677W        W96971  42.487  22.632   3.200
37678W        W96972  41.479  33.407   3.196
37679W        W96973  21.692  21.090  13.979
37680W        W96974   3.444  32.584  10.433
37681W        W96975  11.798   3.414   2.301
37682W        W96976  35.483  37.855   3.779
37683W        W96977  13.680   8.900  10.444
37684W        W96978  11.233   3.250  12.407
37685W        W96979  44.401  33.131   2.870
37686W        W96980  28.023  44.384  14.025
37687W        W96981  37.555   5.919  10.968
37688W        W96982   3.716  28.457   1.223
37689W        W96983  37.030  35.878  11.962
37690W        W96984  37.929  14.830   2.227
37691W        W96985   7.829  14.191  13.847
37692W        W96986  23.490  39.833  13.867
37693W        W96987  35.944  13.108  10.995
37694W        W96988  38.021  34.995  10.539
37695W        W96989  23.192  30.534  14.928
37696W        W96990   8.263  22.564  12.905
37697W        W96991  25.175   5.310   4.689
37698W        W96992   5.814   1.919   3.259
37699W        W96993  29.027  44.823   3.234
37700W        W96994   6.268  39.817  14.332
37701W        W96995  31.898  43.418   2.835
37702W        W96996   6.195  30.064   2.757
37703W        W96997  44.301  24.579  11.982
37704W        W96998  16.566  20.641   1.295
37705W        W96999  25.592  12.824   1.747
37706W        W97000  26.128  30.012  14.946
37707W        W97001  31.615  12.653   4.617
37708W        W97002   2.895  34.372   0.742
37709W        W97003  14.804  22.680   2.252
37710W        W97004  41.934  14.735  10.519
37711W        W97005  19.042  19.138   4.171
37712W        W97006  34.975  41.870   3.785
37713W        W97007  32.081  19.044   1.813
37714W        W97008  11.673  33.518  14.032
37715W        W97009  21.254  22.194  10.139
37716W        W97010  27.072  44.391  13.331
37717W        W97011   7.344   0.287  12.507
37718W        W97012  29.473  25.546   3.259
37719W        W97013  29.143   4.335   4.138
37720W        W97014   1.734  35.538  11.951
37721W        W97015  32.561   2.424  11.891
37722W        W97016   9.739  33.930  10.991
37723W        W97017  39.553  19.625   1.358
37724W        W97018  34.462  42.775  13.936
37725W        W97019  42.481  38.432  11.044
37726W        W97020  10.768  11.337  14.336
37727W        W97021  26.989   9.862   5.173
37728W        W97022  29.994  43.452   5.771
37729W        W97023  23.154  10.640   1.797
37730W        W97024   0.915  28.038   3.277
37731W        W97025  30.080   6.245   3.707
37732W        W97026  39.485  37.577  14.959
37733W        W97027  21.204  38.473   2.358
37734W        W97028  35.449  14.716  14.476
37735W        W97029  32.952  14.324   3.804
37736W        W97030   1.832  12.757  14.336
37737W        W97031  30.425  29.490  12.446
37738W        W97032  34.051  23.713  14.914
37739W        W97033  41.030  15.735  13.429
37740W        W97034   3.345  43.489   4.272
37741W        W97035  42.800  32.140   5.127
37742W        W97036  34.419   1.940   1.858
37743W        W97037   4.305  24.624   4.607
37744W        W97038  10.277  22.561  13.352
37745W        W97039  12.198  22.601  12.039
37746W        W97040   4.300  28.619   0.912
37747W        W97041  44.784  29.157  14.305
37748W        W97042  42.438  41.018   0.348
37749W        W97043  32.065  25.996  11.025
37750W        W97044  26.639   3.455  11.435
37751W        W97045  24.575   1.242   3.324
37752W        W97046  16.177   1.275  13.981
37753W        W97047  17.777  26.146   3.288
37754W        W97048   8.683  34.863  14.834
37755W        W97049  39.313  33.122   3.287
37756W        W97050  15.322  17.715   1.716
37757W        W97051  23.189   4.333   2.188
37758W        W97052  17.700  25.515   0.832
37759W        W97053  44.898  13.674  11.522
37760W        W97054  12.612  12.220  10.520
37761W        W97055  34.373  25.536  12.931
37762W        W97056  13.239   6.210  10.929
37763W        W97057  22.642  24.197  14.758
37764W        W97058  38.358  16.729  13.861
37765W        W97059  21.519   7.346  12.042
37766W        W97060  24.205   1.859  14.013
37767W        W97061  32.995  29.065  13.966
37768W        W97062  11.715  14.617  11.886
37769W        W97063   8.759  44.427  14.949
37770W        W97064   6.387  24.006  13.857
37771W        W97065  14.626   5.225  13.843
37772W        W97066  31.974  33.984  12.854
37773W        W97067  28.953  36.550  14.029
37774W        W97068  21.523  36.491  10.432
37775W        W97069  11.271   0.906  11.583
37776W        W97070  17.632  37.391   0.947
37777W        W97071   1.461  28.955  10.596
37778W        W97072   1.915  16.251   2.314
37779W        W97073   0.493  13.764  11.474
37780W        W97074  31.962  36.457  12.865
37781W        W97075  10.784  30.089  10.578
37782W        W97076  25.491  29.146  13.907
37783W        W97077   5.237  22.703  14.898
37784W        W97078  38.061  37.969  13.837
37785W        W97079  22.128  28.531   2.865
37786W        W97080  38.566   2.942   4.793
37787W        W97081  13.267  10.709  13.802
37788W        W97082   2.436   5.374  11.387
37789W        W97083  20.607   0.252   2.805
37790W        W97084   6.339  23.112   5.652
37791W        W97085  38.571   2.385  11.968
37792W        W97086  34.989  39.383  14.900
37793W        W97087  12.277  30.418   3.824
37794W        W97088  24.973  21.569   1.409
37795W        W97089  36.459  25.210   3.773
37796W        W97090  14.213  38.893   4.165
37797W        W97091  11.821  24.226  12.866
37798W        W97092   0.953  19.696   5.270
37799W        W97093   6.693  23.034   2.774
37800W        W97094   1.394  17.148   4.333
37801W        W97095  21.097   9.350   3.832
37802W        W97096  38.390  12.610  13.912
37803W        W97097  42.403   8.174  13.487
37804W        W97098  41.948  15.611   2.898
37805W        W97099   6.321  36.368  12.940
37806W        W97100  12.673   6.417   0.360
37807W        W97101  32.414  24.187   1.220
37808W        W97102  12.812  22.674  10.616
37809W        W97103  43.454   6.202   3.763
37810W        W97104  25.484   4.307  13.846
37811W        W97105   1.938   3.259   2.358
37812W        W97106  30.554  37.522   2.360
37813W        W97107  33.056  43.822   3.794
37814W        W97108  34.988  40.395  10.938
37815W        W97109  42.520  41.307   2.704
37816W        W97110  21.147  39.464  11.446
37817W        W97111   8.836   1.881   4.757
37818W        W97112  42.808  10.195   1.326
37819W        W97113   4.246  20.667  12.877
37820W        W97114  19.617  19.088   3.700
37821W        W97115   0.823  35.903   0.455
37822W        W97116  11.757   5.929  12.008
37823W        W97117  30.617  34.455   3.857
37824W        W97118  32.422  13.742  14.513
37825W        W97119  26.534  32.021   2.353
37826W        W97120   7.247   9.699  12.453
37827W        W97121  25.024  35.477   2.340
37828W        W97122  41.018  40.005   3.792
37829W        W97123   5.716  24.662   9.553
37830W        W97124  39.440  29.127   0.286
37831W        W97125   3.730   7.725  10.982
37832W        W97126   1.740   8.795   4.698
37833W        W97127  21.220  44.392  10.479
37834W        W97128  35.583  31.997  12.465
37835W        W97129  16.809  27.053   2.813
37836W        W97130  32.555   9.653  13.975
37837W        W97131   5.744  35.511   0.820
37838W        W97132   3.409   7.832   4.188
37839W        W97133  12.137  26.017   0.779
37840W        W97134  29.119  43.816  10.482
37841W        W97135   6.773  33.416   1.838
37842W        W97136   4.799  39.947  12.827
37843W        W97137  10.141  34.550  10.502
37844W        W97138  43.272  28.139  10.000
37845W        W97139  24.674  27.946  11.995
37846W        W97140  38.022  10.322  12.856
37847W        W97141  43.410  40.493  10.578
37848W        W97142   4.394  37.891  10.987
37849W        W97143   2.254  43.357  14.412
37850W        W97144   2.261  21.047   5.109
37851W        W97145   3.407  16.658   0.890
37852W        W97146  29.001  20.702   2.673
37853W        W97147  26.117   2.802  14.381
37854W        W97148  41.418  20.754  11.571
37855W        W97149  11.218  14.602  14.937
37856W        W97150  32.029  16.612  14.493
37857W        W97151  33.913  39.455   3.252
37858W        W97152  36.959  28.513  11.859
37859W        W97153  32.099   3.428   2.854
37860W        W97154  35.367   9.301  11.071
37861W        W97155  12.354  11.227   0.373
37862W        W97156  37.850  20.075   4.131
37863W        W97157  19.105  43.482   0.462
37864W        W97158  30.090  19.774   1.267
37865W        W97159  10.254   4.241  14.499
37866W        W97160  43.513  28.031  13.405
37867W        W97161  18.239  23.194   3.304
37868W        W97162   3.451  12.201   0.269
37869W        W97163  26.623  39.005   1.703
37870W        W97164  32.468  29.443  10.594
37871W        W97165   1.316  25.081  14.993
37872W        W97166  22.152  30.445  13.423
37873W        W97167  40.391  21.629  13.443
37874W        W97168  29.108   5.292   0.841
37875W        W97169  17.062   1.826   0.865
37876W        W97170   8.865  23.521   2.354
37877W        W97171  18.138  37.468  12.859
37878W        W97172  25.154   8.340  13.907
37879W        W97173  37.068  33.903  14.456
37880W        W97174  18.733  35.422  13.340
37881W        W97175  40.332  33.057  11.498
37882W        W97176   3.323  22.105   3.786
37883W        W97177   8.364  26.030   2.282
37884W        W97178  12.780  43.904  15.000
37885W        W97179  21.222  25.533   2.832
37886W        W97180   3.730  22.195   9.533
37887W        W97181   1.888  32.597   0.315
37888W        W97182   5.691  31.081  13.925
37889W        W97183  40.856  12.261   0.347
37890W        W97184   5.757  21.241  12.090
37891W        W97185  34.590   7.392  13.488
37892W        W97186  17.792  24.480  11.543
37893W        W97187  30.056   5.217  14.397
37894W        W97188  27.994   0.295   3.739
37895W        W97189  15.214   8.280   4.143
37896W        W97190  22.638   2.436  13.419
37897W        W97191  42.304  44.286   2.810
37898W        W97192   9.272   8.703  10.074
37899W        W97193  13.126  43.276  13.364
37900W        W97194  25.664  27.147   3.771
37901W        W97195   7.892  39.977  14.321
37902W        W97196   9.230  30.087  11.119
37903W        W97197  24.564  31.512  12.486
37904W        W97198   8.886  28.584   1.713
37905W        W97199  19.695  40.390   1.420
37906W        W97200  22.058  27.098   4.187
37907W        W97201   3.300   2.855  14.363
37908W        W97202  37.898  41.469  13.328
37909W        W97203   3.248  10.323  13.491
37910W        W97204  12.190  28.096   4.244
37911W        W97205  34.471  18.742  10.544
37912W        W97206  24.693  43.432   0.303
37913W        W97207  12.118  13.722   3.322
37914W        W97208  38.389  25.508   3.638
37915W        W97209  15.274  17.188   3.840
37916W        W97210   8.345  10.725  10.982
37917W        W97211  40.813   3.395   2.737
37918W        W97212  35.051   8.395  12.025
37919W        W97213   2.824   5.225   1.733
37920W        W97214  29.532  25.198   5.168
37921W        W97215  40.378   8.676   3.310
37922W        W97216   8.694   7.902   4.793
37923W        W97217  44.942  27.001   1.702
37924W        W97218  44.333   3.953  11.072
37925W        W97219  11.131  32.563  13.050
37926W        W97220  11.210  43.515  11.528
37927W        W97221  16.689  15.271  12.923
37928W        W97222  13.696  33.043  12.034
37929W        W97223  19.595  24.557  11.560
37930W        W97224   7.208   6.748   0.911
37931W        W97225  41.786  32.497   3.174
37932W        W97226   5.284  27.507   4.610
37933W        W97227   2.424  42.458  10.606
37934W        W97228  32.089  38.478  13.340
37935W        W97229   2.470  11.154   2.229
37936W        W97230  24.004  19.151   0.444
37937W        W97231  27.451  22.106   3.274
37938W        W97232   8.206   2.740   4.121
37939W        W97233  40.920  14.613   0.460
37940W        W97234  37.459  40.528   3.798
37941W        W97235   8.241   4.251   3.702
37942W        W97236  14.199  24.501  13.523
37943W        W97237   0.784  35.358  11.977
37944W        W97238  31.486  29.164   1.706
37945W        W97239  41.804  30.071   1.268
37946W        W97240  35.874  39.956  12.388
37947W        W97241  15.738   1.888  10.097
37948W        W97242   7.677   4.726   3.234
37949W        W97243  40.446  25.560   3.813
37950W        W97244  41.504  19.589  11.506
37951W        W97245   9.834  21.755   0.868
37952W        W97246  15.175  35.996   0.305
37953W        W97247   1.304  10.673   2.241
37954W        W97248  35.399  28.449  11.567
37955W        W97249  29.524  13.656  11.957
37956W        W97250   6.739  19.261   4.676
37957W        W97251  21.654  29.573  10.635
37958W        W97252  15.326  22.242   2.179
37959W        W97253  37.452  21.640  12.878
37960W        W97254  22.108   0.284  10.445
37961W        W97255  12.705  40.464   1.320
37962W        W97256  32.571  16.770  13.481
37963W        W97257  29.952  21.635   1.878
37964W        W97258  25.602  38.326  12.414
37965W        W97259  17.077  14.133   4.176
37966W        W97260  35.086  22.696   0.472
37967W        W97261  44.404  13.342   2.841
37968W        W97262  21.694  33.434   4.772
37969W        W97263   0.933  40.442   2.375
37970W        W97264  33.991   9.726   0.829
37971W        W97265  34.382   1.240   0.735
37972W        W97266   7.695  38.819   0.376
37973W        W97267  22.219  41.945   2.722
37974W        W97268  11.752   0.416   3.683
37975W        W97269  15.630  22.554  14.981
37976W        W97270  44.923   3.297   4.609
37977W        W97271  36.506   2.835   0.790
37978W        W97272  27.008  26.018   3.686
37979W        W97273   2.882   2.254   1.926
37980W        W97274  31.930  38.376   2.248
37981W        W97275  38.049  24.645  11.609
37982W        W97276  21.641   2.928   0.819
37983W        W97277   6.819  24.183  13.887
37984W        W97278   7.828  25.091   3.155
37985W        W97279  39.808  22.112   3.303
37986W        W97280  37.877  28.040  13.053
37987W        W97281   4.251  17.707  12.413
37988W        W97282   7.322  18.091   0.349
37989W        W97283   4.726  44.992   4.730
37990W        W97284   6.688  21.637  11.912
37991W        W97285   1.369  43.771   1.767
37992W        W97286  40.412  11.635  10.408
37993W        W97287  31.632   0.433   2.841
37994W        W97288  18.782  44.413   1.355
37995W        W97289  41.813  38.828  13.452
37996W        W97290  17.689  38.354   3.818
37997W        W97291   7.192  27.599   1.323
37998W        W97292  22.175  21.262   2.785
37999W        W97293  40.524  34.990   2.743
38000W        W97294  42.282  32.913   4.246
38001W        W97295  34.469   1.445  12.551
38002W        W97296  16.239   4.318   1.301
38003W        W97297  40.865   1.338   0.756
38004W        W97298  14.157   3.883   1.736
38005W        W97299   0.971  23.663  14.349
38006W        W97300  40.507  35.922   3.859
38007W        W97301  15.684  39.526  10.941
38008W        W97302  22.036  16.274   2.769
38009W        W97303  31.581   1.425   4.752
38010W        W97304  27.021  26.575   0.782
38011W        W97305  11.858   9.807   3.693
38012W        W97306  11.336  36.368   1.792
38013W        W97307   9.875  19.614   2.242
38014W        W97308  24.488   0.842  13.812
38015W        W97309  22.701  11.663  13.477
38016W        W97310  20.688  34.524   2.667
38017W        W97311  41.976  43.976   1.367
38018W        W97312  23.163   4.745   3.716
38019W        W97313   9.278  19.725  13.034
38020W        W97314  32.552   4.409   4.778
38021W        W97315  33.532  13.734   3.638
38022W        W97316  21.551  32.031  13.941
38023W        W97317  44.293  20.608  14.939
38024W        W97318  33.917  37.575   0.368
38025W        W97319  11.790  42.000   4.187
38026W        W97320  38.911  25.708  10.978
38027W        W97321  41.004  37.953  11.005
38028W        W97322  14.691  17.251   2.695
38029W        W97323  39.837  24.988   3.633
38030W        W97324  17.601  41.343   4.175
38031W        W97325  31.604   3.232  11.072
38032W        W97326  16.284  29.546   3.864
38033W        W97327  15.727  24.660  11.557
38034W        W97328  18.620   0.252   3.310
38035W        W97329  23.237   3.426   0.885
38036W        W97330  41.400  44.915   0.852
38037W        W97331  27.046  29.124   3.830
38038W        W97332  28.491   9.699  13.370
38039W        W97333  26.492  30.624   3.634
38040W        W97334   8.261   5.314  14.359
38041W        W97335  22.066  40.878   1.321
38042W        W97336  24.699  24.653   0.321
38043W        W97337  20.145  24.641   2.367
38044W        W97338  30.519  16.253  11.949
38045W        W97339  30.058  19.066   3.755
38046W        W97340  11.830  12.632   4.708
38047W        W97341   1.428   6.813  12.942
38048W        W97342  41.815  30.096   2.413
38049W        W97343   6.275  42.507  13.390
38050W        W97344  38.020  17.692   1.796
38051W        W97345  35.988  32.932   3.382
38052W        W97346   9.390   3.946   2.840
38053W        W97347  38.979   4.802  11.046
38054W        W97348  11.347  23.146  14.829
38055W        W97349  42.914  29.647  11.494
38056W        W97350   5.438  14.222  12.055
38057W        W97351   1.750  25.112   3.858
38058W        W97352  11.792  15.197   1.717
38059W        W97353  32.107   4.886  12.525
38060W        W97354  20.162  44.847  14.339
38061W        W97355  39.316  21.257  14.457
38062W        W97356  18.737  41.481   1.422
38063W        W97357  42.832   5.306   4.604
38064W        W97358  34.941  22.227   4.640
38065W        W97359  17.267  13.143   9.940
38066W        W97360  42.809  29.627   0.317
38067W        W97361  27.137   3.768   0.289
38068W        W97362  16.133  33.574  11.102
38069W        W97363   3.936  44.307   2.678
38070W        W97364  37.873  10.704   0.459
38071W        W97365  37.083   5.827  13.514
38072W        W97366  29.547  44.860  11.592
38073W        W97367   9.785   8.846   1.901
38074W        W97368  38.420  16.119   4.604
38075W        W97369   0.769  37.524  11.860
38076W        W97370  37.531  27.081   2.238
38077W        W97371   5.915   4.445   4.231
38078W        W97372  14.703   5.256   1.359
38079W        W97373  31.459  38.442   0.875
38080W        W97374   2.381  16.600   3.836
38081W        W97375   9.209  30.623  12.953
38082W        W97376  44.297  15.673  12.551
38083W        W97377   1.786  18.053   1.437
38084W        W97378  33.379  30.530  12.439
38085W        W97379   0.765  23.556   3.361
38086W        W97380  44.398  29.976  14.320
38087W        W97381  42.442  38.542   3.303
38088W        W97382  31.475  32.104   0.277
38089W        W97383   8.780  35.384   4.330
38090W        W97384   9.773   4.449   3.158
38091W        W97385  16.720  41.439  11.532
38092W        W97386  41.452  39.474   2.279
38093W        W97387  25.040   4.938   3.631
38094W        W97388  14.684  10.139  10.423
38095W        W97389  17.258   7.288   4.754
38096W        W97390  14.655  15.621  13.531
38097W        W97391  10.767  28.633   2.814
38098W        W97392  41.361   5.786   3.820
38099W        W97393   3.718  30.950  11.491
38100W        W97394   0.279  24.641   3.795
38101W        W97395  24.172  33.928  14.818
38102W        W97396  37.357  34.427   3.242
38103W        W97397  40.524  12.715   1.355
38104W        W97398  38.483  16.621  11.064
38105W        W97399  12.855  23.501  13.061
38106W        W97400   9.761  28.000  14.921
38107W        W97401  40.963  10.775   1.915
38108W        W97402  21.225   6.702   0.386
38109W        W97403   1.802  32.126   2.363
38110W        W97404  12.133  29.611  12.421
38111W        W97405  19.168  20.260  13.008
38112W        W97406   8.189  35.509  14.907
38113W        W97407  16.299  17.095  14.868
38114W        W97408  15.200  30.959   0.299
38115W        W97409  39.539  22.048  10.540
38116W        W97410  30.923  29.147   5.091
38117W        W97411  30.999  21.577  14.943
38118W        W97412  19.554   2.955   3.160
38119W        W97413  29.987   6.724  14.909
38120W        W97414  24.654   0.974   1.902
38121W        W97415  25.708  37.832  13.827
38122W        W97416  15.673  39.963   1.921
38123W        W97417  27.017  29.541   0.880
38124W        W97418  19.778  19.204   1.234
38125W        W97419  34.009  28.096   4.777
38126W        W97420  38.336  33.093   3.211
38127W        W97421  23.201  20.246   1.352
38128W        W97422   9.745  16.736   0.468
38129W        W97423  25.004  30.164   1.352
38130W        W97424  30.908   1.472   1.373
38131W        W97425  22.599  40.544  10.927
38132W        W97426  28.004  38.941   1.290
38133W        W97427  27.565   7.706  11.869
38134W        W97428  32.004   5.382  13.416
38135W        W97429  17.068   4.825   0.369
38136W        W97430  10.329  10.796   2.238
38137W        W97431  21.146   0.799   0.805
38138W        W97432  35.478   2.358   2.207
38139W        W97433  19.668  28.678   0.804
38140W        W97434   4.314  39.906  10.486
38141W        W97435  22.672  13.304  11.962
38142W        W97436   3.918  27.590  12.429
38143W        W97437  42.945  40.340   3.726
38144W        W97438  38.368  37.381  14.307
38145W        W97439   2.850  40.894  14.339
38146W        W97440   4.930  17.705  14.450
38147W        W97441  33.569  30.987   2.773
38148W        W97442  23.603  23.697   4.275
38149W        W97443  22.664  43.804   2.673
38150W        W97444  35.571  41.865   4.354
38151W        W97445  24.656  31.427  13.408
38152W        W97446  21.512  32.910  14.001
38153W        W97447  20.191  21.708   4.352
38154W        W97448  42.011   2.967  11.457
38155W        W97449  10.374  43.279  13.898
38156W        W97450   7.859  26.059   1.829
38157W        W97451  21.742   9.697  14.766
38158W        W97452   5.407   2.332   2.280
38159W        W97453  43.443  23.104   0.888
38160W        W97454  28.672   3.934  12.531
38161W        W97455  31.970  33.103  10.145
38162W        W97456   3.807  28.176  12.516
38163W        W97457  38.961  23.498  12.896
38164W        W97458  15.277   3.787   1.827
38165W        W97459  14.112  37.516  13.308
38166W        W97460  41.793  44.999   0.748
38167W        W97461  30.070  33.612   0.266
38168W        W97462  43.833  10.862  11.089
38169W        W97463   8.793  41.500  11.890
38170W        W97464  22.643  37.926   4.798
38171W        W97465  44.804   5.848  14.843
38172W        W97466  25.682  21.560   0.742
38173W        W97467   5.846  33.098   1.350
38174W        W97468   8.165  10.879  12.448
38175W        W97469  28.570   8.769  12.833
38176W        W97470  15.121  22.570  11.397
38177W        W97471  25.520  42.391   3.248
38178W        W97472  28.972   8.392   2.832
38179W        W97473  36.038  15.737  11.121
38180W        W97474  12.330  33.986   0.842
38181W        W97475  20.593  19.171   1.902
38182W        W97476   4.239  28.578  10.558
38183W        W97477  33.476  25.520   4.312
38184W        W97478   6.279   8.249   3.179
38185W        W97479  21.195  26.089  11.516
38186W        W97480  30.104  11.210  10.924
38187W        W97481  38.956  44.427   4.135
38188W        W97482  12.157  33.467  10.525
38189W        W97483  33.949  27.516  13.855
38190W        W97484  26.172  13.241   4.190
38191W        W97485  33.987   8.879  14.830
38192W        W97486  35.075  40.403   2.280
38193W        W97487  33.095  44.836   2.744
38194W        W97488  15.777  14.246  10.509
38195W        W97489   9.244  30.490   0.919
38196W        W97490  38.403  39.897   2.756
38197W        W97491  11.149  12.855  14.443
38198W        W97492  41.517  37.920   2.762
38199W        W97493  36.496  27.490   0.925
38200W        W97494  34.066   2.828  12.041
38201W        W97495  23.102  29.142  14.480
38202W        W97496  23.704  15.747  11.432
38203W        W97497  40.030   2.871   3.302
38204W        W97498  16.245  44.365  11.955
38205W        W97499  29.445   2.964  12.559
38206W        W97500  16.754  10.175  14.888
38207W        W97501  33.409  40.493   1.699
38208W        W97502  10.193   6.260  13.035
38209W        W97503   3.741  32.053   3.718
38210W        W97504  35.058   1.449  10.937
38211W        W97505   3.844   3.818   0.432
38212W        W97506   6.782  35.371  13.939
38213W        W97507  33.018  33.118  12.880
38214W        W97508  11.653  14.610   3.772
38215W        W97509  17.174  12.124   2.385
38216W        W97510   1.943  40.470   3.737
38217W        W97511  11.821  29.041  11.069
38218W        W97512  20.129  39.329  14.839
38219W        W97513  40.797  35.091   2.182
38220W        W97514  41.908   7.857   4.810
38221W        W97515  33.995  38.986   4.651
38222W        W97516   3.734   4.384  14.392
38223W        W97517  42.993  23.152  12.932
38224W        W97518  41.385  44.332   4.836
38225W        W97519   4.383  33.078   1.443
38226W        W97520   9.740  36.469  12.532
38227W        W97521  35.022  40.819   4.125
38228W        W97522  22.160  24.677  14.806
38229W        W97523  14.826  23.132  13.010
38230W        W97524  43.911   4.710  11.393
38231W        W97525  23.235  29.521   4.163
38232W        W97526  33.933  35.452  13.408
38233W        W97527   4.425  19.741  14.441
38234W        W97528   3.717  32.621  11.547
38235W        W97529  28.095  28.047  12.041
38236W        W97530  41.848  20.570  12.005
38237W        W97531  30.951  26.498  14.490
38238W        W97532  18.165  36.989   0.854
38239W        W97533   5.388   9.210   4.209
38240W        W97534  43.454   5.700  14.280
38241W        W97535   7.247  44.984   3.630
38242W        W97536  44.843  14.610  13.010
38243W        W97537  32.444  16.772   4.826
38244W        W97538   1.793  10.649   2.743
38245W        W97539  26.983  38.851  11.040
38246W        W97540  18.705  38.914  11.601
38247W        W97541  40.487  42.445   0.410
38248W        W97542  39.552  23.066  14.794
38249W        W97543  29.106  44.283  11.417
38250W        W97544  12.735  33.582   2.759
38251W        W97545   7.314  27.170  11.587
38252W        W97546  29.940  16.094   1.422
38253W        W97547   8.864  38.963  11.511
38254W        W97548  44.834  20.672   1.241
38255W        W97549  27.610  15.303   1.393
38256W        W97550   1.293   4.350  13.535
38257W        W97551  29.979   3.785  10.480
38258W        W97552   7.901  18.149  11.554
38259W        W97553  16.318  14.698   0.905
38260W        W97554  42.458  43.869   4.294
38261W        W97555  18.205  32.045   1.212
38262W        W97556  22.047  42.908  11.389
38263W        W97557  23.496  18.790  11.440
38264W        W97558  13.339  34.561   2.235
38265W        W97559  20.114  37.934   4.797
38266W        W97560  44.943  40.490  13.838
38267W        W97561  10.202  34.049  12.895
38268W        W97562  38.510   8.830   1.764
38269W        W97563   8.883   1.288  10.000
38270W        W97564  27.986  11.191   4.295
38271W        W97565  25.108  32.997  11.440
38272W        W97566  11.646  25.087   0.965
38273W        W97567  23.169  37.498   1.432
38274W        W97568  24.086   7.714  13.037
38275W        W97569  28.043  24.136  14.286
38276W        W97570  30.999  29.628   4.295
38277W        W97571  19.659  42.815  14.373
38278W        W97572   6.238  36.489  12.531
38279W        W97573  27.124   5.397   3.188
38280W        W97574  14.808  22.103  11.580
38281W        W97575   8.214  38.341   1.726
38282W        W97576  42.829  25.090  10.061
38283W        W97577  39.377  20.647   4.767
38284W        W97578  42.026  25.028  13.540
38285W        W97579  13.278  39.030   2.739
38286W        W97580   1.350  32.577   4.685
38287W        W97581  25.668  15.281  13.517
38288W        W97582  20.161  40.891   0.378
38289W        W97583  30.038  12.643   1.235
38290W        W97584  23.144  16.190   4.226
38291W        W97585  43.770  23.552   0.873
38292W        W97586  15.262  25.538   0.306
38293W        W97587  40.320  39.504  12.394
38294W        W97588  26.527  33.030   1.277
38295W        W97589  14.751  21.668   1.246
38296W        W97590  44.870  26.523   0.810
38297W        W97591  23.549   8.697  12.513
38298W        W97592  14.641  14.683  12.471
38299W        W97593   1.893   1.875  12.867
38300W        W97594   2.342  42.484  14.972
38301W        W97595  30.465  26.690   1.807
38302W        W97596  14.103  18.687   2.730
38303W        W97597  29.947   8.389   2.356
38304W        W97598  11.316  10.636   3.185
38305W        W97599  19.707  18.258  12.532
38306W        W97600  21.638  29.963  13.408
38307W        W97601  21.138  28.461   4.621
38308W        W97602  18.733  31.966  12.088
38309W        W97603  27.575   6.754  14.834
38310W        W97604   1.368   9.248   1.824
38311W        W97605  21.224   1.879  13.476
38312W        W97606  22.651   7.296  11.508
38313W        W97607  15.127  22.133  10.524
38314W        W97608  39.029   5.782   0.438
38315W        W97609  31.511  35.860  12.088
38316W        W97610   2.721  39.527  12.958
38317W        W97611  42.874  22.678   0.848
38318W        W97612  30.145   5.279  11.114
38319W        W97613   2.405   8.750  12.561
38320W        W97614  24.665  25.977   1.868
38321W        W97615  24.190   3.321  10.444
38322W        W97616  28.960  20.250   3.286
38323W        W97617  24.227   7.839  13.437
38324W        W97618  38.844  19.699   4.236
38325W        W97619  28.994  25.094   1.857
38326W        W97620  26.033  37.862   1.362
38327W        W97621  23.599  43.861  14.905
38328W        W97622   5.369  33.938  13.392
38329W        W97623  34.070   1.913   4.762
38330W        W97624  21.587   2.295  12.884
38331W        W97625  38.511  27.519   1.870
38332W        W97626  18.202  20.707   2.316
38333W        W97627  10.246   7.273   1.356
38334W        W97628  30.067   9.324  14.960
38335W        W97629  39.434  23.011   2.323
38336W        W97630  35.968  30.614  11.054
38337W        W97631  42.403  25.681  11.402
38338W        W97632  38.480  43.013  10.611
38339W        W97633  26.641  25.676   1.853
38340W        W97634  33.425  14.276   4.638
38341W        W97635  34.089  34.492  12.925
38342W        W97636  34.939  33.080   2.346
38343W        W97637   5.288  43.972  13.423
38344W        W97638  23.718   7.412   0.315
38345W        W97639  37.558   3.773   4.279
38346W        W97640  24.001  18.191  14.341
38347W        W97641  17.708  40.984  11.389
38348W        W97642   9.306  17.557  13.919
38349W        W97643  19.704  11.643  12.464
38350W        W97644  21.518  17.630  11.011
38351W        W97645   9.825   3.341   2.288
38352W        W97646  18.750  22.529  14.976
38353W        W97647  17.739  28.650  14.461
38354W        W97648  36.974   0.268   0.757
38355W        W97649  19.157   2.856  12.934
38356W        W97650  16.586   8.203   1.764
38357W        W97651  14.725  38.874   5.173
38358W        W97652  10.759  23.657  12.003
38359W        W97653  29.024  30.031   4.219
38360W        W97654  25.518  37.369   5.125
38361W        W97655  30.514  38.493   0.345
38362W        W97656  20.176  12.196  14.367
38363W        W97657   6.302   0.444  11.880
38364W        W97658   1.951   2.300  14.470
38365W        W97659  20.533  18.258   0.264
38366W        W97660  37.848  38.045  11.416
38367W        W97661  18.605  37.519  14.963
38368W        W97662  26.028   5.713   4.688
38369W        W97663  33.437  28.495  11.548
38370W        W97664  24.980  34.556   4.832
38371W        W97665   5.776  44.790  14.416
38372W        W97666  13.612  12.295   2.300
38373W        W97667   7.317  44.337  14.874
38374W        W97668  27.080  38.418   0.750
38375W        W97669  25.659  15.643   0.764
38376W        W97670  27.460  10.254   1.914
38377W        W97671  34.372  17.633   1.234
38378W        W97672  17.588  31.137  11.417
38379W        W97673  29.513  13.676   1.341
38380W        W97674   9.369   2.341   3.651
38381W        W97675  44.428  39.834   1.850
38382W        W97676  18.254  12.838   2.703
38383W        W97677  18.246   1.776   4.714
38384W        W97678  31.082   0.488   1.404
38385W        W97679  10.243  34.045   0.373
38386W        W97680  41.792   4.243   4.791
38387W        W97681  23.647  44.825  13.061
38388W        W97682  26.036   2.440   1.421
38389W        W97683  33.944  33.057  11.417
38390W        W97684  40.479  31.078  10.610
38391W        W97685  11.277  35.397  11.119
38392W        W97686  21.708  14.815  13.471
38393W        W97687   5.893  27.679  10.529
38394W        W97688  41.355  37.927   0.823
38395W        W97689  23.049  23.644   3.269
38396W        W97690  29.936   1.799  12.869
38397W        W97691   7.685  30.590  12.063
38398W        W97692  44.453  20.260  14.920
38399W        W97693   5.828  36.960   3.152
38400W        W97694  31.004   8.216  12.918
38401W        W97695  21.666  37.025   3.164
38402W        W97696  13.155   6.903  13.390
38403W        W97697   7.299  18.222  13.947
38404W        W97698  11.639  38.914   0.374
38405W        W97699  13.204  16.598  14.820
38406W        W97700  40.434  15.670   0.279
38407W        W97701   0.366   6.296   4.345
38408W        W97702  40.872  18.081   4.166
38409W        W97703  42.029  41.373  11.520
38410W        W97704   5.792  12.162  12.542
38411W        W97705  26.008  33.615   4.727
38412W        W97706  20.648  44.334   2.749
38413W        W97707  39.056  24.483   0.359
38414W        W97708  28.642  18.721   4.301
38415W        W97709  33.994  26.581   0.837
38416W        W97710   9.826  23.011   9.922
38417W        W97711  38.366   1.373   1.698
38418W        W97712  33.605  21.219  10.007
38419W        W97713   2.838  10.843   2.900
38420W        W97714  34.041  19.176  13.970
38421W        W97715  12.853  10.373   1.367
38422W        W97716  36.508  40.533   4.616
38423W        W97717  35.470  18.729   2.240
38424W        W97718  28.458  42.788  11.991
38425W        W97719  33.567  34.391  13.346
38426W        W97720  41.299  33.021  13.047
38427W        W97721  28.006   5.376   3.736
38428W        W97722  22.549   0.957   2.686
38429W        W97723  39.369   6.882  13.854
38430W        W97724  41.023  25.674   1.853
38431W        W97725   7.258  43.401   1.854
38432W        W97726  24.077  31.987   3.200
38433W        W97727   8.352  35.004   0.293
38434W        W97728  41.922  26.613  13.918
38435W        W97729  15.102  17.614  11.935
38436W        W97730  31.974  39.056  14.283
38437W        W97731  37.044  25.684   1.440
38438W        W97732  22.582  26.506   0.826
38439W        W97733  14.746   3.945  11.383
38440W        W97734  22.090   9.186   2.369
38441W        W97735  41.851  23.625   2.242
38442W        W97736  31.043   1.928  12.495
38443W        W97737  24.543  35.540  11.855
38444W        W97738  38.424  30.618   2.712
38445W        W97739  10.336   7.335  11.924
38446W        W97740  34.034  28.053   2.280
38447W        W97741  44.422  33.384   5.301
38448W        W97742  34.871  17.760  12.852
38449W        W97743  18.210  40.969   0.429
38450W        W97744   8.232  42.014  11.596
38451W        W97745  43.379   9.791   1.294
38452W        W97746  36.942  42.523   2.287
38453W        W97747   4.272  28.649  12.550
38454W        W97748  42.455  24.708   1.829
38455W        W97749   7.862  20.678  14.997
38456W        W97750   3.259  19.604   2.283
38457W        W97751  34.483   6.881   3.665
38458W        W97752  17.147  10.732  14.832
38459W        W97753  41.007  32.010   3.689
38460W        W97754  26.597  26.146  10.565
38461W        W97755   9.832   2.866  11.601
38462W        W97756  34.063  11.341   3.349
38463W        W97757   3.243  26.012   1.862
38464W        W97758  44.991  12.214   3.263
38465W        W97759  32.404  35.925  12.998
38466W        W97760  26.984  31.535   4.195
38467W        W97761  13.329  19.069  13.402
38468W        W97762  42.304  15.714  12.465
38469W        W97763  36.846  24.689   3.827
38470W        W97764  10.305  40.374  11.951
38471W        W97765   3.856   9.360  12.929
38472W        W97766  38.070  17.627  12.411
38473W        W97767  26.988  11.174   3.831
38474W        W97768  37.859  21.523   4.281
38475W        W97769  35.010  43.322  14.905
38476W        W97770  42.429   7.826  13.461
38477W        W97771  40.332   5.360  11.426
38478W        W97772  10.214  33.905  10.027
38479W        W97773   6.693   0.960   0.842
38480W        W97774   0.880  10.760  13.972
38481W        W97775  31.056  10.186  13.970
38482W        W97776  32.615  42.967   0.331
38483W        W97777  10.735   6.366   4.289
38484W        W97778  31.582  24.995   4.211
38485W        W97779  23.709  14.651   4.656
38486W        W97780  37.514  22.746  14.920
38487W        W97781  44.878  40.386   0.960
38488W        W97782  20.257  19.166  10.160
38489W        W97783   2.451   9.751  12.858
38490W        W97784  33.005  16.640   0.341
38491W        W97785   8.654  29.559  11.081
38492W        W97786  24.117  42.814   4.656
38493W        W97787  19.200  19.676  10.629
38494W        W97788  15.238   4.270   1.851
38495W        W97789  12.141  10.344  11.002
38496W        W97790   4.698  28.641  11.901
38497W        W97791  24.183  23.724   0.900
38498W        W97792  40.395  17.753   3.339
38499W        W97793  40.473  15.774  12.922
38500W        W97794   3.844  26.518  14.013
38501W        W97795  34.579  34.576  14.359
38502W        W97796  14.651  28.524   0.916
38503W        W97797   4.314  24.581   3.710
38504W        W97798  10.712  19.760   4.114
38505W        W97799   5.309  30.444   2.307
38506W        W97800   3.740  17.174  13.932
38507W        W97801  26.648   2.830   4.818
38508W        W97802  12.199  40.425   0.468
38509W        W97803  37.578   6.812   2.749
38510W        W97804  26.023  37.365  11.543
38511W        W97805  17.590  27.189   3.653
38512W        W97806  41.923  44.387  11.960
38513W        W97807  15.244   1.739  12.518
38514W        W97808  29.482  42.507  11.388
38515W        W97809  15.788  10.632   9.637
38516W        W97810  20.701  19.602  11.879
38517W        W97811   5.323  29.983  13.840
38518W        W97812  43.471  19.247  12.073
38519W        W97813  21.689  40.891  13.792
38520W        W97814  42.412   9.767   1.269
38521W        W97815  10.634  21.736  12.375
38522W        W97816   9.650  27.174  14.391
38523W        W97817  33.605  16.764   3.653
38524W        W97818  42.397  33.003  11.061
38525W        W97819  11.277  10.194   2.279
38526W        W97820  10.768  41.480  10.472
38527W        W97821   8.291  38.351  10.894
38528W        W97822  35.408  22.734  14.855
38529W        W97823  26.093   7.369  12.012
38530W        W97824  17.305  33.969  12.536
38531W        W97825  11.182  38.556  14.490
38532W        W97826  23.118  16.715   2.853
38533W        W97827  16.150  35.477   4.315
38534W        W97828  40.832  15.699   4.303
38535W        W97829  36.564  36.457   2.730
38536W        W97830  38.867  39.881  10.581
38537W        W97831  30.510  22.194   3.775
38538W        W97832  13.253   7.709   4.709
38539W        W97833  16.098  43.881  14.419
38540W        W97834   9.378  14.305   4.669
38541W        W97835  26.656  13.291   0.734
38542W        W97836   1.807  30.471  14.514
38543W        W97837   8.807   3.887  11.990
38544W        W97838  31.023  18.774  13.891
38545W        W97839  14.215   1.337   4.231
38546W        W97840  11.213   6.755   0.821
38547W        W97841  35.589  12.197   1.788
38548W        W97842  27.453  33.927   3.750
38549W        W97843  29.957  37.371   3.353
38550W        W97844  17.650  27.500  13.316
38551W        W97845  33.548  17.557  15.000
38552W        W97846  28.087   0.405   2.665
38553W        W97847  24.552  35.391  10.632
38554W        W97848  16.183   5.749   3.710
38555W        W97849  43.918  32.462   2.669
38556W        W97850  40.904  19.766   5.250
38557W        W97851  36.446  39.483  11.075
38558W        W97852  26.167   7.279   3.156
38559W        W97853  10.217  27.566  14.456
38560W        W97854  36.978   2.376   1.448
38561W        W97855  38.849  40.532   3.315
38562W        W97856   3.804  23.513  14.306
38563W        W97857  18.636  42.293   4.348
38564W        W97858  40.536  21.688   4.779
38565W        W97859  34.575   0.461  12.554
38566W        W97860   0.853  17.154  11.022
38567W        W97861  23.576   5.362   4.305
38568W        W97862  16.718  23.710   0.763
38569W        W97863   4.356  24.135   1.440
38570W        W97864  35.949  22.223   3.222
38571W        W97865  25.644  35.862  13.486
38572W        W97866  37.338  22.687   1.239
38573W        W97867   7.204  37.488   0.888
38574W        W97868  33.396  20.149   3.280
38575W        W97869  26.982  19.733   3.175
38576W        W97870  13.675  22.554  11.394
38577W        W97871  26.166  27.613   3.316
38578W        W97872  12.666  20.551   0.327
38579W        W97873  39.966  41.460   1.258
38580W        W97874  13.286  37.382   3.326
38581W        W97875   2.908  40.344  12.574
38582W        W97876   6.818   2.367   0.312
38583W        W97877  37.354   9.381   1.856
38584W        W97878  39.454   4.222   3.766
38585W        W97879  31.506   9.887  10.118
38586W        W97880  42.334  31.498  14.018
38587W        W97881  10.344  17.267  11.959
38588W        W97882  36.863  26.066  13.442
38589W        W97883  39.384  24.583  14.399
38590W        W97884  10.362  36.445   1.832
38591W        W97885  27.131   9.337   3.343
38592W        W97886   6.748  40.026  14.286
38593W        W97887  40.306   3.880  11.506
38594W        W97888  38.432  15.107   2.743
38595W        W97889  43.435  12.324  10.418
38596W        W97890  18.574  17.780   4.689
38597W        W97891   6.352  34.993  12.923
38598W        W97892  22.096  20.668  10.935
38599W        W97893   2.830  34.453  11.475
38600W        W97894  21.225  31.932   2.662
38601W        W97895  36.997   5.374  13.548
38602W        W97896   9.263  44.009   2.801
38603W        W97897  19.771  26.539  14.417
38604W        W97898  31.583  14.779   4.697
38605W        W97899  12.842   9.385  12.575
38606W        W97900   6.426  28.074   0.928
38607W        W97901  30.432  18.143   0.896
38608W        W97902  12.351  29.083  10.440
38609W        W97903   4.824   0.828  12.542
38610W        W97904  22.528  18.054   1.289
38611W        W97905  22.107  29.597   1.224
38612W        W97906  28.627   9.819  10.618
38613W        W97907  28.575  18.240  14.845
38614W        W97908  33.505  24.133  12.823
38615W        W97909   0.865  11.309  10.556
38616W        W97910   4.718   8.728   4.173
38617W        W97911  26.521  44.366  13.362
38618W        W97912   0.320  15.207   2.752
38619W        W97913   7.874   2.902  13.919
38620W        W97914  41.317  24.709   2.215
38621W        W97915  13.220  12.666  10.603
38622W        W97916  18.747  31.900   3.813
38623W        W97917  19.069   4.838   1.922
38624W        W97918  14.692  41.896  10.969
38625W        W97919   2.869  21.621  12.915
38626W        W97920   5.269  15.783  10.626
38627W        W97921  41.474   1.969   0.314
38628W        W97922   4.299  31.996  12.427
38629W        W97923  36.944   1.885   0.761
38630W        W97924  34.587  39.460   4.325
38631W        W97925  42.870   6.229   0.347
38632W        W97926  38.345  40.408   2.239
38633W        W97927  23.569  27.679   2.418
38634W        W97928  32.095   6.254   2.260
38635W        W97929  10.848  38.482   2.287
38636W        W97930  27.949  44.431  14.949
38637W        W97931  35.506   4.337  11.455
38638W        W97932   4.841   0.459   4.609
38639W        W97933  22.180   6.402  12.387
38640W        W97934  43.932  33.084  13.995
38641W        W97935  37.437  43.855   0.343
38642W        W97936  17.598  15.291   2.751
38643W        W97937  12.810   2.441  11.488
38644W        W97938  36.924  31.068  12.892
38645W        W97939  28.520  16.635   0.270
38646W        W97940  19.600  20.592   0.956
38647W        W97941  11.156  17.120   0.943
38648W        W97942  43.824   3.241   1.250
38649W        W97943  22.532   7.880   1.235
38650W        W97944  12.131   8.710   3.749
38651W        W97945  31.082  40.358   1.264
38652W        W97946  30.035  14.323   4.178
38653W        W97947  28.494  33.070   4.790
38654W        W97948   6.776  19.710   2.703
38655W        W97949  34.065   0.335   3.294
38656W        W97950  12.307  19.774  12.562
38657W        W97951   4.783   7.722   5.159
38658W        W97952  37.923  40.353  12.881
38659W        W97953  12.819  33.070   2.837
38660W        W97954  16.257  44.989   1.443
38661W        W97955  34.917  13.277  13.809
38662W        W97956  39.429   2.785  12.848
38663W        W97957  30.986  14.179  10.161
38664W        W97958  43.022  24.185   2.298
38665W        W97959  28.606  20.551   2.718
38666W        W97960  43.958  12.857   4.149
38667W        W97961   5.358  40.878   2.196
38668W        W97962  20.616   3.435  11.434
38669W        W97963  39.513  29.068  12.546
38670W        W97964   7.672  20.611  11.938
38671W        W97965  27.075  44.990   3.272
38672W        W97966  23.181  11.635  12.566
38673W        W97967   1.906  17.765   0.372
38674W        W97968   1.388  31.607   1.377
38675W        W97969  16.285  39.547   0.861
38676W        W97970   2.790   1.840  10.483
38677W        W97971  32.131   0.830   5.168
38678W        W97972  12.644  36.993  12.073
38679W        W97973  15.632   3.443  14.466
38680W        W97974   7.714  12.754   2.375
38681W        W97975  40.326  17.098  12.536
38682W        W97976  14.217  23.571   1.724
38683W        W97977  41.311  30.443  14.862
38684W        W97978  22.659  38.937  10.994
38685W        W97979   1.479  14.127   4.608
38686W        W97980  21.049  25.989  10.905
38687W        W97981  19.133  22.521  13.954
38688W        W97982  36.546  33.592  10.416
38689W        W97983   1.952  14.243   1.921
38690W        W97984  44.441  39.507  11.895
38691W        W97985  18.595  27.148  10.914
38692W        W97986  25.185  20.768  12.928
38693W        W97987  35.919   1.760  13.353
38694W        W97988  14.165  20.137  13.838
38695W        W97989   7.678  42.948   0.827
38696W        W97990  40.034  22.609   0.347
38697W        W97991  14.245  42.471   1.388
38698W        W97992  40.988  23.697   3.776
38699W        W97993  12.220  17.793   1.872
38700W        W97994  31.473  33.920  10.900
38701W        W97995  33.019  23.619  10.983
38702W        W97996  33.402  30.592   2.198
38703W        W97997  39.867   1.246  11.896
38704W        W97998  11.268   8.668  14.342
38705W        W97999   5.838  34.909   1.809
38706W        W98000  41.442  33.533   1.791
38707W        W98001  19.200  14.252   0.947
38708W        W98002  19.226  16.740  13.921
38709W        W98003  27.641  11.178   1.915
38710W        W98004  36.007  25.689   3.217
38711W        W98005  17.169  17.696   1.906
38712W        W98006  23.703  31.089   1.320
38713W        W98007  31.482   1.317   3.287
38714W        W98008  37.890  15.279  12.431
38715W        W98009  15.202  43.835   4.145
38716W        W98010   2.760  15.253  13.420
38717W        W98011  28.979  35.913  14.515
38718W        W98012  39.347  30.544  14.857
38719W        W98013  28.080   1.855  11.952
38720W        W98014  10.237  40.916  14.343
38721W        W98015   2.899  19.111   4.750
38722W        W98016   5.788  18.284  13.049
38723W        W98017  19.138  35.970  12.496
38724W        W98018  28.655  13.758   1.841
38725W        W98019   3.934  10.373  11.914
38726W        W98020   9.733  33.392   1.429
38727W        W98021  16.245  17.212  12.367
38728W        W98022  44.845   4.273  13.374
38729W        W98023  37.345  16.807   4.301
38730W        W98024  36.898   7.376   0.423
38731W        W98025  24.995   2.315   3.370
38732W        W98026  12.147   5.344   1.843
38733W        W98027   9.213  42.359   1.847
38734W        W98028  38.851  24.527   3.653
38735W        W98029  38.834  43.380   3.227
38736W        W98030  35.050  24.983  10.123
38737W        W98031  31.529   3.773   1.853
38738W        W98032  28.087  36.858  13.929
38739W        W98033  37.566  24.655  13.054
38740W        W98034  19.125   9.654  12.944
38741W        W98035  13.181   3.717   3.782
38742W        W98036  14.119  44.370   0.728
38743W        W98037  35.882  38.382   4.207
38744W        W98038  44.393   9.780  12.039
38745W        W98039  11.174  15.718  12.890
38746W        W98040   2.827  21.550  10.556
38747W        W98041  39.470  14.620   2.729
38748W        W98042  44.990   9.374   1.921
38749W        W98043  19.770  21.191  14.432
38750W        W98044  39.058   7.229   0.465
38751W        W98045  36.086  38.482   1.275
38752W        W98046  35.530  36.539  14.007
38753W        W98047  27.028  17.103  13.905
38754W        W98048   0.951  37.962   1.433
38755W        W98049  23.697  22.657   2.714
38756W        W98050   9.387   5.276   4.166
38757W        W98051  39.473  29.434  12.869
38758W        W98052  24.122   9.265  13.898
38759W        W98053   5.217   8.839  14.484
38760W        W98054  17.718  16.657   9.466
38761W        W98055  40.833  32.502  12.573
38762W        W98056  33.554  14.765  12.845
38763W        W98057  38.526  21.758   4.313
38764W        W98058  28.124  26.514   1.840
38765W        W98059  16.572  31.905   3.226
38766W        W98060  35.367   8.881  10.977
38767W        W98061  41.394  37.383  11.864
38768W        W98062   0.787  37.505   3.360
38769W        W98063   8.282  42.799  11.129
38770W        W98064  26.660  33.530   5.247
38771W        W98065   0.750  44.448   3.348
38772W        W98066  17.619  23.990  14.832
38773W        W98067  31.460  38.478   2.868
38774W        W98068  21.715  38.929   0.459
38775W        W98069  17.723  44.855   2.676
38776W        W98070  43.967   8.853   0.791
38777W        W98071  17.207  18.125  11.042
38778W        W98072  37.066   1.902  11.126
38779W        W98073  42.394  21.524   2.818
38780W        W98074  27.459  17.620   3.719
38781W        W98075  35.105   2.428  14.914
38782W        W98076  11.201  34.898  13.875
38783W        W98077   3.422   7.313  13.526
38784W        W98078  20.664   3.752  14.013
38785W        W98079  43.907  43.845   0.252
38786W        W98080  23.683   4.928  12.420
38787W        W98081   2.849  44.981   3.166
38788W        W98082   1.467   6.814  13.345
38789W        W98083  38.406  17.251   4.151
38790W        W98084   9.322  34.958   1.816
38791W        W98085  11.678  44.862   4.158
38792W        W98086  22.225   1.844  12.573
38793W        W98087   8.188  21.624   0.907
38794W        W98088  17.130  19.227   0.805
38795W        W98089  15.634   6.747   4.303
38796W        W98090  31.928   6.427  11.905
38797W        W98091  16.734   8.802  10.529
38798W        W98092   5.905  42.949   5.322
38799W        W98093   9.321  41.884  12.364
38800W        W98094   6.901  23.584  10.449
38801W        W98095  34.504  18.147  10.521
38802W        W98096  39.518  42.377   0.318
38803W        W98097  17.138  18.780   4.812
38804W        W98098   9.364   4.941   2.819
38805W        W98099  19.112  36.436   0.911
38806W        W98100   8.864  28.594  10.931
38807W        W98101  42.352  28.469   4.287
38808W        W98102   0.930  25.077  12.560
38809W        W98103   4.912  39.827   4.687
38810W        W98104  15.195  38.565  11.938
38811W        W98105  20.226  30.960  10.981
38812W        W98106  14.188  13.323   4.622
38813W        W98107  32.511  42.300   2.289
38814W        W98108  27.161  10.714   4.175
38815W        W98109  39.015  44.367   5.246
38816W        W98110  31.014   0.254   0.292
38817W        W98111  26.572  33.913  13.057
38818W        W98112  18.695  41.320  11.472
38819W        W98113   3.929  35.506  13.490
38820W        W98114  17.661  24.529   2.356
38821W        W98115  42.379   1.296   1.437
38822W        W98116  25.207  34.599   2.674
38823W        W98117  36.457  18.178  12.504
38824W        W98118  22.585  34.425  11.502
38825W        W98119   9.374   2.804  13.966
38826W        W98120  16.073  34.016  12.066
38827W        W98121  14.133  26.481   3.815
38828W        W98122   4.792  41.424  13.330
38829W        W98123  22.124  26.153  14.387
38830W        W98124  39.958   7.351   4.176
38831W        W98125   8.296  26.124  13.333
38832W        W98126   7.750   8.668   2.740
38833W        W98127  25.506  24.712  13.347
38834W        W98128  11.220  23.632  14.991
38835W        W98129  24.079  40.340   2.259
38836W        W98130  31.966  35.482   0.789
38837W        W98131  10.370  20.607  14.787
38838W        W98132  15.632  13.317  14.293
38839W        W98133   0.756   6.304  14.972
38840W        W98134  41.304  44.481   2.185
38841W        W98135   2.421  18.155   5.204
38842W        W98136  26.684  10.673   2.725
38843W        W98137  21.609  15.258   0.851
38844W        W98138  12.733  19.611  10.024
38845W        W98139  44.383  38.898  11.005
38846W        W98140   4.430  37.084   1.294
38847W        W98141   3.424  19.094  13.966
38848W        W98142  29.161  42.502  12.427
38849W        W98143  37.905  33.381   3.829
38850W        W98144  15.145   2.730  13.018
38851W        W98145  11.745   4.943  11.492
38852W        W98146   3.450  42.022  12.921
38853W        W98147  20.241  37.384  14.329
38854W        W98148   3.281   1.430   2.248
38855W        W98149  20.199  43.481   3.672
38856W        W98150  40.546  27.139  12.992
38857W        W98151  14.694  16.132   0.322
38858W        W98152  36.579  32.130  14.376
38859W        W98153  32.126  24.537   3.338
38860W        W98154  11.242  11.171   1.906
38861W        W98155  18.056  43.338  12.058
38862W        W98156  21.192   8.342  10.461
38863W        W98157  38.481   8.310  12.949
38864W        W98158  40.830  13.250   4.269
38865W        W98159  42.954  23.616   3.223
38866W        W98160  15.284   2.795  14.788
38867W        W98161  38.038   3.751   0.899
38868W        W98162   0.771   7.823   4.655
38869W        W98163   1.777  34.877  12.572
38870W        W98164   1.308  11.337  11.391
38871W        W98165  38.929  34.493   3.351
38872W        W98166  12.753  33.987  11.419
38873W        W98167  33.436   5.393   1.315
38874W        W98168  19.133  22.022  11.085
38875W        W98169  21.160  17.220   2.816
38876W        W98170  42.875  20.100   4.119
38877W        W98171  37.399  27.088   4.682
38878W        W98172  27.639  17.715  14.284
38879W        W98173  25.042  41.330  13.977
38880W        W98174   3.231  35.942  11.994
38881W        W98175  16.680  16.173   2.302
38882W        W98176   7.702  17.177   5.220
38883W        W98177  16.152  31.051  10.502
38884W        W98178   1.313  41.916   3.381
38885W        W98179   6.215  39.318   2.866
38886W        W98180  20.099   9.719  14.305
38887W        W98181  21.210  43.849  10.528
38888W        W98182  11.254   8.901  12.080
38889W        W98183  27.975  17.663  10.491
38890W        W98184   6.255  16.705  12.456
38891W        W98185  38.505  16.682   2.678
38892W        W98186   2.462  22.127  11.460
38893W        W98187  22.068   7.902   4.255
38894W        W98188  13.684   5.295   3.285
38895W        W98189  26.107  39.809  13.803
38896W        W98190  44.495  36.097  13.034
38897W        W98191  30.063  14.678  14.293
38898W        W98192  34.466   0.818   4.137
38899W        W98193   2.778  19.163   0.380
38900W        W98194  16.090  40.395  10.932
38901W        W98195   5.741  33.545  12.829
38902W        W98196  43.433   7.871  14.822
38903W        W98197   3.766  24.083   1.269
38904W        W98198   8.849  14.302  12.444
38905W        W98199  12.697  34.965   1.799
38906W        W98200   3.394  41.392  14.352
38907W        W98201  27.053   1.755   0.290
38908W        W98202  10.361  29.943  13.327
38909W        W98203  41.937   0.426   0.762
38910W        W98204  38.508  34.436  12.528
38911W        W98205   2.846  32.570   2.699
38912W        W98206  16.156   1.341  11.585
38913W        W98207  25.539  41.378  11.973
38914W        W98208   6.367  43.864   4.170
38915W        W98209  10.326   4.434   3.841
38916W        W98210   6.880  25.024  11.591
38917W        W98211  41.435  38.433  12.874
38918W        W98212   6.285  15.683  14.461
38919W        W98213   0.912   4.943   4.750
38920W        W98214   7.797  36.087   5.195
38921W        W98215  11.308  28.484  10.627
38922W        W98216  20.052  18.781   2.356
38923W        W98217  24.671  15.175  10.892
38924W        W98218  27.957  35.009  13.795
38925W        W98219  23.990   4.866  10.135
38926W        W98220  14.135   6.359  10.516
38927W        W98221  25.075  22.122  14.794
38928W        W98222   7.702  38.007  10.530
38929W        W98223  12.840  14.773   1.326
38930W        W98224  42.479  30.537   4.754
38931W        W98225  14.686  31.643   1.777
38932W        W98226  33.061  17.111  10.532
38933W        W98227  36.027  33.445  13.966
38934W        W98228  23.125  17.212  11.397
38935W        W98229  29.550   0.885   2.318
38936W        W98230  40.812  10.726  10.629
38937W        W98231  11.167  21.050   1.224
38938W        W98232  40.807  33.113  13.056
38939W        W98233  25.603  27.047   1.830
38940W        W98234  22.731   7.754   4.652
38941W        W98235  13.624  31.040   4.602
38942W        W98236  41.344  35.913   4.654
38943W        W98237  41.485  13.636   2.188
38944W        W98238  15.776   0.770  11.968
38945W        W98239   2.776   5.902   2.691
38946W        W98240  12.765  14.659   2.666
38947W        W98241  22.221  24.566   0.927
38948W        W98242   2.930  14.194   4.835
38949W        W98243  33.475  35.359  11.085
38950W        W98244  35.370  17.104  13.811
38951W        W98245   8.720  39.056   2.836
38952W        W98246  39.353  39.848   3.284
38953W        W98247   0.776  27.634   4.226
38954W        W98248  17.800  25.537  14.762
38955W        W98249  18.148   5.760   3.162
38956W        W98250  24.026  10.695   3.383
38957W        W98251  33.892   0.455  14.463
38958W        W98252  22.605  23.003   1.403
38959W        W98253  11.226  10.201  11.403
38960W        W98254  20.075  43.320  13.960
38961W        W98255  36.551  37.036   0.823
38962W        W98256   9.351  32.906   0.370
38963W        W98257  37.844  26.672   5.317
38964W        W98258   5.731  35.484   1.927
38965W        W98259  28.060  27.476   2.847
38966W        W98260  10.354  38.016  14.876
38967W        W98261  27.127  38.008  12.050
38968W        W98262  39.955  35.904  12.909
38969W        W98263  16.630  40.830   3.648
38970W        W98264  20.214  30.093   2.184
38971W        W98265   1.799   1.826  13.326
38972W        W98266  25.470  34.443   3.821
38973W        W98267  37.349  30.155   3.779
38974W        W98268  38.354  38.890  12.934
38975W        W98269  40.382  22.180  10.425
38976W        W98270   9.817  22.564  10.945
38977W        W98271  21.195  18.651   4.710
38978W        W98272  41.391   6.182   1.930
38979W        W98273  10.251  28.586   0.467
38980W        W98274   7.854  40.903  10.976
38981W        W98275  40.838   5.231  10.596
38982W        W98276  16.295  29.450  14.891
38983W        W98277  16.719  13.724  14.412
38984W        W98278   7.245  10.287  12.083
38985W        W98279  34.922  19.632   2.669
38986W        W98280  11.130   1.251   1.383
38987W        W98281  12.818  39.841  12.556
38988W        W98282   6.872  16.122  14.410
38989W        W98283  22.062   3.419   2.741
38990W        W98284   9.749  38.405   3.153
38991W        W98285  16.087  42.385  10.501
38992W        W98286  22.149  30.054  12.837
38993W        W98287  12.179  26.041   3.249
38994W        W98288  38.523  33.496   1.218
38995W        W98289  28.579  13.331  14.333
38996W        W98290   9.879  28.176  11.084
38997W        W98291  26.549   8.745   3.321
38998W        W98292  19.266  21.665   0.396
38999W        W98293  34.605  19.225  12.853
39000W        W98294  23.110   6.326   1.272
39001W        W98295  39.338   3.850  13.362
39002W        W98296  24.563  39.884   3.333
39003W        W98297  23.530   5.251  12.567
39004W        W98298  34.528  38.476   4.342
39005W        W98299   8.351   7.417  12.887
39006W        W98300  26.611  27.536   4.636
39007W        W98301  36.082   3.382  13.011
39008W        W98302  41.988  18.627  13.528
39009W        W98303  11.136  21.717  14.907
39010W        W98304  26.557   8.380   1.338
39011W        W98305  44.468  10.770  10.983
39012W        W98306  33.429  39.321   2.350
39013W        W98307  16.195  31.540   0.423
39014W        W98308  29.999  32.892  14.435
39015W        W98309  32.393   5.932  12.855
39016W        W98310   9.319  24.681   3.220
39017W        W98311  38.452  35.977  12.962
39018W        W98312   3.287  19.149   2.833
39019W        W98313  24.646  13.159   1.232
39020W        W98314  17.787  44.958   2.324
39021W        W98315  42.378   7.180   3.644
39022W        W98316  18.257  24.716  14.307
39023W        W98317  27.963  24.669  13.806
39024W        W98318  41.467  44.849  11.550
39025W        W98319   4.942  19.775   5.292
39026W        W98320  12.850  30.501   1.421
39027W        W98321  37.071  10.866   0.758
39028W        W98322  32.954  22.619   0.427
39029W        W98323  39.504  30.143  13.415
39030W        W98324  19.768  21.171  11.492
39031W        W98325  10.178  10.285  14.393
39032W        W98326  35.489  10.253   0.950
39033W        W98327   1.448  18.597  14.394
39034W        W98328  11.156   6.239   2.668
39035W        W98329  10.716  37.399  11.982
39036W        W98330   8.377  23.576  11.573
39037W        W98331  42.822  27.138  10.621
39038W        W98332  17.136  20.059   0.449
39039W        W98333  40.513  37.379  13.978
39040W        W98334   6.299  41.412  10.519
39041W        W98335  32.572  14.252   4.180
39042W        W98336  10.818  13.646   2.342
39043W        W98337  14.787  44.385  11.450
39044W        W98338  38.828   6.258   1.893
39045W        W98339  26.557  40.429  14.317
39046W        W98340  21.651   4.301   0.826
39047W        W98341  38.825  32.433   1.446
39048W        W98342  13.639  17.692   4.312
39049W        W98343  44.860  30.141   1.230
39050W        W98344  44.842  11.722  14.917
39051W        W98345   7.750  11.220   2.778
39052W        W98346  30.114  36.361   1.744
39053W        W98347  19.580  35.456  13.868
39054W        W98348   7.413   3.253   2.194
39055W        W98349  41.823  41.350   0.310
39056W        W98350  18.200  29.982   1.369
39057W        W98351  27.161  35.879  10.136
39058W        W98352  20.125  26.019  14.834
39059W        W98353   2.904   5.770   2.255
39060W        W98354  34.090  16.764   0.450
39061W        W98355   5.804   5.394   0.477
39062W        W98356  35.017  14.603   4.823
39063W        W98357  43.472   7.889   1.889
39064W        W98358  18.054  17.165  14.848
39065W        W98359  24.222  35.565  11.114
39066W        W98360   7.746  10.834   0.952
39067W        W98361  28.030  44.817   4.232
39068W        W98362  24.494  38.397   1.253
39069W        W98363  27.971   7.258  11.075
39070W        W98364  15.090  20.604  14.394
39071W        W98365   7.262  41.491   2.681
39072W        W98366  33.580  19.250   3.826
39073W        W98367  37.517  30.931  10.500
39074W        W98368  26.167   8.356  11.117
39075W        W98369   4.439  36.435  10.934
39076W        W98370  23.095  44.358   4.706
39077W        W98371   8.854  34.920   4.136
39078W        W98372  10.731   7.249  12.448
39079W        W98373   5.218   6.696   2.718
39080W        W98374  37.947  32.549   3.746
39081W        W98375  25.199  40.467  10.588
39082W        W98376   8.809  23.167  14.438
39083W        W98377   8.850  41.873  11.027
39084W        W98378  22.555   0.950   1.388
39085W        W98379  16.079   3.771  10.623
39086W        W98380  33.583  14.638  11.561
39087W        W98381   0.896  21.178  12.530
39088W        W98382   7.869  38.428  14.379
39089W        W98383  29.497   0.760  10.915
39090W        W98384  29.942  14.260   5.191
39091W        W98385  15.216  42.378  13.956
39092W        W98386  32.548  38.345  14.454
39093W        W98387  27.057  21.084  13.461
39094W        W98388  25.511   4.816   1.305
39095W        W98389  42.296  20.745  10.554
39096W        W98390  18.647  18.250  13.886
39097W        W98391  11.643  12.335   2.353
39098W        W98392  10.874  24.636  11.101
39099W        W98393  37.570  33.965   0.256
39100W        W98394  11.240  18.132  13.490
39101W        W98395  32.085  22.037   2.771
39102W        W98396  25.027  41.948   3.776
39103W        W98397  20.710  28.616  13.062
39104W        W98398   7.862   0.461   2.767
39105W        W98399  34.510  23.108   2.825
39106W        W98400  10.838  15.262   3.157
39107W        W98401  31.598   9.873   0.856
39108W        W98402  41.044   3.766   3.374
39109W        W98403  31.573  16.089   3.680
39110W        W98404  22.710   6.750  11.125
39111W        W98405  44.947  43.978   1.214
39112W        W98406   8.717  40.326   4.764
39113W        W98407  42.368  35.398   2.291
39114W        W98408  32.400  26.018  14.951
39115W        W98409   0.447   8.807  10.912
39116W        W98410  35.967   2.311  13.383
39117W        W98411  21.242   7.746  12.489
39118W        W98412   5.295  10.149   1.818
39119W        W98413   8.391  34.582  12.478
39120W        W98414   6.864  31.925  14.905
39121W        W98415  26.172   0.898   4.757
39122W        W98416   3.888  32.584   3.170
39123W        W98417  44.313  35.092   0.767
39124W        W98418  37.949  25.069  13.827
39125W        W98419  42.897  20.089  13.329
39126W        W98420  11.362  36.497  11.568
39127W        W98421  39.363  16.595   0.338
39128W        W98422  39.955   2.393  14.030
39129W        W98423  34.941  21.545   3.220
39130W        W98424  37.372  41.817   3.194
39131W        W98425  24.019  23.564  10.560
39132W        W98426  27.960  12.279  13.922
39133W        W98427   5.409   9.271  14.956
39134W        W98428  38.069  19.635  12.047
39135W        W98429   0.907  20.176  13.385
39136W        W98430  43.952  10.734   1.245
39137W        W98431   4.278  43.396   0.784
39138W        W98432  27.467   2.427   2.247
39139W        W98433  40.385  41.361   0.765
39140W        W98434   2.321   4.737  10.635
39141W        W98435   2.910   1.950   0.934
39142W        W98436   5.766  38.519  14.991
39143W        W98437   6.252  18.664   2.389
39144W        W98438   7.879  33.880  13.896
39145W        W98439  42.948   4.807   3.826
39146W        W98440   8.316  16.285  13.908
39147W        W98441  20.619  26.596  12.387
39148W        W98442  12.686  34.543  13.041
39149W        W98443  25.047  30.589   0.439
39150W        W98444  27.102  42.845   4.347
39151W        W98445  35.584  28.618  11.961
39152W        W98446  21.536  38.926  14.481
39153W        W98447  28.548  19.602  14.811
39154W        W98448  17.115   0.288  10.920
39155W        W98449   4.745  33.002  13.060
39156W        W98450  33.501  20.041  12.490
39157W        W98451  29.111  13.243  14.896
39158W        W98452  10.689  37.980   1.896
39159W        W98453  36.905  25.478   2.866
39160W        W98454  28.171  25.527  11.073
39161W        W98455  11.288  20.171   1.336
39162W        W98456   8.236  10.298  12.540
39163W        W98457  19.762  23.551   4.630
39164W        W98458  22.528  31.562  14.471
39165W        W98459  23.508   0.768   2.283
39166W        W98460  38.831  25.199  13.812
39167W        W98461  33.954   3.454   3.802
39168W        W98462  22.513  28.165   2.701
39169W        W98463  34.887  30.499  13.909
39170W        W98464  10.686  21.697  13.827
39171W        W98465  23.090  31.987   1.403
39172W        W98466  36.008  18.096   2.232
39173W        W98467  34.930  23.045  12.372
39174W        W98468  14.191  11.859  13.419
39175W        W98469  32.528  15.686  12.094
39176W        W98470  13.803  28.542   0.399
39177W        W98471  27.055  31.510   4.761
39178W        W98472  29.066   6.859  12.497
39179W        W98473   5.871  36.453  11.922
39180W        W98474   1.428  41.910   0.943
39181W        W98475   9.186  39.514   1.381
39182W        W98476  28.446  24.182   4.348
39183W        W98477  34.455  34.992   0.345
39184W        W98478  10.796  10.661   0.755
39185W        W98479   2.448  44.972  11.886
39186W        W98480  13.741   9.801  11.555
39187W        W98481  39.523  22.522  11.061
39188W        W98482  43.306  36.587   3.840
39189W        W98483  31.105  20.762   2.229
39190W        W98484  44.308  38.017   3.684
39191W        W98485  12.766  10.236   2.712
39192W        W98486  10.284  42.431   4.175
39193W        W98487   3.258  14.623   5.306
39194W        W98488   5.867  27.115  14.972
39195W        W98489   5.338   3.735  10.948
39196W        W98490  32.993  31.094   0.758
39197W        W98491  31.462  18.637  14.436
39198W        W98492   8.179  31.067  13.888
39199W        W98493   8.309   1.757   0.802
39200W        W98494   1.777  40.016  12.894
39201W        W98495  39.403  28.981  13.920
39202W        W98496  31.955   8.816   0.246
39203W        W98497  32.455  16.790   4.220
39204W        W98498  35.526  22.216   4.209
39205W        W98499  13.236  38.930   0.249
39206W        W98500   5.210  40.486  11.476
39207W        W98501  33.420  15.084  10.474
39208W        W98502  16.159  39.012  14.477
39209W        W98503  11.135  20.538   3.258
39210W        W98504  37.025   5.249  12.026
39211W        W98505   9.373  15.281  11.532
39212W        W98506  40.413  43.000  10.072
39213W        W98507  25.548  22.557   3.804
39214W        W98508   5.379  17.706   4.760
39215W        W98509  14.646  38.890   1.805
39216W        W98510   6.698  10.692  13.859
39217W        W98511  14.777  29.644   0.315
39218W        W98512   5.911   1.387  14.820
39219W        W98513   8.359  41.467   3.732
39220W        W98514  38.533  35.424  10.017
39221W        W98515   2.756  20.186  11.501
39222W        W98516  25.042  36.054  14.988
39223W        W98517  40.017  32.121  14.840
39224W        W98518  30.925  44.337   3.659
39225W        W98519  27.988  40.524  12.873
39226W        W98520  14.166  28.055  10.611
39227W        W98521  20.635  13.762   3.738
39228W        W98522  24.201  12.701   2.409
39229W        W98523  34.589  17.241  14.930
39230W        W98524   2.738  19.064   1.923
39231W        W98525  10.797  35.887   5.157
39232W        W98526   9.681  19.152  13.957
39233W        W98527   3.455  36.862  14.818
39234W        W98528  19.728  13.213   1.371
39235W        W98529  21.693  39.031  10.895
39236W        W98530  38.460  36.418   2.841
39237W        W98531  34.040   3.880   0.464
39238W        W98532  30.470  38.344  13.048
39239W        W98533  39.515  38.828  11.088
39240W        W98534  13.128  40.913   2.316
39241W        W98535  29.500  44.876  14.419
39242W        W98536  16.668  16.705   0.366
39243W        W98537  25.690   1.953   4.823
39244W        W98538  30.649  13.197   3.814
39245W        W98539  16.646  15.710  11.553
39246W        W98540   0.270  15.820  11.562
39247W        W98541   2.337   4.837  10.020
39248W        W98542  21.744   1.352   1.845
39249W        W98543  11.803  11.348   0.882
39250W        W98544   1.353  31.466   2.218
39251W        W98545   6.386  11.162   4.177
39252W        W98546  13.262  19.538   0.740
39253W        W98547  19.066  22.218   1.438
39254W        W98548  41.792  31.939   2.349
39255W        W98549  19.642  14.286  14.327
39256W        W98550  41.842  18.649  11.934
39257W        W98551  17.137  30.549  14.837
39258W        W98552   5.274   0.272   4.745
39259W        W98553  14.159   5.914  13.547
39260W        W98554  21.029  27.079  14.444
39261W        W98555  17.725  15.816  10.557
39262W        W98556  37.483  31.919   0.256
39263W        W98557  28.598  28.948  12.500
39264W        W98558   6.221  26.004  10.628
39265W        W98559   9.797  43.290   3.859
39266W        W98560  39.517  24.156  11.063
39267W        W98561  40.352   9.801   0.819
39268W        W98562   0.316  37.571  12.374
39269W        W98563  31.018  23.575  11.045
39270W        W98564   8.677  36.440   3.677
39271W        W98565  30.650  28.966  10.507
39272W        W98566  28.969  12.360   0.828
39273W        W98567  11.185   9.376  10.492
39274W        W98568  15.245  37.967   0.286
39275W        W98569  38.039  15.196  13.033
39276W        W98570  40.837  14.718  10.891
39277W        W98571  22.018   5.244   4.181
39278W        W98572  23.993  12.317   3.680
39279W        W98573   0.795   7.399   2.348
39280W        W98574  26.623  32.560   4.244
39281W        W98575  35.003   2.965   1.438
39282W        W98576  38.962  38.458   2.712
39283W        W98577  15.154  18.085   0.888
39284W        W98578   0.749  42.495  13.995
39285W        W98579   1.387  27.125   1.275
39286W        W98580  30.940  34.068   0.309
39287W        W98581  18.697  17.568   2.271
39288W        W98582  44.334   7.238   4.193
39289W        W98583   2.936  12.834  13.312
39290W        W98584  16.708  22.738   5.628
39291W        W98585  43.292  21.679   1.701
39292W        W98586  41.322   2.358   3.321
39293W        W98587  26.093  30.074   3.356
39294W        W98588  37.472  20.169  10.552
39295W        W98589  38.948   3.431   2.359
39296W        W98590  20.544   2.338  11.434
39297W        W98591   1.249  30.948   0.733
39298W        W98592  28.181  13.650  10.404
39299W        W98593  31.438  20.598   0.413
39300W        W98594  22.234  28.945   2.198
39301W        W98595  38.858  32.074  13.360
39302W        W98596  13.214  36.067   4.218
39303W        W98597  24.031   1.795   2.747
39304W        W98598  35.978  29.544   4.606
39305W        W98599  31.511   1.402   1.888
39306W        W98600  37.863  33.465  11.991
39307W        W98601  42.837  33.403   2.231
39308W        W98602   0.844   0.872  14.319
39309W        W98603  14.238  30.069   2.855
39310W        W98604  35.990  25.522  14.421
39311W        W98605   3.766   0.866  13.430
39312W        W98606  24.676   1.451  11.995
39313W        W98607  27.685  29.955   0.474
39314W        W98608  15.804  32.890  11.085
39315W        W98609   5.840   6.322   4.177
39316W        W98610  28.133  32.571  11.396
39317W        W98611  15.695  44.336  11.920
39318W        W98612   3.725   8.245   1.830
39319W        W98613  44.830  27.059  12.994
39320W        W98614  26.504   4.385  13.543
39321W        W98615  21.571  35.372   4.686
39322W        W98616  26.037  19.217   3.351
39323W        W98617  41.006  34.002   0.375
39324W        W98618  14.809  19.081   2.894
39325W        W98619   3.382   9.864  12.983
39326W        W98620   6.700  29.920  14.508
39327W        W98621  21.246  20.661  14.932
39328W        W98622  13.744  11.671  10.004
39329W        W98623   3.382  11.276   0.479
39330W        W98624  15.666   9.206  14.422
39331W        W98625  11.775  17.282  11.583
39332W        W98626  33.450  30.005  12.885
39333W        W98627   1.976  43.483  14.916
39334W        W98628   3.912  22.112  11.856
39335W        W98629   3.382  26.995   1.221
39336W        W98630  34.868  36.918   2.410
39337W        W98631  44.478  23.698   3.331
39338W        W98632  43.349  38.361  11.486
39339W        W98633  39.932   2.807  12.907
39340W        W98634  40.046   3.912  12.925
39341W        W98635  34.505   4.758  13.373
39342W        W98636  13.231  11.721  14.969
39343W        W98637  41.330  13.312   0.406
39344W        W98638  34.093  43.350   3.809
39345W        W98639  21.624  40.891   1.436
39346W        W98640   3.239  40.527   1.889
39347W        W98641  18.592  15.221  10.105
39348W        W98642  40.822  19.156  13.975
39349W        W98643  25.579  24.034  12.844
39350W        W98644   2.909   9.661   0.939
39351W        W98645  43.436   3.235   3.759
39352W        W98646   7.830   9.719   4.187
39353W        W98647  25.568   4.904   2.381
39354W        W98648  42.451   8.843   4.657
39355W        W98649  41.518  16.758  13.920
39356W        W98650   7.689  16.763   2.862
39357W        W98651  30.152  27.140   0.748
39358W        W98652  38.932   4.748   2.716
39359W        W98653   0.457  18.758  13.496
39360W        W98654  33.565  40.462  11.395
39361W        W98655  33.992  25.113  13.810
39362W        W98656  27.673  28.080   4.202
39363W        W98657  39.409   9.163   2.846
39364W        W98658   1.802  18.764   3.296
39365W        W98659  33.605   6.792   2.684
39366W        W98660   1.905  13.224   4.334
39367W        W98661  43.342  30.474  10.523
39368W        W98662  44.473  25.199   3.714
39369W        W98663  26.116  21.023  12.348
39370W        W98664  12.671  21.079   2.782
39371W        W98665  36.526   3.824   2.400
39372W        W98666   3.328  28.952   4.353
39373W        W98667  15.201  19.541   3.248
39374W        W98668  28.603  21.529   1.447
39375W        W98669  24.543  21.210  14.480
39376W        W98670  41.942  22.684  12.519
39377W        W98671  33.049  26.115  11.986
39378W        W98672  13.740  10.353  12.083
39379W        W98673   3.338  21.742   0.776
39380W        W98674  19.272  44.980  11.115
39381W        W98675  19.181  39.047   3.219
39382W        W98676  32.432  12.145   1.430
39383W        W98677   6.680  11.816   2.738
39384W        W98678  40.912   7.686   4.129
39385W        W98679   9.756  40.017   3.339
39386W        W98680   4.928  21.629   1.410
39387W        W98681  33.982  17.748  11.495
39388W        W98682  40.455   1.797  11.408
39389W        W98683  20.715   7.863  12.569
39390W        W98684   8.279  40.336   0.789
39391W        W98685  23.039   1.483   0.936
39392W        W98686  20.028  21.675   2.208
39393W        W98687  13.327  16.122   2.231
39394W        W98688   0.902   0.798   0.789
39395W        W98689   0.333  14.157   0.422
39396W        W98690  41.024   8.301   1.904
39397W        W98691   4.707   9.651  14.280
39398W        W98692   2.839   5.217  12.987
39399W        W98693  21.553  38.920  11.977
39400W        W98694  26.674  18.228  14.796
39401W        W98695  39.026   2.836  13.021
39402W        W98696   1.947  24.986  12.395
39403W        W98697  13.703  18.742  11.430
39404W        W98698  23.553   2.319  12.886
39405W        W98699  13.781  32.569   4.224
39406W        W98700  34.553  21.117   4.237
39407W        W98701  21.061  36.055   4.338
39408W        W98702  19.238  33.398  11.066
39409W        W98703   5.278  37.020  11.907
39410W        W98704  19.607   2.935   1.379
39411W        W98705  36.522  31.561  10.955
39412W        W98706   2.387   3.416   1.751
39413W        W98707  15.277  38.976  14.406
39414W        W98708  23.192   5.733   3.191
39415W        W98709  32.617  28.018  13.973
39416W        W98710  40.493  19.637  14.021
39417W        W98711  41.304  35.603  14.356
39418W        W98712  22.995   7.271   5.197
39419W        W98713   9.649  16.697  11.913
39420W        W98714   1.292  17.633  13.795
39421W        W98715   4.843  31.619   1.896
39422W        W98716  12.629  42.414   4.230
39423W        W98717  19.634  36.851   0.947
39424W        W98718   6.315  29.556   0.846
39425W        W98719  22.062  28.563  11.986
39426W        W98720  11.866  13.148   2.801
39427W        W98721   8.379  24.036  10.928
39428W        W98722  16.568  28.590   4.312
39429W        W98723  40.475   6.249   4.265
39430W        W98724   3.772  43.392  14.502
39431W        W98725  20.625  41.923  14.488
39432W        W98726  30.423  37.952   1.418
39433W        W98727  10.830  42.479   3.212
39434W        W98728  29.512   1.915  14.297
39435W        W98729   0.339   5.906  11.601
39436W        W98730  41.802   4.773   2.743
39437W        W98731  34.392   0.838   2.881
39438W        W98732  18.658  28.631   2.716
39439W        W98733   4.336  22.527   0.281
39440W        W98734  22.151   4.865   1.440
39441W        W98735  37.888  35.539   1.350
39442W        W98736  20.273   6.262  12.489
39443W        W98737  11.307   5.793   2.810
39444W        W98738  17.757  38.050  12.925
39445W        W98739  43.323   3.229  10.564
39446W        W98740   6.701   5.227   2.743
39447W        W98741   7.375  40.429   5.269
39448W        W98742  17.781  31.075  10.465
39449W        W98743   9.179   3.898   3.332
39450W        W98744  29.088  12.752  13.391
39451W        W98745  21.750  35.374   1.344
39452W        W98746   7.897  42.371  14.814
39453W        W98747   6.908  44.765  13.540
39454W        W98748  41.836   1.414  12.938
39455W        W98749  32.580   0.385  13.864
39456W        W98750  23.215  39.465   1.331
39457W        W98751  24.125  36.851   3.171
39458W        W98752  41.318  12.730   1.372
39459W        W98753  42.454  42.363  10.623
39460W        W98754  22.093  32.928   1.755
39461W        W98755  22.089  32.426  13.855
39462W        W98756  39.470  30.656  11.025
39463W        W98757  16.749  14.168  14.444
39464W        W98758  17.302  15.307   1.274
39465W        W98759  20.593   4.805   4.237
39466W        W98760  31.507  22.503   4.180
39467W        W98761   9.274  24.479   0.815
39468W        W98762  19.667   4.340  13.996
39469W        W98763  21.716  10.872  11.440
39470W        W98764   1.805   8.264  12.018
39471W        W98765   1.886  17.618  12.934
39472W        W98766  20.224  24.092  12.984
39473W        W98767  18.761  42.491  13.512
39474W        W98768  26.635  34.979  14.441
39475W        W98769  25.681  11.366  10.924
39476W        W98770  15.684  35.581   3.362
39477W        W98771   0.317  42.416  14.289
39478W        W98772  18.626  24.595  13.032
39479W        W98773  24.530  19.166  12.351
39480W        W98774  31.491  27.143  13.519
39481W        W98775   4.225  28.641  11.473
39482W        W98776  40.543  25.562  12.528
39483W        W98777   4.875  25.596   5.129
39484W        W98778   3.458  37.553  12.014
39485W        W98779  20.220   7.683  14.339
39486W        W98780   8.670  16.134  11.501
39487W        W98781  30.535  11.144  14.280
39488W        W98782   4.725  37.020   0.352
39489W        W98783   4.266  42.785  12.941
39490W        W98784   9.726  41.977  11.956
39491W        W98785  28.606  32.425   1.768
39492W        W98786  25.497  12.238   3.176
39493W        W98787  19.609  25.696   1.276
39494W        W98788  43.354  11.367   2.355
39495W        W98789  16.253  31.079  10.900
39496W        W98790   3.850  24.534  13.878
39497W        W98791  44.301   6.336   0.848
39498W        W98792   5.289   8.797  11.540
39499W        W98793  29.558  25.651  12.945
39500W        W98794  31.913  26.688  12.388
39501W        W98795   6.899  35.495   0.302
39502W        W98796  34.960  11.800   2.681
39503W        W98797  23.214   2.859   2.692
39504W        W98798  10.699   1.909   2.823
39505W        W98799  38.563  44.789   3.752
39506W        W98800  17.598  37.568  11.488
39507W        W98801  39.382   1.971  14.935
39508W        W98802  17.567  37.367   0.302
39509W        W98803  36.881  41.971  11.396
39510W        W98804  32.057  44.443  11.920
39511W        W98805  24.100  15.326   4.808
39512W        W98806   0.391   6.240   1.374
39513W        W98807  30.011  36.842  13.519
39514W        W98808  30.495   3.444  10.514
39515W        W98809  12.738  36.364  12.999
39516W        W98810  40.980  43.862  12.525
39517W        W98811  17.240   0.366  14.422
39518W        W98812  19.572  44.006   3.344
39519W        W98813   0.322   4.322   1.400
39520W        W98814   8.267  35.002  14.918
39521W        W98815  23.490   0.968   4.805
39522W        W98816  26.202   0.955   1.411
39523W        W98817  40.866  23.200  13.817
39524W        W98818   5.847   8.829  12.984
39525W        W98819  43.889  21.079  12.956
39526W        W98820  41.830  44.504  11.026
39527W        W98821  24.578  42.006   1.812
39528W        W98822  25.553  16.613   4.143
39529W        W98823  20.227  27.993  13.881
39530W        W98824  38.508  17.576   2.680
39531W        W98825   8.335  24.075   2.780
39532W        W98826  25.999   9.874  13.475
39533W        W98827   6.379   2.848   1.777
39534W        W98828  31.929   8.329  14.837
39535W        W98829  37.468   1.481  12.401
39536W        W98830  31.591  16.644  14.385
39537W        W98831  29.653  26.574   2.901
39538W        W98832  10.810  38.073   4.790
39539W        W98833   8.817  27.976   0.762
39540W        W98834  34.009  37.985   3.853
39541W        W98835  10.808  41.428  13.026
39542W        W98836  18.154  12.315  12.974
39543W        W98837  12.707  28.018  11.507
39544W        W98838  13.820   7.397  14.404
39545W        W98839  31.054  28.677  10.464
39546W        W98840  22.055  18.218  13.048
39547W        W98841   4.394  17.307   2.886
39548W        W98842  43.924   1.384  13.854
39549W        W98843  13.331  21.032   5.095
39550W        W98844  27.446   2.859   4.299
39551W        W98845  23.585  25.046  14.457
39552W        W98846  10.370  27.648   1.849
39553W        W98847  14.330  22.618  10.987
39554W        W98848  17.214   3.377   2.338
39555W        W98849  34.459  30.598  13.044
39556W        W98850  26.043  26.025  12.035
39557W        W98851  37.495  13.119  13.510
39558W        W98852   2.777   1.843  12.092
39559W        W98853  25.592  28.081  11.394
39560W        W98854   9.287  41.428   2.195
39561W        W98855  39.463  30.078   3.834
39562W        W98856   2.348   1.854  14.442
39563W        W98857   2.930   6.346   3.247
39564W        W98858  14.263  40.983  10.560
39565W        W98859  42.955  28.160  13.835
39566W        W98860   7.693  42.027   3.648
39567W        W98861  40.030  11.705   4.205
39568W        W98862   1.482  12.749   4.351
39569W        W98863  41.866  29.631   3.794
39570W        W98864  41.334  20.541  12.999
39571W        W98865   8.871  26.664  11.453
39572W        W98866  42.508  21.110  14.394
39573W        W98867  30.478   2.900   1.296
39574W        W98868  25.989   2.452  11.398
39575W        W98869  42.889  25.472   3.263
39576W        W98870  19.138   5.825  14.430
39577W        W98871   2.861   8.189  14.291
39578W        W98872  28.034  19.158   0.266
39579W        W98873   5.311  19.760  11.572
39580W        W98874  10.174  44.389  14.902
39581W        W98875   3.818  28.607   4.294
39582W        W98876  12.137  40.022  13.041
39583W        W98877   4.940  25.625  11.482
39584W        W98878  12.714  20.538   3.637
39585W        W98879   2.266  15.183  14.930
39586W        W98880  41.470   9.215  13.044
39587W        W98881  35.865  28.960   3.719
39588W        W98882  21.061  31.917  12.422
39589W        W98883  41.428  26.105   2.326
39590W        W98884  14.718  12.716  14.490
39591W        W98885  34.568  18.787   2.867
39592W        W98886   9.739  10.331   0.787
39593W        W98887   5.290  18.765   9.444
39594W        W98888  17.098  37.904  11.585
39595W        W98889  28.572  14.340  14.285
39596W        W98890  28.092   2.876  12.508
39597W        W98891  18.179  33.592   9.996
39598W        W98892   4.829  30.642   1.378
39599W        W98893  13.712  23.683  14.762
39600W        W98894  25.485  23.196   3.649
39601W        W98895  18.097  31.056   1.383
39602W        W98896  24.123  35.878  14.412
39603W        W98897  13.613  36.405  13.833
39604W        W98898  43.350  16.081  14.004
39605W        W98899  13.134   9.875  11.934
39606W        W98900  38.334  36.949   2.220
39607W        W98901  10.203  41.863   4.304
39608W        W98902   4.870  26.616  14.381
39609W        W98903  41.927  39.981  14.278
39610W        W98904   6.217  38.837  10.017
39611W        W98905   0.955  43.501  12.970
39612W        W98906  37.539  26.159  13.365
39613W        W98907  36.886  12.214   2.851
39614W        W98908  10.220  14.729  11.926
39615W        W98909  16.075  43.374   0.889
39616W        W98910  40.918  15.308  12.436
39617W        W98911  31.087  22.710  12.015
39618W        W98912   0.860  37.367   2.323
39619W        W98913  31.520  15.192  11.555
39620W        W98914  33.545  23.098  14.000
39621W        W98915  14.103  17.749  14.412
39622W        W98916   5.706   8.289  11.393
39623W        W98917   9.708   9.307   1.757
39624W        W98918  20.641  24.990   2.675
39625W        W98919  36.497  23.644  11.893
39626W        W98920  24.067  10.773  11.006
39627W        W98921  27.174  12.756   2.330
39628W        W98922   9.246  11.854  10.494
39629W        W98923   8.396  19.134  13.934
39630W        W98924  42.412  17.609   1.268
39631W        W98925   9.342  16.118   3.276
39632W        W98926   8.727  27.617  13.351
39633W        W98927  37.046  36.438   2.779
39634W        W98928  32.619  28.022  12.366
39635W        W98929  15.767  40.316   3.194
39636W        W98930  34.587  33.105   2.692
39637W        W98931  12.657  30.459   0.919
39638W        W98932  14.197  26.639   4.639
39639W        W98933  15.579  40.431   1.337
39640W        W98934  22.637  18.157  13.908
39641W        W98935  37.382  25.665   3.652
39642W        W98936  20.627  33.057  13.533
39643W        W98937  24.534  38.957   4.778
39644W        W98938  37.074  29.174   1.415
39645W        W98939  18.165  40.376   3.644
39646W        W98940   8.891  15.755   0.248
39647W        W98941  16.312  40.909   4.791
39648W        W98942  24.653  25.015   0.755
39649W        W98943  27.618  14.691   4.797
39650W        W98944  42.385   4.874  14.899
39651W        W98945  35.981  25.090   3.857
39652W        W98946  10.847  30.588   3.226
39653W        W98947  36.436  11.182  13.027
39654W        W98948  25.699  42.791  11.860
39655W        W98949  18.179  24.598  13.422
39656W        W98950   6.901   7.689  10.982
39657W        W98951   1.938  33.917  12.394
39658W        W98952  16.642  39.863   2.326
39659W        W98953  26.203   6.414   4.190
39660W        W98954  39.911   5.246  11.953
39661W        W98955  21.542   4.849   1.708
39662W        W98956  11.216  14.276  11.942
39663W        W98957  15.719  19.713  12.505
39664W        W98958  22.203  40.333   4.631
39665W        W98959  39.555  11.717   4.186
39666W        W98960   2.909  22.653  14.902
39667W        W98961  44.966  21.601  11.443
39668W        W98962   8.891  17.628   1.838
39669W        W98963   0.782  33.925  14.947
39670W        W98964  44.438  37.059   0.245
39671W        W98965   6.679  16.101  13.488
39672W        W98966  10.802  18.065  14.425
39673W        W98967  35.953  40.945   1.926
39674W        W98968  12.671  42.960  13.545
39675W        W98969  20.089  43.367  13.442
39676W        W98970  33.554   9.295   2.201
39677W        W98971   2.286  32.578   4.598
39678W        W98972   7.812  10.175   0.404
39679W        W98973  27.580   1.444   1.754
39680W        W98974  16.613   1.949   1.754
39681W        W98975  36.998   9.657  10.541
39682W        W98976  19.211  15.710  13.394
39683W        W98977  33.565  29.041   0.399
39684W        W98978   0.833  44.290   0.773
39685W        W98979  28.039  29.020  13.008
39686W        W98980   5.776  28.440   1.427
39687W        W98981  43.482  40.033   4.784
39688W        W98982   6.883  33.996  12.382
39689W        W98983  43.426  36.515   0.264
39690W        W98984  16.808  11.794  14.918
39691W        W98985   4.428  11.278   3.266
39692W        W98986  35.082  28.066  14.344
39693W        W98987   4.372  18.146  13.417
39694W        W98988  26.616  33.478   2.278
39695W        W98989  12.334  11.741   5.772
39696W        W98990  21.097  21.080  11.514
39697W        W98991  24.079  26.138   3.280
39698W        W98992  35.031  37.527  10.929
39699W        W98993  38.332  34.466  12.915
39700W        W98994  27.489  10.293  11.549
39701W        W98995  11.291  33.942   2.866
39702W        W98996  41.503  31.578   4.127
39703W        W98997  37.501   3.318   5.216
39704W        W98998  10.326  37.994  13.510
39705W        W98999  13.138  16.611  12.481
39706W        W99000  21.595  29.602  14.509
39707W        W99001  33.080  27.582  14.360
39708W        W99002  16.111  39.338   0.399
39709W        W99003  17.188  30.596   2.243
39710W        W99004  20.540  43.979  12.005
39711W        W99005   3.885  35.957   1.361
39712W        W99006  42.959  40.398  10.640
39713W        W99007  35.954   6.909  12.508
39714W        W99008  14.318  16.605   2.298
39715W        W99009  29.998  43.983   2.853
39716W        W99010  13.333   4.879  12.419
39717W        W99011  43.938  39.549   3.723
39718W        W99012  23.070  23.166  14.322
39719W        W99013   4.316  42.296  12.545
39720W        W99014   2.783  13.811  13.022
39721W        W99015  19.233  36.919   2.703
39722W        W99016   8.193  14.785  14.845
39723W        W99017  14.817  40.956   2.681
39724W        W99018  27.684  19.156   4.159
39725W        W99019   3.864  20.065   0.731
39726W        W99020  24.608  15.581  10.632
39727W        W99021  10.331  34.949  11.079
39728W        W99022  22.525  24.202  12.875
39729W        W99023  13.274  17.625  12.962
39730W        W99024  25.146  30.557   0.895
39731W        W99025  42.015  31.008   0.316
39732W        W99026   1.370   2.376  10.507
39733W        W99027  14.673  35.945  12.825
39734W        W99028  22.510   0.402  10.485
39735W        W99029  23.046  30.990   1.299
39736W        W99030  23.170   7.781   2.705
39737W        W99031   9.168  22.181  12.351
39738W        W99032  10.658  41.494  14.456
39739W        W99033   5.280  38.988   0.256
39740W        W99034  37.909  26.610  13.820
39741W        W99035  24.129  26.141   0.817
39742W        W99036  12.321  23.166  10.440
39743W        W99037  19.129   8.785   1.744
39744W        W99038  13.222  32.089   1.816
39745W        W99039  20.563  36.566   0.790
39746W        W99040  21.753  27.567  13.386
39747W        W99041  41.515  20.211  10.973
39748W        W99042  18.217   2.789  10.969
39749W        W99043  36.899  29.482  14.787
39750W        W99044  18.141  25.096  13.899
39751W        W99045  28.096   6.772  10.975
39752W        W99046  10.236  44.418   3.313
39753W        W99047  22.173  17.084   0.417
39754W        W99048  17.785  40.957  10.444
39755W        W99049  31.567   7.721  10.026
39756W        W99050  43.437  20.644   0.402
39757W        W99051  31.546   2.464   0.363
39758W        W99052  37.506  41.534   0.411
39759W        W99053  25.620  36.904   1.916
39760W        W99054  28.636  36.457  13.810
39761W        W99055  24.130  30.477  11.000
39762W        W99056  44.804  11.788  11.044
39763W        W99057  42.490  16.626   3.265
39764W        W99058  23.097  12.788   0.826
39765W        W99059  43.776   1.748  14.916
39766W        W99060   3.339  31.116  14.490
39767W        W99061  27.592  32.630   0.347
39768W        W99062  11.274  16.730   4.780
39769W        W99063  21.622  13.179  14.903
39770W        W99064  33.979  39.819  12.558
39771W        W99065  42.346  44.836   1.847
39772W        W99066  14.610  34.528   3.807
39773W        W99067  19.039  28.118  13.429
39774W        W99068  35.013   6.812  14.419
39775W        W99069   3.732  35.573  10.928
39776W        W99070  39.920   8.240  10.534
39777W        W99071  21.540  22.510  13.483
39778W        W99072  16.714   2.874   2.212
39779W        W99073  33.431  22.596  10.508
39780W        W99074  36.912  37.469  13.508
39781W        W99075  23.631  31.442   4.711
39782W        W99076  16.227   1.964  14.837
39783W        W99077  12.194  22.059  12.866
39784W        W99078  14.318  29.130  14.365
39785W        W99079  44.761   3.736   2.226
39786W        W99080  39.961  39.039  13.468
39787W        W99081   6.188   5.297   0.278
39788W        W99082  18.257  39.402  13.927
39789W        W99083  33.891  20.575  12.447
39790W        W99084  27.656  32.582  12.870
39791W        W99085  20.620   2.448   4.251
39792W        W99086  39.040   9.329   5.569
39793W        W99087  17.167  11.734  14.439
39794W        W99088   3.889  31.923   3.366
39795W        W99089  33.582  25.592   4.813
39796W        W99090  28.586   2.808   2.316
39797W        W99091  21.212  20.643  11.027
39798W        W99092  14.111  19.679  14.979
39799W        W99093  21.564  28.937  14.484
39800W        W99094  13.834  42.339   2.697
39801W        W99095  31.518  42.460  13.546
39802W        W99096  11.271  14.292  13.857
39803W        W99097  16.248  39.501   4.241
39804W        W99098  33.484  26.498  10.431
39805W        W99099   7.365   1.978   3.205
39806W        W99100  36.959  25.133   2.200
39807W        W99101  23.724   0.362   3.706
39808W        W99102  15.235   8.751  14.983
39809W        W99103  32.985  29.510  12.008
39810W        W99104  42.921  41.386  14.955
39811W        W99105  21.691   0.909  10.525
39812W        W99106  11.306   8.271  10.472
39813W        W99107  10.230  24.133   2.708
39814W        W99108  43.892  14.195  13.376
39815W        W99109  42.404  31.632   2.338
39816W        W99110  37.506  17.794   3.154
39817W        W99111   1.894  12.196  10.623
39818W        W99112  33.383  31.904   1.387
39819W        W99113  33.990  24.694  13.827
39820W        W99114  35.930  23.623   4.312
39821W        W99115  16.312  25.993  12.556
39822W        W99116  33.896  22.607   0.867
39823W        W99117  34.866  41.370   0.876
39824W        W99118  12.713   1.306  13.428
39825W        W99119  18.669   0.481  11.504
39826W        W99120   0.335  35.043  10.931
39827W        W99121  36.560  31.044   2.696
39828W        W99122  36.543  30.490   4.236
39829W        W99123  39.889  14.204  11.862
39830W        W99124  13.797  43.000  14.976
39831W        W99125  10.696  14.190  11.611
39832W        W99126  12.117  25.998   3.753
39833W        W99127   6.812  27.529  13.939
39834W        W99128  16.075  22.642  14.995
39835W        W99129  41.979  15.762  10.545
39836W        W99130  14.297   8.790  14.329
39837W        W99131  23.080  41.902   1.412
39838W        W99132   6.873  10.372  14.296
39839W        W99133  13.109  21.614   0.435
39840W        W99134  31.605  20.586   1.218
39841W        W99135  38.959  39.033   5.214
39842W        W99136  36.510  19.228   3.189
39843W        W99137  28.967   5.321  11.111
39844W        W99138  20.657  31.068   0.769
39845W        W99139  32.592  32.067  13.956
39846W        W99140  18.054  40.828  11.950
39847W        W99141  29.481   3.234   4.695
39848W        W99142  22.689   4.941   3.166
39849W        W99143  29.634  41.883  13.912
39850W        W99144   9.830  11.336   4.187
39851W        W99145  10.368  23.565   1.851
39852W        W99146  38.837   5.787  14.454
39853W        W99147   4.831  33.102  10.888
39854W        W99148  42.453  36.953   2.227
39855W        W99149  28.493   9.231  12.569
39856W        W99150  20.646  39.380  11.905
39857W        W99151  26.166   8.668   3.356
39858W        W99152  21.678  30.090  10.572
39859W        W99153  37.918   5.763  13.825
39860W        W99154   4.229   8.783   0.746
39861W        W99155  44.755   5.193   2.306
39862W        W99156  43.491  38.950  12.843
39863W        W99157  16.206  44.377   3.148
39864W        W99158  17.777   1.953  14.324
39865W        W99159   9.833   3.298  13.792
39866W        W99160  34.947  21.058   0.396
39867W        W99161   6.903  40.356  13.917
39868W        W99162  25.674  18.609   2.415
39869W        W99163  30.536  33.596   0.883
39870W        W99164  39.329   5.891  13.331
39871W        W99165   4.832  11.627  13.024
39872W        W99166  19.199  23.594  13.491
39873W        W99167  42.463  26.593  13.436
39874W        W99168  37.527   5.734  11.383
39875W        W99169   4.449  35.864   2.857
39876W        W99170  13.281  42.406   3.381
39877W        W99171   7.754   6.261   4.174
39878W        W99172   9.346  23.194  12.385
39879W        W99173  21.539  24.014  11.032
39880W        W99174  42.483  29.147   2.732
39881W        W99175  33.548   7.208   0.762
39882W        W99176  14.682  33.055  11.467
39883W        W99177  10.733   1.338   9.480
39884W        W99178  35.070  21.743  13.970
39885W        W99179  11.687  12.360  12.475
39886W        W99180  12.267  18.141   3.352
39887W        W99181   0.780  42.363   3.864
39888W        W99182  24.722  36.524  13.954
39889W        W99183  17.298  36.922  10.519
39890W        W99184  22.740  25.584   4.336
39891W        W99185  28.180  17.290  12.383
39892W        W99186  38.982  22.703  13.381
39893W        W99187   0.317  37.392   2.234
39894W        W99188  27.150  37.335   3.225
39895W        W99189  37.582  39.927  13.925
39896W        W99190  13.779  14.751  13.453
39897W        W99191  12.626  44.445   0.346
39898W        W99192   0.277  41.800   3.199
39899W        W99193  41.907  25.551   4.758
39900W        W99194  11.287  20.226   3.354
39901W        W99195  10.704  32.926   2.206
39902W        W99196  40.941  29.994   2.692
39903W        W99197   6.368  19.680   4.738
39904W        W99198  11.655  34.864  10.991
39905W        W99199  37.418   0.967   4.144
39906W        W99200  27.175   9.274   0.953
39907W        W99201   2.953  39.043   0.253
39908W        W99202  11.179   2.265   5.180
39909W        W99203  22.503  42.493  11.912
39910W        W99204  12.140  34.035  14.782
39911W        W99205   1.767  10.285   0.470
39912W        W99206  13.246   7.364  14.431
39913W        W99207  37.556  32.564   1.274
39914W        W99208  14.097  42.851   2.821
39915W        W99209  25.104   5.378  13.525
39916W        W99210  20.762   8.397   2.703
39917W        W99211  11.638  18.242  10.121
39918W        W99212  21.665  32.948  10.508
39919W        W99213  33.622  18.729   1.710
39920W        W99214  27.182  17.281   9.973
39921W        W99215  25.018  15.212   2.226
39922W        W99216  27.072  38.892   2.880
39923W        W99217  24.535  17.720   3.233
39924W        W99218   0.396  18.685  11.114
39925W        W99219  23.176  32.124   0.442
39926W        W99220  24.591  37.408  11.440
39927W        W99221  15.224   4.859  15.000
39928W        W99222   2.730  23.704   4.703
39929W        W99223  11.808  27.000   1.242
39930W        W99224  10.688  33.388   2.191
39931W        W99225   2.236  37.996   1.845
39932W        W99226  15.772  34.489   3.796
39933W        W99227  26.175  19.104  12.490
39934W        W99228   8.790   7.682  14.328
39935W        W99229   8.170  13.751   0.957
39936W        W99230  12.279  13.715  13.842
39937W        W99231  18.549  26.489  12.061
39938W        W99232   1.408  28.436  10.987
39939W        W99233   0.324  13.258  14.935
39940W        W99234  21.130   5.801  10.619
39941W        W99235  37.431   1.859  14.516
39942W        W99236  15.144  10.338  12.908
39943W        W99237  31.021  34.474   2.752
39944W        W99238  31.011  32.907   1.337
39945W        W99239   8.825  30.127  14.398
39946W        W99240  39.456   9.156   1.835
39947W        W99241   0.470  26.610   3.322
39948W        W99242  32.999  23.573   0.359
39949W        W99243  17.599  40.852   4.631
39950W        W99244  12.685  42.952  13.025
39951W        W99245  36.891  10.361  13.390
39952W        W99246  24.694  11.166   2.892
39953W        W99247  15.144  12.836   0.903
39954W        W99248  31.152  37.028  12.460
39955W        W99249  41.461  39.487  12.513
39956W        W99250  18.206  33.547  11.902
39957W        W99251  41.945  18.744   1.387
39958W        W99252   0.813  16.304  10.892
39959W        W99253  44.430   5.718   2.871
39960W        W99254   2.443  24.221  10.599
39961W        W99255  32.477  42.997   3.692
39962W        W99256  25.037  36.022   3.181
39963W        W99257  21.567  19.088   1.366
39964W        W99258  25.092  30.924  13.010
39965W        W99259  15.674   5.364  14.927
39966W        W99260   1.891  18.676   4.130
39967W        W99261  23.090  41.951  13.844
39968W        W99262  34.046  18.675  11.918
39969W        W99263  40.347  31.599  10.961
39970W        W99264  39.514  32.406   2.799
39971W        W99265  26.167  30.035   1.289
39972W        W99266   2.854  10.331   4.735
39973W        W99267  34.592   4.733   0.834
39974W        W99268  42.811   5.224  10.906
39975W        W99269  25.646   1.963   0.357
39976W        W99270  18.164  15.251  14.977
39977W        W99271  43.947  21.155   2.672
39978W        W99272  17.791  32.018   2.331
39979W        W99273  36.535  39.496  14.016
39980W        W99274   6.252  33.474  11.556
39981W        W99275  28.457  12.329   0.250
39982W        W99276  14.293  17.638   3.689
39983W        W99277   6.730  44.765  11.969
39984W        W99278  20.758  43.823   0.454
39985W        W99279  27.092  44.883   1.782
39986W        W99280  10.373  35.362  12.848
39987W        W99281  35.097  43.999   4.353
39988W        W99282  34.493  29.025   0.451
39989W        W99283  35.369  10.825  11.400
39990W        W99284  14.669  15.174   2.706
39991W        W99285  10.312  42.020  10.624
39992W        W99286  22.018   6.247  12.011
39993W        W99287  15.711  14.191  13.843
39994W        W99288  16.244  22.610   1.804
39995W        W99289  22.082  40.541  11.421
39996W        W99290  37.893   7.260  11.864
39997W        W99291  17.628  13.776   1.893
39998W        W99292  11.216  34.069  12.851
39999W        W99293  42.371  13.809  13.921
40000W        W99294   5.349  29.172   4.293
40001W        W99295  36.043  28.935   0.448
40002W        W99296   3.260  19.646  13.003
40003W        W99297  37.552  21.032   0.403
40004W        W99298  37.562  24.511  14.496
40005W        W99299  19.245   2.360  14.446
40006W        W99300  41.892   4.418   1.824
40007W        W99301  26.153  32.121   0.743
40008W        W99302  38.536   9.201  11.570
40009W        W99303   3.251  11.721  14.494
40010W        W99304  16.095  43.401  13.054
40011W        W99305  40.841  25.059   0.354
40012W        W99306  15.220  16.266  13.930
40013W        W99307  13.838  34.014  12.545
40014W        W99308  37.480  44.283   4.650
40015W        W99309   3.377  16.315   4.806
40016W        W99310  42.394  10.815  10.939
40017W        W99311  30.464  39.551   1.222
40018W        W99312   0.796  42.344   3.260
40019W        W99313  17.181  20.728   0.244
40020W        W99314  25.596  14.821   4.625
40021W        W99315  22.591  34.987  10.449
40022W        W99316  35.875  14.830   2.845
40023W        W99317  36.464  18.276   2.216
40024W        W99318  38.325  39.840  11.609
40025W        W99319   3.949  24.707  10.997
40026W        W99320   4.844  22.503  12.360
40027W        W99321  39.901  40.322   4.284
40028W        W99322  42.842  29.524   0.952
40029W        W99323  42.304  22.518  14.890
40030W        W99324   5.845  12.822   2.858
40031W        W99325  31.631  43.840   0.888
40032W        W99326  43.396  15.156   0.946
40033W        W99327  19.281  11.733   5.314
40034W        W99328  44.363  38.507  10.032
40035W        W99329   6.194  29.029  13.314
40036W        W99330  40.391  36.854  13.915
40037W        W99331  17.242   8.364  11.074
40038W        W99332  14.244  34.018  13.932
40039W        W99333  41.815  41.304  14.844
40040W        W99334   6.284   7.192  11.858
40041W        W99335   2.367  30.464   1.420
40042W        W99336  12.700  23.164   0.742
40043W        W99337  32.444  43.803  11.384
40044W        W99338  42.383   7.230  12.948
40045W        W99339   8.805   6.317  10.418
40046W        W99340  26.959  42.863   3.198
40047W        W99341  40.353   8.257   4.241
40048W        W99342  41.887  42.403   4.211
40049W        W99343  39.450  31.421   2.313
40050W        W99344  22.038  36.971  12.424
40051W        W99345  23.091   8.205  12.962
40052W        W99346   1.879  29.569  14.290
40053W        W99347  35.109  25.089   0.407
40054W        W99348   4.876  30.606  11.061
40055W        W99349  36.491  29.578   1.290
40056W        W99350  21.583  12.692  13.318
40057W        W99351  33.571  26.578   2.400
40058W        W99352  22.539  19.282   0.897
40059W        W99353  20.201  18.752   4.704
40060W        W99354  20.250  17.598  14.834
40061W        W99355  23.140  18.764  11.497
40062W        W99356  20.752  21.740   5.256
40063W        W99357  13.725  40.984   2.826
40064W        W99358  31.498  39.982   3.259
40065W        W99359  28.549   7.786   2.883
40066W        W99360  25.550  39.954  14.844
40067W        W99361   1.479   1.845   5.613
40068W        W99362  15.671   0.797  11.596
40069W        W99363  16.600  38.022   0.955
40070W        W99364  40.019  22.647  12.571
40071W        W99365   4.906  38.428   0.851
40072W        W99366  21.658  17.765  11.384
40073W        W99367  13.715  20.199   5.659
40074W        W99368  32.104  41.463   9.474
40075W        W99369  23.042   6.378  14.327
40076W        W99370  32.889  21.672  11.519
40077W        W99371   7.799  12.160  11.128
40078W        W99372  24.635   6.909  11.498
40079W        W99373  43.411   8.332   0.745
40080W        W99374  15.712  33.959  14.316
40081W        W99375  18.081  33.563  11.469
40082W        W99376   6.427  27.574  11.963
40083W        W99377  27.968  37.966  14.333
40084W        W99378  37.419  31.962   0.893
40085W        W99379   1.751   9.874   2.378
40086W        W99380  27.101  34.936   3.641
40087W        W99381   1.889  22.692   2.897
40088W        W99382   4.272  31.436  11.929
40089W        W99383  44.887  16.632   0.896
40090W        W99384  33.054   5.370  11.469
40091W        W99385  41.930  36.011  12.853
40092W        W99386   3.410  23.221  11.552
40093W        W99387   1.892  40.016  14.512
40094W        W99388  29.094  33.428   4.203
40095W        W99389  23.146  43.298  11.453
40096W        W99390  40.483  33.989  12.037
40097W        W99391  30.486  28.566  10.948
40098W        W99392  23.581   9.204   1.384
40099W        W99393  22.133  25.101   1.866
40100W        W99394  34.436  32.547  12.398
40101W        W99395  39.930  26.147  14.915
40102W        W99396   8.813  38.932  14.019
40103W        W99397  21.197  22.622   2.684
40104W        W99398  30.940  25.472  11.982
40105W        W99399  32.441   3.307  14.333
40106W        W99400  13.753  29.439  12.924
40107W        W99401  26.968  39.451  14.512
40108W        W99402  44.754   5.226   5.733
40109W        W99403  29.150   1.880   3.373
40110W        W99404  33.447  32.138   3.709
40111W        W99405  42.803  25.550  13.456
40112W        W99406   6.222  44.978   3.727
40113W        W99407  31.120  26.560  11.457
40114W        W99408  29.621  43.319  12.005
40115W        W99409  26.040  28.539  11.475
40116W        W99410  38.959  43.988   2.266
40117W        W99411  35.936  27.128  10.996
40118W        W99412   1.893  40.911   0.435
40119W        W99413  35.938  19.280   0.356
40120W        W99414  17.595  24.037   9.559
40121W        W99415  30.572  42.808   0.774
40122W        W99416  39.362  28.106  13.898
40123W        W99417  19.599  13.694  10.011
40124W        W99418  11.254  41.011   2.731
40125W        W99419  10.822  32.391  14.429
40126W        W99420  23.505  31.012  14.022
40127W        W99421  30.525  22.105   2.873
40128W        W99422   3.328   6.350  11.599
40129W        W99423  20.555  39.055   0.859
40130W        W99424  24.208  22.131  11.543
40131W        W99425  18.622  27.999  11.098
40132W        W99426  41.846  16.245   1.789
40133W        W99427  36.858  28.142  13.401
40134W        W99428  37.954  16.236  12.502
40135W        W99429  20.099   1.745   5.255
40136W        W99430  36.477  16.568  13.865
40137W        W99431   4.371  10.375   0.363
40138W        W99432   2.934  37.511  13.944
40139W        W99433  16.779  17.165   1.695
40140W        W99434  23.736  12.856   3.275
40141W        W99435  43.435  30.035  11.880
40142W        W99436  39.012  18.748   4.155
40143W        W99437  10.160  44.379  12.958
40144W        W99438  28.474   8.796   0.299
40145W        W99439   9.848  40.482  13.803
40146W        W99440   5.412  27.658   2.314
40147W        W99441   2.317   1.888   0.409
40148W        W99442  22.206  11.339   4.118
40149W        W99443   9.826  19.745  10.091
40150W        W99444   8.683  40.017   2.684
40151W        W99445  19.740   0.381   2.891
40152W        W99446  16.701  43.270   3.323
40153W        W99447   8.322  37.959   1.922
40154W        W99448  42.488  19.119   3.351
40155W        W99449  28.110   3.748  13.316
40156W        W99450  37.029  35.890   2.268
40157W        W99451   2.402  16.118  13.440
40158W        W99452  42.852  17.228   2.279
40159W        W99453  10.216  36.901  13.535
40160W        W99454  32.537   8.320   5.679
40161W        W99455   3.775  39.915   1.752
40162W        W99456  42.281   0.783  12.469
40163W        W99457   9.321  38.496  11.089
40164W        W99458  12.753  41.504  12.082
40165W        W99459   7.324  15.322   3.685
40166W        W99460  22.097  33.620   1.319
40167W        W99461  18.242  26.676  14.999
40168W        W99462   8.833   8.376   4.678
40169W        W99463  29.123  44.487  13.033
40170W        W99464  11.866  10.365   0.924
40171W        W99465   2.275   8.864  14.979
40172W        W99466  10.384  18.658  12.967
40173W        W99467  39.908   1.858  11.575
40174W        W99468  36.920  37.928  14.279
40175W        W99469  42.844  20.190   1.322
40176W        W99470  20.116  24.034   2.242
40177W        W99471  36.931  10.660   4.353
40178W        W99472  21.513  38.435   2.853
40179W        W99473  35.980  16.695   0.860
40180W        W99474   3.943   8.323   2.705
40181W        W99475  38.480  35.529   2.899
40182W        W99476  29.130  31.937   5.174
40183W        W99477  34.965   8.162  14.459
40184W        W99478   2.896  30.908  14.855
40185W        W99479  24.112  35.492  10.464
40186W        W99480  40.310  24.054  11.011
40187W        W99481  41.498  32.900  12.429
40188W        W99482   5.313  10.248   3.266
40189W        W99483  23.694  39.885  13.370
40190W        W99484   3.417  38.961   3.791
40191W        W99485  23.192  29.164  13.934
40192W        W99486  15.150  15.243   3.267
40193W        W99487  33.983   0.916   4.303
40194W        W99488  29.087  29.493   4.150
40195W        W99489  17.798   8.681   0.446
40196W        W99490  22.542  32.996  10.423
40197W        W99491  23.179  11.855  13.392
40198W        W99492  16.195  27.584  14.482
40199W        W99493  17.116  43.004  12.414
40200W        W99494  34.607   6.424  11.501
40201W        W99495  41.795  37.836   2.740
40202W        W99496  24.134  32.485  13.490
40203W        W99497  14.325  23.625   2.234
40204W        W99498  34.102  22.668   2.316
40205W        W99499   1.251   1.780   3.704
40206W        W99500  29.037  14.660  13.904
40207W        W99501  21.525  33.029   1.290
40208W        W99502  31.449  42.783   0.802
40209W        W99503  30.076  21.645  14.797
40210W        W99504  28.120   6.898  14.785
40211W        W99505  44.274  42.915  13.416
40212W        W99506  34.121  23.496   0.313
40213W        W99507  41.355  15.317  11.460
40214W        W99508  36.510  26.056   3.176
40215W        W99509  31.998  10.775  14.946
40216W        W99510   2.728  27.995   0.915
40217W        W99511  19.260  39.449  10.561
40218W        W99512  38.049  23.051  12.348
40219W        W99513   5.887  13.222   0.395
40220W        W99514  36.473  12.848  14.983
40221W        W99515  22.199  18.722   3.842
40222W        W99516  34.541  37.461  14.005
40223W        W99517  23.026  14.671   3.648
40224W        W99518  44.990  40.821   4.346
40225W        W99519  31.601  24.554   2.291
40226W        W99520  37.061  37.561   4.154
40227W        W99521  43.786  41.301  13.893
40228W        W99522  14.735  11.308   3.228
40229W        W99523   8.738  38.523   0.864
40230W        W99524  28.460  41.971   3.145
40231W        W99525  22.705  35.073   0.908
40232W        W99526  32.004   9.185  14.892
40233W        W99527   1.791   7.749   2.679
40234W        W99528  13.111   0.422  14.014
40235W        W99529  34.059  22.554  12.972
40236W        W99530   0.770  31.602  14.820
40237W        W99531  35.582  16.793   4.145
40238W        W99532  30.937   5.282  11.987
40239W        W99533   2.862   3.943   4.337
40240W        W99534  16.718  29.652  12.052
40241W        W99535  30.149  33.127   0.311
40242W        W99536  11.323  18.766  12.978
40243W        W99537   2.759  10.312   2.822
40244W        W99538  29.006  11.206   3.254
40245W        W99539  10.368  22.160  11.450
40246W        W99540  11.167  29.565  13.801
40247W        W99541  32.565   9.239   0.372
40248W        W99542  34.982  38.495   4.237
40249W        W99543  30.635  36.356  10.583
40250W        W99544  30.049  19.534   0.300
40251W        W99545  41.385  28.993   2.409
40252W        W99546   0.460   3.894   2.281
40253W        W99547  23.517  27.535  14.497
40254W        W99548  10.732  10.789   2.251
40255W        W99549  13.795  33.983  10.625
40256W        W99550   2.251  11.159  14.919
40257W        W99551  25.031   4.838  11.965
40258W        W99552  32.406  22.706  11.917
40259W        W99553  12.815  25.538  14.913
40260W        W99554  12.331   6.897  14.775
40261W        W99555  40.508  14.726  12.899
40262W        W99556  35.593   1.931  10.526
40263W        W99557  36.543  32.991  13.384
40264W        W99558   4.396  25.515  14.760
40265W        W99559  26.654  15.093  11.453
40266W        W99560  21.620  22.223  14.853
40267W        W99561  21.588   7.232   1.721
40268W        W99562   7.306  27.660   2.756
40269W        W99563  23.109  16.644   1.722
40270W        W99564  26.657  35.421  14.410
40271W        W99565   3.937  23.621   3.786
40272W        W99566   4.285  16.630   3.731
40273W        W99567  21.709  23.606  10.501
40274W        W99568  26.124  30.569   2.795
40275W        W99569  13.156  26.141   1.850
40276W        W99570   4.779   4.896   5.295
40277W        W99571  19.562  15.628   1.398
40278W        W99572  24.561  24.644  10.605
40279W        W99573  12.256   2.273  12.069
40280W        W99574  39.035  21.527  13.367
40281W        W99575   1.402  20.528   3.794
40282W        W99576  21.662  17.628  13.043
40283W        W99577  28.623  22.506   4.309
40284W        W99578  26.645  17.573  12.934
40285W        W99579  28.452  36.445   4.799
40286W        W99580  39.831  42.844   2.720
40287W        W99581  14.594  20.708   2.328
40288W        W99582  15.100  32.584  11.593
40289W        W99583  37.454  28.588   2.876
40290W        W99584  16.688  22.137  13.833
40291W        W99585  42.808  17.097   1.902
40292W        W99586  21.098  15.215   2.290
40293W        W99587  39.401   7.683  13.941
40294W        W99588   4.311  30.533   1.844
40295W        W99589  25.199   3.774   1.810
40296W        W99590   4.941   9.819  13.903
40297W        W99591  39.375  42.463   1.724
40298W        W99592  21.234   2.765   4.661
40299W        W99593  29.923  21.077   0.744
40300W        W99594  12.313  20.611   1.287
40301W        W99595  15.766  10.148  14.951
40302W        W99596  27.542  12.255  10.909
40303W        W99597  10.767  41.339   2.217
40304W        W99598   7.264  38.950   1.315
40305W        W99599   3.287   6.909  13.328
40306W        W99600  15.187  26.015   3.754
40307W        W99601  26.597  41.957  10.117
40308W        W99602  12.744  41.316   0.731
40309W        W99603  13.692  44.376  13.834
40310W        W99604  11.864  39.948  13.436
40311W        W99605  42.837  33.950  10.506
40312W        W99606  25.524  37.547  11.891
40313W        W99607   0.451   8.287  14.433
40314W        W99608  37.931   3.730  13.022
40315W        W99609  35.966  17.074  11.115
40316W        W99610   1.295  22.189   2.680
40317W        W99611  27.453  43.509  13.357
40318W        W99612  37.399  40.345   1.436
40319W        W99613  20.044  14.785  13.450
40320W        W99614  22.045  38.037   1.867
40321W        W99615   7.882   5.779   3.728
40322W        W99616  26.960   2.756  12.939
40323W        W99617   5.712  18.785  12.415
40324W        W99618  22.238  13.178  10.425
40325W        W99619  42.294  32.091  14.984
40326W        W99620  21.254   8.683   4.790
40327W        W99621  33.052  28.498   4.322
40328W        W99622   7.345  20.572  13.464
40329W        W99623  36.531  22.094   1.309
40330W        W99624   4.807   2.886   3.717
40331W        W99625   2.951   4.874  13.457
40332W        W99626   9.727   3.750   0.930
40333W        W99627  13.757   6.200  10.461
40334W        W99628  40.336  23.059  13.890
40335W        W99629   7.796  39.330  13.054
40336W        W99630  23.024  41.946   0.408
40337W        W99631  25.661  25.673  12.062
40338W        W99632  15.807  32.968   5.119
40339W        W99633  39.557   3.752   0.481
40340W        W99634  37.474  11.809   2.818
40341W        W99635  16.741  27.957   0.865
40342W        W99636  14.788  43.289  13.973
40343W        W99637   5.311  35.916   0.766
40344W        W99638  40.862  24.688  12.477
40345W        W99639  14.130  30.475   0.835
40346W        W99640  29.956  29.479   1.733
40347W        W99641  24.202  41.825   3.653
40348W        W99642  12.765  38.009   0.847
40349W        W99643  25.706   7.230   1.296
40350W        W99644  40.851  13.632  10.481
40351W        W99645  39.506  13.262  12.422
40352W        W99646  44.918  44.868   1.799
40353W        W99647  28.638  28.488   1.931
40354W        W99648  11.826  14.303   0.887
40355W        W99649  34.581  44.450   1.304
40356W        W99650  10.773   5.308   1.290
40357W        W99651  26.596   3.217   3.824
40358W        W99652  41.403  38.982  13.907
40359W        W99653  18.731  24.995  14.321
40360W        W99654   8.895  29.439  11.590
40361W        W99655   9.650  12.222  13.412
40362W        W99656  43.777  13.135  11.855
40363W        W99657   0.851  34.027  10.431
40364W        W99658  37.072  17.691   2.209
40365W        W99659  14.144   8.221  11.382
40366W        W99660  10.846   8.402  11.974
40367W        W99661  15.736  29.529  12.494
40368W        W99662  40.356  39.927   2.222
40369W        W99663  13.285  25.188   0.850
40370W        W99664  14.129  20.763   1.757
40371W        W99665   8.776  42.385  11.117
40372W        W99666  25.482  39.924  13.019
40373W        W99667  18.560  29.071  12.420
40374W        W99668  13.799  26.683   5.110
40375W        W99669  16.761  19.638   0.457
40376W        W99670  42.326  36.359   1.749
40377W        W99671  33.077  26.160   0.400
40378W        W99672  25.013  24.226   1.372
40379W        W99673  15.749   7.197   1.433
40380W        W99674  18.079  39.812   4.283
40381W        W99675  25.484  42.843   2.895
40382W        W99676  20.132  19.271   2.376
40383W        W99677  18.565  21.600   0.412
40384W        W99678   5.438  26.671   4.650
40385W        W99679   3.740  38.928   1.876
40386W        W99680   4.384  30.923  10.998
40387W        W99681  39.901  17.214  13.499
40388W        W99682  13.640   8.278  14.334
40389W        W99683  41.881  33.075  12.538
40390W        W99684   3.238  29.429  14.385
40391W        W99685  28.931  12.732   1.847
40392W        W99686  42.809  12.704  14.884
40393W        W99687  19.136  35.417  11.579
40394W        W99688   7.307  18.122   1.443
40395W        W99689   9.163  36.866   2.846
40396W        W99690  24.987   2.330   2.419
40397W        W99691   3.363  14.791   3.803
40398W        W99692   7.707   8.706  14.967
40399W        W99693  29.006  32.584  11.055
40400W        W99694  30.114  34.531   4.231
40401W        W99695  18.615  44.867  14.986
40402W        W99696  10.877  43.825   4.598
40403W        W99697  18.771  15.697  13.860
40404W        W99698  37.852  40.890   2.789
40405W        W99699  34.003  33.498  13.878
40406W        W99700   1.416   0.927   5.678
40407W        W99701   4.820  31.490   2.812
40408W        W99702  40.319  43.431  13.538
40409W        W99703   3.293  36.059  12.992
40410W        W99704  37.882   3.831   3.219
40411W        W99705   1.858  28.034  12.928
40412W        W99706  21.109  39.811   3.153
40413W        W99707  14.160   1.386  10.596
40414W        W99708  44.430  40.315   5.299
40415W        W99709  21.261  29.630  14.298
40416W        W99710  17.686  37.834  11.045
40417W        W99711   6.676  29.940   2.687
40418W        W99712  15.785  10.712  13.320
40419W        W99713  10.812   7.410  11.402
40420W        W99714  21.755  32.063   2.319
40421W        W99715  12.757  31.594  12.458
40422W        W99716   7.812   3.925  10.574
40423W        W99717  17.145  19.770  11.601
40424W        W99718   1.815   8.186   4.805
40425W        W99719   7.741  10.211  13.939
40426W        W99720  25.118  19.631  10.623
40427W        W99721  23.050  35.450   3.316
40428W        W99722  42.881  35.949  10.498
40429W        W99723  14.192  40.447  14.421
40430W        W99724  31.503  21.163   4.139
40431W        W99725  21.658  26.097   1.800
40432W        W99726  36.571  21.520   2.308
40433W        W99727  22.227  16.795  13.927
40434W        W99728  17.210  27.135   2.755
40435W        W99729   0.483   7.691  10.509
40436W        W99730   5.425  29.475  11.947
40437W        W99731  40.376  27.623   1.355
40438W        W99732  43.500  41.903   1.747
40439W        W99733  32.573   5.350  10.468
40440W        W99734  33.987  31.962   2.354
40441W        W99735  27.158   9.652   5.795
40442W        W99736  35.989   8.283  12.373
40443W        W99737  36.985  28.165  12.050
40444W        W99738  43.506  21.609   2.753
40445W        W99739   3.929  19.590   0.443
40446W        W99740  34.912   0.975  10.490
40447W        W99741  32.558  39.946   2.318
40448W        W99742  34.912  42.341   1.363
40449W        W99743  21.048  42.396  14.459
40450W        W99744   2.809   2.448  11.469
40451W        W99745  14.718   1.458  14.287
40452W        W99746  21.656  12.229   0.442
40453W        W99747  37.844  25.196   4.674
40454W        W99748  18.550   7.889   4.215
40455W        W99749  40.867  18.619  14.959
40456W        W99750  26.468  31.109  11.001
40457W        W99751  42.373   4.729  13.317
40458W        W99752  10.300   9.782   1.816
40459W        W99753  10.687  13.299  12.972
40460W        W99754  22.551   3.757   3.343
40461W        W99755  32.531  21.168   0.355
40462W        W99756  22.721  16.794  13.472
40463W        W99757  21.751  31.467   2.416
40464W        W99758  24.189  11.297  14.000
40465W        W99759  37.430  12.202   2.802
40466W        W99760  21.144   4.846  13.001
40467W        W99761   9.711  41.945   2.883
40468W        W99762   8.755  17.268   2.417
40469W        W99763  13.117  42.446   1.856
40470W        W99764   9.373  25.644  14.986
40471W        W99765  40.397   1.415  11.011
40472W        W99766   9.159   5.382  14.945
40473W        W99767   1.813   6.414  11.086
40474W        W99768  22.639  38.889   0.957
40475W        W99769  28.140   1.764   2.219
40476W        W99770  15.737   7.864   1.435
40477W        W99771  32.045  19.041  12.375
40478W        W99772  31.419  39.474  12.487
40479W        W99773  20.688  23.142   4.133
40480W        W99774  27.622  23.151   4.832
40481W        W99775  18.674  14.301   2.407
40482W        W99776  19.194  16.632  10.590
40483W        W99777  35.009  17.647  14.388
40484W        W99778  21.151   5.316  12.489
40485W        W99779   9.851  25.539   2.304
40486W        W99780  28.624  26.165   4.755
40487W        W99781  35.944  31.595  13.968
40488W        W99782  31.072  16.656   2.412
40489W        W99783  42.878  29.064   4.208
40490W        W99784  18.692   7.336  12.525
40491W        W99785  21.689  26.952  14.495
40492W        W99786  40.327   6.343  14.291
40493W        W99787  23.222  36.075   3.315
40494W        W99788  10.161   2.784  10.984
40495W        W99789  37.893   2.238  14.827
40496W        W99790  11.220  12.180  13.946
40497W        W99791   8.301  41.962  14.509
40498W        W99792  35.080  20.171   3.327
40499W        W99793  41.451  27.969   3.808
40500W        W99794  29.089  16.243   3.199
40501W        W99795  38.507  18.213   0.933
40502W        W99796  22.114  44.281   0.307
40503W        W99797  21.018   8.230  13.806
40504W        W99798  35.415  34.506   1.448
40505W        W99799  38.512  42.881   0.749
40506W        W99800  17.631  42.449   1.422
40507W        W99801  15.664  21.699  12.016
40508W        W99802  23.691  34.107  12.966
40509W        W99803  23.986  35.918   9.961
40510W        W99804   6.262   6.815  14.459
40511W        W99805  33.944  31.610   0.733
40512W        W99806  18.604  40.814   4.837
40513W        W99807   4.377   4.381   4.154
40514W        W99808   6.775   8.780  14.442
40515W        W99809  22.219  33.572  13.985
40516W        W99810  38.995  28.532   0.403
40517W        W99811  19.164  42.339   2.690
40518W        W99812   7.199  12.311  12.989
40519W        W99813   8.811  42.985  13.044
40520W        W99814  39.917  18.647   4.683
40521W        W99815  35.856  23.526  10.931
40522W        W99816  14.147  40.524   3.283
40523W        W99817  29.174  42.892  12.894
40524W        W99818  27.584  37.077   4.341
40525W        W99819  16.718  15.592  14.955
40526W        W99820   1.888  28.012   2.819
40527W        W99821  23.567  40.373  11.576
40528W        W99822  11.350  19.067   0.859
40529W        W99823  43.486  19.274  13.061
40530W        W99824  35.517  34.556   1.807
40531W        W99825  24.063  24.180   3.781
40532W        W99826  32.465  20.762   4.276
40533W        W99827  11.749   7.201   1.305
40534W        W99828   1.787  37.453  14.784
40535W        W99829  30.040  22.200  14.457
40536W        W99830  44.975  27.494  13.373
40537W        W99831   5.856  11.267  11.929
40538W        W99832   0.903  22.717  12.862
40539W        W99833  13.301  13.295   4.717
40540W        W99834  18.053  34.922  13.876
40541W        W99835  26.477   3.816   4.772
40542W        W99836   4.337  24.028  13.548
40543W        W99837   6.863   3.836  12.063
40544W        W99838  20.171  28.676  13.516
40545W        W99839  15.131  39.897  14.946
40546W        W99840  13.344  32.629  10.008
40547W        W99841   3.444  31.099   1.872
40548W        W99842  38.437  36.050  12.476
40549W        W99843  11.634   6.377  12.864
40550W        W99844  39.342  36.877   1.367
40551W        W99845  33.392  43.811  13.488
40552W        W99846  26.986  23.736   1.734
40553W        W99847   7.753   7.311  11.566
40554W        W99848  21.189   9.392   2.340
40555W        W99849  37.397   0.263   1.400
40556W        W99850   0.765  24.101  12.007
40557W        W99851  34.521  23.013   1.769
40558W        W99852   6.709  41.807   2.396
40559W        W99853  11.747  43.785   0.795
40560W        W99854  20.739  15.682  11.002
40561W        W99855  22.578  44.488  14.987
40562W        W99856   9.321  29.429   9.997
40563W        W99857   1.322   8.735  12.973
40564W        W99858  39.923  19.657  10.987
40565W        W99859  11.343  15.131   0.893
40566W        W99860   4.781  13.317   3.686
40567W        W99861  27.564  39.906   0.279
40568W        W99862  33.876   2.736  11.128
40569W        W99863  37.359  43.844   1.256
40570W        W99864  33.092  44.910   4.254
40571W        W99865   6.894  41.891   2.818
40572W        W99866   5.360   5.817   4.162
40573W        W99867  34.535  35.973  11.384
40574W        W99868  43.817  14.321   1.416
40575W        W99869  20.118  18.205   0.288
40576W        W99870   4.884  42.350   3.690
40577W        W99871  28.503  37.912   5.256
40578W        W99872  17.228   1.345   3.330
40579W        W99873  23.655  28.533  14.881
40580W        W99874  30.559  20.725   1.329
40581W        W99875  29.562  24.171   0.256
40582W        W99876   8.244  38.499  10.610
40583W        W99877  16.748   1.307  10.895
40584W        W99878  25.127  43.893  13.809
40585W        W99879  31.550  35.910  11.604
40586W        W99880  27.550   4.876   3.803
40587W        W99881  41.388  44.971   3.731
40588W        W99882  36.516  44.798   2.751
40589W        W99883  21.251  42.974   3.836
40590W        W99884  12.629  12.272   4.816
40591W        W99885  23.225  14.708   4.618
40592W        W99886   7.289  42.014   1.270
40593W        W99887  42.981  17.607  14.373
40594W        W99888  35.920  37.855   1.744
40595W        W99889  40.840  39.461  12.563
40596W        W99890  35.407  24.074   2.373
40597W        W99891  25.990  20.628   1.214
40598W        W99892   8.192  20.227   4.755
40599W        W99893  39.886  11.216  10.430
40600W        W99894  23.494  39.869  11.436
40601W        W99895  42.915  32.057  14.298
40602W        W99896  19.130   1.251  11.084
40603W        W99897  20.134  19.206  10.562
40604W        W99898  44.285   2.827   5.286
40605W        W99899  31.086  15.818   4.226
40606W        W99900  32.519  37.364  14.861
40607W        W99901  24.500  37.392  13.951
40608W        W99902   1.843  32.978  11.018
40609W        W99903  22.055  29.484   0.751
40610W        W99904  38.887  21.707   4.134
40611W        W99905  19.198  44.877  10.542
40612W        W99906   2.947   8.384   3.633
40613W        W99907   4.873  25.554   0.420
40614W        W99908  35.358  19.155  14.926
40615W        W99909  19.151  31.030   1.379
40616W        W99910  44.806  34.056   0.405
40617W        W99911   3.797   8.821  11.119
40618W        W99912   0.972  24.509  12.007
40619W        W99913  23.668  26.679   0.941
40620W        W99914  24.625  38.039   2.363
40621W        W99915  22.731  27.145  12.485
40622W        W99916   5.812  41.791  13.889
40623W        W99917  29.042  17.114  10.620
40624W        W99918  14.110  24.215   4.308
40625W        W99919   2.337  21.237  10.598
40626W        W99920  20.734   7.400   1.278
40627W        W99921  22.727  24.199  12.510
40628W        W99922  24.184  39.873  12.860
40629W        W99923  14.138  40.429  11.007
40630W        W99924  16.271  36.949  11.418
40631W        W99925  14.648  18.171   4.217
40632W        W99926  11.791  43.884   3.801
40633W        W99927   8.716   8.298  13.547
40634W        W99928  27.586  16.711   3.249
40635W        W99929  27.479  37.973   0.411
40636W        W99930  44.802  14.218   0.942
40637W        W99931  27.490  43.453  11.396
40638W        W99932   9.777  44.272   2.807
40639W        W99933  13.173  21.616  11.862
40640W        W99934   5.347  31.485  11.049
40641W        W99935  44.443  32.031  11.396
40642W        W99936  12.818   7.831   1.379
40643W        W99937  13.129  13.683  12.906
40644W        W99938  33.111  33.382  11.571
40645W        W99939   4.238   2.328  11.040
40646W        W99940  35.482  13.351   3.220
40647W        W99941  13.108  44.359   4.176
40648W        W99942   4.848  39.046   1.858
40649W        W99943  19.177  34.418  10.470
40650W        W99944   6.831  30.602  12.442
40651W        W99945   7.344  16.155   2.707
40652W        W99946  42.788  38.333   3.154
40653W        W99947  39.543  24.640  11.546
40654W        W99948  14.288  35.955  11.099
40655W        W99949  15.093  42.941   0.425
40656W        W99950  17.098  43.846  11.474
40657W        W99951  28.030  42.484   3.803
40658W        W99952  44.780   1.381  12.454
40659W        W99953  29.949   3.833   0.408
40660W        W99954   1.929  23.614  11.894
40661W        W99955  22.221  22.683   3.741
40662W        W99956  23.157  20.097  11.953
40663W        W99957  19.599  38.485   0.426
40664W        W99958  25.538   7.691   1.736
40665W        W99959   9.876  33.545  11.485
40666W        W99960  43.870   5.746  12.349
40667W        W99961  37.982   2.868  12.028
40668W        W99962  33.495  12.119   1.391
40669W        W99963  36.043   5.779   1.729
40670W        W99964   9.666  36.922  13.536
40671W        W99965  31.616  17.790   0.252
40672W        W99966  17.092   2.769  14.816
40673W        W99967  20.560  15.724  11.581
40674W        W99968   4.850   0.794   2.883
40675W        W99969  41.789  20.639   3.237
40676W        W99970  31.647   0.847  14.834
40677W        W99971  44.939  41.914  11.075
40678W        W99972  22.116  12.189  11.525
40679W        W99973   0.447  29.629   0.321
40680W        W99974  27.195  18.189   0.906
40681W        W99975  42.820  19.129  13.411
40682W        W99976  21.123  14.625  10.516
40683W        W99977   5.255  12.683   4.788
40684W        W99978   9.848  39.981  11.453
40685W        W99979  29.446  24.010  13.388
40686W        W99980  23.688  27.633  12.504
40687W        W99981  25.083  41.032   4.269
40688W        W99982  14.333  34.888   3.868
40689W        W99983  22.671  35.419  11.444
40690W        W99984  41.362  16.587   0.276
40691W        W99985  35.446  42.381   2.896
40692W        W99986  35.881  18.107   3.173
40693W        W99987  28.152  21.615  14.913
40694W        W99988  34.549  35.932  11.118
40695W        W99989  36.488  44.288  13.459
40696W        W99990  14.653  33.402   3.329
40697W        W99991   0.927  21.699   3.674
40698W        W99992   2.882  27.643   2.716
40699W        W99993  13.199   3.922   4.180
40700W        W99994   6.427  28.461  13.487
40701W        W99995  17.120   8.791   3.646
40702W        W99996  22.682   2.767  12.045
40703W        W99997  26.122  12.314   0.753
40704W        W99998  15.216  13.656   0.780
40705W        W99999  36.429  30.479   2.860
40706W        W    0  28.093  44.494  12.512
40707W        W    1  43.349  14.610  14.837
40708W        W    2  21.067  44.501   3.833
40709W        W    3   4.912  22.042   2.241
40710W        W    4   7.374  22.120   1.750
40711W        W    5  35.906   3.827  12.915
40712W        W    6  29.593  17.067   5.280
40713W        W    7  16.626   9.698  11.509
40714W        W    8  14.749  35.377   4.737
40715W        W    9  36.406  17.092  10.125
40716W        W   10  34.928  39.862  10.645
40717W        W   11   6.846  24.214   1.851
40718W        W   12  28.035  33.606   5.223
40719W        W   13   6.808  31.116  14.920
40720W        W   14  21.604   8.901  14.995
40721W        W   15  34.389  26.620   4.669
40722W        W   16  39.364  42.856  10.600
40723W        W   17  41.416  37.450   3.866
40724W        W   18   6.217  25.594  12.447
40725W        W   19   8.778  36.859  13.424
40726W        W   20  17.704  35.050   0.252
40727W        W   21  29.658  34.062   0.374
40728W        W   22  25.128  21.099   1.276
40729W        W   23  12.689   3.842  10.524
40730W        W   24   7.262  38.539  14.826
40731W        W   25  20.568  21.133  11.415
40732W        W   26  37.561  30.932   2.769
40733W        W   27  16.811  43.323   3.782
40734W        W   28  17.673  22.509   2.249
40735W        W   29  11.684  10.314   1.281
40736W        W   30  39.950  41.025  10.635
40737W        W   31  32.560   2.388   1.410
40738W        W   32   3.285   7.221  12.995
40739W        W   33  21.142  23.609  12.441
40740W        W   34  13.285  43.900   1.722
40741W        W   35  20.628  27.474   3.364
40742W        W   36  25.494  31.573   2.354
40743W        W   37   6.705   6.286  14.776
40744W        W   38   9.801  19.146   3.639
40745W        W   39  13.136  26.700   4.663
40746W        W   40  18.269  37.965  11.591
40747W        W   41  43.881  20.683   2.228
40748W        W   42   4.343   2.770   0.870
40749W        W   43   3.292  22.205   1.768
40750W        W   44  19.589  22.215  13.480
40751W        W   45  34.566  40.892  14.501
40752W        W   46   5.807   9.702   3.718
40753W        W   47  16.247  18.569  13.336
40754W        W   48  40.003  20.080  11.489
40755W        W   49  23.723  25.564  11.938
40756W        W   50  37.375  32.613   4.139
40757W        W   51  42.381  12.217  11.083
40758W        W   52   1.744  26.078  11.578
40759W        W   53  12.834  14.766  13.355
40760W        W   54   8.848  44.484  13.904
40761W        W   55  23.109  16.165  10.506
40762W        W   56  34.058  13.810   0.283
40763W        W   57  43.475  11.666   0.449
40764W        W   58  24.152   2.262   0.298
40765W        W   59  43.282   2.763   0.338
40766W        W   60  34.110  21.260  10.635
40767W        W   61  14.324   6.741  10.543
40768W        W   62  21.647  41.851   1.825
40769W        W   63  19.628  42.297   0.943
40770W        W   64   2.878  29.008  13.914
40771W        W   65   1.860   8.760  11.410
40772W        W   66   8.196  13.269  11.071
40773W        W   67  16.628  36.097  14.801
40774W        W   68  40.477  44.474   2.890
40775W        W   69   6.689   6.748  14.341
40776W        W   70  12.826   5.775  14.385
40777W        W   71  42.483  16.315   3.268
40778W        W   72  41.340  13.130   1.837
40779W        W   73   8.803  15.305  13.958
40780W        W   74  41.925  40.002   4.769
40781W        W   75  35.973   4.865  11.543
40782W        W   76  37.516  22.646  12.418
40783W        W   77  27.082  38.901   1.875
40784W        W   78  29.020  15.324  12.976
40785W        W   79  43.274  37.522   1.215
40786W        W   80  43.446  42.997   0.287
40787W        W   81  15.691   8.163  12.555
40788W        W   82  35.544   2.227   1.333
40789W        W   83  15.612  30.426   3.668
40790W        W   84  30.020   2.821  13.380
40791W        W   85  27.469  36.580   5.274
40792W        W   86  28.640  14.230  13.866
40793W        W   87  37.052  38.560  14.865
40794W        W   88  31.606  26.526  12.996
40795W        W   89  43.355   8.862   3.681
40796W        W   90  23.490  36.945  13.405
40797W        W   91  35.929   5.297  14.875
40798W        W   92  18.274   1.357   0.299
40799W        W   93   9.324  23.550  14.304
40800W        W   94   4.324  34.467  14.849
40801W        W   95   0.348  40.475  14.858
40802W        W   96  27.106   3.308   2.352
40803W        W   97  32.581  12.845  13.525
40804W        W   98  12.233   7.803  14.513
40805W        W   99  31.085  10.766   1.933
40806W        W  100  31.617  21.577   1.757
40807W        W  101  43.801   1.924   2.344
40808W        W  102  30.557  43.926   4.780
40809W        W  103  15.274   4.733  11.048
40810W        W  104  44.988  39.508  10.472
40811W        W  105  17.287  40.835   0.753
40812W        W  106  10.140   9.655  13.366
40813W        W  107  18.219  32.085  14.289
40814W        W  108   0.970  10.739   0.729
40815W        W  109  24.015   6.294  13.917
40816W        W  110  32.930  17.631  14.425
40817W        W  111  24.026  35.379   2.736
40818W        W  112  32.592   6.268   0.474
40819W        W  113  40.389   2.958   1.372
40820W        W  114   6.715  40.827   4.278
40821W        W  115  23.109  35.442  11.992
40822W        W  116   7.705  12.809   4.332
40823W        W  117  39.904  14.269   3.182
40824W        W  118  22.237  24.581   3.312
40825W        W  119  39.899  34.445   1.866
40826W        W  120  26.027  27.159  12.383
40827W        W  121   6.835  42.908  12.990
40828W        W  122  33.000  40.047   2.368
40829W        W  123   2.824  25.177  11.973
40830W        W  124  20.123  25.208   0.865
40831W        W  125  10.150  41.794   2.900
40832W        W  126   3.398  30.501   1.360
40833W        W  127  25.005  13.263   4.644
40834W        W  128  40.017  40.999   3.245
40835W        W  129  42.369  32.627  14.406
40836W        W  130  26.992  15.222   0.932
40837W        W  131  31.943   0.393   1.227
40838W        W  132  12.289  35.397   1.861
40839W        W  133   1.907  20.199   1.327
40840W        W  134  18.547  28.111   9.941
40841W        W  135  35.459  36.489  14.955
40842W        W  136  19.750   3.291  13.478
40843W        W  137  38.906   5.213  14.978
40844W        W  138  38.865  29.972   9.976
40845W        W  139  31.417  10.743  11.412
40846W        W  140  19.231  39.555  12.485
40847W        W  141  35.509   8.891   0.821
40848W        W  142  22.197  32.576  14.939
40849W        W  143   9.199   7.367  10.539
40850W        W  144  11.763  41.836   1.392
40851W        W  145  38.823  33.021   3.189
40852W        W  146   1.296  26.602   1.746
40853W        W  147  29.085   3.888   3.185
40854W        W  148   7.870   4.812  14.475
40855W        W  149  24.513   5.246  13.538
40856W        W  150  32.954   6.230   2.840
40857W        W  151  14.694  18.090  12.512
40858W        W  152  40.360  22.213   1.212
40859W        W  153  28.624  43.298   4.265
40860W        W  154  37.465   0.789  11.113
40861W        W  155  28.644   7.175   4.318
40862W        W  156  13.326   5.379   1.764
40863W        W  157  10.666  35.469   5.169
40864W        W  158  13.617   8.230  10.607
40865W        W  159  34.108   8.291  14.990
40866W        W  160  25.017  43.994  12.389
40867W        W  161  39.330  18.558  11.572
40868W        W  162  32.610   5.390   0.439
40869W        W  163  22.109  20.706   1.260
40870W        W  164  44.417  33.031  13.419
40871W        W  165   7.855  38.932  11.372
40872W        W  166  17.158   5.305   4.198
40873W        W  167  41.949  31.461  14.816
40874W        W  168  41.852   2.803   2.323
40875W        W  169  28.008   1.814   5.158
40876W        W  170  29.958   8.719   2.737
40877W        W  171  36.390   4.448  11.530
40878W        W  172   9.713   2.292   4.838
40879W        W  173   9.841  22.236  12.528
40880W        W  174  39.470   8.203   0.272
40881W        W  175  12.194  19.669   2.339
40882W        W  176  43.959  30.116   4.328
40883W        W  177  15.172  34.007   4.352
40884W        W  178  30.527  17.622   2.271
40885W        W  179  23.535  19.246  14.786
40886W        W  180  16.145  16.616   9.666
40887W        W  181  22.006   1.939  14.310
40888W        W  182  12.301  12.834   2.768
40889W        W  183  11.284  25.059  13.906
40890W        W  184  18.057   0.917   3.646
40891W        W  185  13.128  24.212  12.527
40892W        W  186  12.279  38.852   4.810
40893W        W  187  14.626  14.603  11.025
40894W        W  188  35.408  12.143   1.307
40895W        W  189   2.770  33.440  12.011
40896W        W  190  40.412  14.631  12.014
40897W        W  191   2.440  16.577  11.576
40898W        W  192  34.615  28.125  12.032
40899W        W  193  33.528  41.341  12.085
40900W        W  194   8.237  10.780  11.593
40901W        W  195  41.403  21.544  11.383
40902W        W  196  13.801   5.241   1.765
40903W        W  197  34.865  26.677   2.339
40904W        W  198  42.301  21.652   3.705
40905W        W  199   6.690  29.452  13.849
40906W        W  200  21.072  38.326  14.889
40907W        W  201  25.594  15.806   4.202
40908W        W  202  30.449   4.264  13.995
40909W        W  203   4.700  32.524   0.852
40910W        W  204  27.512  16.660   1.723
40911W        W  205  43.976  15.322   0.417
40912W        W  206  23.626  28.087   4.212
40913W        W  207  17.688  21.701   1.868
40914W        W  208  38.364  39.333  12.035
40915W        W  209  20.533  25.545  12.385
40916W        W  210  34.055   0.801  11.091
40917W        W  211  28.164  11.802  12.533
40918W        W  212  39.854  10.292   0.854
40919W        W  213  33.496  19.076  13.370
40920W        W  214  34.479  44.910  11.489
40921W        W  215   6.194  18.208   1.725
40922W        W  216  19.108  36.068   3.336
40923W        W  217   1.410  13.263   4.333
40924W        W  218   6.194   4.864   2.407
40925W        W  219  29.131  17.581  14.510
40926W        W  220  16.705   0.378   0.441
40927W        W  221  12.216   7.757   2.736
40928W        W  222  19.084  37.888  14.422
40929W        W  223  32.616  18.068  14.333
40930W        W  224  30.007  36.981   1.710
40931W        W  225  14.165  19.666   2.798
40932W        W  226  27.175  26.081   4.729
40933W        W  227  25.212  37.381   3.374
40934W        W  228   8.198  13.659  10.557
40935W        W  229  12.350  24.705   4.117
40936W        W  230  31.145  12.686   5.168
40937W        W  231  40.515  33.514  14.908
40938W        W  232   1.383   3.255   1.701
40939W        W  233  31.086   7.826  14.017
40940W        W  234  27.959  23.051   0.317
40941W        W  235  44.457   8.861  13.997
40942W        W  236  38.894  39.445   2.384
40943W        W  237  16.140   1.374   3.802
40944W        W  238  23.700  37.930   2.350
40945W        W  239   5.200  12.210   2.722
40946W        W  240  37.525  37.482   2.399
40947W        W  241   1.392  44.916  11.999
40948W        W  242  38.893   2.257   1.699
40949W        W  243  26.687  29.455   2.390
40950W        W  244  17.657  25.522  13.894
40951W        W  245  35.930  28.150  10.529
40952W        W  246  19.182  11.766  12.921
40953W        W  247  21.172  39.475   1.836
40954W        W  248  33.557  37.080  10.930
40955W        W  249   4.395  40.041  14.276
40956W        W  250   3.267  18.665   1.244
40957W        W  251  17.294  15.612   3.760
40958W        W  252  33.421  42.518  12.914
40959W        W  253  31.036   6.901  13.384
40960W        W  254  33.528  16.693  11.537
40961W        W  255  13.175  25.122  12.372
40962W        W  256  30.439  11.817  11.947
40963W        W  257  20.638  22.607   4.616
40964W        W  258   3.250  23.606  12.482
40965W        W  259   7.399  18.563   4.643
40966W        W  260  13.347  25.986   2.761
40967W        W  261   8.705  15.179   4.686
40968W        W  262  10.838   5.419   0.734
40969W        W  263  23.603  12.657   5.221
40970W        W  264  38.899  29.575   0.843
40971W        W  265  21.512  33.615   1.799
40972W        W  266   5.690  14.669   4.306
40973W        W  267  19.725  19.165  11.442
40974W        W  268  29.668  15.310   3.200
40975W        W  269   0.762  36.396  11.936
40976W        W  270  19.265  27.065  14.817
40977W        W  271   5.923  13.325   3.274
40978W        W  272  36.435  40.488  11.584
40979W        W  273  28.161  42.027  11.064
40980W        W  274  29.001  21.667  12.904
40981W        W  275  28.102   0.806   5.206
40982W        W  276  24.601   8.190  13.976
40983W        W  277  29.948  18.273  13.042
40984W        W  278  41.538  11.247   4.200
40985W        W  279  10.862   6.267  11.970
40986W        W  280  43.340   0.949  12.048
40987W        W  281  14.330  37.484  11.538
40988W        W  282  37.446  34.980  14.464
40989W        W  283  36.405   1.972  10.409
40990W        W  284  31.111  17.106  13.333
40991W        W  285  30.009  12.161  12.541
40992W        W  286  25.033  36.869   2.352
40993W        W  287  26.582   7.828   0.847
40994W        W  288  11.800  17.631   0.849
40995W        W  289  28.963  37.873  12.826
40996W        W  290  21.121  39.409  13.453
40997W        W  291  39.908  23.582   3.221
40998W        W  292  40.514  24.723  11.872
40999W        W  293  15.631  38.957   2.888
41000W        W  294  31.638   5.430   4.202
41001W        W  295  19.044  10.344  10.431
41002W        W  296   2.245  14.110  14.340
41003W        W  297  37.406   8.886   2.309
41004W        W  298  34.507   4.937   1.381
41005W        W  299  16.240  26.463  13.970
41006W        W  300  12.681  15.639  13.359
41007W        W  301  17.706  11.152   0.930
41008W        W  302  28.485  13.333   2.234
41009W        W  303   5.255   6.275  11.951
41010W        W  304  37.060  44.904   0.845
41011W        W  305  25.684  31.495  12.977
41012W        W  306   6.878  44.316  14.275
41013W        W  307   9.266   2.894  11.927
41014W        W  308  33.488  12.685   0.914
41015W        W  309   4.739  23.012  12.536
41016W        W  310  31.953  26.042   0.845
41017W        W  311  36.381  25.558  14.942
41018W        W  312  33.558  31.037   3.746
41019W        W  313  34.514  40.311  14.403
41020W        W  314  39.959  43.847  11.419
41021W        W  315  31.038   3.368  13.491
41022W        W  316  24.048  23.635   4.273
41023W        W  317  10.730  23.717  11.373
41024W        W  318   5.405   1.303   1.429
41025W        W  319  32.057  23.537  11.563
41026W        W  320  30.536   7.363  11.608
41027W        W  321  13.242  13.660  12.388
41028W        W  322  10.245  17.196  10.637
41029W        W  323   6.788  36.571   0.886
41030W        W  324   4.784  43.334   4.275
41031W        W  325   0.828  42.889  13.476
41032W        W  326  30.468  26.967   4.768
41033W        W  327  24.678  41.531   0.269
41034W        W  328   3.458   0.312  10.896
41035W        W  329  27.648   3.841   2.687
41036W        W  330  10.334  42.431  11.499
41037W        W  331   5.399  13.759   2.355
41038W        W  332   9.728  34.925  13.013
41039W        W  333   7.791  42.385   1.777
41040W        W  334  35.068   0.452   3.863
41041W        W  335  40.886  37.405   9.947
41042W        W  336  30.958   3.920   0.243
41043W        W  337  39.380  20.732   0.339
41044W        W  338  34.580  29.981   1.442
41045W        W  339   5.703  30.435   2.700
41046W        W  340   8.690  19.190  14.769
41047W        W  341  44.839   6.221   1.354
41048W        W  342   3.896   3.288  11.426
41049W        W  343  11.778  33.928   3.863
41050W        W  344  36.524   0.319  12.345
41051W        W  345  43.355   8.184  14.015
41052W        W  346  14.188  22.062   2.902
41053W        W  347  14.695   5.865  14.469
41054W        W  348   4.869  11.682  11.892
41055W        W  349  35.871  32.983   2.694
41056W        W  350  28.610  18.145   2.723
41057W        W  351  10.235  33.538   2.256
41058W        W  352  25.624  32.483   2.347
41059W        W  353  20.562  42.322   1.404
41060W        W  354  14.201  23.060  14.279
41061W        W  355   4.361   4.930   0.765
41062W        W  356  42.845  17.670   3.182
41063W        W  357  19.135  11.373  13.909
41064W        W  358   8.693   7.711   0.434
41065W        W  359  17.763   5.731  12.544
41066W        W  360  22.618  13.702  12.066
41067W        W  361  19.675  11.649  12.999
41068W        W  362  14.321   0.352   1.241
41069W        W  363  37.418  14.685   1.303
41070W        W  364  12.816  14.175  10.985
41071W        W  365  29.087  10.835   0.842
41072W        W  366  16.808  30.652   3.680
41073W        W  367  19.153  32.547   4.698
41074W        W  368  39.898  28.144   1.770
41075W        W  369   9.702  37.390   3.785
41076W        W  370  43.354  34.983  12.870
41077W        W  371   7.320  13.724   3.709
41078W        W  372  35.048  33.043   2.896
41079W        W  373  32.911   1.373   2.349
41080W        W  374  37.039   3.929   2.375
41081W        W  375  23.000  18.285  10.486
41082W        W  376  40.378   1.798  10.033
41083W        W  377  23.204  13.791  11.893
41084W        W  378  17.166   8.703   1.830
41085W        W  379   0.870  15.750   1.423
41086W        W  380  29.541  25.053  14.393
41087W        W  381  24.983  36.586  13.836
41088W        W  382  31.004  40.996   3.327
41089W        W  383   7.366  32.104   3.707
41090W        W  384   7.679  20.573  10.899
41091W        W  385   2.323  16.315  13.902
41092W        W  386  18.102  26.468  12.440
41093W        W  387  13.827  43.484   3.360
41094W        W  388   2.892  28.153   1.222
41095W        W  389   8.325  36.998  10.460
41096W        W  390  24.509  17.195   2.414
41097W        W  391  27.948   4.405  10.058
41098W        W  392  44.928   2.365  11.930
41099W        W  393  18.750  32.082  12.538
41100W        W  394  16.249  11.281   4.189
41101W        W  395   1.471  27.980  14.368
41102W        W  396  28.151  43.489   2.406
41103W        W  397  20.578  20.747  11.948
41104W        W  398  29.503   7.274   4.283
41105W        W  399  40.355  34.064  12.519
41106W        W  400  24.127   8.750   5.082
41107W        W  401  37.914  29.026  12.016
41108W        W  402  16.628  38.856  12.079
41109W        W  403  33.908   1.796  11.607
41110W        W  404  13.734  25.571  11.406
41111W        W  405  19.692  36.585   3.741
41112W        W  406   1.754  29.040  13.935
41113W        W  407  31.640  23.081   1.765
41114W        W  408  28.135  38.857  12.429
41115W        W  409  28.437   3.307   2.800
41116W        W  410  37.525  15.588  14.438
41117W        W  411   8.301  19.670   1.769
41118W        W  412  37.506  28.487  13.909
41119W        W  413  32.986  36.938  11.545
41120W        W  414  20.587   0.899   3.742
41121W        W  415  36.591   1.736   3.195
41122W        W  416  39.017  28.639  11.498
41123W        W  417  42.820  38.472  11.405
41124W        W  418  35.983   2.357  10.952
41125W        W  419   5.767   6.710   4.639
41126W        W  420  31.472  24.044   4.777
41127W        W  421   6.305  19.050   1.270
41128W        W  422  20.267   3.946   1.787
41129W        W  423  26.142  36.584  13.339
41130W        W  424  37.901   3.859  14.288
41131W        W  425  19.120  32.136   3.334
41132W        W  426   0.879   6.693  10.530
41133W        W  427  30.911  38.038  11.520
41134W        W  428   1.944  28.519   4.278
41135W        W  429  11.841  29.650   4.342
41136W        W  430  37.910  25.976  13.345
41137W        W  431  17.609  30.063  14.485
41138W        W  432  18.717   0.951  12.830
41139W        W  433  35.046  19.545  10.544
41140W        W  434  29.038  23.635  13.819
41141W        W  435  10.214  39.327  10.554
41142W        W  436  27.955   2.895  10.546
41143W        W  437  21.208  22.694  10.500
41144W        W  438   9.768  18.650  11.504
41145W        W  439  21.682  10.336  11.989
41146W        W  440  25.168  21.677  11.033
41147W        W  441   8.303   6.844  10.523
41148W        W  442   7.829  29.945  12.937
41149W        W  443  20.248  17.299  10.455
41150W        W  444  30.605  32.143  12.437
41151W        W  445  10.795  37.501  10.614
41152W        W  446  30.090  20.723  10.533
41153W        W  447   8.736   8.901   0.477
41154W        W  448  38.406  23.493   1.894
41155W        W  449  31.071  24.073   1.725
41156W        W  450  18.745  15.217   0.804
41157W        W  451  33.479   4.290   5.237
41158W        W  452  30.441   3.842   4.759
41159W        W  453  41.031  13.323  12.835
41160W        W  454  26.114  39.489   4.135
41161W        W  455  28.948  21.128  12.422
41162W        W  456   4.940  41.320   2.888
41163W        W  457   6.183  35.016   0.392
41164W        W  458  43.412  30.574   0.770
41165W        W  459  11.258  44.485  11.061
41166W        W  460  24.100   7.316   1.403
41167W        W  461  39.862   2.347  14.388
41168W        W  462  32.478   2.881  12.826
41169W        W  463  26.504   6.343  12.828
41170W        W  464  40.440  14.804   0.424
41171W        W  465   9.651  17.233   3.751
41172W        W  466  41.499   9.255   1.374
41173W        W  467  25.098  40.322  13.468
41174W        W  468  20.624  18.240   0.836
41175W        W  469  11.712  11.656   3.199
41176W        W  470   2.465  14.138  12.846
41177W        W  471  40.018  10.379   1.815
41178W        W  472   9.859   5.831   0.792
41179W        W  473  12.212   9.793   3.753
41180W        W  474  35.602   8.270  11.015
41181W        W  475  39.982  21.692  12.873
41182W        W  476  26.963  44.794   2.667
41183W        W  477  17.188  15.280  11.451
41184W        W  478  16.083  39.399   3.180
41185W        W  479  39.028  14.794   4.337
41186W        W  480  13.174  16.775   0.901
41187W        W  481  43.356  17.203   0.961
41188W        W  482  21.153   2.912   1.783
41189W        W  483  17.265  14.263  13.470
41190W        W  484  17.593  28.498   3.767
41191W        W  485   3.377  12.177  12.504
41192W        W  486  13.632  16.808   4.314
41193W        W  487  36.348  31.019   0.861
41194W        W  488   6.308  41.472  13.026
41195W        W  489  34.013  22.233  13.029
41196W        W  490  20.120  10.674  14.351
41197W        W  491  32.526  37.968   3.148
41198W        W  492  33.977  41.867  11.875
41199W        W  493  11.647  24.174  14.466
41200W        W  494  30.602  29.020   1.332
41201W        W  495  23.097  37.999   1.797
41202W        W  496  14.771  15.251   3.770
41203W        W  497  21.045  41.915   3.870
41204W        W  498  37.908  26.696  10.095
41205W        W  499  37.922  34.882   4.628
41206W        W  500   0.879  11.256   1.818
41207W        W  501   4.382  43.945   2.318
41208W        W  502  22.168   8.401   3.287
41209W        W  503  21.648  35.552  13.384
41210W        W  504  14.102  13.691  14.418
41211W        W  505  19.743  11.217  14.389
41212W        W  506  24.198  34.394  12.991
41213W        W  507  14.292  10.158  11.960
41214W        W  508  13.241   2.965  11.909
41215W        W  509   9.322  16.624  10.601
41216W        W  510   4.280   2.781  13.956
41217W        W  511  14.340  14.654  11.479
41218W        W  512  23.644  32.092   3.236
41219W        W  513  34.886  29.470  11.423
41220W        W  514  12.135  32.398   4.683
41221W        W  515  29.998   6.863  10.617
41222W        W  516  19.236  31.125  12.031
41223W        W  517  12.303  40.345  11.923
41224W        W  518  37.335  37.532  14.490
41225W        W  519  26.022  26.127   2.369
41226W        W  520  36.846  38.070  14.764
41227W        W  521   5.425  26.092   3.739
41228W        W  522  10.240  34.882  13.308
41229W        W  523  20.695  40.511   3.655
41230W        W  524  38.968  36.092  12.486
41231W        W  525  32.554  19.670  10.571
41232W        W  526  31.073  39.968   3.167
41233W        W  527   7.891  32.484   3.828
41234W        W  528  36.084  33.884   4.653
41235W        W  529  39.024  30.433   4.290
41236W        W  530  31.109   6.287  10.445
41237W        W  531  42.518  13.778   1.864
41238W        W  532  33.413   6.880  11.422
41239W        W  533   9.851  39.481  12.567
41240W        W  534   3.444  23.216  14.961
41241W        W  535   1.839  32.483   3.280
41242W        W  536   4.246  31.116  14.315
41243W        W  537   4.206   8.215  12.925
41244W        W  538  10.872   0.298   4.202
41245W        W  539  36.398  39.926  13.968
41246W        W  540  36.363   5.791   3.193
41247W        W  541  36.085  43.293   1.262
41248W        W  542  28.146  30.075  14.942
41249W        W  543  24.571  13.138   0.761
41250W        W  544  29.531  25.598  14.464
41251W        W  545  24.661  26.006  12.025
41252W        W  546  26.042  21.257   0.476
41253W        W  547  26.094   9.264  13.511
41254W        W  548  41.389  36.984  10.013
41255W        W  549  23.548  43.864   1.243
41256W        W  550   8.210  31.922   2.370
41257W        W  551  28.142   1.909  10.463
41258W        W  552  15.729  13.610  13.908
41259W        W  553  34.383  12.659   4.337
41260W        W  554  37.561  43.809   4.630
41261W        W  555  34.553  10.835   3.680
41262W        W  556  36.517  18.284  13.986
41263W        W  557  21.110  34.570  12.036
41264W        W  558  19.062  19.680  11.909
41265W        W  559  24.711  19.713   3.678
41266W        W  560  33.883  43.930  13.836
41267W        W  561  35.369  10.363  11.918
41268W        W  562  12.164  12.316  13.310
41269W        W  563   5.877  18.100   4.311
41270W        W  564  34.503  20.125  12.345
41271W        W  565  25.085  31.593   4.344
41272W        W  566  13.147  36.010  11.918
41273W        W  567  27.445  35.910  11.423
41274W        W  568   4.824  29.042   3.865
41275W        W  569  11.181   3.813  12.903
41276W        W  570  12.689  35.523  11.388
41277W        W  571  29.155  30.002   1.759
41278W        W  572  35.599   1.405  11.529
41279W        W  573  43.771  36.894  13.357
41280W        W  574  13.643  37.964   4.793
41281W        W  575  30.544   4.430  14.761
41282W        W  576  26.121   7.257   1.854
41283W        W  577   4.238  30.457   3.155
41284W        W  578  27.580  26.472  11.987
41285W        W  579  18.233  27.508  10.456
41286W        W  580  40.435  25.041   2.265
41287W        W  581   8.691  20.172   5.782
41288W        W  582   1.828   4.793  14.330
41289W        W  583   7.201   1.427   0.930
41290W        W  584   5.432  42.781   0.772
41291W        W  585  43.419  26.966  13.016
41292W        W  586  25.589  29.575  10.893
41293W        W  587  11.777   9.773  13.993
41294W        W  588   2.733  21.212   0.244
41295W        W  589   1.274   5.429  12.002
41296W        W  590  30.434  16.779  14.394
41297W        W  591  30.456  19.751  14.277
41298W        W  592  31.646  22.130   4.711
41299W        W  593  44.804  17.706   1.354
41300W        W  594  39.414  41.940  14.499
41301W        W  595  15.739   4.330  13.352
41302W        W  596  38.430  42.316  12.445
41303W        W  597  35.924  26.684   2.415
41304W        W  598  23.691  29.491  10.633
41305W        W  599  21.747   2.737  12.533
41306W        W  600  14.629  27.450  10.560
41307W        W  601  25.592   2.248  12.490
41308W        W  602  24.991   7.176  12.554
41309W        W  603  27.077  38.383  10.596
41310W        W  604  18.630   3.941  14.906
41311W        W  605  26.056   9.350   1.758
41312W        W  606  40.935  11.698   4.670
41313W        W  607  32.123  31.484   0.761
41314W        W  608  44.461   1.275   1.266
41315W        W  609  10.161   3.416  11.081
41316W        W  610  34.983  39.353  13.409
41317W        W  611  33.068  43.914   0.741
41318W        W  612  32.121  20.689  12.850
41319W        W  613  25.012  32.132   3.217
41320W        W  614  31.505  28.676   0.422
41321W        W  615  12.706  24.561  13.397
41322W        W  616  28.978  17.100   4.242
41323W        W  617  23.643  41.388  10.633
41324W        W  618  25.552  20.240   3.791
41325W        W  619  36.068   2.323   4.626
41326W        W  620  43.828  28.582  11.020
41327W        W  621   1.426  16.590  14.816
41328W        W  622  37.844  32.461  10.091
41329W        W  623   5.857  32.078   1.738
41330W        W  624   2.794  14.219   2.284
41331W        W  625  42.503  30.470  11.509
41332W        W  626   1.475   1.433   1.262
41333W        W  627  14.248  41.329  11.117
41334W        W  628  31.633   0.310  13.475
41335W        W  629  36.901   6.763  11.903
41336W        W  630  27.687  42.800  10.545
41337W        W  631  28.468   7.680  13.469
41338W        W  632  35.599  11.748   1.236
41339W        W  633  13.288  42.952   0.755
41340W        W  634  38.401  34.097  14.470
41341W        W  635   5.368  34.515   0.851
41342W        W  636  32.126  25.216  11.929
41343W        W  637  31.947  21.613  13.526
41344W        W  638  23.007  30.604  14.303
41345W        W  639   7.191  15.697   2.346
41346W        W  640  31.410  13.751  10.637
41347W        W  641  29.015   2.910  11.984
41348W        W  642  11.812  11.270   1.804
41349W        W  643  34.894   3.416  13.888
41350W        W  644  25.142  18.754   3.699
41351W        W  645  42.003   2.369  13.944
41352W        W  646   6.405  17.219  13.064
41353W        W  647  19.254  27.024  10.571
41354W        W  648  38.485  30.450  14.329
41355W        W  649   5.203  27.653   2.841
41356W        W  650  18.141  10.815   3.829
41357W        W  651  33.422  35.431   1.844
41358W        W  652  16.316   3.379   0.343
41359W        W  653  24.186  14.315   1.242
41360W        W  654  26.486   9.714   3.368
41361W        W  655   6.250   0.334  12.984
41362W        W  656  11.755   6.217   2.688
41363W        W  657  23.067   2.884   3.817
41364W        W  658  36.537  26.557  14.445
41365W        W  659   4.714  18.236  14.963
41366W        W  660  24.005   5.298  12.999
41367W        W  661  25.063  30.052  11.528
41368W        W  662  25.510   4.900  12.001
41369W        W  663  36.579  41.496  13.866
41370W        W  664   4.769  28.679   4.748
41371W        W  665  42.775  20.751   0.450
41372W        W  666  44.996   3.763   5.218
41373W        W  667   7.703  12.622   3.866
41374W        W  668   0.368  42.007   0.446
41375W        W  669   4.862  27.978   1.253
41376W        W  670  42.021  16.586   0.263
41377W        W  671  15.745  25.501   3.684
41378W        W  672  34.941  25.594   4.817
41379W        W  673  36.393  44.775  13.955
41380W        W  674  37.916  13.178  11.458
41381W        W  675  12.349  26.542   1.311
41382W        W  676  24.625   9.344  13.494
41383W        W  677  25.090  43.809  11.907
41384W        W  678  37.451  24.999  13.022
41385W        W  679  39.550  36.574  14.907
41386W        W  680  32.535  41.399   4.300
41387W        W  681  28.002  22.119   2.344
41388W        W  682  26.662   6.711   1.703
41389W        W  683  17.078  33.464   1.758
41390W        W  684  10.813  19.624   0.369
41391W        W  685  44.994  37.036   2.845
41392W        W  686  39.975   0.815   1.392
41393W        W  687  31.603   5.843  12.580
41394W        W  688   9.670  29.081  13.914
41395W        W  689  13.628  15.148   4.218
41396W        W  690  38.364  22.733  13.938
41397W        W  691   6.775  34.937  12.448
41398W        W  692   5.736   4.713   4.306
41399W        W  693  36.083  20.610  11.873
41400W        W  694   7.765   2.460   1.715
41401W        W  695  39.880  35.590  14.493
41402W        W  696  14.825   8.300  13.458
41403W        W  697  39.505   2.443  14.814
41404W        W  698  20.663   5.298  14.954
41405W        W  699  23.228  23.514   3.754
41406W        W  700  15.325  27.449  11.409
41407W        W  701  10.724   3.383   4.128
41408W        W  702  37.463  39.362  12.008
41409W        W  703  14.701  26.571  11.880
41410W        W  704  21.092  32.394   0.748
41411W        W  705   7.191  14.101   0.442
41412W        W  706  18.273  22.049   0.438
41413W        W  707   6.886  34.928  14.351
41414W        W  708  17.159  37.402   5.179
41415W        W  709  12.829  39.459  11.468
41416W        W  710  30.982  23.539  13.374
41417W        W  711  10.644  35.972  11.427
41418W        W  712  12.733   4.767   4.261
41419W        W  713  19.741  31.625  14.507
41420W        W  714  29.580  29.491   3.750
41421W        W  715  32.434  38.994   0.918
41422W        W  716  17.593  35.403   4.683
41423W        W  717  20.600  31.931  14.886
41424W        W  718  31.064  35.454   3.281
41425W        W  719  30.625  23.599   4.611
41426W        W  720  17.254  14.609  13.822
41427W        W  721  15.149  18.118  14.032
41428W        W  722   5.351   5.397  11.394
41429W        W  723  31.907  32.537   3.293
41430W        W  724  13.610  32.514   1.259
41431W        W  725  23.161  44.878   4.145
41432W        W  726  37.404  38.542  10.414
41433W        W  727  33.016  20.056  14.856
41434W        W  728  15.185  22.662   4.341
41435W        W  729  17.258  20.686   1.748
41436W        W  730  26.989  36.454   3.235
41437W        W  731  31.409  27.023   1.886
41438W        W  732   6.777   7.235   3.163
41439W        W  733  29.968  26.698   4.242
41440W        W  734  22.134   2.325   1.421
41441W        W  735  12.676  40.433  14.025
41442W        W  736  44.882  33.951   1.768
41443W        W  737  41.321  14.308  11.094
41444W        W  738  40.937   8.281  13.319
41445W        W  739  35.003  36.987   4.215
41446W        W  740  22.665   3.878   1.386
41447W        W  741  21.137  29.543   2.671
41448W        W  742   6.237  27.572   0.431
41449W        W  743  18.788  28.610   3.649
41450W        W  744  16.085   3.286   4.651
41451W        W  745  44.982  20.566   4.820
41452W        W  746   6.913   8.374   1.917
41453W        W  747  38.010  14.628  11.442
41454W        W  748  38.396  40.526   1.319
41455W        W  749   6.864  34.113  12.860
41456W        W  750  19.589  21.237   2.350
41457W        W  751  25.047   5.852  11.044
41458W        W  752  22.733  39.963  13.857
41459W        W  753  19.535  11.676  14.798
41460W        W  754  41.298   0.493   4.607
41461W        W  755  20.229  35.387  12.505
41462W        W  756  12.339  21.602   3.634
41463W        W  757  18.142  20.114   3.246
41464W        W  758   8.821  18.167   2.749
41465W        W  759   5.694  39.421   3.786
41466W        W  760  12.797  20.756   4.634
41467W        W  761   7.405   1.316  14.414
41468W        W  762  38.545  44.260   3.360
41469W        W  763  29.144  32.934  12.521
41470W        W  764  15.773  43.351   4.234
41471W        W  765  16.289   3.230   4.305
41472W        W  766  15.717  30.424  12.045
41473W        W  767  16.134  23.013   3.365
41474W        W  768   6.287  22.543   3.842
41475W        W  769  20.063   0.746   0.951
41476W        W  770  36.923  18.101   4.306
41477W        W  771  10.741   2.364   1.696
41478W        W  772  36.374  17.791   4.279
41479W        W  773   3.253  18.552   0.417
41480W        W  774  25.673   2.420   1.401
41481W        W  775   5.773  12.125   3.636
41482W        W  776  35.557  12.150  10.593
41483W        W  777  21.135   9.792  13.326
41484W        W  778  14.335  32.950   2.185
41485W        W  779  28.012   3.444   0.851
41486W        W  780  35.986  13.715   0.273
41487W        W  781   5.379   2.774   4.295
41488W        W  782  22.226  26.085  14.806
41489W        W  783  32.134  22.668   4.206
41490W        W  784  39.936  26.106  11.085
41491W        W  785   2.835  32.904  14.417
41492W        W  786  19.668  36.439   2.802
41493W        W  787   7.359  31.492   9.461
41494W        W  788  13.673  30.939   2.794
41495W        W  789  26.678  16.289   2.186
41496W        W  790  42.524  41.801   4.232
41497W        W  791  43.442  29.615   3.207
41498W        W  792  26.611  34.019  14.009
41499W        W  793  42.326   7.830   3.380
41500W        W  794  27.100  38.501   3.676
41501W        W  795  40.472   2.966  13.976
41502W        W  796  37.369   3.913   4.633
41503W        W  797  26.968  14.692   1.317
41504W        W  798  40.815  26.187   1.818
41505W        W  799  40.505  24.990   5.267
41506W        W  800  40.055  44.442   2.384
41507W        W  801  25.174  38.495  13.542
41508W        W  802  42.508   9.273  11.975
41509W        W  803  43.917  44.501  14.968
41510W        W  804  18.566  42.887  14.328
41511W        W  805  13.636   3.879  10.928
41512W        W  806  11.314   5.838   2.408
41513W        W  807  23.126  35.441   3.737
41514W        W  808  31.510   8.239   1.714
41515W        W  809  13.806  18.161   2.391
41516W        W  810  36.479   8.328   3.277
41517W        W  811  38.421  28.591  10.999
41518W        W  812  40.930   9.818  11.466
41519W        W  813   1.375  26.527  12.027
41520W        W  814  25.036   9.365  10.491
41521W        W  815  19.248  41.002  14.439
41522W        W  816  38.896  44.504   1.931
41523W        W  817  26.135  37.570  12.558
41524W        W  818   7.876  35.532  12.437
41525W        W  819  18.115  26.528   2.865
41526W        W  820  44.000  35.384  11.477
41527W        W  821  29.953  34.104   4.285
41528W        W  822  23.131  43.308  14.874
41529W        W  823  16.601  33.612   4.115
41530W        W  824   9.252   4.295  14.303
41531W        W  825  35.471  35.462  14.883
41532W        W  826  17.148  13.641   4.237
41533W        W  827   2.877  37.382  11.549
41534W        W  828  27.061  28.985   3.332
41535W        W  829  24.046  28.461   1.722
41536W        W  830  10.337  39.910  13.968
41537W        W  831  26.987   4.305  12.446
41538W        W  832  42.856  39.899   1.353
41539W        W  833  40.866  44.418   3.247
41540W        W  834  20.080  15.656   2.190
41541W        W  835  16.694  11.843   0.962
41542W        W  836   9.645  30.569  12.410
41543W        W  837   2.244  26.163   3.194
41544W        W  838  14.207  30.071  14.835
41545W        W  839   3.320  17.596   1.875
41546W        W  840  15.185  37.900  14.280
41547W        W  841  44.431  22.089   1.451
41548W        W  842  18.107  34.071   2.857
41549W        W  843  17.221  36.857  13.060
41550W        W  844  35.517   5.797   4.324
41551W        W  845   2.827  38.946   3.226
41552W        W  846  15.699   9.373  13.959
41553W        W  847   2.966  24.994  14.435
41554W        W  848   0.431   2.252  13.902
41555W        W  849   1.842  12.756  13.064
41556W        W  850  30.581  30.012  11.447
41557W        W  851  34.399  14.288  13.478
41558W        W  852  41.824  42.338   1.831
41559W        W  853   4.391   0.922   4.825
41560W        W  854  44.354  28.065  14.912
41561W        W  855  17.083  10.677   0.955
41562W        W  856   8.195  29.031  12.484
41563W        W  857   4.328   3.898   1.214
41564W        W  858  23.062  35.516   4.328
41565W        W  859  27.971   9.818  10.496
41566W        W  860  43.790  13.745   0.454
41567W        W  861  17.583   7.867  13.343
41568W        W  862  12.718   6.204  13.040
41569W        W  863  31.898   7.283   0.771
41570W        W  864  13.156  18.060  12.056
41571W        W  865  16.072  24.704  14.786
41572W        W  866  35.382  26.975   0.373
41573W        W  867   7.683  23.162  12.909
41574W        W  868  28.045  33.874  12.562
41575W        W  869  17.270  37.565   0.863
41576W        W  870   4.920  39.435  12.001
41577W        W  871  11.626  42.316  13.847
41578W        W  872   6.783   8.235   3.834
41579W        W  873  44.269  35.495  13.539
41580W        W  874   5.370  20.669  13.431
41581W        W  875  41.507  24.531  14.288
41582W        W  876  37.028  40.001   3.768
41583W        W  877  30.061  19.198  13.808
41584W        W  878  20.168  22.056   2.310
41585W        W  879  30.104  38.511   5.209
41586W        W  880   3.948   5.439  11.973
41587W        W  881  43.971  19.545  11.911
41588W        W  882  27.674  11.184   0.728
41589W        W  883  38.991  39.385  11.515
41590W        W  884  38.503  27.525  12.935
41591W        W  885   8.222  40.921   4.776
41592W        W  886  12.236   1.323   4.626
41593W        W  887  19.069  26.186   4.639
41594W        W  888  38.475  29.491   0.377
41595W        W  889  16.774  43.909   3.747
41596W        W  890  15.147  25.014   0.417
41597W        W  891   0.386   6.726  14.773
41598W        W  892  38.849  12.754   1.787
41599W        W  893  41.444  41.920  12.830
41600W        W  894  16.192  11.826   2.712
41601W        W  895   3.826   2.877  14.851
41602W        W  896   1.331  43.427   0.923
41603W        W  897  26.186  10.271  12.413
41604W        W  898  26.514   7.784   4.834
41605W        W  899  37.472  38.483  12.884
41606W        W  900  29.939  18.050  14.934
41607W        W  901  36.888  41.451  10.504
41608W        W  902  30.948  17.598   0.750
41609W        W  903   7.747   5.276  11.889
41610W        W  904  14.284  15.667   3.741
41611W        W  905  29.552  33.546  10.105
41612W        W  906  41.849  31.898  14.446
41613W        W  907   0.813   0.264   5.586
41614W        W  908  30.458  22.531  12.956
41615W        W  909   3.888  12.782   4.172
41616W        W  910  30.511  32.017  13.462
41617W        W  911  33.914   9.676  11.577
41618W        W  912  15.262   9.725   5.129
41619W        W  913  26.066   1.971   0.427
41620W        W  914  25.643  35.544   3.650
41621W        W  915  31.079  36.930   3.348
41622W        W  916  23.502  15.154  13.940
41623W        W  917  36.503  19.249  11.455
41624W        W  918   1.411  20.151   2.749
41625W        W  919  26.639   1.892  10.615
41626W        W  920  19.745   9.644   3.782
41627W        W  921  44.790  31.474  10.639
41628W        W  922   1.881  14.101  13.060
41629W        W  923  28.627  44.449  11.008
41630W        W  924  43.297  39.453   1.214
41631W        W  925  12.690  22.541   4.284
41632W        W  926  20.643  30.114  12.538
41633W        W  927  18.769  18.596   1.216
41634W        W  928  15.104  17.661   2.355
41635W        W  929   0.756  34.028   3.635
41636W        W  930   2.405  22.636  10.940
41637W        W  931   9.334  25.020  11.410
41638W        W  932  25.199  18.782  14.291
41639W        W  933   2.751  11.644   0.424
41640W        W  934   9.846  42.990   1.908
41641W        W  935  32.919  39.465  10.542
41642W        W  936  37.905  16.577  13.053
41643W        W  937   7.716  33.487  13.479
41644W        W  938  11.643   8.363   1.769
41645W        W  939  27.601  40.448  13.836
41646W        W  940  23.671  13.677  12.536
41647W        W  941  15.130  11.692   0.444
41648W        W  942  30.112  23.045   1.724
41649W        W  943  17.181   7.221   0.419
41650W        W  944  44.802  33.477   2.813
41651W        W  945  43.827   9.710   1.270
41652W        W  946   8.783  32.931  13.322
41653W        W  947   1.959   3.886   0.448
41654W        W  948  18.689  31.985   4.651
41655W        W  949   4.344  18.726  11.107
41656W        W  950   0.264  34.439   3.702
41657W        W  951  22.518  44.973   3.321
41658W        W  952  39.844  23.618   1.356
41659W        W  953  38.880  42.332  12.900
41660W        W  954   2.857  33.593  11.425
41661W        W  955  42.997  10.663  14.428
41662W        W  956  27.102  31.573   2.788
41663W        W  957  31.445  27.081  10.523
41664W        W  958  10.822  33.971   0.333
41665W        W  959   2.239  22.595  11.885
41666W        W  960  35.461  39.435  12.948
41667W        W  961  33.921   2.872  13.394
41668W        W  962  25.150  15.163  14.504
41669W        W  963  34.989  13.819   1.422
41670W        W  964  35.366  37.866   9.972
41671W        W  965   0.907   7.683   4.315
41672W        W  966   6.809   1.899  11.942
41673W        W  967  23.001  17.655  12.913
41674W        W  968  40.418  26.614  10.118
41675W        W  969  19.670  15.115  11.611
41676W        W  970  21.626  24.089   4.599
41677W        W  971   9.890  35.422  11.867
41678W        W  972   8.231   0.292  12.397
41679W        W  973   3.390  17.661   4.236
41680W        W  974  43.950  12.638  10.964
41681W        W  975  10.718  22.096   0.448
41682W        W  976   5.737  19.669  13.968
41683W        W  977  12.628  26.951  11.580
41684W        W  978  13.135  38.528   4.825
41685W        W  979   5.371  27.096  13.826
41686W        W  980  28.452  21.168  10.521
41687W        W  981   1.245   8.171   0.354
41688W        W  982  44.992  10.146  14.766
41689W        W  983  21.182  36.914   4.332
41690W        W  984  35.443  40.018   1.843
41691W        W  985  23.652  43.516  11.980
41692W        W  986  24.713  42.930  12.574
41693W        W  987  44.819   9.665  13.865
41694W        W  988  28.482  42.843   0.351
41695W        W  989   6.260   5.766   0.867
41696W        W  990   1.814  10.329  14.314
41697W        W  991  23.999  43.373   3.638
41698W        W  992   2.912  30.520  10.897
41699W        W  993   8.839   3.423   2.361
41700W        W  994   7.228  42.937   0.819
41701W        W  995  37.560  11.366   3.237
41702W        W  996  34.569  28.557   4.161
41703W        W  997   9.153  12.305   2.389
41704W        W  998  32.632   7.311   2.725
41705W        W  999   3.332  26.203   3.651
41706W        W 1000  36.986  40.012  10.604
41707W        W 1001  18.057   0.933  11.926
41708W        W 1002  15.312  34.473  11.875
41709W        W 1003   9.152   0.320  12.529
41710W        W 1004  17.690   2.297  12.374
41711W        W 1005  41.314  43.465   1.386
41712W        W 1006  40.481   2.753   0.802
41713W        W 1007   3.755   4.712  10.633
41714W        W 1008  15.634  30.082  13.541
41715W        W 1009   3.439   5.726  11.512
41716W        W 1010  12.739   6.203   5.194
41717W        W 1011  38.023   9.328  10.084
41718W        W 1012  18.701   8.700  11.917
41719W        W 1013  38.914  17.560  11.524
41720W        W 1014  11.864  32.035  13.461
41721W        W 1015  19.630  27.447  11.409
41722W        W 1016  29.491  22.682  13.484
41723W        W 1017  33.586  41.034   3.177
41724W        W 1018  24.511  17.174   2.900
41725W        W 1019  28.142  43.306   0.886
41726W        W 1020  34.116   0.356   0.748
41727W        W 1021   3.446  31.937   3.336
41728W        W 1022  43.396  20.230  10.919
41729W        W 1023  24.983  40.006  14.779
41730W        W 1024  27.687  11.740   3.327
41731W        W 1025  32.141   8.195  11.515
41732W        W 1026  42.289   5.786  13.366
41733W        W 1027  25.075  28.137  12.055
41734W        W 1028   6.243   0.938   0.796
41735W        W 1029  19.143   4.343   1.854
41736W        W 1030  31.580  19.190  12.962
41737W        W 1031  19.538   7.879   3.364
41738W        W 1032  20.138   9.250   0.964
41739W        W 1033  21.561  37.870   2.346
41740W        W 1034   3.232  19.090  12.406
41741W        W 1035  29.993  23.596  13.832
41742W        W 1036   1.901   1.960   0.468
41743W        W 1037   4.802  18.061  13.963
41744W        W 1038  41.845  12.251  14.019
41745W        W 1039   8.365  33.117  14.807
41746W        W 1040  27.021  24.091   0.926
41747W        W 1041  12.264  39.859   0.825
41748W        W 1042  29.980  24.652   2.839
41749W        W 1043  41.025  15.640  10.556
41750W        W 1044   7.677  10.727  11.427
41751W        W 1045  39.318  22.124  11.528
41752W        W 1046  44.859  41.042   2.688
41753W        W 1047  43.427  36.560  12.091
41754W        W 1048   6.286   2.367   2.326
41755W        W 1049  19.766  25.124   0.396
41756W        W 1050  13.278  30.605   2.237
41757W        W 1051  33.507  37.408   1.903
41758W        W 1052  18.757   7.337   2.260
41759W        W 1053   3.799   1.283   4.151
41760W        W 1054   4.737  20.572  14.858
41761W        W 1055  43.776  20.155   2.211
41762W        W 1056  34.057  42.926  13.433
41763W        W 1057  25.000  22.638   2.734
41764W        W 1058  18.612  11.284  11.416
41765W        W 1059   8.392   6.678  14.794
41766W        W 1060  17.752  25.154  14.972
41767W        W 1061  11.844  15.611   0.277
41768W        W 1062   9.149  27.620  14.967
41769W        W 1063  10.142   3.784   1.441
41770W        W 1064  37.564  11.759  14.442
41771W        W 1065  44.475  39.982   5.317
41772W        W 1066  24.568  30.504  13.307
41773W        W 1067  43.809   6.198  12.403
41774W        W 1068  28.100  43.409   0.321
41775W        W 1069  36.447  28.471   4.823
41776W        W 1070  18.607  16.743   0.433
41777W        W 1071  19.660  26.134   4.819
41778W        W 1072  17.698   3.454   3.839
41779W        W 1073   3.906  43.910  10.902
41780W        W 1074  24.546  22.604  12.898
41781W        W 1075  23.492   8.880   0.456
41782W        W 1076  36.519   1.405  13.830
41783W        W 1077  32.489  32.475   1.292
41784W        W 1078   2.797   6.800  12.527
41785W        W 1079  31.937  31.035   4.338
41786W        W 1080   0.250  25.050  10.945
41787W        W 1081  37.078  24.622  10.998
41788W        W 1082  15.327  37.566  12.075
41789W        W 1083  32.035  10.205   4.224
41790W        W 1084  10.767  36.524  14.415
41791W        W 1085  43.995  39.914  10.544
41792W        W 1086   9.172  30.064   3.848
41793W        W 1087  27.651  10.771  13.308
41794W        W 1088  28.073  15.215  11.546
41795W        W 1089  35.599  34.397   4.822
41796W        W 1090   6.843  32.533  13.840
41797W        W 1091  10.360  18.169  10.951
41798W        W 1092  26.970  27.963  11.971
41799W        W 1093  24.478   6.366   4.797
41800W        W 1094  30.519  11.177  13.491
41801W        W 1095  24.662  15.200   0.798
41802W        W 1096  30.109  10.289  14.358
41803W        W 1097  38.427   6.341  12.381
41804W        W 1098  28.165  22.651   4.758
41805W        W 1099  39.043  31.612   4.238
41806W        W 1100  39.492  12.753   3.148
41807W        W 1101  16.079  37.937   2.878
41808W        W 1102  31.487  18.661   4.772
41809W        W 1103  22.513  41.860   1.371
41810W        W 1104   1.441  17.652   1.823
41811W        W 1105  21.186  37.846  14.806
41812W        W 1106  31.608  23.102   3.810
41813W        W 1107  15.296  16.729   3.328
41814W        W 1108  36.515  40.485   1.844
41815W        W 1109  39.403  16.213  11.004
41816W        W 1110  27.114  29.602   1.707
41817W        W 1111  17.167  18.099  11.869
41818W        W 1112  22.097  16.269   3.845
41819W        W 1113   3.278  15.108  10.501
41820W        W 1114  31.088   3.830   2.297
41821W        W 1115  43.885  24.622   4.204
41822W        W 1116  27.611  41.313  12.914
41823W        W 1117  16.115   4.241   2.801
41824W        W 1118  37.480   5.772   3.747
41825W        W 1119  12.287   6.303   4.654
41826W        W 1120  28.537   2.804  11.097
41827W        W 1121  40.993   8.724  13.518
41828W        W 1122  17.301  21.748  11.386
41829W        W 1123  38.436  23.499   2.890
41830W        W 1124  18.730  23.506   3.258
41831W        W 1125  35.987  26.464   3.715
41832W        W 1126   4.821  37.912   3.154
41833W        W 1127  13.176  41.533  14.431
41834W        W 1128  29.537  28.559  14.336
41835W        W 1129  34.019  11.629   2.697
41836W        W 1130   9.316  32.555  13.448
41837W        W 1131  29.527   2.424  14.442
41838W        W 1132  40.465  38.062   2.688
41839W        W 1133  14.631  41.522  12.571
41840W        W 1134  27.141  37.982  14.005
41841W        W 1135  22.670  27.540   2.791
41842W        W 1136   5.277  16.252  11.432
41843W        W 1137  34.106   6.798   2.757
41844W        W 1138  38.016  32.504   2.225
41845W        W 1139  38.508  24.555   2.224
41846W        W 1140  42.289   1.837   4.736
41847W        W 1141  44.863  42.944   3.697
41848W        W 1142  14.260  39.459   3.256
41849W        W 1143  24.721  27.515  11.872
41850W        W 1144  27.967  44.263   4.832
41851W        W 1145  17.303  24.541   2.285
41852W        W 1146  13.649   1.272  11.547
41853W        W 1147  12.338  40.534  13.844
41854W        W 1148   7.201  24.128  10.943
41855W        W 1149   8.291  26.641  12.569
41856W        W 1150  16.763  30.130   0.928
41857W        W 1151  20.749   7.224  12.000
41858W        W 1152  15.755  22.628   3.799
41859W        W 1153  28.005  27.988  14.393
41860W        W 1154  44.980  34.058   1.265
41861W        W 1155  25.022  37.500   1.308
41862W        W 1156  15.134  41.452   3.351
41863W        W 1157  14.240  23.613  11.592
41864W        W 1158  41.949   5.698  11.119
41865W        W 1159   1.286  39.412  13.443
41866W        W 1160  22.139  15.750   1.293
41867W        W 1161  40.944  36.436   3.296
41868W        W 1162  11.178  44.396  13.861
41869W        W 1163  37.004   3.299  11.557
41870W        W 1164  17.116   2.227   3.233
41871W        W 1165  20.725  29.577  13.352
41872W        W 1166  31.440  34.454  14.342
41873W        W 1167   9.194  24.209  10.905
41874W        W 1168  22.566  23.212  12.494
41875W        W 1169   9.780  29.540   4.267
41876W        W 1170  31.450   1.819  12.096
41877W        W 1171   8.217  34.031   2.898
41878W        W 1172  34.971   1.365  13.900
41879W        W 1173  41.329  20.224  11.894
41880W        W 1174   2.843  37.861  10.575
41881W        W 1175  19.251  19.254  12.960
41882W        W 1176  33.474  22.509   4.307
41883W        W 1177   1.969  27.950   4.773
41884W        W 1178  22.205  20.707   2.263
41885W        W 1179  36.359  21.053   0.403
41886W        W 1180  39.995  12.645   0.788
41887W        W 1181  18.277  38.854   3.783
41888W        W 1182  41.896   9.853   4.254
41889W        W 1183  33.507  19.584   3.177
41890W        W 1184  27.137  15.750   3.767
41891W        W 1185   2.274   6.883  13.381
41892W        W 1186  14.151  19.594   3.740
41893W        W 1187   3.830  31.937   1.240
41894W        W 1188  22.205  33.123   2.215
41895W        W 1189   4.403   9.886  14.760
41896W        W 1190  21.540  41.915   2.409
41897W        W 1191  41.387  10.760  12.352
41898W        W 1192  21.553  18.575  11.030
41899W        W 1193  12.622  44.767   4.224
41900W        W 1194  18.191  12.643   0.346
41901W        W 1195  37.494  40.902   4.188
41902W        W 1196  10.379  32.400  14.334
41903W        W 1197   7.258  25.124  11.605
41904W        W 1198   3.821  40.997   1.334
41905W        W 1199  34.881  34.509  13.498
41906W        W 1200  22.575  36.943   1.716
41907W        W 1201  28.018  36.016   2.190
41908W        W 1202   6.858   3.461  11.007
41909W        W 1203  40.797  11.808  14.828
41910W        W 1204  38.397  25.027  11.579
41911W        W 1205  39.900  37.355  11.069
41912W        W 1206  29.509  36.377   1.235
41913W        W 1207  11.333  33.474  13.324
41914W        W 1208   0.757  25.528   2.821
41915W        W 1209  35.084  29.526   4.174
41916W        W 1210  44.504  27.022  14.943
41917W        W 1211  24.000  10.663   5.314
41918W        W 1212   1.958  40.800   0.783
41919W        W 1213  16.283  20.581  11.456
41920W        W 1214   3.779  25.156  14.339
41921W        W 1215  14.676   7.357   1.909
41922W        W 1216   8.396  36.954  12.092
41923W        W 1217  22.712  12.669  12.398
41924W        W 1218  42.464  34.404   4.173
41925W        W 1219  43.410  12.118   4.174
41926W        W 1220   1.976  12.313   3.292
41927W        W 1221  17.281  19.190  13.382
41928W        W 1222  10.258  15.628   2.780
41929W        W 1223  17.698   0.435   0.381
41930W        W 1224   2.732   4.225   4.684
41931W        W 1225  42.778  36.581  11.096
41932W        W 1226  10.698   5.351   2.216
41933W        W 1227  13.138  11.244  13.326
41934W        W 1228  22.573  37.899  13.505
41935W        W 1229   9.265  37.391   0.803
41936W        W 1230  26.121  26.465  14.497
41937W        W 1231   3.894  43.282  13.369
41938W        W 1232  25.512  30.508   0.312
41939W        W 1233  44.505  15.188   3.739
41940W        W 1234   1.356  27.624   1.873
41941W        W 1235  43.494  38.059  10.958
41942W        W 1236  31.509  20.137  13.459
41943W        W 1237  37.046  35.997   3.330
41944W        W 1238  35.976  25.680  13.871
41945W        W 1239   7.238   5.273  14.851
41946W        W 1240  20.253  30.996   2.714
41947W        W 1241  23.567  43.271  10.552
41948W        W 1242  40.413  40.473   3.280
41949W        W 1243  36.015   8.661  14.835
41950W        W 1244  39.477  42.898  10.891
41951W        W 1245  29.047  40.047   2.391
41952W        W 1246  23.030  22.115   0.834
41953W        W 1247  36.467  22.593   4.182
41954W        W 1248  28.447  36.425  14.315
41955W        W 1249  23.603  17.679  11.890
41956W        W 1250  36.071  43.862  13.875
41957W        W 1251  24.189   7.276  12.375
41958W        W 1252  44.449  22.054   4.708
41959W        W 1253  39.037   8.269  11.858
41960W        W 1254  32.408  36.538  14.880
41961W        W 1255  37.929  36.852  13.898
41962W        W 1256  16.213  35.585  14.514
41963W        W 1257  25.007  19.162   1.250
41964W        W 1258  32.117  19.116  14.841
41965W        W 1259  34.604  31.554  11.022
41966W        W 1260   0.917  36.448   4.668
41967W        W 1261  43.765   6.377   3.791
41968W        W 1262  28.162  38.018   3.360
41969W        W 1263  32.997  35.567   2.856
41970W        W 1264  27.572  39.445   1.927
41971W        W 1265  28.966  31.967   0.762
41972W        W 1266   6.844   3.855  14.315
41973W        W 1267  38.001   4.444   0.739
41974W        W 1268  12.797   1.379   0.347
41975W        W 1269  13.247  29.512  11.004
41976W        W 1270  21.708  12.160  14.826
41977W        W 1271  11.198  17.228  14.309
41978W        W 1272  12.336  32.044  11.499
41979W        W 1273  40.414  41.512   1.218
41980W        W 1274  20.062  41.027  10.928
41981W        W 1275   7.710  29.520  13.481
41982W        W 1276  38.049  41.474   0.752
41983W        W 1277   6.751  13.218   0.949
41984W        W 1278  40.329  32.021   2.776
41985W        W 1279   9.780  40.430   1.763
41986W        W 1280  41.532   1.771  12.921
41987W        W 1281   7.839  24.992   0.940
41988W        W 1282  26.088  12.818   4.776
41989W        W 1283  29.945  39.323   1.709
41990W        W 1284  13.298  37.983   4.223
41991W        W 1285   3.822  23.515   0.871
41992W        W 1286   0.395  25.185   2.714
41993W        W 1287   0.293  31.069   4.598
41994W        W 1288  18.281  39.512  10.550
41995W        W 1289   9.781  41.376   0.761
41996W        W 1290  24.995  38.850  12.074
41997W        W 1291  11.817  28.580   2.889
41998W        W 1292   1.770  24.592  13.480
41999W        W 1293  24.983  30.907   3.334
42000W        W 1294   8.816  15.635  10.544
42001W        W 1295  12.151  22.710   4.697
42002W        W 1296  43.308  40.917   4.624
42003W        W 1297   6.805   4.734  13.379
42004W        W 1298  20.082  39.981   4.662
42005W        W 1299  21.744   0.749   2.398
42006W        W 1300  41.426  43.299  10.548
42007W        W 1301  39.921  38.570   3.663
42008W        W 1302  43.022  12.796   3.158
42009W        W 1303  29.920  26.702  12.962
42010W        W 1304  35.372  33.102   3.303
42011W        W 1305  15.099  37.057   4.695
42012W        W 1306  34.893  15.594  11.382
42013W        W 1307  38.892   2.359  13.933
42014W        W 1308   9.795  44.877  11.588
42015W        W 1309  29.154  14.316   4.603
42016W        W 1310  29.103  12.185   1.236
42017W        W 1311  24.023  11.208  14.464
42018W        W 1312   7.739  13.162  11.893
42019W        W 1313  16.126   7.788   0.776
42020W        W 1314  31.635  18.094  10.512
42021W        W 1315   7.273  12.326   0.363
42022W        W 1316  32.888  43.791  12.899
42023W        W 1317  21.087  34.009  10.556
42024W        W 1318  36.505  13.227   2.381
42025W        W 1319  29.980  24.647   1.257
42026W        W 1320  41.841  42.514   2.814
42027W        W 1321  13.832  28.012   4.254
42028W        W 1322  14.697  33.941  12.941
42029W        W 1323  32.055  14.181  14.422
42030W        W 1324  19.762   5.729  14.414
42031W        W 1325   1.734  41.493   2.413
42032W        W 1326  19.537  14.804   0.328
42033W        W 1327  28.158  33.107  13.395
42034W        W 1328  12.140  29.464   1.904
42035W        W 1329   5.438  35.961   4.343
42036W        W 1330  10.318  21.730   4.232
42037W        W 1331  27.596  17.297  12.488
42038W        W 1332  38.485  25.607  11.110
42039W        W 1333  35.505  12.203  14.415
42040W        W 1334   2.315  39.423  11.873
42041W        W 1335  39.947   6.199   0.326
42042W        W 1336  44.909  31.149   1.910
42043W        W 1337  26.555  18.130   9.927
42044W        W 1338   9.860  44.441   3.646
42045W        W 1339  28.549  19.568   4.136
42046W        W 1340  32.472   8.335   4.599
42047W        W 1341   9.687  19.078   0.810
42048W        W 1342   1.401   1.973  10.045
42049W        W 1343  35.435  15.271   1.279
42050W        W 1344   7.262  29.137   3.723
42051W        W 1345  39.056  13.832   2.686
42052W        W 1346  11.326   3.859   3.232
42053W        W 1347  30.431  25.570  14.294
42054W        W 1348   2.265  12.195   4.727
42055W        W 1349   0.799   0.872  12.910
42056W        W 1350  42.280  11.773  10.518
42057W        W 1351   8.882  20.107   1.377
42058W        W 1352  30.028  17.700  11.880
42059W        W 1353  38.360   2.466   4.824
42060W        W 1354  43.418  40.505  11.500
42061W        W 1355  27.147  42.986   5.234
42062W        W 1356  42.789  13.794   3.345
42063W        W 1357  34.384  39.537  10.428
42064W        W 1358  26.018   7.216   0.311
42065W        W 1359  42.854  24.619  10.941
42066W        W 1360   6.415  16.684  14.469
42067W        W 1361  16.291  29.577  12.041
42068W        W 1362  33.074  16.775   2.195
42069W        W 1363  42.449  15.784   4.214
42070W        W 1364  13.213  39.346   2.869
42071W        W 1365  34.428  44.854   0.852
42072W        W 1366   2.779  12.773  14.377
42073W        W 1367  32.918  11.682   3.254
42074W        W 1368  18.072   2.325   4.210
42075W        W 1369  32.603  38.897   1.337
42076W        W 1370  39.460   3.892  13.799
42077W        W 1371  14.736   4.854  13.964
42078W        W 1372  16.692  42.805  10.481
42079W        W 1373  11.665  16.169  10.444
42080W        W 1374   1.248  43.840   5.636
42081W        W 1375  35.548  39.831  14.449
42082W        W 1376  38.925  31.965   0.884
42083W        W 1377   8.304   2.354  13.343
42084W        W 1378  31.627  24.556  10.991
42085W        W 1379  44.329   7.360  11.549
42086W        W 1380  42.952  28.044  12.414
42087W        W 1381   3.934  43.298  11.062
42088W        W 1382  14.309  11.341  10.960
42089W        W 1383  38.063  40.018   4.819
42090W        W 1384  18.785  36.403  14.783
42091W        W 1385  39.945   8.366  11.891
42092W        W 1386  10.287   2.751  12.435
42093W        W 1387   6.805  13.789  12.460
42094W        W 1388  25.193   5.260   2.800
42095W        W 1389  10.870  38.421  12.509
42096W        W 1390  19.671   4.327   2.248
42097W        W 1391   6.284  27.578  14.894
42098W        W 1392   2.343  39.047   0.927
42099W        W 1393  17.628  39.385  11.377
42100W        W 1394  30.034   5.916   3.694
42101W        W 1395  24.164  10.293  13.443
42102W        W 1396  28.970  35.563   4.738
42103W        W 1397  18.622  44.366  12.358
42104W        W 1398  16.182  16.680   0.299
42105W        W 1399  44.290   0.458   1.696
42106W        W 1400  31.045  13.192   3.795
42107W        W 1401  12.636  36.891  13.351
42108W        W 1402   5.785  29.566   1.763
42109W        W 1403  15.091  37.351  13.372
42110W        W 1404  15.760   0.809  13.472
42111W        W 1405  34.035   9.756  13.812
42112W        W 1406   6.300  20.059  13.441
42113W        W 1407  43.306  10.769   2.732
42114W        W 1408   1.244  23.045   3.838
42115W        W 1409  25.704  34.064  13.436
42116W        W 1410  33.938   2.733  11.585
42117W        W 1411   3.799   8.842   1.835
42118W        W 1412   7.308  29.094  11.601
42119W        W 1413  11.698  44.801   0.870
42120W        W 1414  37.037  13.109   2.226
42121W        W 1415  28.521  12.669  12.499
42122W        W 1416  34.534  40.844   4.319
42123W        W 1417  28.655   0.913   4.836
42124W        W 1418  29.570   9.345   4.659
42125W        W 1419  23.087  40.438  12.559
42126W        W 1420  12.644  34.404  14.409
42127W        W 1421  44.484  19.745  10.535
42128W        W 1422   8.184   0.942  10.962
42129W        W 1423  22.139  14.749   0.458
42130W        W 1424   2.886   9.838  10.954
42131W        W 1425  25.555  36.952   4.194
42132W        W 1426  12.276  34.590  13.798
42133W        W 1427  11.683  36.841   4.171
42134W        W 1428   2.862  13.621  13.311
42135W        W 1429  24.109   6.808  14.784
42136W        W 1430   6.878  38.906  12.344
42137W        W 1431  29.163  17.209  12.533
42138W        W 1432  34.990  26.004   3.255
42139W        W 1433  29.536  22.598  12.046
42140W        W 1434  18.069   9.701  10.008
42141W        W 1435  13.620  31.642   4.728
42142W        W 1436  38.056   1.906  11.037
42143W        W 1437  32.931  10.174   0.886
42144W        W 1438  26.974  44.490  14.891
42145W        W 1439   5.822   9.660  13.000
42146W        W 1440  17.184  11.328   3.254
42147W        W 1441   1.320  19.771  14.807
42148W        W 1442  22.710  24.677   3.637
42149W        W 1443  17.562  19.637  13.530
42150W        W 1444  21.045  17.211   0.821
42151W        W 1445  31.625  16.742  14.000
42152W        W 1446  12.707  41.506   3.259
42153W        W 1447  31.603  33.621   3.734
42154W        W 1448  27.024  25.074  14.364
42155W        W 1449  17.184  15.306  14.768
42156W        W 1450   5.885  27.474  14.775
42157W        W 1451  29.022  32.480   2.252
42158W        W 1452  37.431  13.325  13.844
42159W        W 1453  20.181  21.141  13.521
42160W        W 1454   9.241   2.253   0.457
42161W        W 1455  29.616  26.966   2.768
42162W        W 1456  41.891  12.198  14.894
42163W        W 1457  27.005  19.581   1.759
42164W        W 1458  24.714   0.382   3.295
42165W        W 1459  24.997  20.715   0.258
42166W        W 1460  39.849   6.396   2.181
42167W        W 1461  36.551   8.379  12.400
42168W        W 1462  44.495  31.912   1.694
42169W        W 1463  37.417  31.435   0.845
42170W        W 1464   5.402  12.733  13.446
42171W        W 1465  30.438  36.968  12.350
42172W        W 1466  25.189   8.223   1.299
42173W        W 1467  22.188   2.879  12.508
42174W        W 1468   3.325  26.609   5.155
42175W        W 1469  33.580  32.582   2.695
42176W        W 1470   6.409  21.713   1.401
42177W        W 1471   7.833  34.892  11.916
42178W        W 1472   9.651  26.953  14.905
42179W        W 1473  33.462  44.774   0.458
42180W        W 1474   1.957   4.439  11.895
42181W        W 1475  43.348   6.222   0.331
42182W        W 1476  41.407  35.872   9.994
42183W        W 1477  25.485  22.996  13.524
42184W        W 1478  42.881  15.590  11.533
42185W        W 1479   6.319   1.793  14.324
42186W        W 1480  26.663  39.331   1.348
42187W        W 1481  24.227   8.842   2.371
42188W        W 1482  10.640   0.313  11.381
42189W        W 1483  31.502   4.351   1.774
42190W        W 1484  17.749  18.144   4.181
42191W        W 1485  37.908  34.995  14.430
42192W        W 1486  21.090  24.643   0.347
42193W        W 1487  41.822  42.331  14.997
42194W        W 1488  44.863  31.535   2.202
42195W        W 1489  36.520  10.634  14.397
42196W        W 1490   7.303  40.878  11.598
42197W        W 1491  19.731   9.713  10.625
42198W        W 1492  35.429  41.871  14.416
42199W        W 1493  21.727  22.529  10.536
42200W        W 1494  20.193  33.912   4.647
42201W        W 1495  38.025   5.874   3.825
42202W        W 1496   9.223  26.012  10.469
42203W        W 1497  35.540   3.934  11.525
42204W        W 1498   4.207  20.091   5.223
42205W        W 1499   1.891  12.136   1.297
42206W        W 1500  35.972   0.284  14.891
42207W        W 1501  38.522  18.183  13.893
42208W        W 1502   3.281  31.008  11.121
42209W        W 1503  22.248  10.266  10.450
42210W        W 1504  22.672   2.412   0.453
42211W        W 1505  17.693   6.693  12.421
42212W        W 1506  38.390  43.858  14.004
42213W        W 1507  28.568  44.444   2.383
42214W        W 1508  33.389   3.309  10.507
42215W        W 1509   9.322   1.777  11.501
42216W        W 1510  37.062  33.566  10.440
42217W        W 1511  11.192  27.955  13.510
42218W        W 1512  26.106  10.774   3.381
42219W        W 1513  11.789   4.703   4.268
42220W        W 1514  26.037  30.607  13.887
42221W        W 1515  30.597  33.027   1.254
42222W        W 1516  14.100  20.032   2.719
42223W        W 1517  25.581   6.287  12.061
42224W        W 1518  12.748  33.021   1.222
42225W        W 1519  35.102  11.836  12.941
42226W        W 1520  36.956  38.526   1.751
42227W        W 1521  22.223   9.750  10.974
42228W        W 1522   4.768  27.643  13.862
42229W        W 1523  24.120  36.538   2.259
42230W        W 1524  35.419  25.657   3.676
42231W        W 1525  26.616   6.900  13.858
42232W        W 1526  11.329   9.826  13.480
42233W        W 1527  42.315   2.761   3.257
42234W        W 1528  24.029  29.116   4.761
42235W        W 1529   2.854  10.266   1.373
42236W        W 1530  43.431  18.164   4.791
42237W        W 1531  10.802   1.337  14.330
42238W        W 1532  43.341  27.157   4.657
42239W        W 1533  10.338   9.291  14.830
42240W        W 1534  13.197  19.176   4.818
42241W        W 1535  27.184  28.947  11.386
42242W        W 1536  27.106  31.535  11.929
42243W        W 1537  11.156  25.485  11.994
42244W        W 1538  10.333   1.454   2.269
42245W        W 1539  42.468   5.398   3.691
42246W        W 1540  29.503  12.720   2.822
42247W        W 1541  15.085  26.586  14.776
42248W        W 1542  26.159  37.523   1.862
42249W        W 1543  10.658  15.218   0.845
42250W        W 1544  26.462   8.281   9.555
42251W        W 1545  16.721   6.909  11.087
42252W        W 1546   1.897  10.365   1.408
42253W        W 1547   9.318   1.771  13.503
42254W        W 1548  26.046   0.441  13.064
42255W        W 1549  37.471  11.744  13.854
42256W        W 1550  38.858  35.501   2.845
42257W        W 1551  26.631  26.991   2.886
42258W        W 1552   7.672  27.092   4.218
42259W        W 1553  17.064  44.419   5.196
42260W        W 1554  32.525  21.118  12.860
42261W        W 1555  44.954  44.429  12.477
42262W        W 1556   0.902  37.899  10.483
42263W        W 1557  37.867  42.840  12.408
42264W        W 1558  37.908  38.494   3.355
42265W        W 1559  30.513   8.272   3.694
42266W        W 1560  26.150  42.945   2.356
42267W        W 1561  26.074  12.719  14.917
42268W        W 1562  14.662   7.417   2.259
42269W        W 1563  31.584  30.501   1.398
42270W        W 1564  27.170   6.299   3.786
42271W        W 1565  13.810   1.367  12.400
42272W        W 1566  16.219  21.210   3.286
42273W        W 1567  27.569  14.315   4.811
42274W        W 1568   6.387  13.187   3.869
42275W        W 1569  18.605  13.684   4.214
42276W        W 1570  15.615   5.928  14.957
42277W        W 1571   2.345  39.952  13.520
42278W        W 1572  21.610  39.978   5.233
42279W        W 1573  19.683  29.033   0.416
42280W        W 1574  36.903   3.368  14.761
42281W        W 1575  42.370   1.476   2.770
42282W        W 1576  26.120   8.186  13.057
42283W        W 1577  41.838  42.785   0.849
42284W        W 1578  12.699  29.931   1.379
42285W        W 1579  35.976  43.932  14.923
42286W        W 1580   7.276   5.759  10.631
42287W        W 1581  36.396   4.376  14.031
42288W        W 1582   4.720  35.062   2.720
42289W        W 1583  39.355  43.387   3.165
42290W        W 1584  18.060  29.149   1.777
42291W        W 1585  38.416   9.339  10.122
42292W        W 1586  38.522  16.785   4.740
42293W        W 1587  39.353  15.112  13.998
42294W        W 1588  14.147   6.870   1.734
42295W        W 1589  24.186  34.592   1.337
42296W        W 1590  14.168  39.528  14.314
42297W        W 1591  19.717  19.541  12.940
42298W        W 1592   8.826  16.201  10.622
42299W        W 1593  44.434   9.199  14.029
42300W        W 1594  37.891  34.052   5.736
42301W        W 1595   5.870  44.921   1.297
42302W        W 1596  29.510  10.691  12.377
42303W        W 1597  15.182  18.772   1.294
42304W        W 1598  39.469  41.294  14.793
42305W        W 1599  23.005  15.208  13.324
42306W        W 1600  29.111  44.419   0.901
42307W        W 1601  21.600  31.543   2.760
42308W        W 1602   0.754  37.493  12.400
42309W        W 1603  41.312  16.303  11.557
42310W        W 1604  14.723  13.213  12.473
42311W        W 1605  14.803  31.475  12.493
42312W        W 1606  30.116  13.304  10.628
42313W        W 1607  16.665  15.224   2.744
42314W        W 1608  37.384  34.503  12.974
42315W        W 1609  27.149  41.961  12.445
42316W        W 1610  21.231  40.034  13.826
42317W        W 1611   0.940  38.825  11.452
42318W        W 1612  17.151  44.376  13.917
42319W        W 1613  35.958  19.593  13.919
42320W        W 1614  22.038  36.502  14.971
42321W        W 1615  18.191  33.519   0.267
42322W        W 1616  10.170  20.118   1.797
42323W        W 1617  31.525   8.364   0.447
42324W        W 1618  34.903  41.418   0.385
42325W        W 1619  40.362   2.297  14.793
42326W        W 1620  27.141   4.363   4.157
42327W        W 1621  29.135  21.028   2.322
42328W        W 1622  30.034   1.409  12.912
42329W        W 1623  36.011  21.084   1.744
42330W        W 1624  28.603  42.892  12.875
42331W        W 1625  15.185  17.602   4.355
42332W        W 1626  22.134  35.535  14.024
42333W        W 1627  18.259  36.433  13.349
42334W        W 1628   1.907  43.274  12.566
42335W        W 1629   5.381  16.309  14.331
42336W        W 1630  33.492  21.252  14.856
42337W        W 1631   9.163   5.854   3.217
42338W        W 1632  33.968  16.074   1.921
42339W        W 1633   9.292  18.120  12.081
42340W        W 1634  16.712   5.862  14.482
42341W        W 1635  11.660  42.884   9.960
42342W        W 1636  10.764   3.719   4.326
42343W        W 1637   8.756  17.106   4.619
42344W        W 1638  16.187  27.678   0.458
42345W        W 1639   6.234  13.602  10.527
42346W        W 1640  17.164  42.314  11.044
42347W        W 1641  26.208   3.833  10.427
42348W        W 1642  10.680  16.300   1.838
42349W        W 1643  43.921  35.859   0.877
42350W        W 1644  33.416   5.703   3.631
42351W        W 1645  21.746  20.225   4.299
42352W        W 1646   6.262  32.127   4.819
42353W        W 1647  15.257  36.493  10.509
42354W        W 1648  13.185   8.843  12.365
42355W        W 1649   7.342   5.934  14.856
42356W        W 1650   4.381  35.960  13.933
42357W        W 1651   4.768  34.994   5.224
42358W        W 1652  21.645  18.071  11.400
42359W        W 1653   4.866  32.950  10.434
42360W        W 1654  31.623  37.540   0.903
42361W        W 1655   0.925  30.604  12.450
42362W        W 1656  19.592  28.947  12.855
42363W        W 1657  38.927   0.479   4.713
42364W        W 1658  17.122  36.448   3.746
42365W        W 1659  41.864  40.309   3.674
42366W        W 1660  23.497  42.914   1.870
42367W        W 1661  25.218  43.456   1.766
42368W        W 1662   4.797  39.898  14.822
42369W        W 1663   0.406  43.286   1.822
42370W        W 1664   0.769   9.746   0.298
42371W        W 1665  32.072  29.618   0.464
42372W        W 1666  37.086  42.300   2.839
42373W        W 1667  19.597  19.640   3.154
42374W        W 1668  43.400   5.337  11.895
42375W        W 1669   1.445  41.486   2.813
42376W        W 1670  25.671  40.435   4.745
42377W        W 1671  43.471  42.816   2.287
42378W        W 1672   3.352   2.727   1.384
42379W        W 1673   6.325  20.699  12.574
42380W        W 1674  19.774  31.567   3.372
42381W        W 1675  17.257   2.815   4.251
42382W        W 1676   9.686  14.794  13.040
42383W        W 1677  35.078  19.551  11.552
42384W        W 1678  28.454  17.080   0.279
42385W        W 1679  42.955  16.272   0.325
42386W        W 1680  24.047  13.277   0.778
42387W        W 1681   4.270  21.177  13.916
42388W        W 1682   9.207  35.097   1.250
42389W        W 1683  43.365  44.470   0.856
42390W        W 1684  35.870  40.396   3.286
42391W        W 1685  40.315  44.448   2.418
42392W        W 1686  32.960  32.102   3.313
42393W        W 1687  19.588   6.314   0.321
42394W        W 1688  39.542  40.968  13.962
42395W        W 1689  44.893  10.293   3.643
42396W        W 1690  43.801  22.529  10.931
42397W        W 1691   2.838  10.198   2.370
42398W        W 1692  20.255  27.951   4.121
42399W        W 1693  12.335   9.251  11.945
42400W        W 1694  32.896  23.533  13.819
42401W        W 1695  18.118  37.839   0.757
42402W        W 1696  37.470   9.162   5.274
42403W        W 1697  17.295  16.635  12.889
42404W        W 1698  41.482  32.123   0.410
42405W        W 1699  25.641  35.376  11.966
42406W        W 1700  35.380  17.144   1.294
42407W        W 1701  31.561  29.927   2.192
42408W        W 1702  43.355  29.174  10.596
42409W        W 1703  16.262  40.450  10.429
42410W        W 1704  16.220  36.465  13.469
42411W        W 1705   7.875  28.603   1.451
42412W        W 1706  16.071  44.786  11.387
42413W        W 1707  25.186  29.009   2.277
42414W        W 1708  38.064   6.855   4.164
42415W        W 1709  17.746  24.509  13.058
42416W        W 1710  24.556  33.019  10.478
42417W        W 1711  41.393   5.338  14.885
42418W        W 1712  20.227   4.711  12.908
42419W        W 1713  14.281   2.400  13.015
42420W        W 1714  21.575  30.538   2.882
42421W        W 1715   8.845  29.938  10.047
42422W        W 1716  22.186  27.090  11.593
42423W        W 1717   8.251  18.119   3.178
42424W        W 1718  12.662  42.825  11.555
42425W        W 1719  44.864  41.360  12.881
42426W        W 1720  26.052  39.477  14.348
42427W        W 1721  39.055  27.607   3.740
42428W        W 1722   2.290   5.409   3.199
42429W        W 1723  42.446  42.487  11.026
42430W        W 1724  12.714  22.601  11.863
42431W        W 1725  42.779  15.717  14.291
42432W        W 1726  35.053  42.776   4.669
42433W        W 1727  11.796  16.683  12.960
42434W        W 1728  26.072  23.598   2.382
42435W        W 1729  25.989  11.328   2.378
42436W        W 1730  11.350  19.050   1.809
42437W        W 1731  14.608  39.385  12.061
42438W        W 1732  31.554  36.486   4.330
42439W        W 1733  27.968  21.614   1.294
42440W        W 1734  31.430   2.340   4.771
42441W        W 1735   3.903  38.413   4.230
42442W        W 1736  14.152  10.250   0.362
42443W        W 1737  26.049  30.633  11.121
42444W        W 1738  12.300  27.521  12.047
42445W        W 1739   2.894  29.657  11.509
42446W        W 1740  43.479  41.316  10.942
42447W        W 1741  27.188  16.263  13.453
42448W        W 1742  14.148  15.215  14.782
42449W        W 1743   0.451   4.864  14.403
42450W        W 1744  34.897  38.833   3.207
42451W        W 1745   4.747  31.546   0.246
42452W        W 1746  36.483   6.827   2.828
42453W        W 1747  42.949  11.297   3.679
42454W        W 1748  17.193  22.582   5.311
42455W        W 1749  33.596  13.757  11.948
42456W        W 1750  29.596  13.800   1.821
42457W        W 1751  24.644  13.278  10.448
42458W        W 1752  30.016  23.659  11.492
42459W        W 1753  40.406  14.247   0.389
42460W        W 1754   2.745  12.321   3.294
42461W        W 1755  33.478  42.903  11.933
42462W        W 1756  28.582   2.258  13.056
42463W        W 1757  29.540  15.316  11.412
42464W        W 1758  37.961  21.644  13.884
42465W        W 1759  12.260  12.135   2.382
42466W        W 1760   6.379  11.700  11.034
42467W        W 1761  23.193  43.443   3.870
42468W        W 1762  28.563  29.979   2.882
42469W        W 1763  34.549  36.502   0.481
42470W        W 1764  14.101  13.607   3.203
42471W        W 1765  19.271  22.538   2.317
42472W        W 1766  43.443  27.174   2.278
42473W        W 1767  24.723  32.592  12.536
42474W        W 1768  39.339  36.979  12.468
42475W        W 1769  30.961   8.726   0.908
42476W        W 1770  42.866   3.433   1.432
42477W        W 1771  39.026  24.062   2.178
42478W        W 1772  12.343   2.946   4.291
42479W        W 1773  26.602  29.438  11.889
42480W        W 1774  41.889  38.328   4.228
42481W        W 1775  32.394  32.027  11.473
42482W        W 1776  22.097  16.159   3.378
42483W        W 1777  17.155  39.367   4.131
42484W        W 1778  21.131  37.010  11.976
42485W        W 1779   9.786  30.425   3.341
42486W        W 1780  10.348  27.080  12.350
42487W        W 1781  20.191   3.946   4.188
42488W        W 1782   5.819  42.827  13.852
42489W        W 1783  14.320  25.115   1.439
42490W        W 1784  26.042  29.016   3.779
42491W        W 1785  31.947  27.188   2.353
42492W        W 1786  29.103  10.185   4.806
42493W        W 1787  41.947  17.197   1.902
42494W        W 1788   5.227  13.711   3.379
42495W        W 1789  27.659  13.733  12.899
42496W        W 1790  37.517  40.456   0.386
42497W        W 1791  34.582  26.012   1.745
42498W        W 1792  32.545  23.516  13.311
42499W        W 1793   9.312   8.825  13.027
42500W        W 1794  43.872   1.361   5.198
42501W        W 1795  32.632  35.363  13.484
42502W        W 1796  38.971  41.501  10.470
42503W        W 1797  24.670  40.360  11.892
42504W        W 1798   2.757   1.281  14.973
42505W        W 1799  20.731   4.333  14.410
42506W        W 1800  44.922   1.744  11.876
42507W        W 1801  24.215  35.083  12.028
42508W        W 1802   4.366   2.447   4.810
42509W        W 1803   0.780  16.758  12.911
42510W        W 1804  11.759  15.239  10.439
42511W        W 1805  32.056  31.137   0.307
42512W        W 1806  12.283  15.097  13.973
42513W        W 1807   8.792  35.901  13.538
42514W        W 1808  39.362  30.052   3.173
42515W        W 1809   6.357  30.150   4.828
42516W        W 1810  15.594  17.197  13.412
42517W        W 1811  21.043  44.501   1.390
42518W        W 1812  19.137  41.895   1.766
42519W        W 1813  18.711   3.223   0.300
42520W        W 1814  12.319  25.554  11.106
42521W        W 1815   7.701   5.926   0.918
42522W        W 1816  26.670  32.447  13.426
42523W        W 1817  21.729  20.580  10.526
42524W        W 1818  30.052  27.571   1.917
42525W        W 1819  30.526   2.779   1.877
42526W        W 1820  26.081  24.628  11.581
42527W        W 1821  35.485   1.445   3.345
42528W        W 1822   0.933  43.006  10.458
42529W        W 1823   1.865  34.068   0.316
42530W        W 1824  23.081  22.697  10.619
42531W        W 1825   9.306  16.082  13.823
42532W        W 1826  18.731  34.614   4.713
42533W        W 1827  40.309  35.389   3.717
42534W        W 1828  37.995  17.667  12.953
42535W        W 1829  31.413  19.065   0.355
42536W        W 1830   3.283  36.016   1.754
42537W        W 1831  22.640  30.616  10.075
42538W        W 1832   9.149  39.940   5.176
42539W        W 1833  40.947  30.946   2.225
42540W        W 1834  42.021   6.394   5.237
42541W        W 1835   0.745  18.552  14.902
42542W        W 1836  38.043   0.918   0.931
42543W        W 1837  11.653  27.122   2.702
42544W        W 1838  13.607   8.891  13.420
42545W        W 1839  30.078  44.951  11.102
42546W        W 1840   9.853  12.851  14.499
42547W        W 1841   3.930  10.241   4.615
42548W        W 1842  15.133  33.051   0.899
42549W        W 1843  34.464   7.685  13.440
42550W        W 1844   8.758  35.948  12.488
42551W        W 1845  27.539  30.639  14.312
42552W        W 1846  38.455  21.538  10.599
42553W        W 1847  43.475  11.688   4.642
42554W        W 1848   3.366  26.483  14.889
42555W        W 1849  19.209   5.310   3.222
42556W        W 1850  21.733  20.240  14.327
42557W        W 1851  33.477  37.078   0.365
42558W        W 1852   7.721  25.536   3.689
42559W        W 1853  32.012  14.615   1.718
42560W        W 1854  10.822  21.655   0.389
42561W        W 1855  20.579  14.605  14.887
42562W        W 1856  43.947  19.127   0.783
42563W        W 1857  21.632  40.489   9.940
42564W        W 1858  42.519   8.795  13.959
42565W        W 1859  22.612  13.223   2.797
42566W        W 1860  31.564  44.998  14.292
42567W        W 1861  24.079  14.130  13.468
42568W        W 1862   7.809  36.903  11.025
42569W        W 1863   2.764  29.959   1.319
42570W        W 1864  38.861  40.963  13.893
42571W        W 1865  42.008  42.870   1.930
42572W        W 1866  18.630  15.794   0.849
42573W        W 1867  27.974   9.302  12.050
42574W        W 1868   6.818  31.477  13.353
42575W        W 1869  24.212  17.649   1.423
42576W        W 1870  44.940  12.757   1.770
42577W        W 1871   6.900  43.013  12.385
42578W        W 1872  20.110  14.148  14.367
42579W        W 1873  31.595  34.976  13.380
42580W        W 1874  39.412   3.257  11.375
42581W        W 1875  19.563  19.742   5.707
42582W        W 1876  36.048   1.261  14.301
42583W        W 1877  16.099   8.282  11.109
42584W        W 1878   7.670  13.264   1.433
42585W        W 1879  19.183   2.801   0.808
42586W        W 1880  20.127   8.284  14.818
42587W        W 1881  11.670  23.679   4.236
42588W        W 1882  15.799  28.154   1.447
42589W        W 1883  12.660  37.944   0.320
42590W        W 1884  19.593   8.395   4.176
42591W        W 1885  43.919  38.507  14.797
42592W        W 1886   2.902  13.282   1.436
42593W        W 1887  32.015  11.687  11.049
42594W        W 1888   9.768  13.786   3.862
42595W        W 1889   7.709  22.729   1.741
42596W        W 1890  30.926   6.788   4.638
42597W        W 1891  35.562  22.625  11.872
42598W        W 1892  14.773  31.634   0.399
42599W        W 1893  41.952  27.512   2.725
42600W        W 1894   2.413  36.049  14.450
42601W        W 1895  18.755  18.080  12.989
42602W        W 1896  29.599  37.038   4.612
42603W        W 1897   5.698  29.150   4.160
42604W        W 1898  21.060  36.566   3.637
42605W        W 1899   6.699  36.383   2.389
42606W        W 1900  27.158  12.618   2.799
42607W        W 1901   8.885   5.912  14.979
42608W        W 1902  28.547  13.713  11.475
42609W        W 1903  13.292  19.537   3.853
42610W        W 1904  20.528  21.112   3.250
42611W        W 1905  10.142  33.452  12.010
42612W        W 1906  10.716  27.493  12.541
42613W        W 1907  12.760  14.145   2.214
42614W        W 1908  19.210   2.337   4.637
42615W        W 1909  14.154  29.496   0.867
42616W        W 1910   7.677   7.698   3.166
42617W        W 1911  26.669  16.737  13.952
42618W        W 1912   4.360  19.149  11.454
42619W        W 1913  11.653   1.453  11.959
42620W        W 1914  30.428  14.616   4.142
42621W        W 1915  32.510  23.117   0.929
42622W        W 1916  43.015  27.059   2.769
42623W        W 1917  26.512  31.137   4.120
42624W        W 1918  25.711  41.462  14.353
42625W        W 1919   6.840  24.002  12.507
42626W        W 1920   6.221  44.400   3.787
42627W        W 1921  33.426  13.156  12.084
42628W        W 1922  43.271   3.288   5.094
42629W        W 1923  26.143   1.866  12.556
42630W        W 1924  11.311  39.047  14.837
42631W        W 1925   1.241  20.264  12.369
42632W        W 1926   6.393   4.298  13.902
42633W        W 1927  27.084  22.692  10.477
42634W        W 1928  43.369   2.297  12.955
42635W        W 1929  13.172   3.271   0.346
42636W        W 1930   9.813  22.080   9.652
42637W        W 1931  40.956  25.201   4.753
42638W        W 1932  13.728  22.025   4.118
42639W        W 1933  27.184   6.897   4.287
42640W        W 1934  22.239   7.342   4.224
42641W        W 1935   7.693  33.620  11.520
42642W        W 1936  35.869  28.660   0.953
42643W        W 1937   4.392  37.517  12.954
42644W        W 1938  20.035  21.714  12.510
42645W        W 1939  28.479  39.508   3.637
42646W        W 1940  34.112  38.474  10.975
42647W        W 1941  28.094  18.274  13.827
42648W        W 1942  43.010  11.149  13.457
42649W        W 1943  19.593  44.939   4.689
42650W        W 1944  44.423   7.806   3.708
42651W        W 1945  34.439  28.140   4.253
42652W        W 1946  38.485  24.101   4.256
42653W        W 1947  11.159   2.805   0.915
42654W        W 1948  17.079   6.744   2.320
42655W        W 1949  13.711  21.615   4.791
42656W        W 1950  21.179  30.626  11.491
42657W        W 1951  20.239   5.411   1.372
42658W        W 1952  41.008   3.455  11.856
42659W        W 1953   6.831  34.076  13.449
42660W        W 1954  25.156  12.322   5.731
42661W        W 1955   4.341  26.179   4.150
42662W        W 1956  22.178  42.318  14.444
42663W        W 1957  14.759  11.718   3.219
42664W        W 1958  16.310  17.270  11.500
42665W        W 1959   6.349  23.093   3.804
42666W        W 1960  26.697  37.528   1.755
42667W        W 1961  30.635   8.366  11.898
42668W        W 1962  38.391  24.600  11.060
42669W        W 1963  13.733  20.041  12.575
42670W        W 1964  24.124  26.013  11.113
42671W        W 1965  39.981  24.528  13.904
42672W        W 1966  33.121  30.143  12.938
42673W        W 1967  39.507  38.937   1.864
42674W        W 1968   2.423  34.044   4.260
42675W        W 1969   8.314  38.823   0.298
42676W        W 1970  14.633   9.839   4.835
42677W        W 1971  13.717  29.939   2.814
42678W        W 1972   8.208  39.480   0.728
42679W        W 1973  31.595   5.835   4.677
42680W        W 1974  33.881  23.154  11.111
42681W        W 1975  25.646   6.824  14.928
42682W        W 1976  27.148  34.510  14.029
42683W        W 1977  29.657   0.373  14.437
42684W        W 1978  40.420  13.698   1.410
42685W        W 1979  14.649  40.325   1.269
42686W        W 1980  13.298  36.988   1.363
42687W        W 1981  22.162  17.126  12.926
42688W        W 1982  38.845  41.460  11.054
42689W        W 1983  27.525   6.700  10.928
42690W        W 1984  14.203  19.200   4.807
42691W        W 1985   4.850  11.268   3.848
42692W        W 1986  27.589   4.756   4.730
42693W        W 1987  31.618  43.776   0.395
42694W        W 1988   4.800  33.433   1.402
42695W        W 1989   5.324   7.362  11.375
42696W        W 1990  35.954  28.179   1.321
42697W        W 1991  12.706  30.969   4.832
42698W        W 1992  42.871  22.114   4.236
42699W        W 1993  37.941  13.198  13.357
42700W        W 1994  11.327   7.769  13.936
42701W        W 1995   0.494  25.631  13.991
42702W        W 1996   3.838   3.384  13.963
42703W        W 1997   3.876   0.442   0.882
42704W        W 1998  24.641  20.215  12.448
42705W        W 1999  14.271  23.156   0.316
42706W        W 2000  41.995  33.514   4.276
42707W        W 2001  12.618  20.138   3.319
42708W        W 2002  12.327  38.370   1.899
42709W        W 2003  11.684   5.349  13.364
42710W        W 2004   7.762  42.841  10.083
42711W        W 2005  20.210  33.415   0.266
42712W        W 2006   4.351  15.823   4.192
42713W        W 2007  22.716  23.504   2.316
42714W        W 2008  12.320  23.225  14.907
42715W        W 2009  27.479  43.765  14.996
42716W        W 2010   8.731  30.544  12.919
42717W        W 2011   0.939   1.402  14.456
42718W        W 2012  39.460  24.638   0.941
42719W        W 2013  19.082  12.249   1.405
42720W        W 2014  23.147  29.468  10.986
42721W        W 2015  23.606  32.629  14.888
42722W        W 2016  22.044   0.278   3.805
42723W        W 2017  13.332   7.679  13.339
42724W        W 2018   0.869  13.737   0.477
42725W        W 2019  37.850  33.924   0.857
42726W        W 2020  14.105  14.616   1.749
42727W        W 2021  12.696  17.783   1.749
42728W        W 2022  23.710  42.486   1.362
42729W        W 2023  11.843  34.044  10.005
42730W        W 2024  31.608  32.479   1.444
42731W        W 2025  12.736  34.087   0.260
42732W        W 2026  35.094  41.420   2.211
42733W        W 2027  20.076   3.785   3.729
42734W        W 2028  20.580  34.908  11.014
42735W        W 2029  28.469  24.693  12.074
42736W        W 2030  11.250  27.499  12.576
42737W        W 2031  37.041  33.451   4.258
42738W        W 2032  18.056  43.293   3.357
42739W        W 2033  34.406  30.987  10.488
42740W        W 2034   1.248  25.698   3.843
42741W        W 2035  37.413  31.021   3.337
42742W        W 2036  16.717  11.743  12.512
42743W        W 2037   7.828   7.394   4.115
42744W        W 2038  44.489  14.682  13.863
42745W        W 2039  14.616  25.704   1.832
42746W        W 2040  20.525  44.356   1.337
42747W        W 2041  30.913   6.721   3.754
42748W        W 2042   9.850  18.771   3.363
42749W        W 2043  14.742  23.582   2.765
42750W        W 2044  41.796  22.577  11.504
42751W        W 2045  14.827  19.107   4.123
42752W        W 2046  28.022   4.350  11.419
42753W        W 2047  16.181  33.891   2.776
42754W        W 2048  25.164   7.319   3.733
42755W        W 2049  15.254  25.650  13.315
42756W        W 2050  40.918  37.497  11.093
42757W        W 2051  16.600  20.767   3.205
42758W        W 2052   0.940  11.807  12.094
42759W        W 2053  31.000  36.537   2.378
42760W        W 2054   8.248  37.353  14.953
42761W        W 2055  25.614   5.266  13.849
42762W        W 2056  31.629  24.023  13.998
42763W        W 2057  27.987  25.160   0.258
42764W        W 2058  27.177  31.409  11.412
42765W        W 2059  14.114  35.549  10.995
42766W        W 2060  29.494  30.420  10.561
42767W        W 2061  41.812   2.329   4.754
42768W        W 2062  38.486  15.577   1.334
42769W        W 2063  22.658  35.001  14.887
42770W        W 2064   0.811  12.651   9.986
42771W        W 2065  31.404  12.782   1.392
42772W        W 2066  34.383  12.128  12.558
42773W        W 2067  34.023   3.223   2.228
42774W        W 2068  23.651  29.987  12.526
42775W        W 2069  35.523  19.274  13.336
42776W        W 2070  19.730  18.750  12.032
42777W        W 2071  39.000   0.969   3.281
42778W        W 2072  27.151  42.507  13.806
42779W        W 2073   3.217   5.325   0.866
42780W        W 2074  17.670  39.978   2.341
42781W        W 2075   0.326   1.745   5.173
42782W        W 2076  39.963   7.890  14.926
42783W        W 2077  39.474  24.985  13.468
42784W        W 2078  36.889  25.563  14.362
42785W        W 2079   2.278  25.093  10.913
42786W        W 2080  36.519  13.257  10.640
42787W        W 2081  40.406  31.509   4.620
42788W        W 2082  31.518   4.821   3.820
42789W        W 2083  18.745   5.708   2.752
42790W        W 2084  40.865  16.698  10.426
42791W        W 2085  22.199   9.664  14.845
42792W        W 2086  41.853  18.205  12.542
42793W        W 2087  20.094  29.549   2.898
42794W        W 2088   2.759  11.794  10.896
42795W        W 2089  10.758  16.808   3.759
42796W        W 2090  10.688  25.077   3.201
42797W        W 2091  42.944  27.666   2.867
42798W        W 2092  25.079  28.936  11.483
42799W        W 2093  41.380  10.383  11.382
42800W        W 2094   5.819  27.131  12.957
42801W        W 2095  31.524   4.310  14.972
42802W        W 2096   8.818  25.160   9.926
42803W        W 2097  16.185  30.504  11.607
42804W        W 2098   8.191   4.260  14.294
42805W        W 2099  18.705  36.432   0.374
42806W        W 2100  15.808  39.871   0.398
42807W        W 2101  43.514  14.171   0.270
42808W        W 2102  27.523  22.187   1.230
42809W        W 2103  20.533  44.432   4.231
42810W        W 2104  23.728  38.360  11.507
42811W        W 2105  37.863  28.662  10.553
42812W        W 2106  27.602  32.616   1.922
42813W        W 2107  27.475  36.024   3.260
42814W        W 2108  28.054  23.168  12.002
42815W        W 2109   9.717   1.934   2.348
42816W        W 2110  15.648  22.039   1.706
42817W        W 2111   4.435   8.695   0.286
42818W        W 2112  27.084  38.035   3.862
42819W        W 2113  30.105  29.451   2.860
42820W        W 2114  17.729   6.805   0.420
42821W        W 2115   2.338   8.701  12.033
42822W        W 2116  34.078  27.101   4.719
42823W        W 2117   8.664  42.323   0.957
42824W        W 2118  14.221  12.286  13.958
42825W        W 2119   0.804  21.223   0.309
42826W        W 2120   7.367   2.310   3.673
42827W        W 2121   0.793  44.372   1.394
42828W        W 2122   2.849   9.807   2.399
42829W        W 2123  37.524  26.023   1.898
42830W        W 2124   3.300  39.950   4.323
42831W        W 2125   3.363  44.408   1.751
42832W        W 2126  22.171  20.086   3.704
42833W        W 2127   6.256  20.600   3.853
42834W        W 2128   9.681  21.061  13.976
42835W        W 2129  26.655  11.283   2.682
42836W        W 2130  26.032  10.848  12.577
42837W        W 2131  11.191   8.276   4.328
42838W        W 2132  16.169  29.500  13.376
42839W        W 2133   3.905  23.192   1.934
42840W        W 2134  40.345  37.897   1.340
42841W        W 2135  26.119  20.051  11.531
42842W        W 2136   1.413   3.928  11.034
42843W        W 2137  11.351   2.418   4.793
42844W        W 2138  21.232  27.000  11.536
42845W        W 2139   1.961  11.218  12.935
42846W        W 2140  19.064  33.897   0.932
42847W        W 2141  24.038  35.422  12.873
42848W        W 2142  36.867   1.346   1.888
42849W        W 2143  29.163  43.352  12.997
42850W        W 2144  26.064  38.553  13.887
42851W        W 2145   5.871  19.686  14.854
42852W        W 2146  14.795  30.134   1.723
42853W        W 2147  36.442  27.968  14.292
42854W        W 2148  32.906  32.463   1.869
42855W        W 2149  19.059  20.557  14.407
42856W        W 2150  40.805  38.001   0.422
42857W        W 2151  25.152   8.376   0.266
42858W        W 2152  24.223  20.225  11.482
42859W        W 2153  33.458  43.866   4.121
42860W        W 2154  13.604  42.406  13.418
42861W        W 2155  35.403  35.889  13.503
42862W        W 2156   9.861  31.628  13.546
42863W        W 2157  30.641  24.977   0.430
42864W        W 2158  20.730  34.048   3.316
42865W        W 2159  26.563   4.849  11.030
42866W        W 2160  27.581  27.167  11.506
42867W        W 2161  21.574  32.055  10.411
42868W        W 2162  27.016   5.862  10.517
42869W        W 2163  29.446  14.638   3.832
42870W        W 2164  21.734  44.973   2.281
42871W        W 2165  32.555   8.676   1.443
42872W        W 2166  15.603   1.471  12.421
42873W        W 2167  15.180  28.518  12.575
42874W        W 2168  36.395  35.886   4.341
42875W        W 2169  41.854  40.041   3.182
42876W        W 2170  34.042  44.447   4.641
42877W        W 2171  29.584  31.421  12.371
42878W        W 2172  41.964   9.360  14.330
42879W        W 2173  10.772   4.763  13.806
42880W        W 2174  38.872  16.674   4.683
42881W        W 2175  33.477  25.013  11.548
42882W        W 2176   0.420  25.692   3.280
42883W        W 2177  43.376  27.567   1.766
42884W        W 2178  19.758  12.769   4.643
42885W        W 2179   4.336  19.734   2.192
42886W        W 2180  22.155  41.386  10.946
42887W        W 2181  18.269  17.770   2.365
42888W        W 2182   4.243  19.215   3.322
42889W        W 2183  43.328  41.340   3.746
42890W        W 2184  10.786   8.252  13.400
42891W        W 2185  38.904  25.085   2.854
42892W        W 2186  14.233   7.757   0.895
42893W        W 2187   4.254  14.832  13.914
42894W        W 2188  14.152  23.125   1.804
42895W        W 2189  23.580  33.053   4.222
42896W        W 2190  11.644   2.390  13.321
42897W        W 2191  15.306  25.210  14.432
42898W        W 2192  42.445  13.646  10.579
42899W        W 2193  38.007  21.633   1.717
42900W        W 2194  17.298  10.291   2.762
42901W        W 2195  25.685  25.199  14.863
42902W        W 2196  35.021  33.089  12.561
42903W        W 2197  18.119  20.067  14.810
42904W        W 2198   5.823  21.568  14.489
42905W        W 2199   2.247  17.277  10.620
42906W        W 2200   1.911  39.044   3.241
42907W        W 2201  39.560  33.087   1.713
42908W        W 2202  16.302  31.439   4.837
42909W        W 2203   1.351  11.840   1.920
42910W        W 2204  12.230   9.243  13.946
42911W        W 2205  29.139  32.457  13.901
42912W        W 2206  44.342  33.985  10.928
42913W        W 2207   0.489  32.432  13.793
42914W        W 2208   6.417  18.571   0.853
42915W        W 2209  21.682  30.097   3.771
42916W        W 2210  12.705  35.587  14.502
42917W        W 2211  43.446  32.556   2.272
42918W        W 2212  28.152  25.972   2.768
42919W        W 2213  22.506  42.503  10.893
42920W        W 2214  37.992  31.465  14.475
42921W        W 2215   7.668   3.222   9.963
42922W        W 2216   5.863  40.844   1.761
42923W        W 2217   8.867  24.010   1.326
42924W        W 2218  26.581  42.780  10.431
42925W        W 2219   6.220  12.236  14.317
42926W        W 2220  24.591  36.899   1.256
42927W        W 2221  22.592   0.492   4.167
42928W        W 2222  30.963  41.990  13.358
42929W        W 2223  40.351   5.822   0.394
42930W        W 2224  35.881  16.286  13.494
42931W        W 2225   9.320  40.397  12.442
42932W        W 2226  11.809  10.666  14.483
42933W        W 2227   0.280  21.083  12.998
42934W        W 2228   0.819  10.301  10.538
42935W        W 2229  16.112  20.130   0.399
42936W        W 2230  22.512  44.261   2.763
42937W        W 2231  33.034  27.987   1.846
42938W        W 2232  18.720   4.706  11.609
42939W        W 2233   4.421  20.181  11.984
42940W        W 2234  41.455  27.184   1.714
42941W        W 2235  34.524  26.030  10.578
42942W        W 2236  28.549  35.596  12.028
42943W        W 2237  41.292   0.335   5.149
42944W        W 2238  31.605  27.118   4.702
42945W        W 2239   5.845   8.203  14.032
42946W        W 2240  12.349  22.130   1.930
42947W        W 2241   4.383  24.153   1.754
42948W        W 2242  34.509   1.258   2.364
42949W        W 2243  22.540  19.092   1.722
42950W        W 2244  27.532  13.188   1.931
42951W        W 2245   4.348  15.617  13.490
42952W        W 2246  39.455  25.661  11.417
42953W        W 2247  28.601  10.716   2.854
42954W        W 2248  10.351  25.533   4.278
42955W        W 2249   8.254  35.426  13.509
42956W        W 2250  30.511  19.134   0.853
42957W        W 2251  18.132  27.468   4.623
42958W        W 2252  14.804  35.917   2.396
42959W        W 2253  44.894  29.995  12.845
42960W        W 2254   5.710  42.366   1.289
42961W        W 2255  27.087  40.882   1.695
42962W        W 2256  26.680  37.982   4.803
42963W        W 2257  18.761  33.467  13.792
42964W        W 2258  25.632  36.534   1.808
42965W        W 2259  31.577   4.868   0.246
42966W        W 2260   3.224  22.675  13.003
42967W        W 2261   0.399  41.898   1.398
42968W        W 2262  30.493  20.200  13.028
42969W        W 2263   7.680  11.800   0.306
42970W        W 2264  13.283  36.377   4.731
42971W        W 2265  24.984  11.802  12.465
42972W        W 2266  10.655   8.180   0.439
42973W        W 2267  28.027   7.225   2.808
42974W        W 2268  34.448  11.817  13.431
42975W        W 2269  18.673  28.933  11.564
42976W        W 2270  30.649  39.522   3.810
42977W        W 2271  30.952  40.967  11.085
42978W        W 2272  42.283   0.407  13.022
42979W        W 2273  33.411  34.408   0.242
42980W        W 2274  32.125  18.186   3.174
42981W        W 2275  35.054  32.959  10.145
42982W        W 2276  29.108  33.512   2.850
42983W        W 2277  20.578  29.102   3.834
42984W        W 2278  12.727  15.594  10.550
42985W        W 2279  15.766  18.739   3.357
42986W        W 2280   4.216  20.053  11.123
42987W        W 2281  43.926  16.220  10.576
42988W        W 2282   7.214  23.613   3.156
42989W        W 2283  16.732  43.828  13.888
42990W        W 2284  25.023  43.811  10.960
42991W        W 2285  30.926  34.953   4.179
42992W        W 2286   4.423  31.456   2.776
42993W        W 2287  37.421  34.883   0.287
42994W        W 2288  34.952  17.671   3.699
42995W        W 2289  23.595   2.309  14.016
42996W        W 2290  25.570   7.714   0.258
42997W        W 2291   2.234  41.522   4.761
42998W        W 2292   2.872  23.590  12.829
42999W        W 2293   6.404  42.782   0.883
43000W        W 2294  31.432  19.162  14.415
43001W        W 2295  24.478  23.037   2.413
43002W        W 2296  10.280   3.446  10.108
43003W        W 2297  13.613  38.428   2.391
43004W        W 2298  37.969  14.669   0.449
43005W        W 2299   4.778   5.694  13.823
43006W        W 2300  17.619  10.772   0.804
43007W        W 2301   2.763  26.652  11.883
43008W        W 2302  29.644  41.521   5.675
43009W        W 2303  28.069  10.782   3.262
43010W        W 2304  18.239  15.206  10.098
43011W        W 2305  11.863  11.745   2.183
43012W        W 2306  35.098   6.879  11.969
43013W        W 2307  12.350  18.196   2.353
43014W        W 2308   3.721  41.815   0.376
43015W        W 2309   5.396  37.865   0.451
43016W        W 2310  43.277  14.220  12.046
43017W        W 2311   5.371  11.284   1.355
43018W        W 2312   9.296   1.403  11.590
43019W        W 2313  30.932   2.929   3.729
43020W        W 2314  27.657  15.627   3.671
43021W        W 2315  26.051  34.109  10.895
43022W        W 2316  29.166   0.775  13.922
43023W        W 2317  35.897  33.574   3.836
43024W        W 2318   8.258  21.192   1.720
43025W        W 2319   4.804  18.216   0.404
43026W        W 2320  40.054  19.759   2.209
43027W        W 2321  19.217   1.374   1.408
43028W        W 2322  39.984  15.752  13.347
43029W        W 2323  38.465  21.615   1.223
43030W        W 2324   9.201  14.317  10.111
43031W        W 2325  35.517   5.880   1.791
43032W        W 2326  26.119  44.906  11.557
43033W        W 2327   9.369  43.492  10.935
43034W        W 2328  16.140  32.900  14.331
43035W        W 2329  44.362  26.065  13.837
43036W        W 2330  30.992  35.489  13.538
43037W        W 2331  22.073  27.068   4.657
43038W        W 2332   4.736   9.199   1.448
43039W        W 2333  12.702  27.002  13.019
43040W        W 2334  23.989   4.928  14.848
43041W        W 2335  12.658   9.674   3.333
43042W        W 2336  42.474  26.179   3.183
43043W        W 2337  20.079  24.588  14.827
43044W        W 2338  15.292  25.216   1.447
43045W        W 2339  33.536   5.883   1.306
43046W        W 2340  34.095  34.095   1.766
43047W        W 2341  20.065  31.056  14.820
43048W        W 2342   3.805  25.089  14.968
43049W        W 2343   3.347  19.073   4.628
43050W        W 2344  41.303  39.338   1.868
43051W        W 2345  42.821   5.262  12.090
43052W        W 2346  44.799  13.612   1.740
43053W        W 2347  42.805   7.345   4.722
43054W        W 2348  12.142   6.210   3.728
43055W        W 2349   3.323   4.738   1.352
43056W        W 2350  27.031  12.694   3.754
43057W        W 2351   6.799  31.484  11.596
43058W        W 2352  21.687  20.064  11.878
43059W        W 2353  29.957  14.774  12.883
43060W        W 2354  39.408  33.537   1.221
43061W        W 2355   2.420  39.943  14.415
43062W        W 2356   8.252   5.428  11.115
43063W        W 2357  42.775  26.202   4.276
43064W        W 2358  44.001  22.111  14.919
43065W        W 2359   2.903   4.815  10.961
43066W        W 2360  37.076  25.079   4.823
43067W        W 2361  10.847  23.644   3.189
43068W        W 2362  10.770  14.796  14.770
43069W        W 2363  22.087   3.804   3.190
43070W        W 2364  29.546  22.150  11.598
43071W        W 2365   1.310  41.961  10.614
43072W        W 2366   7.908   5.881  12.477
43073W        W 2367  31.509   2.884  13.953
43074W        W 2368  19.676  11.703  11.442
43075W        W 2369  30.110   1.390   1.840
43076W        W 2370  35.408  17.064  13.035
43077W        W 2371   9.269   3.351   4.282
43078W        W 2372  14.822  16.238  11.858
43079W        W 2373  15.220   2.846  12.476
43080W        W 2374  13.307  36.987   0.797
43081W        W 2375   1.291   0.349   1.855
43082W        W 2376  37.953   9.355  14.436
43083W        W 2377  20.664  21.191   4.207
43084W        W 2378  36.844  25.611  12.567
43085W        W 2379  26.634  38.329   4.680
43086W        W 2380  29.461  37.509   0.768
43087W        W 2381   4.762  38.536  14.486
43088W        W 2382  24.064   1.263   3.157
43089W        W 2383  31.414   3.770  14.811
43090W        W 2384  27.455  24.205  13.505
43091W        W 2385  32.045   1.332   3.643
43092W        W 2386  43.909  15.300  11.448
43093W        W 2387  30.572   0.762  14.923
43094W        W 2388  24.515  33.031   4.257
43095W        W 2389   1.932   2.236  12.909
43096W        W 2390  39.552   3.380  13.037
43097W        W 2391  32.025  43.899  12.085
43098W        W 2392  31.147  33.498  14.296
43099W        W 2393  33.022  35.882  14.912
43100W        W 2394  42.442   4.394  12.004
43101W        W 2395  25.655  30.155   1.239
43102W        W 2396  14.626  16.688   3.159
43103W        W 2397  25.696  23.234   2.791
43104W        W 2398  12.279  12.142   4.774
43105W        W 2399  17.163  17.239   5.181
43106W        W 2400  20.569  27.989   1.327
43107W        W 2401  32.065  44.787   1.311
43108W        W 2402  12.679   3.246  12.940
43109W        W 2403   8.766  37.872   1.726
43110W        W 2404   7.717  34.034   3.171
43111W        W 2405   5.239   2.461  13.041
43112W        W 2406  35.086  36.461  13.319
43113W        W 2407  37.462  21.594   2.302
43114W        W 2408  25.039  32.501   2.292
43115W        W 2409  36.084  44.427  13.519
43116W        W 2410  14.781  23.122  11.923
43117W        W 2411  15.253  14.106  11.498
43118W        W 2412  35.991  27.554   1.299
43119W        W 2413  19.114   4.406  13.484
43120W        W 2414  22.031   6.830   0.777
43121W        W 2415   0.443  24.046   1.751
43122W        W 2416  40.507   2.882  13.456
43123W        W 2417   6.230  10.209   2.792
43124W        W 2418  31.495  33.402   4.599
43125W        W 2419  28.982  12.777   1.318
43126W        W 2420  28.660  38.034  11.046
43127W        W 2421   6.850   6.822  12.015
43128W        W 2422  23.205  30.930   0.803
43129W        W 2423  44.302  44.404   0.834
43130W        W 2424   1.449  11.151   1.840
43131W        W 2425  37.000  13.253   1.908
43132W        W 2426  43.496   2.965   2.353
43133W        W 2427  43.022  21.049   2.819
43134W        W 2428  12.619  33.085   4.677
43135W        W 2429  30.528  23.596  14.445
43136W        W 2430  26.058   4.761  10.434
43137W        W 2431   6.236  20.117  12.875
43138W        W 2432   6.907  27.026   4.115
43139W        W 2433  21.019  24.128   4.117
43140W        W 2434   1.481  18.735   0.823
43141W        W 2435   2.371  28.037   3.674
43142W        W 2436  26.469  25.507   5.235
43143W        W 2437  29.942  18.188   2.712
43144W        W 2438  29.115  34.877   3.360
43145W        W 2439  20.176   1.272  13.513
43146W        W 2440  23.513   8.791   0.953
43147W        W 2441  28.969  25.711   0.960
43148W        W 2442  21.222  23.028   0.291
43149W        W 2443  15.662  32.503   0.878
43150W        W 2444   1.347  17.169  14.931
43151W        W 2445  19.623   2.838   0.272
43152W        W 2446  26.161  17.096   1.402
43153W        W 2447  15.733   2.804  11.070
43154W        W 2448  27.060  29.451   3.862
43155W        W 2449  36.440  25.202  10.126
43156W        W 2450  19.152  15.806   1.220
43157W        W 2451  15.247  14.172   2.193
43158W        W 2452  36.945  18.247   1.804
43159W        W 2453  27.060   2.337   2.894
43160W        W 2454  39.939  43.345  12.837
43161W        W 2455   4.223   3.253   9.926
43162W        W 2456  39.872   5.296  12.971
43163W        W 2457  18.080   1.335   2.217
43164W        W 2458  44.275  21.055  12.925
43165W        W 2459  43.334  14.800  13.938
43166W        W 2460  14.252  29.971  10.896
43167W        W 2461   4.420  43.430  13.933
43168W        W 2462   5.321  28.526  10.465
43169W        W 2463  23.624  19.590  12.858
43170W        W 2464  35.101  40.879   3.809
43171W        W 2465  23.195  10.145   3.306
43172W        W 2466  25.482   0.461   0.761
43173W        W 2467  26.003  44.306  13.407
43174W        W 2468   9.765  21.659   1.399
43175W        W 2469  40.810  18.773  13.978
43176W        W 2470  16.761  30.532   1.231
43177W        W 2471  28.603  43.782   4.624
43178W        W 2472  35.920   1.294  11.533
43179W        W 2473  15.703  15.123  13.928
43180W        W 2474  17.616   8.749   2.809
43181W        W 2475  17.596  27.546   3.258
43182W        W 2476  16.303  39.914   4.764
43183W        W 2477  29.613   9.234  11.010
43184W        W 2478  17.594  40.924   4.139
43185W        W 2479  25.556  17.576  14.469
43186W        W 2480  27.527  41.970   3.670
43187W        W 2481  20.694  37.082   2.771
43188W        W 2482   9.669  42.836   1.267
43189W        W 2483  43.441  23.211  14.903
43190W        W 2484  11.681  12.841   3.732
43191W        W 2485   3.416  30.139  14.996
43192W        W 2486  31.465  13.810   4.175
43193W        W 2487  26.159  26.603   2.903
43194W        W 2488  24.217   8.750   3.792
43195W        W 2489   3.267  41.810   1.272
43196W        W 2490  30.529  19.688  11.611
43197W        W 2491  12.693  25.508  10.643
43198W        W 2492   7.881  21.673   4.627
43199W        W 2493  12.348  18.638  14.398
43200W        W 2494  33.539  41.476  10.084
43201W        W 2495   8.239  33.573  11.044
43202W        W 2496   5.862  10.282  12.488
43203W        W 2497  19.537  31.113  14.483
43204W        W 2498  40.960  13.777   4.758
43205W        W 2499  17.252  34.408   1.232
43206W        W 2500  23.675  10.840  11.611
43207W        W 2501   5.261  17.208   1.393
43208W        W 2502   4.305  38.571  12.361
43209W        W 2503  24.548  37.958  12.085
43210W        W 2504   3.290  19.741   0.738
43211W        W 2505  11.669  40.540   3.812
43212W        W 2506  16.259  42.351  12.360
43213W        W 2507  29.526   0.802   4.181
43214W        W 2508  21.550  28.097   3.825
43215W        W 2509  36.436  18.614   4.647
43216W        W 2510  34.473  43.443  14.308
43217W        W 2511  24.548  29.122  12.427
43218W        W 2512  31.499  43.854  12.968
43219W        W 2513  18.063  10.646   3.338
43220W        W 2514  43.005  14.731  13.975
43221W        W 2515  31.086  38.557   2.190
43222W        W 2516  22.089  38.943  13.842
43223W        W 2517  12.262  21.677   2.230
43224W        W 2518  44.839  44.456  12.868
43225W        W 2519  22.591  19.557   1.809
43226W        W 2520  22.732  40.912  13.872
43227W        W 2521  13.605  36.588  12.348
43228W        W 2522   8.202  12.834  12.451
43229W        W 2523  20.660  36.073   1.213
43230W        W 2524  34.947   7.801   3.248
43231W        W 2525   3.340  26.957   3.228
43232W        W 2526  18.166  40.919  14.331
43233W        W 2527  37.058   4.381   4.708
43234W        W 2528  14.298  39.935  10.900
43235W        W 2529  19.083   8.795   1.349
43236W        W 2530   2.250  14.119  10.014
43237W        W 2531  28.574  40.304   1.871
43238W        W 2532  29.514   5.840  10.936
43239W        W 2533  39.966   7.293   2.769
43240W        W 2534  10.269  15.090  11.061
43241W        W 2535  18.257  23.674   2.678
43242W        W 2536  37.081  25.151  13.338
43243W        W 2537  25.087  40.816   4.679
43244W        W 2538  33.966   5.344  14.000
43245W        W 2539  20.759   9.873   2.825
43246W        W 2540  41.038  19.275   4.278
43247W        W 2541  41.816  22.553   1.450
43248W        W 2542  32.946  19.597   2.255
43249W        W 2543  35.892  15.322   1.709
43250W        W 2544  21.104  15.284  13.433
43251W        W 2545  11.645   8.848  14.511
43252W        W 2546  31.098  34.386   4.219
43253W        W 2547  14.288  10.302   1.427
43254W        W 2548  29.996  26.501   2.711
43255W        W 2549  38.491  36.859  11.542
43256W        W 2550  36.994  20.134  14.290
43257W        W 2551  26.073  28.527  12.452
43258W        W 2552  35.481  38.921   2.247
43259W        W 2553  33.440  32.103   2.883
43260W        W 2554   2.256   7.337  13.967
43261W        W 2555  20.522   9.361   3.340
43262W        W 2556   3.327  17.164  10.521
43263W        W 2557  15.608  18.632   0.928
43264W        W 2558  42.320  24.230   1.859
43265W        W 2559  24.980  44.394  11.041
43266W        W 2560   4.713  17.145   3.658
43267W        W 2561  41.344  36.441  13.063
43268W        W 2562  24.103   2.796  10.627
43269W        W 2563   3.933  34.418   0.766
43270W        W 2564  39.522  44.430   1.394
43271W        W 2565   6.725  15.637  10.524
43272W        W 2566   0.491  10.798   1.229
43273W        W 2567  11.345  31.413  11.964
43274W        W 2568   2.431  17.185  14.508
43275W        W 2569  24.577  41.473   1.364
43276W        W 2570  41.511   0.305   0.470
43277W        W 2571  24.077  29.497  12.086
43278W        W 2572  44.899   0.255   0.868
43279W        W 2573  23.722   6.405  11.957
43280W        W 2574  29.149  26.556   1.802
43281W        W 2575  24.517  36.502   0.259
43282W        W 2576   6.695  37.872  12.046
43283W        W 2577  21.663  33.878   2.723
43284W        W 2578  17.140  28.672  13.955
43285W        W 2579  41.903  32.959   0.470
43286W        W 2580  33.925  42.883  14.402
43287W        W 2581  25.101  13.244   2.284
43288W        W 2582  12.643  44.304   0.921
43289W        W 2583   5.757  26.131   1.875
43290W        W 2584  30.931   6.787   0.394
43291W        W 2585  11.329  37.874   0.346
43292W        W 2586  14.156   1.771   3.870
43293W        W 2587  38.418   7.767  14.778
43294W        W 2588  40.352  28.569   1.845
43295W        W 2589  35.422   2.307  13.891
43296W        W 2590   2.259  26.955  12.946
43297W        W 2591  30.984   3.234   1.757
43298W        W 2592  37.407  19.187   1.323
43299W        W 2593  31.516  43.515  12.569
43300W        W 2594  42.958  22.694  12.824
43301W        W 2595   2.355  24.492  12.986
43302W        W 2596   5.867  40.510  12.429
43303W        W 2597  15.596   9.307   1.352
43304W        W 2598  14.133   4.324  14.848
43305W        W 2599  44.876  30.651   2.699
43306W        W 2600  44.902  31.440   2.897
43307W        W 2601  36.901  25.589  14.776
43308W        W 2602  11.172  39.500   2.363
43309W        W 2603  38.361  43.768  11.058
43310W        W 2604  12.205  11.300  10.499
43311W        W 2605  14.239  16.176   3.162
43312W        W 2606  15.736  26.594   0.956
43313W        W 2607  22.513   2.247  10.445
43314W        W 2608  29.485  11.130   3.226
43315W        W 2609  26.163  21.700   4.690
43316W        W 2610  42.516  33.609  10.437
43317W        W 2611   4.370   6.906  10.896
43318W        W 2612   5.897  34.082   9.598
43319W        W 2613   0.448   3.388  11.462
43320W        W 2614  27.573   7.909  11.599
43321W        W 2615  36.935   0.777  11.017
43322W        W 2616  22.198  22.019  12.014
43323W        W 2617  24.502   3.305  11.489
43324W        W 2618  14.307  36.417   3.772
43325W        W 2619  38.875  25.510   3.848
43326W        W 2620  34.002  31.083  12.562
43327W        W 2621  41.387  12.345  11.924
43328W        W 2622   9.783   0.430  10.435
43329W        W 2623  10.757  10.311   2.784
43330W        W 2624  31.083  39.034   3.151
43331W        W 2625  15.625  27.015   3.770
43332W        W 2626  11.130  29.524   3.686
43333W        W 2627  10.262   4.847   1.710
43334W        W 2628   1.434  35.989  10.525
43335W        W 2629   5.409  26.502   2.363
43336W        W 2630   4.440  26.531  11.976
43337W        W 2631   6.325   5.372   3.146
43338W        W 2632  11.149  25.606  12.363
43339W        W 2633  19.251  32.043   4.184
43340W        W 2634  39.407  42.485   2.185
43341W        W 2635   4.449  26.660   4.837
43342W        W 2636  37.425  42.007  13.932
43343W        W 2637   7.771  12.193   2.729
43344W        W 2638   8.840   5.794   2.228
43345W        W 2639  43.419   1.759   0.795
43346W        W 2640  41.491  38.019  14.870
43347W        W 2641  37.926  42.828  13.802
43348W        W 2642   4.821  36.502   3.752
43349W        W 2643  37.084   0.252  12.462
43350W        W 2644   8.665  39.004   4.289
43351W        W 2645  11.326   4.812   2.745
43352W        W 2646  35.064  18.239   0.425
43353W        W 2647   9.745  11.712   3.749
43354W        W 2648  24.488  39.880   1.319
43355W        W 2649  10.770  16.186   2.758
43356W        W 2650  20.045  16.260  11.880
43357W        W 2651   3.712  36.970  12.994
43358W        W 2652  29.546  20.253   2.403
43359W        W 2653  32.420   3.284   1.235
43360W        W 2654  10.265  36.973  14.015
43361W        W 2655  39.509  44.002   2.776
43362W        W 2656  14.591   7.275   4.201
43363W        W 2657  32.933  31.032  13.519
43364W        W 2658  12.218  19.147  11.038
43365W        W 2659  16.142  23.688  13.310
43366W        W 2660  20.258  20.086  11.576
43367W        W 2661   1.396  27.524   2.812
43368W        W 2662  18.139  33.593   1.851
43369W        W 2663  27.058  32.118   1.697
43370W        W 2664  41.436  31.419   1.214
43371W        W 2665  35.990   2.962   1.313
43372W        W 2666  24.651   6.199   5.239
43373W        W 2667  33.597  22.608   2.874
43374W        W 2668  39.026   6.397  14.304
43375W        W 2669  31.028  19.587   2.402
43376W        W 2670  22.543  17.178   3.743
43377W        W 2671  17.269  10.179  10.981
43378W        W 2672  42.874  16.298   2.410
43379W        W 2673   5.916  44.942   1.782
43380W        W 2674  21.050  31.615   4.606
43381W        W 2675   8.671   0.899   1.241
43382W        W 2676   8.298  28.936   2.411
43383W        W 2677  32.433  33.952  14.508
43384W        W 2678  21.112   3.364  10.045
43385W        W 2679  31.900  38.457  10.464
43386W        W 2680   4.245  14.200  10.991
43387W        W 2681  22.162  21.633   0.263
43388W        W 2682  42.916  13.798   1.838
43389W        W 2683  32.587   1.246   2.881
43390W        W 2684  32.908   8.190  14.002
43391W        W 2685  24.087  16.115  13.899
43392W        W 2686  42.869  27.548  12.469
43393W        W 2687  26.982  20.198  13.323
43394W        W 2688  20.135  39.998   3.663
43395W        W 2689  44.977  33.936   4.631
43396W        W 2690  27.582  18.236   0.437
43397W        W 2691   1.975   7.246  10.597
43398W        W 2692   4.318  25.098   1.355
43399W        W 2693  11.172   4.385  12.987
43400W        W 2694  10.249  30.103  11.505
43401W        W 2695  40.367  44.377   1.885
43402W        W 2696  42.380  30.919   3.684
43403W        W 2697  15.136  11.152   1.383
43404W        W 2698  42.000  32.577  13.334
43405W        W 2699  43.372  35.428  11.919
43406W        W 2700  41.849   3.282   5.263
43407W        W 2701  22.038  37.032  12.924
43408W        W 2702  40.451  10.228   5.125
43409W        W 2703  41.871  10.360   1.372
43410W        W 2704  28.617  41.316  10.640
43411W        W 2705  10.748  44.478  10.417
43412W        W 2706   4.895  38.980  12.554
43413W        W 2707  39.453  25.153  11.465
43414W        W 2708  26.598   0.969  14.968
43415W        W 2709   0.796   6.890  11.933
43416W        W 2710  38.331  25.653   4.654
43417W        W 2711   4.793  26.552  11.567
43418W        W 2712  26.653  13.147   4.770
43419W        W 2713  38.962  33.622  14.854
43420W        W 2714   5.707  13.690  14.313
43421W        W 2715  35.071  33.100  14.018
43422W        W 2716  22.500  32.043  13.383
43423W        W 2717  16.759   3.874  13.376
43424W        W 2718  30.122   4.776  13.909
43425W        W 2719  35.425  18.159   2.367
43426W        W 2720  28.125  39.971   2.328
43427W        W 2721  19.726  26.157  13.539
43428W        W 2722  37.921  24.111   2.892
43429W        W 2723  29.922  40.887   0.450
43430W        W 2724  37.437  38.513   3.217
43431W        W 2725  13.694  43.954   3.358
43432W        W 2726  44.388  44.423  14.279
43433W        W 2727  15.113  17.186  12.410
43434W        W 2728  14.755   3.318  13.865
43435W        W 2729  16.128  35.930   0.885
43436W        W 2730  22.539  24.603  12.027
43437W        W 2731  24.209  28.569  11.869
43438W        W 2732  30.957  29.084  13.911
43439W        W 2733  19.069  12.152  10.924
43440W        W 2734  31.944  37.370  13.004
43441W        W 2735  20.247  27.631  13.469
43442W        W 2736  17.250  20.671   3.792
43443W        W 2737  23.019  43.471   0.386
43444W        W 2738   6.183  44.289   2.248
43445W        W 2739  37.380  32.115  10.641
43446W        W 2740  14.599  39.056  10.106
43447W        W 2741  39.021   4.384  12.974
43448W        W 2742  35.068  29.584  11.081
43449W        W 2743  40.824   8.307  10.511
43450W        W 2744  17.770   0.867  11.533
43451W        W 2745  37.525  31.979   2.209
43452W        W 2746  33.431  21.652  10.988
43453W        W 2747  36.441  41.829   2.744
43454W        W 2748  42.031  35.101   0.352
43455W        W 2749   2.273  27.957  10.525
43456W        W 2750  17.609  35.080  12.874
43457W        W 2751  30.597   2.266   3.304
43458W        W 2752  40.961   2.470   4.340
43459W        W 2753  42.509   7.879   0.828
43460W        W 2754  22.682  25.487  11.540
43461W        W 2755  27.968  24.058   3.707
43462W        W 2756  27.011  35.898  13.866
43463W        W 2757  15.316  26.063   0.326
43464W        W 2758  37.983  42.318  12.542
43465W        W 2759  27.458  19.221   0.432
43466W        W 2760  12.355  21.138   4.354
43467W        W 2761  30.614  28.436  12.519
43468W        W 2762   7.408  42.303  11.959
43469W        W 2763  41.513  24.096  12.469
43470W        W 2764  23.493  33.390   4.335
43471W        W 2765  39.976   9.167   4.776
43472W        W 2766  11.700  11.312  13.404
43473W        W 2767  31.512  11.660  12.941
43474W        W 2768  30.560   8.864   3.775
43475W        W 2769  42.478  38.064   1.934
43476W        W 2770  38.008   0.267   1.334
43477W        W 2771  22.578  32.125  14.325
43478W        W 2772   7.289  13.176   2.688
43479W        W 2773   8.667  15.821   2.708
43480W        W 2774  30.931  42.835  12.090
43481W        W 2775   4.436  29.129   2.735
43482W        W 2776   0.270   1.810  12.918
43483W        W 2777  22.747  29.502  14.507
43484W        W 2778  17.194  44.859   1.441
43485W        W 2779  37.478  13.302  10.428
43486W        W 2780  41.489  31.506  14.506
43487W        W 2781   5.849  38.879  11.554
43488W        W 2782  16.568  14.660   0.333
43489W        W 2783  16.152   5.927  13.025
43490W        W 2784  27.646  20.052   2.321
43491W        W 2785  19.159  11.220  11.126
43492W        W 2786  16.255  16.648  13.063
43493W        W 2787   7.322  42.413  14.465
43494W        W 2788  42.401  18.662   0.483
43495W        W 2789  37.971  12.164  10.557
43496W        W 2790   2.883  43.286   2.264
43497W        W 2791  31.403  22.088  14.469
43498W        W 2792  37.889  28.142   4.348
43499W        W 2793   9.860  12.817   0.465
43500W        W 2794  30.923   9.679   1.801
43501W        W 2795   9.229  43.332  13.041
43502W        W 2796  12.139  10.857   3.323
43503W        W 2797  20.555  23.224   2.884
43504W        W 2798  21.145  12.134   2.735
43505W        W 2799  37.391  14.139   3.850
43506W        W 2800  14.308  14.179  14.839
43507W        W 2801  28.590  22.072   3.709
43508W        W 2802  26.487  30.652   2.883
43509W        W 2803  26.191  26.482  10.895
43510W        W 2804  41.989  17.749   1.802
43511W        W 2805  10.684  20.577  12.483
43512W        W 2806  26.097   6.719   2.382
43513W        W 2807  38.396   9.851  11.453
43514W        W 2808  24.708  27.183   1.875
43515W        W 2809   8.674  14.163   0.740
43516W        W 2810  44.372  20.123   3.757
43517W        W 2811  21.028  41.999  12.525
43518W        W 2812  31.631   8.254  10.607
43519W        W 2813  18.743  17.163   1.228
43520W        W 2814  19.624  21.565  11.385
43521W        W 2815  30.989  17.627  13.957
43522W        W 2816   9.755  27.037  12.921
43523W        W 2817  35.504   4.253  12.353
43524W        W 2818  42.517  27.105   1.712
43525W        W 2819  34.101  31.437   1.401
43526W        W 2820  35.940   4.415   4.825
43527W        W 2821  27.061  23.532  10.478
43528W        W 2822  39.341  43.790   2.242
43529W        W 2823  11.359  44.332   2.403
43530W        W 2824   8.184  16.764  11.585
43531W        W 2825  20.739  36.353  12.894
43532W        W 2826  31.540  31.010  14.982
43533W        W 2827  38.454  40.905  12.510
43534W        W 2828  20.614  39.504   4.349
43535W        W 2829  39.323  14.787  11.535
43536W        W 2830  17.178   6.804   1.775
43537W        W 2831   4.912   5.774  12.921
43538W        W 2832  42.312   9.667  12.468
43539W        W 2833  17.150   6.239  13.809
43540W        W 2834  14.804  33.581   4.813
43541W        W 2835  27.166  23.535  10.961
43542W        W 2836  37.938   9.376   2.349
43543W        W 2837  32.983  34.047   3.829
43544W        W 2838  43.764   7.907   4.124
43545W        W 2839  42.464   2.721  12.398
43546W        W 2840  30.955  14.732   1.349
43547W        W 2841  43.367  23.521  14.839
43548W        W 2842  24.105  21.244   0.313
43549W        W 2843  15.754  39.020   5.142
43550W        W 2844  38.046  25.656  14.444
43551W        W 2845  27.508  44.855   2.863
43552W        W 2846  40.395  12.855  12.992
43553W        W 2847  44.374  32.080  10.477
43554W        W 2848  10.174   4.239   2.297
43555W        W 2849  28.066  39.347   2.841
43556W        W 2850   6.868  36.011   2.351
43557W        W 2851  39.887   6.339  14.923
43558W        W 2852  33.949  31.942  11.036
43559W        W 2853  29.460   6.783  12.448
43560W        W 2854  37.851  10.353   1.792
43561W        W 2855  13.349  10.856   4.136
43562W        W 2856  15.694   6.827   2.188
43563W        W 2857  36.851  39.526  12.366
43564W        W 2858  30.018  15.161  12.351
43565W        W 2859  19.106  32.596   3.835
43566W        W 2860  22.712  26.637  10.554
43567W        W 2861  15.583  23.090   0.251
43568W        W 2862  41.419   4.417   3.377
43569W        W 2863   3.822  33.438  11.894
43570W        W 2864   0.915  24.497   3.370
43571W        W 2865  13.831  41.849   3.161
43572W        W 2866  43.292  23.173   0.460
43573W        W 2867  32.036  14.700  14.506
43574W        W 2868   5.779  43.810  12.992
43575W        W 2869  19.112   9.812   2.731
43576W        W 2870  36.358  44.290   3.747
43577W        W 2871  22.732  15.199   0.902
43578W        W 2872  13.236  36.507   1.933
43579W        W 2873  13.652  32.136  10.957
43580W        W 2874  23.675  11.342  12.055
43581W        W 2875  20.694  42.377   3.346
43582W        W 2876  32.124   3.444   4.273
43583W        W 2877  42.370  41.401  13.438
43584W        W 2878  10.875   7.221   4.811
43585W        W 2879  26.532  41.949  13.415
43586W        W 2880  16.191  43.797   1.360
43587W        W 2881  31.446  26.088   2.811
43588W        W 2882  29.541  30.012   2.757
43589W        W 2883   3.316   4.264  14.789
43590W        W 2884  26.573  10.826  14.764
43591W        W 2885  27.586  27.502  14.408
43592W        W 2886   7.294  23.152   4.609
43593W        W 2887  23.026   5.857  11.981
43594W        W 2888  28.617  31.524  10.441
43595W        W 2889  10.285  33.456   0.919
43596W        W 2890  24.135  40.829   0.962
43597W        W 2891   8.669  22.101   0.928
43598W        W 2892  44.291  33.486  11.485
43599W        W 2893  15.646   5.825  13.394
43600W        W 2894  18.594  30.111   3.689
43601W        W 2895  30.614  36.497  12.032
43602W        W 2896  36.508  40.391  14.789
43603W        W 2897  18.600  23.191   1.281
43604W        W 2898  31.060  23.240   2.194
43605W        W 2899  23.018  25.503   3.190
43606W        W 2900   0.773  15.712  10.559
43607W        W 2901  22.707  24.095  14.030
43608W        W 2902   6.708   6.374   3.330
43609W        W 2903  44.345   7.859   4.124
43610W        W 2904   9.818  17.117   2.224
43611W        W 2905   6.777   4.839   3.179
43612W        W 2906  27.677  10.322   4.761
43613W        W 2907  18.158   9.730  11.553
43614W        W 2908   0.798  42.425  12.981
43615W        W 2909  31.964  12.127   0.748
43616W        W 2910  36.097  31.548   3.272
43617W        W 2911  31.095  42.794   3.284
43618W        W 2912  17.171   7.414  14.791
43619W        W 2913   3.941   1.269  10.604
43620W        W 2914  13.155  13.300   3.195
43621W        W 2915  23.096   1.243  10.611
43622W        W 2916   1.453  30.479  11.522
43623W        W 2917  41.466  37.907  13.809
43624W        W 2918  17.681  19.076   2.319
43625W        W 2919  19.178  44.446   1.777
43626W        W 2920  40.966  17.648   0.894
43627W        W 2921  12.157  19.550   2.857
43628W        W 2922  14.772  37.436  10.073
43629W        W 2923  12.142  11.671   1.930
43630W        W 2924  23.985  18.761  11.102
43631W        W 2925   6.837  43.311   2.689
43632W        W 2926  38.914   4.449   2.400
43633W        W 2927  39.351   3.743   4.200
43634W        W 2928  20.240  19.235   9.481
43635W        W 2929   9.760  25.508  14.905
43636W        W 2930   0.481  12.340   3.807
43637W        W 2931  20.211   3.287  12.369
43638W        W 2932  35.014   1.328   2.709
43639W        W 2933  37.336  31.584  14.978
43640W        W 2934  28.477   9.320  11.447
43641W        W 2935  41.488  44.456   0.774
43642W        W 2936  35.604  32.437  14.340
43643W        W 2937  39.055   0.915  10.952
43644W        W 2938  33.916  11.225   0.315
43645W        W 2939  10.187  27.949   5.236
43646W        W 2940  38.036  21.520   4.641
43647W        W 2941   9.385  16.787   0.807
43648W        W 2942  33.497  31.941   5.277
43649W        W 2943  36.058  34.017  12.960
43650W        W 2944  19.100   8.235  11.563
43651W        W 2945  37.537  31.585   4.678
43652W        W 2946  25.152  33.554  14.512
43653W        W 2947  24.210  29.144   3.166
43654W        W 2948  34.933  11.193  12.453
43655W        W 2949  15.116  36.441   3.243
43656W        W 2950  40.506  28.121  13.999
43657W        W 2951  19.731  28.018   1.703
43658W        W 2952  11.284  26.467  14.380
43659W        W 2953  31.617  30.039   0.809
43660W        W 2954   0.355   4.299   0.944
43661W        W 2955   6.740  13.768   2.315
43662W        W 2956  20.759  19.661  13.364
43663W        W 2957  13.250  41.877  10.502
43664W        W 2958  42.017  27.168   2.298
43665W        W 2959  38.938   2.407   0.295
43666W        W 2960  17.148   0.464  10.461
43667W        W 2961  37.926  40.929  12.864
43668W        W 2962  16.132  25.076  11.080
43669W        W 2963  12.696  11.746  12.021
43670W        W 2964  42.452   8.709  14.280
43671W        W 2965   9.757  20.271   1.801
43672W        W 2966   5.355  22.243  13.935
43673W        W 2967  32.916  41.974  12.526
43674W        W 2968  18.139  35.857   0.438
43675W        W 2969  16.167  27.495  13.022
43676W        W 2970  38.460  27.137   3.190
43677W        W 2971  11.796  17.199  10.607
43678W        W 2972  19.039  21.180   1.717
43679W        W 2973   9.652  35.360   1.804
43680W        W 2974   2.368  31.071  14.436
43681W        W 2975  17.757   9.196   1.797
43682W        W 2976  38.432  39.058  14.821
43683W        W 2977  12.630  38.897   1.362
43684W        W 2978  28.104  29.168  10.411
43685W        W 2979  33.394  38.471  11.996
43686W        W 2980  41.401  34.604  12.069
43687W        W 2981  38.051   4.220   2.248
43688W        W 2982  33.097  39.540  13.352
43689W        W 2983  39.353   0.434  12.554
43690W        W 2984  11.217  44.954   1.344
43691W        W 2985  14.622  18.687   3.769
43692W        W 2986  15.263  36.584   2.772
43693W        W 2987   1.883  42.844   4.323
43694W        W 2988   9.198  27.990   0.465
43695W        W 2989   9.797  15.802  10.069
43696W        W 2990  21.556   6.785  14.888
43697W        W 2991  41.497  31.405  11.443
43698W        W 2992   9.248  29.503   0.882
43699W        W 2993  12.117  14.324  12.986
43700W        W 2994   6.816  37.500   2.773
43701W        W 2995  27.998  36.098  14.337
43702W        W 2996  35.484  43.493   0.259
43703W        W 2997  38.016  19.685  10.969
43704W        W 2998  39.510  21.758   1.246
43705W        W 2999   1.239  40.901  10.422
43706W        W 3000  41.839  34.106   2.872
43707W        W 3001  28.989  36.505  14.849
43708W        W 3002  12.122  23.725   2.394
43709W        W 3003  37.891  15.823   4.130
43710W        W 3004   0.451  36.960  13.837
43711W        W 3005  42.830  30.004  14.925
43712W        W 3006   1.301   9.803  14.999
43713W        W 3007   6.405  14.184   3.682
43714W        W 3008  28.571  37.968  13.492
43715W        W 3009  34.425  14.221   1.799
43716W        W 3010   7.910  17.666  10.902
43717W        W 3011  40.547  19.099  13.855
43718W        W 3012  21.556   4.708   0.440
43719W        W 3013  17.745  14.806  11.881
43720W        W 3014  10.687  14.177  13.916
43721W        W 3015  23.108  33.978  13.973
43722W        W 3016  24.025  28.163   4.172
43723W        W 3017  40.910  16.124  11.096
43724W        W 3018  12.157  31.018  11.091
43725W        W 3019  10.337  44.924  10.891
43726W        W 3020   3.225  23.142  14.419
43727W        W 3021  35.897  30.085  13.346
43728W        W 3022   4.410  22.726  12.435
43729W        W 3023  16.605  14.769   9.981
43730W        W 3024  39.448  33.576  14.286
43731W        W 3025  43.001  32.544   2.849
43732W        W 3026  32.494  36.042  12.562
43733W        W 3027  24.056  30.928  11.490
43734W        W 3028  41.838   4.866  13.817
43735W        W 3029  43.853   2.960   4.616
43736W        W 3030  29.128  44.316   1.375
43737W        W 3031  27.184  28.654  13.878
43738W        W 3032  20.666  15.239   2.755
43739W        W 3033  22.242  29.923  13.440
43740W        W 3034  33.998  33.956   4.755
43741W        W 3035  31.152  36.578  13.424
43742W        W 3036  39.559  23.509   4.139
43743W        W 3037  20.067  20.678   3.224
43744W        W 3038  12.753  24.071   1.797
43745W        W 3039  43.317  34.965   1.281
43746W        W 3040  24.657   2.897   1.447
43747W        W 3041  20.704  32.521   1.731
43748W        W 3042   7.298  14.769   4.190
43749W        W 3043  41.506  11.694  11.549
43750W        W 3044  19.610  32.906   3.718
43751W        W 3045  20.743  31.568   0.468
43752W        W 3046   9.726   5.343   2.742
43753W        W 3047  25.159  36.395  12.546
43754W        W 3048  39.381  14.271   0.897
43755W        W 3049  34.945  44.421  13.034
43756W        W 3050   3.872   3.222   4.161
43757W        W 3051  13.167  37.537  10.592
43758W        W 3052  15.203  27.013  10.967
43759W        W 3053  24.499   7.253  12.386
43760W        W 3054  20.270  41.379   2.864
43761W        W 3055  37.375  31.602  11.886
43762W        W 3056  25.207   9.298   3.271
43763W        W 3057   0.746   3.713  13.923
43764W        W 3058  20.155  29.133  12.424
43765W        W 3059  32.435   5.864   1.776
43766W        W 3060  23.669  23.735   0.923
43767W        W 3061  27.105  19.547   0.365
43768W        W 3062   4.795  19.700   2.408
43769W        W 3063  18.694  23.989   4.140
43770W        W 3064  29.630  34.474   0.958
43771W        W 3065  42.297  40.461   2.711
43772W        W 3066  26.494  35.107  13.455
43773W        W 3067  33.000   3.401  14.809
43774W        W 3068  37.084  18.682   0.884
43775W        W 3069   5.414  31.410   0.315
43776W        W 3070  38.877  36.498   4.312
43777W        W 3071  28.666  34.458   2.404
43778W        W 3072  15.787  26.466   3.807
43779W        W 3073   9.796  36.984  12.842
43780W        W 3074   6.373  12.248  12.429
43781W        W 3075  14.100   3.219  13.445
43782W        W 3076   4.788   5.322  11.580
43783W        W 3077  25.133  14.694   1.431
43784W        W 3078  40.010   1.846   1.760
43785W        W 3079  22.180  21.746  13.925
43786W        W 3080  14.104   5.242  11.028
43787W        W 3081   2.753  39.913   0.865
43788W        W 3082  30.654  16.590   2.799
43789W        W 3083  23.685   9.865   2.704
43790W        W 3084   7.880  34.468  14.804
43791W        W 3085   8.160  19.153   2.245
43792W        W 3086  12.695  27.538  11.065
43793W        W 3087  41.856  32.030  13.863
43794W        W 3088  21.630  16.301  12.926
43795W        W 3089   6.309  25.136  13.439
43796W        W 3090  30.011  24.051  14.462
43797W        W 3091  29.657  38.830   0.808
43798W        W 3092  29.005  20.528   2.244
43799W        W 3093  38.410  17.228   3.240
43800W        W 3094  25.648  23.227  11.503
43801W        W 3095  24.171  13.723  11.904
43802W        W 3096  36.054  41.538  12.487
43803W        W 3097  23.630   4.309   4.336
43804W        W 3098   9.258   9.313  13.915
43805W        W 3099  23.112  17.154   0.837
43806W        W 3100  36.098  18.622   3.219
43807W        W 3101  44.289  19.215   1.331
43808W        W 3102  17.760  18.751   2.791
43809W        W 3103   7.826   1.890   4.336
43810W        W 3104  38.416   4.706   1.402
43811W        W 3105  18.079  16.117   1.840
43812W        W 3106   3.346  20.101  11.925
43813W        W 3107  34.897  29.144   2.340
43814W        W 3108   2.941  32.491  14.409
43815W        W 3109  22.728   6.355   5.316
43816W        W 3110  26.673   9.202   3.342
43817W        W 3111  41.487  42.292   4.271
43818W        W 3112  35.520  15.085   2.682
43819W        W 3113  37.875  28.973  11.037
43820W        W 3114  26.611   9.684   4.699
43821W        W 3115  33.411   1.833  11.436
43822W        W 3116   7.271  22.709  12.551
43823W        W 3117  27.552   0.834   2.775
43824W        W 3118  38.337   6.861  12.462
43825W        W 3119  35.576  25.698  10.450
43826W        W 3120  23.035  28.618  11.473
43827W        W 3121  12.703  34.929  12.569
43828W        W 3122   9.755  15.132   1.824
43829W        W 3123  13.767  36.491   0.896
43830W        W 3124   7.313  23.524  10.568
43831W        W 3125  38.554  37.991   1.771
43832W        W 3126  42.843  31.947  13.903
43833W        W 3127  18.608   2.383   2.397
43834W        W 3128  32.561  31.453   2.796
43835W        W 3129   3.892  42.325  14.836
43836W        W 3130  21.672   9.841   2.826
43837W        W 3131  40.011  20.566  12.413
43838W        W 3132  17.614   6.922  13.955
43839W        W 3133   9.722  14.132   3.162
43840W        W 3134  27.980  13.724   1.240
43841W        W 3135  29.994   5.272   1.881
43842W        W 3136  12.727  31.005  13.849
43843W        W 3137  37.899   6.680  11.963
43844W        W 3138   5.908  21.625   1.919
43845W        W 3139   5.788  37.436  12.976
43846W        W 3140  18.168   3.871  13.489
43847W        W 3141  30.001  13.173  12.034
43848W        W 3142   8.778  19.180  11.577
43849W        W 3143  44.410   2.356   5.270
43850W        W 3144  29.038  26.036  11.449
43851W        W 3145   3.765  12.636   1.336
43852W        W 3146  21.621  40.988   0.905
43853W        W 3147  19.565  24.600   2.767
43854W        W 3148   1.743   2.456  11.073
43855W        W 3149  38.046   0.820   0.301
43856W        W 3150   3.801  19.680   3.649
43857W        W 3151  43.400  21.073  13.482
43858W        W 3152  10.710  34.056   2.831
43859W        W 3153  19.063  33.495  14.436
43860W        W 3154  41.323   3.278  14.286
43861W        W 3155  21.156  29.668   2.219
43862W        W 3156  39.499  16.798   2.738
43863W        W 3157  44.337  30.466  14.497
43864W        W 3158  26.501  22.038   0.361
43865W        W 3159  17.255  27.151   0.865
43866W        W 3160  16.271  37.488   3.828
43867W        W 3161  39.062   5.377   2.187
43868W        W 3162  36.947  19.263   4.260
43869W        W 3163  17.225  14.117   2.730
43870W        W 3164  10.753  19.586   3.347
43871W        W 3165  26.648  27.964  12.488
43872W        W 3166   0.381  19.634   2.244
43873W        W 3167   9.248  26.205   3.753
43874W        W 3168  39.530  10.736  10.594
43875W        W 3169  22.105  43.401   1.217
43876W        W 3170  24.500  30.633   1.905
43877W        W 3171  24.047   7.398  10.986
43878W        W 3172  30.101  17.135   0.338
43879W        W 3173   5.251  29.425   1.218
43880W        W 3174  21.589  38.505  13.373
43881W        W 3175   7.863  14.094  14.935
43882W        W 3176  36.899   5.213   4.226
43883W        W 3177   2.945  43.016  14.408
43884W        W 3178  32.424  33.535   3.267
43885W        W 3179  35.078   6.873   2.899
43886W        W 3180   3.237  32.571   0.749
43887W        W 3181  40.391  28.157  14.899
43888W        W 3182  39.866  19.609  13.901
43889W        W 3183  29.592  33.908   1.924
43890W        W 3184  20.575  27.634   1.250
43891W        W 3185   2.872   9.268   2.416
43892W        W 3186  39.820  40.836  13.399
43893W        W 3187  20.200  31.632  11.502
43894W        W 3188  16.282  24.684  13.423
43895W        W 3189  14.160  40.470   0.422
43896W        W 3190  38.515  25.536  14.795
43897W        W 3191  25.636  12.197   1.250
43898W        W 3192   5.367  31.953   3.746
43899W        W 3193  13.719  44.910  14.280
43900W        W 3194  30.529  12.849   4.232
43901W        W 3195  44.447   7.880  11.488
43902W        W 3196  28.681  20.138   1.720
43903W        W 3197  25.516  35.404  12.999
43904W        W 3198   7.717   9.698  13.813
43905W        W 3199  19.104  24.131  13.954
43906W        W 3200   6.263  40.418   1.723
43907W        W 3201  11.225  41.961  13.520
43908W        W 3202  13.265  31.547   3.229
43909W        W 3203  44.442  27.034   2.324
43910W        W 3204  37.967  30.478   2.278
43911W        W 3205  25.713  42.319   4.350
43912W        W 3206  26.105  23.196   1.445
43913W        W 3207  15.773  13.636  12.560
43914W        W 3208   2.827  13.201   4.644
43915W        W 3209   7.810   9.700   2.220
43916W        W 3210  32.557  44.965  12.988
43917W        W 3211  39.350  28.659  10.613
43918W        W 3212  39.015  38.016   3.791
43919W        W 3213  24.629   8.818  11.922
43920W        W 3214   9.155  31.974  13.385
43921W        W 3215  20.181  11.141  12.359
43922W        W 3216   4.279  29.535   1.748
43923W        W 3217  16.756  44.856   0.312
43924W        W 3218   0.811  17.145   1.762
43925W        W 3219  30.497  42.967   1.780
43926W        W 3220  40.343  10.659   4.756
43927W        W 3221  37.901   9.201   4.319
43928W        W 3222  14.184  34.425  12.884
43929W        W 3223   4.212   2.391  12.029
43930W        W 3224  12.722  19.118  14.464
43931W        W 3225   1.339  32.118  12.921
43932W        W 3226  24.066  23.715  11.462
43933W        W 3227  34.965  30.585   3.865
43934W        W 3228  35.365  20.630  11.914
43935W        W 3229   2.761  27.459  13.905
43936W        W 3230  21.177   7.855   0.364
43937W        W 3231  37.853  19.633  10.561
43938W        W 3232  21.097  28.150  10.992
43939W        W 3233  18.153  39.831   0.400
43940W        W 3234  16.313  41.478   1.911
43941W        W 3235  36.485  34.484   0.809
43942W        W 3236  36.040  27.487   1.799
43943W        W 3237   3.315   1.973  13.006
43944W        W 3238   5.378  12.275   4.731
43945W        W 3239  16.752  27.145   3.781
43946W        W 3240  33.088  10.303   4.268
43947W        W 3241  17.738   6.719   4.215
43948W        W 3242  36.877  22.086  11.410
43949W        W 3243   9.235  27.065   0.813
43950W        W 3244  22.203  40.903   0.876
43951W        W 3245  30.139  19.148  13.403
43952W        W 3246  26.029   5.280   0.340
43953W        W 3247   9.363  37.925  10.516
43954W        W 3248  40.894  15.616   4.787
43955W        W 3249  40.341  29.602   1.863
43956W        W 3250   7.268  18.255  11.436
43957W        W 3251  41.347  18.054   1.304
43958W        W 3252  13.787   7.760  12.496
43959W        W 3253  12.772  17.162  12.007
43960W        W 3254  38.892  32.909  11.048
43961W        W 3255  41.426  24.127   2.186
43962W        W 3256  42.328  21.543  10.590
43963W        W 3257  40.023  38.886   2.384
43964W        W 3258  29.950  18.591  14.969
43965W        W 3259  30.002   9.259   4.190
43966W        W 3260  30.049   1.785   0.303
43967W        W 3261  36.915   0.494   0.470
43968W        W 3262  36.951  12.149  12.474
43969W        W 3263  32.141   2.456   4.298
43970W        W 3264  40.877  31.494   1.817
43971W        W 3265  20.270  18.234   1.858
43972W        W 3266  29.609  27.503   2.349
43973W        W 3267   4.732  27.524  12.342
43974W        W 3268  24.084  21.205  13.928
43975W        W 3269  26.486  26.016   9.946
43976W        W 3270   3.389  22.578   2.246
43977W        W 3271  14.821  15.772  12.574
43978W        W 3272  12.283  16.192  11.571
43979W        W 3273   3.428  29.033  14.511
43980W        W 3274   9.247   3.223  11.611
43981W        W 3275  19.685  20.640   1.282
43982W        W 3276   1.278  26.105  12.955
43983W        W 3277   8.308  25.998  11.983
43984W        W 3278  29.588  26.686   5.147
43985W        W 3279  28.113   3.247  10.404
43986W        W 3280  26.186  42.340  11.539
43987W        W 3281   9.230  36.048   1.750
43988W        W 3282  22.739  26.971  14.929
43989W        W 3283  30.593  15.182  13.959
43990W        W 3284  13.274  10.352  11.603
43991W        W 3285  39.916  21.656   1.867
43992W        W 3286  21.652  16.132   0.818
43993W        W 3287  22.998   2.454   2.326
43994W        W 3288  20.275  22.688   4.209
43995W        W 3289  31.903  13.846   2.361
43996W        W 3290  30.433  19.132  10.531
43997W        W 3291   1.924  44.367   3.169
43998W        W 3292  25.517  40.935  13.475
43999W        W 3293  18.701  36.916   1.349
44000W        W 3294   4.701  11.797  13.492
44001W        W 3295  40.050  17.726  12.882
44002W        W 3296  12.785   7.324  14.936
44003W        W 3297   6.715  16.288   0.435
44004W        W 3298  20.571   5.739  14.306
44005W        W 3299   7.752  28.086  12.011
44006W        W 3300  26.127  12.743   1.378
44007W        W 3301  14.198  29.455  12.417
44008W        W 3302  34.518  40.882  12.916
44009W        W 3303  27.599  11.765   4.833
44010W        W 3304  42.444  16.085   4.295
44011W        W 3305   4.441   7.750   0.393
44012W        W 3306   7.690  34.095  12.898
44013W        W 3307  33.439  22.117   3.639
44014W        W 3308  19.247  35.073   0.445
44015W        W 3309  24.216  15.182  12.524
44016W        W 3310  32.091  24.202  11.568
44017W        W 3311  15.297  24.564   1.919
44018W        W 3312   3.270  13.141  13.311
44019W        W 3313   3.748   3.918   4.116
44020W        W 3314  16.738  19.066  11.976
44021W        W 3315  16.764  25.176   1.343
44022W        W 3316  35.097  16.315  13.375
44023W        W 3317  13.846   6.923   4.260
44024W        W 3318  13.155  23.212  11.056
44025W        W 3319  18.544  35.406   2.850
44026W        W 3320  19.722   8.849  10.955
44027W        W 3321  34.532  40.425   2.298
44028W        W 3322  32.539  44.788   2.855
44029W        W 3323   0.471  35.028  12.935
44030W        W 3324  42.525  29.426  10.618
44031W        W 3325  43.397  15.674  11.089
44032W        W 3326   1.854  11.185   0.376
44033W        W 3327   0.376  43.771  12.345
44034W        W 3328  20.192  25.133  13.355
44035W        W 3329  32.536   4.866   2.256
44036W        W 3330   5.785  19.546  12.915
44037W        W 3331  39.456  37.511   9.465
44038W        W 3332  13.845  24.056  13.395
44039W        W 3333  20.274  18.600  13.064
44040W        W 3334   7.395  12.699   0.365
44041W        W 3335   3.756  25.610   0.347
44042W        W 3336  42.962   9.228  14.003
44043W        W 3337  36.365  43.320   1.266
44044W        W 3338  41.393  17.633   0.854
44045W        W 3339  23.222   2.329   2.706
44046W        W 3340  24.643  21.072  13.017
44047W        W 3341  17.252   4.926   3.262
44048W        W 3342  23.694   4.782   1.315
44049W        W 3343   7.339  28.473   2.354
44050W        W 3344   4.905  23.027   2.368
44051W        W 3345  41.959  14.130   4.753
44052W        W 3346  12.792  15.177  10.106
44053W        W 3347  29.098  16.772   2.409
44054W        W 3348  15.220  23.514  13.331
44055W        W 3349  23.216  42.507  11.121
44056W        W 3350  18.678  17.223   1.836
44057W        W 3351   9.723  10.650  14.767
44058W        W 3352   2.831   2.794  14.468
44059W        W 3353  34.077  27.493  13.431
44060W        W 3354  21.193  35.888   4.698
44061W        W 3355  33.434  27.060  11.418
44062W        W 3356  14.682  18.604  12.377
44063W        W 3357   6.838   9.829  12.956
44064W        W 3358  33.567  44.423  11.913
44065W        W 3359   1.923  25.072   3.192
44066W        W 3360  38.057   3.219  12.472
44067W        W 3361  41.894  11.255  14.924
44068W        W 3362  16.585  17.792  11.889
44069W        W 3363  16.197  29.079  12.442
44070W        W 3364  32.459   2.234   4.669
44071W        W 3365  21.704   4.259  13.795
44072W        W 3366  31.026  31.008  12.514
44073W        W 3367   0.250  22.082  10.529
44074W        W 3368   2.749  14.113   2.754
44075W        W 3369  42.517  26.625   1.705
44076W        W 3370  36.468  33.010  11.423
44077W        W 3371  28.658  43.957  11.935
44078W        W 3372  39.338  29.121   2.902
44079W        W 3373  35.084  27.941   3.376
44080W        W 3374  28.000   4.277  14.882
44081W        W 3375   5.769  20.587  13.849
44082W        W 3376  30.114  16.661  10.596
44083W        W 3377  18.609   1.905  14.012
44084W        W 3378  12.764   9.247  10.591
44085W        W 3379  36.432  38.990  14.924
44086W        W 3380  27.513  11.148  14.947
44087W        W 3381   7.692  16.688   0.426
44088W        W 3382   4.331  30.051   2.841
44089W        W 3383  18.752  10.720  14.432
44090W        W 3384   8.891  34.478  10.455
44091W        W 3385  38.533   4.826   4.249
44092W        W 3386   2.436  19.675   1.709
44093W        W 3387  28.182  23.008   1.272
44094W        W 3388  32.048   3.932   4.180
44095W        W 3389  38.939  24.633  14.926
44096W        W 3390  31.099  37.062  11.107
44097W        W 3391  15.706  33.917   5.284
44098W        W 3392  14.767   7.689   3.270
44099W        W 3393  21.565  31.931  14.308
44100W        W 3394  14.762  19.080   0.257
44101W        W 3395   0.766  39.826   0.244
44102W        W 3396   4.922  11.757  11.509
44103W        W 3397  43.836  28.534  11.442
44104W        W 3398  34.595  30.055  13.823
44105W        W 3399  17.102  32.932  11.497
44106W        W 3400  42.526  19.168   3.763
44107W        W 3401  41.415  31.615   3.163
44108W        W 3402   3.403  25.673  11.869
44109W        W 3403  41.316  37.477  11.585
44110W        W 3404  25.583   4.701  10.469
44111W        W 3405  34.543  44.270   2.210
44112W        W 3406  34.968  21.046  13.065
44113W        W 3407  32.074   4.768  10.607
44114W        W 3408   0.757  41.339  11.394
44115W        W 3409   2.421   6.917   1.361
44116W        W 3410  20.215  18.704   2.776
44117W        W 3411  32.958  31.127  14.303
44118W        W 3412  10.317  42.318   4.643
44119W        W 3413  39.879  19.655   1.386
44120W        W 3414  29.113  20.643   4.177
44121W        W 3415  42.997   4.841   1.920
44122W        W 3416  19.570  23.037   0.452
44123W        W 3417  39.445  15.624  14.459
44124W        W 3418   5.341   0.288   5.262
44125W        W 3419  40.351  29.144   4.729
44126W        W 3420   0.492   3.241   1.337
44127W        W 3421  10.218  20.739   1.918
44128W        W 3422   1.936  36.076   4.729
44129W        W 3423   9.341  32.113   4.349
44130W        W 3424  40.439   4.821  13.399
44131W        W 3425   0.761  44.766   0.740
44132W        W 3426  29.073  39.961  10.453
44133W        W 3427  41.002  30.081  10.600
44134W        W 3428  22.716   7.822   4.319
44135W        W 3429  11.348  14.695  10.917
44136W        W 3430   4.713  39.544   3.852
44137W        W 3431  10.166  16.754  13.315
44138W        W 3432  20.226   3.254  11.008
44139W        W 3433   6.785  29.599  11.917
44140W        W 3434  13.255  24.618  10.502
44141W        W 3435  32.435   9.290   3.682
44142W        W 3436  16.163  19.135  13.927
44143W        W 3437  32.493  42.883   2.361
44144W        W 3438  13.341  42.289  12.496
44145W        W 3439  32.454  42.304  10.416
44146W        W 3440  20.230  27.024   3.809
44147W        W 3441   7.680  27.569   2.693
44148W        W 3442  33.531   1.327   0.336
44149W        W 3443  25.112  10.213  11.932
44150W        W 3444   3.745   6.419   4.239
44151W        W 3445  20.625  40.851  12.078
44152W        W 3446  38.820  18.711  11.873
44153W        W 3447   8.376  37.861   4.660
44154W        W 3448  28.142  27.599   4.761
44155W        W 3449   0.363  10.672  11.597
44156W        W 3450  34.897   5.900  10.954
44157W        W 3451  32.084  42.961  10.068
44158W        W 3452  11.774  34.537  12.063
44159W        W 3453  35.419   7.827  11.375
44160W        W 3454   2.329  13.738   0.322
44161W        W 3455  20.223  39.939  12.565
44162W        W 3456  33.030  38.465   1.374
44163W        W 3457   1.399  38.469  14.800
44164W        W 3458   5.834  28.008  12.027
44165W        W 3459  28.650   5.258   1.913
44166W        W 3460  35.919  31.423   4.691
44167W        W 3461  17.134   2.245  13.490
44168W        W 3462   1.902  40.450   3.352
44169W        W 3463   6.237  35.398   3.359
44170W        W 3464  23.048  19.617  14.385
44171W        W 3465  12.669  15.646  12.879
44172W        W 3466   8.201  19.258  14.961
44173W        W 3467  20.058  36.004  13.537
44174W        W 3468   4.807   2.876  13.914
44175W        W 3469  42.934  29.006   2.310
44176W        W 3470   6.280   4.752   1.278
44177W        W 3471   8.221  32.602  10.052
44178W        W 3472  12.656  35.439   3.679
44179W        W 3473  34.484  29.115  14.416
44180W        W 3474  31.428  30.130  13.870
44181W        W 3475  28.488  24.180  12.491
44182W        W 3476  19.117  36.395   1.704
44183W        W 3477   2.919  41.513   0.855
44184W        W 3478  27.549  10.666   1.854
44185W        W 3479   4.721  40.463   0.301
44186W        W 3480  21.608  27.567  11.576
44187W        W 3481  42.514  33.448   4.300
44188W        W 3482  18.673  30.976   2.411
44189W        W 3483  25.505  10.654   2.747
44190W        W 3484  42.291   7.733   0.373
44191W        W 3485   0.389  12.119  13.890
44192W        W 3486  18.218  19.548   5.102
44193W        W 3487  23.998  13.323   3.722
44194W        W 3488  27.658  43.501  12.390
44195W        W 3489  29.953  16.611  11.029
44196W        W 3490  26.017  36.522  11.566
44197W        W 3491   3.398  32.896   4.676
44198W        W 3492  29.150  43.805   0.966
44199W        W 3493  37.088   4.708   3.671
44200W        W 3494  41.827  34.077   1.270
44201W        W 3495  16.262  40.973   2.835
44202W        W 3496  38.877  23.003  10.440
44203W        W 3497  28.599  42.282   0.754
44204W        W 3498  42.435  16.097  13.349
44205W        W 3499  12.672   5.416  10.575
44206W        W 3500   2.344   7.906  12.376
44207W        W 3501   5.858   7.246  11.418
44208W        W 3502  26.548  17.621   3.750
44209W        W 3503  41.429   6.283  13.429
44210W        W 3504  40.912  43.020   3.370
44211W        W 3505  12.355  18.674  13.368
44212W        W 3506  14.187  40.832  13.511
44213W        W 3507   9.249  44.916  10.583
44214W        W 3508  40.872  42.909   4.146
44215W        W 3509  11.794  15.704  13.903
44216W        W 3510  21.224   4.244  11.084
44217W        W 3511  17.669  34.043   2.861
44218W        W 3512  15.130  29.074  13.965
44219W        W 3513  19.568  40.412  12.095
44220W        W 3514  34.906  44.479  13.964
44221W        W 3515  29.961  38.502  10.915
44222W        W 3516   3.300   5.232   2.274
44223W        W 3517   3.907   3.934   2.313
44224W        W 3518  38.560  26.122   1.882
44225W        W 3519  20.612   5.769  11.591
44226W        W 3520   5.869  29.460  12.963
44227W        W 3521  40.971  33.491   1.807
44228W        W 3522   3.864  23.628   2.230
44229W        W 3523   0.355  43.334  10.983
44230W        W 3524  40.439  24.224  12.886
44231W        W 3525  28.495  36.397   0.441
44232W        W 3526  17.777  38.831   4.818
44233W        W 3527  33.396  19.165  12.849
44234W        W 3528  29.479   5.745   0.963
44235W        W 3529  27.679  17.187  10.621
44236W        W 3530  23.034   0.890   4.828
44237W        W 3531  44.496  27.118   1.314
44238W        W 3532  14.762  13.824   2.880
44239W        W 3533  26.576   7.393   1.934
44240W        W 3534  32.556  38.518   4.304
44241W        W 3535   2.874  18.199  12.579
44242W        W 3536   5.850  25.678   2.396
44243W        W 3537  15.731   7.890  11.103
44244W        W 3538  38.842  22.721  11.580
44245W        W 3539   5.916  41.867   1.333
44246W        W 3540  28.097  31.069  13.399
44247W        W 3541  17.118  40.524   1.846
44248W        W 3542  24.533  34.484  14.815
44249W        W 3543   8.220  35.505   1.252
44250W        W 3544  11.801  37.837  12.515
44251W        W 3545  41.835  35.002  12.577
44252W        W 3546  23.688  34.941   2.733
44253W        W 3547   8.879  43.999   2.729
44254W        W 3548  37.353  39.978  14.979
44255W        W 3549  21.641  25.495  11.939
44256W        W 3550   3.944  27.660  13.054
44257W        W 3551   1.409  24.516   0.830
44258W        W 3552   1.788   9.207   2.671
44259W        W 3553  16.638  17.204  13.035
44260W        W 3554  15.599  15.718   4.598
44261W        W 3555  15.629   4.937  14.337
44262W        W 3556  43.925  19.151  10.555
44263W        W 3557  25.135  12.125  12.354
44264W        W 3558  16.779   8.382  13.532
44265W        W 3559  44.765   6.759   1.716
44266W        W 3560  17.293  21.107  14.802
44267W        W 3561  38.372  33.582  10.587
44268W        W 3562  13.167  42.394  12.088
44269W        W 3563  31.548  38.331   2.281
44270W        W 3564  11.783   5.248   0.299
44271W        W 3565  32.115  34.519  12.986
44272W        W 3566  17.778  33.381  10.931
44273W        W 3567  18.742   1.842   5.084
44274W        W 3568   4.411  11.279   2.207
44275W        W 3569  22.127   2.386  13.861
44276W        W 3570  44.950   6.721  13.457
44277W        W 3571  14.739  30.055   3.809
44278W        W 3572   3.769  40.450  11.429
44279W        W 3573   3.343  41.891  12.392
44280W        W 3574   8.338   5.783  11.485
44281W        W 3575  40.338  16.137   1.231
44282W        W 3576  21.616  12.305   4.788
44283W        W 3577  26.571  21.668  14.979
44284W        W 3578  17.748  31.020  13.336
44285W        W 3579  25.027  35.448   2.844
44286W        W 3580   5.689  35.856  13.435
44287W        W 3581  22.743  34.015  14.951
44288W        W 3582  37.873  30.475  10.642
44289W        W 3583  34.095  43.270   0.383
44290W        W 3584   7.826  31.094   2.883
44291W        W 3585  12.624  29.133  13.354
44292W        W 3586   8.769  42.900   2.313
44293W        W 3587  21.703  39.505   3.652
44294W        W 3588  35.094   3.283   2.689
44295W        W 3589  18.288  14.823  14.848
44296W        W 3590  41.520   5.359  14.485
44297W        W 3591  24.668  29.564   3.255
44298W        W 3592  21.044  31.033   1.257
44299W        W 3593  30.530  27.616  12.475
44300W        W 3594  42.284   1.414   3.653
44301W        W 3595   4.868  35.423  11.026
44302W        W 3596   4.349  12.834  12.036
44303W        W 3597  22.536   1.373  12.570
44304W        W 3598  19.112   4.877   0.737
44305W        W 3599  14.697  41.919   2.865
44306W        W 3600  19.609  39.319   3.321
44307W        W 3601  12.272  28.518   3.313
44308W        W 3602  40.828   0.912  12.368
44309W        W 3603  13.802  25.012  11.076
44310W        W 3604  34.933  14.823  12.537
44311W        W 3605  13.710  28.973   4.160
44312W        W 3606   0.768  20.203  10.912
44313W        W 3607  14.787  34.567   3.279
44314W        W 3608  11.641  11.697  11.931
44315W        W 3609   7.284  27.997   0.472
44316W        W 3610  12.706   9.366  14.436
44317W        W 3611  38.409  17.257  13.998
44318W        W 3612  41.520  26.564  14.501
44319W        W 3613   3.898   5.380   2.679
44320W        W 3614  19.603   7.782  12.999
44321W        W 3615  36.057  19.154  12.867
44322W        W 3616  28.550  29.534  12.472
44323W        W 3617  32.438  34.915   2.834
44324W        W 3618  27.644  20.239  10.599
44325W        W 3619  14.695  37.546   3.640
44326W        W 3620  12.773  40.990   0.939
44327W        W 3621  31.614   0.845  11.528
44328W        W 3622  39.518   4.395   1.222
44329W        W 3623  35.052  26.537  13.036
44330W        W 3624  27.151  36.974   0.903
44331W        W 3625   0.955  26.011  11.549
44332W        W 3626   8.743  16.134  11.052
44333W        W 3627  22.560  40.957   1.802
44334W        W 3628  13.126  27.011   2.315
44335W        W 3629  41.389  36.497   4.285
44336W        W 3630  32.419  13.342   3.629
44337W        W 3631  31.956   5.783  13.945
44338W        W 3632  11.621  30.141   3.751
44339W        W 3633   7.752  14.614   3.258
44340W        W 3634  42.366  43.411  11.948
44341W        W 3635   6.265  14.651  13.038
44342W        W 3636  38.474  43.886   4.165
44343W        W 3637   1.914  44.997   0.854
44344W        W 3638  24.582   7.256   4.649
44345W        W 3639  21.081  32.896  14.478
44346W        W 3640  41.371   6.299   0.757
44347W        W 3641   8.754   1.938   3.243
44348W        W 3642  20.767  18.111  11.986
44349W        W 3643  37.426  23.723  14.412
44350W        W 3644   5.212   4.718  12.050
44351W        W 3645  36.570  44.761   1.431
44352W        W 3646  37.450   7.862  10.506
44353W        W 3647  32.104  28.564   4.211
44354W        W 3648  23.163  22.570  11.937
44355W        W 3649  18.701  29.644  14.418
44356W        W 3650  16.582  23.238   9.938
44357W        W 3651   3.388  43.984   0.385
44358W        W 3652  21.688  42.903   3.255
44359W        W 3653  43.443  21.652   4.679
44360W        W 3654  42.007  30.089   0.411
44361W        W 3655   2.457  11.176  13.985
44362W        W 3656  14.249   0.797   4.646
44363W        W 3657  19.705  39.947  12.844
44364W        W 3658   1.748  19.576  12.072
44365W        W 3659  13.158  44.901   3.384
44366W        W 3660  17.728  27.539  10.575
44367W        W 3661  41.803  11.280   3.772
44368W        W 3662  13.650  22.203   2.270
44369W        W 3663  20.648  27.452  12.018
44370W        W 3664  27.944  16.624   2.280
44371W        W 3665  32.959  16.122   3.368
44372W        W 3666  28.533  12.633   1.297
44373W        W 3667  24.160  38.874  12.376
44374W        W 3668  24.165  41.529  11.489
44375W        W 3669   4.822  13.604  13.802
44376W        W 3670  43.311  44.368   4.208
44377W        W 3671  10.216  17.603   2.751
44378W        W 3672  10.775   5.860   4.600
44379W        W 3673  16.688  24.669   2.804
44380W        W 3674  43.863   4.944   1.318
44381W        W 3675   3.714   1.380  14.469
44382W        W 3676  18.156  24.034  12.015
44383W        W 3677  16.574   1.757  12.541
44384W        W 3678  19.209   7.337  10.435
44385W        W 3679  27.028   1.758   1.231
44386W        W 3680  22.125  41.970   1.319
44387W        W 3681  11.255  22.699   1.814
44388W        W 3682   6.915  22.722  13.057
44389W        W 3683  16.708  16.174   9.663
44390W        W 3684   9.728  20.131   3.760
44391W        W 3685  42.928  24.495  14.326
44392W        W 3686   3.747  25.120  10.470
44393W        W 3687  15.763   0.750   4.758
44394W        W 3688  34.976  43.369   0.823
44395W        W 3689  25.023  43.308  12.405
44396W        W 3690  24.049  36.971  11.399
44397W        W 3691  44.847   9.741   2.699
44398W        W 3692  26.139  34.011  13.050
44399W        W 3693  21.648  37.946   0.862
44400W        W 3694  28.053  22.251  10.453
44401W        W 3695   5.842  34.468  10.902
44402W        W 3696  24.628  18.119  14.488
44403W        W 3697   4.298  43.279   2.275
44404W        W 3698  12.654  27.607   4.186
44405W        W 3699  30.151  15.593  14.842
44406W        W 3700  21.557  32.572   0.869
44407W        W 3701  15.668  10.771   2.702
44408W        W 3702  30.080  27.190   4.197
44409W        W 3703   9.791  32.889  10.921
44410W        W 3704  27.632  39.824  14.399
44411W        W 3705  10.671  23.004   2.345
44412W        W 3706  26.036  36.387  14.395
44413W        W 3707  42.498  19.158   1.292
44414W        W 3708   7.789  12.207   4.139
44415W        W 3709   3.924  28.985  14.368
44416W        W 3710  34.101  36.944  11.981
44417W        W 3711  28.497  39.358  14.843
44418W        W 3712   9.685   1.902   4.709
44419W        W 3713  28.566  13.740  13.811
44420W        W 3714  42.291  17.777  13.053
44421W        W 3715  34.551  31.488  13.477
44422W        W 3716  38.971  31.129   2.863
44423W        W 3717   4.889  31.509   0.769
44424W        W 3718  11.258  36.459  12.069
44425W        W 3719  24.655  38.044  14.385
44426W        W 3720  16.684  17.577  11.422
44427W        W 3721  39.359  39.830   0.254
44428W        W 3722  31.130  37.073   0.305
44429W        W 3723  11.269  15.762   2.726
44430W        W 3724   7.688  36.898   0.744
44431W        W 3725   7.381  31.511  12.049
44432W        W 3726  40.821   1.766  12.908
44433W        W 3727  24.146  37.922  12.566
44434W        W 3728  29.122  37.970   0.745
44435W        W 3729   6.914   1.778  12.879
44436W        W 3730  23.664  43.374  14.962
44437W        W 3731   5.727  22.109  12.916
44438W        W 3732  30.126   1.246   2.291
44439W        W 3733   2.850   9.838  12.861
44440W        W 3734  44.878  27.177   3.207
44441W        W 3735  23.696  35.938  13.477
44442W        W 3736   1.867   6.262   1.898
44443W        W 3737  37.384   7.792   1.398
44444W        W 3738   1.299  26.104  12.479
44445W        W 3739  19.179  29.661  14.018
44446W        W 3740  31.473  28.486   1.708
44447W        W 3741  31.419  14.145   0.258
44448W        W 3742   1.974   5.344   0.741
44449W        W 3743  25.011  26.099   0.837
44450W        W 3744  23.190   1.895   4.599
44451W        W 3745  29.105  40.848  13.970
44452W        W 3746  11.241  10.298  12.417
44453W        W 3747  29.016  37.876   4.324
44454W        W 3748  15.142  25.971   4.259
44455W        W 3749  29.059  43.964   3.763
44456W        W 3750  19.739  37.580  14.509
44457W        W 3751  29.515  34.506  14.869
44458W        W 3752  26.498  39.462   9.541
44459W        W 3753  10.806  10.850  14.895
44460W        W 3754  27.451  29.091  10.444
44461W        W 3755  10.225  24.093  12.525
44462W        W 3756  14.094   3.885  13.423
44463W        W 3757   7.335  16.567   0.857
44464W        W 3758   1.420  35.966   2.346
44465W        W 3759  16.159  27.644  12.417
44466W        W 3760  35.430  41.502  10.469
44467W        W 3761  10.750  35.396  11.863
44468W        W 3762  41.842   7.245   0.871
44469W        W 3763   0.947  26.608   4.699
44470W        W 3764  24.066   3.783   0.479
44471W        W 3765  26.964   4.412  14.851
44472W        W 3766  42.911  31.963  11.467
44473W        W 3767  37.480  41.358   2.285
44474W        W 3768   6.369  28.125   4.799
44475W        W 3769  21.077  15.633   0.360
44476W        W 3770   8.875  17.607   1.310
44477W        W 3771  24.989  10.849  12.963
44478W        W 3772  30.081  11.855   4.708
44479W        W 3773  37.383   7.339   4.294
44480W        W 3774  32.432  31.608   4.794
44481W        W 3775  20.245  33.485   2.353
44482W        W 3776  26.686   7.206   3.339
44483W        W 3777  31.129   6.679  14.839
44484W        W 3778  16.649  23.153  13.812
44485W        W 3779  34.478  40.328  13.353
44486W        W 3780  10.678  24.008  14.305
44487W        W 3781  21.028  17.220   0.452
44488W        W 3782  29.569   3.296   1.239
44489W        W 3783  21.720  24.554   1.409
44490W        W 3784  26.584  31.406  11.080
44491W        W 3785  30.990   4.830  12.566
44492W        W 3786  16.073  34.939   1.447
44493W        W 3787  10.806  10.852   1.368
44494W        W 3788  34.570  25.471  14.927
44495W        W 3789  10.246  42.953   3.853
44496W        W 3790  17.228  38.843   1.710
44497W        W 3791  39.911  33.540   3.385
44498W        W 3792  21.245  24.198   2.224
44499W        W 3793  39.945  30.579  12.065
44500W        W 3794  16.772  36.472  11.490
44501W        W 3795   5.263  31.534  14.850
44502W        W 3796   4.313  31.549  11.552
44503W        W 3797   2.464  17.574  10.458
44504W        W 3798  39.528  16.750  12.492
44505W        W 3799  42.779   2.756   3.798
44506W        W 3800   5.735  43.018   4.181
44507W        W 3801  14.256  17.239  14.881
44508W        W 3802  27.457  13.331   4.784
44509W        W 3803  36.375  16.199  13.464
44510W        W 3804  38.366  28.460  12.910
44511W        W 3805  29.958   1.749  14.421
44512W        W 3806  44.971  17.565  11.956
44513W        W 3807  15.205   8.331   2.290
44514W        W 3808  10.812   7.232  13.960
44515W        W 3809  32.630  32.609  14.941
44516W        W 3810  20.179  24.144  14.427
44517W        W 3811   1.977  43.353   3.630
44518W        W 3812  27.689  30.926  12.391
44519W        W 3813  30.958  11.837   9.946
44520W        W 3814  44.963  27.989  10.478
44521W        W 3815  28.935  24.704   1.334
44522W        W 3816  44.955  38.052   1.842
44523W        W 3817  17.743  13.820  11.404
44524W        W 3818  32.421  12.824   4.775
44525W        W 3819  13.752  43.838  14.864
44526W        W 3820  16.761   9.862   3.857
44527W        W 3821  40.527   6.334   4.628
44528W        W 3822  29.483  14.188  10.549
44529W        W 3823  28.122  42.002   3.781
44530W        W 3824   5.320  38.998   3.811
44531W        W 3825  25.502  40.889  12.003
44532W        W 3826  16.156  39.536  14.281
44533W        W 3827  24.680   6.680  10.990
44534W        W 3828  17.140   8.696   4.625
44535W        W 3829   8.335  44.786   2.382
44536W        W 3830  23.207  29.080   4.333
44537W        W 3831  38.005  25.040  10.408
44538W        W 3832  40.356  32.422  14.019
44539W        W 3833  34.119  11.370  13.058
44540W        W 3834  19.741  37.453   1.402
44541W        W 3835  29.022  41.910   0.833
44542W        W 3836  36.985   2.470   2.354
44543W        W 3837   3.843   9.654  11.111
44544W        W 3838  26.700  16.728   4.738
44545W        W 3839  38.903  15.172  13.985
44546W        W 3840  20.189  34.536  11.117
44547W        W 3841   8.724  12.614  14.422
44548W        W 3842  11.150  21.547   3.168
44549W        W 3843  34.105  13.225   2.892
44550W        W 3844  44.921  43.925   2.219
44551W        W 3845   3.905   3.309   0.261
44552W        W 3846   7.724  13.806  13.862
44553W        W 3847  33.555  15.324   4.677
44554W        W 3848  41.026   2.417  12.849
44555W        W 3849  30.476  26.582  12.496
44556W        W 3850  16.297  17.216   0.341
44557W        W 3851  30.615  26.669  14.328
44558W        W 3852  29.555  37.430  12.554
44559W        W 3853  16.277  14.610  11.452
44560W        W 3854  21.520  33.932  11.979
44561W        W 3855  23.505  29.491  10.962
44562W        W 3856  39.392  13.739  10.540
44563W        W 3857  29.453  32.549   1.927
44564W        W 3858  18.291  27.188   3.803
44565W        W 3859  36.476   4.823   3.724
44566W        W 3860  17.596  24.505   0.365
44567W        W 3861  32.046   2.232  14.896
44568W        W 3862  21.145  22.095   2.722
44569W        W 3863  25.554  14.761  13.868
44570W        W 3864   2.314  40.840  13.040
44571W        W 3865  26.165  31.512  13.322
44572W        W 3866  43.010  25.488   1.396
44573W        W 3867  19.170  23.514   0.937
44574W        W 3868  42.912   1.408  14.997
44575W        W 3869  32.409  27.971   1.892
44576W        W 3870  43.856  14.793  10.568
44577W        W 3871  23.546  42.335   3.372
44578W        W 3872  22.143  44.007  11.522
44579W        W 3873  38.898  30.597  11.011
44580W        W 3874  32.093  21.057   0.430
44581W        W 3875   7.315  28.072  13.502
44582W        W 3876  22.016   7.900  14.908
44583W        W 3877  12.611  40.007   1.700
44584W        W 3878   8.704  21.692   1.760
44585W        W 3879   2.808  38.420   1.695
44586W        W 3880  15.645  10.271   9.966
44587W        W 3881  40.317  36.388  14.844
44588W        W 3882  29.644  20.156   1.341
44589W        W 3883  11.258  24.135   0.917
44590W        W 3884   0.892  37.339  14.896
44591W        W 3885  24.070  14.125   0.894
44592W        W 3886   5.803  32.106   0.892
44593W        W 3887  33.506  21.747   0.955
44594W        W 3888  27.981  22.536   4.309
44595W        W 3889  32.467  32.522  11.494
44596W        W 3890  40.542  18.544   3.638
44597W        W 3891  37.413  38.071   4.771
44598W        W 3892   2.938  41.988   3.690
44599W        W 3893  14.696  27.051   4.689
44600W        W 3894  39.887  30.553  14.405
44601W        W 3895   8.329   8.886   3.292
44602W        W 3896  16.600  40.536   4.697
44603W        W 3897  26.959  21.651  12.561
44604W        W 3898  31.000  44.285  14.020
44605W        W 3899  27.999   3.291   0.433
44606W        W 3900  31.568  41.346  11.880
44607W        W 3901  24.537   0.952   2.401
44608W        W 3902  37.362  15.719  11.890
44609W        W 3903  17.679   9.884  14.363
44610W        W 3904  43.492   7.414   3.187
44611W        W 3905  15.718   6.817  11.098
44612W        W 3906  11.356   5.749   1.295
44613W        W 3907  24.563  39.460  12.432
44614W        W 3908  23.736   4.316  14.487
44615W        W 3909  12.669  44.334  10.907
44616W        W 3910  23.573  10.857  13.459
44617W        W 3911  35.922  22.100  13.372
44618W        W 3912   5.893   9.774   4.773
44619W        W 3913  11.271  37.537  12.924
44620W        W 3914   1.860  36.481  12.529
44621W        W 3915  33.951  34.386   0.832
44622W        W 3916  38.483  38.837  12.080
44623W        W 3917  25.504  31.625  14.328
44624W        W 3918   7.213  41.816  13.497
44625W        W 3919  37.864  26.625   4.748
44626W        W 3920  35.975  38.343   3.848
44627W        W 3921   3.758  30.104   4.659
44628W        W 3922  38.331  20.687   4.138
44629W        W 3923  25.049  41.457   4.118
44630W        W 3924  15.240  23.000   3.167
44631W        W 3925  22.545  38.478   1.832
44632W        W 3926  11.651  25.170   2.304
44633W        W 3927  28.642  40.820  11.108
44634W        W 3928   4.841  30.001   4.157
44635W        W 3929  32.504   6.203   4.189
44636W        W 3930  20.651   7.727   9.674
44637W        W 3931  13.657   2.353  12.842
44638W        W 3932  33.079  13.808  14.502
44639W        W 3933  17.139  25.583  12.845
44640W        W 3934  42.816  15.194  10.458
44641W        W 3935   9.830   2.750  13.478
44642W        W 3936  39.942  25.187   4.174
44643W        W 3937  35.494   5.247  11.023
44644W        W 3938  19.700   9.281   0.946
44645W        W 3939  42.310  19.107  10.628
44646W        W 3940  17.268  19.249  11.004
44647W        W 3941   9.372  30.087  14.888
44648W        W 3942  18.098   7.809   1.909
44649W        W 3943  34.984   6.782   0.869
44650W        W 3944   4.356   5.927   3.335
44651W        W 3945  34.882  21.050  10.450
44652W        W 3946  28.653  28.642  13.420
44653W        W 3947  13.667  32.993   3.703
44654W        W 3948   3.865  32.934  14.317
44655W        W 3949   5.252  43.308  10.565
44656W        W 3950  25.483  12.672  11.557
44657W        W 3951  34.498  35.576  13.476
44658W        W 3952  27.143   3.718  13.880
44659W        W 3953  31.145   0.431  14.005
44660W        W 3954  44.304  32.139   0.837
44661W        W 3955  42.917  38.510   2.351
44662W        W 3956   2.345  30.124   0.466
44663W        W 3957   0.279  35.548  13.463
44664W        W 3958  38.369  21.560  14.032
44665W        W 3959  29.514   7.258  10.007
44666W        W 3960  39.385  38.570  11.961
44667W        W 3961  32.909  12.321  11.925
44668W        W 3962  18.125   8.189  12.000
44669W        W 3963   6.267  40.378  14.983
44670W        W 3964  34.029  21.172   3.270
44671W        W 3965  33.586   0.301  14.001
44672W        W 3966  34.989   9.679   1.888
44673W        W 3967  22.055  24.655  13.057
44674W        W 3968   0.902  13.796  14.331
44675W        W 3969  29.661  23.519   3.274
44676W        W 3970   3.757   3.354   0.863
44677W        W 3971  16.145  10.323  14.322
44678W        W 3972  43.827  12.155  11.386
44679W        W 3973  40.452  30.416   0.905
44680W        W 3974   5.207  21.633   2.698
44681W        W 3975  26.618  43.278   1.344
44682W        W 3976   8.766  30.070   5.570
44683W        W 3977  35.530   7.746   9.922
44684W        W 3978   1.751  32.470   1.720
44685W        W 3979  40.836   8.168   3.787
44686W        W 3980  33.980  22.079   2.735
44687W        W 3981  39.517   4.886  14.878
44688W        W 3982  29.049  33.900  13.367
44689W        W 3983  23.175  18.565  14.936
44690W        W 3984  44.886  34.083   4.156
44691W        W 3985  43.320  37.854  13.417
44692W        W 3986  36.850   8.275  13.829
44693W        W 3987   5.799  34.050  11.488
44694W        W 3988  20.269   0.382  11.990
44695W        W 3989  29.102  44.392   3.698
44696W        W 3990  14.223  39.344   4.117
44697W        W 3991  32.542  43.805   2.216
44698W        W 3992   0.317  31.454   3.181
44699W        W 3993  35.448  13.632  10.971
44700W        W 3994  15.738   3.254   0.242
44701W        W 3995   8.708  34.564   5.282
44702W        W 3996  15.746   7.340  13.936
44703W        W 3997   3.413  40.461   3.179
44704W        W 3998  30.096   9.690   0.899
44705W        W 3999   3.291  32.471   1.863
44706W        W 4000  39.938  31.096   2.326
44707W        W 4001  43.488  29.020   0.903
44708W        W 4002   7.774   8.338   3.685
44709W        W 4003  26.064   5.766   4.156
44710W        W 4004   7.817  27.523   3.332
44711W        W 4005   6.705  24.187   3.195
44712W        W 4006  14.678  25.561  10.917
44713W        W 4007  26.097  15.662  10.639
44714W        W 4008  35.576  14.335   3.784
44715W        W 4009  33.000  34.406  12.430
44716W        W 4010  10.877  31.503  11.526
44717W        W 4011   2.956  40.363   0.277
44718W        W 4012   9.337  33.916  11.603
44719W        W 4013  21.622  41.348  13.487
44720W        W 4014  28.093   3.456  14.032
44721W        W 4015  36.555  28.617  11.407
44722W        W 4016   8.707   6.810   2.390
44723W        W 4017  35.973  15.735   0.788
44724W        W 4018  36.911  16.149  13.383
44725W        W 4019  25.641   1.453   2.298
44726W        W 4020  15.280  36.063   1.932
44727W        W 4021  11.707  33.554   0.330
44728W        W 4022  32.947  26.020   4.197
44729W        W 4023  20.193  13.775   2.770
44730W        W 4024  39.996  26.998   4.252
44731W        W 4025   0.437  33.387   1.885
44732W        W 4026  38.530   0.368   0.809
44733W        W 4027  23.493  24.094   2.830
44734W        W 4028  34.598  20.744   4.305
44735W        W 4029  30.610  32.439  12.554
44736W        W 4030   5.717  10.733  14.454
44737W        W 4031  29.614  11.770  12.468
44738W        W 4032  17.593  10.207   1.788
44739W        W 4033   8.190  27.591  10.126
44740W        W 4034  17.082   9.724   2.888
44741W        W 4035  35.888  39.354   2.819
44742W        W 4036  35.951  41.928  14.337
44743W        W 4037  41.362   5.346  11.019
44744W        W 4038   9.752  20.118   2.688
44745W        W 4039  35.391  26.046   1.883
44746W        W 4040   5.725  38.950  14.320
44747W        W 4041  10.878  27.987  12.343
44748W        W 4042  21.582   4.923  12.826
44749W        W 4043  42.456  34.032  11.949
44750W        W 4044   2.354  23.692   3.664
44751W        W 4045  13.212  19.240   1.841
44752W        W 4046   7.715  36.506  11.964
44753W        W 4047  29.499  27.150   4.761
44754W        W 4048  20.118  19.201  14.881
44755W        W 4049  30.495   8.821   2.868
44756W        W 4050  34.434  36.064   3.678
44757W        W 4051   4.284  27.015   2.662
44758W        W 4052  41.947   3.827   2.338
44759W        W 4053  34.604  21.628   4.638
44760W        W 4054  10.139   1.756  10.609
44761W        W 4055  32.465   5.234  12.505
44762W        W 4056  19.605  12.216  11.906
44763W        W 4057  32.545  38.346   5.665
44764W        W 4058  16.575  22.998  14.373
44765W        W 4059  23.106   1.275  14.015
44766W        W 4060  14.594  44.763  14.013
44767W        W 4061  43.006  24.722  14.897
44768W        W 4062  40.500  33.085   2.711
44769W        W 4063  12.659  39.036   4.176
44770W        W 4064  24.148   0.931   0.920
44771W        W 4065  18.747   1.928   0.742
44772W        W 4066  22.199  27.126   0.873
44773W        W 4067  28.567  11.309  12.402
44774W        W 4068  11.361  38.423  10.504
44775W        W 4069  23.217  36.391  10.559
44776W        W 4070  25.179  11.279   2.180
44777W        W 4071   0.927  12.325  11.862
44778W        W 4072   0.925   5.238   0.949
44779W        W 4073  40.824   1.253  13.365
44780W        W 4074  43.802   4.432  14.484
44781W        W 4075  14.799  11.212   0.324
44782W        W 4076  25.667  16.709  14.366
44783W        W 4077   7.395  16.744  11.895
44784W        W 4078  17.281  15.658   1.789
44785W        W 4079  26.547  21.556   2.281
44786W        W 4080  18.109   2.461  10.958
44787W        W 4081  32.111  12.683  11.033
44788W        W 4082  20.055  31.604  10.932
44789W        W 4083  34.590  14.280   4.306
44790W        W 4084  35.050  34.048   2.806
44791W        W 4085   9.764  35.969   3.840
44792W        W 4086  13.141  25.017  12.019
44793W        W 4087   2.269  33.395   0.914
44794W        W 4088   6.300  43.892  13.005
44795W        W 4089  16.609  24.711  14.972
44796W        W 4090  12.249  17.686  12.554
44797W        W 4091  38.883  32.444  12.387
44798W        W 4092  39.808  27.670  12.975
44799W        W 4093   0.965  22.643   4.232
44800W        W 4094  28.953  34.907   2.381
44801W        W 4095   1.887  22.511  12.853
44802W        W 4096   8.265  11.151   4.603
44803W        W 4097  17.636  24.097   3.699
44804W        W 4098  31.114  44.298   2.685
44805W        W 4099  16.571  18.201   4.263
44806W        W 4100  23.088   7.261   2.382
44807W        W 4101   6.249  40.378  12.086
44808W        W 4102  35.888  44.811   3.701
44809W        W 4103  28.049  19.776  12.354
44810W        W 4104  29.443  37.001  12.551
44811W        W 4105   6.910   7.685   3.257
44812W        W 4106  44.009  27.530   2.902
44813W        W 4107  42.900  10.149   3.630
44814W        W 4108   8.405  40.365   3.724
44815W        W 4109   7.231  44.805   9.634
44816W        W 4110   8.224  40.949  14.421
44817W        W 4111  30.602  15.813  10.146
44818W        W 4112  36.094  10.145   3.754
44819W        W 4113  42.328  12.338  14.828
44820W        W 4114  16.627   6.775  14.294
44821W        W 4115  20.556   1.357  12.393
44822W        W 4116   6.426  41.345   1.903
44823W        W 4117  19.638  33.542  11.863
44824W        W 4118   6.226  40.995   3.653
44825W        W 4119  17.726   0.433  13.391
44826W        W 4120   4.740  39.823   1.249
44827W        W 4121   5.934  27.581   1.414
44828W        W 4122  25.079  28.164   1.229
44829W        W 4123  10.707  23.667   1.353
44830W        W 4124  26.197  31.585   3.265
44831W        W 4125  31.422  21.557  12.438
44832W        W 4126  28.570  10.698  10.418
44833W        W 4127   1.416  44.276   4.228
44834W        W 4128  14.117  21.589   3.153
44835W        W 4129  31.003  18.575  10.928
44836W        W 4130  24.178  34.593  12.544
44837W        W 4131  37.939  19.120   1.863
44838W        W 4132  10.853  38.830  10.477
44839W        W 4133  16.633  15.097  13.325
44840W        W 4134  15.652  34.968  11.371
44841W        W 4135  25.675   3.833  11.582
44842W        W 4136  13.209  44.978  12.913
44843W        W 4137  34.900  10.144   0.877
44844W        W 4138  43.371  12.626   3.350
44845W        W 4139   5.374  28.999   2.406
44846W        W 4140  22.703  15.690   4.685
44847W        W 4141  38.860  14.324  11.403
44848W        W 4142  12.329  43.434  14.023
44849W        W 4143   3.379  24.721  12.521
44850W        W 4144  29.499   4.312  11.481
44851W        W 4145  34.497  44.817  13.902
44852W        W 4146  20.752  41.534  12.876
44853W        W 4147   8.805   4.213  14.340
44854W        W 4148   8.339  37.527   2.219
44855W        W 4149  15.279   8.383  10.910
44856W        W 4150  16.315  34.569   4.781
44857W        W 4151  31.551  32.952  11.957
44858W        W 4152  19.121  22.029   2.685
44859W        W 4153  41.352   8.384   0.828
44860W        W 4154  16.792   2.364   3.705
44861W        W 4155  43.850  29.598  11.870
44862W        W 4156  11.804  21.243  14.868
44863W        W 4157  41.450   6.829  14.019
44864W        W 4158   0.860   4.731  13.850
44865W        W 4159  26.631  24.227  11.871
44866W        W 4160   8.383  17.719  14.287
44867W        W 4161  17.619   6.358  14.293
44868W        W 4162   1.340  44.805   2.279
44869W        W 4163  21.572  42.876   2.760
44870W        W 4164  32.099   6.762   3.727
44871W        W 4165  28.146  27.524   0.739
44872W        W 4166  30.981  40.966   0.395
44873W        W 4167  44.992  13.673   2.821
44874W        W 4168  26.074  43.487  13.336
44875W        W 4169  30.417   6.789   3.318
44876W        W 4170  15.813  24.478   0.365
44877W        W 4171   1.907  14.599  14.861
44878W        W 4172  12.144  25.999  11.114
44879W        W 4173   8.239  15.114  13.989
44880W        W 4174   4.365  31.552   3.154
44881W        W 4175  36.568  25.074  14.375
44882W        W 4176  23.128  14.249  11.432
44883W        W 4177   2.722  41.844   2.884
44884W        W 4178  37.891  18.762  11.885
44885W        W 4179  37.454  27.087  12.922
44886W        W 4180  37.047   2.839   0.443
44887W        W 4181  10.760  42.908  10.959
44888W        W 4182  19.592  13.342  14.291
44889W        W 4183   7.304  38.502   1.724
44890W        W 4184  38.972  22.598  14.497
44891W        W 4185   2.251  26.574  14.365
44892W        W 4186  11.271  13.156  13.315
44893W        W 4187  26.460  30.077   5.241
44894W        W 4188  40.995  23.621  11.606
44895W        W 4189  14.256  42.819  14.864
44896W        W 4190   5.357  31.424  13.857
44897W        W 4191  41.804  35.936  11.404
44898W        W 4192  15.809   1.957  11.490
44899W        W 4193  40.807   9.833   4.206
44900W        W 4194  32.473  20.593   2.412
44901W        W 4195  25.978  22.507   0.783
44902W        W 4196  21.602  41.297   1.796
44903W        W 4197  30.558   2.245   4.244
44904W        W 4198  31.522  31.022   1.213
44905W        W 4199   4.403  43.953  11.430
44906W        W 4200   9.821  41.936   4.157
44907W        W 4201  18.706  32.621  11.989
44908W        W 4202  17.656   4.218  11.014
44909W        W 4203  33.495  12.304   0.838
44910W        W 4204  43.764   7.399   0.380
44911W        W 4205  10.148  44.835  12.349
44912W        W 4206  19.047   6.737   0.727
44913W        W 4207  18.129   9.794  14.364
44914W        W 4208  10.220   6.205   2.781
44915W        W 4209  26.143   0.326  13.452
44916W        W 4210  21.626  16.215  10.415
44917W        W 4211  37.060   4.443   0.880
44918W        W 4212  44.420   1.868  13.326
44919W        W 4213  11.748   7.866  13.005
44920W        W 4214  16.658   2.370   1.269
44921W        W 4215  42.435  26.477  11.941
44922W        W 4216  30.967  10.707   4.277
44923W        W 4217  27.064  32.104   0.295
44924W        W 4218  39.922  42.898  11.910
44925W        W 4219  17.140  15.596  14.943
44926W        W 4220  22.596   5.866   3.812
44927W        W 4221  24.574  16.753   3.751
44928W        W 4222  18.707   7.355   0.380
44929W        W 4223   3.249  42.356   1.213
44930W        W 4224  34.508   3.901   1.287
44931W        W 4225  27.509   6.262   3.364
44932W        W 4226   4.438  17.184  14.981
44933W        W 4227   6.196  10.846   4.277
44934W        W 4228  16.251  37.526  11.918
44935W        W 4229  25.467   1.331   1.357
44936W        W 4230   9.312   7.776   0.351
44937W        W 4231  11.673  23.527  14.815
44938W        W 4232  11.305   9.664   0.730
44939W        W 4233  28.436  18.105   0.280
44940W        W 4234   6.385  23.052   2.269
44941W        W 4235  20.553   7.687   3.818
44942W        W 4236  25.979  24.089  10.935
44943W        W 4237  36.560   2.956  13.940
44944W        W 4238  40.941  27.591   0.792
44945W        W 4239  41.348  10.344  12.036
44946W        W 4240  10.149   5.309   1.928
44947W        W 4241  26.973  30.143   1.254
44948W        W 4242  15.153  18.666   2.793
44949W        W 4243   9.656  26.049  10.900
44950W        W 4244  31.966  20.641   2.877
44951W        W 4245  12.705  44.402   1.348
44952W        W 4246   6.741  13.257   4.629
44953W        W 4247   2.874  12.303  12.377
44954W        W 4248  43.978   1.432   4.668
44955W        W 4249  37.360  28.129  14.852
44956W        W 4250  18.130  23.536  14.827
44957W        W 4251  30.144  38.907   0.746
44958W        W 4252  18.089  40.331  14.418
44959W        W 4253  24.174   3.919   1.447
44960W        W 4254  27.009  26.553   1.324
44961W        W 4255  13.750  24.108  14.510
44962W        W 4256  34.519   4.359   4.145
44963W        W 4257  36.051  31.939   2.208
44964W        W 4258  22.198  42.500   4.308
44965W        W 4259   0.804   4.421   2.293
44966W        W 4260  30.923  35.900   5.304
44967W        W 4261  13.808  16.155  11.063
44968W        W 4262  28.003  31.418   2.726
44969W        W 4263  18.603  39.528  12.990
44970W        W 4264  24.485  27.002   3.163
44971W        W 4265  38.874  27.481  10.950
44972W        W 4266   0.939   0.249  14.879
44973W        W 4267  11.348  18.727  10.638
44974W        W 4268  10.299  36.031  11.087
44975W        W 4269   6.799  29.122  14.938
44976W        W 4270  21.699  37.050   2.833
44977W        W 4271   6.366  38.428  11.434
44978W        W 4272  35.359  44.286   2.798
44979W        W 4273  42.960  23.552   4.346
44980W        W 4274  25.531  23.051  14.974
44981W        W 4275  39.980  12.335  14.277
44982W        W 4276   5.310  34.062   0.336
44983W        W 4277  19.282  32.050   2.853
44984W        W 4278  35.974  41.835   3.807
44985W        W 4279  26.052  11.741  12.006
44986W        W 4280  13.323  24.687   0.362
44987W        W 4281  26.071  41.531  12.404
44988W        W 4282  21.192  36.406   0.906
44989W        W 4283  15.755  22.113   0.855
44990W        W 4284   0.815  30.934  12.426
44991W        W 4285  41.503  39.423   1.305
44992W        W 4286  30.130  43.833   2.255
44993W        W 4287  34.882  35.456  10.468
44994W        W 4288  20.135   6.788   3.727
44995W        W 4289  18.672  42.363  12.899
44996W        W 4290  38.863   8.719   4.663
44997W        W 4291  30.976  40.013  12.940
44998W        W 4292  42.480   8.322   4.631
44999W        W 4293   4.799  25.172   0.894
45000W        W 4294  11.303  13.836   3.846
45001W        W 4295  36.862  25.966   2.900
45002W        W 4296   8.816  25.187  11.858
45003W        W 4297  11.852  13.840   2.877
45004W        W 4298  29.669   1.352   4.781
45005W        W 4299  35.061  11.865   4.272
45006W        W 4300  32.953  11.664   2.383
45007W        W 4301  37.025  26.188  11.588
45008W        W 4302  17.599  23.620  12.475
45009W        W 4303  11.636  20.074  11.403
45010W        W 4304   5.818  17.110  12.000
45011W        W 4305  18.762  40.393   0.803
45012W        W 4306   4.348  31.902  13.509
45013W        W 4307  30.455   8.333  12.901
45014W        W 4308   5.853  43.276  11.550
45015W        W 4309  42.776  25.497  10.946
45016W        W 4310  36.544  37.863  14.851
45017W        W 4311   6.840  37.008  13.988
45018W        W 4312   7.819  30.048   1.792
45019W        W 4313  41.795  39.877   0.469
45020W        W 4314  14.269  20.045  10.957
45021W        W 4315   3.417  33.604   3.743
45022W        W 4316  40.412   9.167   2.400
45023W        W 4317  30.494  10.782   1.362
45024W        W 4318  10.673  35.528  14.895
45025W        W 4319   3.281  22.043  11.056
45026W        W 4320   4.403  41.026  11.388
45027W        W 4321  24.531  42.302  11.939
45028W        W 4322  15.779  38.909   0.449
45029W        W 4323  32.524  25.016  14.459
45030W        W 4324  40.934   9.773   2.353
45031W        W 4325   3.949  13.820   1.921
45032W        W 4326  37.964  34.429  14.336
45033W        W 4327  20.567  40.984   1.716
45034W        W 4328  26.979  24.551   3.685
45035W        W 4329   1.838  38.532  14.325
45036W        W 4330  26.136  34.020   1.817
45037W        W 4331  12.238  15.179   4.152
45038W        W 4332  31.566   7.863   1.313
45039W        W 4333   5.288  32.983   2.388
45040W        W 4334  10.762  42.446  12.913
45041W        W 4335  15.282   8.865   3.743
45042W        W 4336  37.954  26.983   2.193
45043W        W 4337  19.534  43.893  10.500
45044W        W 4338   1.846  18.139  14.330
45045W        W 4339  35.855   9.301   0.412
45046W        W 4340  30.415   0.970  13.951
45047W        W 4341  14.326  29.666  14.774
45048W        W 4342  16.127  13.271   0.327
45049W        W 4343  15.796  24.554  13.854
45050W        W 4344  33.401  38.355   4.331
45051W        W 4345  26.206  15.736   4.296
45052W        W 4346  41.964  35.370   3.181
45053W        W 4347  24.009  12.327  14.402
45054W        W 4348  37.363  24.156   1.900
45055W        W 4349   7.258  38.045  11.537
45056W        W 4350   9.268  14.631  11.039
45057W        W 4351  41.333  20.658   1.848
45058W        W 4352  25.153  32.123   0.827
45059W        W 4353  24.582  16.284  14.955
45060W        W 4354  44.301  22.130  11.022
45061W        W 4355   1.878  38.420  12.362
45062W        W 4356  14.648  10.261   3.871
45063W        W 4357  29.522  43.889  14.801
45064W        W 4358  34.986  11.788  13.426
45065W        W 4359  44.755   3.855   0.760
45066W        W 4360  43.332   5.356   9.602
45067W        W 4361  17.644  28.973   2.764
45068W        W 4362  22.594  11.253  13.820
45069W        W 4363  33.475  24.722   0.402
45070W        W 4364  26.043  12.787  14.383
45071W        W 4365  24.014  26.563  12.390
45072W        W 4366   4.753  32.997  13.806
45073W        W 4367  36.553   1.859   9.930
45074W        W 4368   9.686  38.384  10.542
45075W        W 4369  42.399  14.796  11.456
45076W        W 4370  19.184  19.721   3.847
45077W        W 4371   9.655  31.923  14.359
45078W        W 4372   3.313  18.702  10.435
45079W        W 4373  38.448   0.962  10.416
45080W        W 4374   8.292   2.346  14.442
45081W        W 4375  35.020  12.253  13.996
45082W        W 4376   6.761  13.187   3.271
45083W        W 4377  38.880  37.050   9.599
45084W        W 4378   7.904   3.897  13.332
45085W        W 4379   0.977  31.561  11.043
45086W        W 4380  19.547  14.188  11.591
45087W        W 4381  18.618  10.144   5.287
45088W        W 4382   1.813   2.957  12.508
45089W        W 4383   2.826   1.379  12.039
45090W        W 4384  29.515  33.940  11.989
45091W        W 4385  42.425   5.791  13.013
45092W        W 4386  32.900  25.665   2.365
45093W        W 4387  41.885  23.520   3.798
45094W        W 4388  39.980  12.173  10.906
45095W        W 4389  12.625   2.867  10.544
45096W        W 4390   6.382   4.296  11.120
45097W        W 4391  37.893  40.923   4.272
45098W        W 4392   6.347  20.265   1.330
45099W        W 4393  10.727  38.557  13.405
45100W        W 4394   5.838  21.562  12.881
45101W        W 4395  31.411  44.889   0.782
45102W        W 4396  14.145  17.727  12.945
45103W        W 4397  35.366   9.770  10.018
45104W        W 4398  44.922  39.345  12.451
45105W        W 4399  41.854   6.702   0.403
45106W        W 4400   5.415  33.537  11.586
45107W        W 4401  17.257  25.632  12.376
45108W        W 4402  39.385   1.340   1.798
45109W        W 4403  12.230  16.807   1.316
45110W        W 4404  39.510  40.519   4.782
45111W        W 4405  36.039  40.456  14.913
45112W        W 4406  40.974  37.913  14.471
45113W        W 4407  38.570  29.011  11.959
45114W        W 4408  41.393  19.198  11.931
45115W        W 4409  22.588   3.323  12.882
45116W        W 4410  37.382  23.035  14.371
45117W        W 4411   0.885   9.381  10.980
45118W        W 4412  34.566  26.459   2.747
45119W        W 4413   5.794  37.050  11.091
45120W        W 4414  17.636  36.023  13.998
45121W        W 4415  13.624  40.383   0.352
45122W        W 4416  20.565  19.733   0.783
45123W        W 4417  27.506  36.483   0.791
45124W        W 4418  10.365  12.732   2.370
45125W        W 4419  40.417  10.286  11.915
45126W        W 4420  26.014  12.698  13.017
45127W        W 4421  35.472  19.546   2.832
45128W        W 4422  39.882  40.838   2.822
45129W        W 4423  30.443  12.812   2.833
45130W        W 4424  23.054   2.314   3.794
45131W        W 4425  24.658  18.732   4.739
45132W        W 4426  44.428  28.582  13.054
45133W        W 4427   6.849  12.195  12.385
45134W        W 4428  21.702  23.716   4.769
45135W        W 4429  14.602   4.877  14.344
45136W        W 4430   0.763  44.462   4.129
45137W        W 4431  31.577   4.288  11.554
45138W        W 4432  19.738  16.798   2.238
45139W        W 4433  13.142  16.721  11.603
45140W        W 4434  34.418  44.328  12.039
45141W        W 4435  30.074  36.855   1.421
45142W        W 4436  15.162   2.304   2.792
45143W        W 4437  31.007  19.568   0.825
45144W        W 4438  42.389  27.086   1.288
45145W        W 4439  16.742  34.891  10.424
45146W        W 4440  40.919   2.909   0.763
45147W        W 4441  35.578   7.714   4.340
45148W        W 4442  20.579  17.129   3.340
45149W        W 4443   9.761  25.184   1.776
45150W        W 4444  16.261  14.653   1.338
45151W        W 4445  34.559  18.608   0.459
45152W        W 4446  36.900  30.043   1.759
45153W        W 4447  41.835  24.657   2.781
45154W        W 4448  26.503  38.945  14.399
45155W        W 4449  44.281  21.147   4.317
45156W        W 4450  22.217  37.017  14.927
45157W        W 4451  26.574  24.658  13.805
45158W        W 4452   0.431  16.729   3.257
45159W        W 4453  34.930  12.649  13.934
45160W        W 4454  42.516  26.062  14.405
45161W        W 4455   8.371  26.207   4.729
45162W        W 4456  23.640  44.362   1.226
45163W        W 4457  29.021  27.027  10.964
45164W        W 4458  34.506  25.986   4.339
45165W        W 4459   6.844  12.754   4.798
45166W        W 4460  32.022  30.479   4.811
45167W        W 4461  18.564  38.371  13.889
45168W        W 4462  19.082  43.013   0.764
45169W        W 4463  22.075  29.630   4.116
45170W        W 4464  39.948  26.118  13.945
45171W        W 4465   8.703  25.515   2.332
45172W        W 4466  17.594  17.657   0.829
45173W        W 4467   0.254   8.755   5.149
45174W        W 4468  10.688  16.230  11.933
45175W        W 4469  42.903  15.197  13.005
45176W        W 4470   1.403  39.981  11.488
45177W        W 4471  25.611  26.189  12.557
45178W        W 4472  18.626  11.778   0.297
45179W        W 4473  42.981  10.691  12.001
45180W        W 4474   0.482   9.662   3.181
45181W        W 4475  20.101  28.081   3.745
45182W        W 4476   0.265  33.517   3.338
45183W        W 4477  15.132   3.919   4.218
45184W        W 4478  16.620  29.173  12.564
45185W        W 4479   4.281   2.846  13.330
45186W        W 4480  20.653   3.301  12.543
45187W        W 4481   7.784  28.533   3.819
45188W        W 4482  33.053  20.661   3.787
45189W        W 4483  44.977  19.083   4.721
45190W        W 4484  35.931  26.023  10.488
45191W        W 4485  17.615   5.411   3.255
45192W        W 4486  28.124  21.716   2.395
45193W        W 4487  14.713   0.873  12.528
45194W        W 4488  27.665   4.251  13.979
45195W        W 4489   9.650   8.660  13.875
45196W        W 4490  16.671   4.254   1.757
45197W        W 4491   3.354  18.078   5.102
45198W        W 4492   1.353  24.570   3.714
45199W        W 4493  42.896   9.658  14.327
45200W        W 4494  16.573  35.368  14.433
45201W        W 4495  38.874  15.692   4.794
45202W        W 4496  15.274  23.567   0.919
45203W        W 4497  29.096  37.881  14.970
45204W        W 4498  24.585  33.415  11.489
45205W        W 4499   3.937   7.697   3.215
45206W        W 4500  18.705  18.607  12.411
45207W        W 4501  40.812  11.652  14.014
45208W        W 4502  16.719  35.053  13.401
45209W        W 4503   1.360  33.572   0.857
45210W        W 4504  18.137  15.679   4.606
45211W        W 4505  31.471  40.437   1.267
45212W        W 4506   1.483  31.111   1.885
45213W        W 4507   3.441  41.338   3.850
45214W        W 4508  44.952  44.480   4.281
45215W        W 4509   0.870  33.410  14.327
45216W        W 4510  12.789  34.479   2.863
45217W        W 4511  14.268  31.507  11.024
45218W        W 4512  30.591  35.396   2.192
45219W        W 4513  13.788  31.528  14.864
45220W        W 4514   2.290  37.441  14.484
45221W        W 4515  40.835  31.919  10.160
45222W        W 4516  20.036   1.795   3.200
45223W        W 4517  24.012  13.611   4.697
45224W        W 4518   1.811  32.107   3.665
45225W        W 4519  10.866  39.351   1.407
45226W        W 4520  20.140  40.336   4.113
45227W        W 4521  23.649   7.861  13.863
45228W        W 4522  34.448  20.051   1.348
45229W        W 4523  11.718  38.940  11.036
45230W        W 4524  26.684   2.329   2.800
45231W        W 4525   3.309  17.712  14.351
45232W        W 4526  11.182  22.662  11.446
45233W        W 4527   8.704  23.150   1.390
45234W        W 4528  12.203  13.159   1.899
45235W        W 4529  40.897  30.049   1.253
45236W        W 4530  24.507  32.119   5.130
45237W        W 4531  42.873  41.920  14.901
45238W        W 4532  41.910  33.898   4.626
45239W        W 4533  21.089  13.801  12.023
45240W        W 4534  18.596  25.200   3.218
45241W        W 4535  19.565  33.002  10.581
45242W        W 4536  10.754  24.973  14.943
45243W        W 4537  30.015  27.985  13.312
45244W        W 4538  31.541   3.803   3.378
45245W        W 4539  17.236  42.301   2.206
45246W        W 4540  22.560  12.192   0.810
45247W        W 4541  17.204  33.116  10.041
45248W        W 4542   2.760  15.171   1.395
45249W        W 4543  40.805   3.377  13.958
45250W        W 4544  15.293  13.651  12.862
45251W        W 4545  24.050  41.302   3.265
45252W        W 4546  27.603  28.080   0.958
45253W        W 4547  19.222  16.170   1.230
45254W        W 4548  36.024  43.969   2.303
45255W        W 4549  12.624  26.091   0.396
45256W        W 4550   8.309  32.955  11.508
45257W        W 4551  39.817  41.325   3.260
45258W        W 4552  37.436  16.687   0.860
45259W        W 4553  15.640   4.900   3.800
45260W        W 4554   9.873  26.130  12.037
45261W        W 4555  21.022  18.067  13.039
45262W        W 4556  43.359  13.769  14.973
45263W        W 4557  34.045  25.172   4.307
45264W        W 4558  41.497   1.853   1.720
45265W        W 4559   8.791  35.973  10.909
45266W        W 4560  25.087  15.125  11.500
45267W        W 4561  39.945  43.407  12.058
45268W        W 4562  11.343  17.290  14.827
45269W        W 4563  17.216  17.274  10.586
45270W        W 4564  40.015  14.109   0.282
45271W        W 4565   1.764   7.667  12.563
45272W        W 4566  31.898   5.257  11.574
45273W        W 4567   1.329  20.182   3.246
45274W        W 4568  44.375  10.227  11.472
45275W        W 4569  31.470  44.434  10.597
45276W        W 4570  14.684  16.163   2.284
45277W        W 4571   7.337   1.362  12.996
45278W        W 4572  16.578  30.947  13.444
45279W        W 4573  16.201  16.657  14.308
45280W        W 4574   2.332  28.006  10.088
45281W        W 4575   3.929  43.474   0.395
45282W        W 4576  14.786  37.021   3.663
45283W        W 4577  33.941   4.354   1.741
45284W        W 4578  12.716  43.917   3.338
45285W        W 4579  38.043  13.211  11.122
45286W        W 4580  31.074   1.885  14.418
45287W        W 4581  26.003  39.433   3.721
45288W        W 4582  37.469  17.562   0.316
45289W        W 4583  17.154  11.296   2.185
45290W        W 4584   7.864  21.544  12.437
45291W        W 4585   8.254   4.423  11.488
45292W        W 4586   7.215  38.468   0.299
45293W        W 4587  38.992  18.781  14.480
45294W        W 4588  18.291  42.840  13.349
45295W        W 4589  42.002  42.937   5.249
45296W        W 4590  15.654   2.295   3.836
45297W        W 4591   2.406   6.679  13.901
45298W        W 4592  39.345   7.225  11.910
45299W        W 4593  38.364   4.805  11.603
45300W        W 4594  14.756   5.401  11.516
45301W        W 4595   9.279   5.278   0.905
45302W        W 4596  19.262  43.414   4.303
45303W        W 4597   0.266  35.066  14.307
45304W        W 4598   3.455  27.566  14.434
45305W        W 4599  42.439  43.361  10.572
45306W        W 4600  32.062   0.416  12.533
45307W        W 4601  13.340  43.488   4.152
45308W        W 4602  44.363   5.755  14.933
45309W        W 4603  15.129  10.677   4.625
45310W        W 4604  32.072  38.990   4.232
45311W        W 4605  23.021   6.339  11.488
45312W        W 4606  13.142  31.918   5.196
45313W        W 4607  17.216  36.095   0.407
45314W        W 4608   4.394  31.981   4.194
45315W        W 4609  24.988  20.675   3.200
45316W        W 4610  31.452  41.497   1.777
45317W        W 4611   1.438   7.255  12.883
45318W        W 4612   5.381   0.462  14.001
45319W        W 4613  36.577  22.520   9.926
45320W        W 4614   3.861  33.961  14.416
45321W        W 4615  42.841  41.004   0.867
45322W        W 4616  44.844  17.102   1.428
45323W        W 4617   2.445   6.288  13.888
45324W        W 4618  38.434  22.095   4.648
45325W        W 4619  19.087   1.864   4.285
45326W        W 4620  12.619  35.026   0.300
45327W        W 4621  32.886  11.660  14.901
45328W        W 4622  14.302  18.151  10.927
45329W        W 4623   8.181  13.305  14.293
45330W        W 4624   8.755  26.687   1.880
45331W        W 4625  28.573  30.916   3.715
45332W        W 4626  21.017  12.679   2.804
45333W        W 4627  34.575  20.049  14.986
45334W        W 4628  42.873  32.598   1.710
45335W        W 4629  19.282   9.234   0.895
45336W        W 4630   4.826  25.009  11.916
45337W        W 4631  43.309   1.926  13.035
45338W        W 4632   6.196  26.052  11.934
45339W        W 4633  38.426  31.071  13.910
45340W        W 4634  29.111  15.119  10.991
45341W        W 4635  16.276  19.241  14.975
45342W        W 4636  22.516  42.449   2.305
45343W        W 4637  38.022  34.866  14.943
45344W        W 4638   1.465  38.935   2.741
45345W        W 4639  31.485   1.383  12.538
45346W        W 4640   2.313   4.405  10.915
45347W        W 4641   2.781  39.531  14.856
45348W        W 4642  37.481  32.396   5.095
45349W        W 4643  44.825   0.887   3.174
45350W        W 4644   2.799  34.408  14.331
45351W        W 4645  25.097   3.234   0.936
45352W        W 4646  30.098  23.237  14.973
45353W        W 4647   0.877   6.267   4.197
45354W        W 4648  37.080  28.436   0.442
45355W        W 4649  34.962   4.812   5.206
45356W        W 4650  21.131  17.157  10.947
45357W        W 4651  25.543  20.082   1.292
45358W        W 4652   7.909  17.222   2.417
45359W        W 4653  21.645   3.291   4.190
45360W        W 4654  30.513  25.190   2.419
45361W        W 4655  16.719  38.473   1.237
45362W        W 4656  21.527  43.835  14.446
45363W        W 4657  35.868  43.378   4.796
45364W        W 4658  21.732   7.192   3.717
45365W        W 4659  43.974  17.215  14.489
45366W        W 4660   7.189  29.163   0.287
45367W        W 4661   7.729  38.850  14.459
45368W        W 4662  19.089   1.739   4.597
45369W        W 4663  12.693  38.542   1.292
45370W        W 4664   1.319  13.216  13.310
45371W        W 4665  13.299  36.592  13.919
45372W        W 4666  44.923  43.395  13.824
45373W        W 4667   9.360  14.642  10.566
45374W        W 4668   2.284  25.156   3.157
45375W        W 4669  23.685  36.487  11.388
45376W        W 4670  16.133  38.419   3.642
45377W        W 4671   0.476  19.777   1.806
45378W        W 4672  34.565  11.757   2.194
45379W        W 4673  29.000  15.628   1.344
45380W        W 4674  43.856  30.962  10.460
45381W        W 4675  28.596  11.733  14.353
45382W        W 4676  38.954   5.274   4.638
45383W        W 4677  39.339  24.002   2.223
45384W        W 4678  11.866  41.883   1.831
45385W        W 4679  37.917  37.512   4.337
45386W        W 4680  40.904  18.174  11.904
45387W        W 4681  34.892  11.312  13.038
45388W        W 4682  31.496  12.126  13.531
45389W        W 4683  21.228  14.333  10.936
45390W        W 4684  17.616   2.776   1.782
45391W        W 4685   4.943   2.314  11.973
45392W        W 4686   2.836  30.053   0.428
45393W        W 4687  44.886  19.667  11.973
45394W        W 4688   0.276   7.307  14.307
45395W        W 4689  42.289  12.804   3.317
45396W        W 4690  20.150   0.824   3.346
45397W        W 4691  31.614  29.146  12.575
45398W        W 4692  12.294  18.285  12.989
45399W        W 4693  25.706  44.939   4.135
45400W        W 4694  28.678   1.331   4.161
45401W        W 4695  16.274   1.915   3.831
45402W        W 4696  11.262  19.094  12.029
45403W        W 4697  44.944  10.199   0.479
45404W        W 4698  38.980  18.729   2.733
45405W        W 4699   3.867  20.707  11.541
45406W        W 4700  35.882  40.020   0.853
45407W        W 4701  33.996  12.801  13.489
45408W        W 4702   3.258  21.724  12.494
45409W        W 4703  18.673  25.007   5.123
45410W        W 4704  43.970  28.453   4.642
45411W        W 4705  10.347  28.963   4.775
45412W        W 4706  21.092   3.883   4.668
45413W        W 4707  26.691  32.573   1.367
45414W        W 4708  35.371  19.645  13.540
45415W        W 4709  37.070  26.611   1.766
45416W        W 4710  40.303   3.216  13.991
45417W        W 4711  36.393   6.381   1.836
45418W        W 4712  16.656  41.038  13.328
45419W        W 4713   3.250  10.344   3.237
45420W        W 4714  30.164  17.301  12.840
45421W        W 4715   4.796  43.386   4.683
45422W        W 4716  40.542   3.956   4.611
45423W        W 4717  28.612   6.678  11.055
45424W        W 4718  42.954  42.016   4.640
45425W        W 4719  22.538  34.387  13.319
45426W        W 4720  26.588  23.569   2.854
45427W        W 4721  20.180  44.332  13.979
45428W        W 4722  28.642  13.266  10.568
45429W        W 4723  15.815  37.513  13.947
45430W        W 4724  23.091  43.935   0.795
45431W        W 4725  14.740  28.973  13.520
45432W        W 4726   0.862  28.017  10.902
45433W        W 4727  13.820  39.420   4.823
45434W        W 4728  14.142   8.900  12.949
45435W        W 4729  27.080  29.000  14.424
45436W        W 4730  15.595  35.985   4.678
45437W        W 4731  41.306  32.555  12.524
45438W        W 4732  42.997  13.675   1.366
45439W        W 4733  38.373   2.287  10.408
45440W        W 4734  20.695  22.115  13.993
45441W        W 4735  31.980  34.877   4.241
45442W        W 4736  11.330  41.396  12.017
45443W        W 4737  13.330   6.352  10.445
45444W        W 4738  37.542  41.418  12.991
45445W        W 4739  32.002   5.428   0.288
45446W        W 4740  15.812   8.725  11.459
45447W        W 4741   0.985   7.361   1.933
45448W        W 4742   7.299  28.472  14.948
45449W        W 4743  10.362  15.614   4.676
45450W        W 4744   8.768  20.081   0.245
45451W        W 4745  14.249  22.124   0.755
45452W        W 4746  29.040  32.637   3.364
45453W        W 4747  15.290   6.908  12.989
45454W        W 4748  24.074  42.902   1.324
45455W        W 4749  38.499  22.113   3.860
45456W        W 4750  24.175  13.198  14.307
45457W        W 4751  43.388  28.966   3.289
45458W        W 4752   3.437  36.984  11.454
45459W        W 4753  33.103   7.899  14.843
45460W        W 4754  20.769   4.921  12.957
45461W        W 4755  21.215  25.632   3.806
45462W        W 4756  42.519   5.706   3.828
45463W        W 4757   8.406   1.443   1.767
45464W        W 4758  21.075  18.195  10.482
45465W        W 4759  42.812  28.972  14.284
45466W        W 4760  43.461  27.491  12.065
45467W        W 4761   5.214  30.019  14.934
45468W        W 4762  35.951  26.486  14.323
45469W        W 4763   6.413  16.793   3.763
45470W        W 4764  27.627  28.038  13.045
45471W        W 4765  42.819   5.846  14.950
45472W        W 4766  26.675  22.021  13.974
45473W        W 4767   0.848  11.784   3.689
45474W        W 4768  13.146  13.172  10.435
45475W        W 4769  40.903  37.970   1.811
45476W        W 4770   6.866  26.073  11.115
45477W        W 4771  37.892   0.356  13.504
45478W        W 4772  33.928  33.401  10.990
45479W        W 4773  22.092  13.729   4.743
45480W        W 4774   3.838  20.753   9.586
45481W        W 4775  19.536  38.354  10.902
45482W        W 4776  10.215   1.426   5.175
45483W        W 4777  30.524  43.346   1.718
45484W        W 4778  21.666  11.318  14.403
45485W        W 4779  23.722   9.706   2.315
45486W        W 4780  20.159  21.740  10.080
45487W        W 4781  40.824  36.960   3.771
45488W        W 4782   1.891  13.816  14.771
45489W        W 4783  34.035  37.395   0.925
45490W        W 4784  21.678  37.538   0.477
45491W        W 4785  20.743   0.822   0.482
45492W        W 4786  15.220  10.332  10.484
45493W        W 4787  44.985  15.674  11.474
45494W        W 4788  32.924  41.323   3.217
45495W        W 4789  30.162  39.937   5.233
45496W        W 4790  11.824  44.364   2.710
45497W        W 4791  11.641  18.284  12.349
45498W        W 4792  15.301  36.965  13.868
45499W        W 4793   2.742  10.181   4.127
45500W        W 4794  28.061  30.152  13.029
45501W        W 4795  38.053  44.938   0.360
45502W        W 4796   0.769  11.359   4.260
45503W        W 4797  13.733  19.180  12.846
45504W        W 4798  11.685  41.471  11.102
45505W        W 4799   9.747  19.567   5.157
45506W        W 4800  37.012  37.888   2.255
45507W        W 4801  33.522  34.116   4.696
45508W        W 4802  40.913   1.262   4.320
45509W        W 4803  22.998  32.616  14.443
45510W        W 4804   1.255   8.306  12.948
45511W        W 4805  40.477   7.397  13.512
45512W        W 4806  21.708   8.811  11.857
45513W        W 4807   7.277  17.659  12.473
45514W        W 4808  11.847  23.223  11.607
45515W        W 4809  20.101   3.752  11.050
45516W        W 4810  33.959  21.150  12.511
45517W        W 4811  22.069  22.117  13.791
45518W        W 4812  20.557  24.505  12.554
45519W        W 4813  23.711   7.819   0.967
45520W        W 4814   3.320  26.625  13.950
45521W        W 4815   2.927   5.240  12.046
45522W        W 4816  15.668  16.727  11.079
45523W        W 4817  29.042  33.009  12.900
45524W        W 4818  32.932   0.384   0.388
45525W        W 4819  11.245  32.050  13.449
45526W        W 4820  12.622   1.317  10.575
45527W        W 4821  21.256  37.957   4.299
45528W        W 4822   1.391   4.234   1.431
45529W        W 4823  15.164  10.800   3.176
45530W        W 4824  39.560  44.491  13.059
45531W        W 4825  32.466  35.886   0.756
45532W        W 4826  19.684  29.998   2.662
45533W        W 4827  43.837  40.414   2.198
45534W        W 4828  21.067  43.305   3.861
45535W        W 4829  39.525   4.753  14.511
45536W        W 4830  10.259   9.159  11.081
45537W        W 4831  22.726  21.164   4.818
45538W        W 4832  39.368  22.078   3.711
45539W        W 4833  31.971  16.809  13.544
45540W        W 4834   7.297   4.931   0.267
45541W        W 4835  36.541  26.038   0.964
45542W        W 4836  31.997  22.222  13.843
45543W        W 4837  31.636  24.139  11.505
45544W        W 4838  26.964   7.269   4.341
45545W        W 4839  29.462   0.477  10.918
45546W        W 4840  34.972  10.332  10.976
45547W        W 4841  13.135  23.723   4.604
45548W        W 4842   4.263   9.789  14.000
45549W        W 4843  10.232   9.340   4.142
45550W        W 4844  36.377  12.703  11.598
45551W        W 4845  14.315  21.637  11.389
45552W        W 4846  28.006  30.442   1.857
45553W        W 4847  28.186  23.640  11.962
45554W        W 4848   1.909  27.191   0.421
45555W        W 4849  44.873  39.992   2.247
45556W        W 4850   8.689   3.777  14.405
45557W        W 4851  38.874   9.809  13.485
45558W        W 4852  33.417  31.930   4.713
45559W        W 4853   5.835  11.268   3.352
45560W        W 4854  26.146  15.716   0.873
45561W        W 4855   9.301  33.087  12.966
45562W        W 4856  19.050  32.935  11.891
45563W        W 4857  39.963   2.738   2.289
45564W        W 4858  36.929   0.770  13.366
45565W        W 4859  10.328   0.350   5.125
45566W        W 4860  35.492  22.575  13.878
45567W        W 4861  21.593  34.400  14.915
45568W        W 4862  27.076   0.865  10.096
45569W        W 4863  18.692  26.202  14.422
45570W        W 4864   3.777  43.512  11.936
45571W        W 4865  21.125  36.058  10.117
45572W        W 4866   6.222  31.093  14.024
45573W        W 4867  15.779   9.368  11.113
45574W        W 4868  33.439  15.756  13.998
45575W        W 4869  19.627   4.910   1.918
45576W        W 4870  13.721   4.937  13.816
45577W        W 4871  22.049  21.059  14.873
45578W        W 4872  28.483   8.200  13.326
45579W        W 4873  25.683   0.344  11.486
45580W        W 4874  36.464  29.654   4.205
45581W        W 4875   4.271   5.265  11.877
45582W        W 4876  26.957  18.253  13.935
45583W        W 4877  14.655  24.099   1.415
45584W        W 4878  22.639  14.161  13.905
45585W        W 4879  14.699  11.154   3.629
45586W        W 4880   4.412  23.176   3.744
45587W        W 4881  39.444   9.326   2.333
45588W        W 4882   9.722  34.004  14.778
45589W        W 4883  28.508  20.066   0.953
45590W        W 4884  44.482  41.903   1.393
45591W        W 4885   7.346   5.859  13.967
45592W        W 4886  41.474  16.167   0.264
45593W        W 4887  34.011  16.619   0.774
45594W        W 4888  44.398  29.938   3.758
45595W        W 4889   6.391  38.405   1.848
45596W        W 4890  23.553  38.852   3.339
45597W        W 4891  11.820  19.554  11.071
45598W        W 4892  14.221   0.352   0.863
45599W        W 4893  14.754  10.812  13.827
45600W        W 4894   8.344   0.340  13.957
45601W        W 4895  43.820   1.376   9.499
45602W        W 4896   7.297  32.023  10.992
45603W        W 4897  27.032   8.362  12.090
45604W        W 4898  41.951  44.785  13.804
45605W        W 4899   3.445  40.914  12.886
45606W        W 4900  21.659  35.935   3.659
45607W        W 4901  36.575  30.066  14.440
45608W        W 4902  37.530  42.982   1.708
45609W        W 4903  40.817   2.844   1.289
45610W        W 4904  38.470  28.158  14.864
45611W        W 4905  12.238   9.705  13.008
45612W        W 4906  24.117  30.054  12.831
45613W        W 4907  38.404  38.022  10.480
45614W        W 4908   8.702  23.621  14.991
45615W        W 4909   9.327   7.910  12.533
45616W        W 4910  31.081  25.492   1.234
45617W        W 4911  29.594  38.952  14.383
45618W        W 4912  31.491  16.760   0.732
45619W        W 4913  35.853  43.901   2.826
45620W        W 4914  37.460  43.943  10.409
45621W        W 4915  21.211   6.754  14.916
45622W        W 4916  33.983  13.700  14.002
45623W        W 4917  13.301   1.479   2.346
45624W        W 4918   4.867   8.872   2.315
45625W        W 4919  17.727  32.470   2.693
45626W        W 4920  43.513  33.509  10.113
45627W        W 4921  29.134   6.770  12.987
45628W        W 4922  11.274  16.574  11.997
45629W        W 4923  23.561  44.463  10.440
45630W        W 4924   3.288  39.823   4.683
45631W        W 4925  30.002  22.235  12.041
45632W        W 4926  28.651  38.430   5.592
45633W        W 4927  11.220  37.068  13.490
45634W        W 4928  42.901  27.029   4.193
45635W        W 4929  29.098  41.819   3.646
45636W        W 4930  26.197   1.855  10.930
45637W        W 4931  34.081  16.175  13.818
45638W        W 4932  12.811  26.161  13.450
45639W        W 4933  33.081  12.233   0.872
45640W        W 4934  36.852  17.767   3.866
45641W        W 4935   6.919   3.811   0.429
45642W        W 4936  16.271  43.901  10.511
45643W        W 4937  10.865   4.799   3.353
45644W        W 4938  42.407  26.678  14.906
45645W        W 4939  31.644  13.746  14.414
45646W        W 4940  23.234  28.068  13.478
45647W        W 4941  35.408  20.571   3.756
45648W        W 4942  20.598  21.674   2.284
45649W        W 4943   2.780  29.012  10.888
45650W        W 4944  39.921  26.011   0.341
45651W        W 4945  20.186  30.639   1.867
45652W        W 4946   1.753  38.856   4.274
45653W        W 4947  31.446  41.868  12.343
45654W        W 4948  22.662  32.621   1.366
45655W        W 4949  23.670  17.141  12.379
45656W        W 4950  39.056  25.608  13.474
45657W        W 4951  24.069  38.889   4.212
45658W        W 4952  43.907   1.247  10.158
45659W        W 4953  35.886   9.263   5.314
45660W        W 4954  18.764  11.855   4.638
45661W        W 4955  40.938  30.075   1.841
45662W        W 4956  19.587   8.878   0.299
45663W        W 4957  26.461   9.794   9.996
45664W        W 4958  35.998   8.315   0.899
45665W        W 4959  36.943  19.568   3.806
45666W        W 4960  37.019  35.432   0.436
45667W        W 4961  14.692   1.412  12.970
45668W        W 4962  25.678   5.848   3.714
45669W        W 4963   5.806  31.454   1.388
45670W        W 4964  15.250  19.119   3.291
45671W        W 4965   2.962  20.220  12.483
45672W        W 4966  16.758   7.889   3.828
45673W        W 4967   6.801  37.377   1.283
45674W        W 4968  19.567  39.323  14.295
45675W        W 4969   3.371  39.341   2.749
45676W        W 4970  23.085  21.180  14.009
45677W        W 4971  16.269  10.768   5.270
45678W        W 4972  44.344  17.237  10.037
45679W        W 4973  44.816  23.208   4.829
45680W        W 4974  31.098   8.891  10.405
45681W        W 4975  29.082  33.034   0.347
45682W        W 4976   3.349   1.896  10.152
45683W        W 4977  14.597  29.084   1.905
45684W        W 4978  33.514  35.600  12.414
45685W        W 4979  18.293  16.812  10.612
45686W        W 4980   5.214  24.486   4.242
45687W        W 4981  38.016  35.583  12.894
45688W        W 4982  44.376  34.998   1.726
45689W        W 4983  44.982  16.652   4.682
45690W        W 4984   1.345  15.761   0.263
45691W        W 4985  32.953  14.132   0.271
45692W        W 4986  40.549   3.419   5.204
45693W        W 4987  44.954  42.371  14.334
45694W        W 4988  23.550  33.398  14.892
45695W        W 4989  32.088  22.154   4.253
45696W        W 4990  31.574  16.805  11.518
45697W        W 4991  38.408  10.186   1.240
45698W        W 4992  27.019  41.403   2.254
45699W        W 4993  15.263  42.804  13.537
45700W        W 4994  40.803  33.904   1.388
45701W        W 4995  25.700  41.952   0.463
45702W        W 4996   0.926   7.382  12.847
45703W        W 4997  10.209  38.399  11.102
45704W        W 4998  28.948  35.911   3.832
45705W        W 4999  11.185  15.734  13.417
45706W        W 5000  15.146  35.995  12.563
45707W        W 5001  13.198  20.575   4.716
45708W        W 5002  24.654  11.131  10.966
45709W        W 5003  23.110  27.597  11.516
45710W        W 5004   7.350  43.972  12.490
45711W        W 5005  16.670  29.174  12.999
45712W        W 5006  40.040   4.398  11.017
45713W        W 5007  41.294  24.205  13.830
45714W        W 5008  37.902  34.452   4.259
45715W        W 5009  18.602  33.478   4.116
45716W        W 5010  42.400   6.185   4.240
45717W        W 5011  18.707  18.159   3.324
45718W        W 5012  35.430  42.839  10.441
45719W        W 5013  44.838  36.018  11.562
45720W        W 5014  26.120  44.871   1.322
45721W        W 5015  27.589   7.860  14.953
45722W        W 5016  14.176  22.169   1.417
45723W        W 5017  38.944   0.965  11.581
45724W        W 5018  22.725  44.883  11.064
45725W        W 5019  43.892  34.536  11.860
45726W        W 5020  37.499   4.344  11.026
45727W        W 5021  13.831  16.122   2.805
45728W        W 5022  22.221  29.666  11.055
45729W        W 5023  35.087  10.840   4.220
45730W        W 5024  31.042  25.698  12.505
45731W        W 5025   6.362   3.956  14.339
45732W        W 5026  31.008  43.285  13.487
45733W        W 5027  39.877  20.622  14.280
45734W        W 5028  23.088   2.269  14.786
45735W        W 5029  36.379  34.095  12.077
45736W        W 5030  14.714  43.887  12.055
45737W        W 5031  25.107  13.835  11.491
45738W        W 5032  27.634  31.647   3.377
45739W        W 5033   0.837  13.213   2.247
45740W        W 5034  19.138  11.260   4.627
45741W        W 5035  44.453  34.555   4.700
45742W        W 5036  24.068   5.691   1.265
45743W        W 5037  30.614  12.126  11.439
45744W        W 5038  38.558  37.844   3.316
45745W        W 5039  37.860  16.684   0.401
45746W        W 5040  41.389   8.882  10.919
45747W        W 5041  10.146  40.968   4.185
45748W        W 5042  30.008   1.322  12.528
45749W        W 5043  27.564   6.209  12.052
45750W        W 5044  42.510  21.088   2.406
45751W        W 5045  22.044  25.065  13.058
45752W        W 5046  40.342  38.878   0.379
45753W        W 5047  15.088  17.215   4.295
45754W        W 5048  21.102  36.413  11.883
45755W        W 5049  37.045  21.262   0.888
45756W        W 5050  16.658  26.634   4.216
45757W        W 5051  36.459  31.502  12.572
45758W        W 5052   5.839   8.382  11.007
45759W        W 5053  38.033  10.178  14.974
45760W        W 5054  26.090  28.543   2.772
45761W        W 5055  33.453  15.302   2.762
45762W        W 5056   0.773  27.024  13.501
45763W        W 5057   8.344   8.332  12.901
45764W        W 5058  29.536  15.811   2.840
45765W        W 5059   5.394  22.999  11.540
45766W        W 5060  25.545  37.876   2.761
45767W        W 5061  43.276  19.110  10.485
45768W        W 5062  44.776  28.584   1.407
45769W        W 5063  21.212   5.699   9.947
45770W        W 5064  13.693  21.624   0.455
45771W        W 5065   1.772   3.452  13.882
45772W        W 5066  28.675   1.295  13.840
45773W        W 5067  33.070   6.773  13.869
45774W        W 5068  38.869  11.156  14.812
45775W        W 5069   9.194   0.831   0.286
45776W        W 5070  25.701   5.223   4.290
45777W        W 5071  19.177  37.958   0.292
45778W        W 5072  18.711  19.238   3.162
45779W        W 5073  38.973   0.304  12.927
45780W        W 5074  22.725   0.986   3.824
45781W        W 5075  26.553  13.776  11.571
45782W        W 5076  37.059  19.582  14.911
45783W        W 5077   9.647   0.975   5.135
45784W        W 5078  32.573  15.638   2.265
45785W        W 5079   5.831  13.280  13.020
45786W        W 5080  24.140   9.865   0.948
45787W        W 5081   4.761   4.294   3.777
45788W        W 5082  25.109  38.007   0.853
45789W        W 5083  36.469  28.442  13.055
45790W        W 5084   0.906  35.549  14.316
45791W        W 5085   2.721  10.208   0.869
45792W        W 5086   2.885  17.288  14.935
45793W        W 5087   8.234  41.792   2.748
45794W        W 5088  40.382  11.788  13.478
45795W        W 5089   1.254  26.205  13.397
45796W        W 5090  13.768  19.167   0.851
45797W        W 5091  18.650  29.030   0.337
45798W        W 5092  24.552  43.942   2.278
45799W        W 5093  19.649   9.364   1.896
45800W        W 5094  16.291   9.236   1.898
45801W        W 5095  23.009  25.983   1.314
45802W        W 5096  13.716  23.153  11.032
45803W        W 5097  22.531  33.967  12.856
45804W        W 5098  25.173  12.134  10.475
45805W        W 5099  23.525  38.909  11.882
45806W        W 5100  30.146  27.491  14.405
45807W        W 5101  36.453  38.869  12.030
45808W        W 5102  32.513  32.957   0.419
45809W        W 5103  16.213   5.932   3.261
45810W        W 5104  13.785   2.807   2.897
45811W        W 5105  24.092  43.797   2.369
45812W        W 5106  43.883  43.278   1.246
45813W        W 5107  43.453  13.716   2.253
45814W        W 5108  11.622  32.988  13.960
45815W        W 5109   5.880   5.301  13.853
45816W        W 5110  42.462  32.142   4.619
45817W        W 5111  38.496  22.727  10.922
45818W        W 5112   3.339  29.470  10.599
45819W        W 5113  23.174  33.598  12.880
45820W        W 5114  11.649  31.134   2.852
45821W        W 5115   8.289  24.131   0.869
45822W        W 5116   0.289   3.365  13.516
45823W        W 5117  28.461  15.197   3.747
45824W        W 5118  43.953  33.428   0.802
45825W        W 5119  11.711  43.966  14.374
45826W        W 5120  15.670  25.578   2.849
45827W        W 5121  34.927   0.810  11.910
45828W        W 5122  33.891   8.788   0.892
45829W        W 5123  12.617  21.753   1.701
45830W        W 5124  17.089   0.771  11.973
45831W        W 5125  37.015  24.985  14.968
45832W        W 5126  24.088  19.119  13.032
45833W        W 5127   2.399  38.048  12.962
45834W        W 5128  19.243  44.351  13.840
45835W        W 5129  22.090   2.865   2.799
45836W        W 5130  26.634  22.540   0.455
45837W        W 5131   5.435  43.406   1.423
45838W        W 5132  44.866   1.916  10.004
45839W        W 5133  10.751   9.232   2.394
45840W        W 5134   7.278  36.573  13.895
45841W        W 5135  23.145  31.581   4.187
45842W        W 5136   9.308  22.609   1.217
45843W        W 5137  35.591  24.089  10.582
45844W        W 5138  27.464  40.363  11.942
45845W        W 5139  28.126  18.154  11.920
45846W        W 5140  11.786  43.330  10.894
45847W        W 5141  32.503  33.539  13.904
45848W        W 5142  42.965   4.850  14.309
45849W        W 5143   6.338  32.970  11.951
45850W        W 5144  23.660  36.372  12.085
45851W        W 5145  40.462  38.394  11.541
45852W        W 5146  37.000  33.586  13.470
45853W        W 5147  24.710  12.287  11.510
45854W        W 5148  38.852  44.277   4.744
45855W        W 5149  40.546   2.451  13.838
45856W        W 5150  14.258   3.429  11.485
45857W        W 5151   7.883  38.348   2.801
45858W        W 5152  34.545  26.589   3.223
45859W        W 5153  17.252   1.942  13.991
45860W        W 5154   1.827  40.037   2.865
45861W        W 5155   9.308   3.428  14.384
45862W        W 5156  16.708  24.075  13.328
45863W        W 5157  43.371   3.816   0.410
45864W        W 5158  31.505  38.900   4.753
45865W        W 5159   9.363   3.889  12.547
45866W        W 5160  40.852  34.058  13.923
45867W        W 5161  41.961  17.189  14.985
45868W        W 5162  13.778  19.158   1.815
45869W        W 5163  19.590  17.746   3.638
45870W        W 5164  21.223  10.355   4.680
45871W        W 5165  16.643  14.727  14.483
45872W        W 5166  13.810  35.444  14.394
45873W        W 5167  40.398  43.319   2.386
45874W        W 5168  13.344  10.384  14.309
45875W        W 5169   3.393  41.967   4.636
45876W        W 5170  17.070   1.470   2.296
45877W        W 5171  15.128  19.052  13.026
45878W        W 5172  21.238  37.527   1.422
45879W        W 5173  25.007  23.698  13.372
45880W        W 5174  19.677  30.965  13.022
45881W        W 5175  27.614  32.473   3.367
45882W        W 5176  30.103  15.088  13.383
45883W        W 5177  34.058   1.363   2.858
45884W        W 5178  14.192  19.253   4.337
45885W        W 5179  12.745  10.215   0.325
45886W        W 5180  31.479  18.631  11.966
45887W        W 5181  38.565  32.507  13.475
45888W        W 5182  22.585  18.600   2.886
45889W        W 5183   9.238  14.733  11.536
45890W        W 5184  21.238  23.597  13.963
45891W        W 5185  35.858  38.924  10.532
45892W        W 5186  20.054  42.357  14.320
45893W        W 5187   2.289   4.394  14.912
45894W        W 5188  42.366  24.075   2.318
45895W        W 5189  43.300  41.431  10.618
45896W        W 5190   5.769   1.863   2.800
45897W        W 5191  43.397  27.651   2.796
45898W        W 5192  10.179  10.242   0.806
45899W        W 5193  33.561  39.364   3.353
45900W        W 5194   4.835  30.511   0.312
45901W        W 5195   1.887   6.343  14.413
45902W        W 5196  33.385  11.344  13.814
45903W        W 5197  32.526  32.128   3.764
45904W        W 5198  13.229  28.651   2.219
45905W        W 5199  41.929  18.672   2.787
45906W        W 5200  22.070  13.715   2.880
45907W        W 5201  34.543  25.137  12.981
45908W        W 5202  30.945  20.213   4.812
45909W        W 5203   6.241   8.323   2.859
45910W        W 5204  41.364  31.647   2.311
45911W        W 5205  41.022  38.902   3.648
45912W        W 5206   4.205   0.464   9.477
45913W        W 5207  34.393  44.879   1.787
45914W        W 5208  23.637   1.739   3.791
45915W        W 5209  39.004   3.873  14.463
45916W        W 5210   2.398  27.999   1.695
45917W        W 5211  25.175  27.528  11.602
45918W        W 5212  20.230   7.708   2.815
45919W        W 5213  37.087  19.734  10.528
45920W        W 5214  27.994  26.137  14.916
45921W        W 5215  11.305  12.766   3.156
45922W        W 5216  13.632  35.965   0.425
45923W        W 5217   8.707  18.598   2.676
45924W        W 5218  18.225  28.494   0.385
45925W        W 5219   3.440  42.930   0.448
45926W        W 5220   0.330  38.009   2.859
45927W        W 5221  36.487  35.058   1.798
45928W        W 5222   4.908  30.511   2.752
45929W        W 5223  12.690  30.016  10.584
45930W        W 5224  27.003  34.928  11.587
45931W        W 5225  19.171  29.967  13.024
45932W        W 5226   8.274  27.185   2.292
45933W        W 5227  38.388  22.136  10.480
45934W        W 5228  39.848  43.425  10.908
45935W        W 5229  30.620  41.905   0.301
45936W        W 5230   8.328  12.622   3.338
45937W        W 5231  40.923  21.677   3.241
45938W        W 5232  28.551   0.986  11.385
45939W        W 5233  36.460  42.365   4.640
45940W        W 5234  13.650   5.793   0.365
45941W        W 5235  41.491  16.112  13.843
45942W        W 5236  17.658  26.699  12.579
45943W        W 5237  18.272  11.745  10.404
45944W        W 5238  36.993  44.926   3.668
45945W        W 5239  30.934  15.775  13.332
45946W        W 5240  39.352  33.594   2.402
45947W        W 5241  37.523  39.053   5.115
45948W        W 5242   9.813  33.085  13.354
45949W        W 5243  25.547  31.643   1.279
45950W        W 5244  20.142  28.576   1.226
45951W        W 5245  27.979  21.192   2.820
45952W        W 5246   0.493  23.722  13.853
45953W        W 5247   1.950  24.580  14.401
45954W        W 5248  37.986  36.580  14.453
45955W        W 5249   6.692  43.902   2.672
45956W        W 5250  33.524  41.384   0.883
45957W        W 5251  17.606  13.169   1.294
45958W        W 5252  20.705  20.554   0.358
45959W        W 5253   0.295  44.499  12.005
45960W        W 5254  33.033  16.131   2.853
45961W        W 5255  31.521  12.279  14.395
45962W        W 5256   8.658  17.203   0.420
45963W        W 5257  26.099  38.838  12.418
45964W        W 5258  36.399  30.499   3.341
45965W        W 5259  35.966  42.437   3.654
45966W        W 5260  28.632  14.178   3.709
45967W        W 5261  10.227   7.679  14.426
45968W        W 5262  25.966  13.717   4.332
45969W        W 5263   0.419  38.917  10.894
45970W        W 5264   7.808   3.945   1.397
45971W        W 5265  34.104  25.096   3.655
45972W        W 5266  34.001  29.143   2.245
45973W        W 5267  37.569  25.996   4.675
45974W        W 5268  16.763  40.339  13.475
45975W        W 5269  13.812  22.672   5.215
45976W        W 5270  20.186  37.578  12.540
45977W        W 5271  26.526  21.133   4.145
45978W        W 5272  20.749  26.070  14.496
45979W        W 5273  22.679  30.481  14.833
45980W        W 5274  24.131  19.712   3.641
45981W        W 5275  29.006  20.722  13.053
45982W        W 5276  32.955  20.709   0.288
45983W        W 5277  34.994  40.494   3.833
45984W        W 5278  35.419  23.702   1.710
45985W        W 5279  27.093   4.237   3.681
45986W        W 5280   8.216   9.343  11.115
45987W        W 5281  23.594  11.311  13.942
45988W        W 5282  26.137  31.562   4.143
45989W        W 5283   6.797  30.542   0.857
45990W        W 5284  17.160  18.184   2.810
45991W        W 5285   4.914  17.722   3.289
45992W        W 5286  20.670   2.289   0.790
45993W        W 5287   7.244  30.580  12.028
45994W        W 5288  18.690  31.080  10.920
45995W        W 5289  44.449  13.687   3.851
45996W        W 5290   3.451  43.392   0.368
45997W        W 5291  44.298  16.607  12.490
45998W        W 5292  30.080  15.147   2.722
45999W        W 5293  20.221  40.942  11.489
46000W        W 5294   1.324   0.795   3.636
46001W        W 5295  42.807  17.688  13.827
46002W        W 5296  45.000  43.304   4.303
46003W        W 5297  27.063  11.279   4.284
46004W        W 5298  33.967  38.888  11.108
46005W        W 5299  12.790  18.576  14.956
46006W        W 5300   2.953   2.782  12.839
46007W        W 5301  38.553  17.795  14.369
46008W        W 5302  22.555  41.471   5.263
46009W        W 5303  35.496  11.766   3.191
46010W        W 5304  18.621  26.988   4.281
46011W        W 5305   7.809  27.633   4.339
46012W        W 5306   6.693  39.047   2.352
46013W        W 5307  44.856   9.248  14.302
46014W        W 5308   4.872  19.645   2.745
46015W        W 5309  42.345  15.262  10.458
46016W        W 5310  33.450  16.110   3.762
46017W        W 5311  41.361  35.110  14.448
46018W        W 5312  15.092  30.069   2.744
46019W        W 5313   0.753   4.807   2.239
46020W        W 5314  40.841   4.849  13.484
46021W        W 5315  28.061  36.410   2.407
46022W        W 5316  10.688  18.764   4.317
46023W        W 5317  19.676  44.828  14.388
46024W        W 5318  37.848  37.071   2.778
46025W        W 5319  17.791  19.555   1.776
46026W        W 5320  21.551  36.083  12.485
46027W        W 5321  12.227  37.359  10.575
46028W        W 5322  43.508  34.505   0.374
46029W        W 5323   8.727  25.043  10.418
46030W        W 5324  19.040  36.942   4.675
46031W        W 5325  25.684  19.131   4.310
46032W        W 5326  31.029  39.432   3.669
46033W        W 5327  37.899  10.283  11.953
46034W        W 5328   0.783  39.901   1.319
46035W        W 5329  15.666  13.247   1.340
46036W        W 5330  43.812  10.695  12.539
46037W        W 5331  25.102   4.825  14.307
46038W        W 5332  11.211  23.129   3.732
46039W        W 5333  26.044  27.079   4.188
46040W        W 5334  12.840   5.880   4.616
46041W        W 5335  29.526  24.047  13.964
46042W        W 5336  16.286  34.885  12.468
46043W        W 5337  16.136  18.207   0.265
46044W        W 5338   6.915  16.160   3.242
46045W        W 5339  35.588  15.219  13.319
46046W        W 5340  30.567   3.944  11.894
46047W        W 5341   0.449  25.588   1.837
46048W        W 5342  23.054  27.172  10.434
46049W        W 5343   6.763   8.843  12.878
46050W        W 5344  41.960  23.072   3.837
46051W        W 5345  22.501  12.756   2.666
46052W        W 5346  25.984  11.189   1.785
46053W        W 5347  25.038   9.330   1.793
46054W        W 5348  28.030  30.022   2.826
46055W        W 5349  25.505  12.667  10.411
46056W        W 5350  23.040   7.700  12.044
46057W        W 5351   5.883  34.062   4.808
46058W        W 5352   2.416   8.745   2.362
46059W        W 5353   3.869  15.182  10.597
46060W        W 5354  13.627  39.963  13.474
46061W        W 5355  28.523   4.906   4.138
46062W        W 5356  27.501  26.000   2.320
46063W        W 5357   7.807   9.693   3.726
46064W        W 5358   7.851  14.285   2.826
46065W        W 5359  34.041  34.935  10.068
46066W        W 5360  11.821   7.339  10.146
46067W        W 5361  27.506   4.875  12.887
46068W        W 5362   5.803  39.049   4.768
46069W        W 5363   9.825  41.303  12.083
46070W        W 5364  27.101  11.868   3.187
46071W        W 5365   1.344  25.672   3.203
46072W        W 5366  11.636  39.368   0.249
46073W        W 5367   7.793  30.078   4.823
46074W        W 5368  37.460   0.327   0.245
46075W        W 5369   3.792  37.971  10.907
46076W        W 5370  14.712   7.287  14.290
46077W        W 5371   0.753   8.164  12.549
46078W        W 5372  17.112  27.064   1.798
46079W        W 5373  21.057   0.831  14.993
46080W        W 5374  16.684  12.822  11.051
46081W        W 5375  23.067   2.311   1.255
46082W        W 5376  34.578  35.431  11.907
46083W        W 5377  24.638  16.750  11.902
46084W        W 5378  38.508  28.648   3.783
46085W        W 5379   4.265  12.669  10.937
46086W        W 5380  43.791  39.014   1.257
46087W        W 5381  35.429  44.381  12.444
46088W        W 5382  13.627  42.387   4.787
46089W        W 5383  35.860  44.371   2.828
46090W        W 5384  29.041   5.912   4.635
46091W        W 5385  14.764  27.587   3.249
46092W        W 5386  24.207  17.251  14.473
46093W        W 5387   1.898  44.300  14.801
46094W        W 5388  38.911  19.621  11.376
46095W        W 5389  31.153  15.294  14.457
46096W        W 5390   0.329  14.643   3.857
46097W        W 5391  35.886  12.837  10.644
46098W        W 5392  42.778  35.924   2.281
46099W        W 5393   7.332   6.364  11.988
46100W        W 5394   6.403   9.210  14.024
46101W        W 5395   7.746  41.310  12.342
46102W        W 5396  38.941   0.776  10.416
46103W        W 5397  27.142  38.880  14.855
46104W        W 5398   7.897   5.309  13.056
46105W        W 5399   6.894  41.960  14.896
46106W        W 5400  17.791   5.791   2.391
46107W        W 5401  24.681  34.607   2.282
46108W        W 5402  31.429  31.055   2.246
46109W        W 5403  20.708  35.008   4.233
46110W        W 5404  23.170  27.159   3.727
46111W        W 5405  10.267  39.984   1.805
46112W        W 5406  31.006  24.086  14.919
46113W        W 5407  37.552  20.135  12.498
46114W        W 5408   9.667  25.471   2.889
46115W        W 5409   0.250  23.115   3.860
46116W        W 5410   9.239  38.533   3.162
46117W        W 5411  22.687  36.086  11.388
46118W        W 5412   7.900  13.287   4.724
46119W        W 5413  12.247  28.517   1.792
46120W        W 5414  10.198   6.841  11.070
46121W        W 5415  43.459  15.176   1.892
46122W        W 5416  37.928   1.903   2.305
46123W        W 5417  18.676  17.711  12.012
46124W        W 5418  23.691  41.892  13.833
46125W        W 5419   4.812  26.498   2.809
46126W        W 5420   7.760  40.023  11.381
46127W        W 5421  27.145  20.048   2.769
46128W        W 5422  21.535   2.355  13.523
46129W        W 5423  34.372   8.737  12.949
46130W        W 5424  10.700  24.490   2.889
46131W        W 5425  20.185  34.451  12.528
46132W        W 5426  19.058  34.983   2.827
46133W        W 5427   4.743   3.399   1.788
46134W        W 5428  34.002   1.803   0.410
46135W        W 5429  14.218  35.390   1.416
46136W        W 5430  41.960  22.211   3.743
46137W        W 5431  28.981  19.611  12.530
46138W        W 5432  31.454  13.788  14.894
46139W        W 5433  40.444   2.966  10.158
46140W        W 5434   8.189   8.248   0.776
46141W        W 5435   1.879   7.186   1.445
46142W        W 5436  23.206  19.689  11.536
46143W        W 5437  41.813  12.782  10.426
46144W        W 5438  37.844   5.415   3.277
46145W        W 5439   1.358  41.940   4.795
46146W        W 5440  11.640  21.252   0.329
46147W        W 5441  39.526  39.434  11.486
46148W        W 5442  25.538  21.103  10.541
46149W        W 5443  10.712   7.347   2.378
46150W        W 5444  33.101   7.336   0.448
46151W        W 5445  14.183  40.471   5.121
46152W        W 5446  35.038   5.716   4.790
46153W        W 5447  13.706  18.154   3.361
46154W        W 5448  18.286  20.532   1.256
46155W        W 5449   1.914  37.335   2.805
46156W        W 5450  29.611  20.111  10.546
46157W        W 5451  34.495   5.726  10.972
46158W        W 5452  15.640  14.825   5.725
46159W        W 5453  43.936  28.979  14.295
46160W        W 5454  27.499  22.569  13.820
46161W        W 5455  30.019  15.124   4.319
46162W        W 5456  22.743  29.952   4.115
46163W        W 5457   5.417  40.311  12.835
46164W        W 5458  41.996  30.054  14.406
46165W        W 5459  40.381  15.266   2.232
46166W        W 5460  12.145  19.165   2.222
46167W        W 5461  38.953  26.608   0.317
46168W        W 5462  35.545  19.725  10.430
46169W        W 5463   5.815  39.990   4.679
46170W        W 5464  37.464  16.718  12.381
46171W        W 5465  35.045  22.623   5.263
46172W        W 5466  41.322   4.213   1.432
46173W        W 5467  27.591  14.288   3.821
46174W        W 5468  10.716  44.293  11.023
46175W        W 5469  35.577  20.063  12.051
46176W        W 5470  43.384  19.772   0.299
46177W        W 5471  31.521  32.068   4.313
46178W        W 5472   4.794  31.082  13.392
46179W        W 5473  33.898  43.942  11.397
46180W        W 5474  18.270  31.615  12.990
46181W        W 5475  27.664  41.814  14.822
46182W        W 5476  34.089  25.163   1.922
46183W        W 5477  44.755   1.755  13.342
46184W        W 5478  38.553  25.019  11.000
46185W        W 5479  40.840  26.169  12.946
46186W        W 5480  26.505  22.122  14.464
46187W        W 5481  36.443  44.367  13.942
46188W        W 5482  24.532   1.939  14.768
46189W        W 5483  43.969  35.431  12.003
46190W        W 5484  29.448   8.260   3.306
46191W        W 5485  25.482  44.913   2.736
46192W        W 5486  22.563  32.067   5.169
46193W        W 5487  29.435  20.589   2.276
46194W        W 5488   3.874  28.637  13.842
46195W        W 5489  23.021  29.669  13.351
46196W        W 5490   1.847  39.433   3.306
46197W        W 5491  16.633  21.118   4.324
46198W        W 5492  35.992  38.988  10.088
46199W        W 5493  41.927  13.250  14.437
46200W        W 5494   3.394  25.594   2.257
46201W        W 5495   0.881  12.293   1.925
46202W        W 5496  17.703  34.492  12.914
46203W        W 5497   4.330  34.936   2.210
46204W        W 5498  10.231   2.740  14.489
46205W        W 5499  31.600  14.725   3.706
46206W        W 5500  13.243   2.403   0.336
46207W        W 5501  43.956  29.144   4.798
46208W        W 5502  29.522   8.682  12.999
46209W        W 5503  24.661   9.223  10.954
46210W        W 5504  34.078  22.051   1.848
46211W        W 5505   3.383   4.768  13.447
46212W        W 5506  11.622  31.090  11.580
46213W        W 5507   7.215   6.305  14.844
46214W        W 5508  43.403  10.702   4.795
46215W        W 5509  16.156  14.175  11.054
46216W        W 5510  30.426  36.540  14.759
46217W        W 5511  32.014   2.408  10.916
46218W        W 5512  16.261  16.764  14.030
46219W        W 5513   6.394  28.672   4.787
46220W        W 5514  33.457  33.452  13.039
46221W        W 5515  30.120   5.796   0.890
46222W        W 5516   3.443  38.022  11.546
46223W        W 5517  26.020  34.527   2.416
46224W        W 5518   3.774   3.241   4.714
46225W        W 5519  16.737  42.890  12.011
46226W        W 5520  24.125  25.497   4.662
46227W        W 5521  11.181  11.145  12.534
46228W        W 5522   0.767  12.211  13.345
46229W        W 5523  35.889  15.796   3.353
46230W        W 5524  30.417  37.346  11.057
46231W        W 5525  34.586  44.303   3.694
46232W        W 5526   4.700  11.695   0.315
46233W        W 5527  28.462  26.047   2.808
46234W        W 5528  40.942   6.403   4.216
46235W        W 5529  13.301   4.720  14.336
46236W        W 5530  33.040  30.933  12.347
46237W        W 5531  29.009   6.849   4.114
46238W        W 5532  31.069  20.702  11.605
46239W        W 5533  29.099  15.206  13.542
46240W        W 5534   6.738   1.929   1.853
46241W        W 5535   6.684  33.051  11.380
46242W        W 5536  38.029  22.729   2.846
46243W        W 5537  17.174  18.593  11.900
46244W        W 5538  29.083   4.701   2.774
46245W        W 5539  12.651  10.712  12.948
46246W        W 5540  14.618  38.006   0.379
46247W        W 5541  43.443  18.717  12.401
46248W        W 5542   7.255  11.127   0.258
46249W        W 5543  13.286  14.761   9.625
46250W        W 5544  23.535  35.401  13.843
46251W        W 5545  37.368   2.944   3.730
46252W        W 5546  34.578   0.443   2.405
46253W        W 5547  22.999   5.422  14.344
46254W        W 5548  35.035  34.079   0.272
46255W        W 5549  12.291  38.369   2.334
46256W        W 5550  18.077  37.527   3.719
46257W        W 5551  16.633   5.214   1.830
46258W        W 5552  30.421  16.256   1.841
46259W        W 5553  11.271  23.575  11.378
46260W        W 5554   3.777  40.512   4.743
46261W        W 5555  34.558   2.469   3.655
46262W        W 5556  17.211  14.744  11.460
46263W        W 5557  30.969  22.651  13.033
46264W        W 5558  13.765  29.074  12.575
46265W        W 5559  28.174  43.859  14.400
46266W        W 5560  44.988   7.688   0.314
46267W        W 5561  19.703  29.085  13.380
46268W        W 5562  32.416  19.274  13.941
46269W        W 5563  20.534  14.336  13.458
46270W        W 5564  34.081  40.499  11.878
46271W        W 5565  42.005  38.495  10.499
46272W        W 5566  13.183  42.938   5.180
46273W        W 5567  43.002  14.225   0.394
46274W        W 5568  34.524  39.366   0.410
46275W        W 5569  15.681  30.052  10.907
46276W        W 5570   5.369  17.758   0.736
46277W        W 5571  42.941   6.807  14.371
46278W        W 5572  31.487  20.767  14.892
46279W        W 5573   0.908   4.418  10.604
46280W        W 5574  11.723  42.861   3.329
46281W        W 5575  35.396  27.966  13.400
46282W        W 5576  39.814  31.006   1.294
46283W        W 5577   9.173   0.482   0.892
46284W        W 5578  22.043  27.528   4.276
46285W        W 5579  32.538  20.689  10.970
46286W        W 5580  36.055   7.316   1.352
46287W        W 5581  32.422  39.427  14.761
46288W        W 5582   6.795   4.762  12.346
46289W        W 5583  35.454  28.671   0.741
46290W        W 5584  19.182  12.629   1.722
46291W        W 5585  30.980  19.211  10.486
46292W        W 5586   5.295  13.737  11.902
46293W        W 5587  35.600   0.337   0.418
46294W        W 5588  32.112  37.067   2.317
46295W        W 5589  12.810  38.343   2.272
46296W        W 5590  27.986  11.745   4.240
46297W        W 5591  29.087  22.187   2.305
46298W        W 5592  41.476  13.619   1.333
46299W        W 5593  18.615  28.024   2.260
46300W        W 5594  20.076  23.026  14.875
46301W        W 5595  11.284  24.007  13.545
46302W        W 5596  22.179  29.465  14.420
46303W        W 5597  25.078  39.519  14.794
46304W        W 5598  13.707  32.899   0.455
46305W        W 5599  30.975  15.268  13.325
46306W        W 5600  26.541   2.277  11.549
46307W        W 5601  20.749  11.757  10.481
46308W        W 5602  11.654   1.783   0.355
46309W        W 5603  17.129  22.028   2.343
46310W        W 5604   5.351  22.545  13.309
46311W        W 5605  31.138  22.536  13.313
46312W        W 5606  27.549  25.673  14.450
46313W        W 5607  34.371  33.948  13.522
46314W        W 5608  26.138   7.856  11.928
46315W        W 5609  37.012   6.764  14.842
46316W        W 5610  36.890  10.310   3.679
46317W        W 5611  39.943   5.847  12.561
46318W        W 5612  38.982  22.688   4.634
46319W        W 5613  21.609   3.304   3.284
46320W        W 5614  22.131  24.553  12.053
46321W        W 5615   8.205  35.042  13.313
46322W        W 5616  42.934  23.113  12.017
46323W        W 5617  43.440  13.274   1.724
46324W        W 5618  25.091  30.568  12.552
46325W        W 5619  14.664  44.986   0.468
46326W        W 5620  25.176  30.016  11.862
46327W        W 5621  15.176  18.254   3.261
46328W        W 5622  26.667   2.232   4.319
46329W        W 5623   1.323   9.169  14.867
46330W        W 5624  37.450  38.385   0.892
46331W        W 5625  21.045  18.709   4.186
46332W        W 5626  15.578  32.615  10.563
46333W        W 5627  36.481  35.387   1.384
46334W        W 5628  16.216   6.692  12.552
46335W        W 5629   7.882   8.365   4.801
46336W        W 5630   2.314  40.459  12.896
46337W        W 5631  37.401  31.078  10.982
46338W        W 5632  27.517  35.031  14.414
46339W        W 5633  42.523  23.111   2.734
46340W        W 5634  23.161  34.918  12.896
46341W        W 5635   1.839   2.344  11.412
46342W        W 5636  17.770   7.856   3.643
46343W        W 5637  21.112  30.656  14.388
46344W        W 5638  17.613  15.198   0.801
46345W        W 5639  44.939  12.635   4.230
46346W        W 5640  40.429  12.724  10.535
46347W        W 5641  39.536  36.963  12.881
46348W        W 5642  31.121  41.815  14.442
46349W        W 5643  23.061  44.866   1.268
46350W        W 5644  31.482   9.761  14.834
46351W        W 5645  38.051  15.178   1.358
46352W        W 5646  30.113  21.128   1.742
46353W        W 5647  39.857   6.207   4.185
46354W        W 5648   7.794  15.161   0.757
46355W        W 5649  27.038  17.130   4.265
46356W        W 5650  15.198  33.550  11.450
46357W        W 5651  33.561   4.255  13.967
46358W        W 5652  19.605  44.415   2.782
46359W        W 5653  24.608  12.766  11.564
46360W        W 5654  25.194   7.322   1.699
46361W        W 5655   3.431   7.287   0.459
46362W        W 5656  31.076  17.242   4.620
46363W        W 5657  28.505   9.249  12.836
46364W        W 5658  40.923  29.549   3.288
46365W        W 5659  10.826  17.086  13.848
46366W        W 5660  32.436   9.755   3.303
46367W        W 5661   0.286   1.295  14.465
46368W        W 5662  31.987  20.705   0.434
46369W        W 5663  17.711  20.082   3.184
46370W        W 5664   9.186  38.955  12.036
46371W        W 5665  32.940  15.197  12.563
46372W        W 5666   2.249  36.046   3.712
46373W        W 5667  11.817  23.001   1.250
46374W        W 5668  33.993   2.855  14.290
46375W        W 5669   0.867  13.782  10.937
46376W        W 5670  38.335  12.760  12.450
46377W        W 5671  17.220  10.791  13.994
46378W        W 5672  42.918  23.611  11.458
46379W        W 5673   0.394  43.934  14.310
46380W        W 5674  16.173   1.972  10.970
46381W        W 5675  42.895  11.369  10.968
46382W        W 5676  15.236   8.391   3.762
46383W        W 5677   8.880   4.909   0.393
46384W        W 5678  11.160  26.019   4.344
46385W        W 5679   5.886  26.658   4.642
46386W        W 5680   0.389  15.279  13.058
46387W        W 5681  35.911  30.036   4.650
46388W        W 5682   5.388  29.000  14.962
46389W        W 5683  17.671  21.555  13.464
46390W        W 5684  12.171  24.131  13.416
46391W        W 5685   8.657  34.032  12.875
46392W        W 5686  13.126   3.216  14.830
46393W        W 5687   9.359  23.040  14.908
46394W        W 5688  37.053  10.351   2.195
46395W        W 5689   0.986  19.119  12.967
46396W        W 5690   1.760   4.291   2.893
46397W        W 5691   0.278  20.085   3.341
46398W        W 5692  22.655  32.039   3.816
46399W        W 5693   1.466  12.327  13.972
46400W        W 5694  33.110  30.574  10.439
46401W        W 5695  37.993  27.462  12.359
46402W        W 5696  20.762   4.818   2.860
46403W        W 5697  40.479  28.508  13.398
46404W        W 5698  19.639  22.206   0.907
46405W        W 5699   4.708   5.250  13.441
46406W        W 5700   0.923  15.284  11.909
46407W        W 5701  27.114  19.207  14.365
46408W        W 5702  29.918  15.299   0.453
46409W        W 5703  16.318   2.808   2.338
46410W        W 5704  26.467  27.050  13.347
46411W        W 5705  17.146   9.660   1.380
46412W        W 5706  23.140  27.508   4.149
46413W        W 5707  37.963  19.054   2.791
46414W        W 5708  10.305  26.598  10.089
46415W        W 5709  17.784   9.312   4.664
46416W        W 5710  22.539   1.413  11.106
46417W        W 5711  32.902  31.976  11.904
46418W        W 5712   7.788  25.573  14.491
46419W        W 5713  16.154  15.670   1.301
46420W        W 5714  33.450   9.668   4.832
46421W        W 5715  44.820  37.023  14.453
46422W        W 5716  11.791   3.851  12.957
46423W        W 5717  16.603  40.504   4.129
46424W        W 5718  20.211  36.873  14.950
46425W        W 5719  44.294   1.886  14.318
46426W        W 5720   7.343  25.012   4.353
46427W        W 5721  38.569  30.149   1.282
46428W        W 5722  15.154  28.495   0.862
46429W        W 5723  22.246  32.910  14.491
46430W        W 5724   8.807  28.140   2.214
46431W        W 5725  32.098   5.794  12.840
46432W        W 5726  36.873   0.882  12.377
46433W        W 5727  30.164  36.008   4.271
46434W        W 5728  16.269  21.742   2.823
46435W        W 5729  10.654  37.411  12.550
46436W        W 5730  39.921  43.444   0.306
46437W        W 5731  20.093   7.367   1.721
46438W        W 5732   2.873   4.803   3.689
46439W        W 5733  20.526  14.602  10.939
46440W        W 5734  12.132  26.584  11.508
46441W        W 5735   5.208  14.325   2.778
46442W        W 5736  34.415  42.341   4.131
46443W        W 5737   6.718   8.674  12.089
46444W        W 5738   7.276   8.776   4.709
46445W        W 5739  21.142  14.275   0.274
46446W        W 5740   0.883  17.657   3.278
46447W        W 5741  19.775  11.676   5.088
46448W        W 5742  39.043   9.239   2.677
46449W        W 5743   0.818  23.664   2.255
46450W        W 5744  25.020  19.135  14.858
46451W        W 5745  21.530  15.814  12.412
46452W        W 5746   3.771   2.842   1.733
46453W        W 5747  18.176  37.390   3.283
46454W        W 5748  10.801  43.783  14.981
46455W        W 5749  18.609  38.472   0.836
46456W        W 5750  25.040   0.861  14.944
46457W        W 5751  31.957  16.625   3.305
46458W        W 5752  39.005   5.853  10.439
46459W        W 5753   5.202  37.033  12.490
46460W        W 5754  10.774  41.037   0.324
46461W        W 5755  19.165   3.361  14.808
46462W        W 5756  11.306   1.446  11.456
46463W        W 5757   3.325  28.129  14.915
46464W        W 5758  34.979  20.151  11.462
46465W        W 5759  28.066  37.350  13.022
46466W        W 5760  36.353   3.919  11.970
46467W        W 5761  33.004  20.115  11.985
46468W        W 5762  11.176  44.802   3.703
46469W        W 5763  13.295   2.759   1.802
46470W        W 5764  36.019  34.464  13.466
46471W        W 5765  25.575  14.775  14.794
46472W        W 5766  34.482  30.589   2.393
46473W        W 5767  18.559  24.037   1.270
46474W        W 5768  36.957  25.662   2.392
46475W        W 5769  41.037  20.081  14.856
46476W        W 5770  42.834   4.906  13.992
46477W        W 5771  36.423  32.511   3.344
46478W        W 5772  30.622  14.180   1.697
46479W        W 5773  21.513  20.044   3.714
46480W        W 5774  27.949  27.062  14.957
46481W        W 5775   5.260  13.621   3.833
46482W        W 5776  36.948  20.689  13.311
46483W        W 5777   2.722  33.975   0.880
46484W        W 5778  26.024  36.879   4.184
46485W        W 5779  25.648  13.817   0.754
46486W        W 5780  22.045  35.557  11.417
46487W        W 5781  10.855   5.770   4.262
46488W        W 5782  10.868   7.310   0.798
46489W        W 5783  18.546   7.388   1.431
46490W        W 5784   8.729  34.866  12.012
46491W        W 5785  32.552  10.364   2.192
46492W        W 5786  27.614  36.088  12.401
46493W        W 5787   5.382  39.026  10.472
46494W        W 5788  31.414  27.144   3.794
46495W        W 5789  30.510  25.525   2.341
46496W        W 5790  25.988  16.210  12.490
46497W        W 5791  11.317  39.865   1.318
46498W        W 5792  26.690  27.587  11.078
46499W        W 5793   4.326  37.034  11.890
46500W        W 5794  28.601  34.928  11.387
46501W        W 5795   8.188   1.733  13.838
46502W        W 5796   0.375  33.925   3.645
46503W        W 5797   0.757  11.259   2.222
46504W        W 5798  38.954  26.091  13.877
46505W        W 5799  17.083   4.250   2.723
46506W        W 5800  16.207  17.715   2.263
46507W        W 5801  31.453  22.067   3.796
46508W        W 5802  31.989   0.969   4.672
46509W        W 5803  19.206  22.557   2.851
46510W        W 5804   8.854  37.459   5.193
46511W        W 5805   6.853  39.385   4.758
46512W        W 5806  43.465  20.526   3.228
46513W        W 5807   4.337   6.206  11.380
46514W        W 5808  19.139  44.325  14.331
46515W        W 5809  33.023  27.983   0.402
46516W        W 5810  33.426   5.756  11.514
46517W        W 5811   7.781   5.256   0.477
46518W        W 5812  39.055  30.935   4.208
46519W        W 5813  25.180  23.066   1.756
46520W        W 5814  16.683  41.830  14.815
46521W        W 5815  30.985  29.632   0.266
46522W        W 5816  30.612  25.672   4.816
46523W        W 5817  10.227  20.171   1.415
46524W        W 5818  38.434  24.123   3.860
46525W        W 5819  20.530  37.353  11.590
46526W        W 5820  26.473  26.594   1.302
46527W        W 5821  40.352  13.685  13.037
46528W        W 5822  20.675  30.107  12.006
46529W        W 5823   7.299  35.402  13.431
46530W        W 5824   2.334  32.634  11.951
46531W        W 5825   2.931  29.132  13.396
46532W        W 5826  35.438   4.255  13.030
46533W        W 5827  25.487  25.007   2.732
46534W        W 5828  27.512  23.215   3.305
46535W        W 5829  36.452  31.034  11.047
46536W        W 5830  18.105  13.755   4.693
46537W        W 5831  20.073  27.941  12.496
46538W        W 5832  16.637  19.748   3.190
46539W        W 5833  29.051   0.374  12.407
46540W        W 5834  29.607   1.325  11.438
46541W        W 5835   4.802  25.120   4.238
46542W        W 5836  23.648  24.186   1.398
46543W        W 5837  25.145  26.500  13.433
46544W        W 5838   1.346  22.073   2.346
46545W        W 5839  40.439  18.278   4.622
46546W        W 5840  35.929  42.977   2.665
46547W        W 5841   5.266   6.256   1.829
46548W        W 5842  27.017  24.519   4.697
46549W        W 5843  31.141  38.059   0.927
46550W        W 5844   4.350   8.286  10.920
46551W        W 5845  13.289  41.296   4.255
46552W        W 5846  41.525  44.399  10.430
46553W        W 5847  27.014   8.380   3.771
46554W        W 5848  32.082  24.480   1.908
46555W        W 5849  15.304  40.827   1.821
46556W        W 5850   8.193  22.007   2.194
46557W        W 5851   4.212  38.833   0.807
46558W        W 5852  31.037   9.662  12.944
46559W        W 5853   1.878  30.558   3.798
46560W        W 5854  44.483  42.891   1.316
46561W        W 5855  10.154  11.647  13.498
46562W        W 5856  13.209   7.390   3.857
46563W        W 5857  35.040   8.698  13.799
46564W        W 5858  13.834  25.690  14.421
46565W        W 5859   0.838   1.887   5.215
46566W        W 5860   6.853  34.558   2.242
46567W        W 5861   6.681  17.793  11.004
46568W        W 5862  39.382   4.709   0.418
46569W        W 5863  44.808   5.356  11.528
46570W        W 5864  43.937  42.297  13.390
46571W        W 5865  25.119  39.467   2.316
46572W        W 5866  31.135  11.783   1.413
46573W        W 5867   0.372   3.848   2.781
46574W        W 5868  31.572  36.859   3.856
46575W        W 5869  36.440  11.188   1.342
46576W        W 5870  22.106  17.686  12.913
46577W        W 5871   4.761  34.451   2.238
46578W        W 5872   4.346  27.658   1.774
46579W        W 5873  33.963  25.694  13.332
46580W        W 5874  31.638   0.860   3.328
46581W        W 5875  39.504  33.459   4.222
46582W        W 5876  27.993  15.582  10.428
46583W        W 5877  27.618  39.895   3.369
46584W        W 5878   9.716  43.935   5.208
46585W        W 5879  39.481  20.151  14.962
46586W        W 5880  18.549  27.970  12.045
46587W        W 5881  16.143   1.280  12.044
46588W        W 5882   4.904  11.733   5.115
46589W        W 5883  26.623  32.088   4.688
46590W        W 5884  34.899  18.748   3.237
46591W        W 5885  20.705  44.331  13.400
46592W        W 5886  22.609  24.716   1.753
46593W        W 5887  19.043   7.688   0.392
46594W        W 5888   0.775  36.526  14.411
46595W        W 5889  12.815  22.130   4.353
46596W        W 5890  15.688   0.955   2.821
46597W        W 5891  23.620  30.575   2.812
46598W        W 5892  30.062  35.504  14.851
46599W        W 5893   5.832   9.701  13.378
46600W        W 5894   1.862  16.574  12.955
46601W        W 5895   3.770   9.715   3.332
46602W        W 5896  22.549  20.075   1.745
46603W        W 5897  22.202  40.958  14.296
46604W        W 5898  28.037  18.552   5.229
46605W        W 5899   6.794  27.086   2.203
46606W        W 5900  39.466  27.941   1.771
46607W        W 5901  31.590  44.856   4.666
46608W        W 5902  26.130  19.671  12.036
46609W        W 5903  34.010  19.715  12.362
46610W        W 5904  32.431  33.928   3.296
46611W        W 5905  23.058   8.816  14.430
46612W        W 5906  27.155   0.468   3.778
46613W        W 5907   6.209  15.233  10.407
46614W        W 5908  12.779  41.896   4.212
46615W        W 5909  26.566  12.235  11.871
46616W        W 5910  44.816  19.563   0.922
46617W        W 5911  23.083  14.589   0.271
46618W        W 5912   4.841  42.380  10.485
46619W        W 5913   7.689  20.263   0.417
46620W        W 5914  17.654  29.142  10.629
46621W        W 5915  33.566  33.893   3.163
46622W        W 5916  21.197   5.775  12.546
46623W        W 5917   3.791  37.921  14.281
46624W        W 5918  11.792   7.380   1.912
46625W        W 5919   0.395  39.361   1.387
46626W        W 5920  34.039  13.344  13.907
46627W        W 5921  21.676  33.127  12.979
46628W        W 5922  26.677  13.814   3.804
46629W        W 5923  38.339  36.963  10.995
46630W        W 5924  22.596  17.654  12.367
46631W        W 5925  21.696  30.055   1.370
46632W        W 5926   0.819  38.992   0.833
46633W        W 5927  11.263  17.723  13.320
46634W        W 5928  29.613  23.120  13.499
46635W        W 5929  35.977  28.622   2.404
46636W        W 5930  27.990  43.352  13.500
46637W        W 5931  13.659  16.086  13.477
46638W        W 5932  35.432  34.950   0.877
46639W        W 5933  16.803  39.054   3.818
46640W        W 5934  13.256  44.430  12.579
46641W        W 5935  34.413  28.014  11.523
46642W        W 5936  11.235  23.595   3.860
46643W        W 5937  40.470  27.607   2.283
46644W        W 5938  29.000  20.576   0.328
46645W        W 5939  19.076  36.032  10.492
46646W        W 5940  14.802  41.491   0.746
46647W        W 5941  41.473   0.429   1.319
46648W        W 5942  17.135   1.402  10.562
46649W        W 5943  26.644  26.668   4.728
46650W        W 5944  12.674  37.003  14.289
46651W        W 5945  31.402   9.655  11.546
46652W        W 5946   5.195   4.442  11.029
46653W        W 5947  43.455   0.823  12.947
46654W        W 5948   0.766  18.759  11.035
46655W        W 5949  26.146  16.589  14.323
46656W        W 5950  18.643   7.372  10.601
46657W        W 5951  27.644  24.226   0.403
46658W        W 5952  31.462  44.321  13.447
46659W        W 5953  23.068  22.735   1.398
46660W        W 5954  28.489  18.748  14.990
46661W        W 5955  27.969  19.547   1.291
46662W        W 5956  28.952  19.156   0.955
46663W        W 5957  14.306  34.498   1.440
46664W        W 5958  19.226  19.766  13.894
46665W        W 5959  14.793   4.740   3.350
46666W        W 5960  11.635  20.096  12.037
46667W        W 5961  42.884  22.635  14.805
46668W        W 5962  10.775  38.886   0.289
46669W        W 5963  21.063  33.058  11.581
46670W        W 5964  26.069  14.731  10.411
46671W        W 5965   2.238  12.193   3.844
46672W        W 5966  23.574  33.906   2.695
46673W        W 5967  22.139  14.145  11.553
46674W        W 5968  41.471  14.166   3.299
46675W        W 5969  22.688   4.428  13.501
46676W        W 5970  11.149  41.924   0.441
46677W        W 5971  10.778  13.194  10.618
46678W        W 5972   9.753  29.051   2.803
46679W        W 5973  11.182  36.429   3.335
46680W        W 5974   0.345  43.276  13.411
46681W        W 5975  43.276   2.752   9.951
46682W        W 5976  27.492   0.851   3.833
46683W        W 5977  12.805  38.863  12.373
46684W        W 5978  36.421  10.341   4.726
46685W        W 5979  23.736   6.416  11.523
46686W        W 5980   2.832   7.824   3.820
46687W        W 5981  40.051  13.290  13.806
46688W        W 5982  13.318  23.730   3.640
46689W        W 5983   5.908  35.956   2.304
46690W        W 5984  27.579  33.422  13.429
46691W        W 5985   4.237   6.862  13.443
46692W        W 5986  25.078  37.344  11.517
46693W        W 5987  24.112   8.719  12.467
46694W        W 5988  22.191  32.968  13.836
46695W        W 5989   9.316  13.749  10.972
46696W        W 5990  29.940  36.032  10.936
46697W        W 5991  41.791  21.688  14.309
46698W        W 5992  28.510  43.928  11.423
46699W        W 5993  26.508   8.228   4.735
46700W        W 5994  41.988  34.419  12.411
46701W        W 5995   3.943  19.703  13.983
46702W        W 5996  20.554  23.020   1.913
46703W        W 5997  32.948  28.612   4.754
46704W        W 5998  21.689  39.391  10.465
46705W        W 5999  23.158  29.439   3.247
46706W        W 6000  43.014  12.766   2.326
46707W        W 6001  27.951  36.007   5.116
46708W        W 6002  43.452  31.036   0.247
46709W        W 6003  35.947   3.426  12.025
46710W        W 6004  41.491  38.971   4.274
46711W        W 6005   2.256  13.811   2.772
46712W        W 6006  13.840  33.411  14.801
46713W        W 6007  33.467   6.391   1.807
46714W        W 6008  44.345   8.163  12.459
46715W        W 6009   2.454  40.925  13.861
46716W        W 6010  17.680  25.004   3.157
46717W        W 6011  27.979  33.893  14.905
46718W        W 6012  32.470  34.445  13.931
46719W        W 6013  38.452   4.831   0.915
46720W        W 6014  41.908  16.239   4.691
46721W        W 6015  37.074  23.599  11.092
46722W        W 6016  37.513  34.435  14.305
46723W        W 6017  44.444  44.009   1.294
46724W        W 6018  20.544  30.944   3.732
46725W        W 6019  25.973   2.381   3.867
46726W        W 6020  15.715  20.659   3.243
46727W        W 6021  18.718   5.405  12.397
46728W        W 6022   0.940   7.776   0.946
46729W        W 6023  34.981   6.213  11.521
46730W        W 6024  39.454  12.687   3.786
46731W        W 6025  42.311   6.190  14.862
46732W        W 6026  17.592  23.723   4.643
46733W        W 6027   7.763  42.811  12.497
46734W        W 6028  33.607   1.316   3.845
46735W        W 6029  34.955  38.044   1.830
46736W        W 6030   9.299  17.789  13.324
46737W        W 6031   6.906  35.382   4.327
46738W        W 6032  42.983  44.329   5.221
46739W        W 6033  27.112  40.355   4.225
46740W        W 6034  10.655  19.104  12.516
46741W        W 6035  28.123  31.021  12.492
46742W        W 6036  24.720  20.646   2.862
46743W        W 6037  35.938  13.816  12.051
46744W        W 6038   3.729  23.119  11.953
46745W        W 6039  41.794  15.163   3.236
46746W        W 6040  41.919  36.366  10.007
46747W        W 6041   8.696   9.758  12.895
46748W        W 6042  29.444   3.306   3.300
46749W        W 6043  33.523  10.232   2.272
46750W        W 6044  30.112  44.285   4.170
46751W        W 6045  37.442  27.451  11.014
46752W        W 6046  23.657  43.330  12.527
46753W        W 6047  29.643  19.115   2.695
46754W        W 6048  22.606   0.292   3.815
46755W        W 6049  20.036  29.655   1.787
46756W        W 6050   6.862  17.613  12.991
46757W        W 6051  20.769  11.834   2.898
46758W        W 6052   9.777   7.413   2.238
46759W        W 6053  30.518  15.603  11.095
46760W        W 6054  36.958  32.605   1.397
46761W        W 6055  15.185  37.580  13.802
46762W        W 6056   8.226   0.898   9.987
46763W        W 6057  33.447  20.250  14.765
46764W        W 6058   9.727  43.790   1.791
46765W        W 6059  34.991  19.744  13.428
46766W        W 6060  17.698  29.491  11.951
46767W        W 6061   2.739   7.239  14.384
46768W        W 6062  21.675  18.220   2.395
46769W        W 6063   1.920  24.190  13.888
46770W        W 6064  25.142   0.941   1.780
46771W        W 6065  15.620  35.459   3.673
46772W        W 6066  37.403   9.869   4.174
46773W        W 6067   4.729   9.742   0.325
46774W        W 6068  34.063  14.333   3.631
46775W        W 6069  27.070   4.759  13.509
46776W        W 6070   9.721  42.375   0.455
46777W        W 6071   8.704  43.010   1.763
46778W        W 6072  20.585  26.003  12.952
46779W        W 6073  21.126  40.460   5.240
46780W        W 6074  32.411  36.358   4.151
46781W        W 6075  13.167  28.018  13.825
46782W        W 6076   8.762  18.104  12.900
46783W        W 6077  26.651  15.130   4.638
46784W        W 6078  23.591   0.456  14.019
46785W        W 6079  30.630  35.571  14.284
46786W        W 6080  23.202  21.707   3.289
46787W        W 6081  16.780  29.630   3.735
46788W        W 6082  43.920  30.432   0.269
46789W        W 6083  13.177  30.116  14.792
46790W        W 6084  42.919  23.199   1.388
46791W        W 6085  23.733  33.930  13.356
46792W        W 6086  17.145  21.042   4.279
46793W        W 6087  18.627  18.658  14.502
46794W        W 6088   2.337  14.825   0.319
46795W        W 6089   6.196  43.425   2.726
46796W        W 6090  40.403   8.808   5.127
46797W        W 6091  35.539  33.460   2.378
46798W        W 6092  26.207  24.633   2.747
46799W        W 6093  36.901  40.359  11.872
46800W        W 6094  32.622  37.917   2.730
46801W        W 6095   2.775  20.550  14.482
46802W        W 6096  18.649  33.928  13.403
46803W        W 6097  19.693  25.118   2.740
46804W        W 6098  28.945   2.399  14.943
46805W        W 6099   5.327  12.769   2.756
46806W        W 6100  11.190  16.141   0.869
46807W        W 6101  37.045  29.649  10.562
46808W        W 6102  16.117   7.833  11.010
46809W        W 6103   2.883   1.409  11.087
46810W        W 6104   8.234  23.520   0.258
46811W        W 6105  13.628  22.129  13.548
46812W        W 6106  14.772  30.035  13.342
46813W        W 6107  38.893  14.119   3.332
46814W        W 6108  13.809  33.028  12.535
46815W        W 6109  43.945  39.376  11.010
46816W        W 6110  21.121  43.871  13.056
46817W        W 6111  41.314  39.487   2.879
46818W        W 6112  21.204  39.413  12.543
46819W        W 6113   3.754  10.647   4.215
46820W        W 6114  20.256  37.379   4.614
46821W        W 6115  22.037  42.900   2.756
46822W        W 6116  41.364  39.941  14.779
46823W        W 6117  41.397  12.184   1.313
46824W        W 6118   0.363  43.309   1.216
46825W        W 6119   5.784  13.695   4.695
46826W        W 6120  20.677  39.342   0.751
46827W        W 6121  22.105  31.965  14.483
46828W        W 6122   5.407  42.796  14.300
46829W        W 6123  38.942   1.808   3.747
46830W        W 6124  10.372  38.863  10.542
46831W        W 6125  43.787   9.338  11.399
46832W        W 6126  43.367  37.073  12.853
46833W        W 6127  27.551  42.518   1.367
46834W        W 6128  27.659  33.072   0.894
46835W        W 6129   8.183  40.797  13.841
46836W        W 6130   5.706   7.879   3.163
46837W        W 6131   8.765   7.675   1.375
46838W        W 6132  39.401  23.052   4.299
46839W        W 6133   6.235   8.308  14.448
46840W        W 6134  16.318  14.635   3.824
46841W        W 6135  34.060  38.057   3.255
46842W        W 6136  15.643  33.004   2.284
46843W        W 6137   5.756  38.040  11.943
46844W        W 6138   6.764  31.053  10.101
46845W        W 6139  18.139   8.785  11.566
46846W        W 6140  25.082  31.510  13.350
46847W        W 6141  39.944   7.875   3.175
46848W        W 6142  25.477   4.774   0.830
46849W        W 6143   6.792  38.341   0.480
46850W        W 6144  28.954  25.583  11.599
46851W        W 6145  18.201  32.088  11.570
46852W        W 6146  17.712  17.173   1.212
46853W        W 6147  17.789  39.439  13.879
46854W        W 6148  11.364   7.358  11.079
46855W        W 6149  35.104  14.649   0.958
46856W        W 6150  23.569  34.986  12.365
46857W        W 6151  33.908  37.514   3.199
46858W        W 6152  12.329  16.115   2.702
46859W        W 6153  34.932   3.774  12.431
46860W        W 6154   7.847  19.167   3.654
46861W        W 6155   1.378  10.709  14.018
46862W        W 6156   8.675  13.278  12.828
46863W        W 6157   9.808  14.223  11.590
46864W        W 6158   5.806  36.426   1.732
46865W        W 6159  21.063  32.453   1.921
46866W        W 6160   5.753   6.828  11.913
46867W        W 6161  11.135  41.402  13.540
46868W        W 6162  27.568  41.937   3.330
46869W        W 6163  28.602   3.838  11.972
46870W        W 6164  25.473   8.226  10.431
46871W        W 6165  32.082  44.362  12.933
46872W        W 6166  30.040  17.658  13.534
46873W        W 6167  37.445   9.750  14.330
46874W        W 6168  38.388  19.069  14.984
46875W        W 6169  16.232   7.767  14.381
46876W        W 6170  24.507   7.176  11.100
46877W        W 6171  43.805  13.801  10.952
46878W        W 6172  43.280  36.461   3.152
46879W        W 6173  43.514  37.923  13.003
46880W        W 6174  39.532   5.731   2.731
46881W        W 6175  36.035  42.863  13.345
46882W        W 6176   0.352  37.880   2.249
46883W        W 6177  32.116  23.215   4.715
46884W        W 6178   3.794  37.438   3.731
46885W        W 6179  43.369   2.249  14.810
46886W        W 6180  24.153  11.220  11.379
46887W        W 6181  17.745  17.154   4.661
46888W        W 6182   5.774  37.900  11.507
46889W        W 6183   5.766  12.295  10.427
46890W        W 6184  39.845   6.874   3.667
46891W        W 6185  39.924  26.597  11.564
46892W        W 6186  37.006   4.810  11.478
46893W        W 6187  41.481  33.965   2.302
46894W        W 6188  21.045  11.354  11.536
46895W        W 6189   5.737  31.981   1.266
46896W        W 6190  34.062  35.909   1.217
46897W        W 6191  19.590   2.853  10.996
46898W        W 6192  40.986  23.986  11.024
46899W        W 6193  23.527  19.118   1.859
46900W        W 6194   9.811  34.118  13.027
46901W        W 6195  31.118  40.493  14.402
46902W        W 6196  29.144  39.446   3.202
46903W        W 6197  35.956  40.886   3.319
46904W        W 6198  33.524  23.204   3.779
46905W        W 6199  12.131  26.036   1.284
46906W        W 6200   2.934  36.435   2.713
46907W        W 6201  40.872   0.894   0.285
46908W        W 6202  33.990  19.255   4.240
46909W        W 6203  31.452   4.843  10.964
46910W        W 6204   8.356   9.674   1.356
46911W        W 6205   1.358  37.390   1.241
46912W        W 6206  41.523  13.346  13.054
46913W        W 6207  16.599  20.753   0.430
46914W        W 6208   6.804  33.923  12.093
46915W        W 6209  16.232   8.802  10.610
46916W        W 6210  14.116  17.082   4.688
46917W        W 6211  10.704  29.464   1.702
46918W        W 6212  32.434  20.733  10.627
46919W        W 6213  29.524  42.365  12.029
46920W        W 6214  27.984  23.162   2.745
46921W        W 6215  43.282  24.129  11.452
46922W        W 6216  42.295  21.078  11.393
46923W        W 6217  39.433   7.176   1.876
46924W        W 6218  35.427  35.059  14.387
46925W        W 6219  13.297  41.794  14.314
46926W        W 6220  25.197  35.358   4.282
46927W        W 6221  40.398  10.859  14.960
46928W        W 6222   6.389  11.694   4.679
46929W        W 6223  19.667  24.133   4.661
46930W        W 6224  27.644  37.884  12.020
46931W        W 6225  19.173  30.431   0.821
46932W        W 6226  26.702  26.699   1.889
46933W        W 6227  31.587  18.062   1.396
46934W        W 6228  16.204  19.612  12.385
46935W        W 6229  41.941  25.077   2.189
46936W        W 6230  34.999   3.790   1.819
46937W        W 6231  29.082  39.466   3.717
46938W        W 6232  10.299  24.713   0.411
46939W        W 6233  39.541  32.124   0.247
46940W        W 6234  11.686  21.089  12.853
46941W        W 6235   7.705  13.839   2.859
46942W        W 6236  31.068  14.211   0.891
46943W        W 6237  27.621  10.217  12.860
46944W        W 6238   3.238   9.342   2.197
46945W        W 6239  23.598  26.563  13.425
46946W        W 6240   8.862   5.372   1.429
46947W        W 6241  10.872  11.748  14.956
46948W        W 6242  10.783  36.030   3.863
46949W        W 6243  23.603  24.141   4.228
46950W        W 6244  28.541   9.645   3.784
46951W        W 6245  12.135  19.693   1.772
46952W        W 6246  27.123   2.745  12.492
46953W        W 6247  22.609  39.468  11.904
46954W        W 6248  37.405  27.668  11.918
46955W        W 6249  31.983   4.221  14.410
46956W        W 6250   2.429  21.021  10.922
46957W        W 6251   2.876  12.610  13.058
46958W        W 6252  26.499  32.503   1.792
46959W        W 6253  18.106  11.144   0.388
46960W        W 6254   5.858  13.796   2.234
46961W        W 6255  38.925  12.727  12.561
46962W        W 6256  29.604  40.028   1.830
46963W        W 6257  44.767  21.201   2.404
46964W        W 6258  16.162  40.023   5.198
46965W        W 6259  18.720  15.156   3.385
46966W        W 6260  36.898  14.689   2.340
46967W        W 6261  20.206  37.900  14.336
46968W        W 6262   0.468  21.690   0.913
46969W        W 6263   2.904   1.405  14.512
46970W        W 6264  26.656  20.089  12.917
46971W        W 6265  23.512  14.146   0.380
46972W        W 6266  24.646  41.005   4.751
46973W        W 6267  32.133  44.784   3.299
46974W        W 6268   4.904  30.611  10.642
46975W        W 6269  36.479  34.494   3.345
46976W        W 6270  20.196  28.680  10.998
46977W        W 6271  20.757  34.920  13.471
46978W        W 6272  39.902  42.492   2.338
46979W        W 6273  33.122  41.522   2.745
46980W        W 6274  38.492   9.848   1.416
46981W        W 6275  41.807  14.307  13.485
46982W        W 6276  26.512  25.495   3.307
46983W        W 6277  41.793  36.431   1.281
46984W        W 6278  19.609  26.082  13.025
46985W        W 6279  24.002  37.987  12.982
46986W        W 6280   5.246  10.154  12.861
46987W        W 6281   4.752  44.829   1.419
46988W        W 6282  20.173  14.197   9.932
46989W        W 6283  19.652  37.424  10.145
46990W        W 6284  26.007  44.772   1.917
46991W        W 6285  28.667   9.243  14.947
46992W        W 6286  19.535  11.703  12.012
46993W        W 6287  41.344   5.818  10.462
46994W        W 6288   7.848  23.598  12.343
46995W        W 6289   6.305  21.537   3.662
46996W        W 6290  25.061  33.563   2.404
46997W        W 6291  14.644  33.537   1.846
46998W        W 6292  21.077   5.416   3.316
46999W        W 6293  14.722  18.580   2.246
47000W        W 6294  33.962  36.029  14.895
47001W        W 6295  44.869   7.275  14.788
47002W        W 6296  29.998  25.990   0.315
47003W        W 6297  23.037  33.478  14.461
47004W        W 6298   4.744  28.646   2.239
47005W        W 6299  27.990  36.867   0.878
47006W        W 6300   2.299  22.537  11.506
47007W        W 6301  20.706  17.181   2.192
47008W        W 6302   6.391  31.462   1.337
47009W        W 6303   6.363   9.333   4.245
47010W        W 6304  30.983  39.560  12.966
47011W        W 6305  35.098  16.271   3.338
47012W        W 6306  22.502   7.823  11.948
47013W        W 6307  43.008  22.071   1.398
47014W        W 6308  38.885  27.961  12.871
47015W        W 6309  27.657  19.690   3.823
47016W        W 6310  16.673  27.499   4.181
47017W        W 6311  17.700  44.461  12.017
47018W        W 6312  24.085   2.356  11.384
47019W        W 6313  27.686   5.773   1.847
47020W        W 6314  31.407  37.556   0.252
47021W        W 6315   6.291  12.331  13.504
47022W        W 6316  32.930   3.736  10.537
47023W        W 6317  17.084  14.291  12.561
47024W        W 6318   3.449  39.023  11.022
47025W        W 6319  42.449  21.658  14.378
47026W        W 6320  23.991  36.039  11.511
47027W        W 6321  15.300  39.993  12.447
47028W        W 6322  16.681  39.363   1.370
47029W        W 6323  21.541  41.877  13.387
47030W        W 6324  38.881  29.172   2.250
47031W        W 6325  19.549  41.893  13.400
47032W        W 6326  18.256  38.526   4.655
47033W        W 6327  26.594  19.051  11.097
47034W        W 6328  44.835  14.183  12.898
47035W        W 6329  43.827  30.566  13.037
47036W        W 6330   1.460   6.776  11.969
47037W        W 6331  38.831   3.792   3.650
47038W        W 6332  20.183  20.609   2.675
47039W        W 6333  39.991  29.642  12.040
47040W        W 6334   7.308  23.238  12.986
47041W        W 6335  25.503   2.847  12.973
47042W        W 6336  18.052  17.789   4.778
47043W        W 6337   6.356  43.458   1.259
47044W        W 6338  16.803  34.603  14.880
47045W        W 6339  43.012  15.692   1.411
47046W        W 6340  12.663  28.146   2.840
47047W        W 6341  15.766  22.226   3.381
47048W        W 6342  32.086  26.983  12.971
47049W        W 6343  41.825  11.131  12.402
47050W        W 6344  14.242  22.718  12.855
47051W        W 6345  35.903  18.754  13.945
47052W        W 6346  24.075  23.699  14.028
47053W        W 6347  15.130  29.528   0.420
47054W        W 6348  40.411  16.697   4.135
47055W        W 6349  31.465   0.938  12.932
47056W        W 6350  22.713  35.062  11.916
47057W        W 6351  43.974   2.824   4.209
47058W        W 6352  42.806  16.304  13.388
47059W        W 6353  40.944  23.125  12.530
47060W        W 6354  22.058  43.953   2.890
47061W        W 6355  32.544  42.487   4.757
47062W        W 6356  33.018  35.952  14.290
47063W        W 6357  11.797  19.223   2.823
47064W        W 6358   2.292   2.336   3.379
47065W        W 6359  35.102  20.742  14.481
47066W        W 6360  18.632  20.117   0.405
47067W        W 6361  21.069  13.327  14.462
47068W        W 6362  35.939   3.377   3.333
47069W        W 6363  23.546  39.559   4.301
47070W        W 6364  44.849   6.217  12.557
47071W        W 6365   5.281  22.054   0.460
47072W        W 6366  30.117  44.930   2.854
47073W        W 6367  38.829  42.311   1.404
47074W        W 6368  37.840  22.690  12.491
47075W        W 6369   2.799   6.408  14.881
47076W        W 6370  18.166  14.220  10.987
47077W        W 6371  42.935  40.382   2.239
47078W        W 6372  23.079  43.386  10.594
47079W        W 6373  10.828  35.077   1.864
47080W        W 6374  44.342  17.233  12.904
47081W        W 6375  30.164  22.665  14.828
47082W        W 6376  27.973  41.042   4.610
47083W        W 6377  41.481  38.501  11.476
47084W        W 6378   4.760  40.035  12.079
47085W        W 6379  28.461  17.749  11.915
47086W        W 6380  37.056  11.702   3.372
47087W        W 6381  29.969  39.418   2.845
47088W        W 6382  28.557  14.170   1.811
47089W        W 6383  27.503   9.280  14.324
47090W        W 6384  24.002  13.121   5.258
47091W        W 6385  40.048  10.245  14.835
47092W        W 6386  23.704   5.771  14.893
47093W        W 6387  39.845  43.930  14.020
47094W        W 6388  13.273  24.150  13.983
47095W        W 6389  34.898  32.602  11.868
47096W        W 6390  24.667  25.132   3.737
47097W        W 6391  41.510   6.332  13.846
47098W        W 6392  42.909  32.456   0.921
47099W        W 6393   0.903   7.844  12.362
47100W        W 6394   7.301  26.016  14.321
47101W        W 6395  32.552   5.766   3.755
47102W        W 6396  38.944  32.915  12.087
47103W        W 6397  31.903  22.127   0.409
47104W        W 6398  32.029  31.024   2.880
47105W        W 6399  35.480  10.352   2.898
47106W        W 6400   1.954  24.225  14.379
47107W        W 6401  37.398   5.376   2.825
47108W        W 6402  32.891  15.248  13.507
47109W        W 6403  10.310  21.687  13.411
47110W        W 6404  10.364   3.775   4.206
47111W        W 6405  30.965  17.102   3.204
47112W        W 6406  20.587  39.024  12.061
47113W        W 6407  23.141  10.252  14.380
47114W        W 6408  28.680   2.282   3.866
47115W        W 6409  12.209  23.656  10.928
47116W        W 6410  21.675  20.745   0.779
47117W        W 6411  28.077  32.415   3.384
47118W        W 6412   1.467  34.558   1.251
47119W        W 6413  28.145  15.177  10.888
47120W        W 6414   7.248  14.111  11.533
47121W        W 6415   2.284  38.881  12.368
47122W        W 6416  21.166  27.686   4.326
47123W        W 6417  26.615   2.725  12.839
47124W        W 6418  41.965   4.398   4.354
47125W        W 6419   9.886  13.660  10.625
47126W        W 6420  38.382  20.591  10.465
47127W        W 6421  32.092  40.917   0.733
47128W        W 6422   4.733   1.368  10.493
47129W        W 6423   5.759  16.738  14.418
47130W        W 6424  40.320  25.598  12.977
47131W        W 6425  41.972  42.344   0.805
47132W        W 6426  17.728  16.139  10.905
47133W        W 6427   2.260  28.602  12.422
47134W        W 6428   0.988  40.917   4.205
47135W        W 6429  43.306  33.430  14.948
47136W        W 6430  23.036  23.134  14.962
47137W        W 6431  20.275  38.495   2.299
47138W        W 6432  16.253  10.361  10.945
47139W        W 6433  28.092  34.942  11.028
47140W        W 6434  17.305   7.784  12.519
47141W        W 6435   6.775  40.872  10.902
47142W        W 6436  40.506  39.022   2.341
47143W        W 6437  14.626  16.231  12.575
47144W        W 6438   4.895   3.361   4.654
47145W        W 6439  21.629  37.563  14.760
47146W        W 6440  40.945  44.433  12.521
47147W        W 6441  12.618  18.694   1.225
47148W        W 6442  32.886  19.264  12.415
47149W        W 6443   4.425  26.078  12.414
47150W        W 6444  40.492   0.451  11.005
47151W        W 6445  19.603  22.638  10.620
47152W        W 6446  13.620  18.728   0.841
47153W        W 6447  25.187  22.642  10.951
47154W        W 6448  21.607  44.338   4.635
47155W        W 6449  20.768   6.774   3.654
47156W        W 6450   3.351  21.560  13.399
47157W        W 6451  38.421  10.274  14.805
47158W        W 6452  20.672  17.634  11.882
47159W        W 6453  19.088  40.970  14.907
47160W        W 6454  26.653  25.120  14.946
47161W        W 6455  27.147  22.063  12.837
47162W        W 6456  31.428  30.089   1.712
47163W        W 6457  18.178  11.817   2.714
47164W        W 6458  42.342  11.364  12.428
47165W        W 6459  43.505  11.714  14.787
47166W        W 6460  33.504  24.501   9.981
47167W        W 6461  35.467  16.633  11.100
47168W        W 6462  31.508  17.078   4.796
47169W        W 6463  23.023   9.748   2.674
47170W        W 6464   5.346  34.885   4.292
47171W        W 6465  43.378  42.498   1.787
47172W        W 6466  25.077  28.147  12.908
47173W        W 6467   8.268  12.121  12.438
47174W        W 6468  33.459  41.366  14.307
47175W        W 6469  26.954   5.726  11.092
47176W        W 6470   4.809  34.485  13.350
47177W        W 6471   3.949  29.554   3.203
47178W        W 6472  27.582  18.288  14.441
47179W        W 6473   3.341   1.472  12.998
47180W        W 6474  23.231  34.060   0.419
47181W        W 6475  20.650  31.113   1.398
47182W        W 6476   4.403   4.879  12.522
47183W        W 6477  42.912  23.672   1.224
47184W        W 6478  27.652  15.679   4.294
47185W        W 6479  28.547  33.586  12.942
47186W        W 6480  37.907   0.779   3.820
47187W        W 6481   2.291   6.200  11.384
47188W        W 6482   0.433  35.964   1.368
47189W        W 6483  42.477   5.890  11.568
47190W        W 6484  22.034  16.641   0.737
47191W        W 6485  22.175  37.942   0.334
47192W        W 6486  29.082  25.151  14.808
47193W        W 6487  29.634  22.502  12.430
47194W        W 6488   4.852  37.357   3.275
47195W        W 6489  21.135  31.120  14.802
47196W        W 6490  34.895  10.651   2.287
47197W        W 6491  28.499  39.977   0.467
47198W        W 6492  17.153  25.631   3.168
47199W        W 6493   7.229  40.815  14.006
47200W        W 6494  33.521  12.741  14.480
47201W        W 6495   1.754  16.775  12.547
47202W        W 6496   6.743  14.679  10.508
47203W        W 6497  11.839   9.659  12.410
47204W        W 6498  14.300  32.073   0.938
47205W        W 6499  12.286  19.210   0.319
47206W        W 6500   1.262   4.865  14.399
47207W        W 6501  36.505  18.579  14.939
47208W        W 6502  17.760  36.996  13.878
47209W        W 6503  11.162  16.096   3.278
47210W        W 6504  13.337  22.165   5.708
47211W        W 6505  12.784  40.513   3.178
47212W        W 6506  32.623  38.453  10.549
47213W        W 6507  15.227  41.972  14.877
47214W        W 6508  25.213   1.789  14.411
47215W        W 6509   1.846   5.824   4.174
47216W        W 6510  23.189  28.466   1.323
47217W        W 6511  35.872  31.512   1.717
47218W        W 6512  38.941  20.737  10.064
47219W        W 6513  19.206  23.657   4.750
47220W        W 6514  11.703  18.763   0.951
47221W        W 6515   5.232  30.064  12.563
47222W        W 6516  28.541  35.016  12.841
47223W        W 6517  21.164  28.931  10.522
47224W        W 6518  38.505   4.407   3.634
47225W        W 6519  28.476  21.206  12.017
47226W        W 6520  21.695   5.761  12.847
47227W        W 6521  40.313  42.285  13.869
47228W        W 6522  28.134  21.738   4.163
47229W        W 6523  19.190  44.471   4.796
47230W        W 6524  32.095  12.755   0.967
47231W        W 6525  25.475  44.941  10.629
47232W        W 6526  18.701  31.920  14.975
47233W        W 6527  21.206  29.985   1.339
47234W        W 6528  17.783  23.604   0.392
47235W        W 6529  20.533  14.212   2.815
47236W        W 6530  40.000  32.936  12.444
47237W        W 6531  31.111  34.561   2.181
47238W        W 6532  25.077   6.768  12.536
47239W        W 6533  32.919   1.891  13.856
47240W        W 6534  13.288  41.465  12.462
47241W        W 6535  18.238  10.680   2.260
47242W        W 6536   4.736  33.511   4.182
47243W        W 6537  18.071  43.944  11.392
47244W        W 6538  34.031  37.862  14.419
47245W        W 6539  41.944  11.842  12.069
47246W        W 6540   9.835  22.200  10.573
47247W        W 6541  25.115  39.861  10.586
47248W        W 6542   8.217  29.530   5.136
47249W        W 6543  42.499  16.187   0.811
47250W        W 6544   4.796  39.362   2.833
47251W        W 6545  31.414  29.051  14.014
47252W        W 6546  42.291   3.278   2.232
47253W        W 6547  15.604  33.380  11.126
47254W        W 6548  37.876   8.214  10.414
47255W        W 6549  23.568  17.076   2.331
47256W        W 6550  14.167  38.953  11.432
47257W        W 6551  36.883  40.937  12.091
47258W        W 6552  14.141  38.036  11.462
47259W        W 6553  26.700  35.545   2.670
47260W        W 6554   8.831  23.568  12.911
47261W        W 6555  16.102  44.928   3.160
47262W        W 6556  44.382  30.123  11.474
47263W        W 6557   0.915  22.179  13.906
47264W        W 6558  23.170   8.161   0.447
47265W        W 6559   1.310  44.343   2.867
47266W        W 6560  18.070  42.283   0.809
47267W        W 6561  24.034  42.022   0.946
47268W        W 6562  24.636  15.235   1.274
47269W        W 6563  28.591  17.660   1.347
47270W        W 6564  20.747  28.121  11.456
47271W        W 6565  24.533  38.941  10.561
47272W        W 6566  20.118  23.533  11.436
47273W        W 6567  14.798  37.856  11.914
47274W        W 6568  12.170  26.600   3.328
47275W        W 6569  19.558  13.246  13.009
47276W        W 6570  22.219  38.975  11.103
47277W        W 6571  12.720  21.166  14.027
47278W        W 6572  29.966  19.734   2.820
47279W        W 6573  43.930  37.380   4.734
47280W        W 6574  32.985   1.420  11.579
47281W        W 6575  29.016  21.582   1.309
47282W        W 6576  14.328  44.408  12.986
47283W        W 6577  27.947  27.681   3.765
47284W        W 6578  12.230   1.351  14.374
47285W        W 6579  40.371  26.670   0.736
47286W        W 6580  10.205  33.030  13.337
47287W        W 6581  17.577  10.728   2.284
47288W        W 6582   7.220   6.229   1.392
47289W        W 6583   9.260  24.048  12.393
47290W        W 6584   6.818  30.974  12.443
47291W        W 6585  16.588   0.397  10.445
47292W        W 6586  39.372  25.147  14.808
47293W        W 6587  34.526  16.616  13.039
47294W        W 6588  20.228  21.526   2.846
47295W        W 6589  39.372  16.103  11.979
47296W        W 6590  19.073  40.482  10.900
47297W        W 6591   1.885   3.741  10.479
47298W        W 6592  41.455   0.809  14.348
47299W        W 6593  28.981  22.537   4.193
47300W        W 6594   9.788  39.029   1.397
47301W        W 6595   3.952  44.947   3.292
47302W        W 6596   5.219  18.295   9.920
47303W        W 6597  35.443  27.042   4.129
47304W        W 6598  31.426  20.196  12.356
47305W        W 6599   0.802  23.189  11.039
47306W        W 6600   2.412  32.428  12.579
47307W        W 6601  19.172  11.649   4.165
47308W        W 6602   4.896  19.571  14.865
47309W        W 6603  37.067  37.043   0.731
47310W        W 6604  28.640  43.478  10.484
47311W        W 6605  27.534   2.959  11.450
47312W        W 6606  43.869   4.720  14.848
47313W        W 6607   4.868  19.256  10.930
47314W        W 6608   4.702   5.708   4.647
47315W        W 6609  44.261  26.021   4.329
47316W        W 6610   2.755   4.247   0.247
47317W        W 6611   4.723  35.012   9.929
47318W        W 6612  35.939  24.016  14.982
47319W        W 6613   9.703   1.334  14.481
47320W        W 6614  40.930   0.330   0.320
47321W        W 6615   7.726   3.806  13.042
47322W        W 6616  35.042  13.122  11.568
47323W        W 6617  23.541  17.639  14.856
47324W        W 6618  13.215  31.503   4.701
47325W        W 6619  38.523  42.879   2.244
47326W        W 6620   6.856   2.401   1.919
47327W        W 6621  43.309  42.830   2.681
47328W        W 6622  35.074  35.376   3.647
47329W        W 6623  20.592  21.519   2.692
47330W        W 6624   8.177   4.366   3.231
47331W        W 6625  13.255  28.539   4.259
47332W        W 6626  31.468   6.320  12.916
47333W        W 6627  38.843  33.606   3.316
47334W        W 6628  32.595  33.499   4.824
47335W        W 6629  20.708  33.068  11.382
47336W        W 6630  43.381   7.908  12.840
47337W        W 6631  27.511  22.150  14.336
47338W        W 6632  43.309  37.042   0.822
47339W        W 6633  12.246   3.358  12.363
47340W        W 6634   9.169  29.170  11.575
47341W        W 6635   0.366  11.156   0.941
47342W        W 6636   1.258   8.261   4.800
47343W        W 6637  28.048  11.837   3.367
47344W        W 6638  27.145  20.214  14.842
47345W        W 6639  35.893  14.199  13.828
47346W        W 6640  40.388  10.702  10.542
47347W        W 6641   9.340  37.428   2.714
47348W        W 6642   2.348  43.000  14.766
47349W        W 6643  40.348  32.964  14.485
47350W        W 6644  18.235  26.008  10.928
47351W        W 6645  24.722  13.116   9.978
47352W        W 6646  37.426  26.172  12.941
47353W        W 6647   7.691   1.768  10.600
47354W        W 6648   7.269   8.174   2.402
47355W        W 6649   3.904   9.803   1.771
47356W        W 6650   5.397  17.626   9.518
47357W        W 6651  10.327   0.325   3.214
47358W        W 6652  43.355  36.364   1.211
47359W        W 6653  26.671  32.596  14.319
47360W        W 6654   7.253  15.613  14.806
47361W        W 6655  11.351  37.865   4.228
47362W        W 6656  21.100  43.839   0.964
47363W        W 6657  16.717   3.281   3.832
47364W        W 6658  37.891  38.074   5.219
47365W        W 6659  29.494  39.987   2.325
47366W        W 6660   5.772  13.348   3.639
47367W        W 6661  13.317   2.344  10.410
47368W        W 6662   5.759   9.692   4.146
47369W        W 6663   0.948  30.565  14.894
47370W        W 6664  25.476  42.852   3.800
47371W        W 6665  33.597  19.711  13.386
47372W        W 6666  38.884  15.662   4.135
47373W        W 6667  15.631  13.277   9.953
47374W        W 6668  19.268   0.777  14.308
47375W        W 6669  28.554  10.286   0.259
47376W        W 6670  32.574   2.856  11.456
47377W        W 6671  37.481  18.575   0.942
47378W        W 6672  24.103  31.454  14.514
47379W        W 6673   2.757  14.269   1.918
47380W        W 6674  31.013   0.261   4.320
47381W        W 6675  21.530   3.436  14.850
47382W        W 6676  34.021  10.838   3.381
47383W        W 6677  26.023  22.166  13.438
47384W        W 6678  35.974  19.246  12.030
47385W        W 6679  17.293  39.950  12.846
47386W        W 6680   5.263  39.809  13.973
47387W        W 6681  19.276   2.758  14.437
47388W        W 6682  26.995  26.098   1.714
47389W        W 6683  13.770  37.943  10.906
47390W        W 6684   4.444  34.964   4.292
47391W        W 6685  20.750  22.033  14.993
47392W        W 6686   5.707  21.715   1.255
47393W        W 6687  12.671  36.504   3.651
47394W        W 6688  24.490   7.725   3.192
47395W        W 6689  22.701  20.718  11.089
47396W        W 6690  38.831   1.927   5.107
47397W        W 6691  44.881  19.685  11.509
47398W        W 6692  14.318  21.669  13.453
47399W        W 6693  19.608   7.744   3.682
47400W        W 6694  36.366   5.304  14.437
47401W        W 6695  36.859   5.710   5.619
47402W        W 6696  43.866   2.389   4.680
47403W        W 6697  40.489  10.260  11.511
47404W        W 6698  20.156  14.325  13.966
47405W        W 6699  30.142  44.284  11.926
47406W        W 6700   9.251  10.316   3.306
47407W        W 6701  30.486  20.623  13.989
47408W        W 6702  10.337   0.870  10.889
47409W        W 6703  27.103  35.490  11.585
47410W        W 6704  31.533  41.029  14.778
47411W        W 6705  16.783   4.395   4.297
47412W        W 6706  28.468  28.579   0.482
47413W        W 6707  17.623   4.406  13.500
47414W        W 6708  27.687  44.776   1.805
47415W        W 6709  18.695  31.433   1.886
47416W        W 6710  17.122  39.504   1.774
47417W        W 6711   5.313   5.372   0.284
47418W        W 6712  18.707  16.644   1.813
47419W        W 6713  32.102  36.095   0.302
47420W        W 6714  11.197  34.973  10.933
47421W        W 6715  25.170  44.408  14.983
47422W        W 6716  18.269  29.474  14.994
47423W        W 6717  42.904   1.294   2.762
47424W        W 6718  16.737   8.304  11.541
47425W        W 6719  12.178  37.000   2.768
47426W        W 6720   6.298   0.262  12.410
47427W        W 6721  19.745  14.261  14.767
47428W        W 6722  26.495  19.566  10.155
47429W        W 6723  19.673  22.611   2.331
47430W        W 6724   3.722  29.497   1.807
47431W        W 6725   6.251   6.886   2.865
47432W        W 6726  28.580  28.184   4.797
47433W        W 6727   8.280  10.148   3.209
47434W        W 6728  31.019  15.757   3.750
47435W        W 6729  20.708  26.207  10.955
47436W        W 6730   6.356  37.434  11.923
47437W        W 6731   1.942  30.045   0.726
47438W        W 6732  36.579  17.228   0.855
47439W        W 6733  18.278  33.928  12.502
47440W        W 6734  42.005  11.839   4.777
47441W        W 6735   2.456  23.612  13.028
47442W        W 6736  37.532  22.646  13.346
47443W        W 6737  20.631   1.409  13.983
47444W        W 6738  31.064   8.775   2.317
47445W        W 6739   4.796  14.223   2.312
47446W        W 6740  26.007   2.869  10.522
47447W        W 6741  11.350  11.638  11.950
47448W        W 6742  33.619  41.799   1.253
47449W        W 6743  41.826   0.301  11.932
47450W        W 6744   3.721  30.482  13.937
47451W        W 6745  24.018  28.103  14.509
47452W        W 6746   8.767  42.526  12.438
47453W        W 6747  10.822  30.982   2.758
47454W        W 6748  13.113   8.238   0.859
47455W        W 6749  25.566  19.072   4.707
47456W        W 6750  38.952  44.761   9.995
47457W        W 6751  44.876   2.795   2.354
47458W        W 6752  44.825  37.387   1.798
47459W        W 6753  35.998  39.526  10.960
47460W        W 6754  16.287  28.645   1.809
47461W        W 6755  18.157  32.024  13.813
47462W        W 6756  28.939   0.383   0.287
47463W        W 6757  16.735  21.536   3.356
47464W        W 6758  23.707  16.800  11.041
47465W        W 6759  16.226   5.329   1.773
47466W        W 6760   2.723  44.886  14.855
47467W        W 6761  24.718  32.968  14.281
47468W        W 6762  21.127  42.356   4.631
47469W        W 6763  44.480   0.308  14.896
47470W        W 6764  31.984   0.313  10.627
47471W        W 6765  31.050   5.329  13.006
47472W        W 6766  10.785   3.392  13.003
47473W        W 6767  11.679  24.132  11.462
47474W        W 6768  16.151  18.604  11.416
47475W        W 6769  30.917  11.156  11.372
47476W        W 6770  38.848   5.366  10.936
47477W        W 6771  42.507   1.732  13.912
47478W        W 6772  28.979   4.902  14.823
47479W        W 6773  14.266  41.851  11.414
47480W        W 6774  20.245  33.971  14.007
47481W        W 6775  43.310  12.713   1.213
47482W        W 6776  34.094  30.003   0.838
47483W        W 6777  12.279  33.937  13.808
47484W        W 6778   4.702  12.796  10.419
47485W        W 6779  43.509  39.378  14.786
47486W        W 6780  35.892  27.604  14.336
47487W        W 6781  33.384   7.751  11.944
47488W        W 6782   0.444   7.688   0.913
47489W        W 6783  25.644  14.138  11.060
47490W        W 6784   3.745   8.871  14.324
47491W        W 6785  24.620  15.708  11.920
47492W        W 6786  38.379  30.105  11.932
47493W        W 6787  40.927  41.455  13.862
47494W        W 6788   2.770  31.426   1.380
47495W        W 6789  44.329  33.959   1.317
47496W        W 6790  41.849  37.535   4.147
47497W        W 6791  31.098   6.819   2.319
47498W        W 6792  30.017   2.956   4.242
47499W        W 6793  33.017  19.105   1.748
47500W        W 6794  30.001  18.296  13.797
47501W        W 6795  10.647  18.650  13.400
47502W        W 6796  32.580  36.412  13.913
47503W        W 6797  34.460  11.147  14.303
47504W        W 6798  34.973  15.258   0.959
47505W        W 6799  29.954   5.359  13.418
47506W        W 6800  12.647  36.369  11.486
47507W        W 6801  27.057   7.332   0.335
47508W        W 6802  33.116  12.241  14.394
47509W        W 6803   1.296  38.063   1.909
47510W        W 6804  18.198  13.248  10.051
47511W        W 6805  16.723  41.304  12.556
47512W        W 6806   6.744  21.205  12.942
47513W        W 6807  32.547  20.230   2.691
47514W        W 6808  33.059  38.374   0.838
47515W        W 6809  10.373  39.060  13.394
47516W        W 6810  25.065  33.074  12.509
47517W        W 6811  10.799  16.607   3.275
47518W        W 6812  34.056  19.212   2.893
47519W        W 6813  22.559  35.092   4.726
47520W        W 6814  32.927  28.502  12.535
47521W        W 6815  23.574   7.266  11.923
47522W        W 6816  39.441  18.652  14.782
47523W        W 6817  23.209  33.028  14.445
47524W        W 6818  29.970  30.964   2.185
47525W        W 6819  39.332  10.331   5.246
47526W        W 6820  14.590  21.223   2.376
47527W        W 6821  36.555  39.938  10.938
47528W        W 6822   1.238  36.964   2.397
47529W        W 6823  22.996  19.239  14.986
47530W        W 6824   9.858  28.549  11.579
47531W        W 6825   6.922  41.382  14.768
47532W        W 6826  20.728  34.973   1.863
47533W        W 6827  27.467  44.959   0.740
47534W        W 6828   0.854  18.767  10.419
47535W        W 6829  17.258   4.351  14.357
47536W        W 6830   8.282  11.862  14.785
47537W        W 6831  39.903  30.052  14.880
47538W        W 6832  18.694  19.263   2.214
47539W        W 6833  27.531   2.778  11.943
47540W        W 6834  40.862  38.899  13.797
47541W        W 6835  22.691   3.460  14.450
47542W        W 6836  22.598  23.084  13.360
47543W        W 6837  29.024  28.445  14.924
47544W        W 6838  11.669  20.737   0.332
47545W        W 6839  25.677  14.726  11.895
47546W        W 6840  32.142  37.415   5.278
47547W        W 6841  44.766  31.115  13.030
47548W        W 6842  37.066  36.517   0.934
47549W        W 6843  35.994  26.993  14.312
47550W        W 6844  31.041  26.538   2.796
47551W        W 6845  37.965  15.583  10.576
47552W        W 6846  26.009  29.618   1.895
47553W        W 6847  42.409  24.143   0.478
47554W        W 6848  42.422  10.704   1.359
47555W        W 6849  27.474  18.750  11.906
47556W        W 6850  38.464  21.561  13.491
47557W        W 6851   3.793   6.217  14.505
47558W        W 6852   4.258  43.283  14.960
47559W        W 6853   9.853  17.615  14.299
47560W        W 6854   5.779  35.535   1.281
47561W        W 6855  12.130   4.357  12.865
47562W        W 6856  16.219  24.705  12.927
47563W        W 6857  21.649  17.629   3.182
47564W        W 6858   0.750  41.466   9.936
47565W        W 6859   0.491  22.028   0.818
47566W        W 6860  11.257  40.034  13.797
47567W        W 6861  15.087   6.231   0.335
47568W        W 6862  31.969  27.517  14.451
47569W        W 6863  33.402   1.798  14.316
47570W        W 6864  35.045  26.702   3.714
47571W        W 6865   0.383  36.087   3.301
47572W        W 6866  31.055   5.786   3.163
47573W        W 6867  27.472   8.754   1.904
47574W        W 6868  23.134   4.842  14.806
47575W        W 6869   8.809   1.336  13.364
47576W        W 6870  29.154  28.557   4.188
47577W        W 6871  22.109  23.201  11.090
47578W        W 6872  10.296  39.978  11.435
47579W        W 6873  44.397   4.245  13.892
47580W        W 6874  20.072  41.796  13.386
47581W        W 6875  12.702  30.072   2.837
47582W        W 6876  16.107  32.395  12.882
47583W        W 6877  12.258  17.662  11.378
47584W        W 6878  30.488   0.781   4.818
47585W        W 6879  25.009  37.888  13.054
47586W        W 6880   4.412   4.446   2.838
47587W        W 6881  38.071  41.398   3.678
47588W        W 6882   6.253  33.520   2.810
47589W        W 6883  18.133  27.678   1.924
47590W        W 6884  18.555  13.118   2.808
47591W        W 6885  10.211  19.216  12.468
47592W        W 6886  13.751  41.834   0.406
47593W        W 6887  22.127  10.320   4.726
47594W        W 6888  40.505   0.917  13.499
47595W        W 6889  35.375  34.375   5.249
47596W        W 6890  28.943  43.000   1.694
47597W        W 6891  11.354   2.764   2.702
47598W        W 6892   1.379  21.584  14.470
47599W        W 6893   8.178  25.078   4.236
47600W        W 6894  23.705  39.349  13.403
47601W        W 6895   8.301  10.874   0.838
47602W        W 6896   6.887   7.237   0.862
47603W        W 6897   8.755   0.304  13.451
47604W        W 6898   0.430   9.160   4.260
47605W        W 6899  30.024  30.561   0.251
47606W        W 6900  11.144  13.754  12.434
47607W        W 6901   5.866  44.267   3.253
47608W        W 6902  29.468  11.223   4.643
47609W        W 6903  37.491  27.154  13.515
47610W        W 6904  27.016  38.899  14.007
47611W        W 6905  26.204  16.683   4.153
47612W        W 6906  18.149   0.823   2.370
47613W        W 6907  18.090  23.538   4.178
47614W        W 6908  12.349   5.793   4.763
47615W        W 6909  27.993  30.092  11.387
47616W        W 6910  19.668  32.104  11.599
47617W        W 6911  39.537  23.093  14.338
47618W        W 6912  38.902  12.668  10.459
47619W        W 6913  10.825   4.816   0.279
47620W        W 6914  24.497  25.179  10.409
47621W        W 6915  42.984  33.043  13.337
47622W        W 6916  17.712  21.168   9.986
47623W        W 6917  28.676  37.504  10.572
47624W        W 6918  24.208  30.551   2.894
47625W        W 6919  43.491  43.950   5.145
47626W        W 6920  21.115   6.832   1.354
47627W        W 6921  39.490   0.381   0.277
47628W        W 6922  17.669   3.942  10.404
47629W        W 6923   4.751  22.719   2.773
47630W        W 6924  33.102  17.677  12.502
47631W        W 6925  17.745  17.122   1.835
47632W        W 6926  34.421  40.475   4.811
47633W        W 6927  41.443   7.716  12.566
47634W        W 6928  21.154  43.376   1.423
47635W        W 6929  29.520  20.187   3.218
47636W        W 6930   2.783  29.606   3.317
47637W        W 6931  28.473   5.256  11.568
47638W        W 6932  11.752  28.959   3.790
47639W        W 6933  21.047  27.670  14.861
47640W        W 6934   0.795  30.011   1.215
47641W        W 6935  18.110  16.569   1.838
47642W        W 6936  37.477  23.539   4.660
47643W        W 6937   8.197  28.503   5.302
47644W        W 6938  18.573   6.206  11.929
47645W        W 6939  37.501  24.605   1.217
47646W        W 6940  39.365   6.731   4.714
47647W        W 6941  34.899  43.480  12.954
47648W        W 6942   5.752  12.833  14.393
47649W        W 6943  39.475  21.089  10.481
47650W        W 6944   1.294  26.187   2.710
47651W        W 6945  28.995  40.365  13.512
47652W        W 6946  16.670  16.177  11.055
47653W        W 6947  27.471   1.779   0.345
47654W        W 6948  21.214  21.718  11.872
47655W        W 6949  24.638  37.881  13.516
47656W        W 6950  28.574  20.105  12.021
47657W        W 6951  20.688  22.090  10.604
47658W        W 6952  29.021  32.090  10.571
47659W        W 6953   0.301  39.535  12.829
47660W        W 6954   9.778  25.636   1.400
47661W        W 6955  24.678  42.424   0.875
47662W        W 6956   1.351  12.286   4.291
47663W        W 6957  16.729  44.800   1.725
47664W        W 6958   6.896  23.060   1.696
47665W        W 6959  44.432  19.571   4.813
47666W        W 6960  18.053  39.896   2.191
47667W        W 6961   6.869  12.224  14.384
47668W        W 6962  27.087  21.179  13.055
47669W        W 6963  18.120  28.595   4.749
47670W        W 6964  18.614   7.296  12.924
47671W        W 6965  16.625  37.514  14.975
47672W        W 6966  31.549  38.865   2.312
47673W        W 6967   3.891  44.891  10.533
47674W        W 6968   2.293  13.739  14.359
47675W        W 6969   8.326   7.195   1.391
47676W        W 6970  11.756   8.195  13.851
47677W        W 6971   7.807  18.131  13.383
47678W        W 6972   3.846  39.329  11.889
47679W        W 6973  11.745  11.836   1.363
47680W        W 6974  16.276  31.068   1.811
47681W        W 6975  22.650  31.575  13.012
47682W        W 6976  35.402  33.605  14.499
47683W        W 6977  24.665  12.856   4.128
47684W        W 6978  15.602  39.430   1.279
47685W        W 6979  24.680  38.009   2.762
47686W        W 6980  40.875  14.297   0.951
47687W        W 6981   2.316   1.928  12.850
47688W        W 6982  37.420  36.049   4.718
47689W        W 6983  41.882  22.096   4.787
47690W        W 6984  38.034  28.055  12.533
47691W        W 6985   5.196  40.483   4.293
47692W        W 6986  34.435  38.369   1.361
47693W        W 6987  14.234   6.201  10.909
47694W        W 6988  37.369   5.874   4.800
47695W        W 6989  17.735   5.772   4.628
47696W        W 6990  33.385  42.810  14.507
47697W        W 6991  30.033  15.584  11.436
47698W        W 6992  13.795  15.697  14.398
47699W        W 6993  23.136  11.197   2.368
47700W        W 6994  29.066  15.123   1.266
47701W        W 6995  29.503   9.752  14.316
47702W        W 6996  40.380  23.602  13.876
47703W        W 6997  13.616  21.127   1.705
47704W        W 6998   1.902  30.132  13.847
47705W        W 6999  29.488  35.464  11.123
47706W        W 7000  15.597  30.596  11.511
47707W        W 7001  14.811  37.570   4.661
47708W        W 7002  24.973  31.545   1.427
47709W        W 7003   0.415  39.061  10.505
47710W        W 7004   6.853  15.769  12.576
47711W        W 7005  37.911   5.318  14.025
47712W        W 7006   4.940   9.809  11.605
47713W        W 7007  23.128  26.663  11.041
47714W        W 7008  14.210   9.690  12.919
47715W        W 7009  29.016  19.547   3.720
47716W        W 7010  44.005  25.035   2.415
47717W        W 7011  10.339  12.305   3.721
47718W        W 7012  27.522  18.566   1.695
47719W        W 7013  42.433  20.702  12.526
47720W        W 7014  43.834   4.275  11.447
47721W        W 7015  27.549  37.074  12.470
47722W        W 7016  26.679  15.643  14.300
47723W        W 7017  41.362   2.296  12.525
47724W        W 7018  23.232  32.997  11.029
47725W        W 7019   6.739  11.342  12.938
47726W        W 7020  37.458  40.387  10.919
47727W        W 7021  28.133  13.215   2.257
47728W        W 7022  21.126   5.878   3.782
47729W        W 7023   4.388  30.937  12.053
47730W        W 7024  21.245   2.236  10.426
47731W        W 7025  34.449  40.433  11.487
47732W        W 7026  12.614  36.592  11.036
47733W        W 7027  44.340   1.448   2.900
47734W        W 7028  37.581  14.623  11.952
47735W        W 7029   7.794  33.101   2.201
47736W        W 7030  12.348  34.585   4.173
47737W        W 7031  28.156  40.371   0.921
47738W        W 7032   4.828  25.711   1.830
47739W        W 7033  30.605  25.561  10.949
47740W        W 7034   0.296  28.564   4.650
47741W        W 7035  10.215  32.084  12.002
47742W        W 7036  18.712  25.544  12.022
47743W        W 7037  12.155   0.930  10.452
47744W        W 7038  29.554  36.959   1.423
47745W        W 7039  13.831  26.080   0.388
47746W        W 7040   3.796  30.959  10.998
47747W        W 7041  44.809  23.590  12.902
47748W        W 7042  31.936  24.214  12.086
47749W        W 7043  26.598  23.989   4.114
47750W        W 7044  37.861  30.559  12.546
47751W        W 7045  18.620   6.843   2.315
47752W        W 7046  16.268  10.646  11.121
47753W        W 7047  42.419  10.855   2.801
47754W        W 7048  44.891   4.331  11.486
47755W        W 7049  16.658   6.391  10.980
47756W        W 7050  12.805  11.635  14.443
47757W        W 7051   5.430  36.981  13.822
47758W        W 7052  18.207  34.034  14.833
47759W        W 7053  42.872   0.916  13.035
47760W        W 7054  43.845  15.594  14.783
47761W        W 7055   7.867  16.246   1.410
47762W        W 7056   0.295  24.200   2.752
47763W        W 7057   9.235  44.406   4.709
47764W        W 7058  29.155   0.824   4.239
47765W        W 7059  27.452  22.037   2.671
47766W        W 7060  18.601  39.544  11.470
47767W        W 7061  16.156  22.611  13.545
47768W        W 7062   9.298  38.952   2.183
47769W        W 7063  30.041  19.686  13.489
47770W        W 7064  35.363   9.659   1.269
47771W        W 7065  36.080  18.095   0.806
47772W        W 7066  18.141  28.959  14.493
47773W        W 7067  34.588  11.727   0.266
47774W        W 7068  42.857   5.934   0.937
47775W        W 7069  42.942  11.144   0.322
47776W        W 7070   7.345   5.697  11.416
47777W        W 7071  42.323  38.850  12.501
47778W        W 7072  14.749  13.741   3.193
47779W        W 7073  35.476  33.440  11.443
47780W        W 7074  28.060  40.853  10.625
47781W        W 7075   8.818   4.417  11.986
47782W        W 7076  19.545   8.168  12.536
47783W        W 7077  44.358  30.154   3.386
47784W        W 7078  32.974  26.970   0.739
47785W        W 7079   2.290  13.659   3.213
47786W        W 7080  19.615  11.723  13.422
47787W        W 7081  30.498   4.771   2.844
47788W        W 7082  22.101  39.888   3.170
47789W        W 7083  32.983   5.848  12.373
47790W        W 7084   5.702  44.486  12.990
47791W        W 7085  21.743  40.537  10.536
47792W        W 7086  44.287  16.221  13.997
47793W        W 7087  17.227  19.748   4.296
47794W        W 7088  31.914  29.029   1.363
47795W        W 7089  26.165  18.570  14.298
47796W        W 7090  20.275  35.434  12.078
47797W        W 7091  42.512  36.901  11.476
47798W        W 7092  33.941   3.949  13.469
47799W        W 7093  36.429  15.240   1.868
47800W        W 7094  31.466  27.547  12.432
47801W        W 7095  22.681   5.280  12.557
47802W        W 7096   7.819  39.376  12.576
47803W        W 7097  18.618   5.426   4.348
47804W        W 7098   0.368  22.515   4.757
47805W        W 7099  13.104  12.269  14.418
47806W        W 7100  37.842  37.079   2.317
47807W        W 7101  39.550  21.751  14.893
47808W        W 7102  11.182  41.815  10.614
47809W        W 7103  25.992  31.528   2.369
47810W        W 7104  30.020   3.827  12.013
47811W        W 7105  19.273  25.153  10.505
47812W        W 7106  31.449  19.727   2.700
47813W        W 7107  43.865  13.839  14.973
47814W        W 7108  37.380  37.377   1.385
47815W        W 7109  12.845  19.734   3.653
47816W        W 7110  38.047   8.840  13.325
47817W        W 7111  20.557   4.814   1.225
47818W        W 7112  24.707  23.734  12.037
47819W        W 7113  20.627  40.442   0.836
47820W        W 7114  42.408   5.917   0.466
47821W        W 7115  13.208  27.666   2.751
47822W        W 7116  20.578  32.902  14.296
47823W        W 7117   8.386  42.380  12.894
47824W        W 7118  29.171  19.732   3.186
47825W        W 7119   1.310  32.625  13.939
47826W        W 7120  44.996   4.241  12.828
47827W        W 7121   1.407   4.375  11.116
47828W        W 7122  29.118  28.619   4.833
47829W        W 7123  39.830  35.960  12.074
47830W        W 7124   8.766  11.321   2.281
47831W        W 7125  37.871  27.176   4.175
47832W        W 7126   8.782   3.924   3.684
47833W        W 7127   0.937  12.804   2.757
47834W        W 7128  30.984  13.208   1.816
47835W        W 7129   8.236  20.235   1.317
47836W        W 7130   1.276  43.433  11.384
47837W        W 7131  15.579   3.846   2.692
47838W        W 7132  21.019   3.444   2.301
47839W        W 7133  32.585  43.974   4.337
47840W        W 7134  12.812  24.089  10.442
47841W        W 7135   2.921  13.703  11.880
47842W        W 7136  33.557   8.821   2.686
47843W        W 7137   7.405  22.173  13.974
47844W        W 7138  40.995  10.858   4.678
47845W        W 7139  27.455  18.736   4.201
47846W        W 7140  38.952   1.379  14.456
47847W        W 7141  33.969  24.143  14.030
47848W        W 7142   4.779  22.598   0.865
47849W        W 7143  35.480  41.449  10.991
47850W        W 7144   3.423  43.866  13.887
47851W        W 7145  10.306   9.771  14.313
47852W        W 7146  42.454  15.302  11.495
47853W        W 7147  32.523  15.247   1.263
47854W        W 7148  18.693  30.035   2.259
47855W        W 7149  13.656   1.432  11.908
47856W        W 7150  36.361  14.769  12.385
47857W        W 7151  20.709  30.555  10.446
47858W        W 7152  31.103  18.196   0.776
47859W        W 7153  38.981  36.058  14.276
47860W        W 7154  35.860   5.341  12.454
47861W        W 7155  43.451  38.531  14.490
47862W        W 7156  40.424   9.238  10.901
47863W        W 7157  33.981  14.738   0.813
47864W        W 7158  22.603  39.018  11.578
47865W        W 7159  21.542  25.668   4.785
47866W        W 7160  14.126  22.109  11.463
47867W        W 7161  28.491   8.287  12.025
47868W        W 7162  42.469  17.213  10.560
47869W        W 7163  26.530  21.041  12.342
47870W        W 7164   4.370  16.243  11.015
47871W        W 7165   1.418  29.103  13.981
47872W        W 7166  39.559  21.137   4.830
47873W        W 7167  13.768   2.257   1.359
47874W        W 7168   4.443  13.288  11.474
47875W        W 7169   2.951  22.746   5.262
47876W        W 7170  31.959  20.083  11.869
47877W        W 7171   3.932  34.559  13.890
47878W        W 7172  36.434  36.489   1.844
47879W        W 7173   6.274  39.373  13.375
47880W        W 7174  40.982  31.906   1.311
47881W        W 7175  27.104  13.114   3.322
47882W        W 7176  21.655   2.367   3.774
47883W        W 7177  30.160   0.836   3.348
47884W        W 7178  39.424  27.157  14.479
47885W        W 7179  11.181  15.809   2.338
47886W        W 7180  24.148  33.560  13.461
47887W        W 7181  44.450   0.437   0.248
47888W        W 7182  14.109  23.632  10.454
47889W        W 7183  44.264  24.024   2.757
47890W        W 7184  25.144   3.931  12.469
47891W        W 7185  18.228   4.899  13.841
47892W        W 7186  17.100  41.370   4.758
47893W        W 7187  13.813   7.869  14.797
47894W        W 7188  37.975  28.544   0.885
47895W        W 7189  21.257  21.740  10.959
47896W        W 7190  15.190  27.609   1.326
47897W        W 7191  12.220   9.151   1.890
47898W        W 7192  19.635  21.061   1.832
47899W        W 7193  31.084  28.183  10.034
47900W        W 7194  15.164   0.913  13.499
47901W        W 7195  33.101  44.982   1.848
47902W        W 7196  31.513  17.128   0.813
47903W        W 7197  35.556  17.074  11.050
47904W        W 7198  33.878  18.697  11.537
47905W        W 7199   2.433   7.876  14.383
47906W        W 7200  12.611   2.916  13.862
47907W        W 7201  32.103  35.868   4.247
47908W        W 7202  37.922  22.121   2.378
47909W        W 7203  22.148  38.396  14.792
47910W        W 7204  35.596  38.571   3.341
47911W        W 7205   5.385  28.615  14.424
47912W        W 7206  41.374  21.064  14.422
47913W        W 7207  39.011  12.755  10.910
47914W        W 7208   6.714  14.302   0.967
47915W        W 7209  34.518  33.549  12.996
47916W        W 7210   9.325  36.007   3.377
47917W        W 7211  35.458  34.926  14.027
47918W        W 7212  20.084  37.924   1.842
47919W        W 7213   0.440   1.832  10.983
47920W        W 7214   0.441   2.391   0.764
47921W        W 7215  16.759  10.747  10.473
47922W        W 7216   3.261  22.060  12.861
47923W        W 7217  20.653  24.618   1.698
47924W        W 7218   9.732  11.651  12.831
47925W        W 7219  36.064   8.160   2.414
47926W        W 7220   9.307  20.200  10.918
47927W        W 7221  26.619  32.055  10.543
47928W        W 7222   7.714  35.913  11.895
47929W        W 7223  19.231  13.717  10.508
47930W        W 7224  40.881  27.614   3.750
47931W        W 7225  36.073   3.738  12.578
47932W        W 7226  39.315  30.110   0.967
47933W        W 7227   0.745  37.465  10.134
47934W        W 7228  14.601  26.458   1.804
47935W        W 7229   9.717  10.735  11.381
47936W        W 7230  12.639  40.343  10.530
47937W        W 7231  11.630  30.542   1.241
47938W        W 7232  36.938  31.615   4.626
47939W        W 7233  12.275  17.302   2.830
47940W        W 7234  22.608  13.123  10.890
47941W        W 7235   6.712  19.252  12.855
47942W        W 7236  15.635  41.330   4.263
47943W        W 7237  25.991  41.347   4.207
47944W        W 7238  15.755  12.742  14.002
47945W        W 7239  38.515  24.490  11.905
47946W        W 7240  15.277  16.093   9.674
47947W        W 7241  38.522  26.991   1.275
47948W        W 7242  17.694  25.994   3.746
47949W        W 7243   7.720  32.515   4.166
47950W        W 7244  23.540  26.565   4.272
47951W        W 7245  29.960  24.711   0.836
47952W        W 7246  22.744  36.466  13.017
47953W        W 7247  24.122   4.307  11.094
47954W        W 7248  17.724  12.693   3.814
47955W        W 7249   1.771  25.707   4.307
47956W        W 7250  13.649  13.666   2.679
47957W        W 7251   9.715  42.787   0.311
47958W        W 7252  33.030  23.701   4.807
47959W        W 7253  18.569  12.625  11.943
47960W        W 7254  16.189  37.337   0.813
47961W        W 7255   6.338  28.633  10.526
47962W        W 7256   4.892  44.285  13.899
47963W        W 7257  27.188  11.153   1.294
47964W        W 7258  29.005  22.039   0.462
47965W        W 7259  17.161  20.751  11.387
47966W        W 7260  29.599  43.466   5.173
47967W        W 7261  26.622  37.358   2.260
47968W        W 7262   5.418  21.182   2.413
47969W        W 7263  20.737   6.684  11.906
47970W        W 7264  34.376  29.060   1.280
47971W        W 7265   0.970  41.000   3.260
47972W        W 7266  19.130  14.750   9.562
47973W        W 7267  14.281  19.136  10.904
47974W        W 7268   3.734  41.511   4.193
47975W        W 7269  23.069   7.696   4.702
47976W        W 7270  18.692   4.302  14.421
47977W        W 7271   0.867  27.998  12.865
47978W        W 7272   7.736   7.392  14.432
47979W        W 7273  15.771  43.342   2.313
47980W        W 7274   2.766  24.122  14.392
47981W        W 7275  15.224   3.247   1.770
47982W        W 7276  25.582   1.439  12.906
47983W        W 7277  10.722  34.883  14.006
47984W        W 7278  31.532  29.171  12.916
47985W        W 7279  23.079   1.855  12.539
47986W        W 7280  18.181  27.049   1.824
47987W        W 7281  44.953  28.665   4.306
47988W        W 7282  18.551   3.310   3.161
47989W        W 7283  28.476  21.241  14.308
47990W        W 7284  13.846  29.024   0.421
47991W        W 7285  32.887  15.745   3.759
47992W        W 7286  39.923   2.381   2.827
47993W        W 7287  44.281   9.352  12.428
47994W        W 7288  15.180  26.127   4.673
47995W        W 7289  31.908  19.112  12.032
47996W        W 7290  11.151  43.976   4.164
47997W        W 7291  33.558   1.374   2.281
47998W        W 7292  29.569  21.741  12.943
47999W        W 7293  41.415  18.155   2.672
48000W        W 7294  37.047  32.510   4.139
48001W        W 7295  12.644   7.734  13.336
48002W        W 7296  28.076  23.133  13.484
48003W        W 7297  41.478  38.512  10.934
48004W        W 7298  31.125   5.787   0.378
48005W        W 7299   8.766  26.592   4.218
48006W        W 7300   9.848   0.484   2.797
48007W        W 7301  37.408   7.695   5.312
48008W        W 7302  42.980   1.270  12.899
48009W        W 7303  41.349   5.688   1.321
48010W        W 7304  23.018  29.082  14.975
48011W        W 7305   7.881  18.569   0.831
48012W        W 7306   2.938   2.364   5.112
48013W        W 7307   7.189  29.584  14.311
48014W        W 7308  34.512  15.125   4.259
48015W        W 7309   1.905   8.340  11.515
48016W        W 7310  35.453   2.824  13.818
48017W        W 7311  22.214  16.749  10.962
48018W        W 7312   2.752  26.456   2.253
48019W        W 7313  33.449   8.202  12.096
48020W        W 7314  24.616  37.507   1.705
48021W        W 7315  33.539  37.987   3.716
48022W        W 7316  35.853  44.353   3.236
48023W        W 7317  19.596  18.169   0.941
48024W        W 7318  27.110   9.224  11.037
48025W        W 7319  25.180  24.678   2.411
48026W        W 7320   0.759  17.738   2.743
48027W        W 7321  22.665  24.990  10.542
48028W        W 7322  17.789  29.436  12.463
48029W        W 7323  40.340  12.122   0.815
48030W        W 7324  40.500  13.652  14.927
48031W        W 7325  38.076  37.447   0.268
48032W        W 7326  33.434  11.842   4.168
48033W        W 7327  26.477   8.286   5.100
48034W        W 7328  12.827  10.870  14.982
48035W        W 7329  26.007  25.584   1.441
48036W        W 7330  20.712  36.518   2.903
48037W        W 7331  36.086  26.101   4.609
48038W        W 7332  26.004  17.606  13.058
48039W        W 7333  43.502  38.477  11.879
48040W        W 7334  41.325  24.078   0.255
48041W        W 7335  36.094  30.514   1.734
48042W        W 7336  44.368   9.323   3.635
48043W        W 7337  31.456   1.483  12.916
48044W        W 7338  17.594  38.948  10.988
48045W        W 7339   8.285   8.854   4.324
48046W        W 7340   4.376  17.714   2.886
48047W        W 7341  22.044  11.621  14.886
48048W        W 7342  36.444  44.995  11.055
48049W        W 7343  10.766   7.836  12.357
48050W        W 7344  20.145   3.270   0.802
48051W        W 7345  24.159  44.935   0.473
48052W        W 7346  36.887  42.351  10.517
48053W        W 7347   1.939  42.857   3.659
48054W        W 7348  19.116  39.027   0.443
48055W        W 7349  15.203  38.074   1.249
48056W        W 7350   5.769  37.542   0.879
48057W        W 7351  13.633  29.604  13.387
48058W        W 7352  17.198  10.317   2.384
48059W        W 7353  17.704  13.311  10.961
48060W        W 7354  19.687  13.347  12.485
48061W        W 7355  29.003   5.715   3.173
48062W        W 7356  33.619  37.430  14.440
48063W        W 7357  10.665  12.696   3.834
48064W        W 7358  24.137  39.931  12.567
48065W        W 7359  14.145  34.425  11.916
48066W        W 7360  25.040  24.188   4.676
48067W        W 7361  35.998  37.846   4.308
48068W        W 7362  36.049  28.987   1.901
48069W        W 7363  16.122  36.876  11.881
48070W        W 7364  35.904  37.396  13.057
48071W        W 7365  44.375  17.128   1.379
48072W        W 7366  42.404  41.386  13.972
48073W        W 7367   9.767  35.366   1.246
48074W        W 7368  37.023  17.157   0.822
48075W        W 7369   3.223  34.580  13.064
48076W        W 7370  19.173  29.934   3.292
48077W        W 7371   5.933  38.394  12.377
48078W        W 7372  41.362  23.710  14.299
48079W        W 7373  11.662  29.986   1.700
48080W        W 7374  13.155  35.955  13.048
48081W        W 7375  13.121  30.428   0.397
48082W        W 7376   5.421  40.342  10.918
48083W        W 7377  13.734  36.004   4.215
48084W        W 7378  43.850  21.727   1.794
48085W        W 7379  18.749  34.377   4.226
48086W        W 7380  35.394   5.382  14.861
48087W        W 7381  33.421   0.814  14.956
48088W        W 7382  27.069   9.204   2.223
48089W        W 7383  42.900  43.328  12.371
48090W        W 7384  32.112   9.692   2.336
48091W        W 7385  36.576  43.850  13.044
48092W        W 7386  23.171   6.382   5.096
48093W        W 7387  23.638  38.960   0.297
48094W        W 7388  44.426  36.526   2.802
48095W        W 7389  31.491  17.293  10.999
48096W        W 7390  38.456  24.071  10.919
48097W        W 7391   2.284  19.705   5.107
48098W        W 7392   3.373   8.880   3.189
48099W        W 7393  11.808   6.217  11.885
48100W        W 7394  26.660  36.379  13.830
48101W        W 7395   3.351  12.769   4.691
48102W        W 7396  37.831  38.823  13.004
48103W        W 7397  22.685  28.961  12.383
48104W        W 7398  33.562  44.837  12.468
48105W        W 7399  21.547  14.150  10.468
48106W        W 7400  28.036  42.019  12.030
48107W        W 7401  43.511  32.491   0.387
48108W        W 7402  10.733   7.362  12.062
48109W        W 7403  28.147  12.301  13.344
48110W        W 7404  38.470  20.220   3.743
48111W        W 7405  38.474  24.041   2.316
48112W        W 7406  24.999  39.366  10.993
48113W        W 7407  42.978  19.633  11.075
48114W        W 7408  10.756  20.719  14.481
48115W        W 7409  41.330  29.521  12.926
48116W        W 7410  36.367  35.865   4.696
48117W        W 7411  22.516  15.704   3.374
48118W        W 7412  21.590  16.090  12.442
48119W        W 7413  15.660   4.846  13.838
48120W        W 7414  39.556  23.707  13.401
48121W        W 7415  12.269  35.875   2.740
48122W        W 7416   0.397  17.635   2.864
48123W        W 7417  30.934  23.558   4.643
48124W        W 7418  24.096   6.916  11.603
48125W        W 7419  19.677  20.215   0.286
48126W        W 7420   0.377  27.546   2.199
48127W        W 7421  38.360   1.842  14.482
48128W        W 7422  29.077   2.446   3.164
48129W        W 7423  36.976  39.345   3.648
48130W        W 7424  37.546  31.494   3.777
48131W        W 7425  44.406  31.466   1.375
48132W        W 7426  26.468  34.035  10.977
48133W        W 7427   4.373  29.048   3.148
48134W        W 7428  30.944  35.072   2.328
48135W        W 7429  27.189  42.813  12.016
48136W        W 7430  28.588  27.657   2.220
48137W        W 7431  26.659  14.589  14.937
48138W        W 7432  13.307   4.770   0.744
48139W        W 7433  25.557  29.664  14.338
48140W        W 7434  43.408  17.715  13.942
48141W        W 7435  12.816  17.682   3.197
48142W        W 7436  32.436  42.027   0.386
48143W        W 7437  19.097   9.331  12.518
48144W        W 7438  10.784  27.496  14.770
48145W        W 7439  24.088  28.972  10.488
48146W        W 7440  31.409  25.575  12.021
48147W        W 7441  44.768  43.332  12.871
48148W        W 7442   2.462   3.287  10.100
48149W        W 7443  13.647  22.527  12.863
48150W        W 7444  35.978  30.134  11.510
48151W        W 7445   7.328  24.488  12.058
48152W        W 7446  24.677  29.953   1.247
48153W        W 7447   7.683  13.241   2.815
48154W        W 7448  39.371  26.592  10.521
48155W        W 7449  44.007  36.449   3.708
48156W        W 7450   1.260  12.289   1.834
48157W        W 7451  25.113  29.643  14.953
48158W        W 7452  34.472  34.930   5.227
48159W        W 7453   0.461  28.963  11.458
48160W        W 7454  14.790   0.362   4.652
48161W        W 7455  36.923  40.523  10.919
48162W        W 7456   4.873  44.473  11.972
48163W        W 7457  27.081  19.554  11.567
48164W        W 7458   3.710  35.372   1.884
48165W        W 7459  33.986   2.831  13.946
48166W        W 7460  44.335   6.774  11.121
48167W        W 7461  44.843  33.542  14.833
48168W        W 7462  32.083   4.730   1.922
48169W        W 7463  42.990  39.485   0.332
48170W        W 7464   9.222  38.413   0.346
48171W        W 7465  33.543  35.990  10.584
48172W        W 7466  10.234   7.395   5.197
48173W        W 7467  25.649  19.701   4.298
48174W        W 7468  18.174  21.717  14.903
48175W        W 7469  38.939  35.972  11.907
48176W        W 7470  26.522  28.038   2.336
48177W        W 7471  39.063  43.888   0.895
48178W        W 7472   9.792  16.694  12.371
48179W        W 7473  13.667  22.136   4.627
48180W        W 7474  42.929  11.645  10.406
48181W        W 7475  39.861   3.394   4.271
48182W        W 7476   3.261  41.015   0.960
48183W        W 7477  15.653  29.585  14.760
48184W        W 7478   0.494  30.056  14.351
48185W        W 7479  19.068  36.878  10.410
48186W        W 7480  26.685  39.925  13.410
48187W        W 7481  26.079  32.120   2.704
48188W        W 7482   4.437   6.407   0.357
48189W        W 7483  18.565  19.154  12.830
48190W        W 7484  29.048  18.580  11.861
48191W        W 7485  28.068  41.930  10.458
48192W        W 7486  38.852  19.235  11.904
48193W        W 7487   0.380  17.061  10.561
48194W        W 7488  24.228  37.503   3.326
48195W        W 7489  22.219  12.269  12.400
48196W        W 7490  20.069   0.933  10.530
48197W        W 7491   8.344   0.478   0.827
48198W        W 7492  17.633  14.740   3.166
48199W        W 7493  21.048   6.269  10.501
48200W        W 7494  39.314  13.126  13.939
48201W        W 7495  39.548  44.324  10.027
48202W        W 7496  38.390   4.798  11.926
48203W        W 7497  33.025  36.866  12.938
48204W        W 7498  17.797   7.677   1.893
48205W        W 7499   3.737  35.891   0.396
48206W        W 7500  21.549  32.946  11.913
48207W        W 7501  36.393   0.368   0.261
48208W        W 7502   8.398  10.251  13.534
48209W        W 7503  21.229  18.109  14.973
48210W        W 7504  16.585  24.536   0.818
48211W        W 7505  20.691  16.265  12.414
48212W        W 7506   2.261  30.138  13.341
48213W        W 7507  12.828  25.542  14.019
48214W        W 7508   0.304  10.384   0.745
48215W        W 7509  22.113  18.083  13.325
48216W        W 7510  44.392  30.453   2.730
48217W        W 7511  41.350  37.527   5.125
48218W        W 7512  37.564  24.103  14.341
48219W        W 7513  36.979  39.372   3.206
48220W        W 7514  29.928  41.488   0.291
48221W        W 7515   6.227  21.183   1.747
48222W        W 7516   9.680  32.593  11.933
48223W        W 7517  20.274   9.724   2.826
48224W        W 7518  37.085  19.751   0.339
48225W        W 7519  26.690  31.505  12.356
48226W        W 7520   4.756  27.104  12.438
48227W        W 7521  27.544   9.703   0.402
48228W        W 7522   3.321  42.017  14.873
48229W        W 7523  10.789  39.004   1.381
48230W        W 7524  42.958   6.291   1.382
48231W        W 7525  12.845   1.273   4.683
48232W        W 7526  34.376   0.294  12.834
48233W        W 7527   1.863   9.260   3.663
48234W        W 7528   3.936   5.218   3.162
48235W        W 7529  39.385  19.143  11.862
48236W        W 7530   4.848  17.584   0.853
48237W        W 7531   3.933  42.876  12.069
48238W        W 7532  26.202   5.714   1.768
48239W        W 7533   2.800   1.965   4.219
48240W        W 7534   6.700  11.745  12.552
48241W        W 7535  19.186  43.501  12.978
48242W        W 7536  26.195  28.011   0.957
48243W        W 7537  35.369  10.278   5.575
48244W        W 7538  30.623  18.709   0.865
48245W        W 7539   9.277  17.275   2.753
48246W        W 7540  23.106  34.606  14.765
48247W        W 7541  33.917  19.123  11.959
48248W        W 7542  19.580  14.609  12.988
48249W        W 7543  16.205  44.283  14.411
48250W        W 7544  13.651  19.629   0.364
48251W        W 7545  20.554  12.674  12.981
48252W        W 7546  35.988  34.081   5.294
48253W        W 7547  22.011   5.269   4.801
48254W        W 7548  19.115  44.305   2.191
48255W        W 7549   3.267  20.244  11.070
48256W        W 7550   5.730  24.181  11.991
48257W        W 7551  44.863   2.376  12.900
48258W        W 7552  40.021  34.612   2.287
48259W        W 7553  25.103  34.090   1.250
48260W        W 7554   7.884  32.520   3.174
48261W        W 7555   7.764  22.139  11.920
48262W        W 7556  17.161  24.544   2.730
48263W        W 7557  21.710  21.572  12.914
48264W        W 7558  24.059  34.872   1.752
48265W        W 7559  39.823   9.372   0.278
48266W        W 7560  15.208  10.165   1.338
48267W        W 7561  42.282  10.778   3.212
48268W        W 7562   1.239   6.395  13.046
48269W        W 7563  23.217  14.225   0.437
48270W        W 7564  42.792  17.625   4.214
48271W        W 7565  14.252  22.160   0.302
48272W        W 7566   5.260  41.529   4.268
48273W        W 7567  20.159   1.271   0.374
48274W        W 7568  39.320   5.221  14.434
48275W        W 7569  21.030   6.373   2.809
48276W        W 7570   0.305  25.528   1.213
48277W        W 7571  42.779  34.509   0.301
48278W        W 7572  11.636  40.893  14.298
48279W        W 7573  17.067  10.656   2.885
48280W        W 7574   9.793  25.016   3.727
48281W        W 7575  35.390  29.541  14.944
48282W        W 7576   1.959  17.753  12.093
48283W        W 7577  31.043  19.118   0.448
48284W        W 7578  36.966  19.206   0.348
48285W        W 7579  39.825  24.043   1.363
48286W        W 7580   4.822  10.266   1.274
48287W        W 7581  37.907  22.202   0.247
48288W        W 7582  38.928  42.868  13.450
48289W        W 7583  37.385  44.983   2.766
48290W        W 7584  21.577  34.971  12.008
48291W        W 7585  10.379  29.501   4.721
48292W        W 7586   0.966  43.847   2.669
48293W        W 7587  22.095  24.541   1.261
48294W        W 7588   2.794  35.063   1.435
48295W        W 7589  20.572   9.814  12.021
48296W        W 7590  40.426  40.407  13.518
48297W        W 7591  35.526  35.946   2.662
48298W        W 7592  30.007  34.386   0.470
48299W        W 7593  38.026   6.194   4.817
48300W        W 7594  25.507  33.035  13.819
48301W        W 7595  28.493  27.950   4.292
48302W        W 7596  43.009  18.082   0.373
48303W        W 7597  36.522  35.061  14.440
48304W        W 7598  28.567  36.080   0.443
48305W        W 7599  29.657  30.600   4.216
48306W        W 7600  24.558  17.791   4.750
48307W        W 7601  35.393  19.714  12.452
48308W        W 7602  19.150  23.673   3.148
48309W        W 7603   2.739   9.239  14.777
48310W        W 7604  44.363   4.336   0.338
48311W        W 7605  17.198  44.432   2.400
48312W        W 7606  21.548  17.719   0.776
48313W        W 7607   0.260   3.835   1.287
48314W        W 7608   3.263  24.635  12.084
48315W        W 7609  34.987  29.621  14.912
48316W        W 7610  28.666  43.930   4.157
48317W        W 7611  10.863  12.320   3.753
48318W        W 7612  21.256  17.158  14.944
48319W        W 7613  11.761  28.502   1.271
48320W        W 7614  35.584  34.110   3.333
48321W        W 7615  33.129   8.894  11.974
48322W        W 7616   6.865   5.717   3.250
48323W        W 7617   2.792  41.350  12.408
48324W        W 7618  24.635  15.220  11.603
48325W        W 7619  44.315   1.907   1.238
48326W        W 7620  22.149   2.390   4.632
48327W        W 7621  19.116   6.695   3.157
48328W        W 7622  24.196  11.342   3.869
48329W        W 7623  40.533  15.599  10.408
48330W        W 7624  44.486  43.285   1.326
48331W        W 7625   3.344  35.085   0.953
48332W        W 7626  29.012   6.249   4.246
48333W        W 7627  43.009  42.382   5.163
48334W        W 7628   0.378  40.889  13.417
48335W        W 7629  22.678  24.148   3.849
48336W        W 7630  21.091  25.558   0.839
48337W        W 7631  15.298   8.177  10.451
48338W        W 7632   4.746   7.810   1.242
48339W        W 7633  36.439  20.143  12.834
48340W        W 7634  43.975  19.124   2.710
48341W        W 7635  26.523   2.378   1.280
48342W        W 7636  23.135  13.659   2.813
48343W        W 7637  33.119  39.020   4.173
48344W        W 7638   1.797  10.755  14.824
48345W        W 7639  26.519  25.186  12.025
48346W        W 7640  44.949  31.009   0.396
48347W        W 7641  33.424  21.227   2.221
48348W        W 7642   4.290  20.545   0.868
48349W        W 7643   6.873  41.381  13.000
48350W        W 7644  12.223   6.837  11.983
48351W        W 7645  19.203  37.399   2.837
48352W        W 7646  14.694   2.471   3.682
48353W        W 7647  25.473  34.471  13.437
48354W        W 7648  34.498   5.313   5.265
48355W        W 7649  17.238  13.618   1.841
48356W        W 7650  39.004  30.439   2.725
48357W        W 7651  11.827  38.442  13.951
48358W        W 7652  25.150  24.696  14.946
48359W        W 7653   2.238  37.387  14.858
48360W        W 7654  27.948   4.918   0.430
48361W        W 7655   9.691  27.046   0.883
48362W        W 7656  44.382   6.246   3.810
48363W        W 7657  39.846  29.963  14.327
48364W        W 7658  33.072   5.865   5.089
48365W        W 7659  33.575  17.782   2.296
48366W        W 7660  19.591  17.564   0.873
48367W        W 7661   6.217   6.843   4.203
48368W        W 7662  11.218  29.444  12.016
48369W        W 7663   9.707  12.338   3.222
48370W        W 7664  44.827  22.051   1.720
48371W        W 7665  18.573  25.096  11.534
48372W        W 7666  12.708  19.599   2.366
48373W        W 7667  27.497  39.470   3.229
48374W        W 7668  18.648  31.462  14.007
48375W        W 7669  39.050  38.891   1.839
48376W        W 7670   5.253  44.844  13.860
48377W        W 7671  32.534   1.320  11.532
48378W        W 7672  34.500  35.859   1.278
48379W        W 7673  27.664  41.492   3.342
48380W        W 7674  16.599  26.132  10.543
48381W        W 7675  43.468  36.542   2.258
48382W        W 7676  38.868   3.842  13.964
48383W        W 7677  16.154   5.391   1.264
48384W        W 7678  15.257   8.320  14.020
48385W        W 7679  42.959   4.323   2.740
48386W        W 7680  22.084  11.787  10.079
48387W        W 7681  24.533  34.087  13.400
48388W        W 7682  33.569  43.909  12.483
48389W        W 7683  25.556   4.871   0.364
48390W        W 7684  10.359  20.736  11.470
48391W        W 7685  18.596  19.187  14.963
48392W        W 7686  38.487  31.497   1.825
48393W        W 7687  10.306   5.734   0.410
48394W        W 7688  20.690  21.758   1.872
48395W        W 7689  10.151  23.649  14.447
48396W        W 7690  17.283  19.684   2.829
48397W        W 7691   2.457   6.346  10.911
48398W        W 7692  26.054  35.467  12.370
48399W        W 7693  29.072  32.455  12.399
48400W        W 7694  22.032  43.380   0.407
48401W        W 7695  14.157  26.617  14.802
48402W        W 7696  23.661  34.495   2.316
48403W        W 7697  15.197  24.054   2.809
48404W        W 7698   9.797  35.052   3.328
48405W        W 7699   2.929   8.749   0.824
48406W        W 7700   8.755  22.240   3.257
48407W        W 7701  20.089  18.620  10.463
48408W        W 7702   7.829   6.878   3.787
48409W        W 7703   3.449  25.140  11.087
48410W        W 7704  35.596  13.170   5.110
48411W        W 7705  24.133  19.579   0.800
48412W        W 7706  43.917  16.247  11.913
48413W        W 7707  36.387  19.112   0.895
48414W        W 7708  25.037   1.922   0.344
48415W        W 7709  35.542  39.916  12.416
48416W        W 7710  28.116  30.937   2.670
48417W        W 7711  31.134  15.155   2.359
48418W        W 7712  21.534  17.134  10.119
48419W        W 7713  38.901  36.430   1.831
48420W        W 7714  32.935  43.281  12.511
48421W        W 7715  36.543  27.690   3.233
48422W        W 7716  26.682  23.498   4.120
48423W        W 7717  43.270  37.525   3.747
48424W        W 7718   4.303   8.893   2.396
48425W        W 7719  19.084  32.454  12.012
48426W        W 7720  38.348  44.329  14.484
48427W        W 7721  33.475   9.676   3.243
48428W        W 7722  11.160  39.367  13.882
48429W        W 7723  42.440   7.877   2.299
48430W        W 7724  35.543  18.544   3.739
48431W        W 7725  20.691  27.473   2.261
48432W        W 7726  24.616  15.768  14.010
48433W        W 7727  35.014   2.316  14.293
48434W        W 7728  16.739  38.384  12.519
48435W        W 7729   8.283  39.553   4.202
48436W        W 7730  43.335  31.643  11.432
48437W        W 7731  24.988  11.213  11.398
48438W        W 7732  18.097  34.605  12.982
48439W        W 7733  40.821  22.697   1.724
48440W        W 7734  40.924  37.339   2.359
48441W        W 7735  40.345  13.744  13.487
48442W        W 7736  39.343  21.083   0.291
48443W        W 7737   5.825   1.250   3.289
48444W        W 7738  42.859  29.941  11.607
48445W        W 7739  35.367  43.479   2.276
48446W        W 7740  30.151  12.358  11.603
48447W        W 7741   2.313  14.784  11.020
48448W        W 7742  38.504   9.350  12.436
48449W        W 7743   0.470  20.685  14.354
48450W        W 7744  36.374  20.074   1.374
48451W        W 7745  10.797  42.318  11.888
48452W        W 7746  32.979  38.877   2.350
48453W        W 7747  13.807  29.429   2.254
48454W        W 7748  26.598   5.296  11.965
48455W        W 7749  11.807   7.315  13.975
48456W        W 7750   2.392  39.490   1.323
48457W        W 7751  14.707  38.489   2.209
48458W        W 7752   6.845  43.784   2.213
48459W        W 7753  25.099  34.995  11.503
48460W        W 7754  34.458  29.523   3.375
48461W        W 7755  16.080  32.460   3.344
48462W        W 7756  21.252  31.554  10.526
48463W        W 7757   9.784  27.558   0.351
48464W        W 7758  29.944   9.876  13.988
48465W        W 7759  21.580  21.555   0.287
48466W        W 7760  20.524  19.700   5.184
48467W        W 7761   0.416  43.956  14.865
48468W        W 7762  25.196   7.315   3.282
48469W        W 7763   8.763  10.660   0.444
48470W        W 7764  41.443  20.645   3.268
48471W        W 7765  28.598  18.161   3.168
48472W        W 7766  37.931   2.251   4.234
48473W        W 7767  37.502  33.526   4.314
48474W        W 7768  31.488   7.666   2.788
48475W        W 7769  11.249   1.421  14.280
48476W        W 7770  12.360  17.217   3.319
48477W        W 7771   0.819  19.624   4.797
48478W        W 7772  14.756  38.907   3.793
48479W        W 7773   4.912  24.591   0.256
48480W        W 7774   8.811  17.246  13.327
48481W        W 7775  16.652  14.703  14.811
48482W        W 7776  16.145  25.057   0.442
48483W        W 7777  30.970  10.190   0.827
48484W        W 7778  32.051  27.519  11.862
48485W        W 7779   3.424   6.727   4.122
48486W        W 7780   9.362  28.489   4.673
48487W        W 7781  21.744  15.171   3.864
48488W        W 7782  11.833   7.359  12.470
48489W        W 7783  39.369  32.934   4.275
48490W        W 7784  37.993   4.830   4.289
48491W        W 7785  23.615  26.472  12.009
48492W        W 7786   0.333  15.603  14.912
48493W        W 7787  43.286  17.634   1.230
48494W        W 7788  28.164  37.540  12.513
48495W        W 7789   2.260  28.184   4.165
48496W        W 7790  20.677  25.490  10.610
48497W        W 7791   5.205  23.136  12.575
48498W        W 7792  40.030  22.716   3.675
48499W        W 7793   9.346  29.493  13.438
48500W        W 7794  39.429  44.320  12.038
48501W        W 7795  12.123  36.522   4.605
48502W        W 7796   3.939   0.795   4.327
48503W        W 7797  22.224  12.332  10.452
48504W        W 7798  39.402  22.571  12.446
48505W        W 7799  11.298  38.453  11.915
48506W        W 7800  31.087  16.216   0.751
48507W        W 7801  40.328  38.389  12.428
48508W        W 7802  23.617  24.537  11.408
48509W        W 7803  26.565  22.143  14.878
48510W        W 7804  12.751  20.111  13.962
48511W        W 7805  21.611  39.900   1.221
48512W        W 7806   5.899  28.173  13.872
48513W        W 7807  18.544  44.824   4.209
48514W        W 7808  32.964  24.126   0.840
48515W        W 7809  26.461  24.210  12.850
48516W        W 7810   1.387  29.000  14.354
48517W        W 7811   2.295   6.748  14.499
48518W        W 7812   0.754  31.641   0.882
48519W        W 7813  34.054  17.629   3.210
48520W        W 7814  17.775  35.601   3.382
48521W        W 7815  19.261  34.015  11.937
48522W        W 7816  23.097  17.629  13.422
48523W        W 7817  15.738   8.401  13.897
48524W        W 7818  37.428  10.832   2.186
48525W        W 7819  44.321  39.515  10.520
48526W        W 7820   7.215  19.595  11.060
48527W        W 7821   2.928  29.616  13.462
48528W        W 7822  33.486   1.837  11.942
48529W        W 7823  35.958  41.300   1.889
48530W        W 7824   0.248  10.838   0.353
48531W        W 7825  40.308   2.272  13.033
48532W        W 7826  40.046   6.699   2.859
48533W        W 7827  26.539   6.341  12.503
48534W        W 7828  38.403  34.014   3.846
48535W        W 7829  18.290  12.809   1.758
48536W        W 7830  32.909  32.048   4.166
48537W        W 7831  41.042  24.126  11.517
48538W        W 7832  34.593  25.172   3.818
48539W        W 7833   5.208  21.697   1.283
48540W        W 7834  24.615  43.967  12.909
48541W        W 7835   4.412  20.059   3.695
48542W        W 7836   6.272   2.745  13.497
48543W        W 7837   2.799  34.894   2.295
48544W        W 7838  13.241  24.176  12.082
48545W        W 7839  41.518  42.389  14.299
48546W        W 7840  38.015  10.685   1.716
48547W        W 7841  41.350   3.925  14.014
48548W        W 7842   6.786  35.474   2.731
48549W        W 7843  13.802  20.716   3.752
48550W        W 7844   1.369  12.824   3.176
48551W        W 7845  16.282  10.263   4.223
48552W        W 7846   5.773   8.858   1.448
48553W        W 7847  21.147  17.284   1.222
48554W        W 7848   2.389  28.599  14.924
48555W        W 7849   6.320  35.537  13.965
48556W        W 7850  19.757  34.110   4.657
48557W        W 7851  17.065  28.510   3.356
48558W        W 7852  28.026  26.693   3.212
48559W        W 7853  23.058   4.849  14.474
48560W        W 7854  44.815  17.786  10.617
48561W        W 7855  17.715   2.407   1.708
48562W        W 7856   0.258  35.439  12.852
48563W        W 7857   6.274  39.830  12.910
48564W        W 7858  33.099  18.626  12.875
48565W        W 7859  13.680   1.930  10.601
48566W        W 7860  38.504  20.565   2.260
48567W        W 7861  20.250   0.964   3.812
48568W        W 7862   3.414  39.496  12.438
48569W        W 7863   4.450  14.277  14.019
48570W        W 7864  15.770   3.257   1.834
48571W        W 7865  26.488  20.527   2.663
48572W        W 7866   9.156   4.382   3.655
48573W        W 7867  27.080   4.428  11.435
48574W        W 7868  26.062  43.015  14.903
48575W        W 7869  32.636  17.652  13.953
48576W        W 7870  25.046  12.710  14.379
48577W        W 7871  31.557  14.594   2.185
48578W        W 7872  19.039  16.585   4.752
48579W        W 7873  23.132  33.892  11.435
48580W        W 7874  44.422   4.390   0.963
48581W        W 7875  12.275  35.058  14.780
48582W        W 7876   0.457  14.706  11.371
48583W        W 7877  37.396  15.304  10.909
48584W        W 7878  44.260  34.930   5.249
48585W        W 7879  13.198  10.765   3.642
48586W        W 7880   1.375  42.316  11.594
48587W        W 7881  15.134   6.818   4.304
48588W        W 7882   7.198   4.944  14.855
48589W        W 7883   1.324   4.249  13.963
48590W        W 7884  21.552  18.213  12.424
48591W        W 7885  27.507  23.603  12.054
48592W        W 7886  10.745   2.767   0.380
48593W        W 7887   0.356  15.246  12.561
48594W        W 7888  15.605  26.553  10.151
48595W        W 7889  19.707  14.646  13.499
48596W        W 7890   6.802  28.505   2.302
48597W        W 7891  37.995  31.900  10.982
48598W        W 7892   8.251   7.770   3.806
48599W        W 7893  27.108  13.628   0.410
48600W        W 7894  17.685  10.871  14.286
48601W        W 7895  38.947  38.998   0.462
48602W        W 7896   2.441  44.491   3.338
48603W        W 7897  34.007  21.135  13.043
48604W        W 7898  41.394  19.573  12.913
48605W        W 7899  26.098  17.282   4.747
48606W        W 7900  32.140  35.377  13.996
48607W        W 7901  44.932   5.359   3.717
48608W        W 7902   0.307  36.946  11.386
48609W        W 7903  27.082  34.040   1.751
48610W        W 7904  18.713   9.885   3.226
48611W        W 7905  38.960  41.469   2.411
48612W        W 7906  42.422   5.395   4.207
48613W        W 7907  42.837  34.899  11.390
48614W        W 7908  25.034  28.546  14.822
48615W        W 7909  34.470  25.634  11.856
48616W        W 7910   5.438  42.930   0.365
48617W        W 7911  25.493  30.597  14.496
48618W        W 7912  14.209  26.618   2.248
48619W        W 7913  12.248   3.764  10.411
48620W        W 7914  22.505  26.544   4.166
48621W        W 7915  43.773  40.854   2.849
48622W        W 7916  30.631  36.547  13.411
48623W        W 7917  35.919  32.917   1.295
48624W        W 7918  10.294  35.928  10.592
48625W        W 7919  42.827  12.786  13.897
48626W        W 7920   6.377   2.332   1.791
48627W        W 7921  33.593  24.539   4.599
48628W        W 7922   7.829   6.704  14.790
48629W        W 7923  33.557  16.316  14.471
48630W        W 7924  42.834   1.845  11.883
48631W        W 7925  27.144  13.804   1.797
48632W        W 7926  12.353  11.268  13.530
48633W        W 7927  44.908  18.624  10.492
48634W        W 7928  32.918  24.201  14.855
48635W        W 7929  30.574  32.970  13.942
48636W        W 7930  26.595  18.208  11.401
48637W        W 7931  11.298  37.555   0.290
48638W        W 7932  32.130  25.182   2.846
48639W        W 7933  11.768  34.484   0.775
48640W        W 7934  22.570  33.617  13.809
48641W        W 7935  13.272   8.899  13.353
48642W        W 7936  33.489  22.625   0.748
48643W        W 7937   5.915  32.604  14.324
48644W        W 7938  22.076  25.592   4.772
48645W        W 7939  27.519  17.282   2.751
48646W        W 7940  12.789  40.514  11.941
48647W        W 7941  17.647  38.870  13.430
48648W        W 7942  30.999   5.689  10.504
48649W        W 7943  28.107  32.052   5.194
48650W        W 7944   7.242   7.715   3.814
48651W        W 7945  35.033  30.577  13.421
48652W        W 7946  11.786   7.803   4.750
48653W        W 7947  37.024  28.665   2.767
48654W        W 7948  35.539  43.943   3.731
48655W        W 7949  22.594  26.672  13.016
48656W        W 7950  30.558  34.446  12.036
48657W        W 7951  20.101  18.245  12.506
48658W        W 7952  32.066  44.845   3.661
48659W        W 7953   2.914   0.477  11.037
48660W        W 7954   6.859  23.076  13.480
48661W        W 7955  10.330  24.583  12.965
48662W        W 7956  30.061  12.694   4.143
48663W        W 7957   8.264  28.064   4.809
48664W        W 7958  29.552  27.147   0.852
48665W        W 7959  17.154  24.552   0.273
48666W        W 7960  31.460  13.676  13.517
48667W        W 7961  26.045  23.113  13.009
48668W        W 7962  41.924   9.379   1.921
48669W        W 7963  18.626  11.373   0.838
48670W        W 7964   3.952  30.031  14.798
48671W        W 7965  25.605  10.165  11.038
48672W        W 7966  40.830   9.199  11.444
48673W        W 7967   8.401   9.722   4.604
48674W        W 7968  24.596  12.710  12.020
48675W        W 7969  17.269  29.167   4.603
48676W        W 7970  12.857  13.667   5.806
48677W        W 7971  40.399  26.618   1.280
48678W        W 7972  29.141  41.364  14.761
48679W        W 7973  44.369  23.519  14.356
48680W        W 7974  14.101   2.941   0.803
48681W        W 7975  35.888  35.935   3.850
48682W        W 7976  16.136  44.937  14.027
48683W        W 7977  15.256  15.168   1.448
48684W        W 7978  28.163  12.125   0.376
48685W        W 7979  11.189  36.385   1.233
48686W        W 7980  17.162  26.496   3.676
48687W        W 7981  14.333   4.912   1.450
48688W        W 7982  24.179  36.983  12.915
48689W        W 7983  27.546  40.312  10.062
48690W        W 7984   3.238  13.174  14.974
48691W        W 7985  24.533  11.822   0.961
48692W        W 7986  11.246  43.913   3.229
48693W        W 7987  22.671  31.605   3.358
48694W        W 7988  21.022   5.270   2.234
48695W        W 7989  17.102  25.605   1.724
48696W        W 7990   4.818   3.949   0.894
48697W        W 7991  32.460  13.323  13.991
48698W        W 7992  15.307  21.104   1.835
48699W        W 7993  40.873  21.217  13.485
48700W        W 7994  19.255  31.042   3.691
48701W        W 7995   7.244  12.760  14.791
48702W        W 7996  14.301  30.994   4.306
48703W        W 7997  22.099  38.834  14.319
48704W        W 7998  12.714   5.768   0.331
48705W        W 7999  40.463  37.879  14.881
48706W        W 8000  15.668   9.813  13.395
48707W        W 8001   2.367  34.952  12.044
48708W        W 8002  35.455   5.707  10.096
48709W        W 8003  18.643  14.298   0.962
48710W        W 8004  29.049  41.424  10.911
48711W        W 8005   7.889  44.964   0.326
48712W        W 8006   6.242  33.531   1.845
48713W        W 8007  17.265   4.885  11.121
48714W        W 8008  33.519  33.547  11.501
48715W        W 8009  11.759   6.726   2.279
48716W        W 8010  36.420  18.768  10.977
48717W        W 8011  12.646   8.361   2.262
48718W        W 8012  28.485  42.856  12.349
48719W        W 8013  41.864   9.833   1.780
48720W        W 8014  33.610  11.837  12.093
48721W        W 8015  35.401  37.403   1.416
48722W        W 8016  28.019  18.786  14.288
48723W        W 8017  39.373   4.716   1.410
48724W        W 8018  41.881  11.154  13.365
48725W        W 8019  13.696  19.666  13.441
48726W        W 8020  39.383  17.205   3.776
48727W        W 8021  38.445  32.897  13.039
48728W        W 8022  33.026  42.988   1.746
48729W        W 8023  34.967   1.880   5.290
48730W        W 8024  15.243  43.904   2.828
48731W        W 8025  44.756  16.312   1.711
48732W        W 8026  44.322   8.688   1.913
48733W        W 8027  11.358   5.291  13.354
48734W        W 8028   9.868  41.949   0.367
48735W        W 8029   1.436  26.537   0.868
48736W        W 8030  28.060  13.612  12.448
48737W        W 8031  23.018   6.915  12.921
48738W        W 8032   2.912  32.901   0.474
48739W        W 8033  24.008  39.423   4.804
48740W        W 8034  34.457  11.858  10.563
48741W        W 8035  14.248  42.811  13.059
48742W        W 8036  13.817  27.507   2.820
48743W        W 8037  37.969   8.771  12.391
48744W        W 8038   1.964  26.963  14.840
48745W        W 8039  18.635   8.724   1.274
48746W        W 8040  19.640  17.269  11.448
48747W        W 8041  41.338  39.955   3.186
48748W        W 8042  16.776  21.180  14.275
48749W        W 8043  32.937  44.766  10.619
48750W        W 8044  11.760  29.523  10.518
48751W        W 8045  35.903  21.523   1.716
48752W        W 8046   7.676  25.576  10.600
48753W        W 8047   7.278  37.508  12.419
48754W        W 8048  31.984  40.853   9.555
48755W        W 8049  25.512  10.772  11.417
48756W        W 8050  11.205  17.633  14.419
48757W        W 8051   2.858  22.673   1.895
48758W        W 8052   7.781   7.260   4.810
48759W        W 8053  30.989  38.863   2.825
48760W        W 8054  40.871  31.068   2.770
48761W        W 8055  32.019  42.324   3.369
48762W        W 8056  26.967  11.767   1.441
48763W        W 8057  39.918  18.780  11.562
48764W        W 8058  18.206  23.574  10.448
48765W        W 8059  13.324  22.252   9.609
48766W        W 8060  31.064  17.749  12.379
48767W        W 8061  37.550  36.860  14.316
48768W        W 8062  31.134  33.573   0.806
48769W        W 8063  22.138  31.588   4.218
48770W        W 8064  36.562  13.312  13.813
48771W        W 8065  24.167   0.417  11.948
48772W        W 8066  29.169  36.444   4.838
48773W        W 8067  17.161  34.100  10.605
48774W        W 8068  16.737  27.940  12.459
48775W        W 8069   6.797  27.045   2.755
48776W        W 8070  35.504  36.387   0.793
48777W        W 8071  22.677  28.111  10.616
48778W        W 8072  16.188  42.977  11.903
48779W        W 8073  38.482  33.529   0.480
48780W        W 8074   9.285  32.032  13.802
48781W        W 8075  16.760  17.250  11.406
48782W        W 8076   1.834  34.010  14.011
48783W        W 8077  14.309  44.421   2.191
48784W        W 8078  35.579  17.800  12.865
48785W        W 8079  33.119  16.622  13.385
48786W        W 8080  39.325   3.398  13.343
48787W        W 8081  35.512  24.128   0.379
48788W        W 8082  29.102  41.393  14.297
48789W        W 8083  28.501  24.725  12.936
48790W        W 8084  28.129  22.164  13.352
48791W        W 8085   6.327  43.488   0.731
48792W        W 8086  36.549  20.733  11.473
48793W        W 8087  43.866  32.543   1.251
48794W        W 8088  22.026   8.178   5.250
48795W        W 8089  19.040  23.216   3.762
48796W        W 8090  12.227  35.026   3.835
48797W        W 8091  12.308  31.488  14.274
48798W        W 8092  27.169  41.849   1.849
48799W        W 8093  26.985  29.643  14.323
48800W        W 8094  35.037  31.005  14.493
48801W        W 8095  30.082  41.906  14.896
48802W        W 8096  43.280  39.976   0.922
48803W        W 8097  35.007   2.432   2.739
48804W        W 8098   6.720  23.499   0.828
48805W        W 8099  43.865  28.026   2.327
48806W        W 8100  18.195  27.543  14.359
48807W        W 8101  24.012  31.154   0.823
48808W        W 8102  20.093  36.428   3.324
48809W        W 8103  29.036   2.404  10.913
48810W        W 8104   3.796  10.659   2.762
48811W        W 8105  16.717  15.617  12.055
48812W        W 8106  15.176   7.682  12.034
48813W        W 8107  18.294  42.434  13.323
48814W        W 8108  18.613  12.838  13.990
48815W        W 8109  15.122   6.209   4.246
48816W        W 8110  23.552  18.127   2.282
48817W        W 8111  11.638  18.130   1.348
48818W        W 8112  34.960  42.305   0.302
48819W        W 8113  16.078  43.471   0.366
48820W        W 8114  12.699  29.114  14.500
48821W        W 8115   7.864  31.992  14.902
48822W        W 8116   3.270  31.529   1.423
48823W        W 8117  38.513  28.036   2.387
48824W        W 8118  16.614  25.045  14.941
48825W        W 8119   5.374  19.752  13.389
48826W        W 8120   9.378  23.510   0.460
48827W        W 8121  21.136  13.302  13.375
48828W        W 8122   7.685  32.524  11.571
48829W        W 8123   9.171  10.653  12.026
48830W        W 8124  41.449   0.824   1.732
48831W        W 8125  35.062  40.831  14.902
48832W        W 8126  39.944  19.645  11.993
48833W        W 8127  33.975  17.287  14.321
48834W        W 8128  19.742   0.260  14.908
48835W        W 8129  19.722  29.935  14.460
48836W        W 8130  39.448  23.215  13.856
48837W        W 8131   7.836  20.229  13.469
48838W        W 8132  15.815  28.549  11.902
48839W        W 8133   1.843  11.831  13.910
48840W        W 8134  44.499  10.678   1.355
48841W        W 8135  34.045  12.655  13.947
48842W        W 8136  44.438  21.257   0.924
48843W        W 8137   0.769  33.932  13.855
48844W        W 8138  27.163  33.089   1.409
48845W        W 8139  24.588  34.416   0.455
48846W        W 8140  11.344   5.729   3.206
48847W        W 8141  21.564   1.255   2.771
48848W        W 8142  27.690  34.973  13.397
48849W        W 8143  12.800   0.447  11.589
48850W        W 8144  24.692  15.254   3.666
48851W        W 8145  26.500  34.585   0.384
48852W        W 8146   8.318   1.921   2.194
48853W        W 8147  15.118   8.733  12.828
48854W        W 8148   3.760  34.893  11.449
48855W        W 8149  31.082   9.728  14.945
48856W        W 8150  42.787  20.636  13.460
48857W        W 8151  34.444  34.601   4.765
48858W        W 8152  21.715  18.724  12.548
48859W        W 8153   5.269  11.803   2.685
48860W        W 8154   1.912  16.181   4.212
48861W        W 8155  21.609  24.043  14.806
48862W        W 8156  42.995   0.332   1.246
48863W        W 8157  43.930  31.048   4.704
48864W        W 8158   1.250  23.728  14.471
48865W        W 8159  24.112   2.876   1.393
48866W        W 8160  44.832  31.106  14.773
48867W        W 8161  14.269   9.784   2.354
48868W        W 8162  18.175  28.671   2.332
48869W        W 8163  29.507  17.615  12.448
48870W        W 8164  13.703  40.816  11.108
48871W        W 8165  43.848  28.979   1.262
48872W        W 8166  15.312  29.525   1.934
48873W        W 8167  40.488   3.282   1.894
48874W        W 8168  38.469  22.610  14.426
48875W        W 8169  35.536   7.773   4.600
48876W        W 8170  23.619  34.371  11.550
48877W        W 8171   9.653   5.406  11.402
48878W        W 8172  19.246  11.749  11.093
48879W        W 8173  38.004  28.639  10.953
48880W        W 8174  32.633  18.214  12.842
48881W        W 8175  11.769  25.588  13.815
48882W        W 8176  22.547  10.149   4.284
48883W        W 8177  27.105   9.686   1.319
48884W        W 8178  31.983   2.942  14.944
48885W        W 8179  18.749  14.107  13.988
48886W        W 8180  41.309   5.403  10.569
48887W        W 8181   9.733  39.364  13.327
48888W        W 8182  13.301   7.175  10.897
48889W        W 8183   7.271   3.744   4.647
48890W        W 8184  27.503  18.691   3.381
48891W        W 8185  28.149  16.787   1.917
48892W        W 8186  25.501  14.714  14.514
48893W        W 8187  39.472  41.042  11.463
48894W        W 8188  40.925  26.467  14.896
48895W        W 8189  32.994  25.686   0.886
48896W        W 8190  23.553  31.115  13.403
48897W        W 8191  40.949  13.831   1.237
48898W        W 8192  31.473  21.245   5.227
48899W        W 8193  31.054  39.903   5.785
48900W        W 8194  17.698  19.044  12.383
48901W        W 8195  19.273  13.158  14.798
48902W        W 8196  33.084   6.716   1.383
48903W        W 8197   1.733  15.656  11.479
48904W        W 8198  22.109   5.244   1.286
48905W        W 8199  19.148  19.560   5.156
48906W        W 8200  29.429  33.475   1.395
48907W        W 8201  14.738  26.204  12.422
48908W        W 8202   9.846   4.237  12.008
48909W        W 8203  11.724  16.566  11.509
48910W        W 8204  42.394  37.849   4.686
48911W        W 8205  40.323  37.957  12.517
48912W        W 8206  11.767  42.883  14.933
48913W        W 8207  16.665  43.406  13.368
48914W        W 8208  24.044  28.034   3.841
48915W        W 8209   5.362  41.017   4.252
48916W        W 8210  24.656   2.407   4.128
48917W        W 8211  29.631  33.586   3.321
48918W        W 8212  29.171  27.655   2.846
48919W        W 8213  26.497  39.324   2.230
48920W        W 8214  39.505   3.215   0.888
48921W        W 8215  18.063  34.613   4.701
48922W        W 8216   6.788  41.803  13.053
48923W        W 8217  40.846  42.946   2.360
48924W        W 8218  43.399   1.400  11.584
48925W        W 8219   7.350  19.744  14.808
48926W        W 8220  15.755  43.815  11.081
48927W        W 8221  35.482  35.083   3.244
48928W        W 8222   2.342  28.540  10.455
48929W        W 8223   2.276   0.341  14.292
48930W        W 8224  42.467  42.470  13.057
48931W        W 8225  10.188  16.137  12.903
48932W        W 8226  12.727   1.954  14.952
48933W        W 8227  18.662  39.828   3.314
48934W        W 8228  41.297  33.992   4.776
48935W        W 8229  35.454   3.721   0.789
48936W        W 8230   9.740  13.774  14.954
48937W        W 8231  31.104   8.691  13.817
48938W        W 8232  39.360  11.846   3.866
48939W        W 8233  18.633  18.288  13.370
48940W        W 8234  26.702  29.071   1.828
48941W        W 8235  13.837   6.757  13.453
48942W        W 8236  19.171  17.780   0.364
48943W        W 8237   4.908  40.337  13.475
48944W        W 8238  24.692   8.376  14.410
48945W        W 8239  23.559  35.066   1.267
48946W        W 8240  19.258  18.280  11.995
48947W        W 8241   5.367  19.210   0.479
48948W        W 8242  27.516   7.271  13.469
48949W        W 8243   1.751  37.947   4.822
48950W        W 8244  28.471  33.421   3.704
48951W        W 8245  26.650   6.683   2.828
48952W        W 8246  41.477  17.747  12.482
48953W        W 8247  43.439  23.026   3.378
48954W        W 8248  41.849  13.761   0.411
48955W        W 8249  36.043  20.615   2.701
48956W        W 8250   2.753  43.327  12.065
48957W        W 8251   8.794  39.376   0.841
48958W        W 8252  12.828  12.734  13.484
48959W        W 8253  13.180  29.058  11.607
48960W        W 8254   2.966  35.435  14.809
48961W        W 8255  36.405  36.009  14.885
48962W        W 8256  41.297  21.598   1.931
48963W        W 8257  37.015  26.500   3.304
48964W        W 8258  35.409  24.617  11.589
48965W        W 8259  30.614  20.214   5.148
48966W        W 8260  21.220   7.179   1.714
48967W        W 8261  32.010   9.847   5.223
48968W        W 8262  12.700  26.549   1.438
48969W        W 8263  30.050  13.711  10.645
48970W        W 8264  40.864  27.062   3.366
48971W        W 8265   1.768  10.837  12.984
48972W        W 8266  21.021  10.222   3.722
48973W        W 8267  34.592  42.891   1.449
48974W        W 8268  23.208  41.491   4.671
48975W        W 8269  10.876  27.588   3.749
48976W        W 8270  25.532   9.152  14.478
48977W        W 8271   4.342  34.500  14.452
48978W        W 8272  24.550  26.085  14.966
48979W        W 8273  41.356   3.280   3.858
48980W        W 8274  31.989  21.025   1.219
48981W        W 8275  36.042  39.410   1.302
48982W        W 8276  40.357   1.326  13.977
48983W        W 8277  36.366  44.487   3.146
48984W        W 8278   1.321  11.704  10.468
48985W        W 8279   5.220  18.287   5.291
48986W        W 8280  44.431   4.262   4.316
48987W        W 8281  36.526   0.254  11.535
48988W        W 8282  22.642   6.701   0.740
48989W        W 8283  13.726  32.099   0.256
48990W        W 8284  36.460   5.833  14.950
48991W        W 8285  29.430   6.761  13.390
48992W        W 8286  38.930  11.728   1.773
48993W        W 8287  12.208  41.026   1.317
48994W        W 8288   1.755   1.302   1.236
48995W        W 8289  17.279   7.172  11.021
48996W        W 8290   1.973  31.460  12.564
48997W        W 8291   7.737  33.482   4.242
48998W        W 8292   2.396  10.356  10.514
48999W        W 8293  16.165   4.294  12.021
49000W        W 8294  41.379  44.453  11.572
49001W        W 8295  34.051  33.990   4.266
49002W        W 8296  29.006  23.509  10.631
49003W        W 8297  18.099  17.666   0.397
49004W        W 8298   6.835  27.551   1.765
49005W        W 8299  28.931   6.219   3.173
49006W        W 8300  15.219  13.298  14.784
49007W        W 8301  26.046  14.191   4.693
49008W        W 8302   7.898  16.743  12.416
49009W        W 8303   0.395  19.229  12.342
49010W        W 8304  43.874  21.103   3.174
49011W        W 8305  13.153  17.644   4.320
49012W        W 8306  41.915  16.615  14.382
49013W        W 8307   1.310  33.882  12.827
49014W        W 8308  31.110  13.653  10.421
49015W        W 8309  30.992  40.436   2.800
49016W        W 8310  43.984  27.150  10.970
49017W        W 8311  12.359  13.288   1.260
49018W        W 8312  44.777  31.029   4.685
49019W        W 8313  29.981  27.621  10.604
49020W        W 8314  25.063  23.614   1.867
49021W        W 8315  27.690   5.707  11.860
49022W        W 8316   9.688  37.866  14.888
49023W        W 8317  28.675  27.521  14.415
49024W        W 8318  22.669  12.735  10.040
49025W        W 8319  17.630  21.588   2.284
49026W        W 8320  36.026  42.462  12.022
49027W        W 8321  30.619  42.323  14.987
49028W        W 8322  15.788  12.140   1.796
49029W        W 8323  27.475  25.100  10.519
49030W        W 8324  24.175  34.047   1.373
49031W        W 8325  41.922  34.907   1.392
49032W        W 8326  37.492  37.466  14.790
49033W        W 8327  24.691  17.239  10.595
49034W        W 8328  41.043  39.346   4.697
49035W        W 8329  14.204  13.773  12.983
49036W        W 8330   9.846   3.719  14.981
49037W        W 8331  15.150  10.775   9.652
49038W        W 8332  44.917  43.020   1.919
49039W        W 8333  11.788  31.604   3.703
49040W        W 8334  21.637   7.735  14.994
49041W        W 8335  21.612   9.796  12.382
49042W        W 8336  24.623   6.724   2.815
49043W        W 8337  32.061   1.976   5.307
49044W        W 8338   1.806   7.830  12.910
49045W        W 8339  28.053  25.027  14.007
49046W        W 8340  42.929  24.683   1.219
49047W        W 8341  22.132  29.653   2.778
49048W        W 8342  27.509  23.501  14.840
49049W        W 8343  11.284  35.107   1.337
49050W        W 8344   0.789   1.483   9.609
49051W        W 8345  28.934   9.177  11.999
49052W        W 8346  42.897  34.427   1.846
49053W        W 8347   9.309   8.787   3.377
49054W        W 8348   1.346  33.095   0.461
49055W        W 8349  11.339   2.301   3.820
49056W        W 8350  10.727   8.264   2.748
49057W        W 8351  35.854  42.454  10.632
49058W        W 8352  27.457   0.473  12.059
49059W        W 8353  22.138  32.921   4.230
49060W        W 8354  32.433   5.896   1.292
49061W        W 8355  19.673  29.665   0.293
49062W        W 8356  30.479  14.658   4.715
49063W        W 8357   3.833   0.427   1.833
49064W        W 8358  18.567  37.579   4.740
49065W        W 8359  41.373  29.509   2.704
49066W        W 8360  40.435  42.506  13.344
49067W        W 8361   7.284   8.826   3.850
49068W        W 8362  32.888   6.716  14.380
49069W        W 8363  28.929  10.760   4.839
49070W        W 8364  17.084  10.301   0.879
49071W        W 8365  23.209  20.682   2.846
49072W        W 8366  24.494  40.388  12.921
49073W        W 8367   8.771  21.698  11.425
49074W        W 8368   7.312  33.529  11.085
49075W        W 8369  19.652   1.396  11.518
49076W        W 8370  33.520   3.414   2.776
49077W        W 8371  10.205  36.347  13.498
49078W        W 8372  18.268  38.965  10.505
49079W        W 8373   0.831  10.272  12.985
49080W        W 8374   7.811  37.524  14.832
49081W        W 8375  37.570  30.023   4.601
49082W        W 8376  18.055  40.893   4.773
49083W        W 8377  32.539  16.600   1.814
49084W        W 8378  31.552  21.726  14.396
49085W        W 8379  11.205  42.427   2.720
49086W        W 8380  33.385  38.888  13.844
49087W        W 8381  13.680  39.003  13.376
49088W        W 8382  25.638  37.915   4.832
49089W        W 8383  11.347  35.892   0.807
49090W        W 8384  29.569  11.765  10.151
49091W        W 8385  11.212   3.318  10.439
49092W        W 8386  17.092  29.631  14.514
49093W        W 8387  39.919  34.561  13.803
49094W        W 8388  21.210  21.524  12.378
49095W        W 8389   4.745   4.422   4.795
49096W        W 8390  34.403  15.579   4.764
49097W        W 8391   9.344  34.039  10.447
49098W        W 8392  23.671  19.210   0.382
49099W        W 8393  25.153  29.164   3.316
49100W        W 8394   7.388  23.656   5.144
49101W        W 8395  30.062  11.685  12.868
49102W        W 8396   1.779   2.242   9.607
49103W        W 8397  28.023  30.577  11.999
49104W        W 8398  20.545   9.742  12.395
49105W        W 8399  31.999  17.708   3.866
49106W        W 8400  32.532  17.647   0.403
49107W        W 8401  29.490  17.774  12.091
49108W        W 8402  26.153  42.393   4.834
49109W        W 8403  37.424  17.709  14.932
49110W        W 8404  13.215  22.554   2.314
49111W        W 8405  12.237  11.737   4.273
49112W        W 8406  14.221   2.884   1.817
49113W        W 8407  12.657  18.125   3.843
49114W        W 8408   5.790   6.812   1.839
49115W        W 8409  42.793  43.880  12.954
49116W        W 8410  34.105   3.430  14.946
49117W        W 8411  26.639   3.768   4.243
49118W        W 8412   7.337  11.172   4.336
49119W        W 8413  23.154  12.760  14.515
49120W        W 8414  25.470  13.124   0.951
49121W        W 8415  30.519  13.619   4.800
49122W        W 8416  22.531  11.173   0.276
49123W        W 8417   4.208  15.647  14.872
49124W        W 8418  28.521  35.439   0.773
49125W        W 8419  23.543  37.336   2.662
49126W        W 8420  34.432  17.205  13.909
49127W        W 8421   0.756   5.423  13.426
49128W        W 8422   0.260  21.610  13.494
49129W        W 8423   4.822  38.030   1.803
49130W        W 8424  43.922  26.157   2.244
49131W        W 8425   6.317  12.219   3.734
49132W        W 8426  37.009  25.549   0.873
49133W        W 8427  28.484  40.489  11.416
49134W        W 8428   8.700  25.985   2.273
49135W        W 8429  12.749  39.966   3.741
49136W        W 8430   2.836   6.396   1.832
49137W        W 8431  16.318  32.075  12.956
49138W        W 8432  34.378  21.715   1.744
49139W        W 8433  44.963  25.103  11.389
49140W        W 8434  24.201  25.145  10.907
49141W        W 8435  17.101  20.588  14.007
49142W        W 8436   3.327   6.338   4.660
49143W        W 8437  41.439  29.934   2.259
49144W        W 8438  36.582   1.479  11.448
49145W        W 8439  11.301  37.570  10.448
49146W        W 8440  36.480  33.905  11.043
49147W        W 8441  37.925  39.393   4.607
49148W        W 8442  42.317  22.655   4.776
49149W        W 8443   0.393   2.282   2.376
49150W        W 8444  22.199   2.445  11.074
49151W        W 8445   5.226  15.711  14.465
49152W        W 8446  12.275  39.540   0.778
49153W        W 8447   2.469  10.154   1.395
49154W        W 8448   1.239  18.281  10.894
49155W        W 8449   0.410  12.685   1.817
49156W        W 8450  16.203  36.974   4.311
49157W        W 8451  42.978  36.422  11.556
49158W        W 8452  38.375  28.625  10.430
49159W        W 8453  12.349  40.984  10.564
49160W        W 8454  21.564  20.127   2.813
49161W        W 8455   1.430   9.803   0.475
49162W        W 8456   3.738   2.917   4.653
49163W        W 8457   2.822  29.528   4.836
49164W        W 8458  15.645  39.948  12.996
49165W        W 8459   8.766   4.815   5.205
49166W        W 8460  31.405   7.315   2.703
49167W        W 8461  29.938  24.075  13.419
49168W        W 8462  42.481  22.099  12.078
49169W        W 8463  22.076  41.312   2.728
49170W        W 8464   9.376  21.708   1.448
49171W        W 8465  41.015  21.168   0.760
49172W        W 8466  18.148  20.162  12.550
49173W        W 8467   1.848   9.745   4.246
49174W        W 8468  16.078   5.782  12.570
49175W        W 8469   6.377  12.207   0.280
49176W        W 8470  16.243  39.979  12.983
49177W        W 8471  41.870  43.508   2.380
49178W        W 8472   1.373  11.664  13.540
49179W        W 8473   0.788  11.740  10.029
49180W        W 8474   3.736  38.389  13.815
49181W        W 8475  38.825   1.482   3.654
49182W        W 8476  15.128  10.246  11.589
49183W        W 8477  11.789  19.215  13.354
49184W        W 8478  20.157   4.760  10.933
49185W        W 8479  28.659  13.132   3.275
49186W        W 8480  29.471   2.421  13.359
49187W        W 8481  15.663  36.999   1.782
49188W        W 8482   6.786  26.620   0.396
49189W        W 8483  36.971   4.833  10.474
49190W        W 8484  20.248  17.168   3.647
49191W        W 8485   3.710  19.540  11.932
49192W        W 8486  41.305  14.333   0.251
49193W        W 8487  27.627  40.961   3.236
49194W        W 8488  16.789   4.448  14.859
49195W        W 8489  35.484  43.304  12.896
49196W        W 8490  21.212  16.178   4.138
49197W        W 8491  30.517  35.959   2.415
49198W        W 8492  31.599  34.988   1.356
49199W        W 8493  37.575  15.792  13.050
49200W        W 8494  33.590  35.068  10.602
49201W        W 8495  36.004  37.544  11.597
49202W        W 8496  22.652   0.458   0.295
49203W        W 8497  44.998  41.330   2.191
49204W        W 8498   6.207  17.735  14.443
49205W        W 8499   0.443  32.985  10.517
49206W        W 8500  24.584  13.166   2.673
49207W        W 8501  44.851   1.754   1.924
49208W        W 8502   2.936  40.819   3.717
49209W        W 8503  29.081  17.727  11.011
49210W        W 8504  35.898  44.963   1.699
49211W        W 8505  20.207  41.527  10.961
49212W        W 8506   9.233   4.264  10.515
49213W        W 8507   4.896   0.957   3.308
49214W        W 8508  12.197  32.949  10.476
49215W        W 8509  12.793  27.992   1.318
49216W        W 8510   2.907  11.291   2.751
49217W        W 8511  20.252   2.889   4.807
49218W        W 8512   8.705  44.915   0.402
49219W        W 8513  27.961  30.433  14.338
49220W        W 8514  31.921   6.887   1.437
49221W        W 8515  26.032   1.391   1.784
49222W        W 8516  28.003  35.529   0.807
49223W        W 8517  10.713  41.805   2.201
49224W        W 8518  25.534  32.426  10.482
49225W        W 8519  12.251   6.283  10.936
49226W        W 8520   5.214  35.010  10.526
49227W        W 8521   9.859  34.885  13.436
49228W        W 8522  31.421  20.564  11.947
49229W        W 8523  26.627  39.402   0.290
49230W        W 8524  42.914   3.273   3.870
49231W        W 8525  18.648  16.125   3.745
49232W        W 8526  24.148  11.281   2.679
49233W        W 8527  34.866  31.906   0.408
49234W        W 8528  34.059   9.229  12.957
49235W        W 8529  35.870  42.890  12.344
49236W        W 8530  22.692  27.171  13.055
49237W        W 8531  39.963  20.035  14.875
49238W        W 8532  21.102  43.322   0.903
49239W        W 8533   8.788  22.738  12.031
49240W        W 8534  17.133   4.926  14.428
49241W        W 8535  24.510   6.699   0.891
49242W        W 8536  33.381  11.683  13.989
49243W        W 8537  11.326  38.884   3.210
49244W        W 8538  13.770   6.370   2.289
49245W        W 8539   8.665  28.170  10.449
49246W        W 8540  15.220  36.575  11.982
49247W        W 8541  35.888  17.670  13.875
49248W        W 8542  31.549  16.706   1.226
49249W        W 8543  27.944  11.657  14.870
49250W        W 8544  34.392  32.132  13.883
49251W        W 8545  14.110  29.046  10.968
49252W        W 8546   4.753   0.827  14.461
49253W        W 8547  14.116  21.227   9.923
49254W        W 8548   9.822  33.932  12.516
49255W        W 8549  43.881   9.879   3.181
49256W        W 8550  18.610  13.722  14.795
49257W        W 8551   3.298   0.311   2.405
49258W        W 8552  15.770  37.548   0.450
49259W        W 8553  41.392  33.519  14.430
49260W        W 8554   3.362  29.545   3.849
49261W        W 8555   6.314  10.636   3.212
49262W        W 8556  39.396  24.229  12.521
49263W        W 8557  19.182   1.863   3.799
49264W        W 8558  16.568  24.605   4.772
49265W        W 8559  10.369  14.116  13.014
49266W        W 8560  12.789   4.223  12.354
49267W        W 8561  25.546  37.960  13.344
49268W        W 8562   1.972  21.625  12.084
49269W        W 8563  37.405   0.321   0.809
49270W        W 8564  17.302   0.455  11.463
49271W        W 8565   0.303  22.094   3.765
49272W        W 8566   3.319   7.213  13.791
49273W        W 8567  33.993  11.359   1.712
49274W        W 8568  12.725  14.794   0.901
49275W        W 8569  40.941   0.965   3.664
49276W        W 8570  44.487  23.240  10.987
49277W        W 8571   8.350   4.845   0.471
49278W        W 8572  36.417   2.425  14.963
49279W        W 8573  21.532  39.509  14.814
49280W        W 8574  37.031  30.460   3.261
49281W        W 8575  10.660  18.102   2.703
49282W        W 8576  23.074  42.800   3.173
49283W        W 8577  37.059   9.850  11.899
49284W        W 8578  36.981   3.432   2.803
49285W        W 8579  12.221  44.296  11.375
49286W        W 8580  17.752  40.475  14.357
49287W        W 8581   3.822   6.338   4.646
49288W        W 8582   9.743  37.338  13.428
49289W        W 8583  43.496  33.972   0.773
49290W        W 8584  32.892  15.137  14.965
49291W        W 8585  41.978  41.043  11.540
49292W        W 8586  44.812  27.095  13.426
49293W        W 8587  19.553   8.239  10.497
49294W        W 8588  19.776  18.550  14.874
49295W        W 8589   2.460  28.546  13.870
49296W        W 8590  11.742  26.622   1.888
49297W        W 8591  28.616  11.137  14.869
49298W        W 8592   7.307  33.596  14.018
49299W        W 8593   8.866  40.041   0.410
49300W        W 8594  43.816   1.289   0.289
49301W        W 8595  27.590  43.417   3.385
49302W        W 8596  12.774  44.880  13.490
49303W        W 8597  21.182   5.808   4.127
49304W        W 8598  37.439  13.188   4.804
49305W        W 8599  39.453  16.644  13.329
49306W        W 8600  11.179  19.704   2.232
49307W        W 8601  14.774   3.719   4.353
49308W        W 8602  44.901  12.133   1.777
49309W        W 8603  34.053   5.789  11.438
49310W        W 8604   4.849  13.220   0.859
49311W        W 8605  34.453  30.014  12.483
49312W        W 8606  23.210  25.709   3.731
49313W        W 8607  44.437  36.585  13.047
49314W        W 8608  21.163  17.214  14.490
49315W        W 8609  28.000  10.713  12.450
49316W        W 8610  27.186  10.747  14.354
49317W        W 8611  30.480  14.786   2.827
49318W        W 8612   2.457   0.329   0.794
49319W        W 8613  25.137  15.741  13.811
49320W        W 8614  36.416  31.922  10.920
49321W        W 8615  22.030  13.728   4.196
49322W        W 8616  32.084  27.488  13.020
49323W        W 8617  14.244  37.489   1.796
49324W        W 8618   2.855  29.064  14.907
49325W        W 8619  17.233  40.530  11.419
49326W        W 8620  29.467  32.133  10.474
49327W        W 8621  29.975  40.954   0.862
49328W        W 8622  39.981  31.048  13.886
49329W        W 8623   7.753  22.726  12.355
49330W        W 8624   6.741  34.120   9.926
49331W        W 8625  32.577  21.192  13.853
49332W        W 8626  13.271   7.740   1.244
49333W        W 8627  16.763  44.971   3.310
49334W        W 8628  17.276   6.723  14.023
49335W        W 8629  17.202  17.761   2.332
49336W        W 8630   1.398  37.337  14.323
49337W        W 8631  39.926  24.605  14.987
49338W        W 8632  37.016  15.788   0.471
49339W        W 8633  14.815   7.794  14.787
49340W        W 8634  25.018  38.835  12.957
49341W        W 8635  44.266  42.409   2.701
49342W        W 8636  19.554  39.477   1.275
49343W        W 8637  34.407  27.531   1.788
49344W        W 8638  22.506   2.756  11.012
49345W        W 8639   2.945  13.175   0.910
49346W        W 8640  27.140  14.691   2.332
49347W        W 8641  19.266  31.936   9.925
49348W        W 8642  29.504  13.618   0.424
49349W        W 8643  13.810  42.470  14.949
49350W        W 8644  16.096  31.567  14.945
49351W        W 8645  21.061  38.856   2.833
49352W        W 8646  40.883  39.830   3.223
49353W        W 8647  21.073  37.568   4.117
49354W        W 8648  10.826  12.241   2.785
49355W        W 8649  35.398  22.218   2.198
49356W        W 8650   9.360   0.251   2.766
49357W        W 8651  32.487  44.442   3.647
49358W        W 8652  33.967  16.230  13.312
49359W        W 8653  24.206  14.671   2.399
49360W        W 8654  23.714  43.865  12.393
49361W        W 8655  29.168  43.884  13.060
49362W        W 8656  37.341  29.487  14.831
49363W        W 8657  27.484  26.994  13.370
49364W        W 8658  32.973   4.822   1.853
49365W        W 8659  14.315  27.120  14.981
49366W        W 8660  12.197  37.397  14.909
49367W        W 8661  15.660  33.959  10.091
49368W        W 8662   7.377  16.653  12.858
49369W        W 8663   0.471  33.933  11.413
49370W        W 8664  13.244  11.221   1.244
49371W        W 8665  28.525  32.516   0.408
49372W        W 8666   8.895   3.949  13.441
49373W        W 8667  30.637  39.858   2.360
49374W        W 8668  24.136  17.281   0.425
49375W        W 8669  30.934  35.591  14.359
49376W        W 8670  32.540  20.719   0.884
49377W        W 8671  19.599  15.685   0.263
49378W        W 8672  28.944  32.069  13.377
49379W        W 8673   9.846  32.563  12.874
49380W        W 8674   0.863  19.742  14.784
49381W        W 8675  15.129  43.284   4.607
49382W        W 8676   1.478   6.252   3.387
49383W        W 8677  15.727  32.541   0.272
49384W        W 8678  31.423  18.081  14.919
49385W        W 8679   8.809   1.961   0.387
49386W        W 8680  42.373  38.334   4.121
49387W        W 8681  37.523  44.914   0.834
49388W        W 8682   2.416  16.760  12.057
49389W        W 8683  43.974  28.446  10.491
49390W        W 8684  13.202  38.884   9.970
49391W        W 8685  18.297  17.740  13.426
49392W        W 8686  41.326   8.857   4.675
49393W        W 8687  25.164  29.489  13.538
49394W        W 8688  44.479  37.859  13.856
49395W        W 8689   0.488   9.835  11.405
49396W        W 8690  36.895  19.657   2.851
49397W        W 8691   8.675   4.708   3.700
49398W        W 8692  32.558   1.776   2.213
49399W        W 8693  10.721  19.597  14.905
49400W        W 8694  42.502   6.221   2.787
49401W        W 8695  42.939   5.398   4.229
49402W        W 8696  13.662   3.264   0.771
49403W        W 8697  38.423  30.990   1.754
49404W        W 8698  44.466  25.027  10.519
49405W        W 8699  27.486  26.131  13.981
49406W        W 8700  37.974   8.816   1.354
49407W        W 8701  41.307  38.921   3.673
49408W        W 8702   9.359  13.713  13.895
49409W        W 8703   9.177  18.265   2.858
49410W        W 8704  12.282   7.182  10.969
49411W        W 8705   3.291   3.280  11.880
49412W        W 8706   5.201  16.615   3.382
49413W        W 8707  27.956  32.952  10.535
49414W        W 8708  32.560  11.230   4.218
49415W        W 8709   7.684  21.544   2.273
49416W        W 8710  29.466  23.681  13.434
49417W        W 8711  38.460  37.506  12.942
49418W        W 8712  42.316   7.270  11.505
49419W        W 8713  19.700  33.552   4.310
49420W        W 8714   5.819  11.692  10.605
49421W        W 8715  32.632  12.122   4.152
49422W        W 8716   5.820  25.618   1.910
49423W        W 8717  22.219   7.317   3.855
49424W        W 8718   7.823   4.317   3.859
49425W        W 8719  32.511  21.115  10.104
49426W        W 8720  14.300  43.271   3.258
49427W        W 8721  10.178  18.545   1.268
49428W        W 8722  12.798  13.602  10.413
49429W        W 8723  18.187  38.429  12.888
49430W        W 8724  19.232  30.644  13.816
49431W        W 8725   8.377  10.729   3.229
49432W        W 8726  28.531  30.613   0.334
49433W        W 8727  41.038  41.466   0.909
49434W        W 8728  29.571  34.507   1.772
49435W        W 8729   4.867  37.533   0.858
49436W        W 8730  26.557   2.761   2.286
49437W        W 8731   1.402  20.120  14.897
49438W        W 8732  13.215  35.917   2.370
49439W        W 8733   6.312  35.944   2.697
49440W        W 8734  11.857  12.797  14.816
49441W        W 8735  43.508  22.050   2.384
49442W        W 8736   1.430  23.184   2.723
49443W        W 8737  35.108  23.016   1.901
49444W        W 8738  16.215   2.776   4.837
49445W        W 8739   2.805  40.476   3.366
49446W        W 8740  32.396  39.363  11.993
49447W        W 8741   8.249  20.740   9.611
49448W        W 8742  37.032   3.818   4.601
49449W        W 8743  35.377   5.836   0.309
49450W        W 8744   9.802   0.985   0.735
49451W        W 8745  29.144  15.129   2.841
49452W        W 8746   3.316  16.696   4.781
49453W        W 8747  16.230  11.164  13.916
49454W        W 8748  14.746  33.424   1.271
49455W        W 8749  10.244  25.175  11.964
49456W        W 8750   8.778  21.551   1.277
49457W        W 8751   1.245   5.401  10.920
49458W        W 8752  25.000  43.408   5.264
49459W        W 8753  33.601  18.286   4.637
49460W        W 8754  23.623  26.133  11.112
49461W        W 8755  37.988  29.154  14.467
49462W        W 8756   1.365  25.983  11.596
49463W        W 8757  38.849  24.703  11.442
49464W        W 8758   4.813  22.139  13.011
49465W        W 8759  32.595  41.517   1.849
49466W        W 8760  29.571   3.772  13.882
49467W        W 8761  40.842  37.871  11.600
49468W        W 8762  29.171  37.061  10.520
49469W        W 8763  24.647  19.754  13.830
49470W        W 8764  30.602  43.449  14.767
49471W        W 8765  23.018  24.027   4.628
49472W        W 8766  32.413  39.425  12.455
49473W        W 8767  17.608   1.802  12.560
49474W        W 8768  18.279  37.503   1.736
49475W        W 8769  25.605   9.745  14.389
49476W        W 8770  25.967   0.336   4.613
49477W        W 8771  15.674  33.954  14.804
49478W        W 8772  39.059  40.897   0.275
49479W        W 8773  42.431  31.911  12.069
49480W        W 8774  20.612   1.750  11.454
49481W        W 8775   1.446  14.211  14.318
49482W        W 8776  27.452  43.271  13.000
49483W        W 8777  17.575   8.207  11.492
49484W        W 8778  25.084  33.959  14.784
49485W        W 8779  43.432  43.272  11.911
49486W        W 8780   0.969  16.204   3.346
49487W        W 8781   6.428  21.633   0.435
49488W        W 8782  31.058   4.884   0.279
49489W        W 8783  35.469  41.475   3.769
49490W        W 8784   0.838  35.072   0.426
49491W        W 8785  28.947   2.735   4.745
49492W        W 8786  26.195  42.420   2.263
49493W        W 8787   7.196  24.169   3.755
49494W        W 8788  28.074  11.867  12.837
49495W        W 8789  10.763   6.428   2.324
49496W        W 8790   7.358  14.628  13.947
49497W        W 8791  18.692  17.722   0.857
49498W        W 8792  34.092  41.479   3.630
49499W        W 8793  43.391  35.505   4.788
49500W        W 8794  38.975   7.862   4.216
49501W        W 8795  29.563   6.899  13.920
49502W        W 8796   1.304  44.456  11.088
49503W        W 8797  20.576  20.141   2.820
49504W        W 8798  20.250  12.732  14.389
49505W        W 8799  25.614  39.046  11.120
49506W        W 8800  44.502  31.079  13.542
49507W        W 8801   9.168   1.790   1.320
49508W        W 8802   3.336  42.316   0.440
49509W        W 8803  39.543  21.222   4.175
49510W        W 8804  25.059  31.087   4.684
49511W        W 8805  44.378   0.907  12.849
49512W        W 8806  26.679  27.578  14.445
49513W        W 8807  26.027  41.390  11.529
49514W        W 8808  28.065  26.002  12.954
49515W        W 8809  33.108  13.221   3.321
49516W        W 8810  31.589   3.366  13.835
49517W        W 8811   4.289  26.486  13.925
49518W        W 8812  24.691  18.230  14.953
49519W        W 8813   5.383  32.535   4.235
49520W        W 8814  15.736   1.977   2.866
49521W        W 8815  16.630  40.449  12.386
49522W        W 8816   2.897  31.528   1.883
49523W        W 8817   9.156   4.335   0.847
49524W        W 8818  36.353  34.397   0.480
49525W        W 8819   0.493  24.483   4.247
49526W        W 8820   3.331  25.551  13.935
49527W        W 8821  15.208  44.857  12.025
49528W        W 8822  30.036  12.130   0.242
49529W        W 8823  27.133   5.272   1.909
49530W        W 8824  10.342   6.913  14.798
49531W        W 8825  41.828  36.887   0.337
49532W        W 8826   2.791  14.834  14.013
49533W        W 8827  32.115  14.688  11.049
49534W        W 8828  22.580  41.504  14.780
49535W        W 8829  40.447  18.127   9.955
49536W        W 8830  32.893  29.052   2.854
49537W        W 8831  22.668  16.651   0.848
49538W        W 8832   7.761  26.032   1.386
49539W        W 8833  30.927   3.329   2.270
49540W        W 8834   3.819  27.644  13.906
49541W        W 8835   9.307   9.273  10.546
49542W        W 8836  25.588  22.082   3.747
49543W        W 8837  24.992  12.668   1.703
49544W        W 8838  25.698   3.810  10.587
49545W        W 8839  31.911  24.607  11.533
49546W        W 8840  37.567  24.181  14.879
49547W        W 8841  40.405   9.311  11.416
49548W        W 8842  33.584  23.229  10.975
49549W        W 8843  14.238   7.191   3.631
49550W        W 8844  26.037  30.979   1.742
49551W        W 8845   1.322  36.577  12.092
49552W        W 8846   1.963  40.953  13.839
49553W        W 8847  37.917   7.738  11.477
49554W        W 8848  24.604  34.973   0.298
49555W        W 8849  41.879  13.115   3.725
49556W        W 8850  32.006   2.871   2.774
49557W        W 8851  34.519  11.710   4.759
49558W        W 8852  19.072  36.357  10.908
49559W        W 8853  40.430   6.309   0.387
49560W        W 8854  17.746   9.675  14.000
49561W        W 8855  10.312  28.554  14.984
49562W        W 8856   8.311   9.828  13.514
49563W        W 8857  43.861   1.799  12.346
49564W        W 8858  29.508   4.871   2.403
49565W        W 8859  23.642   6.809   3.754
49566W        W 8860  33.425  14.816   1.769
49567W        W 8861  14.098  41.895   3.310
49568W        W 8862  31.597  13.350   3.725
49569W        W 8863  16.308  14.302  13.421
49570W        W 8864  22.014  20.616   4.266
49571W        W 8865  20.696   4.910  11.857
49572W        W 8866  33.616  15.134   9.989
49573W        W 8867   4.357  27.135  10.943
49574W        W 8868  10.280  31.501  13.865
49575W        W 8869  34.514  18.280   2.745
49576W        W 8870  11.854   2.349   0.765
49577W        W 8871  35.917  44.417  10.888
49578W        W 8872   7.326  41.830  13.977
49579W        W 8873  18.619   1.297   3.320
49580W        W 8874  43.837  37.428   2.370
49581W        W 8875  32.478  43.860   0.365
49582W        W 8876   9.659   5.687   4.627
49583W        W 8877  23.497   3.746  10.958
49584W        W 8878  12.170  24.586   4.749
49585W        W 8879   9.392  16.803   0.428
49586W        W 8880  13.604  28.633  13.949
49587W        W 8881  36.931  10.867   1.235
49588W        W 8882  34.875  11.176   3.194
49589W        W 8883   5.708  33.405  10.579
49590W        W 8884   2.353  27.449   0.350
49591W        W 8885  11.711  43.305   1.927
49592W        W 8886  22.187  44.327  12.446
49593W        W 8887   1.965  20.563  10.506
49594W        W 8888  25.035  38.490   1.336
49595W        W 8889   4.397  24.700  11.605
49596W        W 8890  17.688  12.664   0.796
49597W        W 8891  26.205  18.125   2.329
49598W        W 8892  13.717  40.971  12.580
49599W        W 8893  43.278  15.581  10.453
49600W        W 8894  16.102   9.260  10.537
49601W        W 8895  43.877  12.833   3.702
49602W        W 8896  16.641  29.659   4.310
49603W        W 8897  43.451  39.356   0.416
49604W        W 8898   2.928  29.045  14.300
49605W        W 8899  26.054  32.124   3.726
49606W        W 8900   4.376  14.256  12.517
49607W        W 8901  12.139  23.685  11.388
49608W        W 8902  26.960  16.075  10.410
49609W        W 8903  33.539  31.981  14.990
49610W        W 8904  43.966   3.944  14.290
49611W        W 8905  25.124  18.242   1.395
49612W        W 8906   2.966   0.976  10.437
49613W        W 8907  41.814  31.051  11.871
49614W        W 8908   3.763  30.912  10.525
49615W        W 8909  10.730  15.300   2.696
49616W        W 8910   0.272  16.748   4.349
49617W        W 8911  35.877  14.323   4.776
49618W        W 8912  24.700  38.038   4.309
49619W        W 8913  32.938   0.827  10.898
49620W        W 8914   3.252  43.939  13.493
49621W        W 8915  14.766   5.283   4.303
49622W        W 8916  13.780  16.188  14.504
49623W        W 8917  34.543  44.793   3.686
49624W        W 8918  28.129  27.565   1.701
49625W        W 8919   7.340  22.227  12.940
49626W        W 8920  29.506  15.198  11.914
49627W        W 8921  15.319   2.433   2.279
49628W        W 8922  43.346  21.225   2.282
49629W        W 8923   6.905  35.969  11.127
49630W        W 8924   6.280  14.796   1.282
49631W        W 8925   5.746  14.603   1.797
49632W        W 8926  18.574  11.846  13.386
49633W        W 8927  26.560  11.337  11.123
49634W        W 8928  14.114   1.849   0.388
49635W        W 8929   2.964  43.882  14.428
49636W        W 8930  23.208  22.585  10.912
49637W        W 8931  10.246  42.867   2.851
49638W        W 8932   2.247  16.583   2.793
49639W        W 8933   1.315  35.421   3.651
49640W        W 8934   5.336  40.381  11.933
49641W        W 8935  44.000  16.674  14.373
49642W        W 8936  37.502  33.419  12.957
49643W        W 8937  32.131  44.941  11.456
49644W        W 8938  30.428   9.872   0.774
49645W        W 8939  19.629  39.456  10.490
49646W        W 8940   1.341  30.994   3.162
49647W        W 8941   6.859  16.807  14.859
49648W        W 8942   8.267  25.497  11.537
49649W        W 8943  14.339  20.666  13.453
49650W        W 8944  38.514  36.051   5.273
49651W        W 8945   4.310  41.963   1.425
49652W        W 8946  34.979  34.567  11.504
49653W        W 8947  31.978  28.045  12.842
49654W        W 8948   0.313  38.968  12.361
49655W        W 8949  37.965   0.377   0.948
49656W        W 8950  11.687  43.318   1.385
49657W        W 8951  14.743   1.947  14.850
49658W        W 8952  13.693  28.085   0.400
49659W        W 8953  31.951  42.933  13.815
49660W        W 8954   3.709  24.666  12.436
49661W        W 8955  27.545  13.729  11.993
49662W        W 8956   4.340   2.302   3.764
49663W        W 8957  31.940  23.556  11.965
49664W        W 8958  32.930  32.080  14.770
49665W        W 8959  44.435  16.671   4.797
49666W        W 8960  38.059  24.487   3.236
49667W        W 8961  19.660  21.662   1.387
49668W        W 8962  12.814  31.073  11.070
49669W        W 8963  16.579  14.120   3.165
49670W        W 8964  14.336  33.892   0.406
49671W        W 8965  13.336  34.018  12.827
49672W        W 8966   4.206  43.477  11.516
49673W        W 8967  19.197   4.228   3.740
49674W        W 8968   9.828  37.505   0.360
49675W        W 8969  16.106   9.238  12.984
49676W        W 8970  22.627  16.286  12.861
49677W        W 8971  38.882  18.667  10.404
49678W        W 8972  23.559  14.254   2.677
49679W        W 8973  38.358  23.700   3.647
49680W        W 8974  18.144  18.548   0.403
49681W        W 8975   0.418  41.973   2.843
49682W        W 8976  12.145  16.803  12.413
49683W        W 8977  35.465   5.206   0.457
49684W        W 8978  29.629  18.226   0.270
49685W        W 8979   4.256   3.930   4.170
49686W        W 8980  28.072  25.054   2.386
49687W        W 8981   4.713  32.129  10.897
49688W        W 8982  17.649  24.526  14.866
49689W        W 8983  26.039   0.968  11.417
49690W        W 8984  12.697   2.446  12.088
49691W        W 8985  10.783  14.721  13.952
49692W        W 8986  43.278  29.954   1.258
49693W        W 8987  34.501  40.945   0.362
49694W        W 8988  21.044  28.035   4.226
49695W        W 8989  39.933   2.867   1.365
49696W        W 8990   6.202  15.197  12.957
49697W        W 8991  14.255  27.632  14.771
49698W        W 8992  15.589   1.813  14.396
49699W        W 8993  29.070  23.657   3.259
49700W        W 8994   9.889  18.658  12.957
49701W        W 8995  11.698  25.704   2.181
49702W        W 8996  42.936  43.952   5.286
49703W        W 8997   3.903   4.847   4.160
49704W        W 8998  40.970  42.030  11.870
49705W        W 8999   9.656   4.722   1.354
49706W        W 9000  17.666  23.082   3.729
49707W        W 9001  40.309  42.440   3.660
49708W        W 9002  41.878  38.991   2.676
49709W        W 9003  42.786  18.248   1.298
49710W        W 9004   4.841   0.417   1.435
49711W        W 9005  24.621   9.232  12.391
49712W        W 9006   7.757  14.327  11.437
49713W        W 9007  22.623  39.955  13.017
49714W        W 9008  35.869  15.680   4.735
49715W        W 9009  11.358  30.104   2.391
49716W        W 9010   0.968   1.480  12.079
49717W        W 9011  16.136  28.565  11.084
49718W        W 9012  30.536  35.483   3.639
49719W        W 9013  14.287   4.327  10.532
49720W        W 9014  40.366  31.515  13.028
49721W        W 9015  39.337  31.521   4.262
49722W        W 9016  36.906  37.843   4.341
49723W        W 9017  15.728  43.998  14.929
49724W        W 9018  34.559   1.821  12.071
49725W        W 9019  24.627   1.326  11.019
49726W        W 9020  43.487  43.443   4.158
49727W        W 9021  10.188  31.526  14.959
49728W        W 9022  37.413   9.742  10.890
49729W        W 9023  40.923  24.624   2.755
49730W        W 9024  32.113   6.290   2.668
49731W        W 9025   4.418  17.086  11.089
49732W        W 9026  28.513  15.787   4.236
49733W        W 9027  44.865  22.115  14.946
49734W        W 9028  42.480  13.793  12.995
49735W        W 9029  25.194  13.211  12.359
49736W        W 9030  37.431  40.351   4.784
49737W        W 9031  24.610  34.450   1.223
49738W        W 9032  42.359  42.402   4.197
49739W        W 9033   1.392  32.540  13.370
49740W        W 9034  12.746  22.504   2.868
49741W        W 9035  36.894  40.910  12.349
49742W        W 9036  23.665  25.197   2.309
49743W        W 9037   2.758  10.656   1.703
49744W        W 9038  16.732  27.687  12.395
49745W        W 9039  39.930  20.029  11.878
49746W        W 9040  41.998  31.024  13.455
49747W        W 9041  34.898  18.663  13.363
49748W        W 9042  12.843  37.424   5.105
49749W        W 9043  29.565  40.303  11.935
49750W        W 9044  10.227  30.086  10.465
49751W        W 9045  31.632  28.573   2.285
49752W        W 9046  12.707  34.110  14.434
49753W        W 9047  43.411  16.669   0.436
49754W        W 9048  20.104  35.386  10.973
49755W        W 9049  37.352   2.361   5.213
49756W        W 9050  27.562   3.889  13.359
49757W        W 9051   6.843  38.464  10.998
49758W        W 9052  32.965  32.915  11.870
49759W        W 9053  21.718  19.137  10.462
49760W        W 9054  38.423  15.151  11.451
49761W        W 9055  29.668  32.565   1.214
49762W        W 9056   8.348  15.780  14.409
49763W        W 9057  35.990  12.145  14.890
49764W        W 9058  23.057   1.813  10.458
49765W        W 9059  35.009  34.019  12.962
49766W        W 9060  26.607  27.098  11.492
49767W        W 9061  11.141  32.530   3.365
49768W        W 9062  24.668  27.972   3.323
49769W        W 9063  12.666  20.219   1.244
49770W        W 9064  35.503  30.564  10.977
49771W        W 9065  26.015  37.368   5.256
49772W        W 9066  15.808  32.442   5.256
49773W        W 9067  18.548  35.548   4.268
49774W        W 9068  21.110  40.942  11.396
49775W        W 9069  12.731  13.682   9.464
49776W        W 9070  34.458   8.884   1.261
49777W        W 9071   4.786   2.945   0.850
49778W        W 9072  33.012   4.379  13.348
49779W        W 9073  27.564  39.349   1.414
49780W        W 9074  23.690  20.609  10.587
49781W        W 9075  20.201  16.673  13.375
49782W        W 9076  29.052  16.269  14.932
49783W        W 9077  13.836   9.873  12.829
49784W        W 9078  22.641  30.033  10.615
49785W        W 9079  10.384  36.911  14.278
49786W        W 9080  13.805  40.901   2.397
49787W        W 9081  35.053  13.693  10.596
49788W        W 9082  10.371  34.968  11.943
49789W        W 9083   8.370   9.730  12.903
49790W        W 9084   7.344   1.731  11.930
49791W        W 9085  30.575  41.506  13.025
49792W        W 9086  29.009  32.565   4.811
49793W        W 9087  29.439  37.905  11.017
49794W        W 9088  13.791   4.294  12.466
49795W        W 9089   5.268  33.003  14.825
49796W        W 9090   5.858  36.467  10.985
49797W        W 9091  18.158   8.770  11.981
49798W        W 9092  28.485  25.562  12.847
49799W        W 9093  38.010  30.122   0.788
49800W        W 9094  12.142  22.544  13.009
49801W        W 9095  25.683  36.512   3.304
49802W        W 9096   4.293   2.468   4.176
49803W        W 9097  16.769  18.163   1.767
49804W        W 9098   7.673  14.163  10.605
49805W        W 9099  35.880  22.080  12.017
49806W        W 9100   6.398  36.568   3.680
49807W        W 9101   2.392  26.672   2.383
49808W        W 9102   5.691   6.354  14.477
49809W        W 9103  15.789   1.373   2.325
49810W        W 9104  44.356  25.620  10.994
49811W        W 9105  40.351   2.233  11.442
49812W        W 9106  17.626  22.130  14.002
49813W        W 9107  43.339  16.661   2.245
49814W        W 9108  21.746  39.919   0.303
49815W        W 9109   7.877  11.824  12.979
49816W        W 9110  25.151  44.887   0.400
49817W        W 9111  28.952  10.137  12.470
49818W        W 9112  23.558  38.996  10.451
49819W        W 9113  27.091  41.873  14.316
49820W        W 9114   9.318  26.991  13.343
49821W        W 9115  11.672   1.407  11.085
49822W        W 9116  33.554  12.765  12.950
49823W        W 9117  37.411  19.695   3.679
49824W        W 9118  32.921  31.112   0.462
49825W        W 9119   2.823  40.841   4.613
49826W        W 9120  35.064   0.309   9.973
49827W        W 9121  32.631  16.268   0.439
49828W        W 9122  24.139   5.874   3.345
49829W        W 9123  13.750  25.181  10.589
49830W        W 9124  24.553  32.890  14.865
49831W        W 9125   6.233   2.471   0.446
49832W        W 9126  29.043  35.017   0.792
49833W        W 9127   4.710   6.390   3.274
49834W        W 9128  41.890  36.412  12.041
49835W        W 9129  33.505  29.037  12.829
49836W        W 9130  21.665  10.669  12.349
49837W        W 9131  38.969  23.512  10.463
49838W        W 9132   6.700  36.010   3.793
49839W        W 9133   2.308   8.214  14.962
49840W        W 9134   3.930  44.004   0.450
49841W        W 9135  33.415  10.197   0.402
49842W        W 9136  18.122  44.773   3.244
49843W        W 9137  18.790  41.851   2.750
49844W        W 9138   2.250  19.073  13.940
49845W        W 9139  23.173  12.350  12.030
49846W        W 9140  34.542   2.721  12.346
49847W        W 9141  16.702  38.503   4.125
49848W        W 9142  38.000  28.166   3.727
49849W        W 9143  31.075  13.752  14.505
49850W        W 9144  15.306  36.521  11.026
49851W        W 9145  17.580  26.547  10.411
49852W        W 9146   4.237   5.420   2.857
49853W        W 9147  12.331   8.832  10.538
49854W        W 9148   9.742  43.872  10.931
49855W        W 9149  11.690  33.605  11.450
49856W        W 9150  20.650  16.806   3.712
49857W        W 9151  40.385  11.129   4.635
49858W        W 9152  32.437  17.092   3.859
49859W        W 9153  10.780  28.681   1.236
49860W        W 9154  15.187  44.932   4.676
49861W        W 9155   7.883   7.778  10.916
49862W        W 9156  13.633  38.847   0.254
49863W        W 9157  12.724  29.946  12.874
49864W        W 9158  43.988  34.607  14.323
49865W        W 9159  18.087  10.197   4.168
49866W        W 9160  25.691   7.724   4.234
49867W        W 9161  22.128  10.741   3.693
49868W        W 9162  23.502  36.569   0.290
49869W        W 9163   1.418  19.671   2.811
49870W        W 9164  15.264   2.858  14.448
49871W        W 9165  23.132  19.167  11.478
49872W        W 9166   3.371  31.451   0.946
49873W        W 9167   9.249   8.802  13.326
49874W        W 9168  24.674  33.491   2.295
49875W        W 9169  35.964   1.281   0.950
49876W        W 9170  30.619   1.451  14.855
49877W        W 9171   5.873  18.284   1.298
49878W        W 9172  44.759  28.474  13.975
49879W        W 9173   2.763  25.571  11.122
49880W        W 9174  11.205   8.178  12.896
49881W        W 9175  40.478  35.396   9.631
49882W        W 9176  43.332  43.018  13.515
49883W        W 9177  23.676  11.135   4.686
49884W        W 9178  22.602  18.162  13.487
49885W        W 9179   6.707  28.495   0.393
49886W        W 9180  30.467  10.358  10.890
49887W        W 9181  34.102  42.823  11.593
49888W        W 9182   4.699  20.114   9.642
49889W        W 9183   1.821  34.100  14.324
49890W        W 9184   1.817  24.565  11.922
49891W        W 9185  15.596  16.271   4.686
49892W        W 9186  33.973  18.106  11.906
49893W        W 9187  33.024  18.730  10.949
49894W        W 9188  19.193  24.028  12.977
49895W        W 9189  13.279  20.748  14.979
49896W        W 9190  41.022  28.109   0.247
49897W        W 9191  41.482  15.761  14.358
49898W        W 9192   2.417   0.972  11.057
49899W        W 9193  36.373  26.069  11.048
49900W        W 9194   6.902   4.416   2.822
49901W        W 9195  38.428  14.321   0.940
49902W        W 9196   8.849  16.319   0.268
49903W        W 9197  29.440  35.962  11.078
49904W        W 9198  34.394   5.265  12.873
49905W        W 9199  16.602  17.139   1.379
49906W        W 9200  10.234  10.650  13.317
49907W        W 9201  38.001  23.015  11.056
49908W        W 9202  41.996  42.017  14.851
49909W        W 9203  23.614  40.448   2.289
49910W        W 9204  37.003   4.785   0.297
49911W        W 9205  25.492  27.459   4.764
49912W        W 9206   3.418  36.846   2.226
49913W        W 9207   3.336  33.942  12.012
49914W        W 9208  16.082  19.655  12.036
49915W        W 9209  25.695   1.441  14.500
49916W        W 9210  36.467  37.962   4.318
49917W        W 9211  24.171  44.863  10.446
49918W        W 9212  38.821   1.756  12.353
49919W        W 9213  29.431  30.651  12.410
49920W        W 9214  12.745  17.638   0.898
49921W        W 9215  29.047  17.610  14.786
49922W        W 9216   8.812  16.271   3.287
49923W        W 9217  40.908  23.005   0.834
49924W        W 9218  44.009   5.825  11.855
49925W        W 9219  24.039   1.310  12.412
49926W        W 9220  14.301   8.783   4.185
49927W        W 9221  22.206  10.311  10.980
49928W        W 9222  42.832  14.797   2.901
49929W        W 9223  14.689  31.618   2.740
49930W        W 9224  35.044  22.163   0.271
49931W        W 9225  41.426  38.568   0.836
49932W        W 9226   4.238  22.177   0.937
49933W        W 9227  31.989  38.336  11.859
49934W        W 9228  16.122  20.534  13.444
49935W        W 9229  31.486  35.859   3.816
49936W        W 9230  27.052  17.654   4.267
49937W        W 9231  37.550   3.419   0.915
49938W        W 9232  43.785  19.673   1.238
49939W        W 9233  21.634  24.125   4.273
49940W        W 9234   8.704  14.250  11.061
49941W        W 9235  15.792  19.738   3.176
49942W        W 9236  25.595   5.403  14.888
49943W        W 9237  18.100  19.163  12.563
49944W        W 9238  28.055  19.715  14.903
49945W        W 9239  35.007  24.717   4.774
49946W        W 9240  15.741  34.869   1.919
49947W        W 9241  13.179   2.797   4.688
49948W        W 9242  39.028  42.878   1.344
49949W        W 9243   6.377   1.434   9.461
49950W        W 9244  24.665  37.425   4.744
49951W        W 9245  31.059   8.712   1.892
49952W        W 9246   6.199  24.664   4.344
49953W        W 9247  13.148   7.352  13.955
49954W        W 9248  34.029  15.204  13.980
49955W        W 9249  25.211  38.403  11.463
49956W        W 9250  35.397  39.925   0.846
49957W        W 9251  25.665  14.095   4.202
49958W        W 9252  34.973  21.142   0.737
49959W        W 9253  35.066  27.117  12.037
49960W        W 9254  12.283  31.624  13.804
49961W        W 9255  32.464  39.915  11.990
49962W        W 9256   8.316  17.743  10.449
49963W        W 9257   0.799   7.401  14.381
49964W        W 9258  20.275  27.506  11.888
49965W        W 9259  25.646  26.682   0.292
49966W        W 9260  14.704  43.483  12.989
49967W        W 9261  26.179  14.111  12.447
49968W        W 9262  12.128  27.142  14.468
49969W        W 9263   7.387  40.939  12.392
49970W        W 9264  15.753   1.340   3.337
49971W        W 9265  29.445  21.514   3.241
49972W        W 9266  25.148  11.289   1.929
49973W        W 9267  38.359   0.356  13.488
49974W        W 9268  38.060   8.363   2.210
49975W        W 9269  18.139  28.555   1.231
49976W        W 9270  40.921  20.164  12.525
49977W        W 9271   6.341  22.161   1.377
49978W        W 9272   9.228  42.852   1.768
49979W        W 9273  35.363   4.807   1.329
49980W        W 9274  10.761  16.262  13.879
49981W        W 9275  13.762  22.128   9.927
49982W        W 9276  37.527  13.309  14.362
49983W        W 9277  15.592  10.733  14.473
49984W        W 9278  19.176  22.596  11.867
49985W        W 9279  44.946  32.603  11.442
49986W        W 9280   5.379  35.548   0.466
49987W        W 9281  26.496   8.842   3.754
49988W        W 9282  38.946  39.492  12.002
49989W        W 9283   6.762  40.367  11.530
49990W        W 9284  40.030  13.720  13.402
49991W        W 9285  14.287  18.086  12.538
49992W        W 9286  42.398  40.035  10.461
49993W        W 9287  25.659  44.786  13.903
49994W        W 9288  36.995   0.953   3.223
49995W        W 9289  23.674  14.272   3.248
49996W        W 9290  26.524   8.164   0.836
49997W        W 9291  28.028  40.956   2.738
49998W        W 9292  44.412  42.911   2.878
49999W        W 9293  11.738  19.065   3.674
50000W        W 9294  25.633  22.521  12.510
50001W        W 9295   2.753  36.466  14.800
50002W        W 9296  38.832  15.237  13.407
50003W        W 9297  19.162  19.244   3.689
50004W        W 9298  25.124  20.624  10.618
50005W        W 9299   1.884  29.442   1.782
50006W        W 9300  13.289   4.311  13.396
50007W        W 9301  38.934  21.560   3.660
50008W        W 9302  35.020  22.747  11.052
50009W        W 9303  19.780  15.809   1.836
50010W        W 9304  23.197  34.920   2.275
50011W        W 9305  33.008   5.389  14.027
50012W        W 9306   2.454  31.507  11.492
50013W        W 9307  41.943   8.871  14.818
50014W        W 9308  34.545  15.732  12.038
50015W        W 9309   3.819  20.090  13.991
50016W        W 9310  35.031   4.742  13.515
50017W        W 9311  24.136  25.969  12.436
50018W        W 9312  39.885  43.800   1.279
50019W        W 9313  22.222  18.667   3.203
50020W        W 9314  26.119   3.224   2.869
50021W        W 9315   1.978  17.749  10.951
50022W        W 9316  42.497   3.948  12.472
50023W        W 9317  16.089   4.864   1.789
50024W        W 9318  26.649  44.783   1.423
50025W        W 9319  34.426   0.420   2.754
50026W        W 9320  39.849   8.214   2.187
50027W        W 9321  28.084  29.446   5.254
50028W        W 9322  21.172   1.337   3.207
50029W        W 9323  23.184  37.414   2.735
50030W        W 9324   2.415  31.096  14.867
50031W        W 9325   4.434  20.045  10.412
50032W        W 9326   8.197   7.224  11.556
50033W        W 9327  25.050   0.494  12.468
50034W        W 9328  11.155   1.325  10.559
50035W        W 9329  40.882  33.592   0.892
50036W        W 9330   0.371  22.006  11.869
50037W        W 9331  37.391  13.184   2.675
50038W        W 9332  16.276   4.302  12.994
50039W        W 9333  40.314   7.843   4.768
50040W        W 9334  36.932  38.023   1.790
50041W        W 9335  34.889  40.822   0.454
50042W        W 9336  12.770  30.443  11.065
50043W        W 9337  32.442  31.476  11.452
50044W        W 9338  32.064  10.192  13.431
50045W        W 9339   6.715   4.376  14.897
50046W        W 9340  10.159   5.881  10.980
50047W        W 9341  33.574  22.135   1.755
50048W        W 9342  39.460  29.648  12.083
50049W        W 9343  11.681  19.644  14.992
50050W        W 9344  10.648  35.957  13.046
50051W        W 9345  15.691  43.892  11.907
50052W        W 9346  24.606  43.400  11.107
50053W        W 9347  31.148  40.845  12.024
50054W        W 9348  13.209  13.817  13.417
50055W        W 9349   3.892  33.120  10.515
50056W        W 9350  24.045  25.580  12.433
50057W        W 9351   2.812   0.876   1.914
50058W        W 9352  35.412  40.397  12.573
50059W        W 9353   9.875  36.056  11.033
50060W        W 9354  13.212   1.385  10.591
50061W        W 9355   4.206  41.867  14.941
50062W        W 9356  23.076  30.637   4.138
50063W        W 9357  23.600  38.444  14.782
50064W        W 9358  29.941  40.824   3.800
50065W        W 9359   1.349  21.534   0.875
50066W        W 9360  41.365  20.150   1.242
50067W        W 9361  31.500  10.852   3.377
50068W        W 9362  27.648   2.805  10.535
50069W        W 9363   7.383   0.292   3.701
50070W        W 9364  16.650   7.760  11.498
50071W        W 9365  16.747  40.889   0.342
50072W        W 9366  39.463  27.949  10.423
50073W        W 9367  32.932  38.531   0.410
50074W        W 9368  19.634  29.526   4.753
50075W        W 9369   6.210  18.690   3.812
50076W        W 9370  27.628  41.818   2.342
50077W        W 9371  38.916   5.293   2.802
50078W        W 9372  20.696  18.677   0.936
50079W        W 9373   8.750  20.267  11.055
50080W        W 9374  28.968  28.990  13.543
50081W        W 9375   9.183  10.205   0.254
50082W        W 9376  15.185  15.823  12.862
50083W        W 9377  43.488   7.402   1.370
50084W        W 9378  24.481  42.932   0.886
50085W        W 9379  41.834  32.037   0.911
50086W        W 9380  28.603  11.284  13.411
50087W        W 9381  27.040   8.198   5.164
50088W        W 9382  37.422  40.375   2.888
50089W        W 9383  24.716  31.995   4.752
50090W        W 9384  10.857  38.427  14.983
50091W        W 9385  12.720  41.043  14.031
50092W        W 9386  32.105  25.613   4.714
50093W        W 9387  18.137  36.592   0.438
50094W        W 9388  34.591  40.922  10.406
50095W        W 9389  40.997   3.405  13.333
50096W        W 9390  35.461  35.419  11.946
50097W        W 9391  33.550  40.926  14.848
50098W        W 9392  22.196   6.343   3.301
50099W        W 9393   5.417   0.757  11.902
50100W        W 9394  37.886  18.686   2.720
50101W        W 9395  18.104   4.267  12.091
50102W        W 9396   2.915  42.505   4.706
50103W        W 9397  43.995  35.963   1.914
50104W        W 9398   1.360  35.083  14.425
50105W        W 9399  33.556  19.691  10.990
50106W        W 9400  31.545  19.723  11.927
50107W        W 9401   1.429  40.476  12.056
50108W        W 9402  24.102   0.286   0.332
50109W        W 9403  18.068  28.447   2.685
50110W        W 9404  26.073   1.368  10.945
50111W        W 9405   1.939  32.030   0.406
50112W        W 9406   8.676  44.879   9.549
50113W        W 9407  22.083   7.834   3.762
50114W        W 9408   2.947  19.726  12.033
50115W        W 9409   7.708  25.660   1.296
50116W        W 9410  32.471   8.789   1.882
50117W        W 9411  40.333  26.171  11.519
50118W        W 9412  18.269  43.782  12.050
50119W        W 9413  33.114  36.496  11.500
50120W        W 9414  11.221   0.387   0.826
50121W        W 9415   1.899  16.667  14.947
50122W        W 9416  15.658   8.279   2.901
50123W        W 9417  37.456  25.212   3.191
50124W        W 9418  17.660  33.105   2.241
50125W        W 9419  34.007  12.153  10.936
50126W        W 9420  29.525  28.512   3.146
50127W        W 9421  41.376   4.249   0.266
50128W        W 9422  36.575  29.022   0.263
50129W        W 9423   2.225  40.336  13.535
50130W        W 9424   4.877  33.480   3.630
50131W        W 9425   9.189   3.794  10.909
50132W        W 9426  27.679   8.696   3.165
50133W        W 9427  11.159  11.789  11.063
50134W        W 9428  30.474  41.408  14.800
50135W        W 9429  34.057  22.673  10.066
50136W        W 9430  18.219   0.937  11.394
50137W        W 9431  21.590   3.377   0.408
50138W        W 9432  42.983   9.869   2.684
50139W        W 9433  31.045  26.484  14.976
50140W        W 9434  10.321  11.331  13.321
50141W        W 9435  39.996  26.014  14.353
50142W        W 9436   1.757   3.251   4.644
50143W        W 9437  37.370  30.960  13.050
50144W        W 9438   2.940   8.794   4.807
50145W        W 9439  28.168  18.293   0.404
50146W        W 9440  17.138   8.304  13.032
50147W        W 9441   5.225   8.813  13.846
50148W        W 9442  18.286  29.947   0.338
50149W        W 9443  17.794  29.468   3.686
50150W        W 9444  12.839  17.759  10.596
50151W        W 9445  35.907  40.040   1.698
50152W        W 9446  34.068  15.230  11.534
50153W        W 9447  24.597  21.257   3.660
50154W        W 9448  42.370  29.071   3.368
50155W        W 9449  16.274  11.171   0.748
50156W        W 9450  42.970  41.352   0.283
50157W        W 9451  37.385  35.408   2.747
50158W        W 9452   7.346   7.361  14.997
50159W        W 9453  23.081  25.578   1.752
50160W        W 9454   9.819   4.722  13.421
50161W        W 9455  39.500  28.072  12.974
50162W        W 9456  27.977  22.146  14.925
50163W        W 9457   7.756  18.111  11.126
50164W        W 9458  27.653  41.331   2.320
50165W        W 9459   5.732   2.429   0.404
50166W        W 9460  20.114  21.537  14.337
50167W        W 9461  11.132  13.224  12.827
50168W        W 9462   2.799  19.773  13.028
50169W        W 9463  23.045  39.998  13.900
50170W        W 9464  17.087  36.557   0.242
50171W        W 9465  26.478  39.027   9.440
50172W        W 9466  19.568  26.637   2.327
50173W        W 9467   2.344   3.781  10.529
50174W        W 9468  41.977   9.195  13.794
50175W        W 9469   8.871  30.031  12.899
50176W        W 9470   6.204  15.757  13.986
50177W        W 9471  36.451  35.430   1.903
50178W        W 9472   7.351   2.915  10.139
50179W        W 9473   6.313   4.274  10.452
50180W        W 9474  22.219  13.310   1.696
50181W        W 9475  19.117  43.361   2.327
50182W        W 9476   6.873  22.514  11.467
50183W        W 9477  36.588   9.193   1.255
50184W        W 9478  11.643   3.313  10.956
50185W        W 9479  24.712  44.928  14.806
50186W        W 9480  10.226  33.417   3.309
50187W        W 9481  17.676  32.021  11.022
50188W        W 9482  23.060   4.805   2.234
50189W        W 9483   6.397  39.520  12.368
50190W        W 9484  28.530  12.202  10.620
50191W        W 9485  37.403  39.914   1.232
50192W        W 9486  26.550  37.489  13.845
50193W        W 9487  37.052  12.856  14.388
50194W        W 9488   7.813  35.449   2.843
50195W        W 9489   7.180  32.092  13.939
50196W        W 9490  20.674  32.495  13.040
50197W        W 9491  32.533  15.655  10.070
50198W        W 9492  29.570  32.013  12.354
50199W        W 9493  11.849  35.468   0.920
50200W        W 9494  22.701  34.581  14.976
50201W        W 9495  12.723  32.482   0.954
50202W        W 9496  23.072  34.877  14.453
50203W        W 9497  11.774  23.496   5.250
50204W        W 9498  37.996  43.777  11.103
50205W        W 9499   5.364  17.145   0.770
50206W        W 9500  32.991   2.949   1.750
50207W        W 9501  39.825   3.833   0.779
50208W        W 9502  31.948   3.386   1.845
50209W        W 9503  41.537  28.481  10.899
50210W        W 9504   7.863  25.642  12.374
50211W        W 9505  12.632  32.455  11.506
50212W        W 9506  38.033  28.164  10.500
50213W        W 9507  39.335  14.216   4.636
50214W        W 9508  18.187  24.144   2.752
50215W        W 9509  27.071  17.259  11.895
50216W        W 9510  31.087   6.720   1.725
50217W        W 9511  26.504  28.976   0.309
50218W        W 9512  16.299  37.878  13.015
50219W        W 9513  28.599  21.093  11.382
50220W        W 9514  15.131  39.839   0.389
50221W        W 9515   5.348  19.125  12.831
50222W        W 9516   6.914  21.636  14.861
50223W        W 9517  42.474  39.884   4.164
50224W        W 9518  21.210   8.860   3.782
50225W        W 9519  23.543  36.494  12.904
50226W        W 9520  24.196  39.382  14.832
50227W        W 9521  39.975  40.476  12.036
50228W        W 9522  38.056  12.339   0.778
50229W        W 9523  31.060   3.286   3.697
50230W        W 9524  41.308  12.634  14.881
50231W        W 9525  40.519  13.666   0.345
50232W        W 9526  41.486  43.350   2.341
50233W        W 9527   9.682  22.142   3.158
50234W        W 9528  19.694  15.655  14.005
50235W        W 9529  31.083  14.267   0.395
50236W        W 9530  10.717  40.355  14.827
50237W        W 9531  14.199   7.401   4.774
50238W        W 9532  34.577  35.882  13.057
50239W        W 9533   0.828  34.451   1.283
50240W        W 9534   0.433  37.937  11.901
50241W        W 9535  12.655   8.746  10.549
50242W        W 9536  11.850  37.953   1.746
50243W        W 9537   0.837  26.600  10.974
50244W        W 9538  16.302  31.981   2.761
50245W        W 9539  23.200  24.097   0.966
50246W        W 9540  19.224  17.726   0.818
50247W        W 9541  14.220  14.620  10.915
50248W        W 9542   5.335   2.832  13.980
50249W        W 9543  35.875  19.181  13.836
50250W        W 9544  41.537  32.617  11.420
50251W        W 9545  20.569  20.686  10.598
50252W        W 9546  27.535   9.759   5.607
50253W        W 9547  42.952  13.205   1.774
50254W        W 9548  37.556  41.323  14.493
50255W        W 9549   7.695  31.898   3.666
50256W        W 9550   1.907  25.575  12.364
50257W        W 9551  19.687  30.629   4.243
50258W        W 9552   9.831  23.538  10.991
50259W        W 9553  29.971  12.772  11.069
50260W        W 9554  30.615  28.616  11.584
50261W        W 9555  23.730   0.422   2.273
50262W        W 9556   1.830  36.580  11.488
50263W        W 9557  22.190  39.328   0.395
50264W        W 9558  28.008   3.442  12.398
50265W        W 9559  33.601  15.603   1.245
50266W        W 9560  29.031  23.994   4.202
50267W        W 9561  22.537  37.470   3.296
50268W        W 9562  28.046   0.963   3.372
50269W        W 9563   5.344   7.886  10.982
50270W        W 9564  19.664  35.460  12.081
50271W        W 9565  29.578  20.539  13.979
50272W        W 9566  28.142  21.028  10.608
50273W        W 9567  13.295   4.711   0.372
50274W        W 9568  42.458   8.850   1.768
50275W        W 9569  32.069  32.634  10.963
50276W        W 9570  10.759   4.862   1.241
50277W        W 9571  20.225  41.415  14.875
50278W        W 9572   9.149  24.522  13.868
50279W        W 9573  10.860  31.488  12.869
50280W        W 9574  42.392  44.890  11.371
50281W        W 9575   9.707  17.693  12.542
50282W        W 9576  12.795  19.247  13.027
50283W        W 9577  14.195  28.658  10.974
50284W        W 9578  15.616  32.910  12.438
50285W        W 9579  41.496  39.885   1.704
50286W        W 9580  38.523  15.297   1.363
50287W        W 9581   1.470   2.335  11.609
50288W        W 9582  24.600  26.555  10.624
50289W        W 9583  35.004  12.735  10.550
50290W        W 9584  16.283   0.472   3.679
50291W        W 9585   9.235  31.955   3.801
50292W        W 9586  32.020  30.113  10.890
50293W        W 9587  44.320  30.114   4.242
50294W        W 9588  39.963  32.892   2.312
50295W        W 9589  31.520  42.316   2.719
50296W        W 9590   8.270  43.833   4.224
50297W        W 9591  40.044   4.713  14.336
50298W        W 9592  28.939  32.455  14.503
50299W        W 9593  26.669  33.106   4.739
50300W        W 9594  31.446   8.898   3.358
50301W        W 9595   7.698  35.576   4.683
50302W        W 9596  18.272   9.392  12.483
50303W        W 9597  36.011  40.023  13.404
50304W        W 9598  20.141   4.418   0.381
50305W        W 9599  30.044  42.798   0.910
50306W        W 9600  43.510  44.333   9.920
50307W        W 9601  17.758  44.941  11.537
50308W        W 9602  15.121  44.430  11.908
50309W        W 9603  40.906   7.875  14.013
50310W        W 9604  15.653  28.143   4.629
50311W        W 9605  38.332  35.376  13.469
50312W        W 9606  40.478  35.021  13.340
50313W        W 9607  20.170   1.766  13.385
50314W        W 9608  42.935  16.582   0.867
50315W        W 9609  32.942  23.554  13.462
50316W        W 9610  41.401  13.317  14.817
50317W        W 9611  41.973  32.548  10.913
50318W        W 9612  29.656  44.919   3.744
50319W        W 9613  21.678  23.008  14.895
50320W        W 9614  14.804  16.747  10.552
50321W        W 9615  42.949   2.778   2.236
50322W        W 9616  42.786  15.291  12.543
50323W        W 9617  39.341   9.345   4.743
50324W        W 9618  23.209   0.370   1.816
50325W        W 9619  31.644  39.365   0.867
50326W        W 9620  13.215  43.342   0.947
50327W        W 9621  43.783  33.109  14.307
50328W        W 9622  32.905  24.094  10.571
50329W        W 9623  41.038  41.418   1.792
50330W        W 9624  31.067   4.442   3.824
50331W        W 9625  39.386  37.918   3.694
50332W        W 9626  22.054  29.141  10.469
50333W        W 9627  28.061  26.163   1.903
50334W        W 9628  16.269  13.246  13.841
50335W        W 9629  21.147   9.816   2.273
50336W        W 9630  25.667   1.899  11.967
50337W        W 9631  20.231  25.559   0.287
50338W        W 9632  19.094   3.796   2.317
50339W        W 9633  36.456   6.713  11.923
50340W        W 9634   8.212  29.632   2.696
50341W        W 9635  26.655  19.704   2.356
50342W        W 9636  40.374  26.667   5.179
50343W        W 9637  44.266  18.765   3.162
50344W        W 9638  20.151   7.271   3.285
50345W        W 9639  17.591  44.410  11.491
50346W        W 9640  18.704  20.727   3.742
50347W        W 9641   0.410  24.614  12.473
50348W        W 9642  36.075  37.386   2.766
50349W        W 9643  40.531   0.913   2.762
50350W        W 9644   1.772  16.178   0.310
50351W        W 9645  15.667  40.939  13.530
50352W        W 9646  20.094  19.692   2.410
50353W        W 9647  23.160  34.570   2.254
50354W        W 9648  42.307  42.858   3.729
50355W        W 9649  14.685  27.144  11.583
50356W        W 9650  37.071  36.059   1.703
50357W        W 9651   9.851   1.370   3.285
50358W        W 9652  25.650  14.138  11.471
50359W        W 9653  23.091  39.445   0.751
50360W        W 9654  17.792  21.689  13.808
50361W        W 9655  13.194   3.373  14.377
50362W        W 9656  21.177   7.881   4.279
50363W        W 9657  24.999  19.679  13.435
50364W        W 9658  14.247   2.439   0.390
50365W        W 9659   2.864  20.136  13.931
50366W        W 9660  32.495  23.671   3.869
50367W        W 9661  43.997  25.177   3.643
50368W        W 9662  31.911   6.760   2.287
50369W        W 9663  24.669  43.387   2.663
50370W        W 9664  38.330   4.762  14.780
50371W        W 9665  32.510  27.062  11.871
50372W        W 9666  31.080   2.944  14.882
50373W        W 9667  21.542  11.371  11.123
50374W        W 9668  28.488  43.374   2.378
50375W        W 9669  21.054  41.029   0.323
50376W        W 9670  23.100  42.325  12.450
50377W        W 9671  17.235  18.170  11.565
50378W        W 9672  34.489  36.384  13.819
50379W        W 9673  12.282  18.694  12.962
50380W        W 9674   5.918  22.999  12.877
50381W        W 9675  23.025  22.043   0.396
50382W        W 9676  41.294  14.147  12.461
50383W        W 9677  20.599  37.886   2.256
50384W        W 9678  29.075  43.287   3.655
50385W        W 9679  33.918  15.309  12.477
50386W        W 9680  34.028   9.299   3.630
50387W        W 9681  23.558  23.574  12.068
50388W        W 9682  25.109   7.682  14.910
50389W        W 9683  14.261  19.584   4.737
50390W        W 9684  35.999  40.372   1.787
50391W        W 9685  29.106   9.160  13.501
50392W        W 9686  10.751  28.486   3.173
50393W        W 9687  12.123  42.288  13.019
50394W        W 9688  36.031  21.197  12.877
50395W        W 9689  22.643  34.391   2.323
50396W        W 9690  22.025  23.044  12.972
50397W        W 9691  11.326  28.605  11.452
50398W        W 9692  12.803  12.248   2.327
50399W        W 9693  20.602  17.185   2.885
50400W        W 9694   3.322  22.075   4.678
50401W        W 9695   1.808  33.882   0.785
50402W        W 9696  31.629   0.322   1.878
50403W        W 9697  17.628  29.926  13.021
50404W        W 9698  11.709  27.660   1.750
50405W        W 9699  24.649  27.127   4.223
50406W        W 9700  22.114  21.222  10.939
50407W        W 9701  30.924   7.370  13.827
50408W        W 9702  37.893  36.392   0.918
50409W        W 9703  15.821  26.206  13.038
50410W        W 9704  34.576  33.523   3.714
50411W        W 9705  25.166  21.706  14.465
50412W        W 9706   2.454  40.908   3.204
50413W        W 9707  23.634   6.778  13.439
50414W        W 9708  20.559  29.572   0.463
50415W        W 9709  43.822   3.215  10.981
50416W        W 9710  44.903  19.678   1.802
50417W        W 9711  15.672  40.401  11.125
50418W        W 9712  41.794  42.951  10.156
50419W        W 9713  42.839  11.837   4.142
50420W        W 9714   2.765  23.607   9.939
50421W        W 9715  43.799  37.922  12.367
50422W        W 9716  33.097   9.668  14.352
50423W        W 9717  12.672  34.941   3.703
50424W        W 9718  30.160  41.369  13.010
50425W        W 9719  19.670  12.716   2.287
50426W        W 9720  10.352  11.188   0.310
50427W        W 9721  23.659  42.469   0.772
50428W        W 9722  31.635  33.078  11.526
50429W        W 9723  32.130  27.133   3.687
50430W        W 9724   1.734  34.410   1.413
50431W        W 9725  30.151  27.127  13.351
50432W        W 9726   6.828  32.477   1.318
50433W        W 9727   9.156  21.054  11.530
50434W        W 9728  27.552   5.744  13.452
50435W        W 9729   7.193  34.497   5.095
50436W        W 9730  25.165  21.205  12.473
50437W        W 9731   0.390  31.451  11.001
50438W        W 9732  39.341  43.877   1.761
50439W        W 9733  27.993  28.675   2.664
50440W        W 9734  11.334  17.793   1.394
50441W        W 9735  16.682  23.131   0.740
50442W        W 9736  28.446  16.180  11.977
50443W        W 9737   7.323   1.830  14.788
50444W        W 9738  37.885   1.361   2.333
50445W        W 9739  15.298  27.585   0.886
50446W        W 9740   8.818  38.467  10.970
50447W        W 9741  35.502  11.723  12.998
50448W        W 9742   0.271  44.809   4.631
50449W        W 9743  31.417  36.966  10.516
50450W        W 9744  13.321   7.299   2.827
50451W        W 9745  33.577  44.497   5.148
50452W        W 9746   5.915  28.494  13.490
50453W        W 9747  42.998   0.468   0.425
50454W        W 9748  43.826  38.929   4.812
50455W        W 9749  33.607  19.060  14.914
50456W        W 9750  41.296  16.092   1.847
50457W        W 9751  38.382  36.892  13.359
50458W        W 9752  44.784   8.261  14.995
50459W        W 9753  37.358   9.169   4.691
50460W        W 9754  44.283  39.870  12.007
50461W        W 9755  25.150  26.545   1.829
50462W        W 9756   2.859  22.524  12.089
50463W        W 9757  40.025  16.109   4.795
50464W        W 9758  38.367   6.288  10.523
50465W        W 9759   7.175  26.560  12.527
50466W        W 9760   6.276   8.827  10.558
50467W        W 9761   7.774  15.306  12.498
50468W        W 9762  27.965  27.006   1.233
50469W        W 9763  18.283  10.296  10.018
50470W        W 9764   9.151   9.317  11.880
50471W        W 9765   7.227   9.730   2.344
50472W        W 9766  14.802  31.969  11.552
50473W        W 9767  34.397   1.819  10.995
50474W        W 9768  15.297  21.198  14.998
50475W        W 9769  19.618  16.590   2.820
50476W        W 9770  22.561  12.186   3.382
50477W        W 9771  39.037  15.730  12.373
50478W        W 9772  28.150   1.436  11.026
50479W        W 9773  38.972   0.422   3.387
50480W        W 9774  36.914   2.234  12.398
50481W        W 9775  33.086  39.809   3.825
50482W        W 9776  42.434  11.308  13.826
50483W        W 9777  29.648  22.192   2.215
50484W        W 9778  39.035  32.122  14.286
50485W        W 9779   1.860  19.557  13.307
50486W        W 9780  18.779  39.364  12.489
50487W        W 9781  27.958   4.773  13.810
50488W        W 9782   6.419   4.356   1.714
50489W        W 9783   8.730  26.633  12.398
50490W        W 9784  24.995  43.851  13.314
50491W        W 9785  32.555  37.476  12.073
50492W        W 9786  37.030  34.978   3.173
50493W        W 9787   9.189  20.758   4.153
50494W        W 9788  12.345  25.092   3.683
50495W        W 9789   8.246  15.311   3.802
50496W        W 9790   5.264  44.306  10.993
50497W        W 9791  40.925   9.160   3.336
50498W        W 9792  12.635  17.243  14.292
50499W        W 9793  40.524   6.368  14.989
50500W        W 9794  10.662  18.096  11.100
50501W        W 9795  29.002   5.360  13.915
50502W        W 9796  27.160  26.580   2.707
50503W        W 9797  40.471  14.242   1.439
50504W        W 9798   7.297  19.148   2.686
50505W        W 9799   7.829  40.838  11.457
50506W        W 9800  40.532  23.089   3.744
50507W        W 9801  39.519  31.907   4.266
50508W        W 9802  28.575  18.672  12.400
50509W        W 9803  19.083  25.084   0.425
50510W        W 9804  16.224  31.961   9.998
50511W        W 9805  25.007  10.375   0.275
50512W        W 9806   9.731   7.279  13.465
50513W        W 9807  43.372   7.699  13.899
50514W        W 9808  42.947  19.578   2.212
50515W        W 9809  40.470  39.512   2.891
50516W        W 9810  22.062  28.490   3.380
50517W        W 9811  27.174  39.529  12.568
50518W        W 9812  28.021  43.418  11.431
50519W        W 9813  33.906  27.059   1.849
50520W        W 9814  12.723  24.541   4.773
50521W        W 9815  20.054  18.696  12.053
50522W        W 9816  16.302   2.315  13.994
50523W        W 9817  20.754  23.514  11.572
50524W        W 9818  23.641  11.247  11.489
50525W        W 9819   7.186  33.598  13.025
50526W        W 9820   8.189  39.352  12.836
50527W        W 9821  41.786  35.506  11.128
50528W        W 9822  36.422  30.069   0.845
50529W        W 9823  42.353  36.950   1.864
50530W        W 9824  21.153  15.648   1.252
50531W        W 9825  10.643  26.490  14.405
50532W        W 9826  24.632  13.804  12.030
50533W        W 9827  41.845  32.105  10.946
50534W        W 9828   5.342   2.244  12.347
50535W        W 9829  19.769  21.187  12.040
50536W        W 9830  20.536  31.621   1.859
50537W        W 9831   4.940  36.428  11.474
50538W        W 9832  14.295  26.155  13.480
50539W        W 9833  10.175   8.289   2.326
50540W        W 9834   2.821  21.655  11.931
50541W        W 9835  15.755  10.672  10.582
50542W        W 9836  18.087  23.213  11.928
50543W        W 9837  24.059   1.475   2.663
50544W        W 9838  39.331   6.351   1.831
50545W        W 9839  15.259   4.322   1.336
50546W        W 9840  24.537   6.743  10.596
50547W        W 9841   1.770  13.310   2.830
50548W        W 9842  24.163  15.157   1.313
50549W        W 9843  25.497  13.239   4.825
50550W        W 9844  20.651  37.502   4.786
50551W        W 9845  11.661  36.007   2.797
50552W        W 9846   3.279  39.017  13.801
50553W        W 9847   0.910  21.060   2.289
50554W        W 9848  25.523  16.801   3.368
50555W        W 9849  34.587  34.033   3.790
50556W        W 9850   5.274  22.130  10.477
50557W        W 9851  16.308  10.295   0.395
50558W        W 9852  17.702  37.902   3.350
50559W        W 9853  41.325  22.626   5.226
50560W        W 9854  39.319  13.265  11.079
50561W        W 9855   1.757  40.929  13.536
50562W        W 9856  35.539   9.889  11.555
50563W        W 9857  27.116   8.826   0.375
50564W        W 9858  36.579  17.192  12.915
50565W        W 9859  35.480  12.739   4.114
50566W        W 9860   6.376  36.848  12.094
50567W        W 9861  14.691  37.525  13.913
50568W        W 9862   0.343  42.984  10.567
50569W        W 9863   9.739  38.494   2.202
50570W        W 9864   1.357  11.803  11.604
50571W        W 9865   6.893  12.682   3.268
50572W        W 9866  27.990  35.899   0.949
50573W        W 9867  22.621  17.114  10.159
50574W        W 9868  25.021  43.381  13.907
50575W        W 9869   9.342  28.601  11.002
50576W        W 9870   4.315   7.710  12.051
50577W        W 9871  17.263  40.327   1.394
50578W        W 9872   1.810  10.182   4.775
50579W        W 9873   2.444   9.877   1.697
50580W        W 9874   2.397  21.251  14.763
50581W        W 9875  38.367  44.408   2.872
50582W        W 9876   8.297  22.612  13.914
50583W        W 9877  26.675  30.624  14.808
50584W        W 9878  25.481   4.379  11.093
50585W        W 9879  34.587  33.009  14.928
50586W        W 9880  24.210  18.205   2.261
50587W        W 9881   3.900   3.780   4.644
50588W        W 9882  44.946  33.069  12.016
50589W        W 9883   4.212  37.446   0.818
50590W        W 9884  19.102  30.463  11.441
50591W        W 9885  32.090   9.759  14.846
50592W        W 9886  24.552  38.469   3.751
50593W        W 9887   2.902  18.160   3.188
50594W        W 9888  11.786   9.724   3.315
50595W        W 9889  37.412   0.340   1.809
50596W        W 9890  35.025  10.665   1.912
50597W        W 9891  15.274   0.357   4.133
50598W        W 9892   9.695  33.084   0.814
50599W        W 9893  20.140  40.880   2.767
50600W        W 9894  33.545   2.735  12.489
50601W        W 9895  38.343  22.224   1.397
50602W        W 9896  15.181  26.676  10.555
50603W        W 9897   0.470  42.505   2.382
50604W        W 9898  24.705  28.953  13.814
50605W        W 9899   5.329  23.631  14.983
50606W        W 9900  35.091  30.093  14.363
50607W        W 9901  27.026  10.681  10.535
50608W        W 9902  24.642  16.092   4.806
50609W        W 9903  18.241  18.625   3.718
50610W        W 9904  31.605   6.812  14.982
50611W        W 9905  36.418   2.426   0.879
50612W        W 9906  40.370  25.089   3.150
50613W        W 9907  30.460   9.210  13.006
50614W        W 9908  12.746  17.574  12.499
50615W        W 9909  37.069  44.464   1.275
50616W        W 9910  42.015  29.660   4.608
50617W        W 9911  22.691  14.183   0.330
50618W        W 9912  15.595  34.557  11.583
50619W        W 9913  31.430  31.135  13.489
50620W        W 9914  23.642  14.155  11.536
50621W        W 9915   7.803  10.783   2.357
50622W        W 9916  15.699  27.471   3.743
50623W        W 9917   9.326  25.195   3.300
50624W        W 9918  31.636  22.529  13.420
50625W        W 9919   3.228  10.822   4.345
50626W        W 9920  32.121  43.346  10.951
50627W        W 9921  12.144  22.021  13.399
50628W        W 9922  27.161  26.097  14.031
50629W        W 9923  32.507  30.074  12.492
50630W        W 9924  40.899  20.614  10.541
50631W        W 9925  28.500  36.351   2.263
50632W        W 9926  12.270   8.272  13.539
50633W        W 9927  32.552   6.718  12.556
50634W        W 9928  21.108  41.491   3.697
50635W        W 9929   7.391   5.415   3.266
50636W        W 9930  33.969  44.986  14.963
50637W        W 9931  15.250   5.310   2.728
50638W        W 9932  39.871   2.236   4.237
50639W        W 9933  14.729  40.889  10.993
50640W        W 9934  24.206  18.773   0.957
50641W        W 9935   5.928   7.299  12.381
50642W        W 9936  26.646  21.752  12.839
50643W        W 9937  39.029  21.098   4.772
50644W        W 9938  22.047  22.091   2.794
50645W        W 9939  40.445   7.311  14.997
50646W        W 9940  30.557  34.369  14.298
50647W        W 9941  18.270  24.499  11.087
50648W        W 9942  32.547  19.625   0.908
50649W        W 9943   7.846  35.374  10.438
50650W        W 9944  14.676   6.246   2.856
50651W        W 9945  32.599  15.140  14.373
50652W        W 9946  29.661   0.979  14.875
50653W        W 9947  44.413  23.654  13.842
50654W        W 9948  32.113  37.900  14.427
50655W        W 9949  10.872  39.935  11.989
50656W        W 9950  29.505   2.359  14.944
50657W        W 9951  24.603  36.349   4.293
50658W        W 9952  16.672  14.211  13.947
50659W        W 9953  37.036  28.502   4.305
50660W        W 9954   7.275  21.624  13.313
50661W        W 9955  22.122  36.584   0.764
50662W        W 9956   4.886   0.440  14.332
50663W        W 9957  41.926  37.045   2.338
50664W        W 9958  13.825   8.707  11.470
50665W        W 9959  42.445   4.382   4.313
50666W        W 9960   5.387  36.506  10.935
50667W        W 9961  44.451  38.909   5.281
50668W        W 9962  24.518  24.166  13.825
50669W        W 9963  38.835  23.635  12.415
50670W        W 9964   6.285  22.133  14.962
50671W        W 9965  10.213   6.324   3.727
50672W        W 9966  30.105  30.000   1.696
50673W        W 9967  15.201   1.782   2.675
50674W        W 9968  37.348   4.865   0.393
50675W        W 9969  40.042  19.143  11.488
50676W        W 9970   4.286  15.653  10.142
50677W        W 9971  15.623  44.477  14.929
50678W        W 9972  38.841   0.430   0.449
50679W        W 9973  38.338   6.916   0.762
50680W        W 9974  30.466  18.765   3.239
50681W        W 9975   1.825  15.084  12.356
50682W        W 9976   8.740  36.392  14.385
50683W        W 9977   8.732   7.358   2.819
50684W        W 9978  40.474   5.391   1.324
50685W        W 9979  39.560   0.446  13.540
50686W        W 9980   4.322   1.364   1.916
50687W        W 9981  30.514  31.539  13.329
50688W        W 9982  39.042  28.056   4.817
50689W        W 9983  16.121  16.262  14.283
50690W        W 9984  11.632  16.243  13.494
50691W        W 9985  35.948  32.521  12.076
50692W        W 9986   3.327  38.838   0.945
50693W        W 9987  10.743  42.936   2.197
50694W        W 9988   3.313  38.882   0.248
50695W        W 9989  43.275   6.700  14.498
50696W        W 9990   5.912  24.522  14.843
50697W        W 9991  15.802  36.540  13.966
50698W        W 9992   3.383  27.061  11.014
50699W        W 9993  32.018  13.837  13.534
50700W        W 9994  27.181  31.052  12.969
50701W        W 9995  40.933   6.788  12.475
50702W        W 9996  13.271  39.506  12.871
50703W        W 9997   5.892   5.351   2.774
50704W        W 9998   8.335   3.349  12.375
50705W        W 9999  40.005  15.084   4.339
50706W        W10000  33.097  28.456  12.829
50707W        W10001  25.167  28.584  12.350
50708W        W10002  28.559  11.321   2.700
50709W        W10003   2.272   3.448  12.347
50710W        W10004  41.930   3.455   2.257
50711W        W10005  20.088   2.321  11.122
50712W        W10006  10.862  10.371  14.799
50713W        W10007   6.323  10.873  13.428
50714W        W10008  33.927  33.974  14.929
50715W        W10009   6.285  24.617  13.855
50716W        W10010  25.616  16.250  14.964
50717W        W10011  30.089  27.087   4.741
50718W        W10012  16.605  25.713  11.534
50719W        W10013  27.658   9.305   1.311
50720W        W10014  18.249  36.461   4.178
50721W        W10015  37.580  34.414   2.728
50722W        W10016  43.275   4.890  14.299
50723W        W10017  25.667   2.839   0.291
50724W        W10018  11.635  38.464  10.595
50725W        W10019  24.973  10.635  13.922
50726W        W10020  16.705  23.082   3.868
50727W        W10021  15.647  28.129   3.684
50728W        W10022  21.217   1.833  12.859
50729W        W10023   7.666   0.941   1.387
50730W        W10024  12.685   4.831   4.779
50731W        W10025   5.340  36.048  13.885
50732W        W10026  20.710  20.123  11.538
50733W        W10027  15.213   7.726   4.140
50734W        W10028  20.072  18.263   4.193
50735W        W10029  19.600   7.394  10.548
50736W        W10030   5.718  26.540  11.374
50737W        W10031  16.281   5.402  13.913
50738W        W10032  17.680  20.570  14.383
50739W        W10033  16.139   3.460   1.314
50740W        W10034  19.273   3.258   3.155
50741W        W10035  38.480  31.417   2.744
50742W        W10036  11.813   7.263   2.306
50743W        W10037   8.816  15.820   3.162
50744W        W10038  42.021  39.465   3.228
50745W        W10039  10.286   7.380   3.387
50746W        W10040   0.455  28.559  14.450
50747W        W10041   8.262  34.455  11.991
50748W        W10042  44.780  15.287   1.242
50749W        W10043  33.005   3.440   2.221
50750W        W10044  35.859  39.440  12.493
50751W        W10045  13.619  21.189   0.876
50752W        W10046   6.823  13.742   1.767
50753W        W10047  44.828  28.044  12.512
50754W        W10048  28.957  21.725   1.727
50755W        W10049  20.223  17.119   3.164
50756W        W10050  37.070   5.870   2.884
50757W        W10051  33.106  22.056  11.393
50758W        W10052   1.450  25.477  13.822
50759W        W10053  40.966  35.395  12.932
50760W        W10054   6.879  39.871   4.271
50761W        W10055  30.128  33.009  10.566
50762W        W10056  39.398  10.154   4.797
50763W        W10057  20.569  11.857  14.339
50764W        W10058  43.799  22.562  13.044
50765W        W10059  17.279  22.618  11.928
50766W        W10060  40.896  21.734  13.371
50767W        W10061  27.109  12.735  11.383
50768W        W10062  17.638  27.639   2.334
50769W        W10063  19.751  37.040  12.925
50770W        W10064  22.698  44.429   3.272
50771W        W10065  28.596  24.528  10.597
50772W        W10066   9.859  20.252  11.391
50773W        W10067  21.691  15.715  10.036
50774W        W10068  29.104  16.785   1.440
50775W        W10069  12.844  37.410  10.985
50776W        W10070   0.824  14.715   2.844
50777W        W10071  36.044  22.588   1.413
50778W        W10072  22.138  36.424   1.271
50779W        W10073  11.311  29.567   0.308
50780W        W10074  42.794  28.632  13.505
50781W        W10075  24.181  29.625  11.076
50782W        W10076  36.052  43.812  14.485
50783W        W10077  11.791  16.192  13.805
50784W        W10078   7.837   4.726   2.750
50785W        W10079  13.319  27.599  10.966
50786W        W10080  18.709  21.026   3.318
50787W        W10081   9.819  25.700  13.503
50788W        W10082   9.301   9.261  12.382
50789W        W10083  10.220  25.629  11.100
50790W        W10084   2.826  41.043  11.024
50791W        W10085   3.843  36.986   2.303
50792W        W10086  29.461  11.218   0.861
50793W        W10087  25.679  27.971   0.746
50794W        W10088  43.971  11.318   3.684
50795W        W10089  26.097  32.536   1.370
50796W        W10090   9.272   7.889  11.977
50797W        W10091  28.647  38.513  11.508
50798W        W10092  39.878  32.503   4.126
50799W        W10093   1.368  16.129   1.341
50800W        W10094   5.307  37.463  13.989
50801W        W10095  30.609  14.333  12.061
50802W        W10096  38.480  27.006  13.870
50803W        W10097  30.424  31.992   3.759
50804W        W10098  21.671   6.271   1.778
50805W        W10099  40.988  33.475  10.594
50806W        W10100  35.977  29.611   1.402
50807W        W10101  17.114  23.605  13.795
50808W        W10102   9.886  28.095   1.425
50809W        W10103  11.638  14.808   4.189
50810W        W10104  15.667  37.427   4.296
50811W        W10105   0.370  11.638   0.477
50812W        W10106  26.532  43.984   1.297
50813W        W10107  38.862  34.919  12.445
50814W        W10108  28.956   2.376  12.556
50815W        W10109  16.145  18.124  11.507
50816W        W10110  25.506  35.381  10.469
50817W        W10111   5.923  32.924   5.310
50818W        W10112  28.478   0.836   1.907
50819W        W10113  22.517  32.552  11.407
50820W        W10114  36.580  23.559   0.275
50821W        W10115  30.109   2.471   3.235
50822W        W10116   3.875  11.259  11.044
50823W        W10117  26.132  39.959   2.759
50824W        W10118  20.203  25.608   2.706
50825W        W10119  41.951  37.376  13.491
50826W        W10120  24.545  11.295  12.947
50827W        W10121   3.825  41.402   1.700
50828W        W10122  17.204  35.598  14.404
50829W        W10123  41.895  42.781  13.328
50830W        W10124  25.657   5.422  12.973
50831W        W10125  19.743  34.441   3.705
50832W        W10126  11.797  15.240   4.160
50833W        W10127  35.536  32.572  13.321
50834W        W10128  23.530  15.676  12.990
50835W        W10129   5.783  17.074   3.788
50836W        W10130   7.869   4.319  10.919
50837W        W10131  38.038  25.105  14.476
50838W        W10132  18.707  26.543  13.399
50839W        W10133  18.674  33.625   2.402
50840W        W10134   7.180  27.621   1.933
50841W        W10135  28.130   9.681   2.780
50842W        W10136  24.576   1.347   4.782
50843W        W10137  41.526  30.032   3.857
50844W        W10138  18.198  41.429   3.230
50845W        W10139  13.663  42.825  10.545
50846W        W10140  27.985   9.334   2.805
50847W        W10141   8.294  31.921  10.613
50848W        W10142  26.200  35.394   2.883
50849W        W10143   3.846  13.314   0.892
50850W        W10144  32.041  29.433  14.463
50851W        W10145  37.443  27.679  12.895
50852W        W10146  19.271   4.260  14.381
50853W        W10147  13.814  34.368   0.468
50854W        W10148   3.883  29.448   2.266
50855W        W10149  42.825  30.982   1.830
50856W        W10150  38.938  37.880   4.301
50857W        W10151  20.668  37.507   1.925
50858W        W10152  20.089  23.214   4.653
50859W        W10153  13.639  15.812  11.963
50860W        W10154  42.803  32.623  13.374
50861W        W10155   9.764  17.653   3.374
50862W        W10156  37.980  18.756   1.221
50863W        W10157   7.714  10.294  14.829
50864W        W10158   5.383  16.245   0.324
50865W        W10159  27.553  19.254  14.434
50866W        W10160  32.583  12.344   2.719
50867W        W10161  21.097  11.249   3.646
50868W        W10162  41.407  17.299   4.739
50869W        W10163  35.494   0.407  14.317
50870W        W10164  37.967  12.353   0.441
50871W        W10165  26.069  34.598  14.792
50872W        W10166  36.949   7.379   9.947
50873W        W10167  44.261  17.742  10.102
50874W        W10168  15.201   8.838   0.963
50875W        W10169  16.673  24.107   2.408
50876W        W10170  23.016  18.787   1.789
50877W        W10171  29.619  28.675   2.879
50878W        W10172  39.335  44.415   2.257
50879W        W10173  41.366  39.408  10.644
50880W        W10174  26.134   4.301  13.021
50881W        W10175  21.042  28.506  14.310
50882W        W10176  13.749  42.805   2.764
50883W        W10177  10.769  25.479  10.512
50884W        W10178  41.861   6.733   2.803
50885W        W10179  25.651  37.084   3.760
50886W        W10180  11.151  42.844   4.832
50887W        W10181  34.962  41.479   3.846
50888W        W10182  37.352   7.666   2.834
50889W        W10183  14.806   8.169  14.766
50890W        W10184  18.590  27.131   0.403
50891W        W10185  33.071   0.262  10.493
50892W        W10186  25.170  39.318  14.374
50893W        W10187  18.239  22.099   2.812
50894W        W10188  16.183   2.783   1.332
50895W        W10189  36.916   7.880   0.445
50896W        W10190  31.110  20.525   2.704
50897W        W10191  20.575  42.408   2.308
50898W        W10192   2.765  44.910  14.506
50899W        W10193  37.960  36.554   5.783
50900W        W10194  10.237  30.574   1.401
50901W        W10195  35.053  20.123   3.782
50902W        W10196  25.485  33.590   3.289
50903W        W10197  26.549  12.278  13.900
50904W        W10198  15.816  43.954   4.332
50905W        W10199  36.505  28.598  14.833
50906W        W10200  31.106  29.109  11.544
50907W        W10201  13.637  36.444   2.205
50908W        W10202   7.837   0.952   3.780
50909W        W10203  19.559   2.342  12.570
50910W        W10204   8.730  36.365  11.026
50911W        W10205  29.113  21.556  14.333
50912W        W10206  29.564   8.388  13.326
50913W        W10207  39.036  33.125  11.538
50914W        W10208  37.543   7.353  13.888
50915W        W10209  11.800   7.321   3.806
50916W        W10210  38.548   2.724   3.285
50917W        W10211  35.403  44.977   3.739
50918W        W10212  35.858  28.511  10.462
50919W        W10213  38.358  19.567   0.306
50920W        W10214   9.243  43.490   3.789
50921W        W10215  12.267  19.074   2.662
50922W        W10216  21.166  23.699  14.474
50923W        W10217  10.210  22.174   3.767
50924W        W10218  17.695  28.143   1.434
50925W        W10219  33.892  31.066   3.856
50926W        W10220   3.757  33.525  14.770
50927W        W10221   7.745   6.850  13.533
50928W        W10222  34.986  24.168  14.454
50929W        W10223  16.764  31.096  12.377
50930W        W10224  18.217   7.754  10.445
50931W        W10225  28.667  40.041  13.052
50932W        W10226  25.474   4.716   3.741
50933W        W10227  16.623  12.815   1.349
50934W        W10228  41.815  34.882   2.409
50935W        W10229   4.363   1.865   4.139
50936W        W10230  21.063  18.262  14.342
50937W        W10231   3.815  29.119  13.516
50938W        W10232  22.033  10.315  12.828
50939W        W10233  40.334  24.609  10.548
50940W        W10234  19.103  11.687  10.003
50941W        W10235  19.654  38.335  10.621
50942W        W10236  34.389  33.969   2.864
50943W        W10237  19.170  28.154  11.078
50944W        W10238  42.846  28.578   1.923
50945W        W10239  12.674  32.123   2.762
50946W        W10240  42.380  20.641   0.903
50947W        W10241  20.639  26.126  14.925
50948W        W10242   6.748  42.367   1.429
50949W        W10243   7.265  11.248   2.241
50950W        W10244  10.695  39.012   4.236
50951W        W10245   2.316  11.844   0.411
50952W        W10246  22.556  37.404   5.239
50953W        W10247  22.181  24.719   4.805
50954W        W10248   7.833  21.631  10.104
50955W        W10249  17.252  43.358   4.782
50956W        W10250  36.420  14.252   2.220
50957W        W10251  42.888   9.733  13.951
50958W        W10252  24.505   9.701  14.769
50959W        W10253  32.631  15.654  13.795
50960W        W10254  13.730  32.026  14.765
50961W        W10255   8.730  10.383  14.893
50962W        W10256  18.567  37.449  11.028
50963W        W10257  27.461   5.822   4.175
50964W        W10258  10.820  25.573  11.051
50965W        W10259  14.107  14.239   3.251
50966W        W10260  18.096  43.501  10.942
50967W        W10261  23.119  21.587   2.863
50968W        W10262   4.294   5.438   0.770
50969W        W10263  17.573   9.302  11.043
50970W        W10264  38.936  30.414  10.454
50971W        W10265  44.467  10.749  14.330
50972W        W10266  21.037  44.808   1.931
50973W        W10267  18.057  35.088  13.361
50974W        W10268   9.744  26.020  13.373
50975W        W10269  24.211   4.930  13.826
50976W        W10270  14.250   1.360   1.213
50977W        W10271  26.115  42.311   2.740
50978W        W10272  18.189  26.036   0.482
50979W        W10273  12.746  25.074   4.763
50980W        W10274  21.561  39.336  12.863
50981W        W10275  39.851  29.045   0.256
50982W        W10276  14.636  28.040   2.704
50983W        W10277  21.669   9.714  14.022
50984W        W10278  40.924  11.324   2.882
50985W        W10279  43.860  28.506   0.884
50986W        W10280  21.235  44.397   0.334
50987W        W10281  11.296  10.249  11.935
50988W        W10282  18.198   5.335  14.327
50989W        W10283  20.567  32.084  11.084
50990W        W10284   0.848   9.153  12.954
50991W        W10285   1.446  27.010   0.862
50992W        W10286  18.649   9.227  10.903
50993W        W10287  34.538  44.915   2.791
50994W        W10288  32.515  36.472  13.409
50995W        W10289  18.056  15.614   2.827
50996W        W10290  25.130  42.437  10.155
50997W        W10291  19.754  26.596   1.232
50998W        W10292  23.117  19.059  12.824
50999W        W10293   7.364  12.712   4.779
51000W        W10294  35.394  26.528   3.865
51001W        W10295  40.007   7.366  12.068
51002W        W10296  26.665   9.734  12.427
51003W        W10297  40.993  34.034   4.626
51004W        W10298  21.523  26.126  12.537
51005W        W10299  25.023  40.470  11.400
51006W        W10300  21.523  23.155   2.763
51007W        W10301  38.484  31.050   2.322
51008W        W10302  42.417   6.206  11.071
51009W        W10303  39.514  43.410  10.907
51010W        W10304  10.744  37.491   2.306
51011W        W10305   9.386  19.725  12.083
51012W        W10306   1.239   2.364   2.796
51013W        W10307   0.277   0.358  13.355
51014W        W10308  41.007  32.005  10.496
51015W        W10309  33.007  14.172  10.610
51016W        W10310   3.783  12.219   0.399
51017W        W10311  33.381  33.553  12.453
51018W        W10312   5.854   6.185   3.671
51019W        W10313  19.546   5.741   3.779
51020W        W10314  26.652   5.345   4.116
51021W        W10315  27.568   1.239  12.518
51022W        W10316  10.226  13.239  11.400
51023W        W10317  44.282   6.795  14.959
51024W        W10318  42.486   2.274   0.411
51025W        W10319  15.648  43.282  10.912
51026W        W10320  11.722  25.191   0.418
51027W        W10321   3.791   2.866  14.481
51028W        W10322  35.048  13.121  12.067
51029W        W10323  12.227  43.883   0.756
51030W        W10324  26.630  18.724  10.488
51031W        W10325  43.296  18.245  10.908
51032W        W10326  39.559  11.307   4.702
51033W        W10327   4.785  15.293   0.263
51034W        W10328  35.579   7.755  14.988
51035W        W10329  26.476   0.285  13.862
51036W        W10330  17.306  25.199   1.729
51037W        W10331  43.313   3.752   1.802
51038W        W10332  25.648  22.665   0.736
51039W        W10333  30.025  36.014  14.418
51040W        W10334  34.572  44.878   1.356
51041W        W10335  32.083   1.287  11.959
51042W        W10336  44.293  27.074   4.166
51043W        W10337  37.336  41.485  10.072
51044W        W10338  14.805  17.684  14.939
51045W        W10339  19.110  41.970   3.836
51046W        W10340  33.528  18.279   2.664
51047W        W10341  42.925  20.588   3.677
51048W        W10342  10.182  15.251   0.734
51049W        W10343  16.309   9.311  10.021
51050W        W10344  16.149  20.188   1.895
51051W        W10345  27.546   9.792  11.509
51052W        W10346  38.873  35.550  12.830
51053W        W10347   5.921  19.717  10.556
51054W        W10348  18.639  42.946   4.187
51055W        W10349  18.602  27.096  12.490
51056W        W10350  32.410   4.421  14.473
51057W        W10351  13.708  35.110   0.483
51058W        W10352   0.421   5.408   2.418
51059W        W10353  21.112  19.043   3.249
51060W        W10354   0.372  14.679  12.468
51061W        W10355   1.801  10.255  12.072
51062W        W10356  17.249  34.408   4.326
51063W        W10357   6.379   9.392  10.596
51064W        W10358  40.317  44.285   4.632
51065W        W10359  28.016   3.828  11.902
51066W        W10360  16.220  19.079  13.530
51067W        W10361  20.667  26.089   4.702
51068W        W10362  20.262  18.620   9.924
51069W        W10363  28.114  11.729  11.071
51070W        W10364  10.195  44.264  10.973
51071W        W10365  36.915  13.202   2.842
51072W        W10366  11.747  15.658   4.601
51073W        W10367  33.510  35.956   3.791
51074W        W10368  23.108  23.004  11.939
51075W        W10369  31.468  30.495  13.494
51076W        W10370  23.559  27.103  12.031
51077W        W10371  10.209  15.161   4.703
51078W        W10372  33.609  41.307  13.332
51079W        W10373  16.784  34.457  12.066
51080W        W10374  31.004  15.712  14.842
51081W        W10375  17.723  25.176   4.295
51082W        W10376  13.212  44.942   1.838
51083W        W10377  16.311   6.423  14.031
51084W        W10378  19.180   0.790  11.519
51085W        W10379  43.316  26.000   2.249
51086W        W10380  41.894  22.543   2.369
51087W        W10381  30.927  32.471   2.342
51088W        W10382   3.951  17.165   0.935
51089W        W10383   5.395  24.147   2.266
51090W        W10384   5.215  28.038   2.343
51091W        W10385  37.848   6.802  11.471
51092W        W10386   8.823  23.595  11.961
51093W        W10387  29.450  33.423   2.183
51094W        W10388  34.903  21.017  14.412
51095W        W10389  32.964   0.882   1.839
51096W        W10390  41.417  18.185  14.797
51097W        W10391  32.475  18.634  12.545
51098W        W10392  15.149  27.638  11.109
51099W        W10393  44.286  37.021  10.405
51100W        W10394   9.219  11.278   1.699
51101W        W10395  21.028   7.225   2.180
51102W        W10396   2.840  42.398  10.563
51103W        W10397  25.119   4.370   2.328
51104W        W10398  14.126  31.988  12.467
51105W        W10399   4.880  11.224  10.156
51106W        W10400  12.728  21.721  12.378
51107W        W10401  38.016  39.513  13.915
51108W        W10402  12.720  41.033  14.375
51109W        W10403  29.043   4.712   4.735
51110W        W10404   3.359  25.704  12.493
51111W        W10405  12.165   0.922   1.783
51112W        W10406  40.046   6.887  12.341
51113W        W10407  26.690  28.008  11.946
51114W        W10408  43.415  17.130   1.915
51115W        W10409  23.642  19.227  12.569
51116W        W10410  23.014  34.452   2.835
51117W        W10411  32.607  27.526  13.835
51118W        W10412  33.049  24.708   0.817
51119W        W10413  16.699   5.702   0.879
51120W        W10414  36.842  29.565   1.260
51121W        W10415  22.144  25.218   2.707
51122W        W10416  29.119  30.061  14.288
51123W        W10417  21.123  16.111  11.112
51124W        W10418   1.379   5.839  12.416
51125W        W10419   9.181  11.265   2.250
51126W        W10420  29.467  25.178  11.091
51127W        W10421   6.353  36.932   1.218
51128W        W10422  29.997  28.512   4.818
51129W        W10423  43.769  18.729   1.376
51130W        W10424  18.071  26.026   4.263
51131W        W10425   8.674  36.914  11.107
51132W        W10426  29.581  32.619  11.494
51133W        W10427  39.001   6.326  13.320
51134W        W10428   4.886  15.256   1.310
51135W        W10429  10.874  37.061   2.870
51136W        W10430  11.685  28.116   2.709
51137W        W10431  11.656  33.439   2.384
51138W        W10432  13.293  23.098  12.378
51139W        W10433  29.663  10.864  11.382
51140W        W10434   6.217  18.666  12.996
51141W        W10435  29.112  24.532  12.373
51142W        W10436   3.239   1.905   9.548
51143W        W10437  36.067   5.304   3.633
51144W        W10438  14.666  25.093  12.870
51145W        W10439   7.214  40.959   1.420
51146W        W10440  32.927  20.702  13.459
51147W        W10441  16.251  36.378  11.866
51148W        W10442  32.951  30.116   3.181
51149W        W10443   4.806   2.416   0.747
51150W        W10444  28.547  36.029  11.565
51151W        W10445   9.167   1.970   3.661
51152W        W10446  37.936  12.346   4.792
51153W        W10447  33.413   0.272  11.462
51154W        W10448  27.587  36.446  10.030
51155W        W10449  39.918  26.000   0.734
51156W        W10450  32.398   3.847  13.308
51157W        W10451  25.066  22.583   3.288
51158W        W10452  24.577  29.435  13.812
51159W        W10453  15.659  37.886  12.525
51160W        W10454  11.811  41.471  11.538
51161W        W10455  34.491  12.203   4.203
51162W        W10456  10.189  14.628  10.552
51163W        W10457  37.356   9.298   0.819
51164W        W10458   4.776  10.374  13.804
51165W        W10459  16.281  21.577   4.687
51166W        W10460  30.930  26.112   1.331
51167W        W10461  42.464   0.494   3.367
51168W        W10462  16.594  20.140   0.289
51169W        W10463  26.471  11.859  14.417
51170W        W10464   3.309  21.228   9.971
51171W        W10465  18.213  24.480  10.559
51172W        W10466  22.234  14.819  14.306
51173W        W10467   4.710  29.117  10.008
51174W        W10468   5.389  33.569   4.202
51175W        W10469   6.390  10.690  12.938
51176W        W10470  24.570  38.382  13.871
51177W        W10471  16.767  31.537  14.453
51178W        W10472  37.563   0.356   3.666
51179W        W10473  23.578  36.047   3.695
51180W        W10474   2.434   1.968   3.249
51181W        W10475  17.756  30.153   2.296
51182W        W10476  34.953   2.774  11.520
51183W        W10477  19.095  11.684   2.758
51184W        W10478  23.103  30.654   0.428
51185W        W10479  34.972  28.048  11.127
51186W        W10480  28.507  24.199  11.112
51187W        W10481  35.960   7.876  11.865
51188W        W10482  13.666  14.210   1.264
51189W        W10483  22.690  10.294   2.302
51190W        W10484   2.364   1.423   4.269
51191W        W10485  26.150  44.309   3.315
51192W        W10486  38.565  35.601   0.278
51193W        W10487  27.973  42.925  12.568
51194W        W10488  40.950   1.824   3.723
51195W        W10489   4.211  33.549  14.866
51196W        W10490  20.171  16.701   3.249
51197W        W10491  39.923  24.181   4.275
51198W        W10492  24.545   1.739   3.822
51199W        W10493  10.358  43.909   0.437
51200W        W10494  21.601  24.685   2.326
51201W        W10495   1.799   2.404   2.880
51202W        W10496   1.478  26.961  12.002
51203W        W10497  10.836  25.546   1.902
51204W        W10498  18.703   1.877   4.164
51205W        W10499  43.816  19.133  12.439
51206W        W10500  40.868  13.186  14.024
51207W        W10501  27.488  20.530  14.822
51208W        W10502  17.115  21.088  10.025
51209W        W10503   9.657  19.539  12.422
51210W        W10504   8.290  44.354   0.446
51211W        W10505  12.173  21.125  14.495
51212W        W10506   8.365  40.937  13.312
51213W        W10507  34.940  39.012   0.268
51214W        W10508  32.505  17.260  12.572
51215W        W10509  31.428  35.858  10.543
51216W        W10510   3.332  32.592  13.956
51217W        W10511  12.773  39.044   3.367
51218W        W10512  43.812  32.972   3.782
51219W        W10513  42.013  22.737  13.311
51220W        W10514  31.123   9.820   2.199
51221W        W10515  16.099  35.902  11.476
51222W        W10516  28.948  37.053   3.660
51223W        W10517   7.399  30.542  13.955
51224W        W10518  24.697  16.303  10.562
51225W        W10519  36.853   7.678   2.319
51226W        W10520  42.020  20.054   1.891
51227W        W10521  32.575  26.197  14.478
51228W        W10522  32.084   9.350   4.827
51229W        W10523  41.492   8.760   4.269
51230W        W10524  14.147  22.062  12.995
51231W        W10525   9.779  20.261  14.859
51232W        W10526  11.312   5.344   3.802
51233W        W10527  41.966  43.326   0.767
51234W        W10528  30.004   0.275  12.918
51235W        W10529  16.698  43.834  14.910
51236W        W10530  29.150  21.668   4.215
51237W        W10531  17.609  27.988   0.895
51238W        W10532   9.317  29.623  11.597
51239W        W10533  15.108  36.421  13.342
51240W        W10534   9.777  32.527   1.354
51241W        W10535  35.421   9.374   3.214
51242W        W10536  19.722   5.880  14.970
51243W        W10537  12.130  20.028  14.449
51244W        W10538   3.422  25.614  14.392
51245W        W10539   6.890   3.282   1.287
51246W        W10540  28.484  33.511  10.031
51247W        W10541  24.518  22.528   1.229
51248W        W10542  26.584  14.147   4.232
51249W        W10543  11.684   0.482  13.456
51250W        W10544  15.162  25.543   1.708
51251W        W10545  39.940  44.919  11.567
51252W        W10546  14.095  12.796  12.033
51253W        W10547  10.206  11.790   4.339
51254W        W10548  31.910  32.119   4.353
51255W        W10549  39.319  16.121  14.412
51256W        W10550   5.831  11.655  13.501
51257W        W10551  34.485  16.157   2.664
51258W        W10552  34.548  39.528  12.569
51259W        W10553  32.972  39.963  13.468
51260W        W10554  36.005  13.336  11.460
51261W        W10555  30.638  32.133  11.995
51262W        W10556   3.260  17.723  12.560
51263W        W10557  11.150  15.295  13.388
51264W        W10558   5.421  38.380  13.416
51265W        W10559  34.585  20.765   2.796
51266W        W10560  43.465  42.814  10.513
51267W        W10561  31.988   3.346  14.293
51268W        W10562  33.459  39.986   4.613
51269W        W10563   3.318   3.877   0.897
51270W        W10564   8.229  16.250   1.916
51271W        W10565   1.857   2.263  11.891
51272W        W10566  27.632   9.784   1.347
51273W        W10567  30.008  28.620  10.527
51274W        W10568   7.782   4.718   4.613
51275W        W10569  33.594  13.137  12.451
51276W        W10570  31.617  26.136  10.571
51277W        W10571   4.431   1.894   2.663
51278W        W10572  30.613  26.062  13.021
51279W        W10573  16.685  11.777   3.191
51280W        W10574  20.153  43.888  14.336
51281W        W10575  26.150   3.887  11.026
51282W        W10576  35.937  31.491   0.822
51283W        W10577  36.441  14.120  13.343
51284W        W10578   3.798  28.524   2.692
51285W        W10579   6.427  26.625  13.959
51286W        W10580  18.556  10.169  10.889
51287W        W10581  29.067  27.551  11.375
51288W        W10582  38.821  37.855   0.413
51289W        W10583  14.106  33.473  11.125
51290W        W10584  36.373  44.405  11.114
51291W        W10585  27.638   9.187   0.271
51292W        W10586  30.974  31.487   2.231
51293W        W10587  25.054   7.713  12.922
51294W        W10588  17.167   6.703  11.489
51295W        W10589  34.902   7.860   0.960
51296W        W10590  43.945   4.407  13.918
51297W        W10591  27.103  29.426  12.823
51298W        W10592  12.195  28.599  14.965
51299W        W10593  41.318  34.116  13.317
51300W        W10594  10.657  34.913  12.485
51301W        W10595  40.473  39.042  12.952
51302W        W10596  38.339  24.016   3.295
51303W        W10597  34.872  14.710   3.216
51304W        W10598  14.213  42.469   3.726
51305W        W10599   5.329  37.921  11.554
51306W        W10600  34.477  43.790   0.961
51307W        W10601  43.810  16.241   0.288
51308W        W10602  39.471  30.137  14.496
51309W        W10603   4.923  12.320   0.787
51310W        W10604  43.904  32.008   3.850
51311W        W10605   1.757  23.633   3.775
51312W        W10606  16.224  25.175  11.968
51313W        W10607  24.071  10.378   1.277
51314W        W10608   9.837  25.639   4.234
51315W        W10609   2.905  35.865   2.805
51316W        W10610   0.493  40.046  11.483
51317W        W10611   3.436  26.128   3.173
51318W        W10612   0.984  18.706   4.313
51319W        W10613  42.792  11.184   4.323
51320W        W10614  40.027  35.375   5.587
51321W        W10615  22.101  25.468   2.756
51322W        W10616  29.096  41.885   5.109
51323W        W10617  37.551  43.339  12.368
51324W        W10618  44.276  20.253  14.419
51325W        W10619  23.700  20.167   3.304
51326W        W10620  17.587  37.386  14.890
51327W        W10621   4.813  36.372  14.947
51328W        W10622  27.550  18.066  13.920
51329W        W10623  10.759  27.488   4.279
51330W        W10624  36.389  36.964   2.314
51331W        W10625  39.452  12.820   0.831
51332W        W10626  17.593  31.547  13.024
51333W        W10627  20.053  12.337   4.318
51334W        W10628  37.367  32.509   3.691
51335W        W10629   6.898  37.080  10.640
51336W        W10630   5.388  13.819   0.737
51337W        W10631   0.849  42.874   1.879
51338W        W10632  43.410  34.530   1.930
51339W        W10633   3.882  12.790   5.318
51340W        W10634  12.186  27.108   4.774
51341W        W10635  42.364   8.315   2.727
51342W        W10636  40.541  35.080  10.014
51343W        W10637  18.279  10.644  11.608
51344W        W10638  32.931  17.129  10.899
51345W        W10639  32.404  30.973  11.491
51346W        W10640  25.013  44.898  13.351
51347W        W10641  25.686  16.732  11.865
51348W        W10642  43.965  20.568   2.851
51349W        W10643  20.537  36.517  14.826
51350W        W10644  31.956  17.142  12.891
51351W        W10645  40.430  11.672  11.014
51352W        W10646  28.580   0.972  10.476
51353W        W10647   0.813  26.999  12.067
51354W        W10648  22.665  21.755  13.538
51355W        W10649   3.339  34.487  12.528
51356W        W10650  11.222  42.994  13.371
51357W        W10651  15.683  11.147  10.037
51358W        W10652  42.886  40.826   4.160
51359W        W10653  32.008  25.605   2.201
51360W        W10654  42.864  37.065   2.187
51361W        W10655  12.229  11.631  13.917
51362W        W10656  27.604  15.794  11.404
51363W        W10657  17.117   1.742  14.889
51364W        W10658  19.136  32.028  10.910
51365W        W10659  23.506  14.316  12.048
51366W        W10660  10.637  29.946   3.811
51367W        W10661   9.366  37.849  14.022
51368W        W10662   1.396  12.653  13.840
51369W        W10663   8.365  44.825   2.752
51370W        W10664   6.223  43.800   4.753
51371W        W10665  10.835  10.798   1.898
51372W        W10666  27.451   5.318  10.487
51373W        W10667  19.749  13.223   0.850
51374W        W10668  16.261  10.815  11.399
51375W        W10669  23.586  25.046  13.358
51376W        W10670  13.668  18.751   1.351
51377W        W10671  33.402  38.483  10.642
51378W        W10672  41.452  18.617   3.635
51379W        W10673  40.896  40.842  10.449
51380W        W10674  17.253  14.314   0.891
51381W        W10675  36.475  31.941  11.518
51382W        W10676  26.208  14.094  14.839
51383W        W10677  41.792   8.223  11.438
51384W        W10678  21.155  17.560  13.438
51385W        W10679   0.370  13.108   1.263
51386W        W10680  24.170  28.955  12.005
51387W        W10681   8.318  33.421  13.791
51388W        W10682  25.518  26.067  11.431
51389W        W10683   2.274  43.497  13.315
51390W        W10684   4.377   1.974  11.042
51391W        W10685  25.980  29.031  14.501
51392W        W10686  44.848  39.829  10.615
51393W        W10687  27.059   6.235   0.811
51394W        W10688   5.201   6.295   9.978
51395W        W10689  32.609  35.978  11.940
51396W        W10690  41.848  11.199   1.438
51397W        W10691  23.722   4.247   0.306
51398W        W10692  15.173  41.981  11.974
51399W        W10693  27.641   3.335  10.490
51400W        W10694  25.682   8.368  14.886
51401W        W10695  32.949  15.137   1.231
51402W        W10696   2.923  42.967  13.913
51403W        W10697  24.200  32.581  11.076
51404W        W10698  23.526  44.473   3.186
51405W        W10699   5.393   1.335   3.331
51406W        W10700  15.193  15.662  11.981
51407W        W10701  44.459  26.697  10.103
51408W        W10702  23.614  37.081   1.270
51409W        W10703  32.466   8.251  13.511
51410W        W10704   0.425  27.561  13.426
51411W        W10705  19.543  21.246   5.316
51412W        W10706  41.851  10.157   2.900
51413W        W10707   4.277   0.391  11.903
51414W        W10708   9.723  25.218  13.463
51415W        W10709   1.862  19.134  11.401
51416W        W10710  34.937  33.036  13.038
51417W        W10711  10.323  33.488  12.511
51418W        W10712  32.508  35.452   0.798
51419W        W10713  36.547  29.490  12.569
51420W        W10714  35.391  23.162  14.484
51421W        W10715   2.441  16.132  11.595
51422W        W10716  19.646   0.754   2.362
51423W        W10717  29.474  16.607   0.932
51424W        W10718  27.181   1.440  11.087
51425W        W10719  11.808  42.819   1.392
51426W        W10720  37.492   7.194   0.454
51427W        W10721  24.571  38.841  14.921
51428W        W10722   2.885  32.060   2.287
51429W        W10723  12.773   8.323   2.724
51430W        W10724  25.584  21.110   4.831
51431W        W10725  32.110   2.358   1.333
51432W        W10726  29.577  39.444   2.809
51433W        W10727   6.249  40.409  11.092
51434W        W10728  17.775  34.576  11.400
51435W        W10729   3.270   8.788  10.086
51436W        W10730  41.348  42.363   4.598
51437W        W10731  22.118  43.783  10.561
51438W        W10732   9.263  41.871   2.236
51439W        W10733  33.589  32.547  10.502
51440W        W10734  11.674  17.107  12.525
51441W        W10735   6.777  25.654  13.954
51442W        W10736  39.368  10.740   0.466
51443W        W10737   7.376  38.553   2.308
51444W        W10738  30.419  38.995  12.053
51445W        W10739  31.610  25.015  13.413
51446W        W10740  17.177   4.845   4.731
51447W        W10741  37.876  17.117  14.780
51448W        W10742  15.773  13.185   4.631
51449W        W10743   6.182  12.758   4.831
51450W        W10744   0.745  14.276  10.118
51451W        W10745   7.318  40.854  11.917
51452W        W10746  43.848  38.462  12.411
51453W        W10747  34.076  10.160  14.508
51454W        W10748  25.625  30.461  10.465
51455W        W10749  41.386  44.767  10.641
51456W        W10750  34.572  32.510   1.221
51457W        W10751  42.956  23.536   2.349
51458W        W10752  14.707  25.704  11.586
51459W        W10753  18.259  39.456   0.741
51460W        W10754   1.886   9.219   4.169
51461W        W10755   2.886   6.850   4.230
51462W        W10756  36.992  27.158   0.909
51463W        W10757  16.630  20.084  10.556
51464W        W10758  36.388  12.777   4.750
51465W        W10759  12.310  23.569  10.603
51466W        W10760  23.002   7.314   1.842
51467W        W10761  12.275  29.433  13.842
51468W        W10762   3.348  14.638   0.405
51469W        W10763   9.790  32.906  11.509
51470W        W10764  21.253  33.018  12.983
51471W        W10765  34.392  17.666   1.703
51472W        W10766   5.287   0.874   0.446
51473W        W10767  13.249   8.389   0.474
51474W        W10768  42.913  21.627   2.227
51475W        W10769  29.175  23.189   2.184
51476W        W10770  23.640  40.325   4.132
51477W        W10771  12.851   5.302  14.455
51478W        W10772  11.846  12.697  10.947
51479W        W10773   3.358   9.197  13.386
51480W        W10774  26.097  33.885  13.405
51481W        W10775  33.944   1.367  12.973
51482W        W10776   1.444   9.857  11.953
51483W        W10777  26.181  38.447   3.289
51484W        W10778  25.505  12.295   0.818
51485W        W10779   7.737  37.859   1.219
51486W        W10780   1.414  10.377  10.599
51487W        W10781   6.894  22.523   4.660
51488W        W10782  12.736  26.046  10.508
51489W        W10783  12.184  30.436   2.311
51490W        W10784   4.207  41.917  13.983
51491W        W10785  37.431  19.061  14.274
51492W        W10786  20.181  23.116   0.393
51493W        W10787  36.098   9.836  12.835
51494W        W10788  22.705  32.042  10.545
51495W        W10789   3.347  28.598   1.835
51496W        W10790  14.660  28.643   1.883
51497W        W10791  10.736  24.173   1.250
51498W        W10792  21.589  11.816   2.813
51499W        W10793   5.345   9.703   2.886
51500W        W10794   9.722   2.293   0.899
51501W        W10795  25.516   8.726  12.484
51502W        W10796  30.569   0.410  12.406
51503W        W10797  22.528  12.159   1.266
51504W        W10798  36.582  26.683   0.261
51505W        W10799  20.105  31.898   0.837
51506W        W10800   8.753  33.964  11.556
51507W        W10801  37.435  43.370  10.475
51508W        W10802  22.165  19.614   2.353
51509W        W10803  43.478  29.508  14.508
51510W        W10804  11.656  34.097   2.327
51511W        W10805   2.326  40.364   3.377
51512W        W10806  29.156  27.451   3.750
51513W        W10807  32.414  13.119   3.155
51514W        W10808  29.540  37.562  11.894
51515W        W10809   6.351  17.234  11.025
51516W        W10810  42.928  40.369   4.604
51517W        W10811  39.898  28.578   3.353
51518W        W10812  24.192  29.042   1.232
51519W        W10813  17.151  13.144  10.482
51520W        W10814   8.297   6.229  11.387
51521W        W10815  42.520  21.213  12.933
51522W        W10816  20.033  40.345  14.991
51523W        W10817  11.658  14.270   3.199
51524W        W10818  17.729  40.495  14.881
51525W        W10819  12.676  16.156  13.882
51526W        W10820  34.906  24.573  11.588
51527W        W10821  18.647  22.127   3.818
51528W        W10822  25.982  38.820   0.442
51529W        W10823  32.934  24.687  12.507
51530W        W10824  36.073  30.920  14.314
51531W        W10825  38.840   0.267  10.081
51532W        W10826  40.977  14.261  13.349
51533W        W10827  17.248  36.956   3.647
51534W        W10828  16.083  24.011   1.409
51535W        W10829   0.317   4.882  11.511
51536W        W10830  34.483  13.227   0.797
51537W        W10831  34.961  30.501   0.370
51538W        W10832  16.703  29.146   1.758
51539W        W10833  21.555  19.729  14.022
51540W        W10834   3.435   6.818  11.925
51541W        W10835  36.943   7.197  13.992
51542W        W10836   3.814  40.807  11.413
51543W        W10837  33.518  44.756  11.124
51544W        W10838  14.101  28.080  13.460
51545W        W10839  11.271  11.221   0.844
51546W        W10840  29.488  16.747  12.404
51547W        W10841  30.587  22.653  14.958
51548W        W10842  41.977  21.155  11.404
51549W        W10843  42.416  20.589  13.911
51550W        W10844  33.080  27.167  13.493
51551W        W10845   2.844  32.417   0.323
51552W        W10846  39.430  44.816   2.397
51553W        W10847   3.821  41.502  13.409
51554W        W10848  20.151  25.687  13.543
51555W        W10849  18.728  14.216  11.078
51556W        W10850  11.709  28.510   3.834
51557W        W10851  22.675  44.886   3.856
51558W        W10852  21.534  33.515   3.274
51559W        W10853   2.959  44.401  10.939
51560W        W10854  26.053  28.112  12.023
51561W        W10855  24.159  19.639  10.032
51562W        W10856   0.372  13.349   2.733
51563W        W10857  23.661   9.715   5.309
51564W        W10858  27.646   5.358   4.769
51565W        W10859  30.934  15.807  10.549
51566W        W10860  24.481  39.430  12.886
51567W        W10861  27.049   7.376  11.442
51568W        W10862  27.023  30.000   1.849
51569W        W10863  19.247  25.480   1.315
51570W        W10864  10.670  19.162  14.459
51571W        W10865  40.030  41.797  13.317
51572W        W10866   0.844   8.684  10.123
51573W        W10867   9.737  10.695  13.958
51574W        W10868  40.512   8.882   3.664
51575W        W10869   0.898  43.876  14.863
51576W        W10870  19.630  35.079  12.005
51577W        W10871  36.875   9.732   4.304
51578W        W10872  24.031  26.596  14.958
51579W        W10873  11.365  23.701   0.777
51580W        W10874  40.814  20.612   1.709
51581W        W10875  41.882  18.207  12.080
51582W        W10876  41.304  11.632  14.968
51583W        W10877  23.577  33.896  11.911
51584W        W10878   2.327  44.810  14.390
51585W        W10879  30.096  13.750   3.700
51586W        W10880  35.517   3.250   1.315
51587W        W10881   0.796   0.912   2.823
51588W        W10882  40.957   7.737   0.330
51589W        W10883  25.702  23.585  10.037
51590W        W10884  20.039  38.539   3.696
51591W        W10885  43.982  42.000  11.536
51592W        W10886  15.651  24.107  11.483
51593W        W10887  35.859  42.334   1.275
51594W        W10888  15.718  27.032   1.269
51595W        W10889   1.732  14.730  14.368
51596W        W10890  25.498  11.790   3.819
51597W        W10891  18.767  12.127   4.723
51598W        W10892   7.683  34.540   0.863
51599W        W10893  41.302  27.136  13.520
51600W        W10894  26.952  40.985   0.345
51601W        W10895   5.810  12.317  11.503
51602W        W10896  29.494  10.710  12.962
51603W        W10897   4.889  24.001   3.194
51604W        W10898  42.512  21.250   0.957
51605W        W10899  18.709  42.914  13.354
51606W        W10900   5.887  29.651   1.248
51607W        W10901  34.527  28.941   1.868
51608W        W10902  24.192  21.745  11.561
51609W        W10903   1.880  31.967  13.992
51610W        W10904  19.724  27.450   0.927
51611W        W10905   7.411  10.181  14.947
51612W        W10906   3.328  18.595  11.395
51613W        W10907  17.273  42.902  11.555
51614W        W10908  33.904   5.884  14.850
51615W        W10909  29.997  39.839   1.382
51616W        W10910  13.343  12.136  11.901
51617W        W10911  17.249  32.454   3.205
51618W        W10912  37.014  22.722  10.890
51619W        W10913   9.229   9.698  10.484
51620W        W10914  40.996   9.218  13.057
51621W        W10915  43.307  29.019   4.605
51622W        W10916  32.529   2.875   2.814
51623W        W10917  29.949  26.080   3.352
51624W        W10918  19.254  25.067   3.161
51625W        W10919  12.638  37.916  10.529
51626W        W10920  43.465  32.506   4.732
51627W        W10921  36.510  28.046   4.259
51628W        W10922   8.800  15.682  13.868
51629W        W10923  20.630   2.885  12.399
51630W        W10924  22.663  44.353  12.512
51631W        W10925  34.946  15.648   3.373
51632W        W10926   5.808  20.709  14.288
51633W        W10927  36.942   2.770  11.385
51634W        W10928   8.188   2.427   2.805
51635W        W10929  18.144   6.194  12.416
51636W        W10930  23.113  26.483  10.481
51637W        W10931  19.148  36.511  11.558
51638W        W10932  41.880  15.713   0.293
51639W        W10933  38.378   4.878   2.857
51640W        W10934  27.028  28.099  12.400
51641W        W10935  24.579  16.581   2.860
51642W        W10936  14.771   0.929  10.599
51643W        W10937   5.858  35.108   3.635
51644W        W10938  44.950  31.507  11.049
51645W        W10939  26.684  21.034   3.712
51646W        W10940  40.026  14.759  10.540
51647W        W10941  25.711  20.121  11.451
51648W        W10942  17.731  15.803   4.199
51649W        W10943  26.190   1.473   0.788
51650W        W10944  15.261  44.275  11.448
51651W        W10945  28.538  19.626  10.606
51652W        W10946  37.490   9.352   1.345
51653W        W10947  37.847   5.775   4.755
51654W        W10948  39.426  37.340  14.381
51655W        W10949  20.031  22.063  13.958
51656W        W10950  31.556   1.276   0.934
51657W        W10951  10.776  23.135  12.954
51658W        W10952  10.303   0.346   9.552
51659W        W10953  16.808  21.180   2.282
51660W        W10954  38.548  28.153   3.199
51661W        W10955  40.384  31.492   3.255
51662W        W10956  40.316   7.753  11.950
51663W        W10957   6.840  27.010   0.767
51664W        W10958  13.838  13.810  12.388
51665W        W10959  11.705   3.922  14.404
51666W        W10960  36.456   3.335   4.150
51667W        W10961  30.963  40.849   4.642
51668W        W10962  12.712   2.452   3.782
51669W        W10963  32.394  14.690  12.436
51670W        W10964   2.863  37.964   3.212
51671W        W10965   3.730  33.536  11.519
51672W        W10966  23.635   6.232   2.333
51673W        W10967   4.376  37.568   2.857
51674W        W10968  12.832  31.412  13.795
51675W        W10969  39.004   5.408   0.912
51676W        W10970   7.689  24.588   4.619
51677W        W10971  24.060  24.072  14.353
51678W        W10972   3.402  38.007   2.793
51679W        W10973  12.157  42.384   2.766
51680W        W10974  28.058  18.698   4.802
51681W        W10975   0.408  29.956  11.904
51682W        W10976   8.258  43.315   1.839
51683W        W10977   8.286   4.847  12.978
51684W        W10978  23.061  33.593   2.699
51685W        W10979  19.604  17.153   3.657
51686W        W10980   7.405   2.838   3.191
51687W        W10981  18.727  26.697   0.458
51688W        W10982  14.107  12.157  12.017
51689W        W10983  13.349  10.254  10.425
51690W        W10984  38.456  20.708  10.971
51691W        W10985  33.425  13.223  14.969
51692W        W10986  14.756   1.798   1.372
51693W        W10987   4.882  10.300   4.303
51694W        W10988   7.904  12.178  11.417
51695W        W10989  41.329  17.291   2.346
51696W        W10990  40.909  41.879   1.226
51697W        W10991   4.793  23.684   3.848
51698W        W10992  26.154  29.657   3.839
51699W        W10993  19.250  29.097  11.525
51700W        W10994  18.204  10.161   1.239
51701W        W10995  15.624  38.552   2.419
51702W        W10996  34.095  41.377   0.315
51703W        W10997  33.085   2.735   4.135
51704W        W10998  24.002   9.772   2.331
51705W        W10999   1.752  40.381  12.065
51706W        W11000  40.533  22.543  12.455
51707W        W11001  39.899  26.618  14.766
51708W        W11002  11.325  35.439  12.373
51709W        W11003  20.738  19.753  13.940
51710W        W11004   7.346   4.871   3.791
51711W        W11005   8.231  40.329  11.993
51712W        W11006  28.620  41.298   4.794
51713W        W11007  36.036  11.128  14.999
51714W        W11008  15.724  44.813   0.830
51715W        W11009  15.740   8.729  14.793
51716W        W11010  17.192   6.691  13.423
51717W        W11011  36.931  20.641   0.745
51718W        W11012  30.137   3.259   1.867
51719W        W11013  37.986  39.054  14.448
51720W        W11014  37.028  21.700  13.374
51721W        W11015  32.945   1.847   0.853
51722W        W11016  27.453  33.079  14.458
51723W        W11017  24.620  12.153   0.958
51724W        W11018   3.900  31.030  12.887
51725W        W11019  33.558  13.639   3.296
51726W        W11020   8.690  38.423  14.873
51727W        W11021  34.397  15.641   2.856
51728W        W11022  39.022  13.214   3.311
51729W        W11023   6.200   3.949   3.323
51730W        W11024  11.847  10.729   4.639
51731W        W11025  30.928  13.755   1.862
51732W        W11026   3.803  33.901   4.177
51733W        W11027  12.835  38.059  11.041
51734W        W11028  26.646  35.413  10.604
51735W        W11029   8.378  28.981  12.993
51736W        W11030  12.303  33.903  11.461
51737W        W11031  37.831  32.535   1.733
51738W        W11032  43.297  18.112   4.317
51739W        W11033  29.655  36.910  14.875
51740W        W11034  39.397  40.347  12.939
51741W        W11035   3.881  29.459  11.420
51742W        W11036   4.802   0.367  12.440
51743W        W11037  29.476  23.133   4.198
51744W        W11038  38.372   7.392  10.916
51745W        W11039  35.866  24.637   4.354
51746W        W11040   0.819  33.068   3.311
51747W        W11041  40.436  35.109  11.951
51748W        W11042  16.160  23.233   2.193
51749W        W11043   8.884  43.802  11.411
51750W        W11044  27.620  23.589  11.415
51751W        W11045  41.462  27.643   4.614
51752W        W11046   2.335   0.425   1.763
51753W        W11047  32.471   1.914  14.382
51754W        W11048  31.495  33.102  10.521
51755W        W11049  33.533  34.037   1.905
51756W        W11050   4.826  42.797   4.274
51757W        W11051  23.695  34.889   4.148
51758W        W11052   2.247  14.334  13.931
51759W        W11053  43.873   9.688   0.482
51760W        W11054  29.526  32.076   4.193
51761W        W11055  21.229  20.532   4.234
51762W        W11056   8.322  44.831   3.689
51763W        W11057   8.661  28.534   9.993
51764W        W11058  36.531  26.562   3.310
51765W        W11059  27.569  14.250  10.417
51766W        W11060  16.743  26.561  12.556
51767W        W11061   9.765  24.615  13.060
51768W        W11062  26.180   5.288  10.434
51769W        W11063  18.547  31.913   0.268
51770W        W11064  44.302  34.987   3.329
51771W        W11065  19.547  34.049   3.345
51772W        W11066  18.202  29.176   2.768
51773W        W11067  14.765   4.770   9.962
51774W        W11068  18.691  20.099  11.865
51775W        W11069   9.693  19.775  11.587
51776W        W11070   6.899  39.016  14.832
51777W        W11071  31.072  21.212   0.728
51778W        W11072  32.624  14.213   2.335
51779W        W11073  34.480   1.753  13.901
51780W        W11074   5.325   6.387   2.784
51781W        W11075  43.439  31.635   3.774
51782W        W11076  38.981  35.877   3.173
51783W        W11077   5.769  42.909   2.731
51784W        W11078  19.669  33.111  14.908
51785W        W11079  38.968  38.868   4.771
51786W        W11080   9.742  28.959  10.551
51787W        W11081  20.135  24.076   4.837
51788W        W11082  23.703  39.888   1.709
51789W        W11083  28.470   2.822  13.475
51790W        W11084  32.441  27.602  14.419
51791W        W11085  22.554  16.128   3.801
51792W        W11086   2.966  20.624  14.770
51793W        W11087  11.741  19.566   0.763
51794W        W11088  26.953  25.691   3.710
51795W        W11089  10.671  11.699   0.471
51796W        W11090  37.076  36.981  14.766
51797W        W11091  42.429   6.800   0.825
51798W        W11092  43.874   8.873   0.426
51799W        W11093  15.642  35.884  14.383
51800W        W11094   0.490  28.055   1.897
51801W        W11095  35.905  14.651  10.409
51802W        W11096  35.448  17.708   0.367
51803W        W11097   3.942  36.032  13.998
51804W        W11098   6.326  12.842   1.311
51805W        W11099  20.118  15.727  12.842
51806W        W11100  41.374  25.123  14.394
51807W        W11101  27.473  35.585  14.889
51808W        W11102  34.021  29.072  12.385
51809W        W11103  12.254  44.971  11.870
51810W        W11104  17.745   4.325   4.345
51811W        W11105  27.022   4.847  11.457
51812W        W11106  37.899  25.623  10.495
51813W        W11107   1.948  35.551   1.858
51814W        W11108  41.491  12.734   0.889
51815W        W11109  11.680  13.206  12.899
51816W        W11110  35.955  21.713   0.756
51817W        W11111   0.760  26.572  14.462
51818W        W11112  30.656  21.689  12.069
51819W        W11113  42.972  14.167   3.756
51820W        W11114  18.169   6.887  10.470
51821W        W11115  38.921   6.831   3.804
51822W        W11116  32.547  12.353   1.874
51823W        W11117   1.906  22.211  11.413
51824W        W11118  35.079   2.768  14.505
51825W        W11119  23.144  24.045  12.529
51826W        W11120  32.934  14.285  14.434
51827W        W11121   3.874   6.812  12.070
51828W        W11122  11.635  28.514  13.018
51829W        W11123   3.945   6.337  12.004
51830W        W11124  25.555  42.307   0.955
51831W        W11125  26.687  36.062   3.284
51832W        W11126  25.489  11.731  13.987
51833W        W11127   8.656  18.725   4.681
51834W        W11128  28.670  18.548   3.829
51835W        W11129  33.032  40.526   3.212
51836W        W11130  33.422  17.208   5.308
51837W        W11131  11.804  31.139   5.205
51838W        W11132  14.250  20.068   4.281
51839W        W11133  39.052  44.952  14.027
51840W        W11134  42.350   4.311  12.494
51841W        W11135  11.214  30.132  12.040
51842W        W11136  35.521   7.720   2.226
51843W        W11137  30.529  28.634   3.371
51844W        W11138  39.363   7.776   4.806
51845W        W11139  37.831   5.784   1.845
51846W        W11140  17.165  32.892   3.315
51847W        W11141  39.395   2.320  13.844
51848W        W11142   0.364  29.009  12.413
51849W        W11143   4.731  33.978  12.944
51850W        W11144  21.604  16.778  14.424
51851W        W11145  40.809   4.347  11.033
51852W        W11146  30.619  21.629  11.412
51853W        W11147  42.408  11.681   1.749
51854W        W11148   4.364   8.250   1.764
51855W        W11149   9.151  20.090   9.512
51856W        W11150  23.691  19.628   0.348
51857W        W11151   0.306  17.618  12.566
51858W        W11152  34.999  37.871  14.908
51859W        W11153  36.962   3.867   4.352
51860W        W11154   6.251  21.083   1.341
51861W        W11155   9.203  41.959  11.430
51862W        W11156  32.957  31.033  11.474
51863W        W11157  43.772  15.152  13.451
51864W        W11158  19.116  41.018   1.365
51865W        W11159   3.224  43.468  13.526
51866W        W11160  22.226  27.568  14.472
51867W        W11161  31.141  16.653   1.819
51868W        W11162  14.692   3.290  12.418
51869W        W11163  21.097  22.038   3.357
51870W        W11164  37.871   7.295  13.959
51871W        W11165  41.440  27.620   4.204
51872W        W11166  33.418   5.365   3.645
51873W        W11167   9.245  26.593  13.338
51874W        W11168  25.619   1.940  10.596
51875W        W11169  26.655  40.407  10.932
51876W        W11170  28.480  17.792   4.727
51877W        W11171  25.565   8.384  11.029
51878W        W11172   4.378  22.666   1.296
51879W        W11173  26.046  19.551   0.749
51880W        W11174  17.227  28.438  12.580
51881W        W11175   2.399  38.389  12.039
51882W        W11176  32.543  12.631  10.058
51883W        W11177   4.441  42.362  14.951
51884W        W11178  32.098  12.186  14.463
51885W        W11179  32.527  41.885  13.515
51886W        W11180   3.734  17.190   3.681
51887W        W11181  14.107  10.764   1.809
51888W        W11182  13.798  37.366   2.893
51889W        W11183   2.242  41.443   3.820
51890W        W11184  22.503  39.463   4.177
51891W        W11185  28.615  17.679   4.274
51892W        W11186  11.208   2.286  12.408
51893W        W11187  10.350  42.019   0.423
51894W        W11188  44.328   2.229  13.933
51895W        W11189  21.034  17.582  13.913
51896W        W11190   0.895  29.934  14.783
51897W        W11191   4.415  13.226   1.326
51898W        W11192   3.270  22.030   2.405
51899W        W11193  11.706   8.739  10.132
51900W        W11194  40.959  21.594  13.058
51901W        W11195  13.639  10.379  13.405
51902W        W11196  39.870  15.662   3.169
51903W        W11197  24.193   0.283  12.457
51904W        W11198   6.907  30.448   4.310
51905W        W11199  19.566  43.366   4.122
51906W        W11200  40.374   1.423  12.459
51907W        W11201  15.763  43.869  10.150
51908W        W11202  37.031  20.710   3.277
51909W        W11203  18.607   5.286   4.718
51910W        W11204  31.414  21.052  11.004
51911W        W11205  11.250  32.049  11.538
51912W        W11206  23.219   9.317  14.427
51913W        W11207  15.191  31.117  12.509
51914W        W11208  35.984  14.132  10.609
51915W        W11209  24.092  15.146  14.029
51916W        W11210  38.968  40.015  11.473
51917W        W11211  33.495  27.555   2.403
51918W        W11212  38.551  40.814   3.283
51919W        W11213  10.262  11.763   2.409
51920W        W11214  25.165  13.147  13.972
51921W        W11215  19.573   3.814  13.834
51922W        W11216   4.214  20.128   9.961
51923W        W11217   3.881  11.318   0.385
51924W        W11218  41.837  18.199  13.537
51925W        W11219  27.445  29.579  13.874
51926W        W11220  32.899  33.403   1.778
51927W        W11221  27.614  22.609   4.791
51928W        W11222  44.313  16.624  14.331
51929W        W11223   0.351  26.691   1.744
51930W        W11224   3.931  39.345   3.690
51931W        W11225  33.081  37.058   3.324
51932W        W11226  43.448  41.399   4.696
51933W        W11227  14.730  17.278   0.749
51934W        W11228  23.987  21.082   1.800
51935W        W11229  39.843   6.760   4.250
51936W        W11230  15.201  21.640  12.056
51937W        W11231  44.368  24.155   2.328
51938W        W11232  12.312  12.616  13.044
51939W        W11233  29.079   0.430  14.341
51940W        W11234  21.191   2.435   2.293
51941W        W11235  23.516  18.594  10.498
51942W        W11236  26.128  40.032   0.309
51943W        W11237  17.104  26.176  14.996
51944W        W11238  21.188  18.137   2.674
51945W        W11239  24.488  20.742   0.872
51946W        W11240  23.627   7.673   1.849
51947W        W11241  26.989  42.467   4.178
51948W        W11242  43.951  43.386   4.832
51949W        W11243  30.607  39.892  13.909
51950W        W11244  38.837  34.871  14.348
51951W        W11245  20.627  14.661  12.446
51952W        W11246  10.319  12.857   1.822
51953W        W11247  32.026  11.221   2.877
51954W        W11248  37.432   7.908   1.832
51955W        W11249   8.391  39.860   1.218
51956W        W11250  24.083  18.113  13.355
51957W        W11251  14.198   4.363   9.958
51958W        W11252  29.137  11.657   0.833
51959W        W11253  11.298  40.430  12.579
51960W        W11254  42.792  10.309  14.900
51961W        W11255  25.984   6.219  12.070
51962W        W11256  21.236   0.785  12.044
51963W        W11257  16.169  17.677  14.844
51964W        W11258  44.402  24.149   4.833
51965W        W11259  31.928  32.550  14.332
51966W        W11260  39.848   9.835  14.897
51967W        W11261  22.087   5.697   0.916
51968W        W11262  31.620   5.402   3.667
51969W        W11263   5.763  37.949  12.923
51970W        W11264  23.533   0.954  11.988
51971W        W11265   1.291   7.812  14.391
51972W        W11266  11.844  22.159  10.155
51973W        W11267  38.511  30.995   3.314
51974W        W11268  23.597  36.081  10.460
51975W        W11269  44.278  24.630  10.497
51976W        W11270  31.118  21.157   2.838
51977W        W11271  36.057   1.844  12.954
51978W        W11272  19.271  31.149   4.239
51979W        W11273   0.438   4.207   4.631
51980W        W11274  27.067  14.710  12.552
51981W        W11275  15.606  14.236  13.387
51982W        W11276  24.225  38.047  14.809
51983W        W11277  13.715  36.490  11.021
51984W        W11278  24.539  27.580   3.270
51985W        W11279  39.023  44.476   0.244
51986W        W11280  12.660  25.147  11.509
51987W        W11281  22.747  23.563   9.925
51988W        W11282  21.531  32.583   2.418
51989W        W11283  30.503  42.476  11.454
51990W        W11284  16.640  40.966  14.030
51991W        W11285  29.432  17.138  14.390
51992W        W11286  17.735  21.754  14.462
51993W        W11287  38.012  10.262  10.473
51994W        W11288  42.408   3.220   3.797
51995W        W11289   6.772   7.241   1.234
51996W        W11290  35.574  40.458  10.997
51997W        W11291  25.102  36.890  12.070
51998W        W11292  42.523  20.126  13.544
51999W        W11293  44.008  31.514  13.407
52000W        W11294  16.270   3.860   2.844
52001W        W11295  14.768  24.038   1.832
52002W        W11296   6.750   0.446  12.987
52003W        W11297   5.812  37.482  12.086
52004W        W11298  12.679   2.824   0.459
52005W        W11299  22.135  19.191  13.478
52006W        W11300  25.487  13.825  12.386
52007W        W11301   6.361  15.619  10.894
52008W        W11302  12.853   1.307  14.902
52009W        W11303  35.368  13.345  13.024
52010W        W11304  38.915  10.288   3.180
52011W        W11305  22.092   1.338  12.561
52012W        W11306  42.525  25.564   3.665
52013W        W11307  30.045   4.735  11.063
52014W        W11308   9.848  40.998   1.849
52015W        W11309   5.340  37.582   3.671
52016W        W11310  37.983   1.737   1.924
52017W        W11311   9.809  23.093   4.123
52018W        W11312  14.140  15.679   1.281
52019W        W11313  14.822  11.773  12.539
52020W        W11314  44.009  37.835   4.675
52021W        W11315  38.472  42.013  12.028
52022W        W11316   7.845  44.877  12.576
52023W        W11317  35.107  22.568   2.883
52024W        W11318  28.054  19.267   3.351
52025W        W11319  30.145  41.300  13.869
52026W        W11320  10.633  21.608  14.285
52027W        W11321  29.477  20.160  13.056
52028W        W11322  12.159  29.525   0.788
52029W        W11323  27.491   1.267   2.343
52030W        W11324   4.333  28.006  13.449
52031W        W11325  19.602  23.636   2.208
52032W        W11326  26.491  17.273   2.202
52033W        W11327   5.919  14.255  10.449
52034W        W11328  26.675  17.071   3.682
52035W        W11329  42.298  23.722  12.844
52036W        W11330  23.140  19.658   2.664
52037W        W11331  35.573  25.969   4.203
52038W        W11332   3.263  11.222   0.961
52039W        W11333  30.460  37.518  13.392
52040W        W11334  39.051  10.814  14.908
52041W        W11335  37.858   4.279  11.117
52042W        W11336  22.057  34.611   2.350
52043W        W11337  20.096  20.674  13.352
52044W        W11338  22.596  16.606  10.441
52045W        W11339  43.941  34.987   1.294
52046W        W11340   6.756   6.715   2.289
52047W        W11341  32.417  23.185   3.220
52048W        W11342   8.805  13.177   4.648
52049W        W11343  10.292  21.114  14.895
52050W        W11344  22.694  21.253  12.488
52051W        W11345  31.976  22.636   5.273
52052W        W11346  44.826  32.896  13.380
52053W        W11347   4.726  17.204  11.467
52054W        W11348   9.819  26.053   3.258
52055W        W11349   0.853  40.340  10.899
52056W        W11350  22.699  10.767  14.316
52057W        W11351  13.632  17.099  13.416
52058W        W11352  39.872   7.192  13.826
52059W        W11353  35.994   4.397   3.325
52060W        W11354  25.641   4.816  14.028
52061W        W11355   6.901  44.336   1.773
52062W        W11356  37.342  26.184   0.882
52063W        W11357  27.516  16.271   2.869
52064W        W11358  21.035  42.947  12.045
52065W        W11359   0.367  42.971  11.381
52066W        W11360  13.304  20.244   1.211
52067W        W11361  37.922  10.297  10.932
52068W        W11362  44.880  30.057   4.806
52069W        W11363   2.229  36.542   3.820
52070W        W11364  28.018   3.791   1.746
52071W        W11365  30.519   4.768  10.581
52072W        W11366  24.015  38.423  14.875
52073W        W11367  26.481  19.254   4.207
52074W        W11368  35.463  30.575   2.398
52075W        W11369  27.111  34.100   2.400
52076W        W11370  10.246  43.819  13.935
52077W        W11371   4.222  35.905  12.396
52078W        W11372  21.713   8.259   9.976
52079W        W11373   2.346  38.553   4.770
52080W        W11374  26.082  30.614   1.908
52081W        W11375  20.663  39.324  10.917
52082W        W11376  39.996  18.256   2.393
52083W        W11377  37.054  32.634  12.015
52084W        W11378   1.459  23.097  14.894
52085W        W11379  29.991  44.840   3.680
52086W        W11380  16.272  39.493   1.360
52087W        W11381  14.114  10.826   0.730
52088W        W11382  39.526  31.145  11.499
52089W        W11383  31.508  16.725  10.524
52090W        W11384  29.441   3.220   2.682
52091W        W11385  10.314  33.998  10.573
52092W        W11386   6.868  29.175   4.670
52093W        W11387  27.574  22.585  10.613
52094W        W11388  44.970  28.060  12.949
52095W        W11389  27.485  28.482   3.337
52096W        W11390  10.207  36.466  11.896
52097W        W11391   1.248   5.229   2.385
52098W        W11392  19.561  10.267  14.824
52099W        W11393  44.884   3.351   0.418
52100W        W11394  15.707  29.662   1.254
52101W        W11395  27.172   6.208  14.813
52102W        W11396  14.723  23.100   3.806
52103W        W11397   3.380  32.580   4.738
52104W        W11398  35.579  28.153  11.012
52105W        W11399  14.705  27.170   3.232
52106W        W11400  42.454  11.720   2.416
52107W        W11401  35.947  26.044   0.935
52108W        W11402   9.242  35.535  12.434
52109W        W11403  23.054  19.577   0.863
52110W        W11404  24.712  40.352  13.984
52111W        W11405   5.349  31.086  12.466
52112W        W11406  35.924   3.803   0.809
52113W        W11407  43.440  13.268  10.554
52114W        W11408  11.665  41.958   3.284
52115W        W11409  27.446   3.880   0.342
52116W        W11410  12.122  44.477   0.852
52117W        W11411  21.158  10.213   1.752
52118W        W11412  11.677  29.959  10.970
52119W        W11413  15.763  14.331   1.917
52120W        W11414  28.507  33.086  10.636
52121W        W11415  10.870  12.619  13.952
52122W        W11416  27.953  20.069  10.978
52123W        W11417  37.018  44.432  13.935
52124W        W11418   6.325  26.011  14.482
52125W        W11419  31.138   8.397  11.957
52126W        W11420  14.114   4.870  10.427
52127W        W11421  13.727  21.523  11.046
52128W        W11422  29.920   2.330   4.817
52129W        W11423  13.109  37.007  11.924
52130W        W11424  20.695   5.708   1.222
52131W        W11425  38.473  25.177   0.440
52132W        W11426  33.527  43.281   3.826
52133W        W11427  20.716   6.791   1.773
52134W        W11428  21.613  44.491  14.428
52135W        W11429  25.978  28.618   1.258
52136W        W11430  31.581  15.765  11.872
52137W        W11431  14.238  30.959  12.053
52138W        W11432  36.077  41.967  11.447
52139W        W11433  26.041  21.062  13.817
52140W        W11434  26.701  41.945   5.278
52141W        W11435  39.346   1.764   1.247
52142W        W11436  33.491  29.093   3.191
52143W        W11437   0.274  44.861   3.850
52144W        W11438  20.108  41.376   2.183
52145W        W11439  26.017  11.216  13.908
52146W        W11440  39.341   0.905   3.806
52147W        W11441  30.089  30.910  12.096
52148W        W11442  31.456  15.307   0.451
52149W        W11443  25.543  21.024   5.257
52150W        W11444  44.425   3.255  13.920
52151W        W11445   6.185   8.764  10.074
52152W        W11446  33.094   5.870   4.195
52153W        W11447  34.571  36.556   5.236
52154W        W11448  41.940  38.987   0.347
52155W        W11449   7.351  18.144  14.868
52156W        W11450  15.223  32.983  14.945
52157W        W11451  41.790   0.968   2.351
52158W        W11452  25.109  15.762   4.675
52159W        W11453  43.469  16.314   2.770
52160W        W11454   2.461  13.265   3.769
52161W        W11455  28.585  13.128  11.492
52162W        W11456  37.909  14.697  13.815
52163W        W11457  14.207  15.098   0.765
52164W        W11458  34.555  43.449   1.861
52165W        W11459   6.352   6.377  11.385
52166W        W11460  25.151   2.293  14.897
52167W        W11461   6.868  30.983  14.353
52168W        W11462  22.700  38.908   4.131
52169W        W11463  17.075  42.946  14.419
52170W        W11464  17.266  11.716   2.333
52171W        W11465  19.652  41.377  13.875
52172W        W11466  13.225  10.182  12.545
52173W        W11467  28.656  41.518   2.225
52174W        W11468  41.437  41.385  13.544
52175W        W11469  44.272  39.539   3.653
52176W        W11470  13.639  14.198   4.682
52177W        W11471  14.739  22.685  10.990
52178W        W11472  31.898  44.440  14.473
52179W        W11473  37.940   6.359  11.500
52180W        W11474  12.750   0.803  13.479
52181W        W11475  13.718  14.318   4.221
52182W        W11476  26.655  42.855  11.412
52183W        W11477  33.912  21.659   3.777
52184W        W11478   9.740  30.087  12.927
52185W        W11479  14.752  15.598   0.836
52186W        W11480  44.261  30.019  10.522
52187W        W11481  30.078  27.159   3.248
52188W        W11482  36.072  10.336   4.713
52189W        W11483  34.516  13.738   0.433
52190W        W11484  33.047  42.396   4.795
52191W        W11485  25.009  27.633   0.947
52192W        W11486  33.456   0.484  13.495
52193W        W11487  22.535  30.999  14.336
52194W        W11488  25.630  32.070   1.276
52195W        W11489  10.373  34.573   0.838
52196W        W11490   7.292  37.540   2.246
52197W        W11491   7.708  44.477  13.041
52198W        W11492   3.413  37.040   2.798
52199W        W11493  31.137  29.094   0.478
52200W        W11494  37.982   7.383  13.042
52201W        W11495  37.562  39.556  10.546
52202W        W11496  31.512   2.832  13.531
52203W        W11497  12.690  18.099  13.932
52204W        W11498  32.132  27.625   9.932
52205W        W11499  34.969  24.218   2.282
52206W        W11500  40.966  17.239   0.372
52207W        W11501  32.886  25.112  12.932
52208W        W11502  19.057  12.793   5.271
52209W        W11503  26.072  26.994  13.919
52210W        W11504  17.217  14.165  14.418
52211W        W11505  23.234  13.311  14.827
52212W        W11506   1.359  29.099  14.982
52213W        W11507  30.948  11.716  12.979
52214W        W11508   8.757  22.055  11.039
52215W        W11509  18.697  23.100  13.338
52216W        W11510  31.411  35.012  13.992
52217W        W11511  44.397  12.200  14.302
52218W        W11512  34.923  23.098   3.646
52219W        W11513  25.016  16.306  11.548
52220W        W11514  13.120  25.560  13.357
52221W        W11515  39.957  27.182   3.327
52222W        W11516  43.973  42.476  11.862
52223W        W11517  28.005  15.294   2.324
52224W        W11518  35.101  19.090  11.102
52225W        W11519  27.977  12.718   2.705
52226W        W11520  24.166  37.955   3.711
52227W        W11521  15.708  32.540  14.343
52228W        W11522  36.536   1.446  11.018
52229W        W11523  25.180  17.685   0.861
52230W        W11524   5.270  27.957   3.644
52231W        W11525  26.054  36.356   1.888
52232W        W11526  11.279   6.209  13.900
52233W        W11527  27.486  37.551  12.969
52234W        W11528  35.427  23.210   1.416
52235W        W11529  44.952  13.305   3.284
52236W        W11530   6.207   4.428   3.376
52237W        W11531  24.145  18.119   0.391
52238W        W11532  14.672  12.330   3.209
52239W        W11533  27.178  14.211   0.284
52240W        W11534  19.760  24.005   1.229
52241W        W11535  20.536  25.216   4.243
52242W        W11536  44.754  42.790   0.484
52243W        W11537   5.909  30.143   1.278
52244W        W11538  38.950  38.525   0.940
52245W        W11539  24.592  39.327   1.744
52246W        W11540   3.440   8.890  11.946
52247W        W11541   6.678   5.716   0.304
52248W        W11542  15.267   8.795   3.320
52249W        W11543  32.514   0.331   4.345
52250W        W11544   9.357  27.460  12.902
52251W        W11545  18.552  31.472  12.979
52252W        W11546  12.166   7.319   0.821
52253W        W11547   7.799  27.010  14.393
52254W        W11548  34.575  24.671   4.695
52255W        W11549  43.766   3.218  14.473
52256W        W11550  42.803  14.742  14.884
52257W        W11551   3.421  24.566  11.389
52258W        W11552  12.639  15.271  12.007
52259W        W11553  42.480  13.245   3.282
52260W        W11554   2.907  11.262   1.280
52261W        W11555  24.492  21.232   4.195
52262W        W11556  33.888  24.554   3.161
52263W        W11557  43.985  31.641  12.844
52264W        W11558  38.379  36.007  11.936
52265W        W11559   4.266   6.766   3.161
52266W        W11560  18.764  40.524  14.802
52267W        W11561  34.588  37.441  11.488
52268W        W11562  28.038  26.008  10.634
52269W        W11563  11.154  15.131   0.344
52270W        W11564  11.272   4.369   0.838
52271W        W11565  19.670  17.104   3.223
52272W        W11566  10.659  44.874  13.791
52273W        W11567  22.694  38.899  13.811
52274W        W11568  20.614  32.889   0.361
52275W        W11569   0.842   6.314   0.751
52276W        W11570   3.391  43.808  10.421
52277W        W11571  40.367  32.499  12.974
52278W        W11572  15.317  14.594   0.294
52279W        W11573  20.170  21.747   3.308
52280W        W11574  35.510  19.205  13.795
52281W        W11575  27.958   0.934  11.993
52282W        W11576   8.896  19.167  13.396
52283W        W11577  36.369   0.486   3.758
52284W        W11578  24.159  35.959  12.533
52285W        W11579  13.273  40.385  10.909
52286W        W11580  28.536  12.117  12.084
52287W        W11581  29.531  10.185  12.380
52288W        W11582  18.136  31.020   2.792
52289W        W11583  12.152   1.976  14.499
52290W        W11584  36.972  43.905   4.272
52291W        W11585  10.335  41.042   1.382
52292W        W11586  40.992   5.332   4.272
52293W        W11587  23.543  15.251  12.490
52294W        W11588  30.468  15.270   0.874
52295W        W11589  42.982   7.709  12.358
52296W        W11590  18.247  41.476  12.470
52297W        W11591   3.318   4.430   1.379
52298W        W11592  16.249  13.170  14.842
52299W        W11593   9.311  21.030  14.796
52300W        W11594  39.978  23.668  13.924
52301W        W11595  14.200  16.310  12.447
52302W        W11596  43.419   0.763   0.380
52303W        W11597  13.306  34.010  13.473
52304W        W11598  44.428   6.784  12.351
52305W        W11599  28.056  42.903  13.452
52306W        W11600  25.182  39.357   0.389
52307W        W11601  30.057   1.447  11.023
52308W        W11602  26.195   7.214   2.668
52309W        W11603   9.763  27.589  10.431
52310W        W11604  14.714  12.847  12.908
52311W        W11605  24.634  34.024   0.352
52312W        W11606   0.402   7.908  13.537
52313W        W11607  29.456  27.588  14.015
52314W        W11608   8.317  22.197   3.845
52315W        W11609  39.004   4.755  13.324
52316W        W11610  32.008   8.708   3.745
52317W        W11611  42.857  17.214  14.514
52318W        W11612  24.184  44.880   2.676
52319W        W11613  33.430  24.146  13.854
52320W        W11614   7.674   1.783   0.382
52321W        W11615  39.059  31.908   5.284
52322W        W11616  29.948   4.739  14.859
52323W        W11617  40.821  18.633   4.699
52324W        W11618   4.447  32.463   3.165
52325W        W11619   6.187  38.459  10.892
52326W        W11620  26.638   5.930  11.044
52327W        W11621  38.398  24.071  13.001
52328W        W11622  38.362  33.091   0.796
52329W        W11623  31.550  25.615   0.923
52330W        W11624  26.117  18.663   1.380
52331W        W11625  43.778   4.415  10.617
52332W        W11626  31.919  36.476  14.012
52333W        W11627  11.802  30.621  12.982
52334W        W11628  15.650  22.584   4.241
52335W        W11629  40.500  41.863  12.892
52336W        W11630  25.086  24.081  12.033
52337W        W11631   0.935  44.389  13.020
52338W        W11632  41.883  38.871   1.829
52339W        W11633  36.587  20.711   1.836
52340W        W11634   4.408  19.712  10.465
52341W        W11635  30.493  41.817   2.308
52342W        W11636   5.375  11.283   4.345
52343W        W11637  40.481  17.772   4.622
52344W        W11638  41.836   3.880  11.049
52345W        W11639  23.689  38.957   1.270
52346W        W11640  43.309  39.840  10.597
52347W        W11641  36.482   2.759   2.885
52348W        W11642   3.282  36.007  10.951
52349W        W11643  18.759  35.941   3.699
52350W        W11644   7.304  18.610  10.504
52351W        W11645   1.771  41.922  10.583
52352W        W11646  38.495   0.946  13.795
52353W        W11647  12.764  20.715  14.892
52354W        W11648   4.280  43.918   1.933
52355W        W11649   3.240  34.953  11.398
52356W        W11650  23.029  32.568   2.814
52357W        W11651   1.841  19.154  13.885
52358W        W11652  40.389  19.191   0.356
52359W        W11653   7.230  18.556   0.245
52360W        W11654   6.815  14.205  13.964
52361W        W11655  21.681  14.250  13.950
52362W        W11656  16.611  44.391  10.137
52363W        W11657  23.580  38.403  12.412
52364W        W11658   8.699  35.537   0.776
52365W        W11659  20.569   2.945  13.005
52366W        W11660   7.878  29.063  13.883
52367W        W11661   6.385  11.648  12.959
52368W        W11662  43.931   0.326   2.218
52369W        W11663   4.757  19.255   0.961
52370W        W11664  10.289  17.583  10.623
52371W        W11665  10.870  36.057   2.281
52372W        W11666   3.767   1.952   2.837
52373W        W11667   5.706  13.631   3.717
52374W        W11668  22.695  16.194   2.309
52375W        W11669  33.566   0.420  10.156
52376W        W11670  26.507  39.889  11.993
52377W        W11671  33.901  26.195  11.021
52378W        W11672  36.012  30.148   2.747
52379W        W11673  13.815  11.201   1.365
52380W        W11674  29.549  26.647   3.360
52381W        W11675   9.800   4.867  12.444
52382W        W11676  14.683  11.801  13.409
52383W        W11677  37.531  40.387  14.001
52384W        W11678  29.036  17.659   2.675
52385W        W11679  22.597  13.305  14.963
52386W        W11680  13.120  17.793   4.628
52387W        W11681  39.418  15.327   2.257
52388W        W11682  22.113  25.519  11.947
52389W        W11683  30.949  28.100   1.716
52390W        W11684   2.909  29.641   2.719
52391W        W11685  32.950  22.028   1.893
52392W        W11686   8.806  13.771   1.791
52393W        W11687  40.892  40.028  13.037
52394W        W11688  43.452   1.479   0.947
52395W        W11689   2.427  12.706   0.386
52396W        W11690  35.412  30.606   4.158
52397W        W11691  28.553  13.829   1.342
52398W        W11692  17.798  15.705  13.050
52399W        W11693  20.538  23.221   0.369
52400W        W11694   4.837   3.908  14.344
52401W        W11695  38.486   8.866  14.958
52402W        W11696  28.582  44.357   0.342
52403W        W11697  26.524  42.323   2.393
52404W        W11698  11.752  25.520   0.852
52405W        W11699  20.205   4.721  11.582
52406W        W11700   3.820  27.597   2.252
52407W        W11701  28.575  18.070   3.655
52408W        W11702  33.074  12.345   3.851
52409W        W11703  29.614  12.204   4.309
52410W        W11704  42.931   9.371  11.410
52411W        W11705  35.070  12.308   2.234
52412W        W11706  17.277  15.128  12.835
52413W        W11707  14.779  28.036  13.547
52414W        W11708  20.031   7.802   1.879
52415W        W11709  18.220  43.021  14.823
52416W        W11710   3.385  36.921  14.017
52417W        W11711  25.635   2.392   2.696
52418W        W11712  13.264   6.710   3.253
52419W        W11713  13.769  42.810  11.013
52420W        W11714  38.041  10.822  10.927
52421W        W11715  30.475  13.275   4.212
52422W        W11716  24.127  35.039  14.281
52423W        W11717  43.981  27.096   1.772
52424W        W11718  15.639  16.258   3.716
52425W        W11719  36.883  34.574   0.735
52426W        W11720   4.874  39.055  10.428
52427W        W11721   5.714  31.119  10.642
52428W        W11722  35.415   2.751   2.731
52429W        W11723  20.754   9.317  14.318
52430W        W11724  34.947  10.877   0.258
52431W        W11725  19.621   1.752  11.418
52432W        W11726  44.879  43.362   3.312
52433W        W11727  39.320  23.012   1.406
52434W        W11728  33.047   8.376   2.305
52435W        W11729   8.336  21.057   5.740
52436W        W11730  41.459   9.379  12.088
52437W        W11731  10.650  15.697  11.611
52438W        W11732  40.373  30.470   4.285
52439W        W11733  13.200  16.704  11.904
52440W        W11734  37.523   2.873  14.992
52441W        W11735  38.985  17.766   4.335
52442W        W11736  35.600   9.821   3.712
52443W        W11737   4.817  35.026  11.969
52444W        W11738  30.138   6.259   2.385
52445W        W11739  15.296   6.757  12.580
52446W        W11740  24.563   6.200   2.283
52447W        W11741   9.696  20.091   0.888
52448W        W11742  16.684  38.519   1.723
52449W        W11743  17.594  42.861  13.492
52450W        W11744  41.355   2.822   1.738
52451W        W11745  21.649  14.326  10.893
52452W        W11746   3.858   1.900   1.333
52453W        W11747  14.600   7.196  11.102
52454W        W11748   8.230  44.907   0.383
52455W        W11749   9.273  34.000   0.387
52456W        W11750  22.646  20.564  10.139
52457W        W11751   3.766  34.527  11.589
52458W        W11752   9.255   3.450   0.832
52459W        W11753   8.736  13.105  10.429
52460W        W11754  42.966  14.254   0.801
52461W        W11755  14.730  21.705  14.801
52462W        W11756  25.679  13.225   1.287
52463W        W11757  22.612  23.568  13.832
52464W        W11758   1.863   2.232  10.548
52465W        W11759   6.783  16.795   0.254
52466W        W11760   5.819  36.516   4.613
52467W        W11761  39.529  36.894  11.126
52468W        W11762  27.669  41.483  12.553
52469W        W11763  17.173  31.013   2.705
52470W        W11764  37.369   6.191   1.250
52471W        W11765  22.594  33.427  13.340
52472W        W11766  32.034  44.380   1.396
52473W        W11767  40.989  37.497   9.472
52474W        W11768  34.957  35.865  13.406
52475W        W11769   3.417  15.645   2.814
52476W        W11770  22.692  31.036   2.206
52477W        W11771   7.670   6.243  14.775
52478W        W11772  43.516   6.227  11.864
52479W        W11773   7.342  38.024  13.479
52480W        W11774  41.837   1.342   9.444
52481W        W11775  41.465  42.527  13.490
52482W        W11776  24.507  34.881   4.810
52483W        W11777   3.375  42.506   2.784
52484W        W11778  24.642  23.175   4.173
52485W        W11779  10.271  22.537  14.288
52486W        W11780  41.008  20.695  14.501
52487W        W11781  12.267  27.019  14.937
52488W        W11782   9.193   1.276  12.007
52489W        W11783  35.457  23.036  14.017
52490W        W11784  19.114   4.746  11.005
52491W        W11785   9.738   8.888   0.747
52492W        W11786  25.629  26.570   9.933
52493W        W11787   5.275  37.985  13.519
52494W        W11788  37.041  39.033   4.236
52495W        W11789  38.338  38.377  11.588
52496W        W11790  22.535   2.868   3.322
52497W        W11791  14.776   6.409   0.480
52498W        W11792  10.786  32.493   3.321
52499W        W11793  14.717  41.389   0.266
52500W        W11794  32.435  12.789   2.816
52501W        W11795  21.618  44.875   0.337
52502W        W11796  22.591  10.290   0.333
52503W        W11797  43.982  22.092   1.713
52504W        W11798  31.532  40.815  12.026
52505W        W11799  22.200  34.595  13.392
52506W        W11800  36.356   2.947   0.279
52507W        W11801   1.367   5.387  11.453
52508W        W11802  12.216  32.089  12.387
52509W        W11803   3.805  16.798  10.464
52510W        W11804  17.574  14.245   2.227
52511W        W11805  31.618  22.685  13.906
52512W        W11806  23.133   5.867  10.134
52513W        W11807  32.961  10.246   2.771
52514W        W11808  30.508  19.074  14.892
52515W        W11809   5.911   0.376  11.934
52516W        W11810  10.141   3.346   2.696
52517W        W11811  29.620   2.928  12.086
52518W        W11812   6.690   9.213   3.819
52519W        W11813  32.028  25.629  12.041
52520W        W11814  11.623  37.444   9.978
52521W        W11815  31.571  34.020  13.008
52522W        W11816   3.812  20.754   3.689
52523W        W11817  32.102  38.899  11.580
52524W        W11818  14.640  39.003  14.468
52525W        W11819  12.153  33.624  10.928
52526W        W11820  42.995  34.401   2.746
52527W        W11821  40.974   4.877   1.718
52528W        W11822  34.039  32.630   0.885
52529W        W11823  33.128  29.101   1.387
52530W        W11824  24.108  33.126  13.846
52531W        W11825   0.769  29.152  10.000
52532W        W11826  16.755  39.872  14.403
52533W        W11827  29.573  40.026  14.474
52534W        W11828  30.973  31.919   5.233
52535W        W11829  40.846  31.496   1.432
52536W        W11830  43.008  14.823   3.194
52537W        W11831  10.239   9.190  12.926
52538W        W11832  30.591  11.368   2.728
52539W        W11833  39.355  33.578   4.767
52540W        W11834   0.411  43.321   2.746
52541W        W11835  20.077   2.950   1.267
52542W        W11836  41.376  15.801   0.441
52543W        W11837  21.610  18.767  13.513
52544W        W11838   9.704   3.461  11.113
52545W        W11839   9.875  26.486  13.917
52546W        W11840   6.201  41.833  11.613
52547W        W11841   9.808  44.295   1.785
52548W        W11842  31.082  29.459   4.642
52549W        W11843  19.634  24.583   0.392
52550W        W11844  29.493   0.264   1.877
52551W        W11845  30.554   7.774   4.743
52552W        W11846   1.453  29.063  12.502
52553W        W11847  23.631   8.202  11.607
52554W        W11848  37.928  22.562  11.096
52555W        W11849  12.188  24.010   2.284
52556W        W11850  34.582   4.789  14.438
52557W        W11851  33.495  12.278  11.957
52558W        W11852  24.597   9.326   2.885
52559W        W11853   0.405  26.124  13.457
52560W        W11854  18.782  44.766  12.581
52561W        W11855  25.033  27.484  14.880
52562W        W11856   1.799  36.543  13.400
52563W        W11857  15.617  41.494  13.972
52564W        W11858  36.030  39.899   4.335
52565W        W11859  24.199  34.447  10.597
52566W        W11860  36.512  41.386   4.740
52567W        W11861  39.441  22.650   0.315
52568W        W11862  13.681  32.590  14.855
52569W        W11863  16.699  17.720  13.906
52570W        W11864  26.952  40.877  13.355
52571W        W11865  44.785   8.253   2.843
52572W        W11866  33.881  29.956   2.323
52573W        W11867  20.109  17.567   0.305
52574W        W11868  38.894  16.288   2.874
52575W        W11869  14.213  36.981  14.944
52576W        W11870  29.460  41.525  13.808
52577W        W11871  34.945  42.415  14.284
52578W        W11872  25.209  39.820  13.307
52579W        W11873  44.996  25.667  11.593
52580W        W11874  34.921  10.779   3.724
52581W        W11875  39.917  19.657   1.813
52582W        W11876   4.864   2.453   3.230
52583W        W11877  11.826  33.120   3.325
52584W        W11878  23.704  42.377  11.880
52585W        W11879  17.666  26.618  10.950
52586W        W11880  16.622  35.528  14.870
52587W        W11881  22.742   5.375   1.930
52588W        W11882   5.915  39.407   2.685
52589W        W11883  29.129  23.572  12.010
52590W        W11884  17.605  29.128  13.382
52591W        W11885  24.612  29.032   3.163
52592W        W11886  19.701  18.141  11.987
52593W        W11887  14.632  24.697  11.451
52594W        W11888   8.861  42.506  12.891
52595W        W11889  11.654  29.165   1.410
52596W        W11890  26.073  20.217   2.782
52597W        W11891  21.058   5.433  11.900
52598W        W11892  27.974  37.950   1.237
52599W        W11893  28.014   5.792   3.178
52600W        W11894  36.368   2.826   1.266
52601W        W11895  34.894   5.779   2.830
52602W        W11896   8.272   3.315  12.923
52603W        W11897   3.301  28.121  10.555
52604W        W11898   6.258  17.719  13.852
52605W        W11899   6.770  22.022  13.042
52606W        W11900  18.625  32.588  13.989
52607W        W11901  30.589  31.462   0.383
52608W        W11902  29.473  39.442   0.458
52609W        W11903  19.106   6.887   2.681
52610W        W11904   8.215  25.596   1.912
52611W        W11905  43.822  38.829   2.810
52612W        W11906  41.291   6.286  11.030
52613W        W11907  26.116  19.169  12.984
52614W        W11908  23.155  31.054  10.555
52615W        W11909  31.061  21.685   3.271
52616W        W11910   4.718   4.709  10.460
52617W        W11911   0.313  11.751  10.625
52618W        W11912   3.435  13.793   3.153
52619W        W11913  43.891  30.655   3.680
52620W        W11914  14.244  14.603   2.789
52621W        W11915  20.030  20.262  13.963
52622W        W11916  12.692  30.460  13.523
52623W        W11917  32.121  12.703  13.540
52624W        W11918  27.973  20.548   4.340
52625W        W11919   3.245  15.783  10.093
52626W        W11920   1.751   5.247  11.589
52627W        W11921  14.757   8.274  14.308
52628W        W11922  28.096  15.677  11.384
52629W        W11923  28.929  28.484   3.681
52630W        W11924  44.337   8.292   2.183
52631W        W11925  29.122  29.046   4.156
52632W        W11926  15.719  17.686   3.254
52633W        W11927  38.469  18.769  12.460
52634W        W11928  11.754   0.819   5.244
52635W        W11929   4.893  11.676  14.317
52636W        W11930  28.434  36.987   3.271
52637W        W11931  36.951  15.592  13.499
52638W        W11932  35.437  36.904   0.445
52639W        W11933  31.122  41.291  11.028
52640W        W11934  25.516  25.498   4.250
52641W        W11935   3.400  28.053   2.897
52642W        W11936  36.473   9.668   2.378
52643W        W11937  39.374  43.950  14.778
52644W        W11938  20.562   6.715   2.780
52645W        W11939  15.186  31.496  11.479
52646W        W11940  21.661  25.625  12.881
52647W        W11941  11.627  33.020   4.208
52648W        W11942  26.047   9.182   0.321
52649W        W11943  13.192  31.930  11.437
52650W        W11944  32.985  10.308  13.978
52651W        W11945  11.849  26.575  14.992
52652W        W11946   2.458  22.226  10.564
52653W        W11947  10.233   6.275  11.501
52654W        W11948  23.636  32.556   1.909
52655W        W11949  21.232   4.901  10.620
52656W        W11950   0.978   2.337   1.381
52657W        W11951   2.380   2.280   0.246
52658W        W11952  32.893  41.389   2.289
52659W        W11953  41.898  23.535  10.621
52660W        W11954  34.429  17.130  11.890
52661W        W11955  11.713  35.488   2.898
52662W        W11956  28.969   9.812  11.496
52663W        W11957   3.364  13.184  10.577
52664W        W11958  31.995  44.471   3.759
52665W        W11959  42.970  36.408   4.317
52666W        W11960  15.095  31.946   4.299
52667W        W11961  28.435  13.831   3.269
52668W        W11962   2.332  12.705  13.512
52669W        W11963  36.033  33.477  10.978
52670W        W11964  39.547  33.602  11.121
52671W        W11965  27.067  25.531   4.342
52672W        W11966  25.172   4.387  12.930
52673W        W11967  34.508   2.383  11.425
52674W        W11968  10.258  13.813  11.989
52675W        W11969  28.476  33.121  12.044
52676W        W11970   4.748  19.120  12.547
52677W        W11971  15.088  27.597  13.354
52678W        W11972  19.126  36.353   3.194
52679W        W11973  43.005   1.352  11.991
52680W        W11974  32.962   0.401   4.224
52681W        W11975   3.461  13.789   2.373
52682W        W11976  16.756   6.209   0.337
52683W        W11977  42.887  21.512  12.984
52684W        W11978  10.370  18.667  10.946
52685W        W11979  36.853  10.141  13.945
52686W        W11980  31.550  25.567   4.349
52687W        W11981   4.406  26.095   4.761
52688W        W11982   8.845  18.672  11.567
52689W        W11983   4.246  32.990   4.812
52690W        W11984  37.083  35.077   1.430
52691W        W11985  38.870  10.670  10.913
52692W        W11986  20.656  24.525   1.381
52693W        W11987  23.099  38.357  13.843
52694W        W11988  44.388   7.352  13.319
52695W        W11989  10.709   5.884   0.799
52696W        W11990  38.917  30.595   1.881
52697W        W11991  40.516  43.324  14.029
52698W        W11992   7.869   2.862  12.526
52699W        W11993   9.217  44.924  13.838
52700W        W11994  30.944  13.618  13.359
52701W        W11995   3.409   1.483   4.810
52702W        W11996  35.109  28.076  12.508
52703W        W11997  37.890  15.193   4.330
52704W        W11998  28.933  37.034  12.378
52705W        W11999   0.298  21.179   3.661
52706W        W12000  38.528  23.651  13.511
52707W        W12001  38.931  15.253  12.085
52708W        W12002   4.877  39.468  12.427
52709W        W12003  37.382  41.905   4.799
52710W        W12004  44.504  17.088  12.410
52711W        W12005  18.639  31.906   2.226
52712W        W12006  36.471  16.799   1.275
52713W        W12007  24.166  27.688  10.464
52714W        W12008  18.571  29.461   3.203
52715W        W12009  43.429  18.560   1.813
52716W        W12010   2.836  20.733  11.017
52717W        W12011   5.920  31.992   2.779
52718W        W12012  20.672  38.517  13.876
52719W        W12013  38.896  27.997   2.872
52720W        W12014  19.057  27.452   1.451
52721W        W12015   4.448  27.687  12.569
52722W        W12016  27.008  23.157   3.214
52723W        W12017  36.583  20.051  10.983
52724W        W12018  40.906  22.008   1.878
52725W        W12019  28.612  35.880   3.190
52726W        W12020  32.571  19.067  10.951
52727W        W12021   6.265  36.070   4.275
52728W        W12022   8.733  28.982   9.614
52729W        W12023  35.560  38.856   3.256
52730W        W12024  42.931   7.844  13.536
52731W        W12025   3.758  10.246   2.748
52732W        W12026  32.607  20.582  14.928
52733W        W12027  36.883  14.145  13.953
52734W        W12028  10.808  16.111  13.051
52735W        W12029   8.886  16.796   4.312
52736W        W12030   1.290  36.909  11.392
52737W        W12031  44.959  32.900   1.386
52738W        W12032  10.189   7.873  10.500
52739W        W12033  16.224  13.157  13.016
52740W        W12034  12.288  35.910   1.373
52741W        W12035   0.807   4.804   2.875
52742W        W12036  13.838   7.393  10.889
52743W        W12037  41.825  21.738   2.682
52744W        W12038  29.169  31.402   1.884
52745W        W12039  42.484  20.149  13.792
52746W        W12040  36.080   5.717   3.352
52747W        W12041  39.336  12.312  14.497
52748W        W12042  41.372  12.252  10.959
52749W        W12043  40.412  18.239   3.234
52750W        W12044  25.702  42.987  11.489
52751W        W12045  13.306  44.273  10.902
52752W        W12046   1.243  15.319   0.451
52753W        W12047  16.214  10.312  11.892
52754W        W12048  11.663  15.213  11.416
52755W        W12049  43.966  12.725  14.971
52756W        W12050  14.208  13.666   3.769
52757W        W12051  19.688  23.042  12.557
52758W        W12052  29.509  32.093  13.827
52759W        W12053  32.464  35.475  11.501
52760W        W12054  23.727  30.454   0.264
52761W        W12055   0.325  35.937  12.520
52762W        W12056   3.837  16.580   2.200
52763W        W12057  19.283  22.153  14.808
52764W        W12058  42.442   9.833  13.809
52765W        W12059  12.721   9.356  11.533
52766W        W12060  24.124  24.062   0.860
52767W        W12061   3.934   4.238  11.485
52768W        W12062   4.300  44.314  11.376
52769W        W12063  14.654  28.654  13.352
52770W        W12064  27.642  20.549  12.464
52771W        W12065   2.843  18.648  11.908
52772W        W12066  41.946  22.538   0.928
52773W        W12067  36.377  18.283  11.437
52774W        W12068  24.594  22.145   2.835
52775W        W12069  44.006  27.592  11.971
52776W        W12070  16.800  37.374  11.112
52777W        W12071  14.289  12.855   3.867
52778W        W12072  10.702  30.162  12.486
52779W        W12073  19.574  30.941   4.279
52780W        W12074  41.403  34.005  12.906
52781W        W12075  40.342  37.077  12.902
52782W        W12076  18.556  29.521  13.312
52783W        W12077   6.368   5.759  14.296
52784W        W12078  30.562  10.373   2.216
52785W        W12079  25.475  23.014  11.064
52786W        W12080  36.427  25.068   1.390
52787W        W12081   5.696  12.684   2.193
52788W        W12082  42.417   8.699   0.294
52789W        W12083  25.200  19.063   1.813
52790W        W12084   4.791  40.842   1.728
52791W        W12085  25.479  31.011  13.340
52792W        W12086  17.739  10.209   0.352
52793W        W12087  40.321  35.437   1.893
52794W        W12088   8.196  22.231   1.896
52795W        W12089  34.896   5.773   2.286
52796W        W12090  20.640  17.600   3.246
52797W        W12091  28.483  41.341  13.332
52798W        W12092  14.811   6.402  11.924
52799W        W12093   7.220  13.676  12.573
52800W        W12094  42.319  22.187  14.795
52801W        W12095  28.084  10.758  12.005
52802W        W12096  13.685  27.077   3.250
52803W        W12097  20.110   5.732  12.026
52804W        W12098  24.626  39.459   0.464
52805W        W12099  16.594  29.613   0.915
52806W        W12100  29.051  22.169  10.597
52807W        W12101  32.949   2.841  11.866
52808W        W12102   2.909   8.702   1.731
52809W        W12103   9.746  32.635   4.695
52810W        W12104  32.988  23.605   1.359
52811W        W12105  34.889  15.105  12.866
52812W        W12106  26.022  35.537  11.518
52813W        W12107  30.916  36.033   1.409
52814W        W12108  34.109  33.963  12.847
52815W        W12109  17.081  27.473   1.898
52816W        W12110  14.119  41.484  12.015
52817W        W12111  44.999  42.886   2.308
52818W        W12112  42.022  40.939   0.299
52819W        W12113  37.875  12.838  10.624
52820W        W12114   1.465  31.027   2.319
52821W        W12115  19.635  27.040   2.731
52822W        W12116  17.600   5.287  12.071
52823W        W12117  13.160  16.120  11.437
52824W        W12118  26.648  19.105   1.711
52825W        W12119   3.932   2.391   0.376
52826W        W12120  29.111  34.058  10.952
52827W        W12121  39.322  37.990  14.424
52828W        W12122  22.723  43.338   1.408
52829W        W12123   4.845  37.505  11.421
52830W        W12124  10.361   3.366   1.411
52831W        W12125  38.385  39.010  11.014
52832W        W12126  15.720  41.378  12.418
52833W        W12127  26.535  31.557   0.945
52834W        W12128   4.249  34.480  11.936
52835W        W12129  40.430  44.872  14.015
52836W        W12130   8.273  22.014  12.408
52837W        W12131  22.108   8.375   0.453
52838W        W12132   3.257  40.493  13.826
52839W        W12133   2.421   4.725   5.138
52840W        W12134  29.174  16.750   0.470
52841W        W12135   8.791  40.909  14.455
52842W        W12136  10.347   9.351   0.945
52843W        W12137   5.258  30.412  13.498
52844W        W12138  43.993  17.128  13.954
52845W        W12139  14.788  22.505   1.385
52846W        W12140  26.554  43.935   4.690
52847W        W12141  16.306  14.255  10.627
52848W        W12142  17.116  32.939   2.720
52849W        W12143  21.236  30.586   0.825
52850W        W12144  32.573  44.824   1.898
52851W        W12145  17.724  25.206  13.845
52852W        W12146  29.096  35.001  10.894
52853W        W12147  12.318  39.524  10.477
52854W        W12148  30.440  28.159  12.921
52855W        W12149  44.385  37.830  14.356
52856W        W12150  15.718  32.504  14.792
52857W        W12151  39.872  34.923   1.845
52858W        W12152  10.824  42.419  14.860
52859W        W12153  10.182  19.094   1.838
52860W        W12154  18.251   2.823  13.410
52861W        W12155  13.121  34.991  11.373
52862W        W12156  44.830  37.957  12.983
52863W        W12157  15.317  10.871  13.044
52864W        W12158  41.994  17.651  14.474
52865W        W12159  14.728  22.124   4.325
52866W        W12160   9.835   0.770   0.357
52867W        W12161  39.990  16.180  12.359
52868W        W12162  42.897   7.755  13.017
52869W        W12163  37.060  19.098  11.971
52870W        W12164  12.684  25.547  11.006
52871W        W12165  33.484  14.589   1.239
52872W        W12166   3.733   2.365  14.841
52873W        W12167   2.243  35.549  11.554
52874W        W12168  15.100  21.642  11.597
52875W        W12169  42.316  30.632  12.560
52876W        W12170   2.827  26.620   0.370
52877W        W12171   1.770   0.405  14.791
52878W        W12172  40.549  39.913   3.310
52879W        W12173  22.047  14.211   1.892
52880W        W12174  34.382   2.723   4.782
52881W        W12175  44.434  43.882   0.853
52882W        W12176  44.267  40.309   0.875
52883W        W12177  24.009  39.817   9.976
52884W        W12178  38.824  31.542   9.994
52885W        W12179   0.950  26.013  12.076
52886W        W12180  22.246  13.272  10.911
52887W        W12181   9.229  21.111   0.436
52888W        W12182  28.948  22.131  12.455
52889W        W12183  35.427   7.204   1.825
52890W        W12184   5.283  22.035   1.737
52891W        W12185   1.339  38.898  14.504
52892W        W12186   2.310  37.869  10.904
52893W        W12187  25.554  36.443  13.519
52894W        W12188  34.520   9.365   3.148
52895W        W12189  18.553   5.706  11.459
52896W        W12190  28.069  16.301  13.517
52897W        W12191  14.592  43.447  14.845
52898W        W12192  15.231  10.257  13.491
52899W        W12193  36.891  16.665   3.178
52900W        W12194  27.124  35.458  10.961
52901W        W12195  31.923  32.028   2.271
52902W        W12196  24.047  35.068   3.751
52903W        W12197   7.258  29.149   3.308
52904W        W12198  29.964   1.266   0.412
52905W        W12199  18.096  29.065  10.470
52906W        W12200  43.927  10.711  12.947
52907W        W12201  41.497   1.749  12.524
52908W        W12202  43.281  34.121   3.785
52909W        W12203  18.293  40.475   0.964
52910W        W12204  34.576  27.172   2.766
52911W        W12205  26.178  11.781  11.388
52912W        W12206  43.910   6.371  11.443
52913W        W12207  43.291  36.887   0.473
52914W        W12208  42.900  17.225   0.336
52915W        W12209  35.468  13.169   2.338
52916W        W12210  38.055  38.384   1.375
52917W        W12211  18.194   3.835   2.901
52918W        W12212   1.373  43.480  10.943
52919W        W12213  11.183  24.626   3.316
52920W        W12214   3.402  10.872   3.210
52921W        W12215   4.698  33.469  11.875
52922W        W12216   5.222  11.799   4.778
52923W        W12217   9.225  34.517  12.537
52924W        W12218  36.482  33.890  12.455
52925W        W12219   8.299  23.492  13.540
52926W        W12220  23.125  38.026  10.643
52927W        W12221   8.789   4.263  13.437
52928W        W12222   5.394  10.314  14.999
52929W        W12223  21.678  21.633   2.282
52930W        W12224  13.121  35.094   0.247
52931W        W12225  41.817   9.805  11.107
52932W        W12226  32.923  43.810  14.453
52933W        W12227  37.914  31.149  11.885
52934W        W12228  30.628  43.923   3.254
52935W        W12229  41.856  38.353  11.070
52936W        W12230  26.468   9.841   1.400
52937W        W12231  29.993  12.708  13.886
52938W        W12232  23.006  19.180   1.772
52939W        W12233   3.234  27.115  12.512
52940W        W12234  44.372   2.461   3.156
52941W        W12235  26.078  37.063  10.528
52942W        W12236  22.538   6.318  11.402
52943W        W12237  16.684  42.283   1.804
52944W        W12238  28.967  10.258   0.774
52945W        W12239  32.623  10.294   0.737
52946W        W12240  13.779  23.546  14.502
52947W        W12241  36.543  37.007  10.955
52948W        W12242   3.796  16.145   1.386
52949W        W12243  19.746  44.835  11.565
52950W        W12244   9.172  26.964  10.446
52951W        W12245  20.173  40.818  12.841
52952W        W12246  25.546  38.385  11.038
52953W        W12247  35.093  10.298   3.226
52954W        W12248   6.777   6.193   1.238
52955W        W12249  18.107  36.857   2.740
52956W        W12250  17.160   0.743   3.302
52957W        W12251  23.555  32.029  10.997
52958W        W12252  24.489  13.629  11.004
52959W        W12253  19.206  10.239   4.133
52960W        W12254  22.202  22.123   4.255
52961W        W12255   3.450  30.647   2.323
52962W        W12256   4.770   1.380   4.123
52963W        W12257  16.214  24.646   4.203
52964W        W12258  10.294  14.163  10.143
52965W        W12259  13.199  36.438  13.405
52966W        W12260   3.345   1.975  12.060
52967W        W12261  43.018   4.705  10.966
52968W        W12262  29.926  23.670   3.642
52969W        W12263  30.514   7.675   4.352
52970W        W12264  10.785   0.465   9.524
52971W        W12265  40.366  28.655  11.379
52972W        W12266  15.605  42.928   4.823
52973W        W12267  37.013  44.759   2.853
52974W        W12268  12.227  33.508  12.422
52975W        W12269  39.336  25.701   3.286
52976W        W12270  38.022  31.904  14.407
52977W        W12271  37.881  39.017   1.253
52978W        W12272  38.504  42.850  12.515
52979W        W12273   9.813  19.638  14.792
52980W        W12274  42.785  32.898   3.157
52981W        W12275  23.146  17.304  13.793
52982W        W12276   1.844  43.914   2.238
52983W        W12277  13.182   0.252  11.069
52984W        W12278  44.432   2.433   1.386
52985W        W12279  10.316  41.858  14.406
52986W        W12280  29.525   0.415  10.450
52987W        W12281   6.196   3.940  13.539
52988W        W12282   6.678  33.001  12.960
52989W        W12283   7.757   3.346   0.914
52990W        W12284  12.688  27.948   3.252
52991W        W12285  19.116   5.715   4.775
52992W        W12286   4.833  10.686  14.284
52993W        W12287  41.384   2.263  14.817
52994W        W12288  32.951   9.837  13.805
52995W        W12289  30.946  32.516  10.516
52996W        W12290  25.097  40.390  11.870
52997W        W12291   6.390   2.946  14.806
52998W        W12292  25.065  33.052   4.184
52999W        W12293  31.055   4.229  11.887
53000W        W12294  40.892  24.200  11.911
53001W        W12295   8.401  39.351   3.227
53002W        W12296  39.027  35.447  11.480
53003W        W12297  32.087  23.706  13.452
53004W        W12298  41.337  31.600   3.841
53005W        W12299  13.677  23.154  10.432
53006W        W12300  17.735  40.541  11.126
53007W        W12301  26.575  42.784   2.790
53008W        W12302  34.454   5.344   1.875
53009W        W12303   7.797   8.712   1.831
53010W        W12304  10.854  42.819  12.387
53011W        W12305  13.776  37.839   0.357
53012W        W12306  37.413  26.982  11.606
53013W        W12307   5.843   6.922   1.352
53014W        W12308   2.316   4.878  11.426
53015W        W12309  20.256   8.332   3.195
53016W        W12310   1.299  15.594   2.363
53017W        W12311  37.987  16.106  11.442
53018W        W12312  23.184  36.949  14.431
53019W        W12313  23.103  11.631  13.976
53020W        W12314  20.737   6.826   4.726
53021W        W12315   9.793  29.067  12.069
53022W        W12316   3.365  42.411   4.119
53023W        W12317  28.019   8.260   0.264
53024W        W12318   5.883  12.617  13.920
53025W        W12319  20.636  20.673   3.661
53026W        W12320  26.164  15.799  13.376
53027W        W12321  22.564  21.571  13.840
53028W        W12322  11.726  29.651  14.774
53029W        W12323  39.023  11.282   3.740
53030W        W12324   7.210   9.791  14.350
53031W        W12325  39.896   1.737   3.349
53032W        W12326  37.978  11.744  14.468
53033W        W12327  12.724  13.675   5.209
53034W        W12328  17.086   2.913  12.477
53035W        W12329   4.777  21.059  14.303
53036W        W12330  31.007  27.018   3.654
53037W        W12331  42.363  22.131  12.400
53038W        W12332  38.418   3.808  14.479
53039W        W12333  22.240  16.793   3.319
53040W        W12334  25.991  23.112   0.269
53041W        W12335  31.454  10.138   1.696
53042W        W12336  35.382   2.365  13.453
53043W        W12337  24.712  13.126  14.796
53044W        W12338  38.041  29.086  10.454
53045W        W12339  10.153  33.966   1.352
53046W        W12340  22.252  24.190  14.830
53047W        W12341   5.404   6.181   3.772
53048W        W12342   1.967  29.940   3.694
53049W        W12343   5.704  14.108  12.407
53050W        W12344  19.225  18.106  14.328
53051W        W12345   4.781  18.225   3.222
53052W        W12346   6.402   6.389   4.300
53053W        W12347   3.248  35.434  10.965
53054W        W12348  28.089  42.310  10.513
53055W        W12349  39.345   9.218   1.365
53056W        W12350   2.412  10.857   0.284
53057W        W12351  38.522  16.679   2.181
53058W        W12352   4.251  28.002   2.721
53059W        W12353  42.306   5.203   0.356
53060W        W12354  36.577  25.651  12.560
53061W        W12355   2.441  33.501   3.268
53062W        W12356  29.463  41.891   5.135
53063W        W12357  37.381  11.176  14.435
53064W        W12358  25.584  34.494   2.178
53065W        W12359  29.018  11.836  10.552
53066W        W12360  24.616  26.192  12.381
53067W        W12361  10.643  23.684   4.317
53068W        W12362   0.376   0.377   0.432
53069W        W12363  10.139  18.564  14.445
53070W        W12364  18.649  23.615  11.440
53071W        W12365   3.727  16.666  11.892
53072W        W12366  33.130  18.665  10.425
53073W        W12367   6.822  28.110   2.234
53074W        W12368  27.683  14.764   1.769
53075W        W12369  19.768  16.713   1.722
53076W        W12370  24.021   8.345  13.548
53077W        W12371  10.843  28.952  12.093
53078W        W12372   5.436  13.723  12.864
53079W        W12373  17.261  27.536   3.738
53080W        W12374  35.578  16.747   3.665
53081W        W12375  36.494  36.878   3.329
53082W        W12376  21.181   9.163  14.800
53083W        W12377   3.293   1.765   2.692
53084W        W12378  16.135   0.258   0.453
53085W        W12379  36.926  33.058  11.904
53086W        W12380  31.487  43.998  14.958
53087W        W12381   2.755  43.906   2.852
53088W        W12382  27.985  31.434   1.735
53089W        W12383  10.239  24.507   0.778
53090W        W12384  18.713  42.428   1.862
53091W        W12385   1.430  42.523   2.903
53092W        W12386  30.978  29.004  14.291
53093W        W12387  11.195  23.639   1.268
53094W        W12388  42.445  42.435   1.216
53095W        W12389  28.992  13.721  12.517
53096W        W12390  36.474  26.963   4.813
53097W        W12391  29.058  21.172  13.795
53098W        W12392  11.652  11.346  10.532
53099W        W12393   2.369  36.388   0.958
53100W        W12394   4.415   5.810  12.358
53101W        W12395  22.610  31.015   3.751
53102W        W12396   0.475  18.079  12.903
53103W        W12397  40.007  31.511  11.522
53104W        W12398  16.073  43.946   2.309
53105W        W12399  14.324  29.988   1.415
53106W        W12400  35.427   8.750  12.352
53107W        W12401  19.239  36.029   0.258
53108W        W12402  30.013  31.640   4.118
53109W        W12403  33.558  28.988   1.890
53110W        W12404  33.600   0.863   4.141
53111W        W12405  16.103  25.669   3.277
53112W        W12406  11.172  22.622  10.931
53113W        W12407  31.932   7.286  11.456
53114W        W12408  43.010  13.137   4.307
53115W        W12409   5.336  33.933   2.282
53116W        W12410  16.227  33.940  14.817
53117W        W12411  42.898  17.110  12.043
53118W        W12412  27.157  17.092  14.895
53119W        W12413  20.710  36.429  13.540
53120W        W12414  41.488  11.338  11.903
53121W        W12415  17.739  28.106  11.546
53122W        W12416  19.112  27.475   1.712
53123W        W12417   6.849  15.607   1.839
53124W        W12418  31.927  17.713  11.567
53125W        W12419  16.198  13.628   5.750
53126W        W12420  28.141   8.689  14.369
53127W        W12421  23.552   7.826  10.147
53128W        W12422  42.785   4.342   2.317
53129W        W12423  26.644  20.616   0.337
53130W        W12424   9.866   4.754   0.899
53131W        W12425   4.430   4.233  12.521
53132W        W12426   3.783  22.105   3.325
53133W        W12427   7.879  21.661   5.139
53134W        W12428  15.139  25.055  10.559
53135W        W12429  42.981  43.487  13.982
53136W        W12430  35.413  36.039  10.103
53137W        W12431  16.118  37.554  14.358
53138W        W12432   7.223  11.840  14.384
53139W        W12433   4.700  24.619   1.241
53140W        W12434  43.489  41.467   3.341
53141W        W12435  43.512   2.391   1.439
53142W        W12436  11.219  30.487   2.778
53143W        W12437   1.257  19.250  12.528
53144W        W12438   2.885   6.183   4.239
53145W        W12439   3.445   9.253   1.929
53146W        W12440  40.896  13.268  12.387
53147W        W12441  14.284  16.312   1.781
53148W        W12442  29.988  15.605  13.802
53149W        W12443  25.168   9.815   2.843
53150W        W12444  38.948  20.720   0.472
53151W        W12445  43.969   6.846  12.063
53152W        W12446  13.603  19.094  10.959
53153W        W12447  39.907   1.936  13.402
53154W        W12448  12.240  11.210   0.851
53155W        W12449  21.104  12.683   0.767
53156W        W12450   9.667  36.404  12.018
53157W        W12451  18.176   4.700  12.835
53158W        W12452  11.246   4.357   1.904
53159W        W12453  38.902   2.321   4.304
53160W        W12454  38.025   5.354  10.989
53161W        W12455  37.937   5.232   2.272
53162W        W12456  44.890  12.342   2.317
53163W        W12457  44.358  31.044   1.765
53164W        W12458  14.764  22.130   3.707
53165W        W12459  19.258  12.633   4.635
53166W        W12460  35.549  18.716  13.979
53167W        W12461  18.610  37.036   0.776
53168W        W12462  32.065  23.490   0.740
53169W        W12463  23.217  35.395   4.808
53170W        W12464  10.735  34.937  11.508
53171W        W12465   2.390  30.058  11.118
53172W        W12466  18.087  40.971   3.799
53173W        W12467  42.512  43.926   1.849
53174W        W12468  29.482  14.786   0.867
53175W        W12469  14.331  37.392   2.187
53176W        W12470  42.860  41.518  12.403
53177W        W12471  18.256  31.510   3.821
53178W        W12472   8.193  35.866  10.577
53179W        W12473  26.514   8.293  13.840
53180W        W12474  28.176  44.941  12.533
53181W        W12475  18.262   2.304   4.804
53182W        W12476  43.775  17.285  10.590
53183W        W12477  10.306   4.848  14.458
53184W        W12478   0.919  37.904   4.731
53185W        W12479  34.388  24.554   3.758
53186W        W12480  16.095   5.837   0.476
53187W        W12481  29.424  37.838   2.868
53188W        W12482  42.512  41.320   1.405
53189W        W12483  26.019  26.619   0.907
53190W        W12484  26.007  38.941   4.767
53191W        W12485  22.215  10.229   0.420
53192W        W12486  34.068  15.771   3.763
53193W        W12487  43.366   6.837  13.032
53194W        W12488   5.331   0.307  13.401
53195W        W12489  38.043  14.725   4.716
53196W        W12490  24.656  29.618   2.827
53197W        W12491   9.164  38.049  12.542
53198W        W12492  34.596  19.172  14.820
53199W        W12493  43.291  42.844   4.245
53200W        W12494   1.783  19.649  14.768
53201W        W12495   6.830  19.751   5.163
53202W        W12496  31.425  11.293   2.808
53203W        W12497   1.786   5.841   1.832
53204W        W12498  13.717  42.794  13.522
53205W        W12499  31.080  23.713  12.901
53206W        W12500  28.495  19.565  13.812
53207W        W12501  10.149  10.240   2.701
53208W        W12502  42.522  22.154   2.198
53209W        W12503  23.084  10.267  10.521
53210W        W12504  44.424  40.343  11.093
53211W        W12505  40.957   1.731  13.800
53212W        W12506  15.611  35.911  12.392
53213W        W12507  13.828   0.294   4.809
53214W        W12508   0.328  38.050  14.789
53215W        W12509  27.558  41.422   4.116
53216W        W12510  30.601  28.074   0.798
53217W        W12511  19.726   2.230   1.722
53218W        W12512  21.536  12.166  13.513
53219W        W12513  25.192  18.621   4.295
53220W        W12514  15.684   9.242  10.468
53221W        W12515  18.232  42.877   2.867
53222W        W12516  41.856   0.284  12.983
53223W        W12517   1.238  37.403   4.312
53224W        W12518  16.778   2.850  14.936
53225W        W12519   9.770  15.591   0.777
53226W        W12520   0.460   9.245   3.719
53227W        W12521   7.354  29.437   0.301
53228W        W12522   6.345  43.291   0.377
53229W        W12523  29.071  40.384  11.528
53230W        W12524  32.629  13.263  12.938
53231W        W12525  27.040  14.214   1.813
53232W        W12526  23.520  44.372   4.620
53233W        W12527   0.297  15.117  11.414
53234W        W12528  44.388  21.532   2.286
53235W        W12529   4.423  43.944   1.432
53236W        W12530  27.975  12.747   4.604
53237W        W12531  15.189  10.161   5.315
53238W        W12532  36.863   5.840   3.773
53239W        W12533  22.554  30.551   5.282
53240W        W12534  27.568  14.255  11.055
53241W        W12535   1.964  32.507   0.829
53242W        W12536  23.219  43.944   2.885
53243W        W12537  28.057  21.033  13.411
53244W        W12538  24.633  16.116  14.412
53245W        W12539   7.218  29.545  12.978
53246W        W12540  44.811  12.186   1.253
53247W        W12541   1.914  25.534  14.340
53248W        W12542  34.494   5.358   0.735
53249W        W12543  28.441   4.267  12.835
53250W        W12544  39.870  34.520  14.767
53251W        W12545  22.513   2.391   4.726
53252W        W12546  12.227  19.082  12.028
53253W        W12547  25.998  17.745  12.441
53254W        W12548  14.596  15.244  11.392
53255W        W12549  32.933  30.423   0.298
53256W        W12550  33.003  42.501   4.283
53257W        W12551  19.688   5.734  11.458
53258W        W12552  31.521  26.510  11.605
53259W        W12553  19.244  27.545   4.652
53260W        W12554  18.175  18.622  13.798
53261W        W12555  43.886  19.539   3.830
53262W        W12556   3.883  41.856   3.678
53263W        W12557  31.025  43.466   1.927
53264W        W12558  13.293  33.456   4.648
53265W        W12559  10.638  19.683  12.427
53266W        W12560  26.966   5.309  13.916
53267W        W12561  35.439  17.696   2.337
53268W        W12562  40.483  38.433  13.850
53269W        W12563  17.605  13.808   0.449
53270W        W12564   7.255  44.459   3.229
53271W        W12565   2.873  15.605   4.679
53272W        W12566  28.998  38.963   3.667
53273W        W12567  42.002  30.645  13.345
53274W        W12568  24.494  22.239  11.857
53275W        W12569  34.865  39.545   4.239
53276W        W12570  28.060  24.684   1.753
53277W        W12571  35.544  42.470  13.025
53278W        W12572  33.922  23.144  14.516
53279W        W12573  41.465   3.362  11.047
53280W        W12574  37.449  11.280  10.935
53281W        W12575  25.539  43.861   0.807
53282W        W12576  39.533  17.276  13.862
53283W        W12577  25.484  36.947   2.705
53284W        W12578  15.771  10.698  11.506
53285W        W12579  28.170  22.609  12.389
53286W        W12580   0.446  25.095  11.983
53287W        W12581  14.658   1.971   2.712
53288W        W12582   5.813   1.280  11.608
53289W        W12583  38.388   7.196  13.831
53290W        W12584  30.454  18.681  13.810
53291W        W12585  28.001  35.920  11.505
53292W        W12586  42.447  12.333   3.340
53293W        W12587   8.323  22.159  14.323
53294W        W12588  30.939   7.841   1.260
53295W        W12589   9.233  25.031   1.288
53296W        W12590   8.866   0.836   2.408
53297W        W12591   3.902  38.415  10.980
53298W        W12592  24.575  11.351  11.606
53299W        W12593   6.255  43.318  14.445
53300W        W12594   0.437   5.321   1.893
53301W        W12595  38.338   6.237   0.911
53302W        W12596  26.563  31.923  11.959
53303W        W12597   9.281  12.354  13.444
53304W        W12598  16.777  43.859  14.305
53305W        W12599   3.944  31.614   4.724
53306W        W12600   9.752  40.809   4.211
53307W        W12601  22.552  30.575   2.689
53308W        W12602   5.798   2.813  11.880
53309W        W12603  21.696  17.194   3.254
53310W        W12604  13.794   3.364  12.387
53311W        W12605   1.875  15.695   1.394
53312W        W12606  13.184  40.529  13.975
53313W        W12607  29.920   2.730  13.931
53314W        W12608  19.733  35.453   4.606
53315W        W12609   2.902  40.525   2.675
53316W        W12610  33.567   2.926   1.285
53317W        W12611  22.036  20.135  10.907
53318W        W12612   6.363  28.108   2.750
53319W        W12613   4.243  13.836   2.303
53320W        W12614  17.699  36.559   1.863
53321W        W12615  28.941  38.410  13.390
53322W        W12616  30.543  22.061   0.918
53323W        W12617  44.764  26.461   3.733
53324W        W12618   0.804  28.095  11.493
53325W        W12619   5.242  15.608   4.149
53326W        W12620  18.051  27.098   4.800
53327W        W12621  41.347  14.246   1.855
53328W        W12622   4.850  43.847  13.372
53329W        W12623  43.396  22.670   0.838
53330W        W12624  37.889   1.760   0.883
53331W        W12625  14.281   1.950  11.513
53332W        W12626  44.913  24.220  14.856
53333W        W12627  11.749  24.534  14.413
53334W        W12628  29.659  18.215  13.346
53335W        W12629  19.705  16.757   0.963
53336W        W12630   8.678  25.089   2.902
53337W        W12631  41.027  22.243  12.053
53338W        W12632  37.419  33.521   2.756
53339W        W12633  25.994  26.544   3.375
53340W        W12634  15.779  40.049  14.844
53341W        W12635   6.257  18.253  12.917
53342W        W12636   8.760   9.807   0.962
53343W        W12637  11.210  16.249  12.895
53344W        W12638  42.467  15.178   0.427
53345W        W12639  43.390  11.319  11.497
53346W        W12640  32.615   6.686  13.489
53347W        W12641  26.526  34.984   2.279
53348W        W12642  38.949  19.189  10.971
53349W        W12643  10.673  21.250  10.975
53350W        W12644   7.276  15.171  11.930
53351W        W12645  42.787  29.626   3.328
53352W        W12646   6.818  25.692  13.030
53353W        W12647   2.235  13.770   2.248
53354W        W12648   1.356   9.813   3.327
53355W        W12649  24.152  34.493   3.775
53356W        W12650  18.098  26.002  14.954
53357W        W12651  33.482  35.547   1.324
53358W        W12652   2.386  28.025   0.447
53359W        W12653  36.912  44.755  11.997
53360W        W12654  19.155  35.107  11.528
53361W        W12655  44.980  12.839  12.991
53362W        W12656   4.427  38.962  13.458
53363W        W12657  25.694  38.407  13.874
53364W        W12658  14.759   5.384  11.863
53365W        W12659  23.096   0.378  13.515
53366W        W12660  28.016  43.433  14.783
53367W        W12661  40.530   1.394   3.212
53368W        W12662  23.655  11.710  13.407
53369W        W12663  12.637  19.238   2.329
53370W        W12664  30.475  29.432   3.776
53371W        W12665   5.282   4.799   0.728
53372W        W12666  38.928  19.693  11.858
53373W        W12667  35.492  41.906  11.489
53374W        W12668  12.845  10.275  11.969
53375W        W12669  32.907  28.983  14.844
53376W        W12670  27.018  16.279   4.616
53377W        W12671  17.798   0.432   3.781
53378W        W12672  32.940   1.393  12.044
53379W        W12673  28.609  44.960  13.357
53380W        W12674  40.884  16.307   3.362
53381W        W12675  37.973  32.099   2.761
53382W        W12676  12.276  33.413  13.834
53383W        W12677  41.859  42.882  10.484
53384W        W12678  18.659  24.692  11.409
53385W        W12679  21.024   3.361  12.838
53386W        W12680  36.049  42.447   4.247
53387W        W12681  38.946  37.481  10.570
53388W        W12682  42.000  35.396   2.739
53389W        W12683  38.490   4.294   0.284
53390W        W12684  38.861  44.314  11.537
53391W        W12685  15.257  37.926  10.919
53392W        W12686  40.339  39.938  14.856
53393W        W12687  12.286   4.740  10.412
53394W        W12688  20.031  39.914   2.417
53395W        W12689  22.144  37.452   3.148
53396W        W12690  33.088   9.683   1.320
53397W        W12691  44.474  19.611   3.795
53398W        W12692  27.006   7.364   2.321
53399W        W12693  21.737  22.102  12.541
53400W        W12694  20.729  35.358   2.730
53401W        W12695  39.881  18.110   1.298
53402W        W12696  10.272   3.871  13.965
53403W        W12697  11.644  17.568  11.985
53404W        W12698  18.610  13.308  11.433
53405W        W12699  31.103  11.821  14.992
53406W        W12700  28.550  41.362  11.898
53407W        W12701  36.892  27.449   1.858
53408W        W12702  11.295  24.204  11.495
53409W        W12703  39.824  22.686  13.898
53410W        W12704  38.871  18.084  12.448
53411W        W12705  35.385  15.737   4.147
53412W        W12706   9.770  19.767  12.904
53413W        W12707  41.411  33.514  10.519
53414W        W12708  23.593  34.589  10.933
53415W        W12709   4.728   1.311   1.242
53416W        W12710   6.906  30.945   5.761
53417W        W12711  16.583  34.996   0.448
53418W        W12712  17.778  31.583   2.195
53419W        W12713  28.543  32.977   2.899
53420W        W12714  21.607   1.286   3.167
53421W        W12715  36.849  15.146   4.172
53422W        W12716   3.940  25.133  11.450
53423W        W12717  34.376  14.767   0.902
53424W        W12718   6.690  39.548   2.335
53425W        W12719  41.974  17.801   4.238
53426W        W12720  16.619  21.689  11.537
53427W        W12721  16.266   1.327   1.290
53428W        W12722  43.972  19.535  13.997
53429W        W12723   4.422  44.803  11.947
53430W        W12724  24.546   2.907   3.361
53431W        W12725  43.858  42.353  13.839
53432W        W12726  20.694   0.876   1.304
53433W        W12727  25.646  19.608   2.187
53434W        W12728  21.740  34.430   2.417
53435W        W12729  41.348   3.743  14.279
53436W        W12730  30.568  10.214   4.263
53437W        W12731  13.277  43.441   1.304
53438W        W12732  17.624  28.935  11.389
53439W        W12733   6.757  12.168   3.779
53440W        W12734  31.507  27.488   2.215
53441W        W12735  35.008  43.512   1.866
53442W        W12736   4.389  11.221  11.519
53443W        W12737  40.368  44.866  10.919
53444W        W12738  17.206  31.120   2.408
53445W        W12739  43.990  29.141   4.232
53446W        W12740  33.021  37.872   0.886
53447W        W12741   9.817  20.121   3.258
53448W        W12742   5.367  36.591  14.454
53449W        W12743  30.108  13.805  10.897
53450W        W12744  41.482  11.842   3.831
53451W        W12745  41.816  40.842   4.640
53452W        W12746  21.641  40.439  13.061
53453W        W12747  24.514  17.081  11.430
53454W        W12748  35.526  19.282   0.395
53455W        W12749  18.761   2.336   2.886
53456W        W12750  26.960  13.789  13.310
53457W        W12751  17.611  17.099  12.554
53458W        W12752  31.569  30.947   3.638
53459W        W12753  33.523   6.772   3.748
53460W        W12754  29.069  17.180   3.218
53461W        W12755  43.764  17.628  12.418
53462W        W12756  20.525  22.676   3.344
53463W        W12757  43.493  43.765  14.381
53464W        W12758  28.489  37.348  14.975
53465W        W12759  24.096  20.756   1.255
53466W        W12760  22.172   1.362   4.130
53467W        W12761   3.724   9.717   1.445
53468W        W12762   4.800  28.515  11.431
53469W        W12763  36.428  16.776   3.721
53470W        W12764  14.727   6.819   3.719
53471W        W12765  27.669  27.989  10.514
53472W        W12766  44.757   5.833  11.988
53473W        W12767   5.308   3.243   4.804
53474W        W12768   8.685  15.680   3.844
53475W        W12769   2.449  10.338  14.774
53476W        W12770   5.287  26.067  12.479
53477W        W12771  33.619   9.366   2.686
53478W        W12772  13.646  31.137   0.247
53479W        W12773  44.360  15.621   5.296
53480W        W12774  41.425  44.828  13.973
53481W        W12775  31.536  27.487  13.845
53482W        W12776  10.280   9.314  13.870
53483W        W12777  31.963  27.633   0.428
53484W        W12778   0.306  25.491  12.074
53485W        W12779   5.858  36.949   0.434
53486W        W12780  33.473  33.435  13.830
53487W        W12781   7.816  34.401  12.508
53488W        W12782  16.316  23.221  10.518
53489W        W12783  28.664  32.910  14.791
53490W        W12784  35.045  34.985  13.319
53491W        W12785  39.007  28.078   4.202
53492W        W12786  41.532  32.016   4.177
53493W        W12787  36.888  44.849  14.896
53494W        W12788  27.559  32.099  12.074
53495W        W12789   7.697  16.797  10.496
53496W        W12790  21.554  33.081   0.279
53497W        W12791  22.744  40.899  11.373
53498W        W12792   6.729  23.004  12.468
53499W        W12793   8.739  30.643  12.017
53500W        W12794  10.324  14.716  13.319
53501W        W12795   7.180  23.164   1.742
53502W        W12796  43.478  29.058   0.360
53503W        W12797  25.169   8.257  14.393
53504W        W12798   0.400  32.955  13.797
53505W        W12799  11.270  26.047  14.768
53506W        W12800  30.920  12.695  10.074
53507W        W12801  44.001  18.685  13.929
53508W        W12802  18.571  17.776   2.689
53509W        W12803   3.952   6.323   1.229
53510W        W12804  29.520  10.226  13.424
53511W        W12805  19.663  28.490  12.345
53512W        W12806  19.771  37.364   0.324
53513W        W12807  27.531  33.543  14.509
53514W        W12808  13.644  36.363   4.784
53515W        W12809  16.647  42.996   4.331
53516W        W12810   0.446  16.710  11.986
53517W        W12811  34.516  37.065   2.312
53518W        W12812  44.004  30.531  14.930
53519W        W12813   9.664  24.591  11.555
53520W        W12814  29.977   9.149   0.270
53521W        W12815  36.970  15.756  14.779
53522W        W12816  33.527  22.560   5.315
53523W        W12817  34.918  17.235   4.221
53524W        W12818   3.847  41.485   1.293
53525W        W12819  16.103  19.749  13.812
53526W        W12820   5.410  37.889  11.856
53527W        W12821  40.012   9.698  13.935
53528W        W12822  29.046   0.928   3.169
53529W        W12823  30.955  23.043  11.944
53530W        W12824  41.994  40.892  13.968
53531W        W12825  16.797  41.865   4.341
53532W        W12826  30.491  22.130   1.399
53533W        W12827  43.429  23.123   2.779
53534W        W12828   5.379  25.052   3.220
53535W        W12829  42.309   6.855   1.872
53536W        W12830  27.642  23.183   4.317
53537W        W12831   6.328  27.062  12.939
53538W        W12832  20.269  25.141   3.152
53539W        W12833  26.178  35.098   1.823
53540W        W12834   1.960  44.423  11.881
53541W        W12835   7.738  36.591   0.879
53542W        W12836   9.195  41.978  12.063
53543W        W12837  24.058  22.539  13.929
53544W        W12838   3.953  40.352  14.422
53545W        W12839   4.312  11.700   0.305
53546W        W12840  10.316  26.139   0.309
53547W        W12841   9.156  33.593  14.489
53548W        W12842   9.840  35.948   2.809
53549W        W12843  37.942  11.826  11.447
53550W        W12844  35.084  10.747   2.898
53551W        W12845  30.563  23.173  12.994
53552W        W12846   1.974  38.889  13.045
53553W        W12847  31.468  36.045   1.890
53554W        W12848   1.779  21.185   2.706
53555W        W12849  35.092  20.116   0.282
53556W        W12850  18.274  15.225  12.059
53557W        W12851  31.546   5.856   4.125
53558W        W12852  19.537  11.682  13.804
53559W        W12853  36.571  40.423   4.271
53560W        W12854   7.227  33.622   2.682
53561W        W12855  22.184  35.920  11.067
53562W        W12856  36.571   9.686   4.678
53563W        W12857  10.727  29.611  13.523
53564W        W12858  36.502  18.779   4.321
53565W        W12859  10.760  28.138   4.329
53566W        W12860   8.340  26.577  12.077
53567W        W12861  42.516  11.864  11.099
53568W        W12862  41.927  27.458  11.989
53569W        W12863   5.697  41.388   1.449
53570W        W12864  33.418  40.962  13.928
53571W        W12865   6.887   9.790  11.099
53572W        W12866  20.738  11.654  14.896
53573W        W12867  18.197  39.849   4.815
53574W        W12868  24.010   4.344  14.864
53575W        W12869  15.201   4.896   2.670
53576W        W12870  41.844  41.486   1.699
53577W        W12871  25.484  19.583   0.449
53578W        W12872  39.514  20.586  13.824
53579W        W12873  20.547  36.444  10.469
53580W        W12874  33.944  39.859  11.572
53581W        W12875  43.349  11.636  13.323
53582W        W12876  37.420  36.979  13.840
53583W        W12877   3.901  42.365   1.238
53584W        W12878  14.614  23.999   5.280
53585W        W12879  35.423  31.999   1.705
53586W        W12880  37.981  44.994   4.241
53587W        W12881  26.095   8.174   0.333
53588W        W12882  32.623   9.295  14.878
53589W        W12883  37.374   7.315  14.400
53590W        W12884  43.496  30.436  12.499
53591W        W12885  24.207  14.189  10.070
53592W        W12886  41.937  21.707   0.285
53593W        W12887  26.698   3.887  13.953
53594W        W12888   6.863  39.000  12.844
53595W        W12889  28.605  25.196   2.352
53596W        W12890   8.714  39.025  12.832
53597W        W12891  10.819  40.540   2.784
53598W        W12892  11.193  33.876   0.823
53599W        W12893  13.656  39.413  11.449
53600W        W12894  28.611  14.192   2.769
53601W        W12895  36.577  19.194   4.669
53602W        W12896  11.865  16.787  14.003
53603W        W12897  15.218  20.174  12.064
53604W        W12898   7.306  25.536   2.749
53605W        W12899  36.355  21.133  11.424
53606W        W12900  29.494  20.214  14.931
53607W        W12901  41.032  44.944  14.870
53608W        W12902  12.142  35.372  12.467
53609W        W12903  22.166  40.926   1.731
53610W        W12904  18.756  14.312  14.854
53611W        W12905  40.819   7.193   1.447
53612W        W12906  35.566  36.425   4.351
53613W        W12907  41.458  25.563  14.838
53614W        W12908  25.470  43.020  10.944
53615W        W12909  12.345  42.915   2.278
53616W        W12910  39.356  36.089  14.029
53617W        W12911  38.569  24.587   4.789
53618W        W12912  41.805  31.464   1.791
53619W        W12913  11.840   7.850  14.423
53620W        W12914  36.469  39.851   0.464
53621W        W12915  22.203   5.786  10.625
53622W        W12916  10.232  32.917  13.954
53623W        W12917  30.428  43.775   0.438
53624W        W12918  16.663  28.480  13.820
53625W        W12919  27.474   5.381   3.787
53626W        W12920  31.131  27.985  11.526
53627W        W12921  27.991   4.854   3.708
53628W        W12922  22.180  10.803  10.600
53629W        W12923  33.055  44.434   4.223
53630W        W12924  12.768  38.557  13.534
53631W        W12925   5.846  38.468   0.944
53632W        W12926  39.436   7.313   4.148
53633W        W12927  19.618  31.534  13.529
53634W        W12928  38.498   4.739   0.292
53635W        W12929  32.526  43.851  14.030
53636W        W12930  17.294  11.369  11.977
53637W        W12931   2.265  39.489   1.915
53638W        W12932  19.738  29.447  10.420
53639W        W12933  22.084  31.640  12.358
53640W        W12934  34.009  29.617  12.947
53641W        W12935  44.416  27.508   2.293
53642W        W12936  30.426  36.992  11.577
53643W        W12937   5.410  26.668   0.783
53644W        W12938   9.789  44.414   4.172
53645W        W12939   2.886  18.068   4.798
53646W        W12940  27.976  18.789   0.767
53647W        W12941  42.830   3.786   4.306
53648W        W12942  35.596  36.933   3.805
53649W        W12943  26.196  33.447   2.758
53650W        W12944  37.559  30.587  12.350
53651W        W12945  23.026  42.835   0.874
53652W        W12946  27.168  30.440  12.893
53653W        W12947  22.652  44.352   1.326
53654W        W12948  12.691  26.160   2.341
53655W        W12949  23.640  44.007   4.132
53656W        W12950  23.152   2.299  12.339
53657W        W12951  20.047   2.731  12.095
53658W        W12952  33.580  42.951   4.230
53659W        W12953  43.377  20.213   1.724
53660W        W12954  20.548  25.682   0.368
53661W        W12955  26.138  26.179   1.353
53662W        W12956  31.425   8.170  14.380
53663W        W12957  44.273  32.984  11.970
53664W        W12958  37.375  25.049  13.997
53665W        W12959   9.329  20.191   5.125
53666W        W12960  24.120  42.398   2.777
53667W        W12961  33.462  43.881  12.902
53668W        W12962  21.255  31.944  13.882
53669W        W12963  22.745  21.611   3.322
53670W        W12964  32.057  21.018   2.200
53671W        W12965  15.097  39.857  12.044
53672W        W12966  12.648  22.099   0.403
53673W        W12967  44.312  15.252  10.519
53674W        W12968  21.690   5.337  14.778
53675W        W12969  40.026  38.406   0.472
53676W        W12970  39.322  43.351   4.623
53677W        W12971   7.868  19.569  13.881
53678W        W12972  40.844  14.306   2.358
53679W        W12973   1.793  18.226  12.444
53680W        W12974   5.326  41.844   4.626
53681W        W12975  14.778  15.749  11.053
53682W        W12976   3.726   6.326  12.490
53683W        W12977  28.562  15.605   2.196
53684W        W12978  32.010  28.490   2.226
53685W        W12979   4.816  42.989   2.868
53686W        W12980  33.905  38.989  12.883
53687W        W12981  35.933   5.231  12.069
53688W        W12982  30.110   0.264   4.785
53689W        W12983  31.435  15.178  11.069
53690W        W12984   6.330  23.102   0.895
53691W        W12985  34.440   5.890  11.970
53692W        W12986  20.724  26.180   2.351
53693W        W12987   8.356   3.731   0.336
53694W        W12988  41.449  19.619   0.915
53695W        W12989  43.425  24.154  14.276
53696W        W12990  29.122  43.921  13.363
53697W        W12991  17.710  16.768  13.801
53698W        W12992  12.637  39.056   0.870
53699W        W12993  31.952  20.639  13.814
53700W        W12994  18.739  41.854  14.764
53701W        W12995  41.913   0.755   0.778
53702W        W12996  28.481  34.439   1.417
53703W        W12997  37.381  30.947  12.341
53704W        W12998   9.269   9.837   0.847
53705W        W12999  14.760  19.733  10.104
53706W        W13000  21.061  40.932  11.106
53707W        W13001  19.207  42.915  11.460
53708W        W13002  15.143  32.935   3.240
53709W        W13003   2.803   2.412   2.246
53710W        W13004  38.404   1.868  12.091
53711W        W13005  27.640  31.908   4.187
53712W        W13006   7.387  24.163  14.413
53713W        W13007  30.988  23.517   1.852
53714W        W13008  15.607  42.443   0.897
53715W        W13009  26.703  36.532  14.510
53716W        W13010  41.828  22.236  11.044
53717W        W13011  16.208  32.406  12.359
53718W        W13012  11.848  11.674  11.441
53719W        W13013  38.486  17.253  14.359
53720W        W13014  18.666  36.995  14.025
53721W        W13015  11.847  13.610   1.285
53722W        W13016   9.766   6.858  12.470
53723W        W13017  10.751  18.082   2.328
53724W        W13018  26.042  13.120  11.129
53725W        W13019   2.862  10.319  13.026
53726W        W13020  33.400   3.789  10.541
53727W        W13021  24.637   3.914   4.254
53728W        W13022   8.893  27.102  13.386
53729W        W13023   8.728   9.679   2.180
53730W        W13024  30.918  32.633   3.794
53731W        W13025  24.670   0.848  14.977
53732W        W13026  33.539  28.031   4.115
53733W        W13027  19.181  41.824   4.217
53734W        W13028  13.329   4.922   4.238
53735W        W13029  42.995  40.854  12.854
53736W        W13030   6.364  15.639   4.691
53737W        W13031   1.336  42.444   2.403
53738W        W13032  29.982  43.008   9.936
53739W        W13033  19.605  35.977   2.382
53740W        W13034  35.379  24.685  13.820
53741W        W13035  36.967  22.566   3.699
53742W        W13036  32.025   3.320  14.829
53743W        W13037  19.586  36.884  11.121
53744W        W13038   2.827  41.968  14.019
53745W        W13039  20.273  23.154   4.310
53746W        W13040  20.690   5.803  13.917
53747W        W13041  13.133  21.063  12.486
53748W        W13042  26.984  12.265  14.984
53749W        W13043  42.870  30.485   0.276
53750W        W13044  11.261  25.082  12.501
53751W        W13045  11.276  12.305   3.747
53752W        W13046  10.317  12.185   2.259
53753W        W13047  20.586  28.470  11.521
53754W        W13048   8.262  36.879   4.297
53755W        W13049   5.721  32.027   4.712
53756W        W13050  16.074  32.581   3.748
53757W        W13051  28.442   5.728  11.121
53758W        W13052  31.946  42.323  14.849
53759W        W13053  16.744  18.195   3.301
53760W        W13054  11.735   7.308   2.864
53761W        W13055  41.839  11.786  13.887
53762W        W13056  12.614  12.756   3.667
53763W        W13057  12.830  23.621   0.465
53764W        W13058   8.776  36.910   2.855
53765W        W13059  38.328   5.319   0.795
53766W        W13060  20.685   6.314  13.940
53767W        W13061  31.086  31.053  10.416
53768W        W13062   0.825  38.837  10.010
53769W        W13063  38.864  44.426   2.194
53770W        W13064  42.286  30.991   3.163
53771W        W13065  35.984  18.571   4.810
53772W        W13066   0.430   5.841   4.599
53773W        W13067  30.602   8.200   1.885
53774W        W13068  37.540  38.396  12.393
53775W        W13069  21.231  38.874   5.273
53776W        W13070  13.701  13.694   4.292
53777W        W13071  11.636  34.395  13.986
53778W        W13072  17.148  22.628   1.890
53779W        W13073  37.040  44.497   3.278
53780W        W13074  20.263  24.533   1.397
53781W        W13075  39.471  15.585   4.599
53782W        W13076  35.098  26.054   2.882
53783W        W13077  29.070  14.655   3.642
53784W        W13078  31.641  32.062  13.829
53785W        W13079  29.990  40.030  12.375
53786W        W13080  23.531  44.962  10.429
53787W        W13081  34.943   9.383  11.890
53788W        W13082  21.060  18.777  14.032
53789W        W13083  11.189   5.915   1.750
53790W        W13084  39.043  44.315  12.896
53791W        W13085  11.179  26.207   2.225
53792W        W13086  21.062  41.835   2.385
53793W        W13087  31.446  15.724   5.272
53794W        W13088   2.231  12.697   3.760
53795W        W13089  15.695  17.237   1.266
53796W        W13090   6.867  37.431  13.997
53797W        W13091  35.371  22.510   2.307
53798W        W13092   4.296   4.864   4.236
53799W        W13093   1.366   0.399   1.284
53800W        W13094   4.930   7.278  13.061
53801W        W13095  30.965  15.108  11.409
53802W        W13096  29.001   8.180   1.350
53803W        W13097   4.706  24.485   2.179
53804W        W13098  10.765  25.569  12.502
53805W        W13099  33.127  21.689  13.466
53806W        W13100  12.221  44.428  13.047
53807W        W13101  42.350  24.720   4.327
53808W        W13102  21.624  10.820  13.936
53809W        W13103   7.295  15.126  10.623
53810W        W13104  42.913  25.095  12.931
53811W        W13105   9.733  39.417  10.610
53812W        W13106  42.356  40.484  14.868
53813W        W13107   9.205  36.501   0.466
53814W        W13108  26.621  19.609   1.258
53815W        W13109  21.236  13.832   4.653
53816W        W13110   8.362   4.906  12.051
53817W        W13111   1.769   5.418  12.426
53818W        W13112  30.578   9.710   1.825
53819W        W13113  37.850   4.234  12.067
53820W        W13114  40.053  30.958  12.391
53821W        W13115  20.730  39.884   4.683
53822W        W13116  33.401  19.714   5.201
53823W        W13117   7.210  25.165   0.881
53824W        W13118  16.811  13.804   0.483
53825W        W13119   5.214  34.073   1.385
53826W        W13120  10.263   4.748  12.829
53827W        W13121  26.593  30.467  10.491
53828W        W13122   7.245  15.594   4.173
53829W        W13123  22.606  21.125   2.214
53830W        W13124  39.916   4.242  10.625
53831W        W13125  40.938  29.611   4.182
53832W        W13126  27.545  25.968  14.366
53833W        W13127  41.868  30.980   0.864
53834W        W13128  12.362  24.603   0.838
53835W        W13129  17.145  23.517   1.931
53836W        W13130   3.792  14.340  11.556
53837W        W13131  17.263  33.384  12.042
53838W        W13132  15.638  37.900   3.748
53839W        W13133   1.309  38.826  11.609
53840W        W13134  19.126   6.848   4.125
53841W        W13135  16.288  36.899   3.699
53842W        W13136   5.902   7.381  10.473
53843W        W13137  37.917  44.758   2.360
53844W        W13138  21.117   0.434  12.533
53845W        W13139   5.259  37.506  12.437
53846W        W13140  16.278  16.569   5.095
53847W        W13141  12.130  33.434  11.382
53848W        W13142  22.599  41.872  14.758
53849W        W13143  25.010  18.696  11.098
53850W        W13144  13.313  22.033   5.289
53851W        W13145  23.685  12.610  14.447
53852W        W13146   1.332  40.440  14.821
53853W        W13147  26.131  12.230  10.443
53854W        W13148  40.397  12.659   2.307
53855W        W13149  35.070  36.555   0.753
53856W        W13150  11.794   2.264  10.415
53857W        W13151  14.656   5.894   3.314
53858W        W13152  30.414  22.996  11.092
53859W        W13153  36.990  21.746  12.384
53860W        W13154   7.890  33.037  12.092
53861W        W13155  20.580  27.445  11.436
53862W        W13156  15.750  16.804   4.708
53863W        W13157   6.400  19.647  13.955
53864W        W13158  14.730  11.814  11.880
53865W        W13159   8.180  15.100   2.334
53866W        W13160  36.043  20.243  14.371
53867W        W13161  19.264  28.069  14.961
53868W        W13162  23.226   5.827  13.880
53869W        W13163   5.276   0.960  14.397
53870W        W13164   8.869  23.214   4.235
53871W        W13165  20.194   7.861   4.299
53872W        W13166  33.525  38.498   1.923
53873W        W13167  37.938  13.301  12.986
53874W        W13168  30.042  35.929   3.351
53875W        W13169  42.471  41.820  10.483
53876W        W13170   8.260  23.076   0.387
53877W        W13171  12.806  21.640  12.927
53878W        W13172  19.133   1.951   3.243
53879W        W13173  19.641  37.951  12.829
53880W        W13174  21.115  39.327   0.729
53881W        W13175  17.776   6.213  12.949
53882W        W13176  28.040  11.684  13.343
53883W        W13177  14.637  14.219   3.324
53884W        W13178  32.076  39.006   5.299
53885W        W13179  21.199  27.124  13.310
53886W        W13180  22.197   9.314   1.227
53887W        W13181  39.000  22.225  13.477
53888W        W13182  12.654  28.144   3.722
53889W        W13183  13.278  43.371  14.444
53890W        W13184  31.005  43.453  10.530
53891W        W13185  32.589  12.633   0.457
53892W        W13186  17.676  44.826  12.488
53893W        W13187  16.106   0.762   3.677
53894W        W13188  18.062  31.944   3.285
53895W        W13189  37.058  19.680  13.825
53896W        W13190   6.743  29.577  12.341
53897W        W13191  26.200   0.811   2.193
53898W        W13192   8.662  24.182  10.563
53899W        W13193  37.937   0.478  14.347
53900W        W13194  33.437  16.298   2.373
53901W        W13195   5.817  42.475   2.705
53902W        W13196  25.112  34.608   3.682
53903W        W13197  38.571  13.256  11.991
53904W        W13198   0.274   1.463  13.333
53905W        W13199  24.087   0.940   3.274
53906W        W13200  44.888  35.431   1.889
53907W        W13201  20.160   9.846  13.020
53908W        W13202  20.728  25.031  12.575
53909W        W13203  34.947   2.965  13.875
53910W        W13204  34.878  35.881  12.863
53911W        W13205  17.786   5.916  13.061
53912W        W13206  24.670  44.994  11.411
53913W        W13207  17.214  21.039  10.608
53914W        W13208  26.976  26.971  14.446
53915W        W13209   7.670  38.917  14.769
53916W        W13210  11.791  30.581   5.280
53917W        W13211  39.925  43.363   1.826
53918W        W13212   9.281  41.516  10.476
53919W        W13213  11.253   0.453   2.890
53920W        W13214  24.077  29.577   2.350
53921W        W13215  36.081  16.281   1.411
53922W        W13216  16.746  40.847   1.275
53923W        W13217  34.895  32.545   2.205
53924W        W13218  32.542  22.511   0.482
53925W        W13219  42.315   1.921  10.576
53926W        W13220  42.350  24.117   4.172
53927W        W13221  27.109  39.991   2.681
53928W        W13222  14.713  30.048   1.222
53929W        W13223   3.831  24.002   0.356
53930W        W13224   4.402  16.651   2.370
53931W        W13225  26.461   8.788   1.846
53932W        W13226  43.014  30.163   2.367
53933W        W13227  40.880  16.225  14.426
53934W        W13228   4.264  26.505   0.291
53935W        W13229  40.856  32.129  14.854
53936W        W13230  10.369  35.096   4.116
53937W        W13231  35.602   2.447   4.287
53938W        W13232   3.414  28.144   1.834
53939W        W13233  11.360   6.418  11.474
53940W        W13234   8.334  22.089  12.036
53941W        W13235  43.892   4.869  14.458
53942W        W13236  11.664  41.312  13.495
53943W        W13237  33.081   4.419   0.809
53944W        W13238  10.854  32.981  13.356
53945W        W13239  38.982  25.172  10.936
53946W        W13240  26.513   4.261  11.591
53947W        W13241  38.899  40.468   0.788
53948W        W13242   7.670  39.978   0.819
53949W        W13243  39.837  35.566  12.907
53950W        W13244  34.004  10.234  13.969
53951W        W13245  44.969  27.448  11.579
53952W        W13246  27.067  23.153   1.257
53953W        W13247  11.246  39.452  13.046
53954W        W13248  35.042  16.709   2.418
53955W        W13249  30.912  11.213  10.423
53956W        W13250   0.779   0.988  10.030
53957W        W13251  23.697  25.486   2.277
53958W        W13252  20.067  32.501   4.658
53959W        W13253  37.055  15.235   2.855
53960W        W13254   1.263  12.670   4.677
53961W        W13255  22.251  44.990  12.457
53962W        W13256  14.338  39.871  14.809
53963W        W13257  21.732   9.158   3.200
53964W        W13258  10.261  37.521  14.350
53965W        W13259  34.096  19.557   1.781
53966W        W13260  11.252  22.075   3.796
53967W        W13261  14.250   4.438   0.911
53968W        W13262  22.237   3.361  12.065
53969W        W13263  39.510  11.723  12.033
53970W        W13264  22.648   9.354   2.727
53971W        W13265   5.334  38.507   3.349
53972W        W13266  25.035  28.488   2.409
53973W        W13267  32.596  34.589   4.265
53974W        W13268   4.749  21.513   0.352
53975W        W13269  39.956  29.431  12.889
53976W        W13270  36.459  40.852   0.361
53977W        W13271  43.496  23.122  12.570
53978W        W13272  24.723  27.023   2.858
53979W        W13273   5.193   8.204  11.926
53980W        W13274  28.993  22.224  13.906
53981W        W13275  17.771   2.233   2.323
53982W        W13276  39.367  18.264   0.412
53983W        W13277   0.787   9.164  12.385
53984W        W13278  15.732  27.445  13.322
53985W        W13279  38.537  19.730   3.831
53986W        W13280  15.614  23.157  13.457
53987W        W13281  32.529  41.905  12.368
53988W        W13282  27.081  20.229   4.152
53989W        W13283  44.383  42.320  12.892
53990W        W13284  10.140  30.511  11.898
53991W        W13285  16.606  15.608  13.416
53992W        W13286   5.424  18.633  12.445
53993W        W13287  15.658  38.390   0.943
53994W        W13288  43.918   5.411   1.732
53995W        W13289   9.203  24.040  13.328
53996W        W13290   3.751  39.054  11.430
53997W        W13291  21.220  27.621  12.441
53998W        W13292  40.856  28.133   2.820
53999W        W13293   7.800   3.288   2.854
54000W        W13294   4.912  20.534   3.383
54001W        W13295  20.647  12.815  11.002
54002W        W13296  35.365  14.271   2.203
54003W        W13297  21.068  35.902   2.358
54004W        W13298  15.260  30.034  12.834
54005W        W13299   0.909  17.172  10.106
54006W        W13300  25.144  30.588  14.956
54007W        W13301  19.766  10.662   3.176
54008W        W13302   7.807   5.433  12.376
54009W        W13303  16.157   6.368  14.979
54010W        W13304  31.610  23.654  14.007
54011W        W13305  28.095   0.879  10.502
54012W        W13306  14.316  38.431   1.764
54013W        W13307  23.068  15.762  11.913
54014W        W13308   0.883  37.877  10.896
54015W        W13309  11.728  35.920  13.486
54016W        W13310  35.932  29.513   2.744
54017W        W13311  25.042  44.861  14.391
54018W        W13312  30.593  39.838   0.910
54019W        W13313  14.811  36.552  12.071
54020W        W13314  17.758  26.665  14.432
54021W        W13315  25.185  18.076  10.486
54022W        W13316  18.096  27.611  11.426
54023W        W13317  23.584  29.644   3.220
54024W        W13318  23.542  30.984   4.237
54025W        W13319  16.247  44.277   2.282
54026W        W13320   1.264   7.695  14.895
54027W        W13321   6.681  20.170   1.736
54028W        W13322   9.201   2.728  14.409
54029W        W13323  30.511  41.974   4.135
54030W        W13324  17.250  39.975  12.556
54031W        W13325  23.140   5.892   4.187
54032W        W13326  40.890   0.485  13.972
54033W        W13327  40.968   2.951   3.701
54034W        W13328  40.503  23.054   2.783
54035W        W13329   3.237  35.501  14.402
54036W        W13330  12.847  41.956  11.030
54037W        W13331  31.425  22.651  14.445
54038W        W13332  22.211   4.336   1.858
54039W        W13333  13.312  14.743  11.124
54040W        W13334  42.341   0.813  13.958
54041W        W13335  10.739  42.464   4.353
54042W        W13336  41.789  19.713  14.795
54043W        W13337   1.321  26.462   1.319
54044W        W13338  35.537  24.642   1.420
54045W        W13339  31.946   5.267   2.683
54046W        W13340  13.251  39.832   0.439
54047W        W13341  20.582  37.337   2.675
54048W        W13342  33.416  32.571  12.855
54049W        W13343  40.035  37.432   3.700
54050W        W13344  20.203  13.307  14.945
54051W        W13345  38.066   9.301   1.230
54052W        W13346  23.592  43.781   0.808
54053W        W13347  26.537  33.006   3.274
54054W        W13348  10.721  39.506  14.008
54055W        W13349  10.843   5.429  12.023
54056W        W13350  21.134   9.700  12.564
54057W        W13351  29.951   8.741   1.255
54058W        W13352  41.809  16.622  11.863
54059W        W13353  18.227  37.443  10.903
54060W        W13354  39.479  12.807   2.375
54061W        W13355  17.586   4.419  14.936
54062W        W13356  42.979  19.570  12.566
54063W        W13357  23.597  13.752   3.632
54064W        W13358  21.152  38.040   2.189
54065W        W13359   7.865  16.701   4.160
54066W        W13360   9.700  31.088  13.832
54067W        W13361  24.605  26.130  12.925
54068W        W13362  18.139  36.367   2.901
54069W        W13363  11.755  41.506   4.670
54070W        W13364  14.812   1.771   2.405
54071W        W13365  22.524  25.563   0.268
54072W        W13366  10.862   4.205   0.817
54073W        W13367  30.609  26.200  14.905
54074W        W13368  10.668  37.473  14.965
54075W        W13369  17.694  21.245   2.679
54076W        W13370  14.784  40.880   4.330
54077W        W13371  37.408  30.575  10.465
54078W        W13372   8.178   2.335   2.229
54079W        W13373  37.550  25.513  14.942
54080W        W13374  41.967  10.632  12.853
54081W        W13375  40.430   1.965  10.557
54082W        W13376   2.464  32.552   1.338
54083W        W13377  18.058  16.220   3.279
54084W        W13378  24.025  31.056  14.498
54085W        W13379  13.321  18.564   2.856
54086W        W13380  26.691  28.671   2.408
54087W        W13381  22.167  23.597   1.287
54088W        W13382  41.314  20.222   4.781
54089W        W13383  40.447   0.262   1.804
54090W        W13384  36.449  42.005   4.668
54091W        W13385  34.067   1.731  11.099
54092W        W13386   0.271  10.280   4.736
54093W        W13387  24.210  26.486   4.124
54094W        W13388   7.784  17.266   4.607
54095W        W13389   8.875  32.593  12.983
54096W        W13390  10.241  22.681   2.826
54097W        W13391  27.573  26.001  14.887
54098W        W13392  31.424   2.733   1.695
54099W        W13393  31.612  14.179   0.909
54100W        W13394   3.780  44.795   0.439
54101W        W13395   5.371  38.430  14.447
54102W        W13396  26.589  43.811   1.906
54103W        W13397   1.426  20.640  11.417
54104W        W13398  38.996  13.750   2.342
54105W        W13399  10.375  35.376  13.469
54106W        W13400  35.864  34.488   3.345
54107W        W13401  38.894  40.849  14.891
54108W        W13402  41.331  13.225   4.718
54109W        W13403  16.137  26.165  14.515
54110W        W13404  31.470  43.949   2.774
54111W        W13405  19.104  29.053   4.320
54112W        W13406   9.330  40.000   3.294
54113W        W13407   5.712  35.078   4.601
54114W        W13408  40.896   5.236  13.009
54115W        W13409   7.677   4.351   1.339
54116W        W13410   3.390  26.465   3.365
54117W        W13411  36.534  16.146  14.030
54118W        W13412  14.751  38.541  10.912
54119W        W13413   7.390  25.501  14.356
54120W        W13414  28.992  41.374  10.103
54121W        W13415  21.698  16.634   1.888
54122W        W13416  28.518   5.202  11.065
54123W        W13417  24.107  35.932  10.915
54124W        W13418  18.667  42.373   3.290
54125W        W13419   5.747  25.592  10.121
54126W        W13420  20.724  18.210  14.832
54127W        W13421  26.105   7.247  14.458
54128W        W13422  44.979  14.641   1.287
54129W        W13423  13.112  12.759   2.709
54130W        W13424  39.047   5.424   4.215
54131W        W13425  34.411  32.885  12.432
54132W        W13426  12.810  38.372   3.357
54133W        W13427   4.283   2.741   3.720
54134W        W13428  33.936   3.924   2.825
54135W        W13429   0.274  11.695   0.880
54136W        W13430  13.338  12.177   2.674
54137W        W13431   3.738  39.991   0.843
54138W        W13432  17.133  38.472   0.416
54139W        W13433  38.029  39.876  13.990
54140W        W13434  34.047  38.051  13.331
54141W        W13435  30.627  25.640  13.347
54142W        W13436  11.270  13.130  12.013
54143W        W13437   0.766  34.930  13.505
54144W        W13438  33.991   1.948   1.279
54145W        W13439  22.737  15.130   4.750
54146W        W13440  34.877  37.479   0.875
54147W        W13441  37.910  34.047   4.761
54148W        W13442   5.915  31.038  11.050
54149W        W13443   6.199  20.105  10.417
54150W        W13444  26.206  40.426   2.382
54151W        W13445  38.884  16.673  14.473
54152W        W13446  27.683  27.171   0.243
54153W        W13447  25.623  34.936  13.541
54154W        W13448  41.468   2.456  10.419
54155W        W13449  41.397  24.537  12.084
54156W        W13450  35.001  18.162   2.210
54157W        W13451  34.059  19.752   4.829
54158W        W13452  23.078   7.216  11.925
54159W        W13453  23.169  11.826   0.409
54160W        W13454  41.042  39.402  11.031
54161W        W13455  29.648   8.185   2.832
54162W        W13456  41.967   7.680  13.028
54163W        W13457  35.049   9.353   0.387
54164W        W13458   3.838  33.923   2.779
54165W        W13459  42.976   5.868  14.476
54166W        W13460  32.058  37.952  10.573
54167W        W13461  34.413  32.908  11.543
54168W        W13462  18.581  39.810   3.647
54169W        W13463  10.711  27.589   0.950
54170W        W13464  37.833  33.071  14.936
54171W        W13465  33.079  13.827  14.946
54172W        W13466   2.453  26.701  10.892
54173W        W13467  32.554   1.382   4.749
54174W        W13468  10.178  24.007   1.787
54175W        W13469   1.831  28.951  12.404
54176W        W13470  36.880  13.678   3.365
54177W        W13471  43.903  35.076   2.741
54178W        W13472  30.951  17.256  12.470
54179W        W13473  12.687  14.639  14.392
54180W        W13474  18.748  13.253   5.217
54181W        W13475  28.551  15.808  11.990
54182W        W13476  37.935  28.575   1.809
54183W        W13477  23.070  19.692   4.605
54184W        W13478  30.090  17.682  13.056
54185W        W13479  44.848  36.384   0.246
54186W        W13480   6.304  29.142   0.454
54187W        W13481  44.901  10.231  13.884
54188W        W13482  31.102  15.729  11.475
54189W        W13483   0.331  42.405   3.236
54190W        W13484   3.366  21.177  14.396
54191W        W13485  34.587  23.000  14.762
54192W        W13486  20.141  14.630  14.371
54193W        W13487   4.886  14.831   0.958
54194W        W13488  14.758   3.788   0.435
54195W        W13489  41.980  44.935  11.103
54196W        W13490  19.043   6.260   1.221
54197W        W13491  23.662  34.924   0.760
54198W        W13492   5.818  17.603  13.848
54199W        W13493  15.702  38.532  12.498
54200W        W13494  13.812  34.594  14.888
54201W        W13495  16.751  20.125   3.827
54202W        W13496  16.198  32.469  10.904
54203W        W13497  23.017  22.708   4.262
54204W        W13498   2.454   9.272   4.773
54205W        W13499  36.463  44.894   0.373
54206W        W13500  36.064   4.381  10.416
54207W        W13501  35.575  29.033   2.358
54208W        W13502   6.209  41.900   4.271
54209W        W13503  23.215  26.004  13.359
54210W        W13504  39.323  31.586  14.758
54211W        W13505   7.257  15.663   0.389
54212W        W13506  19.609  42.953  11.393
54213W        W13507   8.743   8.885  11.407
54214W        W13508  43.458  40.916  13.405
54215W        W13509   2.759  30.455   1.220
54216W        W13510  38.421  20.614  14.898
54217W        W13511  38.444  22.078  11.382
54218W        W13512  13.624  39.435   1.319
54219W        W13513  17.751  32.084  10.113
54220W        W13514  41.417   1.877   4.693
54221W        W13515  15.738  25.677   0.442
54222W        W13516  24.634  34.054  12.550
54223W        W13517  10.820   9.158  10.896
54224W        W13518  39.426  28.089  13.511
54225W        W13519  20.654  22.193  11.390
54226W        W13520  41.518  27.637  12.504
54227W        W13521   2.776  10.171  11.545
54228W        W13522  13.256  37.966  13.033
54229W        W13523  33.959  41.900  11.475
54230W        W13524  33.988  23.709  10.411
54231W        W13525  21.206   2.345  11.106
54232W        W13526   6.915  39.508  14.401
54233W        W13527  16.812  38.853  13.357
54234W        W13528   9.680  12.340   3.718
54235W        W13529   2.239   2.381   4.750
54236W        W13530   4.426  11.730   3.671
54237W        W13531  10.831  24.678  10.615
54238W        W13532   2.284   6.238   2.250
54239W        W13533  38.861   4.764   3.175
54240W        W13534  13.173  28.657  10.992
54241W        W13535  33.879  27.963  14.496
54242W        W13536   1.874  26.618   2.345
54243W        W13537  24.186  30.539  14.282
54244W        W13538  37.509  27.629   0.428
54245W        W13539  25.642  16.179   4.253
54246W        W13540  18.669  19.191  13.454
54247W        W13541   7.235   4.727   4.833
54248W        W13542  41.312  35.895   1.285
54249W        W13543  35.405  41.410  13.916
54250W        W13544  14.336  44.461  11.376
54251W        W13545  34.107  30.416  11.484
54252W        W13546  13.245   9.846   4.217
54253W        W13547  21.724  33.996   0.302
54254W        W13548  31.534  33.484  12.050
54255W        W13549  14.675  29.972  12.505
54256W        W13550  30.545  22.734  11.040
54257W        W13551  30.552   1.885  10.528
54258W        W13552  12.815  14.239   0.440
54259W        W13553  33.527   0.483  14.444
54260W        W13554   0.768  32.017   3.225
54261W        W13555  27.563  17.098  11.381
54262W        W13556  17.579  20.571  12.023
54263W        W13557  34.995  24.722  10.962
54264W        W13558   6.317  10.812  14.881
54265W        W13559  43.981   5.894   3.858
54266W        W13560  43.805   2.958   3.696
54267W        W13561  25.473  23.079  10.434
54268W        W13562  34.097  18.758  12.931
54269W        W13563  12.752   7.250   1.266
54270W        W13564  31.603   6.869  11.387
54271W        W13565  29.999   6.249   1.782
54272W        W13566  26.094  11.159  12.454
54273W        W13567  43.969  11.770  14.767
54274W        W13568  41.921   9.865  14.383
54275W        W13569  23.207  23.727   1.830
54276W        W13570  22.603  12.287   4.224
54277W        W13571  19.191  40.973   2.894
54278W        W13572  13.325  20.241   0.422
54279W        W13573  14.635   9.643  14.303
54280W        W13574  32.012  18.548  11.601
54281W        W13575  23.104   7.773   0.311
54282W        W13576  12.728   2.923  12.023
54283W        W13577  25.486  13.672  11.376
54284W        W13578  28.134  19.559  13.489
54285W        W13579  34.891  16.715  13.987
54286W        W13580  35.589  16.222  11.525
54287W        W13581  34.902   3.320  14.972
54288W        W13582  33.467  43.954   0.357
54289W        W13583  16.640  20.214  10.988
54290W        W13584  38.941  12.856   5.130
54291W        W13585  17.216  38.867  13.367
54292W        W13586   3.390  32.596   2.357
54293W        W13587  26.541  21.702   0.902
54294W        W13588  33.586  25.983  14.982
54295W        W13589   9.683  13.626  12.384
54296W        W13590  29.030  11.213   1.431
54297W        W13591  19.115  42.981  13.374
54298W        W13592  38.374  33.035   1.814
54299W        W13593  18.239  41.965  10.905
54300W        W13594  41.461  13.741  13.918
54301W        W13595  32.116  13.165  10.933
54302W        W13596  19.774  23.533  14.428
54303W        W13597   8.367  14.108   2.711
54304W        W13598  17.755  32.928   1.369
54305W        W13599  35.462   7.211   4.223
54306W        W13600  16.127  15.232  11.919
54307W        W13601  22.196  24.516  11.509
54308W        W13602  31.065  34.419  11.373
54309W        W13603  35.975  33.445  10.638
54310W        W13604  42.799  34.002   2.862
54311W        W13605   8.289  36.412   0.790
54312W        W13606  19.536  41.481   2.881
54313W        W13607  41.461  28.485  11.494
54314W        W13608  11.296  41.023   4.791
54315W        W13609   2.946  30.112  13.313
54316W        W13610  33.095  18.770   3.322
54317W        W13611  43.914  34.563  10.617
54318W        W13612  37.436  43.881  14.918
54319W        W13613  33.618  19.156  10.579
54320W        W13614   0.374  43.408  13.055
54321W        W13615  14.833   5.222   3.180
54322W        W13616  21.161  20.662  10.589
54323W        W13617  20.076   8.263  12.962
54324W        W13618  29.961  14.823   1.246
54325W        W13619   9.644   9.244   4.280
54326W        W13620   6.354  31.130  10.984
54327W        W13621  21.165  42.436  11.071
54328W        W13622  31.063   4.232   1.758
54329W        W13623  11.313  29.440  14.291
54330W        W13624  40.537  14.150  14.764
54331W        W13625   1.783  34.494   0.738
54332W        W13626  12.233  22.575  11.608
54333W        W13627  42.411   1.900   0.862
54334W        W13628  41.992  44.481  13.831
54335W        W13629   1.272   1.255   5.298
54336W        W13630  36.859  29.052   4.154
54337W        W13631   2.905  10.739   4.225
54338W        W13632   5.248   2.896  11.431
54339W        W13633  17.118  28.470   1.783
54340W        W13634   7.256  30.004  10.433
54341W        W13635   9.344  37.884  14.350
54342W        W13636  41.887  18.590  12.560
54343W        W13637  41.374  35.055   1.890
54344W        W13638   3.714  28.651  12.988
54345W        W13639  11.286   4.237  12.449
54346W        W13640   0.935  31.969   2.243
54347W        W13641   3.456  40.520   2.415
54348W        W13642  13.190   5.713   4.255
54349W        W13643  32.457  20.600  13.911
54350W        W13644  44.324  41.914   5.259
54351W        W13645  31.047  31.072  13.466
54352W        W13646  34.439  11.666   4.314
54353W        W13647  36.908  11.646  13.465
54354W        W13648   7.781  23.212   3.653
54355W        W13649   3.862  20.629   1.705
54356W        W13650  31.520  38.844   2.731
54357W        W13651  18.178  41.489   1.305
54358W        W13652   7.752   7.842   0.802
54359W        W13653  32.139  18.296  11.016
54360W        W13654   6.906  26.530  10.543
54361W        W13655  29.952  38.544  12.941
54362W        W13656  11.659  34.078  10.937
54363W        W13657  28.035  37.047   0.450
54364W        W13658  40.440  24.167   1.284
54365W        W13659  26.696  35.501  13.983
54366W        W13660  38.482  35.470  12.427
54367W        W13661  20.646   8.857   2.765
54368W        W13662   3.308  26.509  13.389
54369W        W13663  25.164  21.586   2.732
54370W        W13664  40.049  12.317  12.996
54371W        W13665  31.983  22.109   1.701
54372W        W13666   4.738  43.428   2.265
54373W        W13667  16.123   6.252   4.242
54374W        W13668  35.512  32.591  11.098
54375W        W13669  44.818   1.743   9.439
54376W        W13670  13.703  15.697   2.673
54377W        W13671  12.677  24.130  13.312
54378W        W13672  13.327  19.190  10.404
54379W        W13673  41.975  43.900  12.859
54380W        W13674  12.805  37.378  14.336
54381W        W13675  17.726  16.618  11.948
54382W        W13676   2.383   4.236   3.843
54383W        W13677   5.312  17.074  14.454
54384W        W13678   4.823   3.269   3.638
54385W        W13679  20.250  42.953  12.871
54386W        W13680  33.120  27.480  12.934
54387W        W13681  17.670   8.332  11.993
54388W        W13682   2.825  32.614  11.044
54389W        W13683  21.216  27.009   3.676
54390W        W13684  28.157  12.654  14.347
54391W        W13685  44.920  38.517  12.377
54392W        W13686   7.819  39.864  13.909
54393W        W13687  35.363  28.617  12.889
54394W        W13688  33.921  25.514   3.340
54395W        W13689  42.990  24.205   1.735
54396W        W13690  15.168  32.614   4.126
54397W        W13691  25.172  40.921   1.893
54398W        W13692  14.773  42.786   4.353
54399W        W13693  37.405  17.738  13.516
54400W        W13694  20.223   8.282  11.984
54401W        W13695  30.539  11.643  13.864
54402W        W13696  23.644  41.030   1.788
54403W        W13697  36.882   0.782   2.198
54404W        W13698   3.907  27.118  13.866
54405W        W13699  16.288  32.914   0.383
54406W        W13700  17.716  28.534   2.734
54407W        W13701   6.889  22.225   1.843
54408W        W13702  42.486  42.497  12.052
54409W        W13703  20.752  33.394   1.433
54410W        W13704  32.111   0.964   1.374
54411W        W13705  20.751  14.254   1.417
54412W        W13706  28.435  27.598  11.938
54413W        W13707  41.514  22.139  14.786
54414W        W13708   3.733   5.924  14.843
54415W        W13709   2.455  12.333  10.914
54416W        W13710   7.683  19.585  10.061
54417W        W13711  13.182   4.207   1.924
54418W        W13712  12.196  25.598   2.376
54419W        W13713  22.102  38.964   2.726
54420W        W13714  43.011  30.133  13.512
54421W        W13715   1.786   6.901  11.605
54422W        W13716  10.676  40.818   4.715
54423W        W13717  44.283  32.108   3.682
54424W        W13718  16.575  15.704   3.636
54425W        W13719  25.139  16.647   3.711
54426W        W13720  33.407   7.295  10.445
54427W        W13721   7.209  26.640   2.789
54428W        W13722  28.453  22.041  11.978
54429W        W13723  33.477  36.856   0.959
54430W        W13724  20.763  34.582   0.771
54431W        W13725  18.710   5.235   0.918
54432W        W13726   8.400  12.156  11.101
54433W        W13727   8.774  42.957   4.198
54434W        W13728  26.601  37.015   4.703
54435W        W13729  34.962  20.655  12.469
54436W        W13730  37.438  18.111  13.358
54437W        W13731  38.510   8.818   0.408
54438W        W13732  20.692  12.730  14.402
54439W        W13733  28.012  44.976  11.857
54440W        W13734   9.210  32.925  11.607
54441W        W13735  10.370  29.571  12.830
54442W        W13736  42.458  27.549   1.295
54443W        W13737  23.736  15.242   3.157
54444W        W13738   1.739  20.618  12.908
54445W        W13739  40.012  17.159   1.790
54446W        W13740  18.614  39.431   0.802
54447W        W13741  40.354   7.307   1.790
54448W        W13742  23.193  42.417   0.310
54449W        W13743  25.994  11.714  14.763
54450W        W13744  41.934  40.478  10.638
54451W        W13745  33.031   3.783  11.954
54452W        W13746  36.959   6.694   1.422
54453W        W13747  11.149  10.809   2.291
54454W        W13748  17.146  30.073   0.770
54455W        W13749  21.159  38.054   4.707
54456W        W13750  31.986   0.744   2.382
54457W        W13751  26.195  32.605  13.518
54458W        W13752  24.120  38.010   4.624
54459W        W13753  28.158   7.228   3.668
54460W        W13754  40.943  39.854  11.928
54461W        W13755  44.771  21.573  12.929
54462W        W13756  37.079   9.308   3.189
54463W        W13757   2.449  20.678  12.930
54464W        W13758   1.753  12.798  13.506
54465W        W13759  43.800  35.396   0.807
54466W        W13760  20.222  27.542  14.283
54467W        W13761  43.996   7.260   4.617
54468W        W13762  20.746   1.804   3.208
54469W        W13763  28.959  44.776  12.375
54470W        W13764   8.334  28.646  13.810
54471W        W13765  44.862  33.511   1.440
54472W        W13766  40.991  21.613   1.312
54473W        W13767  41.313  22.727   0.342
54474W        W13768  29.041  19.186   3.157
54475W        W13769  25.533  24.053   3.694
54476W        W13770   8.181  16.803  13.527
54477W        W13771  15.114  20.593   0.933
54478W        W13772  17.108  20.072  13.945
54479W        W13773   1.975  37.897  10.541
54480W        W13774   4.894  30.432  14.322
54481W        W13775  38.561  22.996  14.768
54482W        W13776  22.666  12.619  14.476
54483W        W13777   9.733  11.329   2.805
54484W        W13778  26.477  39.952  14.463
54485W        W13779  15.585   3.280   4.269
54486W        W13780  36.383  22.587  11.870
54487W        W13781  29.169  40.388   2.683
54488W        W13782  20.699  14.788   2.861
54489W        W13783   9.341   3.950   1.775
54490W        W13784  38.374  23.010  12.015
54491W        W13785   2.877  12.232   0.318
54492W        W13786  41.469  36.006   5.651
54493W        W13787   2.348  41.877   4.234
54494W        W13788  10.210  20.582  13.483
54495W        W13789   1.793   0.452   3.272
54496W        W13790  29.175  43.440  11.993
54497W        W13791   4.722  22.540  14.295
54498W        W13792  30.032  15.219  11.049
54499W        W13793  35.982  38.470  10.895
54500W        W13794  37.939  26.982  12.554
54501W        W13795   7.701  38.941   1.234
54502W        W13796  11.719  43.430   0.333
54503W        W13797   4.280  11.166   4.764
54504W        W13798  37.985   9.816   3.754
54505W        W13799  31.089  25.963  12.539
54506W        W13800  30.963  15.778   2.335
54507W        W13801   1.431  37.953  14.031
54508W        W13802  11.740   6.917  13.524
54509W        W13803   0.297  24.187  12.956
54510W        W13804  20.090   5.298  14.291
54511W        W13805  28.616  29.607   1.276
54512W        W13806  35.495   2.436   1.885
54513W        W13807   1.368  30.155   2.286
54514W        W13808  22.636  16.314  11.524
54515W        W13809   5.863  22.157  11.558
54516W        W13810  20.620  24.721  14.441
54517W        W13811  39.496  14.790  12.533
54518W        W13812  30.929  23.012   0.457
54519W        W13813  19.684  19.055  11.870
54520W        W13814  26.959  10.204   2.187
54521W        W13815   8.775  27.112  12.461
54522W        W13816  20.232  35.072  10.423
54523W        W13817  16.106  15.633   3.360
54524W        W13818  21.701  28.514  14.770
54525W        W13819   8.898   1.406  10.889
54526W        W13820  17.139   0.441  13.404
54527W        W13821   0.901  40.813  14.427
54528W        W13822  25.127  24.587   3.685
54529W        W13823  40.523   1.973   3.870
54530W        W13824   3.396   8.226   0.318
54531W        W13825  16.262  43.999   0.895
54532W        W13826  25.161  17.097  11.461
54533W        W13827  35.431  19.045  14.453
54534W        W13828  16.749   0.834   2.196
54535W        W13829  20.190  43.776   4.744
54536W        W13830  11.667  40.330   9.923
54537W        W13831  24.975  26.539   4.831
54538W        W13832   8.178  44.398   2.375
54539W        W13833  24.618   9.760   3.366
54540W        W13834  18.239  12.236  14.971
54541W        W13835  34.907   1.359  14.435
54542W        W13836   1.463  12.829   0.446
54543W        W13837  12.794  17.077   3.263
54544W        W13838  34.894  11.342   4.236
54545W        W13839  12.278   6.269  13.332
54546W        W13840   1.883  25.640   3.368
54547W        W13841  20.189   0.884   1.376
54548W        W13842   7.911  24.016  12.010
54549W        W13843  29.947  10.873  12.060
54550W        W13844  32.999  34.052  13.339
54551W        W13845   8.758  14.809   1.788
54552W        W13846  32.018  27.991   5.299
54553W        W13847  34.548   5.932  12.929
54554W        W13848  42.951  41.385   3.372
54555W        W13849  23.596  44.288   2.222
54556W        W13850  28.489  24.721   2.267
54557W        W13851   3.855   3.364  13.517
54558W        W13852  28.143  35.539   0.260
54559W        W13853  15.788   3.787   1.448
54560W        W13854  34.517  14.174   1.440
54561W        W13855  26.605   0.920   0.794
54562W        W13856  38.557  24.123   1.404
54563W        W13857  28.486  42.799   2.682
54564W        W13858  15.306  35.385  13.515
54565W        W13859  20.754  21.736  11.536
54566W        W13860  19.566  29.466   4.174
54567W        W13861  16.140  42.829   0.256
54568W        W13862  32.101  22.502   2.850
54569W        W13863  43.502  24.599   2.749
54570W        W13864  20.644   0.462  10.503
54571W        W13865  11.720  42.387  12.482
54572W        W13866   9.205   7.349   2.278
54573W        W13867   2.397  22.704  13.917
54574W        W13868  31.576  40.455   4.628
54575W        W13869  38.018  23.158  14.467
54576W        W13870   2.422   2.431   1.358
54577W        W13871  38.495  31.063   0.389
54578W        W13872  32.080  32.481   2.872
54579W        W13873   3.351  42.988  10.991
54580W        W13874  26.626  17.701   4.833
54581W        W13875   6.712   6.194  12.025
54582W        W13876   0.308  36.406   2.755
54583W        W13877  31.561  10.693   0.885
54584W        W13878  44.975   0.789  12.542
54585W        W13879  33.414  17.657   1.443
54586W        W13880   0.966  21.589   1.921
54587W        W13881   4.426  37.860   0.375
54588W        W13882  29.446  14.233   4.350
54589W        W13883   2.841  31.138   4.611
54590W        W13884  41.449  30.600  11.948
54591W        W13885  35.527  20.722   1.429
54592W        W13886  35.008  28.511  11.429
54593W        W13887   9.747  39.029   3.662
54594W        W13888  36.904  12.824   2.671
54595W        W13889   3.297  21.669  14.879
54596W        W13890  17.175  13.691   3.186
54597W        W13891  33.418  29.545  12.382
54598W        W13892  10.713  22.098  14.382
54599W        W13893   4.425   8.763   4.211
54600W        W13894  28.567  33.600   3.359
54601W        W13895  38.827  28.647   0.814
54602W        W13896   0.407  44.355   1.730
54603W        W13897  12.822  23.187   1.727
54604W        W13898   2.873  10.816   0.891
54605W        W13899  18.213  20.252  13.976
54606W        W13900  40.934  29.526  13.513
54607W        W13901  28.634  30.035   1.880
54608W        W13902  27.070  44.415  14.342
54609W        W13903  35.990  12.709   3.282
54610W        W13904   5.235  32.036  11.946
54611W        W13905  16.786  31.512   3.239
54612W        W13906  34.898  13.840   1.831
54613W        W13907   0.773  12.320   4.144
54614W        W13908  39.812  13.257  12.010
54615W        W13909  29.438  37.984   0.474
54616W        W13910  32.603   2.916  11.970
54617W        W13911   3.748  31.108   3.156
54618W        W13912  21.218  15.802   4.232
54619W        W13913  17.214  37.455   2.180
54620W        W13914   6.851  16.138   3.771
54621W        W13915   6.183  24.990   4.146
54622W        W13916  36.882  27.464   0.245
54623W        W13917  28.671  27.512  14.865
54624W        W13918  22.039  26.677   1.412
54625W        W13919  14.702  30.590  14.500
54626W        W13920  24.666  15.738   4.307
54627W        W13921  42.992  28.126  14.351
54628W        W13922  35.430  37.985   1.788
54629W        W13923  31.545  14.102  14.370
54630W        W13924  10.663  41.437   3.673
54631W        W13925   4.228  12.336  14.814
54632W        W13926  35.475  11.774  10.908
54633W        W13927  38.396  36.006   3.307
54634W        W13928  43.791   2.412   5.599
54635W        W13929   1.780   3.845   3.312
54636W        W13930  30.423  18.074   3.207
54637W        W13931  27.963   1.400   2.374
54638W        W13932  11.310  33.410   0.370
54639W        W13933  17.650  32.983   3.706
54640W        W13934  17.707  19.545  13.888
54641W        W13935   1.303  23.568   2.361
54642W        W13936  29.950   0.426  10.591
54643W        W13937  37.026  30.977   0.876
54644W        W13938  36.063   7.680   3.222
54645W        W13939  38.413  22.246   0.747
54646W        W13940  17.622  27.953   2.815
54647W        W13941  14.688  42.881  12.951
54648W        W13942  23.615  33.012  10.892
54649W        W13943  27.550  12.222   3.204
54650W        W13944  21.167  28.071   1.824
54651W        W13945  40.490  26.002   1.390
54652W        W13946  28.969   6.220   1.343
54653W        W13947  10.822  43.330   0.426
54654W        W13948  43.949   7.791  12.913
54655W        W13949  43.813  28.663   1.814
54656W        W13950   7.833   2.857  14.307
54657W        W13951  10.268  28.556  14.407
54658W        W13952   9.670  36.000  14.906
54659W        W13953  16.803  33.008  14.493
54660W        W13954  35.869  41.929  13.063
54661W        W13955  29.532  26.464   1.240
54662W        W13956  10.707   1.351  12.515
54663W        W13957  23.222  26.688   1.812
54664W        W13958   0.833  39.343  14.911
54665W        W13959  23.184  40.339  14.768
54666W        W13960   8.349   6.241  10.472
54667W        W13961  10.353  24.572   4.144
54668W        W13962   5.283   1.291  14.862
54669W        W13963  11.339  29.075  14.993
54670W        W13964  21.581  13.227   0.368
54671W        W13965   6.273  19.116  12.897
54672W        W13966  35.539   6.399   4.778
54673W        W13967   6.354  37.541  13.022
54674W        W13968  32.523   4.337   1.210
54675W        W13969  32.021  35.470   1.318
54676W        W13970  15.084   3.803  13.959
54677W        W13971  40.987  31.088  11.899
54678W        W13972  27.451  11.626  14.784
54679W        W13973   8.216  43.915   3.638
54680W        W13974  10.851  35.094  14.322
54681W        W13975  33.514   1.470  12.959
54682W        W13976  40.433  24.648   3.146
54683W        W13977  18.551  39.910  11.538
54684W        W13978  32.072  11.234   0.434
54685W        W13979   3.427  21.579  11.984
54686W        W13980  21.626  34.006  14.320
54687W        W13981   2.468  13.277  13.049
54688W        W13982  13.346  44.301   9.995
54689W        W13983  19.077  26.560  11.081
54690W        W13984  26.515  11.369  13.426
54691W        W13985  22.103  32.063  11.376
54692W        W13986  19.542  16.616  10.479
54693W        W13987  28.105  22.655  14.942
54694W        W13988  28.124  29.068  11.537
54695W        W13989  38.550  22.528  12.041
54696W        W13990  33.938  24.497  12.017
54697W        W13991  25.468  36.534  12.411
54698W        W13992  41.932  26.472   4.311
54699W        W13993  34.394  24.592   2.722
54700W        W13994  38.890  38.562   4.305
54701W        W13995  31.954  31.644  14.450
54702W        W13996  29.520  44.416   2.297
54703W        W13997  22.593  39.370  13.497
54704W        W13998  22.538  22.028   0.860
54705W        W13999  32.060  38.888  12.422
54706W        W14000  36.403  43.972  14.330
54707W        W14001  24.682   2.772  14.460
54708W        W14002   0.493  27.552   3.262
54709W        W14003  22.514  23.534   4.253
54710W        W14004  18.758  30.016   2.799
54711W        W14005  12.742  21.701  14.395
54712W        W14006   2.330   2.362  10.503
54713W        W14007  27.576   3.774   4.638
54714W        W14008   0.871  44.997   4.795
54715W        W14009   3.343   4.758  11.603
54716W        W14010   1.801  25.521  13.345
54717W        W14011  34.523  11.353  12.488
54718W        W14012  44.850  15.296  10.889
54719W        W14013   5.749   8.329  13.018
54720W        W14014  16.220   9.287   4.800
54721W        W14015  12.169  43.427  14.872
54722W        W14016  36.537  30.940   3.853
54723W        W14017   3.797  22.076  11.074
54724W        W14018  38.325   9.162  14.354
54725W        W14019  19.196  32.939   2.199
54726W        W14020  15.182  18.737  11.540
54727W        W14021  33.446  10.246  13.536
54728W        W14022  11.847  33.052   4.658
54729W        W14023   3.440  16.751   0.249
54730W        W14024   8.666   8.890   4.688
54731W        W14025  32.951  21.243   2.803
54732W        W14026  33.526  12.634   4.125
54733W        W14027  24.218  43.502  14.972
54734W        W14028  10.668  15.741  14.948
54735W        W14029  44.468   8.400   4.795
54736W        W14030  29.927  31.625  11.502
54737W        W14031  39.808  40.929   0.319
54738W        W14032  10.843   5.763   2.368
54739W        W14033  34.070  36.048   2.871
54740W        W14034  36.874   6.322   4.184
54741W        W14035  17.231  10.301  14.342
54742W        W14036  11.240   1.404   3.280
54743W        W14037  20.580  14.236  11.090
54744W        W14038  30.634  28.081  12.413
54745W        W14039  33.107  42.384  13.496
54746W        W14040  44.296   0.957  14.503
54747W        W14041  33.094   2.854  14.851
54748W        W14042  41.886  12.295  13.041
54749W        W14043  24.105   1.279  11.015
54750W        W14044  30.109  35.466   3.768
54751W        W14045  26.156  35.500  13.484
54752W        W14046  38.562   9.242  14.802
54753W        W14047  26.172  41.941  14.378
54754W        W14048  24.123  16.740   1.214
54755W        W14049  43.352   1.735   2.801
54756W        W14050  18.564  36.012  13.019
54757W        W14051  27.650   5.397  12.355
54758W        W14052   1.408   1.477   5.586
54759W        W14053  40.854  33.484   2.862
54760W        W14054  21.195  31.036  10.896
54761W        W14055  41.295  28.498   2.401
54762W        W14056  31.967  24.591  12.408
54763W        W14057  38.385  12.857   0.472
54764W        W14058  43.452  28.473  13.035
54765W        W14059   1.796  16.674   1.754
54766W        W14060   7.843  18.180   0.464
54767W        W14061   8.896   6.725  12.085
54768W        W14062  20.699  10.362   0.959
54769W        W14063  27.015  38.379  10.140
54770W        W14064  21.153   4.705  14.364
54771W        W14065   9.815  14.654  11.111
54772W        W14066  36.582  34.118   0.807
54773W        W14067   2.911  19.118   2.263
54774W        W14068  36.480  26.132  12.378
54775W        W14069  37.967  30.513   2.732
54776W        W14070  30.987  13.716  10.979
54777W        W14071   9.867  43.782  10.449
54778W        W14072  25.145  27.630   2.696
54779W        W14073  36.953  31.967   0.353
54780W        W14074  35.433  29.660  12.825
54781W        W14075  22.166  32.903  11.001
54782W        W14076  15.726  33.428  10.629
54783W        W14077  24.013  21.655   0.457
54784W        W14078  37.959  11.793  11.888
54785W        W14079  33.900  32.085  12.339
54786W        W14080  40.836  20.047   3.863
54787W        W14081  38.346  42.850  14.489
54788W        W14082   3.335  17.659  11.096
54789W        W14083  27.968  19.575  10.599
54790W        W14084  10.193  37.008   2.398
54791W        W14085  25.100   1.323   2.862
54792W        W14086  43.971   2.781  10.985
54793W        W14087  17.238   7.754   0.336
54794W        W14088  30.649   8.696  10.466
54795W        W14089  18.188  16.675   4.820
54796W        W14090  15.309  31.918   3.342
54797W        W14091  15.712   7.199  12.949
54798W        W14092  31.448  34.111   2.393
54799W        W14093  16.771  18.550  11.122
54800W        W14094   0.973  24.178  14.275
54801W        W14095  43.957  32.091  11.049
54802W        W14096  42.349  23.685   1.865
54803W        W14097  31.431   5.890  13.439
54804W        W14098  35.397  23.130  14.994
54805W        W14099  14.758   1.801   0.757
54806W        W14100  30.099  34.099  12.080
54807W        W14101   6.836  31.539  11.056
54808W        W14102   0.440  26.565   2.678
54809W        W14103   8.782  22.649   4.751
54810W        W14104  15.792  18.097   1.287
54811W        W14105   8.164  20.233   9.962
54812W        W14106   4.845  42.934   1.935
54813W        W14107   1.374  38.492   1.890
54814W        W14108   2.419  26.561   4.227
54815W        W14109   2.789  13.324   2.246
54816W        W14110  39.330   8.357  12.005
54817W        W14111   6.273  18.287  13.488
54818W        W14112  42.444   3.796  12.955
54819W        W14113  23.664  37.371   3.276
54820W        W14114  23.567   8.345  13.814
54821W        W14115  38.569  24.054  13.928
54822W        W14116   0.940  38.466   3.830
54823W        W14117  26.155  22.069  12.877
54824W        W14118  31.059  29.554  12.014
54825W        W14119  34.988  38.447  12.045
54826W        W14120  28.561   6.878  13.335
54827W        W14121  24.205  25.684   1.856
54828W        W14122   8.699  28.515  13.370
54829W        W14123  26.153  39.539   5.272
54830W        W14124  28.094  33.098   0.868
54831W        W14125  31.556  23.004   1.443
54832W        W14126   7.908  19.579  12.451
54833W        W14127   3.447  11.852   2.847
54834W        W14128   4.705  23.732  14.835
54835W        W14129  32.513   5.923  13.958
54836W        W14130  41.975  41.372  14.451
54837W        W14131  39.445   1.928   1.807
54838W        W14132   6.352  12.126  11.515
54839W        W14133   2.351  22.227   1.750
54840W        W14134  29.576  33.987  13.991
54841W        W14135  20.260   6.871  14.337
54842W        W14136  24.507  35.416  13.325
54843W        W14137  29.524  36.518   4.256
54844W        W14138  23.082  20.689   0.321
54845W        W14139  17.258  23.077   3.355
54846W        W14140  25.629  11.133  14.389
54847W        W14141  31.427  16.641   2.263
54848W        W14142  39.957  42.373   0.247
54849W        W14143  43.487  16.309  10.464
54850W        W14144  44.003  21.638  12.927
54851W        W14145  34.033   0.290   4.612
54852W        W14146  39.922  39.349  12.033
54853W        W14147  40.992   1.267   4.820
54854W        W14148  39.877  26.512  13.005
54855W        W14149   7.853  24.629   1.749
54856W        W14150   0.285   4.445  11.566
54857W        W14151  20.248  28.146  14.443
54858W        W14152  28.944   6.382   4.719
54859W        W14153  12.239  21.181   2.416
54860W        W14154  40.515  35.496  13.484
54861W        W14155  29.001  11.774  11.482
54862W        W14156  18.584  22.697   1.344
54863W        W14157  22.590  14.616   3.247
54864W        W14158  13.794  10.791  14.991
54865W        W14159  22.112  44.440   2.853
54866W        W14160  28.456  37.468   9.464
54867W        W14161  20.218  16.250   0.450
54868W        W14162  35.575  33.935  10.621
54869W        W14163  20.646  33.466  12.869
54870W        W14164  24.096   6.740   0.407
54871W        W14165  37.061  36.050  12.357
54872W        W14166  19.688  14.240  13.319
54873W        W14167  39.417  39.026   5.296
54874W        W14168   4.240  26.183  13.510
54875W        W14169  29.498  28.020  10.070
54876W        W14170   0.861  41.378  14.802
54877W        W14171  20.202   9.305  12.051
54878W        W14172   8.329  18.641   3.212
54879W        W14173   4.428  14.330   0.776
54880W        W14174  33.613  43.506   3.216
54881W        W14175   1.839   3.853   1.281
54882W        W14176  40.451  43.912  10.487
54883W        W14177  44.406  27.163  12.068
54884W        W14178  36.374   5.334   5.094
54885W        W14179  38.829  26.987  10.609
54886W        W14180  15.200   3.713  14.885
54887W        W14181  31.408  38.010  14.498
54888W        W14182  18.695  17.240  10.591
54889W        W14183  17.666  24.532  12.076
54890W        W14184  10.804   4.334   2.738
54891W        W14185  17.754  14.155   3.688
54892W        W14186  12.135  26.013  13.347
54893W        W14187   6.743  18.131  10.480
54894W        W14188   5.228  34.029  12.856
54895W        W14189  33.035  31.985  14.030
54896W        W14190  13.106  29.584  12.933
54897W        W14191  26.978   4.368  11.089
54898W        W14192  41.972  19.159  11.606
54899W        W14193  21.112  16.250  14.445
54900W        W14194  33.609  25.492   0.963
54901W        W14195  43.453  32.562   1.830
54902W        W14196  31.113  32.965   0.313
54903W        W14197  31.455  33.007  14.368
54904W        W14198  20.200  33.075   0.832
54905W        W14199  16.665  31.047  10.433
54906W        W14200  36.481  11.751  13.876
54907W        W14201  40.974  35.509   2.187
54908W        W14202  14.602  33.040   1.695
54909W        W14203  27.098  31.430   0.356
54910W        W14204  42.910  10.633   2.180
54911W        W14205  31.436  28.058   4.173
54912W        W14206  27.481   8.304  12.375
54913W        W14207  15.293  33.978  13.882
54914W        W14208  35.102  28.599   1.871
54915W        W14209  39.402  24.670  11.915
54916W        W14210  10.635  20.230   3.232
54917W        W14211  31.918  39.834   1.416
54918W        W14212  14.097  20.150   0.900
54919W        W14213  20.044  10.755  11.489
54920W        W14214  33.565  35.463   4.651
54921W        W14215   1.351  24.028   0.898
54922W        W14216  22.205   9.756   3.800
54923W        W14217  37.079  27.118  10.452
54924W        W14218  20.644  32.911   3.174
54925W        W14219   3.757  31.579   0.293
54926W        W14220  16.570   7.807  13.029
54927W        W14221  14.657  24.183  12.349
54928W        W14222  17.247   3.408   2.688
54929W        W14223  20.673  32.508   1.401
54930W        W14224  16.086  31.025   2.309
54931W        W14225  33.046   8.693  12.385
54932W        W14226   4.857  21.546  10.962
54933W        W14227   6.719  18.632  10.138
54934W        W14228   3.888   8.347  10.436
54935W        W14229  39.812  38.327  13.367
54936W        W14230  44.276  39.315  13.363
54937W        W14231   6.737   5.323   0.799
54938W        W14232  25.210  25.016  12.087
54939W        W14233   1.349  41.802  14.849
54940W        W14234   7.412  10.776  12.442
54941W        W14235  35.447  15.163   4.685
54942W        W14236  22.206   0.273   3.383
54943W        W14237  26.167  12.663   3.299
54944W        W14238  20.759  17.749   0.434
54945W        W14239  17.096  26.067  14.511
54946W        W14240   4.258   8.316  13.363
54947W        W14241  24.654  32.527  10.530
54948W        W14242  21.057  29.173   4.811
54949W        W14243   6.784  20.095  13.941
54950W        W14244  12.678  11.252  14.905
54951W        W14245  36.905  12.269   2.220
54952W        W14246  34.021  22.223  13.991
54953W        W14247   9.759  15.084  13.990
54954W        W14248   9.358  19.605   3.650
54955W        W14249  16.260  23.196  12.088
54956W        W14250  20.179   5.751   2.800
54957W        W14251  12.736   6.239   4.255
54958W        W14252   7.290  28.547   4.336
54959W        W14253  24.071  13.789  13.019
54960W        W14254  22.067  34.471  14.802
54961W        W14255  38.528  32.028   1.727
54962W        W14256   3.228  31.916   4.264
54963W        W14257  13.140  38.965   4.810
54964W        W14258  22.092  18.651  12.447
54965W        W14259  18.160  12.676   5.119
54966W        W14260  24.091  12.704  10.526
54967W        W14261  40.496  21.132   3.798
54968W        W14262  30.498   6.414   2.224
54969W        W14263   1.798  24.073   2.675
54970W        W14264  25.117  13.815  14.504
54971W        W14265  23.997  31.018  14.870
54972W        W14266  24.630  27.195  10.637
54973W        W14267  15.086  10.704  13.347
54974W        W14268  38.358  14.168  14.283
54975W        W14269  44.898   3.914   0.428
54976W        W14270  20.061   3.453  14.335
54977W        W14271  33.960  10.279   2.305
54978W        W14272  34.590  34.948  10.566
54979W        W14273   0.747  10.299  10.985
54980W        W14274  26.194   0.387  14.438
54981W        W14275  16.084  29.595   4.169
54982W        W14276  12.661  14.133   2.748
54983W        W14277  21.046  14.211   3.382
54984W        W14278  16.582  37.400  11.893
54985W        W14279  31.515   7.290   3.864
54986W        W14280   4.374   7.412   1.824
54987W        W14281  24.196  43.771  10.611
54988W        W14282  10.342  17.675   3.787
54989W        W14283  30.593  36.442  12.375
54990W        W14284  10.713  27.577   4.741
54991W        W14285  21.743  24.160  14.492
54992W        W14286  42.841  30.024   0.845
54993W        W14287  16.681   6.712   4.740
54994W        W14288  40.942  18.075  13.853
54995W        W14289   3.937  41.962   3.361
54996W        W14290  43.765  41.299  14.925
54997W        W14291  25.700  33.507   5.104
54998W        W14292  22.239  17.567   4.179
54999W        W14293  43.782   9.657  11.547
55000W        W14294  14.667  43.445   3.665
55001W        W14295   8.336  27.197  13.014
55002W        W14296  26.051  44.445   3.781
55003W        W14297  19.159  37.425   0.803
55004W        W14298  25.991   4.731   1.282
55005W        W14299  19.772  10.783  14.001
55006W        W14300  14.720  44.299  12.873
55007W        W14301  30.491   4.768  11.374
55008W        W14302  21.173  20.193  13.860
55009W        W14303  28.072  20.074   4.612
55010W        W14304  22.106  38.367   4.234
55011W        W14305  19.561  40.909   2.849
55012W        W14306  16.109   0.914  14.504
55013W        W14307  19.195  37.414   1.704
55014W        W14308   8.697   9.381  10.535
55015W        W14309  10.304  12.115  11.500
55016W        W14310   0.462   2.965  12.061
55017W        W14311  22.561  42.498   0.868
55018W        W14312  35.393  14.096  11.885
55019W        W14313  17.694   8.314  11.050
55020W        W14314   4.907  10.736   3.766
55021W        W14315   1.316  32.573   3.848
55022W        W14316  11.747  25.705  14.997
55023W        W14317  41.383   1.454  13.053
55024W        W14318   2.228  31.447   4.719
55025W        W14319   8.182  22.607  12.074
55026W        W14320  30.561  25.084   4.328
55027W        W14321  33.079  44.455  10.406
55028W        W14322  42.356  10.677   0.801
55029W        W14323  28.498  33.876  12.426
55030W        W14324  37.078   0.333  13.389
55031W        W14325  20.228  18.163   0.861
55032W        W14326  28.094  12.309   2.298
55033W        W14327  24.998  42.013   1.230
55034W        W14328   0.390  32.441  12.400
55035W        W14329   1.938  11.135   3.302
55036W        W14330   6.405  11.634  10.465
55037W        W14331  26.688  18.225  12.044
55038W        W14332  43.270  16.237   3.232
55039W        W14333  27.471   4.403  10.410
55040W        W14334   5.426  31.931   2.278
55041W        W14335   3.216   3.855   1.751
55042W        W14336  41.005  42.891  13.338
55043W        W14337  22.741  15.747   1.274
55044W        W14338   9.295  39.902  13.995
55045W        W14339  30.146  31.051  14.893
55046W        W14340  35.542  18.602  10.596
55047W        W14341  29.922  29.644  11.967
55048W        W14342  38.898   0.988  12.547
55049W        W14343   8.213  24.536   2.680
55050W        W14344  14.719  14.287  13.439
55051W        W14345  42.334  17.602  10.485
55052W        W14346  11.257  28.932  13.862
55053W        W14347  10.677  27.006   3.719
55054W        W14348   6.725  17.270  10.564
55055W        W14349   2.425  28.167  12.476
55056W        W14350   7.270  10.140  11.580
55057W        W14351  33.626  36.546  12.866
55058W        W14352  26.175   1.844  10.629
55059W        W14353  44.771  37.543   5.261
55060W        W14354   4.293   0.375  13.872
55061W        W14355  22.133   4.773   2.382
55062W        W14356  40.993  18.107   1.862
55063W        W14357  34.888   8.256  11.438
55064W        W14358   9.276  11.310   2.850
55065W        W14359  15.760  31.597  13.046
55066W        W14360   8.724  28.126  12.419
55067W        W14361   5.308  37.974  10.980
55068W        W14362   9.330  35.420   9.934
55069W        W14363  14.112   8.248  14.429
55070W        W14364  38.047   5.240   0.297
55071W        W14365  19.206  23.577   3.706
55072W        W14366  22.188  40.904  11.879
55073W        W14367  18.693  36.900   2.305
55074W        W14368  29.466  12.223  12.355
55075W        W14369  28.563   9.650  12.372
55076W        W14370   5.891  17.653  11.011
55077W        W14371   0.759  37.061  13.924
55078W        W14372  21.045  41.866  11.096
55079W        W14373  26.116   5.768  13.337
55080W        W14374  18.275   1.239   4.659
55081W        W14375  22.997  36.030  12.926
55082W        W14376  39.824   6.194   1.898
55083W        W14377  21.669  25.154  14.947
55084W        W14378  41.805   6.383  14.338
55085W        W14379  18.617   4.886  10.928
55086W        W14380  21.182  20.207   1.297
55087W        W14381  44.341  20.674   1.737
55088W        W14382  32.914  10.634  13.334
55089W        W14383  33.952  14.185  13.501
55090W        W14384  42.422   3.260   1.890
55091W        W14385  28.960  43.779   1.933
55092W        W14386  44.782  36.587   2.297
55093W        W14387  39.464  43.883   0.838
55094W        W14388  30.984  23.622  12.391
55095W        W14389   3.908  30.986  12.440
55096W        W14390  36.878   3.390  13.952
55097W        W14391  24.620  28.498  11.041
55098W        W14392  44.477  29.951  11.858
55099W        W14393  42.430  15.640   0.770
55100W        W14394   0.959  42.788  12.519
55101W        W14395  40.021   7.346  14.390
55102W        W14396  37.432  32.559   2.355
55103W        W14397  32.923   7.286   3.852
55104W        W14398  25.188  34.483  14.465
55105W        W14399   8.246  36.986   1.924
55106W        W14400  13.108  19.720   1.870
55107W        W14401  15.628  13.767   5.123
55108W        W14402  35.879  41.420  14.824
55109W        W14403  22.682  38.381  14.933
55110W        W14404   9.308  36.552   4.630
55111W        W14405  31.615  35.912  14.920
55112W        W14406  37.019   9.749   3.385
55113W        W14407   6.919  24.641  14.859
55114W        W14408  21.670   8.870  11.476
55115W        W14409  42.477  25.496  11.969
55116W        W14410   7.274   3.751   4.285
55117W        W14411   6.329   6.375  12.888
55118W        W14412   2.929  28.547   0.785
55119W        W14413  14.230   5.258  10.437
55120W        W14414   7.179  35.444   2.857
55121W        W14415  39.892  18.058   3.199
55122W        W14416   9.190  22.017   3.850
55123W        W14417  26.150   0.758  13.966
55124W        W14418   6.416   1.248   5.626
55125W        W14419  26.135  30.643  12.475
55126W        W14420   2.808  29.623   1.254
55127W        W14421  17.585   6.408   4.235
55128W        W14422  24.581  16.734   1.316
55129W        W14423  34.877  31.901  11.451
55130W        W14424  16.755   2.229   1.903
55131W        W14425  20.230  22.124   3.792
55132W        W14426  40.448   0.270   4.298
55133W        W14427  39.401  31.104  14.466
55134W        W14428  14.674  27.516  14.281
55135W        W14429  28.502  44.331  12.900
55136W        W14430  10.257  26.000  13.478
55137W        W14431  18.726  21.737   5.308
55138W        W14432   2.956  42.890  11.040
55139W        W14433  20.580  41.331  12.076
55140W        W14434  14.624   8.709  10.106
55141W        W14435   0.467   2.908   0.794
55142W        W14436  39.396  30.595   4.688
55143W        W14437  17.653  29.039  12.451
55144W        W14438   4.334  38.904  12.398
55145W        W14439  43.408   4.262   2.298
55146W        W14440  26.080  10.163   2.734
55147W        W14441  37.438  13.825  10.960
55148W        W14442   5.853  37.904  14.765
55149W        W14443  11.852  20.557   4.300
55150W        W14444  44.950  16.115   3.678
55151W        W14445  37.926   4.823   2.399
55152W        W14446  30.164  19.699   4.754
55153W        W14447   4.823  39.356   0.964
55154W        W14448   4.297  35.016   0.405
55155W        W14449  27.064  23.023  12.881
55156W        W14450  34.600  32.614   4.712
55157W        W14451  31.973   5.849  13.354
55158W        W14452   6.248  15.668   0.817
55159W        W14453  33.409  26.951   2.276
55160W        W14454  39.412  23.519   2.192
55161W        W14455  18.231  28.152  10.907
55162W        W14456  13.288  19.088  11.115
55163W        W14457  39.860  30.079  12.950
55164W        W14458  17.696  23.607   5.171
55165W        W14459  17.622  17.745  12.400
55166W        W14460  29.097  42.358   1.794
55167W        W14461  12.806   3.379  12.482
55168W        W14462  43.802   8.858  12.865
55169W        W14463  24.581  17.592   0.452
55170W        W14464   1.479  34.991  10.414
55171W        W14465  39.327  35.371   9.442
55172W        W14466   7.312   1.383   4.200
55173W        W14467  42.414  19.584  11.006
55174W        W14468  38.427   0.898  11.572
55175W        W14469  39.974  15.217   4.709
55176W        W14470  16.799  28.063  12.897
55177W        W14471  26.965  33.910  10.643
55178W        W14472  44.364   4.827  13.379
55179W        W14473  13.190  12.629   3.792
55180W        W14474   8.865  17.791   2.677
55181W        W14475  27.951   1.798   3.759
55182W        W14476  15.103  25.972  13.408
55183W        W14477   6.207  26.486   2.327
55184W        W14478   7.775  15.756   0.833
55185W        W14479  35.428   1.852   3.798
55186W        W14480  40.358  14.320  13.541
55187W        W14481  30.592   7.262   1.931
55188W        W14482   5.880  35.035  10.937
55189W        W14483  22.601  41.486   4.632
55190W        W14484  17.634  41.807  13.390
55191W        W14485  27.169  20.614  13.932
55192W        W14486  26.957  19.546   2.269
55193W        W14487  25.210  36.436   4.256
55194W        W14488  23.673  16.196   3.794
55195W        W14489  17.305  20.194   4.173
55196W        W14490  32.935  17.173  11.456
55197W        W14491  28.516  17.764  13.888
55198W        W14492  17.601  42.797  10.550
55199W        W14493  36.399  20.601  12.435
55200W        W14494  39.535  11.722  12.551
55201W        W14495  11.211   1.253  14.997
55202W        W14496  44.267  44.863   3.224
55203W        W14497   6.798  22.739  14.447
55204W        W14498  28.640   5.931   2.803
55205W        W14499  30.003  24.181  14.917
55206W        W14500  22.095  17.744   0.383
55207W        W14501   0.444   7.215  11.042
55208W        W14502  40.931  16.227   3.863
55209W        W14503  21.618   2.241  11.062
55210W        W14504  12.826  24.166  14.310
55211W        W14505  38.927  37.428  11.523
55212W        W14506  39.403  27.092   0.863
55213W        W14507   7.836  43.315   4.823
55214W        W14508   1.784   8.817  13.520
55215W        W14509  15.809  25.176   4.242
55216W        W14510  39.512  14.692   2.394
55217W        W14511  42.913  30.077  13.011
55218W        W14512  12.278   4.266   4.720
55219W        W14513  12.270  40.540   3.348
55220W        W14514   5.771  16.590   1.307
55221W        W14515  37.505  24.671   0.877
55222W        W14516  17.264  16.249   2.883
55223W        W14517  36.536  17.584   0.436
55224W        W14518  41.335  37.405  12.440
55225W        W14519  21.586  42.390  14.346
55226W        W14520  10.301   9.270  10.581
55227W        W14521  43.771  17.303   4.821
55228W        W14522  22.184  14.691   1.746
55229W        W14523  35.360   1.282   4.649
55230W        W14524  34.379  39.398   3.239
55231W        W14525  10.138  40.441   0.868
55232W        W14526  13.276  20.177   4.147
55233W        W14527  22.520  23.015   3.832
55234W        W14528  36.015  22.240  12.572
55235W        W14529  34.577  29.150   0.914
55236W        W14530   7.242  22.018  14.789
55237W        W14531  40.308   9.878   2.200
55238W        W14532  19.042  20.641   5.165
55239W        W14533  38.828   7.750   1.859
55240W        W14534  39.880  28.095  14.953
55241W        W14535  12.314  13.823  12.981
55242W        W14536  41.906  27.072  11.398
55243W        W14537  42.308   2.757  13.028
55244W        W14538   0.821  12.717   4.315
55245W        W14539  24.067   5.805  14.866
55246W        W14540  29.106  44.757  14.911
55247W        W14541  36.876  30.539  12.050
55248W        W14542  24.669  18.770  11.962
55249W        W14543   7.313   7.849   2.297
55250W        W14544  36.376  27.994  13.429
55251W        W14545  16.683  11.216   9.541
55252W        W14546  21.233  39.019  12.358
55253W        W14547  20.220  33.486  11.437
55254W        W14548  28.543  17.183  13.467
55255W        W14549   7.190  11.776  11.062
55256W        W14550   6.394  26.542  14.776
55257W        W14551  41.329  12.725   4.292
55258W        W14552  14.732  35.858   1.737
55259W        W14553  29.450  14.630   2.250
55260W        W14554  12.207  15.310   1.797
55261W        W14555   7.873  19.054   4.256
55262W        W14556  21.541  31.534  12.964
55263W        W14557  10.710   3.317  13.971
55264W        W14558  39.887  15.628   4.198
55265W        W14559   4.881  12.836   3.748
55266W        W14560   1.465  11.143  13.899
55267W        W14561   0.894  36.361  11.535
55268W        W14562   6.220  40.009   1.924
55269W        W14563  32.487  11.193  12.088
55270W        W14564  12.259   9.805   4.721
55271W        W14565  19.224   0.831  13.452
55272W        W14566  34.891  21.664  14.454
55273W        W14567  27.093  24.095   1.720
55274W        W14568  10.782  10.702  14.378
55275W        W14569  38.877  24.651   1.387
55276W        W14570  28.955   1.480   1.300
55277W        W14571  10.637  13.779  14.513
55278W        W14572  24.707  24.579   2.191
55279W        W14573   6.218  12.332   2.799
55280W        W14574  30.515   1.426  11.471
55281W        W14575   1.287  40.359  13.851
55282W        W14576  11.756  11.360   4.292
55283W        W14577   5.411  13.674  12.496
55284W        W14578  12.770  15.173   0.285
55285W        W14579  35.397   0.883  14.846
55286W        W14580  33.540  15.263   0.384
55287W        W14581  17.151   7.331  11.884
55288W        W14582  37.963  16.769  14.884
55289W        W14583   7.326  38.359   2.852
55290W        W14584  36.086  44.443  10.609
55291W        W14585   4.370  13.173  12.454
55292W        W14586  33.024  22.543   0.943
55293W        W14587   9.867  28.020   9.997
55294W        W14588  33.491  32.973  11.000
55295W        W14589  35.039  31.977   5.284
55296W        W14590   6.328  25.045  12.875
55297W        W14591   7.359   7.196  13.947
55298W        W14592  13.349  32.049   3.240
55299W        W14593  44.272  14.795   4.742
55300W        W14594  33.033   9.819   5.763
55301W        W14595  13.609   9.252   0.265
55302W        W14596  35.438  27.678   2.297
55303W        W14597   9.755  33.034  14.936
55304W        W14598  15.271  25.999  10.943
55305W        W14599  40.305  44.402  14.918
55306W        W14600   9.723  34.866  12.374
55307W        W14601  16.284  18.781   5.609
55308W        W14602  22.106  24.101   1.385
55309W        W14603   8.257  23.202   1.340
55310W        W14604  19.747  30.020   3.290
55311W        W14605   2.893   5.401   0.420
55312W        W14606   6.770   8.400  13.891
55313W        W14607  24.172  16.269   2.307
55314W        W14608  28.583  19.080  12.344
55315W        W14609  28.436  41.343  11.549
55316W        W14610  34.045  17.290  12.883
55317W        W14611  25.103   2.293   1.727
55318W        W14612  34.440   3.793  12.487
55319W        W14613  25.186   7.767   9.525
55320W        W14614  25.044  21.261   4.765
55321W        W14615  41.335  38.483  14.763
55322W        W14616  44.820  35.452   0.412
55323W        W14617   1.313  18.664  10.495
55324W        W14618  12.296  24.019  14.821
55325W        W14619  20.754  40.020  13.945
55326W        W14620  30.049   0.936  13.928
55327W        W14621  37.922   9.206   0.441
55328W        W14622  30.939  28.070   0.746
55329W        W14623   5.415   3.898   2.778
55330W        W14624  16.711   1.451   2.362
55331W        W14625   7.202  12.636  14.000
55332W        W14626   4.367  34.017  12.934
55333W        W14627   8.181  34.370   2.746
55334W        W14628   5.395   8.172  14.332
55335W        W14629  43.938  41.983   4.116
55336W        W14630  37.571  28.132  11.567
55337W        W14631  23.601  25.194   4.260
55338W        W14632   5.253  20.196   0.332
55339W        W14633   5.887  22.598  10.945
55340W        W14634  15.731  32.413  11.997
55341W        W14635  19.083  13.724   0.966
55342W        W14636  28.609   4.449  14.486
55343W        W14637  34.445  42.848   0.377
55344W        W14638  41.429  21.094   0.472
55345W        W14639  14.736  12.722   1.396
55346W        W14640  42.359  12.120  10.591
55347W        W14641  25.071   7.279  11.960
55348W        W14642  37.930   2.818   3.252
55349W        W14643   9.649   3.945  14.447
55350W        W14644   8.681   3.426  11.007
55351W        W14645   1.878  32.528  14.848
55352W        W14646   7.288   1.939   0.453
55353W        W14647  38.498  11.237  13.890
55354W        W14648  41.843  13.211  12.552
55355W        W14649  35.093  16.224  10.951
55356W        W14650  20.536  29.948  10.557
55357W        W14651  19.571  12.323  13.056
55358W        W14652  18.057  36.043  12.991
55359W        W14653  38.513   3.905   1.868
55360W        W14654   6.839   9.381   0.425
55361W        W14655  13.139  21.596  12.946
55362W        W14656  26.640  35.855   2.323
55363W        W14657  27.989  12.652  10.978
55364W        W14658  16.285   8.227   2.830
55365W        W14659  14.325  42.316  12.972
55366W        W14660   1.820  41.896   3.647
55367W        W14661   5.873  42.326  11.939
55368W        W14662  14.285  33.489  14.865
55369W        W14663  10.704  36.573  13.921
55370W        W14664  40.799  28.676  14.894
55371W        W14665  26.465  11.268   1.405
55372W        W14666  12.793   3.760  13.467
55373W        W14667  34.931  27.542   1.806
55374W        W14668  31.520  19.742   0.287
55375W        W14669  40.912  32.893   0.770
55376W        W14670  29.570  29.662   4.813
55377W        W14671  33.417   3.250  13.056
55378W        W14672  35.582  10.865  10.062
55379W        W14673  24.655  24.103  12.046
55380W        W14674   2.397  41.486   3.225
55381W        W14675  18.734  35.471   3.842
55382W        W14676  15.738  27.065   0.361
55383W        W14677  29.961  44.439  11.126
55384W        W14678   1.266   2.832  11.084
55385W        W14679  28.637   5.823  11.981
55386W        W14680  31.095  24.491  11.031
55387W        W14681  43.380  28.643   0.317
55388W        W14682  26.663  19.099  14.424
55389W        W14683   9.819  33.875  14.296
55390W        W14684  17.564  31.594  14.009
55391W        W14685  12.141  14.204   3.157
55392W        W14686  24.546  18.559   2.381
55393W        W14687   3.297  16.313   2.693
55394W        W14688  23.690  23.187   0.888
55395W        W14689  33.058  42.400   3.365
55396W        W14690   2.937  12.763   4.630
55397W        W14691   6.795  20.057  11.449
55398W        W14692  24.483  13.188  13.047
55399W        W14693   2.958  30.146  14.976
55400W        W14694  33.392  42.493  13.904
55401W        W14695  14.267  14.200  10.931
55402W        W14696  19.181  38.911  10.510
55403W        W14697   1.829  38.859   1.272
55404W        W14698  40.935  19.052   0.812
55405W        W14699  26.036  11.243   4.314
55406W        W14700  38.327  13.306  11.111
55407W        W14701   4.323   6.275   3.193
55408W        W14702  41.885  32.501   1.270
55409W        W14703  24.608  12.761   3.352
55410W        W14704  43.316  16.760   9.962
55411W        W14705  31.961  11.235   3.725
55412W        W14706  35.868  19.197  11.401
55413W        W14707   8.328  30.413  12.947
55414W        W14708  29.570  15.713  10.445
55415W        W14709  22.703  38.836  13.480
55416W        W14710  37.912  23.131   0.255
55417W        W14711   0.918   0.843   2.220
55418W        W14712  30.483   8.316   2.887
55419W        W14713  25.189  34.105  11.930
55420W        W14714  21.569   1.336   1.326
55421W        W14715   5.418  36.053   3.860
55422W        W14716  34.975   2.811   3.808
55423W        W14717  10.781  12.825  10.582
55424W        W14718  39.060  26.200   2.193
55425W        W14719  44.908   3.894  13.979
55426W        W14720  40.999  24.121   3.802
55427W        W14721  20.183  34.059  11.096
55428W        W14722   8.379   9.704   1.858
55429W        W14723   0.944  42.875  11.494
55430W        W14724  35.390  16.315  11.036
55431W        W14725  12.299  15.774   1.395
55432W        W14726  22.574  23.085   4.818
55433W        W14727  43.946  12.136   2.266
55434W        W14728  25.470  22.572   1.385
55435W        W14729  43.368  42.004   2.306
55436W        W14730  29.048   0.856  10.631
55437W        W14731  42.894  37.958   0.893
55438W        W14732  21.182  28.107  14.840
55439W        W14733  32.517  32.947   3.734
55440W        W14734  31.960   5.405  11.916
55441W        W14735   7.303  15.671  10.450
55442W        W14736  33.448   2.877  10.965
55443W        W14737  38.996  27.575   0.394
55444W        W14738  44.915  12.618   4.650
55445W        W14739  16.740   1.277   0.251
55446W        W14740   8.386  26.048   1.750
55447W        W14741   6.202  18.723  10.404
55448W        W14742  11.819  43.793   1.441
55449W        W14743  39.022   5.824  13.486
55450W        W14744  29.979  39.394   0.952
55451W        W14745  32.139  23.603   1.300
55452W        W14746  14.789  25.631   3.349
55453W        W14747  26.079  38.332   2.336
55454W        W14748   2.375  11.190   2.763
55455W        W14749  16.748  29.108   2.257
55456W        W14750   1.856  14.274   0.803
55457W        W14751  12.740  26.953  14.928
55458W        W14752  11.745  25.045   2.739
55459W        W14753  21.745  22.213  11.466
55460W        W14754   4.822  32.538  12.027
55461W        W14755  10.232  22.578   0.879
55462W        W14756  20.219  26.467   4.634
55463W        W14757  33.442  29.468  12.910
55464W        W14758  26.172  15.324  14.856
55465W        W14759  34.007   5.331  11.434
55466W        W14760  24.989  38.425  12.577
55467W        W14761  41.890  28.604  13.015
55468W        W14762  10.690   6.256   4.804
55469W        W14763   8.348  14.310  11.899
55470W        W14764  18.582  27.143   4.706
55471W        W14765  22.188  14.228  12.352
55472W        W14766   6.912   0.747   0.263
55473W        W14767  30.521  30.609  10.594
55474W        W14768   0.260  20.196  14.422
55475W        W14769   0.389  12.712  13.377
55476W        W14770  20.196  22.160   9.546
55477W        W14771   5.262  41.440  10.457
55478W        W14772   7.179  34.071   2.669
55479W        W14773  27.995  11.355   2.325
55480W        W14774  19.092  43.877   2.783
55481W        W14775  44.002  27.613  14.285
55482W        W14776  32.919  43.001   1.213
55483W        W14777   2.343  24.685  12.078
55484W        W14778   6.258  26.145   1.892
55485W        W14779  31.580   3.355   1.416
55486W        W14780  29.626  40.849   1.874
55487W        W14781  37.881  18.617   3.170
55488W        W14782  41.884   7.908  10.541
55489W        W14783  28.066  31.515   0.473
55490W        W14784  11.675  10.776  14.006
55491W        W14785   6.321  29.590   2.845
55492W        W14786  42.441  39.011  11.912
55493W        W14787  21.531  28.510  11.019
55494W        W14788  31.498  33.951   1.303
55495W        W14789  37.473   0.762   3.177
55496W        W14790  21.233  39.333  13.826
55497W        W14791  36.459   9.835   0.303
55498W        W14792  39.823  10.747  13.945
55499W        W14793  27.136  20.755   3.803
55500W        W14794  42.445  28.491  13.935
55501W        W14795  33.496  28.987   0.814
55502W        W14796   9.334   7.269   4.781
55503W        W14797  14.102  38.535   4.824
55504W        W14798  27.467  21.175   0.425
55505W        W14799  42.861  41.435  12.913
55506W        W14800  19.145  26.554   1.782
55507W        W14801  10.294  27.578  12.878
55508W        W14802  30.488  20.704   3.734
55509W        W14803   3.758  21.213  13.364
55510W        W14804  39.450  35.029   1.709
55511W        W14805  32.079  41.537   3.329
55512W        W14806  27.662  40.545   0.293
55513W        W14807  40.481  15.286   4.765
55514W        W14808  41.005  41.296   0.433
55515W        W14809  23.134  41.901  10.410
55516W        W14810   3.794  42.409  13.947
55517W        W14811  26.501   6.374   0.806
55518W        W14812   4.321   2.366   1.273
55519W        W14813   1.323  25.102  12.433
55520W        W14814  41.990   6.752  14.335
55521W        W14815  34.962  11.820  14.386
55522W        W14816  14.183  40.916  12.549
55523W        W14817  37.885  33.503  10.561
55524W        W14818  39.437  23.564  12.348
55525W        W14819  17.746  24.493   4.305
55526W        W14820  30.598   2.231   0.776
55527W        W14821  20.599  33.028   4.611
55528W        W14822  19.619  19.051  13.797
55529W        W14823  20.593  36.869  14.369
55530W        W14824  37.044  43.333   0.437
55531W        W14825   7.354   2.891  13.486
55532W        W14826  17.562  39.912  13.501
55533W        W14827  14.179  17.596  12.051
55534W        W14828   7.751   3.852   3.346
55535W        W14829   1.377  29.088  10.981
55536W        W14830  42.425  28.606   2.207
55537W        W14831   4.321  40.016  13.819
55538W        W14832   4.425  11.142   4.242
55539W        W14833   1.734  41.023  10.445
55540W        W14834  14.640  44.827  12.535
55541W        W14835  12.775  25.992  12.989
55542W        W14836  20.656  39.811   4.175
55543W        W14837  20.585  21.018   5.264
55544W        W14838   1.265  24.983   4.267
55545W        W14839  32.104  38.040   0.293
55546W        W14840   0.391  21.577  14.370
55547W        W14841   3.897  11.304  13.348
55548W        W14842  42.519  23.220  11.890
55549W        W14843   3.339  16.297   4.138
55550W        W14844   9.359  33.114  11.036
55551W        W14845  41.809  11.291   4.257
55552W        W14846   3.875  17.645  12.005
55553W        W14847  16.186  40.465   3.653
55554W        W14848  25.694  38.473   4.327
55555W        W14849   5.382  35.852  12.366
55556W        W14850  20.652   8.659   4.136
55557W        W14851   1.855  13.315   3.639
55558W        W14852   1.444   5.800   1.429
55559W        W14853  40.992  30.614   2.205
55560W        W14854  41.473  28.024  13.314
55561W        W14855   3.391  25.159   0.827
55562W        W14856  42.005  11.639   1.743
55563W        W14857  40.027  39.447  13.930
55564W        W14858  36.932   5.829   4.620
55565W        W14859  43.451   1.467  14.832
55566W        W14860  11.850  16.152   3.680
55567W        W14861  23.114  15.684  13.038
55568W        W14862  38.850  25.067  13.384
55569W        W14863  31.581  14.321  14.768
55570W        W14864  33.969  18.052   4.338
55571W        W14865  23.054  42.980  14.908
55572W        W14866  28.525   9.663   0.303
55573W        W14867  37.954   9.849   2.192
55574W        W14868  20.181   4.439  12.960
55575W        W14869  13.121  37.376   4.659
55576W        W14870  33.438  33.978   2.371
55577W        W14871  16.110  22.568   3.745
55578W        W14872  34.439  25.111  14.426
55579W        W14873  13.821  27.586   4.674
55580W        W14874  16.651   0.344   1.769
55581W        W14875  27.074  43.865   0.429
55582W        W14876  19.671  27.654   2.181
55583W        W14877  31.999  38.924   1.744
55584W        W14878  38.990  24.649   3.319
55585W        W14879  35.551  38.885  13.375
55586W        W14880  27.986  10.743  11.535
55587W        W14881   3.835  29.445  14.003
55588W        W14882  43.461   6.711  14.927
55589W        W14883  31.561  28.035  14.344
55590W        W14884  12.205  41.791  11.567
55591W        W14885  30.033  38.024   1.805
55592W        W14886   8.696  11.715  12.405
55593W        W14887  16.588  18.614  14.767
55594W        W14888  17.247  41.414   3.707
55595W        W14889  22.068  34.902   1.255
55596W        W14890  29.466  23.554  14.920
55597W        W14891  11.252  23.183  13.961
55598W        W14892   0.422   6.773  10.556
55599W        W14893  34.471   8.752   3.352
55600W        W14894  37.345  19.173  13.871
55601W        W14895  23.570  41.325  11.952
55602W        W14896  22.206  22.514   2.185
55603W        W14897  32.575   8.752  10.638
55604W        W14898  15.673  25.983  12.482
55605W        W14899  23.169  44.946  14.301
55606W        W14900  40.337   8.864  10.590
55607W        W14901  12.856  39.950   0.398
55608W        W14902  10.235  25.628   1.376
55609W        W14903  30.448  36.373  13.059
55610W        W14904   3.727  37.450  11.476
55611W        W14905  29.448  27.502  12.055
55612W        W14906   7.296  40.474   3.720
55613W        W14907  38.052  15.126  13.374
55614W        W14908  36.356  36.535   3.860
55615W        W14909  30.022  42.877   2.825
55616W        W14910  20.042  35.404   4.790
55617W        W14911  17.227  40.846  10.426
55618W        W14912   2.825   7.787   4.282
55619W        W14913   9.715  18.238   3.246
55620W        W14914  39.501  22.634   4.700
55621W        W14915   2.910  44.372   3.368
55622W        W14916  18.069   6.358  10.588
55623W        W14917  35.885  36.884  13.906
55624W        W14918  14.649  37.938  14.344
55625W        W14919  32.130   4.828   0.893
55626W        W14920  39.864  29.984  13.933
55627W        W14921  17.711   3.285  13.828
55628W        W14922   9.824   4.426   0.959
55629W        W14923  35.044  44.422   2.189
55630W        W14924  37.347  18.057  12.899
55631W        W14925  23.041  20.757  12.404
55632W        W14926  30.614  32.392  11.987
55633W        W14927  26.052  36.979   4.776
55634W        W14928  39.407  30.524   1.380
55635W        W14929   8.291  31.072   2.345
55636W        W14930  22.614  28.073   3.301
55637W        W14931  41.019  42.805   2.838
55638W        W14932   6.764  19.230   9.963
55639W        W14933  13.604   7.722   4.688
55640W        W14934  38.023   7.900   3.357
55641W        W14935  33.429  12.293  11.437
55642W        W14936   8.174  14.105   4.196
55643W        W14937  36.476  23.086  12.456
55644W        W14938   4.400   3.735   0.474
55645W        W14939   4.248   6.769  10.617
55646W        W14940   0.893  11.281   3.790
55647W        W14941   3.375  22.237  13.368
55648W        W14942  11.193   9.153  12.088
55649W        W14943  15.803  41.487   3.829
55650W        W14944   6.831   7.285   2.229
55651W        W14945   8.317  39.525  14.830
55652W        W14946  23.202   1.812   1.909
55653W        W14947  17.277  35.436   0.835
55654W        W14948  26.987  18.653   3.358
55655W        W14949  15.787  42.009   0.765
55656W        W14950  13.668   5.897   1.851
55657W        W14951   2.776  41.892  14.811
55658W        W14952  38.044  10.678   3.375
55659W        W14953  36.086  41.382  10.944
55660W        W14954   8.657  34.028   4.115
55661W        W14955  11.774  35.955  12.857
55662W        W14956  20.152  13.663   1.779
55663W        W14957  11.256  27.163  12.385
55664W        W14958  28.108  40.892   2.235
55665W        W14959   8.319  33.955   1.411
55666W        W14960   9.212  15.643  10.546
55667W        W14961  12.338  23.686  12.978
55668W        W14962  29.488  34.901   0.424
55669W        W14963  13.612  33.388   0.362
55670W        W14964  43.437  15.121   3.239
55671W        W14965  26.996  26.193   1.380
55672W        W14966  34.550  18.719   4.797
55673W        W14967  40.380  17.690   2.873
55674W        W14968  23.527  31.536  14.291
55675W        W14969   4.228  15.723   3.815
55676W        W14970   4.784   4.280   0.457
55677W        W14971  30.140  10.273   4.624
55678W        W14972  14.814  44.789  14.896
55679W        W14973  32.569   9.824   1.758
55680W        W14974  44.311   4.429   2.750
55681W        W14975   8.167  20.589  14.332
55682W        W14976  38.440  14.326   2.665
55683W        W14977  29.099  34.003   3.385
55684W        W14978  38.047   7.306   0.292
55685W        W14979  41.835   1.773  10.594
55686W        W14980  11.276   3.860  14.419
55687W        W14981   4.351   4.341  13.416
55688W        W14982  28.555  13.198  12.457
55689W        W14983  18.146  44.873   2.368
55690W        W14984  35.588  31.010  11.556
55691W        W14985   2.467  22.175   0.808
55692W        W14986  39.821  11.700  11.929
55693W        W14987  22.069  43.324  10.580
55694W        W14988  22.711  27.671   1.921
55695W        W14989  16.157  25.706   4.327
55696W        W14990  23.617  33.557  11.613
55697W        W14991   7.797  23.572  11.486
55698W        W14992  12.127  36.537   2.808
55699W        W14993  26.207  21.511   2.793
55700W        W14994   9.291  23.721  12.866
55701W        W14995  32.991  20.111   3.267
55702W        W14996  18.054  43.504  12.355
55703W        W14997  34.453  41.791   0.350
55704W        W14998  39.556   1.908  13.831
55705W        W14999  27.148  23.631  11.904
55706W        W15000  31.634  22.571  12.400
55707W        W15001  27.579  33.889  14.893
55708W        W15002   9.271  27.469   3.171
55709W        W15003   5.403  40.512  13.815
55710W        W15004  17.666  12.703   1.811
55711W        W15005  28.055  28.547  13.314
55712W        W15006  14.164  34.511  14.991
55713W        W15007  25.074  30.940   1.360
55714W        W15008  11.859  44.403   0.886
55715W        W15009  21.732  38.462  12.977
55716W        W15010   2.271  17.138   4.134
55717W        W15011  30.594  17.624   3.757
55718W        W15012  42.402  14.191   0.370
55719W        W15013  12.303  13.319   0.781
55720W        W15014  22.715  17.214  14.447
55721W        W15015  19.749  38.381  12.390
55722W        W15016  30.023  11.272  13.877
55723W        W15017  23.557  18.777   4.613
55724W        W15018  35.026  25.971  14.881
55725W        W15019  16.740  32.617   1.411
55726W        W15020  27.164  14.676  13.853
55727W        W15021  29.594   8.847   4.652
55728W        W15022  44.998  34.492   2.804
55729W        W15023  25.120  12.230   9.660
55730W        W15024   7.358  27.477  11.575
55731W        W15025  20.576  28.170  14.787
55732W        W15026  26.139  44.265  10.456
55733W        W15027  41.956  38.848  12.546
55734W        W15028  35.534  19.730   4.741
55735W        W15029  21.034   5.424   4.756
55736W        W15030  11.863  38.853  10.469
55737W        W15031  12.728  12.158  10.978
55738W        W15032  17.282  16.647  12.492
55739W        W15033  12.791  41.900   2.736
55740W        W15034  32.985  32.923  13.449
55741W        W15035  18.087  17.161  12.384
55742W        W15036  33.617   2.827   0.786
55743W        W15037  13.787  30.651   2.305
55744W        W15038   4.841  32.122   1.376
55745W        W15039  34.381  17.743  11.044
55746W        W15040  18.717  21.223  10.536
55747W        W15041   4.212  12.134  10.920
55748W        W15042  14.340   2.924   4.824
55749W        W15043  18.225  31.901  10.911
55750W        W15044   7.838  24.542  13.329
55751W        W15045  13.744   8.677   3.346
55752W        W15046  22.711  20.736   2.197
55753W        W15047  42.991   8.872   3.351
55754W        W15048   7.386  33.953   4.173
55755W        W15049  42.859  27.667  13.047
55756W        W15050  18.160  36.060  12.390
55757W        W15051  32.904  23.091  12.860
55758W        W15052  42.003   4.426  12.570
55759W        W15053  32.121   5.751   9.982
55760W        W15054  11.264   1.250  12.999
55761W        W15055  31.918  36.859  11.067
55762W        W15056  37.446  14.605  12.411
55763W        W15057  14.187  14.596  14.513
55764W        W15058  26.166  27.189  13.421
55765W        W15059  18.592  28.968   2.750
55766W        W15060   8.195  14.251  13.004
55767W        W15061  18.175   2.279   2.262
55768W        W15062  26.191  17.140   4.157
55769W        W15063  28.157  39.965  14.284
55770W        W15064  32.630  20.148   2.196
55771W        W15065  32.428  27.606  10.571
55772W        W15066  42.417  31.412  11.048
55773W        W15067  32.521  34.863   3.360
55774W        W15068  41.455  10.730   2.204
55775W        W15069   4.406  29.601  13.847
55776W        W15070  11.230  22.136  10.436
55777W        W15071  17.270  18.639  10.582
55778W        W15072  17.702  29.999  14.808
55779W        W15073  31.011  29.966  13.949
55780W        W15074  19.564  34.374  10.462
55781W        W15075  21.755  11.772  11.447
55782W        W15076  37.386  23.998   1.447
55783W        W15077  36.396  22.706  14.906
55784W        W15078  18.221  43.274   4.190
55785W        W15079  14.784   8.324   0.446
55786W        W15080  40.858  10.687  11.421
55787W        W15081   3.330  18.642   0.816
55788W        W15082  26.703  20.675  12.515
55789W        W15083  42.948  15.720   4.239
55790W        W15084   8.689  18.616   0.287
55791W        W15085  28.041  31.032   0.857
55792W        W15086   9.305   5.319   2.326
55793W        W15087  30.644  23.689   9.923
55794W        W15088   6.793   2.789  12.432
55795W        W15089  32.415  14.096   4.754
55796W        W15090   6.202   4.937  13.502
55797W        W15091  33.109  23.592  12.002
55798W        W15092   8.752  32.535   0.910
55799W        W15093   3.392  29.078   4.706
55800W        W15094   8.834  12.827  12.573
55801W        W15095   8.270  37.012   3.755
55802W        W15096  22.200  40.956   4.144
55803W        W15097   7.218  17.137  14.827
55804W        W15098  30.559  40.943   1.257
55805W        W15099   6.904   6.262  10.989
55806W        W15100  24.542  21.625   3.832
55807W        W15101   4.341  28.047   1.734
55808W        W15102  42.410  13.780  12.542
55809W        W15103  42.819  19.243   1.893
55810W        W15104  19.699  22.040   4.168
55811W        W15105  43.924  27.942  13.924
55812W        W15106   9.330  30.521  13.512
55813W        W15107  40.859   5.821  11.904
55814W        W15108   8.687  29.099  12.085
55815W        W15109   6.302  20.700   4.692
55816W        W15110  29.918  20.120  12.364
55817W        W15111  24.025   8.881  11.902
55818W        W15112  43.794  23.100   0.442
55819W        W15113  30.459  20.032  13.376
55820W        W15114  31.016   5.416  11.054
55821W        W15115  25.640  24.222  14.970
55822W        W15116   1.456  18.221  14.477
55823W        W15117  42.368  41.822  13.473
55824W        W15118  42.962  31.150  10.547
55825W        W15119  34.508  40.903   1.364
55826W        W15120  31.922  35.979   1.257
55827W        W15121  16.632   8.839   1.406
55828W        W15122  12.722  23.550  11.574
55829W        W15123  39.036   9.800   9.983
55830W        W15124   6.235  40.382   0.766
55831W        W15125  29.549  36.404   2.775
55832W        W15126   4.722  40.013  14.020
55833W        W15127  40.000  24.183  12.898
55834W        W15128   6.732  16.217  14.820
55835W        W15129  33.566  25.164  10.095
55836W        W15130  25.595  32.004  12.877
55837W        W15131  17.800  17.069  12.085
55838W        W15132  27.671   6.244  13.927
55839W        W15133  44.988  18.766   0.849
55840W        W15134  39.478  12.810   1.376
55841W        W15135  36.891  17.696  12.074
55842W        W15136  36.900   2.296   2.685
55843W        W15137   0.270  18.293   3.219
55844W        W15138  19.136  22.558   1.814
55845W        W15139  38.350  39.931   4.760
55846W        W15140  41.360   1.950   4.246
55847W        W15141  36.955  17.128   0.293
55848W        W15142  39.927  43.004   5.284
55849W        W15143  37.993   2.342   0.284
55850W        W15144  23.005  37.974  11.111
55851W        W15145   1.768  42.497  11.414
55852W        W15146  22.717  10.825  12.864
55853W        W15147   0.267  14.253  11.504
55854W        W15148   7.891   0.442   1.816
55855W        W15149  32.581  11.698  14.002
55856W        W15150  16.084  19.697  14.385
55857W        W15151  15.222  25.485  11.997
55858W        W15152  10.760  26.591   4.225
55859W        W15153  14.094  22.628   2.684
55860W        W15154  26.503  44.911  11.531
55861W        W15155  10.208  39.999  12.384
55862W        W15156   5.825  39.944  11.866
55863W        W15157  26.501   2.297  13.858
55864W        W15158  10.809  31.965   2.845
55865W        W15159  44.800  22.675   2.853
55866W        W15160  17.123   2.270   2.683
55867W        W15161   0.815   7.776   3.739
55868W        W15162   6.689  36.349  11.457
55869W        W15163  40.868   4.220   0.865
55870W        W15164   5.790  38.557  12.854
55871W        W15165  39.432  31.952   5.312
55872W        W15166  42.992  21.233   1.775
55873W        W15167  33.600  24.660  14.389
55874W        W15168  15.800  11.172   1.383
55875W        W15169  34.501  38.966  14.791
55876W        W15170  12.658  21.030  12.893
55877W        W15171  17.133  26.631  11.858
55878W        W15172  15.114  11.716  14.789
55879W        W15173   5.731  30.935   3.784
55880W        W15174  20.621  10.876   0.442
55881W        W15175  44.810   9.829   1.356
55882W        W15176  30.481  17.150  13.374
55883W        W15177  41.535  36.017  12.548
55884W        W15178  14.271  38.923   3.318
55885W        W15179  17.207  12.835  13.517
55886W        W15180  42.030  14.167  11.604
55887W        W15181  40.317   1.450   4.187
55888W        W15182  35.427   5.372   1.751
55889W        W15183  28.967  30.132  14.026
55890W        W15184  12.684   5.268   0.836
55891W        W15185  11.779   3.407   0.810
55892W        W15186  32.061  26.198   2.258
55893W        W15187  35.046  32.916  11.865
55894W        W15188  37.505  26.137  14.516
55895W        W15189   2.876  31.020  14.389
55896W        W15190  20.693  16.179   1.292
55897W        W15191  18.295  14.600  13.878
55898W        W15192  42.943  15.769  13.420
55899W        W15193  22.056   8.161   3.692
55900W        W15194   3.460  32.063   5.101
55901W        W15195  33.037  40.494   0.261
55902W        W15196  22.610   9.779  12.866
55903W        W15197  19.232  43.848   3.338
55904W        W15198  20.582   5.213   0.760
55905W        W15199  10.310  23.539  14.942
55906W        W15200  37.912  31.920  12.930
55907W        W15201  35.462  33.458  10.921
55908W        W15202  41.022  29.034   1.919
55909W        W15203  32.092  44.975  13.431
55910W        W15204   8.368   2.405  14.945
55911W        W15205   2.942  42.832   4.748
55912W        W15206  19.610  32.023   0.444
55913W        W15207  34.909   5.885  12.458
55914W        W15208  40.997  37.951  13.414
55915W        W15209   7.845  13.710  10.466
55916W        W15210   2.929   8.800  12.416
55917W        W15211  43.935  30.961  14.982
55918W        W15212  27.534  27.987  14.900
55919W        W15213   1.241  36.043   1.831
55920W        W15214  14.667  27.469  12.565
55921W        W15215  26.144   1.731   3.733
55922W        W15216  15.702  32.115   0.922
55923W        W15217   0.432  33.048   4.245
55924W        W15218  35.506  24.032   4.682
55925W        W15219  13.244  42.512   0.834
55926W        W15220  13.789   0.924  10.520
55927W        W15221  42.439   9.291   0.793
55928W        W15222  44.406  15.103  12.833
55929W        W15223  33.005  43.461   2.362
55930W        W15224   1.387   8.897  13.861
55931W        W15225  28.165  10.809   0.288
55932W        W15226  36.875  28.558  11.010
55933W        W15227   2.780  32.139   3.178
55934W        W15228   7.399   4.915   3.167
55935W        W15229  25.164  10.349   4.149
55936W        W15230  16.711  19.142   4.654
55937W        W15231   9.289  37.919   1.310
55938W        W15232  16.707   3.254  11.378
55939W        W15233  35.904  41.981   0.268
55940W        W15234   2.401  29.496  14.352
55941W        W15235  41.353  18.142   4.169
55942W        W15236  42.984   6.868   3.309
55943W        W15237  31.925  16.237  10.949
55944W        W15238  15.171  19.693   5.573
55945W        W15239  42.900   3.811   3.672
55946W        W15240  28.970   3.307  10.556
55947W        W15241  22.624  41.292   0.371
55948W        W15242   3.293  17.665   0.937
55949W        W15243  10.341  28.470  12.020
55950W        W15244  35.568   7.195  10.953
55951W        W15245   5.391  24.103  12.509
55952W        W15246  16.247  44.424  10.892
55953W        W15247  39.030  40.336  10.439
55954W        W15248   0.255  17.073   3.681
55955W        W15249  25.489  42.910  13.506
55956W        W15250  20.150   2.933   1.817
55957W        W15251   6.224  20.093   3.742
55958W        W15252  38.897   7.867  14.449
55959W        W15253  24.704  23.130   3.678
55960W        W15254  32.891   3.265   0.424
55961W        W15255  29.566  42.357   3.352
55962W        W15256  14.311   3.385  13.060
55963W        W15257  32.091  10.693   3.379
55964W        W15258   3.322   1.840  14.506
55965W        W15259   8.802  40.413  11.605
55966W        W15260  11.306  17.279  13.393
55967W        W15261  22.686  41.356  12.443
55968W        W15262  11.322  32.450  13.313
55969W        W15263   4.253  18.609   2.266
55970W        W15264  35.421  39.320  10.493
55971W        W15265  35.050  30.163  12.446
55972W        W15266  19.579   1.425   2.366
55973W        W15267  14.629  33.073  10.613
55974W        W15268  32.564  10.320  12.553
55975W        W15269  10.748   4.219  14.400
55976W        W15270  44.002  25.633   0.943
55977W        W15271  36.019  24.559   0.829
55978W        W15272  19.241  13.618   1.363
55979W        W15273  24.139   7.344   3.707
55980W        W15274  10.801   2.859   9.564
55981W        W15275  13.625  14.308  13.451
55982W        W15276  42.280  42.490  14.966
55983W        W15277  24.620  20.706  10.453
55984W        W15278   6.821  26.184   1.216
55985W        W15279  24.524  44.484  11.926
55986W        W15280  17.755  17.079   5.284
55987W        W15281  21.677  44.398  13.361
55988W        W15282  33.404  20.693   4.340
55989W        W15283  34.051  17.112   4.692
55990W        W15284  15.727  11.127  14.399
55991W        W15285   0.450  35.053   0.250
55992W        W15286   8.752  11.850   4.180
55993W        W15287  36.378  19.598   1.362
55994W        W15288  37.064  29.621   0.403
55995W        W15289  44.978  19.112  11.939
55996W        W15290  35.564  11.238   3.765
55997W        W15291  33.062   9.795   1.785
55998W        W15292   9.859  39.349  14.024
55999W        W15293  27.657  22.650  11.085
56000W        W15294  28.124  44.994  14.348
56001W        W15295  29.027   0.933  12.433
56002W        W15296   2.328  32.131   2.359
56003W        W15297  24.671   8.328   2.268
56004W        W15298  26.142  19.074  10.945
56005W        W15299  42.968  14.116  11.558
56006W        W15300  25.481  35.389  10.976
56007W        W15301  34.516  15.186  13.921
56008W        W15302  11.132  21.240   1.818
56009W        W15303   3.252  14.288  12.948
56010W        W15304  35.555   3.253   2.226
56011W        W15305  44.390  27.501   0.861
56012W        W15306  22.227  38.018  11.510
56013W        W15307   1.444  34.035   3.675
56014W        W15308  35.901   3.429   1.848
56015W        W15309  30.995  24.218  12.534
56016W        W15310   9.743  37.379  11.073
56017W        W15311  27.038  36.386   0.327
56018W        W15312  40.336  16.681   1.885
56019W        W15313  41.897  25.984  12.411
56020W        W15314  40.001  21.081  13.911
56021W        W15315   1.271  25.082   2.718
56022W        W15316  36.954  16.614  12.013
56023W        W15317  27.482  17.196  14.306
56024W        W15318  30.517  26.012  12.047
56025W        W15319  29.166  15.159   0.290
56026W        W15320  20.730  23.574  11.978
56027W        W15321  36.505  15.617   5.272
56028W        W15322   0.838   6.209  11.574
56029W        W15323  38.394  13.792   3.709
56030W        W15324   8.300   2.440  12.369
56031W        W15325   0.468  11.842  14.893
56032W        W15326  20.560  41.920   3.733
56033W        W15327  13.298   4.317   3.814
56034W        W15328   9.775   2.255   2.325
56035W        W15329  41.508   6.191   4.624
56036W        W15330  39.887   5.925  14.795
56037W        W15331  31.454   3.280  10.424
56038W        W15332  14.174   8.726   0.269
56039W        W15333  38.959  23.728   1.342
56040W        W15334  16.747   1.786  14.779
56041W        W15335  38.873   6.752  13.308
56042W        W15336  42.448  13.117  14.028
56043W        W15337  35.856   1.884  10.572
56044W        W15338  39.942  41.413  14.015
56045W        W15339  24.705  29.972  14.397
56046W        W15340  30.061  21.155   2.803
56047W        W15341  44.803  18.641   4.712
56048W        W15342  25.634  30.474  12.833
56049W        W15343  42.900  20.047  12.931
56050W        W15344  29.589  35.949   4.660
56051W        W15345  36.518  42.490  12.045
56052W        W15346  34.021   2.272   3.824
56053W        W15347  34.981  40.490  13.487
56054W        W15348   3.221   1.804  13.509
56055W        W15349  36.847  31.565  13.849
56056W        W15350  32.554   8.257  12.907
56057W        W15351  15.606  29.152  14.431
56058W        W15352   6.822   2.819   4.343
56059W        W15353  10.201   7.823  12.940
56060W        W15354  30.586   6.308  13.046
56061W        W15355   2.415  12.234   1.307
56062W        W15356   7.680   4.412  12.040
56063W        W15357  38.508   8.690  14.431
56064W        W15358  11.862  25.036  13.980
56065W        W15359  39.861  30.596   4.807
56066W        W15360  32.073   0.795  13.986
56067W        W15361  42.377  42.376   0.259
56068W        W15362  16.166  34.449  11.976
56069W        W15363  27.640   7.217  12.558
56070W        W15364  31.078  24.546   0.931
56071W        W15365  11.722  11.851   0.281
56072W        W15366  37.446  42.458  12.047
56073W        W15367   5.790   0.841  12.517
56074W        W15368  19.286  24.101  14.944
56075W        W15369   6.195  19.685  11.882
56076W        W15370  24.031  13.186   1.431
56077W        W15371  37.937  24.654  13.851
56078W        W15372  26.133  35.038   2.322
56079W        W15373  15.656  11.344   0.396
56080W        W15374  34.573  29.512   3.661
56081W        W15375  42.851  38.862  11.993
56082W        W15376  10.694   6.722   4.282
56083W        W15377  36.351  35.531   2.855
56084W        W15378  18.167  35.874  14.326
56085W        W15379  15.297  40.988   4.167
56086W        W15380  15.777  27.122   2.878
56087W        W15381   1.385  23.559  14.787
56088W        W15382   0.936  34.000  11.967
56089W        W15383  44.349  10.764  12.029
56090W        W15384   4.379  19.177   0.817
56091W        W15385  33.409  33.523  13.358
56092W        W15386   7.177   5.268   3.789
56093W        W15387  25.557  20.051   3.328
56094W        W15388  15.593  27.571   1.916
56095W        W15389  14.719   5.886   1.760
56096W        W15390  31.521   9.808   3.788
56097W        W15391   5.911  40.399   3.644
56098W        W15392  10.723  36.849  13.481
56099W        W15393  30.979  16.273  13.392
56100W        W15394  22.193  33.934   1.382
56101W        W15395  10.251  32.448   0.479
56102W        W15396  30.982  44.925   2.849
56103W        W15397  19.593  31.130   1.414
56104W        W15398  12.176   9.259  14.880
56105W        W15399  17.726  40.880  14.008
56106W        W15400   1.308   2.734   1.761
56107W        W15401  30.630  27.451   3.287
56108W        W15402   5.915   0.753   1.433
56109W        W15403  40.946  42.352  11.879
56110W        W15404  26.018  37.943  10.417
56111W        W15405  38.001  21.173  11.579
56112W        W15406  24.228  27.002  14.804
56113W        W15407  31.950  14.808   1.234
56114W        W15408  13.844  41.361   1.346
56115W        W15409   6.221   3.350   1.788
56116W        W15410  14.323   8.659  10.972
56117W        W15411  14.643  34.109  14.830
56118W        W15412  15.682  32.447   2.403
56119W        W15413  34.522  38.908   0.249
56120W        W15414  23.621  22.123   2.870
56121W        W15415  26.063  18.607   0.411
56122W        W15416  12.740   8.766   3.813
56123W        W15417  35.871   0.299  11.523
56124W        W15418  12.185  18.111  11.611
56125W        W15419  25.038  37.000  14.452
56126W        W15420  10.168  21.212  13.477
56127W        W15421  13.300  11.721   1.245
56128W        W15422  21.711  40.809   1.798
56129W        W15423   1.786  13.621   2.866
56130W        W15424  25.182   0.935  12.340
56131W        W15425  43.862  42.451  11.432
56132W        W15426  44.264  23.551   1.307
56133W        W15427  20.567  20.216  14.900
56134W        W15428  43.910  20.644   1.862
56135W        W15429  31.624   5.285  12.374
56136W        W15430   7.772  13.208  10.415
56137W        W15431  14.671  12.799   3.363
56138W        W15432  11.330  30.058  14.826
56139W        W15433  25.664  30.437  12.373
56140W        W15434   5.799  41.853  13.040
56141W        W15435  19.605   0.860  12.502
56142W        W15436   3.757  10.283   3.635
56143W        W15437  25.973  16.582  11.541
56144W        W15438  36.010   3.268  10.430
56145W        W15439  39.340  42.491   4.606
56146W        W15440  10.227  21.018  13.010
56147W        W15441   4.921  13.261  13.307
56148W        W15442   6.810  18.625   4.269
56149W        W15443   3.364  42.776   4.307
56150W        W15444  26.468  37.453   3.670
56151W        W15445   6.872  27.509  11.431
56152W        W15446  22.135  44.967  14.875
56153W        W15447   8.665  18.716   3.295
56154W        W15448  12.145   5.922  12.859
56155W        W15449  17.071  16.291   4.200
56156W        W15450   4.773   3.734   2.800
56157W        W15451  40.456  31.992  14.485
56158W        W15452  30.126  20.064  14.500
56159W        W15453  12.142  30.091  12.501
56160W        W15454  16.212  32.464   0.348
56161W        W15455  13.212  15.590   5.185
56162W        W15456   4.260   4.919   1.708
56163W        W15457   2.945  37.364  10.895
56164W        W15458   6.231  25.551   4.188
56165W        W15459  35.884  10.863  14.900
56166W        W15460  14.162  11.265   3.367
56167W        W15461  30.451  13.731  12.025
56168W        W15462   2.337  43.766   2.328
56169W        W15463  44.937  10.818  11.531
56170W        W15464   8.166   6.864   3.182
56171W        W15465   8.341  37.437   3.236
56172W        W15466  32.471  24.512   1.312
56173W        W15467   7.379  28.667  14.352
56174W        W15468  32.501  32.886   4.127
56175W        W15469  31.488  30.416  13.853
56176W        W15470  25.028  34.964   2.414
56177W        W15471   4.438  17.063   1.884
56178W        W15472  42.499  24.041   0.785
56179W        W15473   5.697  33.089  10.964
56180W        W15474  31.632   9.735   4.718
56181W        W15475  42.414  12.775   2.696
56182W        W15476   5.822  40.350  13.343
56183W        W15477  16.674  14.298   2.709
56184W        W15478  12.726  13.725   3.309
56185W        W15479   0.765   8.896  11.436
56186W        W15480  28.579   9.177   0.405
56187W        W15481  18.600  31.915   1.714
56188W        W15482  31.936  16.772   1.782
56189W        W15483  32.115  39.038  13.855
56190W        W15484   2.837  31.018   3.315
56191W        W15485  41.040   6.399   1.316
56192W        W15486  34.909   3.442  11.385
56193W        W15487  14.662  40.307  11.047
56194W        W15488  28.934  17.647   1.858
56195W        W15489  43.482  32.969   0.940
56196W        W15490  40.546  32.919   1.445
56197W        W15491  26.522   5.860  11.995
56198W        W15492  40.487  10.656   0.770
56199W        W15493  11.866  18.605   2.184
56200W        W15494  21.192   1.950   9.961
56201W        W15495  40.334   7.762  13.909
56202W        W15496  10.694  14.720   0.409
56203W        W15497  23.199  38.546  14.323
56204W        W15498   3.926  30.446   0.873
56205W        W15499  27.139  32.515   2.707
56206W        W15500   7.239  27.635   4.710
56207W        W15501   7.761  37.454   3.683
56208W        W15502  42.499  35.560   1.913
56209W        W15503  29.521  44.344   0.752
56210W        W15504  30.112   9.735   4.222
56211W        W15505   5.215  44.296   5.102
56212W        W15506   2.863  28.109  14.761
56213W        W15507  27.586  15.245   3.864
56214W        W15508  32.523  26.004  12.846
56215W        W15509  18.187  42.834   4.135
56216W        W15510  11.323  44.296  14.832
56217W        W15511  34.986   7.302   9.465
56218W        W15512  28.466  19.194  14.837
56219W        W15513  22.995   2.742   0.929
56220W        W15514   2.918  32.531   4.325
56221W        W15515  15.129  27.448  12.431
56222W        W15516  10.772  43.798  13.992
56223W        W15517  29.060  25.552  10.893
56224W        W15518  30.471   6.893   3.826
56225W        W15519  26.038  29.098   1.839
56226W        W15520  27.465  11.766   0.287
56227W        W15521  40.010  10.770   4.668
56228W        W15522  42.872   6.808  10.448
56229W        W15523  44.879  34.545  14.965
56230W        W15524  22.143  39.814   3.735
56231W        W15525   4.407  29.078  14.961
56232W        W15526  25.997   5.396   4.633
56233W        W15527   6.904   5.276  12.901
56234W        W15528  22.239  13.808  14.931
56235W        W15529  40.486  40.042   0.426
56236W        W15530  23.559  34.371  10.499
56237W        W15531  36.405  13.714  11.455
56238W        W15532   5.295  32.542   4.653
56239W        W15533  10.319  22.683  14.789
56240W        W15534  40.371  10.362   4.791
56241W        W15535   1.823  34.066  11.536
56242W        W15536  35.079  18.640  14.839
56243W        W15537   3.742  33.488  12.439
56244W        W15538  19.183   9.281   0.368
56245W        W15539  35.596  22.033  14.347
56246W        W15540  31.992  35.049   2.396
56247W        W15541  44.820  32.046   3.790
56248W        W15542  29.068   5.231  14.354
56249W        W15543  20.186  19.257   0.872
56250W        W15544  23.544   9.363  12.927
56251W        W15545  28.049  30.933   2.391
56252W        W15546  20.033  42.503  13.891
56253W        W15547  25.714  18.567  14.820
56254W        W15548  40.531   0.900   3.854
56255W        W15549  17.775   5.802   3.779
56256W        W15550  25.167   4.304  13.859
56257W        W15551  44.280  30.121  12.358
56258W        W15552   6.788  21.568  12.414
56259W        W15553  44.814  30.629  13.534
56260W        W15554  41.331  19.155   0.341
56261W        W15555  41.914  12.757   0.445
56262W        W15556  24.653  38.956  11.433
56263W        W15557  27.989  16.170  14.988
56264W        W15558  10.338  21.205  14.402
56265W        W15559   8.173  12.120   1.343
56266W        W15560  29.174  26.198  10.941
56267W        W15561   7.696   5.903  14.939
56268W        W15562  31.629  35.947   0.920
56269W        W15563  14.607  24.574  13.477
56270W        W15564  44.886  32.899  11.609
56271W        W15565  30.579  12.686  14.857
56272W        W15566  10.274  39.905   4.763
56273W        W15567  14.275  10.878  14.004
56274W        W15568  28.931  21.174   0.847
56275W        W15569  43.837  27.624  12.949
56276W        W15570  39.036  24.127  11.989
56277W        W15571  36.026  26.960  14.980
56278W        W15572   4.789  35.860   1.826
56279W        W15573   0.426  19.715   0.888
56280W        W15574  23.551  35.557  10.462
56281W        W15575  31.926  27.082  11.377
56282W        W15576  38.369  20.665  12.877
56283W        W15577  33.957  37.000  13.391
56284W        W15578  15.135   3.385   4.210
56285W        W15579  24.133  28.113  11.892
56286W        W15580  23.502  40.446  14.454
56287W        W15581  18.105  18.087  14.411
56288W        W15582  13.235  16.793   3.706
56289W        W15583  38.969  39.941   4.286
56290W        W15584   7.346  14.210   3.253
56291W        W15585   2.466   6.243   3.328
56292W        W15586   3.311   3.797   2.828
56293W        W15587  32.913  37.338   1.290
56294W        W15588  10.223  35.432  10.606
56295W        W15589  13.197  18.103   1.708
56296W        W15590  29.631  10.636   2.837
56297W        W15591  31.478  40.357  13.792
56298W        W15592   3.394  29.013  12.949
56299W        W15593   4.251  31.013  14.943
56300W        W15594  11.677  42.977  11.983
56301W        W15595  17.637   7.350   2.378
56302W        W15596  35.531  17.572  12.085
56303W        W15597  35.906  33.603   0.378
56304W        W15598  26.500  35.066  14.805
56305W        W15599  27.667  23.209   2.270
56306W        W15600   9.889  15.662   3.346
56307W        W15601   6.310  12.194   1.843
56308W        W15602  43.439  24.479  12.483
56309W        W15603   1.276   9.846   4.337
56310W        W15604  27.611   0.810  13.935
56311W        W15605  27.600  15.161  11.560
56312W        W15606   5.697  23.126   2.219
56313W        W15607  42.852  39.896  12.911
56314W        W15608  23.685  33.951   0.252
56315W        W15609  14.740  14.834   3.329
56316W        W15610  39.028  16.223  12.022
56317W        W15611  29.598   6.389   4.310
56318W        W15612   4.866  44.308   3.363
56319W        W15613  28.177  41.444   3.298
56320W        W15614  24.524   0.903   3.258
56321W        W15615  30.534  43.492  13.929
56322W        W15616   1.446   5.777   2.803
56323W        W15617  21.695  14.336   1.348
56324W        W15618  23.001  36.349   4.293
56325W        W15619  16.194  34.562   2.873
56326W        W15620   2.817  29.954   3.160
56327W        W15621  32.554  25.514  12.043
56328W        W15622  27.646  34.118   1.362
56329W        W15623   6.828  20.547  14.830
56330W        W15624   9.285  17.304   0.343
56331W        W15625  21.220  40.441   3.181
56332W        W15626   4.795   3.307   2.872
56333W        W15627   5.860  43.406   3.697
56334W        W15628   9.272  16.173  10.509
56335W        W15629  17.301   2.941   0.429
56336W        W15630  35.367   6.699  11.994
56337W        W15631  14.640  44.334  14.009
56338W        W15632  29.494  40.390  13.044
56339W        W15633  37.960  21.593   1.360
56340W        W15634   0.393  36.009  11.030
56341W        W15635  20.208  12.305   0.917
56342W        W15636   4.787  37.472  12.876
56343W        W15637  40.512  40.320  13.840
56344W        W15638  17.639  22.536   2.670
56345W        W15639  13.247  40.516   0.779
56346W        W15640  10.347   0.975  13.515
56347W        W15641  18.248  25.146   0.381
56348W        W15642  29.142  13.807   0.766
56349W        W15643  35.101  21.670   3.869
56350W        W15644  11.342  38.340   0.928
56351W        W15645  23.216  12.264   3.663
56352W        W15646  14.744  44.798   1.916
56353W        W15647  31.595   1.376  11.098
56354W        W15648  10.367  20.119  13.037
56355W        W15649  36.593  27.523  14.382
56356W        W15650   6.848  20.627   2.390
56357W        W15651  25.061  38.455   0.747
56358W        W15652  20.273  30.656  12.009
56359W        W15653  28.990  18.731   3.631
56360W        W15654  17.683  23.601  14.854
56361W        W15655  17.099  19.115   2.887
56362W        W15656  19.051  29.986   1.307
56363W        W15657  36.433  25.640   0.755
56364W        W15658  24.586  21.261  12.357
56365W        W15659   1.259  43.836  10.553
56366W        W15660  21.253   1.751  10.920
56367W        W15661  20.724   1.262  11.373
56368W        W15662  38.506  43.830   2.400
56369W        W15663  31.026  15.277   2.664
56370W        W15664   6.895  21.056  10.929
56371W        W15665  22.705  43.869  11.856
56372W        W15666  25.185  26.507  12.024
56373W        W15667  29.655  31.594   2.271
56374W        W15668  10.272   6.236  11.006
56375W        W15669  19.682  44.789  12.923
56376W        W15670  13.815   1.266  13.824
56377W        W15671  41.031   5.257  12.355
56378W        W15672  16.099   6.338   2.711
56379W        W15673  29.166  23.585  12.485
56380W        W15674   9.245  38.008   4.798
56381W        W15675  21.534   7.673   1.887
56382W        W15676  11.845  32.521   2.808
56383W        W15677  21.031  20.538   3.151
56384W        W15678  40.851  21.104  11.944
56385W        W15679  26.515   1.789   9.928
56386W        W15680   9.257  36.002  13.536
56387W        W15681  18.561  36.359   4.656
56388W        W15682  12.680  15.712  11.530
56389W        W15683   1.818  28.004   3.747
56390W        W15684  32.970  26.479   1.755
56391W        W15685  20.053  26.078  12.077
56392W        W15686  44.994  19.250  11.441
56393W        W15687  14.271  37.488  11.892
56394W        W15688  32.413   3.453  12.402
56395W        W15689  38.858  11.127   2.265
56396W        W15690  36.953  29.617   4.345
56397W        W15691  28.083  31.971  12.350
56398W        W15692  27.546  44.398  14.769
56399W        W15693  16.577  19.772  14.935
56400W        W15694   4.237   4.297   3.723
56401W        W15695  16.244  19.181   1.729
56402W        W15696   6.868   3.414   4.344
56403W        W15697  21.239  21.250   4.699
56404W        W15698   4.262  17.189   3.370
56405W        W15699  12.627  11.691  13.458
56406W        W15700  37.874  15.703   1.306
56407W        W15701  35.582  32.996   2.829
56408W        W15702  11.320  14.299  14.496
56409W        W15703  44.267   7.243   1.853
56410W        W15704  40.017  21.741  11.494
56411W        W15705  41.882  31.427   4.601
56412W        W15706   6.686  23.687   1.257
56413W        W15707  24.077   2.432  13.426
56414W        W15708  42.322  41.398   3.287
56415W        W15709   5.247   0.868   5.178
56416W        W15710  42.313  15.621   3.179
56417W        W15711  30.620  28.545   2.900
56418W        W15712  37.998  12.239  14.853
56419W        W15713  23.199  25.653  10.547
56420W        W15714  35.550  30.164   4.188
56421W        W15715  37.895  40.871   0.415
56422W        W15716  26.000   7.389   2.373
56423W        W15717   2.410  17.600  14.475
56424W        W15718  30.091  27.552   0.330
56425W        W15719  26.466  16.679  13.359
56426W        W15720   6.365   4.448   1.368
56427W        W15721  18.776  26.055  10.540
56428W        W15722  24.082  17.577   4.714
56429W        W15723  17.791  28.521   0.875
56430W        W15724   3.336  34.075  14.025
56431W        W15725   5.265  30.600  11.100
56432W        W15726  37.053  44.882  11.579
56433W        W15727  34.579  24.143  12.396
56434W        W15728   7.394  30.919  13.317
56435W        W15729  44.816  14.787   3.759
56436W        W15730  39.929  44.416  13.378
56437W        W15731  12.125  24.142  12.391
56438W        W15732   2.238  11.185   4.247
56439W        W15733   4.251  44.394  14.825
56440W        W15734  25.061   7.813  13.445
56441W        W15735  40.534  19.543   9.937
56442W        W15736  16.734  10.689   0.373
56443W        W15737  12.295  31.064   2.834
56444W        W15738   0.784   8.191   4.226
56445W        W15739  16.700  19.639  11.952
56446W        W15740  24.098   4.348  14.312
56447W        W15741  38.903   4.221   0.886
56448W        W15742  35.401  22.179  13.323
56449W        W15743  44.977  25.473  10.576
56450W        W15744  42.954  43.803   9.550
56451W        W15745  19.043  26.644  12.032
56452W        W15746  10.796   3.844  13.040
56453W        W15747  42.985  33.994  14.885
56454W        W15748   5.235  32.536   0.323
56455W        W15749   8.734  42.015   3.805
56456W        W15750  39.336   9.670  14.290
56457W        W15751   4.300   6.870   2.739
56458W        W15752   2.344   7.769  11.467
56459W        W15753  10.794  37.013   3.341
56460W        W15754  27.098  24.145  14.335
56461W        W15755  27.086   8.292  13.447
56462W        W15756  14.675  33.941  14.280
56463W        W15757  28.653   1.423   2.361
56464W        W15758  38.019  11.154  12.553
56465W        W15759  17.665  37.067   2.778
56466W        W15760  26.962  14.752   1.933
56467W        W15761   7.202  36.051  11.968
56468W        W15762  42.963  24.676  10.470
56469W        W15763  30.062   9.214   2.287
56470W        W15764  12.237   4.272  14.497
56471W        W15765  34.473  23.087   1.283
56472W        W15766  44.806  16.144  12.962
56473W        W15767  27.013  44.832   4.783
56474W        W15768  15.821  36.548  12.983
56475W        W15769  17.583  41.965  12.960
56476W        W15770  31.463   0.962   0.466
56477W        W15771  19.155  15.140   3.204
56478W        W15772   8.812  35.102   0.950
56479W        W15773  44.339  42.373   1.260
56480W        W15774  21.674  13.245  10.908
56481W        W15775  32.463  15.157   4.268
56482W        W15776  37.976  10.259  13.341
56483W        W15777  15.783  23.664  12.870
56484W        W15778  13.290  43.343   3.699
56485W        W15779   5.793  41.514  14.376
56486W        W15780   8.772   4.771   2.700
56487W        W15781  23.605  14.807  12.515
56488W        W15782  42.777   7.805   3.373
56489W        W15783  19.174  34.435   3.372
56490W        W15784   1.816  38.052  14.350
56491W        W15785  12.210  44.301   2.892
56492W        W15786   5.771  34.865  13.449
56493W        W15787  26.188  19.239  10.423
56494W        W15788  11.306   1.288  12.051
56495W        W15789   0.907  19.068   1.899
56496W        W15790  31.905  22.179   3.857
56497W        W15791  16.083  10.790  12.966
56498W        W15792  44.490   9.301  11.035
56499W        W15793  36.565  31.957  11.902
56500W        W15794  44.375   5.735   4.602
56501W        W15795  19.658   5.924  10.481
56502W        W15796  25.669   3.272  11.862
56503W        W15797  21.709   7.213  11.584
56504W        W15798  38.425  38.948   2.751
56505W        W15799  15.300  16.210  11.514
56506W        W15800  41.304  28.655  14.299
56507W        W15801  18.782  19.280  10.031
56508W        W15802  14.812   9.154  14.372
56509W        W15803  17.125  37.022  13.547
56510W        W15804   3.258  20.122  10.636
56511W        W15805  28.044   7.343  12.512
56512W        W15806  39.928  18.195   0.756
56513W        W15807  42.350  20.126   1.254
56514W        W15808   0.985  14.677  10.481
56515W        W15809  34.587  16.795  13.901
56516W        W15810  13.724  38.908  11.564
56517W        W15811  14.336   4.447   4.763
56518W        W15812  23.681   7.318  12.980
56519W        W15813  13.316  28.650  10.410
56520W        W15814  11.243  22.097  13.348
56521W        W15815  42.406  33.548   3.826
56522W        W15816   9.353   5.832  14.947
56523W        W15817  40.504  40.019   1.895
56524W        W15818   8.819  20.715  10.059
56525W        W15819  18.641  37.026   3.713
56526W        W15820  21.577  24.106  12.886
56527W        W15821  36.919   7.352   2.350
56528W        W15822  20.580  24.570  11.877
56529W        W15823  32.941  30.031   0.361
56530W        W15824  37.494   6.196   1.881
56531W        W15825  24.519  22.695  12.469
56532W        W15826  15.695  17.605  10.564
56533W        W15827  41.426  10.695  11.609
56534W        W15828   0.272  11.861  13.901
56535W        W15829   2.952  19.110  14.963
56536W        W15830  27.153   2.760   0.338
56537W        W15831  23.710  24.083  13.837
56538W        W15832  38.881  14.622  10.504
56539W        W15833  13.643  14.193  11.115
56540W        W15834   5.751  35.368  10.933
56541W        W15835   6.335  19.698   0.828
56542W        W15836  26.071   6.719   3.255
56543W        W15837  35.413  38.491  12.997
56544W        W15838   9.340   9.214  11.503
56545W        W15839   3.867   3.294  10.018
56546W        W15840   7.253  19.538   3.152
56547W        W15841  31.991  33.387  11.402
56548W        W15842  27.049  40.468  11.042
56549W        W15843  21.624  15.637  14.811
56550W        W15844  34.885   1.764  11.402
56551W        W15845   4.219  23.617  11.879
56552W        W15846  19.160  38.376  12.997
56553W        W15847  20.557  26.483  10.510
56554W        W15848  38.419  42.931   4.232
56555W        W15849  27.672  30.071  11.016
56556W        W15850   5.693  15.695   1.934
56557W        W15851  17.562  35.011  11.927
56558W        W15852  20.188  16.572   0.786
56559W        W15853  44.853  32.580   3.761
56560W        W15854  25.182  33.463   3.221
56561W        W15855  38.863  25.210   0.385
56562W        W15856   2.939  33.077   3.860
56563W        W15857  29.925  20.055   1.282
56564W        W15858   5.196  15.770   0.256
56565W        W15859   2.374  41.807   1.371
56566W        W15860  39.859   4.282   3.795
56567W        W15861   1.322  29.045   2.708
56568W        W15862  26.189  44.917  11.888
56569W        W15863  32.037   0.477   0.461
56570W        W15864  42.021  22.593   4.617
56571W        W15865   7.846  32.898  11.531
56572W        W15866  31.981  42.891  12.462
56573W        W15867  15.633  19.158  11.479
56574W        W15868  19.251  27.131  12.475
56575W        W15869  38.355  20.610  13.910
56576W        W15870   1.451   2.804   1.385
56577W        W15871  14.141  40.415  13.053
56578W        W15872  26.144  27.642   3.724
56579W        W15873  34.574  35.499   4.308
56580W        W15874   5.840  40.010   1.238
56581W        W15875   5.769  32.503   2.236
56582W        W15876  24.043  12.200   1.811
56583W        W15877  19.089  41.979  10.966
56584W        W15878  35.421   9.222  13.024
56585W        W15879  19.268  17.201  10.584
56586W        W15880  25.551   2.234  13.943
56587W        W15881  18.596  26.534   1.282
56588W        W15882  34.928  27.181   0.480
56589W        W15883  19.646   6.723  13.925
56590W        W15884  45.000   5.435   0.269
56591W        W15885   5.807   8.881   2.294
56592W        W15886  25.136   6.769   3.152
56593W        W15887   9.875  18.053  13.000
56594W        W15888  22.165  22.661  13.526
56595W        W15889  27.526  13.129   0.888
56596W        W15890  24.589  20.085  14.927
56597W        W15891  21.670  15.140   2.259
56598W        W15892  24.664  37.399  11.969
56599W        W15893  13.252  29.506   4.836
56600W        W15894  35.109   3.275  12.553
56601W        W15895  31.605   7.276   3.219
56602W        W15896   1.410  34.497  10.942
56603W        W15897   0.984  37.509  11.026
56604W        W15898  10.864  29.445   3.843
56605W        W15899  27.994  37.881  10.570
56606W        W15900  39.340   7.831  12.355
56607W        W15901  12.798  23.693   4.652
56608W        W15902   4.781  28.668   4.172
56609W        W15903  42.815   9.799   2.380
56610W        W15904  35.043  37.083  13.919
56611W        W15905  12.760  12.243  13.392
56612W        W15906  14.158  12.266   1.450
56613W        W15907  35.007  26.187  11.931
56614W        W15908   4.353  44.297   1.822
56615W        W15909  35.995  42.443   1.850
56616W        W15910  17.568  40.508   4.644
56617W        W15911  19.179  29.513   1.934
56618W        W15912  42.826   9.201  10.556
56619W        W15913  44.417  11.368  11.943
56620W        W15914  38.059  37.359  14.771
56621W        W15915   4.887  44.779   2.375
56622W        W15916  15.784  25.651  13.538
56623W        W15917  24.556   5.857   3.701
56624W        W15918  18.565   6.185  13.854
56625W        W15919   9.355  42.854   2.411
56626W        W15920  15.613  14.728  12.421
56627W        W15921  43.308   6.345   2.252
56628W        W15922  42.919  32.554   2.178
56629W        W15923  14.335   4.242   1.312
56630W        W15924   4.819   8.672   4.626
56631W        W15925  10.659  13.626   0.891
56632W        W15926  37.504  12.684   0.299
56633W        W15927  34.455  33.486   2.331
56634W        W15928   6.362  15.175  13.515
56635W        W15929  20.230  30.161   3.339
56636W        W15930  21.625  24.115  10.578
56637W        W15931  37.914  20.063  11.401
56638W        W15932  31.421  13.154   1.899
56639W        W15933  40.988  43.347   0.372
56640W        W15934  36.996  25.593   3.711
56641W        W15935   5.385  27.060  14.401
56642W        W15936   2.336  21.168  11.896
56643W        W15937  20.250  36.918   1.833
56644W        W15938  16.263  24.508   1.875
56645W        W15939  16.268   0.887   0.794
56646W        W15940   6.289  13.787   3.265
56647W        W15941  18.235  16.678  12.422
56648W        W15942  17.616  32.433   0.420
56649W        W15943  11.650  27.659   4.725
56650W        W15944  41.402  27.094  13.036
56651W        W15945   7.688  44.907   3.207
56652W        W15946   0.984  11.133   1.308
56653W        W15947  38.988  16.103   3.744
56654W        W15948  30.959  28.933   2.276
56655W        W15949   9.702  14.673   2.223
56656W        W15950   3.345  18.759   4.772
56657W        W15951  18.746  20.560  14.923
56658W        W15952  40.970   2.387   1.878
56659W        W15953  11.834  37.066   3.748
56660W        W15954  15.663  41.904   3.652
56661W        W15955  33.398   8.315   1.282
56662W        W15956  28.440  43.312   2.790
56663W        W15957   7.726   6.918   0.821
56664W        W15958   0.870  26.528   4.237
56665W        W15959  43.846   6.729  14.931
56666W        W15960  38.483  31.469   3.868
56667W        W15961  41.326  38.864   4.626
56668W        W15962  33.593  42.829   2.335
56669W        W15963  28.490  22.607   2.319
56670W        W15964  22.070  19.565   2.671
56671W        W15965  29.176  32.136   2.249
56672W        W15966  13.665  27.645   2.412
56673W        W15967  21.737   9.161   9.536
56674W        W15968  30.523   4.297   3.681
56675W        W15969  32.528  28.585   0.958
56676W        W15970  18.217  12.722   3.261
56677W        W15971  13.609   4.205   3.250
56678W        W15972   2.443   2.731   3.658
56679W        W15973  40.314  21.216   1.844
56680W        W15974  16.147  25.672  14.276
56681W        W15975  39.443  37.873   5.769
56682W        W15976  14.770  19.596   1.878
56683W        W15977  34.084  20.040  11.946
56684W        W15978  40.049   2.250   4.674
56685W        W15979  39.954  26.058   4.765
56686W        W15980   8.332  18.078  13.358
56687W        W15981   7.392   8.355  12.067
56688W        W15982  23.196   9.304   0.916
56689W        W15983  22.092   7.401  12.568
56690W        W15984  29.089  12.745  11.491
56691W        W15985  40.035   7.855  12.078
56692W        W15986  23.612  12.626   2.193
56693W        W15987  13.244  22.540   3.368
56694W        W15988  33.077   8.854  10.468
56695W        W15989  29.948   2.454   0.896
56696W        W15990   4.812  20.742  14.495
56697W        W15991  21.586  23.028   0.455
56698W        W15992  10.683  36.050  10.488
56699W        W15993  35.497  12.270   3.301
56700W        W15994  10.177  43.451   3.655
56701W        W15995  20.704  16.751   0.948
56702W        W15996   2.277   2.836  13.310
56703W        W15997  43.969  40.848  11.375
56704W        W15998  17.700  30.085  11.563
56705W        W15999  42.018  41.040   3.650
56706W        W16000  43.873  27.185  12.946
56707W        W16001  15.781  25.077  13.340
56708W        W16002  41.864  23.183  11.997
56709W        W16003  43.873  21.575   3.739
56710W        W16004  19.779  23.712  10.611
56711W        W16005   1.316  23.181   4.814
56712W        W16006  32.089   4.798   3.733
56713W        W16007  15.717  33.113  12.083
56714W        W16008  11.795   9.735   2.179
56715W        W16009  32.033  41.444  14.930
56716W        W16010  41.915  21.215  12.045
56717W        W16011  41.478   6.400   3.804
56718W        W16012  30.650  41.931   5.703
56719W        W16013  44.896  11.626   0.371
56720W        W16014   8.244  24.100   4.183
56721W        W16015  11.164  22.736   2.182
56722W        W16016  40.528  41.846   2.256
56723W        W16017   7.271  24.098   5.229
56724W        W16018  27.112   7.727   3.639
56725W        W16019  32.423  11.626  14.424
56726W        W16020  22.714  14.758   4.277
56727W        W16021  22.715   0.824   0.803
56728W        W16022   7.290  23.709   0.243
56729W        W16023  22.150   4.427  10.887
56730W        W16024  14.185   1.944   2.239
56731W        W16025  39.502  38.557   2.240
56732W        W16026  24.103  15.713   2.714
56733W        W16027  41.320  35.537   2.793
56734W        W16028  41.514   5.258  12.060
56735W        W16029  28.650  15.259   0.450
56736W        W16030  15.696  18.254   5.141
56737W        W16031   3.827  26.059   4.686
56738W        W16032  25.497  13.170   3.168
56739W        W16033  19.719  35.589  14.382
56740W        W16034  26.494  31.412   3.687
56741W        W16035  29.025   2.315  12.992
56742W        W16036   2.832  23.214   2.266
56743W        W16037  41.525  14.815  14.394
56744W        W16038  32.906  17.277  11.985
56745W        W16039  28.989  31.984   4.817
56746W        W16040  35.604  22.014  10.553
56747W        W16041  13.132   9.183  13.345
56748W        W16042  34.085  18.131   3.698
56749W        W16043  37.916  20.597   3.223
56750W        W16044   3.834  20.255  11.527
56751W        W16045  21.630  39.026  10.522
56752W        W16046   1.400  30.457   1.295
56753W        W16047  14.180   2.952  12.092
56754W        W16048  27.043  34.564  10.500
56755W        W16049  30.462  22.744   0.770
56756W        W16050   8.201  30.087  14.761
56757W        W16051  13.250  27.451  12.356
56758W        W16052  22.531   0.257  14.891
56759W        W16053  26.476  10.343  14.876
56760W        W16054  13.210  40.921   1.447
56761W        W16055   3.263  42.387   1.931
56762W        W16056  40.311  11.222   0.405
56763W        W16057  26.198  42.905   0.312
56764W        W16058   1.970  24.668   3.727
56765W        W16059  34.959   9.782   0.398
56766W        W16060   8.718  38.542  14.470
56767W        W16061  20.196  13.338   0.806
56768W        W16062  12.211  17.284  10.476
56769W        W16063  34.092  33.534  14.442
56770W        W16064  42.992  11.776   2.206
56771W        W16065  29.660   1.816   5.305
56772W        W16066   8.189  32.916  13.349
56773W        W16067  37.515  11.712  12.890
56774W        W16068  16.621  27.530   4.644
56775W        W16069  22.046  41.469   2.213
56776W        W16070  33.109  12.699   0.269
56777W        W16071  25.486  12.755  13.355
56778W        W16072  22.743  10.665  12.014
56779W        W16073  26.638  28.580  14.385
56780W        W16074  18.270  43.936   0.344
56781W        W16075  43.884  26.464   1.354
56782W        W16076  43.480  41.488   2.293
56783W        W16077  35.859  14.211  12.354
56784W        W16078  37.972  20.668   4.773
56785W        W16079  32.619  25.701   1.762
56786W        W16080  32.929   6.785   2.219
56787W        W16081   1.925  38.375   3.759
56788W        W16082  30.448  17.210  10.548
56789W        W16083  31.566  32.560   2.271
56790W        W16084  23.546  21.687  14.803
56791W        W16085  21.539   1.973   2.782
56792W        W16086  31.040   0.840   1.256
56793W        W16087  32.951   0.459  11.455
56794W        W16088  37.971  16.247   1.357
56795W        W16089  11.635  29.148   1.826
56796W        W16090  27.476   4.362  12.978
56797W        W16091  19.044  43.342   3.346
56798W        W16092  34.996   2.377  13.989
56799W        W16093   4.894  41.479   2.184
56800W        W16094  14.756  10.750  12.349
56801W        W16095  39.519  19.119  13.954
56802W        W16096  14.135  15.299  12.824
56803W        W16097   9.881  25.529   1.794
56804W        W16098  44.414  22.167   0.860
56805W        W16099  32.565  32.409   2.253
56806W        W16100  13.803   9.843   2.376
56807W        W16101  42.813  41.892   5.227
56808W        W16102  12.352  34.470   0.854
56809W        W16103  43.339  33.085   2.319
56810W        W16104  41.482  23.695   0.841
56811W        W16105   5.405  30.567   1.353
56812W        W16106  38.873  20.065   3.703
56813W        W16107   7.826  44.434   2.284
56814W        W16108  30.158  41.851  13.540
56815W        W16109  14.717  33.128  13.970
56816W        W16110  13.634  29.047   4.818
56817W        W16111  27.672  11.778  10.050
56818W        W16112  15.109  31.150  11.869
56819W        W16113  25.531  19.116  13.417
56820W        W16114  11.142  22.117   1.363
56821W        W16115  21.207  21.637   4.686
56822W        W16116  15.289   5.698  11.129
56823W        W16117  18.244  20.661  12.409
56824W        W16118  42.399  29.021  12.341
56825W        W16119   8.194  10.829   1.922
56826W        W16120  34.430  18.685  14.489
56827W        W16121   1.343  22.634  14.383
56828W        W16122  44.427   6.349  11.997
56829W        W16123  26.108  30.161   3.784
56830W        W16124  26.979  35.359  12.417
56831W        W16125  23.587  38.373   2.859
56832W        W16126  34.973  34.005  11.595
56833W        W16127  19.639  38.402   3.770
56834W        W16128  10.694  34.485   5.739
56835W        W16129  44.858  27.125   2.706
56836W        W16130  14.229  11.862  14.324
56837W        W16131  43.875  38.360   0.958
56838W        W16132  43.484  40.399   2.181
56839W        W16133  44.863  44.885  14.031
56840W        W16134  32.998  31.541   0.769
56841W        W16135  43.310  30.641   4.177
56842W        W16136  16.319  16.763  10.928
56843W        W16137  34.063   7.739   0.406
56844W        W16138  26.158  38.828  12.008
56845W        W16139   3.397  10.768   0.370
56846W        W16140  13.301  42.803  13.823
56847W        W16141  20.531  19.676  14.342
56848W        W16142  18.067  35.945   1.345
56849W        W16143   3.794  14.619   4.800
56850W        W16144  30.567  24.573  13.313
56851W        W16145  40.867  15.267  13.500
56852W        W16146  33.433  10.652   3.685
56853W        W16147  16.185  34.923  14.826
56854W        W16148  29.633  19.098  12.086
56855W        W16149  37.869   0.492   4.598
56856W        W16150   5.705   2.750   1.796
56857W        W16151  34.429  27.645   3.199
56858W        W16152  25.091  12.211  11.401
56859W        W16153  16.119  25.217  12.396
56860W        W16154  11.284  16.753  13.040
56861W        W16155   4.827  40.938  13.989
56862W        W16156  10.371   4.304  13.049
56863W        W16157  37.524   1.965  10.961
56864W        W16158  39.988  21.537   0.256
56865W        W16159  39.813  25.051  13.492
56866W        W16160  13.121  30.619  11.911
56867W        W16161   9.762  41.441  11.500
56868W        W16162  23.545  43.839  11.108
56869W        W16163   2.798  21.147  14.771
56870W        W16164  19.185  44.908   0.954
56871W        W16165  28.558  29.509   2.775
56872W        W16166  30.976  31.633   3.159
56873W        W16167  35.857  37.848  12.972
56874W        W16168   1.823  14.229  13.885
56875W        W16169  26.142  18.217  10.628
56876W        W16170  23.623  39.531  11.862
56877W        W16171  10.310  30.987  13.461
56878W        W16172  25.047  32.436   3.712
56879W        W16173  38.977  37.997  12.845
56880W        W16174  31.456   1.926  13.018
56881W        W16175  26.082  27.131  14.349
56882W        W16176  44.882   0.261  12.373
56883W        W16177   5.202  28.595  14.007
56884W        W16178  21.538   5.353   1.835
56885W        W16179  13.262  22.044  10.094
56886W        W16180  35.081  17.246   2.327
56887W        W16181   8.718  36.380  10.618
56888W        W16182  10.834  34.600   0.948
56889W        W16183  19.257  33.912  13.038
56890W        W16184  39.918  39.331   3.184
56891W        W16185  40.340  23.186   1.416
56892W        W16186  26.644   9.366  13.029
56893W        W16187  32.118  30.587  10.440
56894W        W16188  38.852  28.068  13.980
56895W        W16189  21.250  32.426   3.692
56896W        W16190  44.991  44.781   0.822
56897W        W16191  23.181  31.547  14.366
56898W        W16192  24.087  38.890  13.853
56899W        W16193   8.782  38.537  12.892
56900W        W16194  19.585  17.700  14.886
56901W        W16195  23.685  26.163  14.922
56902W        W16196  17.676  41.017   1.907
56903W        W16197   3.724  33.577   1.707
56904W        W16198  23.092  12.824  10.442
56905W        W16199  30.628   3.407  11.416
56906W        W16200  20.601  15.614  13.526
56907W        W16201  34.037  19.052  14.421
56908W        W16202  42.353  23.500  11.060
56909W        W16203  32.885  26.497  13.017
56910W        W16204  23.526  40.857  10.514
56911W        W16205   2.862   1.446  10.447
56912W        W16206   1.771  15.693   0.414
56913W        W16207   4.823  44.453   2.741
56914W        W16208  10.234   0.277  10.576
56915W        W16209  44.473   6.869  14.406
56916W        W16210  34.908  43.013   3.207
56917W        W16211  38.848  20.659   2.404
56918W        W16212  36.465   7.814   0.341
56919W        W16213  27.041  11.243   3.273
56920W        W16214  14.831   2.449   3.293
56921W        W16215   9.848  18.601   2.798
56922W        W16216  18.148  33.086  12.463
56923W        W16217  32.406  34.396  12.835
56924W        W16218  11.289  40.905   1.915
56925W        W16219  35.989  31.055   5.302
56926W        W16220  16.623  23.182   0.398
56927W        W16221  29.558  34.466   3.198
56928W        W16222  34.930   1.464   4.349
56929W        W16223   7.277  22.588   0.268
56930W        W16224  20.111   2.391   4.660
56931W        W16225  18.753  22.216  13.417
56932W        W16226  33.391  15.738   0.836
56933W        W16227  41.424  44.284   0.415
56934W        W16228  11.780  28.538   5.316
56935W        W16229   7.853  37.476  12.437
56936W        W16230  38.925  15.300   3.779
56937W        W16231  31.028  10.278  10.908
56938W        W16232   4.897  41.030  14.788
56939W        W16233  32.560  31.914  11.972
56940W        W16234  42.423  42.008   2.349
56941W        W16235  24.515  40.503   4.610
56942W        W16236  19.750  40.487  10.442
56943W        W16237  15.610  25.155   0.352
56944W        W16238  25.038   5.341  10.442
56945W        W16239  42.310  33.003   2.402
56946W        W16240   3.427  14.807   1.275
56947W        W16241   0.444  21.571   2.846
56948W        W16242  14.793  19.773   4.823
56949W        W16243  40.011  40.337  13.480
56950W        W16244  10.810  30.972   3.227
56951W        W16245  21.747   6.896  12.472
56952W        W16246  13.313  41.395   3.381
56953W        W16247  12.705  16.080  12.363
56954W        W16248  36.027   1.867   1.855
56955W        W16249  17.789  38.018  11.425
56956W        W16250  40.833   8.667   3.716
56957W        W16251   5.233  34.512   3.181
56958W        W16252   7.817  30.072  11.492
56959W        W16253  17.207  21.251   3.733
56960W        W16254   4.775   1.292  12.567
56961W        W16255  39.401  31.154  12.464
56962W        W16256   0.283   7.342   1.930
56963W        W16257   9.186   8.694   1.710
56964W        W16258  22.114   2.822  12.908
56965W        W16259  26.593  44.330   3.311
56966W        W16260  42.292  37.501  13.811
56967W        W16261  24.002  21.617  14.775
56968W        W16262  43.796  10.353   0.796
56969W        W16263   3.440   7.747   0.277
56970W        W16264  26.535  27.033  10.917
56971W        W16265   1.423  22.179   1.866
56972W        W16266  38.343  36.392  14.955
56973W        W16267  19.051   9.845   3.677
56974W        W16268  18.563   7.904  13.033
56975W        W16269  40.464  35.492   2.349
56976W        W16270   5.202  21.148  13.529
56977W        W16271   2.359  35.588  14.816
56978W        W16272  19.565  25.157   1.211
56979W        W16273   9.249  21.232   4.208
56980W        W16274  14.702  11.185   2.284
56981W        W16275   5.759  30.521  13.360
56982W        W16276  36.052  29.475   2.229
56983W        W16277  30.129  39.560  13.861
56984W        W16278   0.443  22.561  14.818
56985W        W16279   4.809  36.022  11.950
56986W        W16280  15.715   7.880   2.664
56987W        W16281  25.096  41.434  14.311
56988W        W16282  30.613   6.321  13.936
56989W        W16283  40.513  20.675  12.977
56990W        W16284  10.366  39.873   3.251
56991W        W16285  36.361  44.868   3.375
56992W        W16286  33.469  25.600  11.975
56993W        W16287  42.496  23.083  11.505
56994W        W16288  37.526  42.985  12.549
56995W        W16289  26.959  42.869  11.093
56996W        W16290  32.493  26.643   3.278
56997W        W16291  38.562   9.866   3.847
56998W        W16292  38.355  15.086   0.347
56999W        W16293  36.488   3.414   5.238
57000W        W16294  18.597   3.228  12.049
57001W        W16295  19.265  13.127   2.402
57002W        W16296   6.352  41.325   0.400
57003W        W16297  13.802  30.955  10.481
57004W        W16298  20.077  27.542   2.368
57005W        W16299  12.261  20.220   0.321
57006W        W16300  10.661  15.207  14.917
57007W        W16301  34.907   0.803  12.852
57008W        W16302  21.563  13.249  10.581
57009W        W16303  43.967  30.150  12.578
57010W        W16304  39.981  43.337  14.918
57011W        W16305  35.564  35.950  12.456
57012W        W16306  43.981   9.243  13.362
57013W        W16307  36.558   7.882  12.430
57014W        W16308   4.859   5.867   2.408
57015W        W16309   8.298   8.769  11.092
57016W        W16310  25.684  20.180  14.913
57017W        W16311   6.234  11.781   5.264
57018W        W16312  28.474  14.808  12.833
57019W        W16313  44.409   9.882  12.537
57020W        W16314  31.044  30.556  11.089
57021W        W16315  34.377  36.909  11.527
57022W        W16316  12.201  43.391  11.563
57023W        W16317  41.315  28.966  13.404
57024W        W16318   4.875  23.721  13.420
57025W        W16319  42.524  17.174  14.370
57026W        W16320  34.875  19.046   0.416
57027W        W16321  41.970  25.471   0.281
57028W        W16322  23.541   6.426   1.782
57029W        W16323  41.348  43.820   0.372
57030W        W16324  34.573   3.418  11.480
57031W        W16325  15.720  38.426  14.351
57032W        W16326  25.000  14.218   4.191
57033W        W16327  21.213  13.303   0.755
57034W        W16328  22.501  15.276  13.882
57035W        W16329   5.756  21.065   3.155
57036W        W16330   7.783  31.081   2.186
57037W        W16331  25.041  19.079   2.227
57038W        W16332   8.717  42.346  14.288
57039W        W16333   4.409  11.732  11.022
57040W        W16334  29.557  16.604  13.883
57041W        W16335  33.533  37.568  11.516
57042W        W16336  32.497  41.506  12.427
57043W        W16337  23.727  37.870  13.062
57044W        W16338   7.367  35.438  14.882
57045W        W16339  25.575  17.125   0.937
57046W        W16340  25.188  42.520   0.793
57047W        W16341  14.700  35.541  12.029
57048W        W16342  35.889   0.976  12.489
57049W        W16343   5.311  28.473   3.374
57050W        W16344  24.018  29.027   3.827
57051W        W16345  11.714  35.396   3.686
57052W        W16346  35.516  22.588   3.211
57053W        W16347  14.735  24.495  11.894
57054W        W16348  42.012  33.571   1.768
57055W        W16349  44.317  44.489   3.255
57056W        W16350  25.050  11.831   0.946
57057W        W16351  11.627  25.517  13.496
57058W        W16352  12.802  35.515   2.321
57059W        W16353  31.992  26.585   5.114
57060W        W16354  16.092   6.791  10.941
57061W        W16355  26.588  27.599   0.731
57062W        W16356   5.269   9.830  10.492
57063W        W16357   4.439  19.277   1.286
57064W        W16358  29.059  13.609  13.526
57065W        W16359  11.346  22.194  12.399
57066W        W16360  10.308   8.677   1.929
57067W        W16361   3.312   7.779  10.639
57068W        W16362  13.809  37.054   0.935
57069W        W16363  41.386  17.694   2.405
57070W        W16364  23.677  20.144  11.469
57071W        W16365   2.308  19.636  12.863
57072W        W16366   9.664   6.746   3.352
57073W        W16367  28.560   2.356  12.521
57074W        W16368   6.296  16.214   4.304
57075W        W16369  16.179  24.186  11.898
57076W        W16370  16.152  31.553   1.787
57077W        W16371  11.137  17.103   2.726
57078W        W16372  14.297  41.338   0.322
57079W        W16373  15.258  44.797  14.489
57080W        W16374  26.007  21.656   3.210
57081W        W16375   8.889  40.842  13.057
57082W        W16376  24.723  42.017  13.381
57083W        W16377  19.042  21.218  10.050
57084W        W16378  24.984  24.092  13.009
57085W        W16379  19.707  20.740   4.817
57086W        W16380  39.330   6.898  11.071
57087W        W16381  24.589   1.383   0.374
57088W        W16382  13.140  18.554  14.780
57089W        W16383  36.467  30.538  11.479
57090W        W16384   4.890  21.210   0.795
57091W        W16385   0.819  36.430   3.318
57092W        W16386   2.798   9.764   4.115
57093W        W16387  40.491  26.603   2.255
57094W        W16388  18.243  43.357   0.265
57095W        W16389  28.947  30.439   2.391
57096W        W16390  29.080  28.581   2.211
57097W        W16391  24.499  17.190   0.892
57098W        W16392  27.634   8.366  12.968
57099W        W16393   9.834  18.116   4.638
57100W        W16394  26.182  14.144  11.382
57101W        W16395  27.941   8.893   4.330
57102W        W16396  27.532  28.972   3.841
57103W        W16397   1.337   2.406  14.291
57104W        W16398  29.638  34.451   4.785
57105W        W16399  10.359  12.718  10.107
57106W        W16400  42.526  44.304  14.330
57107W        W16401  38.946  26.670  10.476
57108W        W16402   3.308  32.978  13.489
57109W        W16403  20.623   1.264   1.372
57110W        W16404  10.315   3.760  14.992
57111W        W16405  36.874   6.321  11.910
57112W        W16406  19.768  33.596  13.933
57113W        W16407   5.396  25.492  11.473
57114W        W16408  33.609  39.447   1.853
57115W        W16409  30.937  31.539   4.806
57116W        W16410  43.474   6.756   0.821
57117W        W16411   9.779  33.977  14.007
57118W        W16412  29.453  35.485  13.940
57119W        W16413  15.676  28.617   3.312
57120W        W16414  23.074  27.642  14.428
57121W        W16415  21.093   7.846  10.461
57122W        W16416  10.703  37.376   2.772
57123W        W16417  11.233  20.652  14.883
57124W        W16418  10.876  38.873  13.986
57125W        W16419  40.439  16.757  12.959
57126W        W16420  31.448  22.180   0.390
57127W        W16421  42.318  18.678  11.971
57128W        W16422  36.059  24.534   2.384
57129W        W16423  25.201  38.024  10.440
57130W        W16424   4.385   0.968  10.558
57131W        W16425  29.976   6.388   4.261
57132W        W16426  19.111  20.122  13.836
57133W        W16427  21.091  14.179   4.731
57134W        W16428  17.666  44.794  13.822
57135W        W16429  13.691  29.628  13.939
57136W        W16430  39.017   3.392   4.760
57137W        W16431   0.459  12.627  14.985
57138W        W16432  23.005  17.717  13.923
57139W        W16433  33.415  39.518   4.277
57140W        W16434  15.310  27.163  13.879
57141W        W16435  20.641  24.200  11.437
57142W        W16436  22.704  33.428  14.443
57143W        W16437  37.562  25.710  13.901
57144W        W16438  25.509  43.840   0.398
57145W        W16439  13.608  29.527   3.320
57146W        W16440   4.337  32.124   3.781
57147W        W16441   0.748  30.071  11.879
57148W        W16442   5.349  24.058   0.827
57149W        W16443  22.661   4.208   3.178
57150W        W16444  41.400  13.161   2.827
57151W        W16445  22.149  24.996  13.394
57152W        W16446  13.619  15.598  10.601
57153W        W16447  10.669  43.395  11.126
57154W        W16448  25.975  19.114   0.904
57155W        W16449   7.305  29.662  10.988
57156W        W16450  38.388  37.437   3.861
57157W        W16451  30.651   8.783  11.081
57158W        W16452  13.682  33.946   1.272
57159W        W16453  34.997  20.620  13.042
57160W        W16454   8.761  37.081  12.949
57161W        W16455  15.196  42.470  11.388
57162W        W16456  11.741  29.006   2.792
57163W        W16457  44.432  40.933  13.973
57164W        W16458  14.828   2.270   1.426
57165W        W16459  42.849  35.041  12.833
57166W        W16460  30.064  25.007  12.859
57167W        W16461   5.268  30.129  13.319
57168W        W16462  27.456  15.153   2.202
57169W        W16463  22.025   6.221   2.253
57170W        W16464  44.439  39.958   3.270
57171W        W16465  44.786  18.640  12.997
57172W        W16466   1.334  30.530  12.914
57173W        W16467  14.240  12.709  12.420
57174W        W16468   7.204  23.073  14.296
57175W        W16469   4.777   3.812  10.638
57176W        W16470   9.802   3.739  12.922
57177W        W16471   5.366  26.039  10.510
57178W        W16472  24.021   2.961  14.415
57179W        W16473  18.073  15.164   5.117
57180W        W16474  31.617   3.948   3.839
57181W        W16475  24.135  22.207   2.794
57182W        W16476  28.583   1.251  14.514
57183W        W16477  32.033  24.071  13.356
57184W        W16478  39.332   5.755   1.920
57185W        W16479  12.721  12.794  14.415
57186W        W16480  31.946  28.604   0.470
57187W        W16481  25.575  14.751   0.369
57188W        W16482  37.541  15.683   3.636
57189W        W16483  16.278  19.755  13.526
57190W        W16484  12.757   0.843  14.916
57191W        W16485   5.779  16.115  12.993
57192W        W16486  25.999  32.444   0.340
57193W        W16487  27.560  26.481  14.347
57194W        W16488  38.006  27.180  11.969
57195W        W16489  42.338  44.827  12.392
57196W        W16490  24.654   3.713  14.332
57197W        W16491   1.939  43.303  10.896
57198W        W16492  20.189  17.710  14.277
57199W        W16493  22.698   2.304   0.816
57200W        W16494  21.590  27.449   2.685
57201W        W16495  11.261  40.402   4.621
57202W        W16496  23.236  41.501   3.298
57203W        W16497  20.567  24.511   2.240
57204W        W16498   5.437  13.802   1.808
57205W        W16499  20.164  32.495  11.939
57206W        W16500  25.995  42.783  11.495
57207W        W16501  12.327  39.843  12.429
57208W        W16502  23.631  39.382  13.009
57209W        W16503  21.148  15.152   0.812
57210W        W16504  17.693   0.947   3.268
57211W        W16505  38.420  43.365   3.742
57212W        W16506  31.004  43.897  14.477
57213W        W16507  10.155  25.659   1.896
57214W        W16508  28.973  13.616  10.578
57215W        W16509  26.030   4.744   1.751
57216W        W16510   6.403  22.162   0.913
57217W        W16511   5.239   7.742  14.424
57218W        W16512   8.386   9.645  10.527
57219W        W16513  39.957  33.487   2.889
57220W        W16514   1.744   7.693  14.781
57221W        W16515  11.865  19.737   5.283
57222W        W16516   6.795   3.361  10.434
57223W        W16517  36.537  18.205   3.854
57224W        W16518  15.798  43.841  13.907
57225W        W16519  21.063  19.707  13.893
57226W        W16520  18.584  24.192   1.863
57227W        W16521  14.695  23.568  11.426
57228W        W16522  36.425  44.963  11.946
57229W        W16523  24.065  12.234   2.343
57230W        W16524  36.390  39.317   3.308
57231W        W16525  44.427  40.875  14.373
57232W        W16526  12.741   5.314  11.071
57233W        W16527   3.793  22.690   3.753
57234W        W16528  38.571  24.539  14.459
57235W        W16529  12.733  18.713   2.410
57236W        W16530   4.816   7.229  10.127
57237W        W16531  24.168  10.651   1.280
57238W        W16532   4.249   7.827   2.862
57239W        W16533  27.088  28.470  11.554
57240W        W16534  30.907  32.433   4.139
57241W        W16535  28.977  32.526   2.873
57242W        W16536   6.299  34.516   2.185
57243W        W16537  44.977  10.642  13.997
57244W        W16538  17.224  34.969   0.393
57245W        W16539  15.182  23.226  13.420
57246W        W16540  26.106   5.798  13.004
57247W        W16541  20.589  17.665   1.833
57248W        W16542  16.103  16.289  13.023
57249W        W16543   5.419  13.247  13.372
57250W        W16544  38.452  29.029   3.170
57251W        W16545  26.550  22.172   1.733
57252W        W16546   2.320  17.650   3.679
57253W        W16547  16.677   5.304   4.228
57254W        W16548   8.727  33.955   3.273
57255W        W16549  44.922  29.530   3.337
57256W        W16550  18.575   9.301  13.475
57257W        W16551  19.600  21.115   0.472
57258W        W16552  10.262  24.658  14.012
57259W        W16553  10.303  16.286  12.041
57260W        W16554  34.463  28.115   2.332
57261W        W16555  17.208  19.084   1.807
57262W        W16556  23.596  33.420  13.417
57263W        W16557  33.103  23.690  12.500
57264W        W16558  22.233   8.878  12.475
57265W        W16559  34.606  21.212  10.492
57266W        W16560  30.152  30.165  13.848
57267W        W16561  35.914  36.486  14.434
57268W        W16562  28.500  37.460  10.969
57269W        W16563  36.518  35.063   0.747
57270W        W16564  23.124  42.805   5.227
57271W        W16565  18.627  28.680  13.992
57272W        W16566  24.042  39.907  14.809
57273W        W16567  40.304  15.240   3.871
57274W        W16568   8.346   6.248  13.425
57275W        W16569   5.294  13.614  14.801
57276W        W16570  18.113  19.700   3.367
57277W        W16571  43.511  32.565  14.938
57278W        W16572  40.402  13.206   4.715
57279W        W16573  39.914  11.275   0.917
57280W        W16574  29.435  15.645   1.394
57281W        W16575  16.076  18.218  11.047
57282W        W16576  12.278   5.370   4.828
57283W        W16577  39.853  31.423   0.415
57284W        W16578  13.128  28.103   2.404
57285W        W16579  13.341  14.251  12.957
57286W        W16580   8.757  38.997   4.641
57287W        W16581  30.944  15.126   4.808
57288W        W16582  34.605  31.097  13.960
57289W        W16583  31.558  28.446  14.294
57290W        W16584  42.793  38.894   0.964
57291W        W16585   9.817  42.872  12.824
57292W        W16586  20.267  12.705  14.762
57293W        W16587   7.710  11.721  12.525
57294W        W16588  34.977  31.048  11.545
57295W        W16589  26.664  32.459  11.999
57296W        W16590  19.269  14.249   4.192
57297W        W16591  30.058   5.236   3.740
57298W        W16592  23.100  11.217  12.037
57299W        W16593   4.404  25.690   4.327
57300W        W16594   5.282  29.567  13.814
57301W        W16595  20.243  18.546   4.252
57302W        W16596  41.804  30.018  12.089
57303W        W16597  21.530  38.334  14.336
57304W        W16598  20.225  22.046  14.291
57305W        W16599   6.328  32.429  14.502
57306W        W16600  23.535  30.587   4.818
57307W        W16601   3.281  20.075  11.494
57308W        W16602   5.735  19.201   2.329
57309W        W16603  20.574  10.380   1.391
57310W        W16604   5.339   8.765  14.967
57311W        W16605  25.201  30.093   4.205
57312W        W16606  12.165  15.318  10.624
57313W        W16607  21.584  31.150   3.309
57314W        W16608  11.201  26.508   3.676
57315W        W16609  36.575  39.389   3.639
57316W        W16610  40.924  20.183  10.562
57317W        W16611  26.000   4.445   3.666
57318W        W16612  28.681  11.167  13.042
57319W        W16613  33.390   0.407   3.272
57320W        W16614  24.226  37.894   1.907
57321W        W16615  43.381  31.481  12.404
57322W        W16616  21.123  18.179   4.799
57323W        W16617   9.355  40.036   1.346
57324W        W16618  36.540  30.968  10.572
57325W        W16619   2.741  16.596   3.791
57326W        W16620  28.601  44.397   2.819
57327W        W16621  11.737  37.988  13.503
57328W        W16622  10.774  21.245   2.416
57329W        W16623  12.309  37.995  14.490
57330W        W16624  13.816  40.968   1.374
57331W        W16625  21.174  27.191   1.790
57332W        W16626  16.155   6.396   1.709
57333W        W16627  17.713  39.477  11.943
57334W        W16628   4.846  42.407  13.482
57335W        W16629  41.899   4.402  11.005
57336W        W16630  41.534  25.993   3.860
57337W        W16631  37.063   5.345   2.409
57338W        W16632  16.281  41.838  10.562
57339W        W16633  15.225  38.346  13.445
57340W        W16634  41.371  30.932   0.372
57341W        W16635  25.515  25.496  13.344
57342W        W16636  41.318   2.743  10.501
57343W        W16637   1.321  29.534  13.968
57344W        W16638  33.040  43.344  12.090
57345W        W16639  13.237  39.830   2.788
57346W        W16640  27.648  10.849  11.114
57347W        W16641  43.889   8.881   4.675
57348W        W16642  41.518   8.374   2.681
57349W        W16643   9.351  44.769  11.480
57350W        W16644  16.688  37.405  13.052
57351W        W16645  15.151  33.390  14.972
57352W        W16646  13.228  26.603  14.370
57353W        W16647  21.570  16.783  14.993
57354W        W16648  34.112  33.549  13.326
57355W        W16649  34.981   8.789  13.537
57356W        W16650  25.653   3.950  12.565
57357W        W16651  44.295   1.884   1.762
57358W        W16652  23.644  12.717  11.912
57359W        W16653  18.659   5.707  13.934
57360W        W16654  39.502  13.778  13.404
57361W        W16655  31.907  16.203  14.391
57362W        W16656  34.540  28.140   2.711
57363W        W16657   9.351   6.190   3.655
57364W        W16658  16.200  43.824  12.832
57365W        W16659   1.825  21.632  11.101
57366W        W16660   3.323   5.867   3.817
57367W        W16661  23.613  19.260   2.410
57368W        W16662  28.675  26.503  13.828
57369W        W16663   5.750  35.929  10.463
57370W        W16664  34.494  22.533  12.054
57371W        W16665  34.023   4.870  11.885
57372W        W16666   3.304  37.395   2.774
57373W        W16667  17.679  10.333   0.804
57374W        W16668  15.792   9.343  11.563
57375W        W16669   5.371  10.829  13.377
57376W        W16670  34.892   5.863  13.539
57377W        W16671  16.304  26.664   3.177
57378W        W16672  31.063   3.334   3.384
57379W        W16673  22.569  29.130   2.729
57380W        W16674   5.309  11.342   3.274
57381W        W16675   8.406  11.645   4.324
57382W        W16676  11.719  27.470  10.996
57383W        W16677  25.535  11.240  11.991
57384W        W16678   6.731  25.604  10.574
57385W        W16679  11.668  20.645  12.036
57386W        W16680  42.288  43.989   2.672
57387W        W16681   8.196  26.064   4.321
57388W        W16682  27.498  42.848  13.469
57389W        W16683   5.227  13.327  12.865
57390W        W16684   7.680  42.987   1.368
57391W        W16685   0.929  21.259   4.223
57392W        W16686  37.968  27.683   2.738
57393W        W16687  34.066   6.208  14.007
57394W        W16688  34.449  35.860   5.228
57395W        W16689  30.984  35.083  12.835
57396W        W16690  31.413  12.248  15.000
57397W        W16691  25.026  37.984   2.899
57398W        W16692  11.753  18.125  14.792
57399W        W16693  42.483  31.565   1.762
57400W        W16694   4.360  25.530  12.025
57401W        W16695   6.363  42.515   0.351
57402W        W16696  20.648  26.966   1.405
57403W        W16697   0.864  19.718  12.021
57404W        W16698  31.059  14.647   0.340
57405W        W16699  17.155   2.325  13.040
57406W        W16700  23.496   1.740  13.861
57407W        W16701   4.221  13.222  13.878
57408W        W16702  29.498  28.166  12.527
57409W        W16703  10.208  21.652   3.255
57410W        W16704  36.073  29.008   1.233
57411W        W16705   8.226  13.816  13.421
57412W        W16706   7.209   8.174   4.616
57413W        W16707  15.170  16.227  10.893
57414W        W16708  28.183  44.371  10.919
57415W        W16709  36.072  42.956  12.858
57416W        W16710  22.653  14.179   4.781
57417W        W16711   5.769  11.340  13.308
57418W        W16712  15.641  35.521  12.920
57419W        W16713   7.757  39.420  14.802
57420W        W16714  12.311   6.313   4.242
57421W        W16715  31.942  39.319   1.321
57422W        W16716  13.660   0.867   2.867
57423W        W16717  19.242   6.311   4.770
57424W        W16718   4.808   5.208   2.384
57425W        W16719   8.199  28.529  14.414
57426W        W16720  15.146   7.726  11.596
57427W        W16721  22.572  13.303  12.504
57428W        W16722  32.610  20.259  13.893
57429W        W16723  18.263  11.203  12.514
57430W        W16724  31.501  42.356  13.889
57431W        W16725   2.879  25.501  14.418
57432W        W16726   4.872  35.033  12.388
57433W        W16727  12.129   6.757  10.532
57434W        W16728  16.143  13.771   1.864
57435W        W16729  26.965  36.064   2.670
57436W        W16730  20.179   1.479  10.567
57437W        W16731  30.105   5.224   3.360
57438W        W16732  40.998   8.754   1.797
57439W        W16733  31.480  11.637  11.929
57440W        W16734  19.622  29.018   0.868
57441W        W16735  44.486  26.109  10.521
57442W        W16736  17.133  32.102  13.331
57443W        W16737  18.757  36.387   4.200
57444W        W16738  13.766  33.115  14.029
57445W        W16739  35.046  44.865  12.417
57446W        W16740   3.425   2.258   3.323
57447W        W16741  29.002  32.412  12.977
57448W        W16742   9.192   9.701  12.442
57449W        W16743  23.129  39.416  14.815
57450W        W16744  13.608  31.626  11.009
57451W        W16745   6.252  35.094   3.673
57452W        W16746   8.265   6.793  11.894
57453W        W16747  43.857   8.894   5.201
57454W        W16748  39.002  31.918   3.187
57455W        W16749  38.002  29.928  11.575
57456W        W16750  38.014  16.774  11.391
57457W        W16751   4.397  37.464  11.039
57458W        W16752  31.921  23.113   2.860
57459W        W16753  35.549  17.075  14.815
57460W        W16754  23.020  39.819  14.893
57461W        W16755  29.531  26.584   1.870
57462W        W16756  13.319  10.869   0.459
57463W        W16757  21.202  31.154   0.872
57464W        W16758  14.263  16.628  12.473
57465W        W16759   8.240   5.779   4.265
57466W        W16760  27.976  27.496  12.971
57467W        W16761   2.248  33.485   1.806
57468W        W16762  37.342  23.637  10.084
57469W        W16763  43.793   4.870   3.706
57470W        W16764  15.174  26.966   3.344
57471W        W16765  13.752  42.286  12.381
57472W        W16766  38.433  37.070   0.327
57473W        W16767  15.260   0.918   4.781
57474W        W16768  22.221  26.590  11.108
57475W        W16769  42.018  22.087  13.425
57476W        W16770  19.543  32.525   0.416
57477W        W16771  42.812  26.534  12.974
57478W        W16772  15.700  39.512   3.724
57479W        W16773  34.473  12.172  11.042
57480W        W16774   7.898  13.808  11.461
57481W        W16775  38.883  12.765   0.404
57482W        W16776  26.588  41.465   2.687
57483W        W16777  38.019  22.130  12.994
57484W        W16778  15.228   5.859  14.859
57485W        W16779  29.653  41.358  10.018
57486W        W16780  19.042   5.854   2.680
57487W        W16781   0.274  42.893  13.343
57488W        W16782  39.315  42.895  14.832
57489W        W16783  26.991  21.549   3.759
57490W        W16784   1.269  23.693   0.358
57491W        W16785  37.954  29.962  11.889
57492W        W16786   3.264  35.455   4.237
57493W        W16787   9.670  23.599   3.852
57494W        W16788  32.985  35.087  14.767
57495W        W16789  14.284  42.514  11.985
57496W        W16790  42.304   4.934  14.488
57497W        W16791   6.714   4.821  10.554
57498W        W16792  23.493  32.944   0.864
57499W        W16793  29.051  12.854   4.225
57500W        W16794  12.854  37.897   2.305
57501W        W16795   1.919  21.622  11.410
57502W        W16796  43.810  11.699  13.455
57503W        W16797   8.276  37.529  12.862
57504W        W16798  23.222  38.424   1.727
57505W        W16799  13.260   0.810   4.311
57506W        W16800  35.041  41.500  13.526
57507W        W16801  15.300  19.280  14.888
57508W        W16802  34.058  41.906  11.022
57509W        W16803   8.698  20.028   2.203
57510W        W16804  26.111  24.496  12.076
57511W        W16805  26.695  42.918   2.377
57512W        W16806  23.624  32.482   2.377
57513W        W16807  39.048  14.833   3.870
57514W        W16808   9.780  20.547  12.481
57515W        W16809  43.020  43.417   0.313
57516W        W16810   1.805  21.729   4.633
57517W        W16811  20.669  11.766  13.040
57518W        W16812   4.770  32.483   0.396
57519W        W16813  36.895  13.703   4.704
57520W        W16814  32.577  10.857  12.950
57521W        W16815  29.646  13.179  13.434
57522W        W16816  35.589   6.427   2.848
57523W        W16817  37.957   7.386  14.476
57524W        W16818  44.294  44.310   2.820
57525W        W16819  17.670  11.136   4.653
57526W        W16820   2.402  32.587   0.458
57527W        W16821  14.098  25.617  12.014
57528W        W16822   8.844  29.168   0.844
57529W        W16823  14.803  14.639  13.043
57530W        W16824  22.133  33.062  12.436
57531W        W16825  26.030   7.323   3.839
57532W        W16826   5.265  11.653   4.285
57533W        W16827  29.554  17.151   0.373
57534W        W16828  34.573  36.384   1.778
57535W        W16829  19.261  34.926   1.763
57536W        W16830  34.043   6.261  10.896
57537W        W16831  39.433  25.119  12.495
57538W        W16832  26.122  19.219   1.377
57539W        W16833  16.621  33.883   3.704
57540W        W16834  36.519  41.976   2.395
57541W        W16835  43.867  43.014  10.612
57542W        W16836  44.386   2.802  12.832
57543W        W16837  13.724  39.061  10.612
57544W        W16838  34.490   1.369   4.273
57545W        W16839  38.054  31.550  10.517
57546W        W16840  42.032  26.613  12.837
57547W        W16841   5.894  15.115   4.146
57548W        W16842  34.508   1.414  13.504
57549W        W16843  17.565  14.725   2.245
57550W        W16844  18.719   6.308  14.977
57551W        W16845  11.176  23.701   1.792
57552W        W16846  39.909  32.040  13.498
57553W        W16847  40.873  28.449  10.533
57554W        W16848  30.515  33.091  11.977
57555W        W16849  43.319  37.496  13.810
57556W        W16850  21.158  44.911   3.321
57557W        W16851   3.928  42.997   0.353
57558W        W16852  24.648  33.483  14.781
57559W        W16853  32.096  38.829  12.872
57560W        W16854  16.799  19.190   4.118
57561W        W16855  25.172  18.262  12.436
57562W        W16856  26.579  10.820   0.472
57563W        W16857  28.608   3.390   4.827
57564W        W16858  25.691  14.223   4.602
57565W        W16859  20.166   1.333   2.294
57566W        W16860  33.881  26.981  11.610
57567W        W16861  28.667  24.059  11.956
57568W        W16862  28.123  27.134  13.824
57569W        W16863  37.060  26.086   1.308
57570W        W16864  10.325  20.551   3.362
57571W        W16865  12.679  44.845  14.887
57572W        W16866   6.712  31.958  13.930
57573W        W16867  25.659  20.245   1.775
57574W        W16868   8.780  19.741   0.276
57575W        W16869   3.828   1.902  12.921
57576W        W16870  43.831  22.595   2.394
57577W        W16871  11.765  31.024  14.995
57578W        W16872   0.859  44.892   3.211
57579W        W16873  43.872  31.124   2.841
57580W        W16874  27.940  12.820  13.349
57581W        W16875  29.561  41.462   5.292
57582W        W16876  28.582   0.798  14.306
57583W        W16877  12.313  31.520  10.543
57584W        W16878  32.406  38.825  13.397
57585W        W16879  38.477  34.863   3.661
57586W        W16880  19.565  41.520   1.297
57587W        W16881   8.762  20.072   9.460
57588W        W16882  20.736   1.734   1.742
57589W        W16883  34.871  31.014   0.907
57590W        W16884  15.702  32.142   5.164
57591W        W16885   6.393  19.173  11.428
57592W        W16886  42.013  39.405  12.824
57593W        W16887  41.930  22.080   3.240
57594W        W16888  15.279  16.128   4.733
57595W        W16889  18.774  11.242  13.903
57596W        W16890  37.383   8.707  13.353
57597W        W16891  32.038  15.778   0.382
57598W        W16892  19.183  40.341   4.135
57599W        W16893  40.367  41.536   2.383
57600W        W16894   4.842  42.879  13.858
57601W        W16895   3.722  22.540  14.344
57602W        W16896  10.872  42.322  13.931
57603W        W16897   6.760  41.326   2.320
57604W        W16898  36.477  14.822   4.737
57605W        W16899   1.396  10.216  12.983
57606W        W16900  15.321  14.256  13.424
57607W        W16901  20.582  17.777  14.389
57608W        W16902  17.093  44.983  11.430
57609W        W16903  10.200  27.022  14.898
57610W        W16904  13.238  43.001  10.099
57611W        W16905  16.668  23.014  12.341
57612W        W16906  41.802  14.153  14.826
57613W        W16907  40.399   0.933   5.168
57614W        W16908  42.876   9.775   0.750
57615W        W16909  20.194  30.599   0.317
57616W        W16910  43.021  14.240   1.416
57617W        W16911  34.407   9.754   4.153
57618W        W16912   9.693  22.533   1.897
57619W        W16913  16.083  36.072   1.885
57620W        W16914  12.828  24.011  11.948
57621W        W16915  31.904  26.488  10.485
57622W        W16916  12.119   4.442   2.753
57623W        W16917  29.424  10.236   5.283
57624W        W16918  43.954  40.541  12.889
57625W        W16919  39.974  25.039  11.921
57626W        W16920  25.528  31.500   4.204
57627W        W16921  41.787  12.306   4.777
57628W        W16922  32.939  23.628  11.404
57629W        W16923  43.846  12.636   1.280
57630W        W16924  21.707  31.559  13.827
57631W        W16925  39.385   4.218   2.856
57632W        W16926   0.878  29.984   4.219
57633W        W16927   0.367  43.506  13.862
57634W        W16928  14.262  33.389   3.856
57635W        W16929  43.485  22.649  14.880
57636W        W16930  41.352   4.287   1.892
57637W        W16931  14.722  41.796   2.244
57638W        W16932  19.251  21.243   3.381
57639W        W16933  31.402  36.860   3.210
57640W        W16934  22.998  12.699  12.878
57641W        W16935   5.796  22.195  12.435
57642W        W16936  14.609  21.700   3.170
57643W        W16937  25.651  40.508  14.870
57644W        W16938  42.973  21.756   3.204
57645W        W16939  28.619  34.092  14.839
57646W        W16940  20.089  26.509  11.898
57647W        W16941   2.732  14.646   0.870
57648W        W16942  14.291  44.400  14.900
57649W        W16943  33.598  21.707  13.513
57650W        W16944   3.324  14.638  14.825
57651W        W16945  16.261   7.389   0.302
57652W        W16946   3.259  16.182   1.372
57653W        W16947   1.732  39.345  13.897
57654W        W16948  34.887  26.116  12.979
57655W        W16949  31.085  15.817   9.975
57656W        W16950  36.093  26.153   2.414
57657W        W16951  33.542   5.317   4.119
57658W        W16952   3.902  33.109  10.978
57659W        W16953  44.934   4.396   3.352
57660W        W16954  35.043  33.564  13.940
57661W        W16955  25.557  16.296   1.325
57662W        W16956  16.213  30.522  11.022
57663W        W16957  24.215  30.109   1.847
57664W        W16958  42.343   5.383  10.573
57665W        W16959  13.287  24.220   2.309
57666W        W16960  29.624  39.012  14.841
57667W        W16961  37.952  19.646   0.334
57668W        W16962  25.178   7.242  10.489
57669W        W16963  25.634  39.402  14.780
57670W        W16964  34.451  17.709  14.904
57671W        W16965  10.219  18.635   2.729
57672W        W16966  41.843  17.281   3.172
57673W        W16967  24.147  35.956   5.294
57674W        W16968  28.983  22.606   2.352
57675W        W16969  39.351   1.460  10.504
57676W        W16970   5.818   8.234   2.862
57677W        W16971   0.303   7.846   4.678
57678W        W16972   2.415  15.734   0.294
57679W        W16973  13.686  38.945   3.186
57680W        W16974  33.072  19.270  13.894
57681W        W16975   2.322  39.959   3.282
57682W        W16976  15.797   1.883   3.862
57683W        W16977   2.429  29.127   0.822
57684W        W16978   9.798  23.626  12.349
57685W        W16979  12.827   1.793   2.899
57686W        W16980  39.511  10.879  14.891
57687W        W16981  12.835   4.718  10.463
57688W        W16982  34.899  26.595   5.211
57689W        W16983  25.557  10.767   1.801
57690W        W16984  26.059  26.627  12.852
57691W        W16985  42.349   2.318  11.855
57692W        W16986  31.146   4.808  11.468
57693W        W16987  43.797  42.865  12.472
57694W        W16988  39.026   1.365   3.248
57695W        W16989  29.086  35.101  11.524
57696W        W16990  33.999  13.662   3.335
57697W        W16991  19.273  32.895  14.443
57698W        W16992  37.986  22.724  12.824
57699W        W16993  17.287  31.041  12.963
57700W        W16994   3.418   4.291   1.705
57701W        W16995  27.119  27.650  11.912
57702W        W16996  22.145  12.180   4.119
57703W        W16997  30.505  27.192   3.834
57704W        W16998  36.867  19.723  12.345
57705W        W16999  11.206  19.104   3.808
57706W        W17000  12.739   3.715  11.989
57707W        W17001  40.538   0.758   4.169
57708W        W17002  32.524  12.186  12.093
57709W        W17003  16.133   2.279  11.018
57710W        W17004  35.924  39.041   1.770
57711W        W17005  44.780   4.713  14.985
57712W        W17006  23.122  16.813  12.999
57713W        W17007  37.523  44.432  14.283
57714W        W17008  31.594  16.223  11.881
57715W        W17009  27.019  11.866  13.316
57716W        W17010  19.677  43.275  14.902
57717W        W17011  26.546  18.608   0.961
57718W        W17012  13.350  30.025  13.548
57719W        W17013   5.386  44.338   0.766
57720W        W17014  15.709  40.977   1.359
57721W        W17015   1.968  24.554   4.285
57722W        W17016  37.949  18.577  12.839
57723W        W17017  21.088   0.353   4.745
57724W        W17018   9.848  43.930   2.370
57725W        W17019  17.667  42.484   0.425
57726W        W17020  27.452  40.397  12.394
57727W        W17021  10.834  25.148  10.518
57728W        W17022  12.317  31.917   3.233
57729W        W17023   2.845  18.544  13.464
57730W        W17024  11.649   6.355   4.283
57731W        W17025  23.123  39.486  11.061
57732W        W17026  12.257  28.080  13.971
57733W        W17027  17.169   9.191  11.975
57734W        W17028  29.932  42.406   3.323
57735W        W17029  16.656  34.414  12.990
57736W        W17030  41.442   7.281  10.916
57737W        W17031  21.604  40.815  12.014
57738W        W17032  28.604  43.910  14.456
57739W        W17033  33.072  39.047  10.069
57740W        W17034  35.418  36.583   3.819
57741W        W17035  20.253  17.568   1.843
57742W        W17036  26.650  14.274   1.918
57743W        W17037  17.732  20.704   2.895
57744W        W17038   4.448  23.205   2.378
57745W        W17039   7.895  10.265   0.885
57746W        W17040  14.310   5.268  14.490
57747W        W17041  14.230   4.726   3.372
57748W        W17042  31.007  37.988   1.753
57749W        W17043  30.057  21.693  13.345
57750W        W17044  20.223  44.490  13.312
57751W        W17045  19.156  17.180  14.511
57752W        W17046  14.273   3.244  14.476
57753W        W17047  18.739  24.221  13.336
57754W        W17048  34.424  38.448  10.579
57755W        W17049   3.359  33.430   5.253
57756W        W17050  26.607   2.874  14.912
57757W        W17051   5.382  31.951  11.530
57758W        W17052  27.644  40.410  13.505
57759W        W17053   7.873   2.964  10.911
57760W        W17054  29.629  10.792  14.924
57761W        W17055  34.373  34.865  13.945
57762W        W17056  26.972  21.606   2.861
57763W        W17057  32.493  41.482  13.451
57764W        W17058  41.354  20.706   3.764
57765W        W17059  14.178  34.609   3.374
57766W        W17060  10.179  41.483   3.794
57767W        W17061  38.552  27.533  12.548
57768W        W17062  20.054  27.987  10.529
57769W        W17063  17.676  20.654   3.784
57770W        W17064  21.180  31.972   0.264
57771W        W17065  36.938  13.137  13.426
57772W        W17066  30.932  26.108   1.798
57773W        W17067   9.758  38.521   0.967
57774W        W17068   3.938  22.088  13.404
57775W        W17069   4.710  34.878  13.891
57776W        W17070  15.248  29.492  11.536
57777W        W17071  42.485  44.424   0.286
57778W        W17072  42.029  26.700  10.915
57779W        W17073  31.088  17.625   3.222
57780W        W17074  24.086   6.752   0.826
57781W        W17075  18.095  38.011  12.043
57782W        W17076  20.664  26.621  14.949
57783W        W17077  33.384  15.277   3.643
57784W        W17078  25.175  25.185  10.424
57785W        W17079  30.492  24.070   4.141
57786W        W17080  40.479  10.792   3.191
57787W        W17081  31.411   2.421  10.433
57788W        W17082  31.041   2.393  14.425
57789W        W17083  42.900  10.694  12.960
57790W        W17084  33.950  15.164   0.751
57791W        W17085   8.311  34.439  13.956
57792W        W17086  15.178  20.223   0.418
57793W        W17087  36.505  10.799  10.024
57794W        W17088   0.397  17.281   4.335
57795W        W17089  38.833  13.233  12.005
57796W        W17090  42.928  12.619   2.861
57797W        W17091  29.930  12.201   1.817
57798W        W17092  36.410  11.862  14.799
57799W        W17093  40.313  24.165   4.319
57800W        W17094  25.046  23.201   2.181
57801W        W17095  12.825  40.418   2.289
57802W        W17096  26.610  31.446  14.912
57803W        W17097  11.225   9.299  13.011
57804W        W17098  24.674   6.858  12.013
57805W        W17099  14.634  39.418   1.371
57806W        W17100   5.221  30.066  10.916
57807W        W17101  12.835  22.195  14.875
57808W        W17102  28.179  23.072  10.456
57809W        W17103  36.436  37.445   2.333
57810W        W17104  29.478  16.089  12.884
57811W        W17105  14.325   0.869   3.356
57812W        W17106  10.263   7.322  12.541
57813W        W17107  25.613   0.444   4.250
57814W        W17108   7.831  29.587   2.385
57815W        W17109  35.995  23.188  14.430
57816W        W17110  30.629   4.410   2.826
57817W        W17111  36.357  24.029  13.966
57818W        W17112   6.263  16.290  10.442
57819W        W17113  25.496  25.477   0.315
57820W        W17114  22.227  14.271  12.823
57821W        W17115  15.579  30.645  13.932
57822W        W17116  38.832  41.442  14.397
57823W        W17117   5.851  38.843  14.011
57824W        W17118  28.125  11.223  12.858
57825W        W17119  32.512  15.584   4.661
57826W        W17120  38.563  21.689  14.765
57827W        W17121  31.506  12.146   0.865
57828W        W17122  17.773  20.082   2.205
57829W        W17123  12.787  22.706   4.667
57830W        W17124  39.032  25.968  12.905
57831W        W17125  35.911  12.786  12.411
57832W        W17126  35.405  24.067  10.963
57833W        W17127  12.834  13.612   2.842
57834W        W17128  11.360   0.484   2.211
57835W        W17129  25.499  36.035   4.619
57836W        W17130  35.362  38.440  12.088
57837W        W17131  26.005   9.666   3.177
57838W        W17132  18.288  21.099   2.799
57839W        W17133  17.208  17.274   3.315
57840W        W17134  10.380  14.103  13.455
57841W        W17135   9.886   8.695  13.336
57842W        W17136   6.369   6.869  11.018
57843W        W17137  28.580  23.115   1.272
57844W        W17138  34.519  36.576   4.601
57845W        W17139  29.636  26.107   0.788
57846W        W17140  36.924   6.296   0.464
57847W        W17141   1.481  44.941   3.315
57848W        W17142  10.180   4.267  10.900
57849W        W17143  27.124  38.862   0.953
57850W        W17144   2.263  37.421  12.343
57851W        W17145  26.157   1.759   4.294
57852W        W17146   1.939  13.314  11.880
57853W        W17147  35.359  33.128  13.512
57854W        W17148  37.569  31.897  13.046
57855W        W17149  15.100  33.998  12.946
57856W        W17150  16.698  43.426  10.524
57857W        W17151   0.424  15.327   3.228
57858W        W17152   4.380  24.204   5.175
57859W        W17153  33.420  41.798   2.718
57860W        W17154  34.038  25.711   2.832
57861W        W17155   3.791  21.603   2.873
57862W        W17156   3.873   4.864   1.876
57863W        W17157  33.600   8.391  12.498
57864W        W17158  41.432   6.867   1.715
57865W        W17159  23.662  12.841   4.680
57866W        W17160  28.100  32.044   4.197
57867W        W17161  33.595  24.478   2.897
57868W        W17162  19.118  13.828  13.983
57869W        W17163  20.628   0.291   3.701
57870W        W17164  40.345   7.287  12.045
57871W        W17165  22.575  20.540  14.508
57872W        W17166  42.321  28.946   1.867
57873W        W17167  37.415  30.041   0.306
57874W        W17168  33.537  20.039  14.495
57875W        W17169   6.840   5.261  14.483
57876W        W17170  33.556  31.586   1.865
57877W        W17171  40.382  16.072  14.010
57878W        W17172  41.373  18.692  14.987
57879W        W17173  14.642  11.336  14.780
57880W        W17174  26.464  34.384  14.291
57881W        W17175   3.322  15.793  14.945
57882W        W17176   5.765  19.608   3.306
57883W        W17177  31.975  23.636   4.213
57884W        W17178  23.069  20.138  13.996
57885W        W17179  10.779   6.202  11.476
57886W        W17180  38.024  28.939   1.290
57887W        W17181   2.253  14.311   4.817
57888W        W17182   2.832  35.468   1.776
57889W        W17183  12.801  15.764   4.698
57890W        W17184  29.626  10.255  14.306
57891W        W17185  37.981   3.888  14.813
57892W        W17186  30.020  28.987   3.690
57893W        W17187   2.814   9.203   4.643
57894W        W17188  28.590  21.207  13.019
57895W        W17189  12.146  28.941  14.281
57896W        W17190   7.725   1.243   4.214
57897W        W17191  35.375   7.389   2.327
57898W        W17192  40.494  11.677   3.294
57899W        W17193  13.846  32.098   1.853
57900W        W17194  32.981   2.389   3.706
57901W        W17195   4.789   6.814   2.778
57902W        W17196  39.939   3.890   3.759
57903W        W17197   1.901  38.025  13.935
57904W        W17198  30.510  17.754   3.170
57905W        W17199  36.915  32.015   0.898
57906W        W17200  22.132  42.348   1.253
57907W        W17201  17.138  34.935   1.818
57908W        W17202  38.871  24.175   4.666
57909W        W17203   6.704  42.842   1.328
57910W        W17204  37.030   3.246   4.126
57911W        W17205   8.195  35.937   1.288
57912W        W17206  14.665  21.196  13.805
57913W        W17207  26.190  11.800   3.319
57914W        W17208  32.074  21.615  11.067
57915W        W17209   8.274  38.431  12.396
57916W        W17210   5.413  29.519  13.035
57917W        W17211  23.987   1.945  11.398
57918W        W17212  44.817  44.325   3.800
57919W        W17213  24.012  34.085   3.642
57920W        W17214  18.187  15.600  10.632
57921W        W17215  42.925  28.581   0.312
57922W        W17216  10.787  24.563  11.599
57923W        W17217   7.400  44.005   4.272
57924W        W17218   5.904  24.630   0.281
57925W        W17219   6.250  31.952  14.804
57926W        W17220  23.723   3.741   1.356
57927W        W17221  18.190  18.126   0.800
57928W        W17222   1.842   6.215   2.684
57929W        W17223   2.912  17.123  14.472
57930W        W17224  22.180  23.531   3.192
57931W        W17225  36.077   5.214   4.704
57932W        W17226  21.625   9.765  13.329
57933W        W17227   7.352   9.659   0.329
57934W        W17228  43.429   2.295   0.378
57935W        W17229  29.004  39.992   0.763
57936W        W17230   7.692   9.234   4.658
57937W        W17231  23.229  34.984   4.169
57938W        W17232   4.784  43.949   5.164
57939W        W17233  23.123  17.568  12.056
57940W        W17234  18.766  26.206   0.753
57941W        W17235  11.690   2.751  13.460
57942W        W17236   1.784  10.773   3.790
57943W        W17237  44.335  28.563  11.062
57944W        W17238  39.491  14.318  13.377
57945W        W17239  32.432   6.327   1.779
57946W        W17240   0.423  20.224   4.250
57947W        W17241  12.304  25.206   1.747
57948W        W17242  35.386   0.479  13.815
57949W        W17243  24.117  24.641   4.183
57950W        W17244  34.506  42.437  14.372
57951W        W17245   0.936  39.365   0.282
57952W        W17246  10.225   0.303   2.187
57953W        W17247  32.101  31.422   2.237
57954W        W17248  28.571  33.583  14.884
57955W        W17249  18.211  29.018  13.054
57956W        W17250  42.875  31.486   2.192
57957W        W17251  27.017   8.324  10.623
57958W        W17252   0.980  21.565  12.409
57959W        W17253  43.471  14.229  14.329
57960W        W17254  18.666  11.213   2.305
57961W        W17255  29.533  37.936   4.716
57962W        W17256  21.125  29.960  10.989
57963W        W17257  16.234  40.834  13.941
57964W        W17258   3.302   6.856  14.305
57965W        W17259  26.963  31.976   2.216
57966W        W17260   8.801  41.486   2.332
57967W        W17261  39.383  29.461   2.822
57968W        W17262  29.457  32.941   2.704
57969W        W17263  44.336  39.387  11.434
57970W        W17264  17.795  22.530  12.012
57971W        W17265   0.864  37.867   2.223
57972W        W17266  22.076  38.473   1.828
57973W        W17267  36.429   6.723  10.908
57974W        W17268  22.532   4.748   2.274
57975W        W17269  27.085   9.741   9.988
57976W        W17270  40.417   3.424  12.047
57977W        W17271  34.436  17.703   0.845
57978W        W17272   6.863   6.707  13.898
57979W        W17273   7.231  44.009   2.737
57980W        W17274  28.459  25.112   3.748
57981W        W17275  28.960  44.404   4.195
57982W        W17276  43.334  19.115   0.281
57983W        W17277  30.425  31.427  12.940
57984W        W17278  38.041  27.050   4.640
57985W        W17279  28.999  26.021  14.443
57986W        W17280  42.901  36.957  12.850
57987W        W17281  36.067  38.453   2.376
57988W        W17282  31.950  41.987  10.566
57989W        W17283  19.666  33.984   0.391
57990W        W17284  12.273   0.318   2.758
57991W        W17285   5.708  19.247   3.329
57992W        W17286  37.486  18.597   3.297
57993W        W17287  17.307  18.247  12.346
57994W        W17288  12.184   7.871   1.264
57995W        W17289  29.584  42.345   3.710
57996W        W17290  16.294  28.033   4.772
57997W        W17291  38.486  29.511  13.437
57998W        W17292  11.797  19.538   0.277
57999W        W17293   6.849  10.762   1.240
58000W        W17294   4.722  27.622  14.896
58001W        W17295  40.800  28.056  10.620
58002W        W17296  30.999  13.249  11.079
58003W        W17297  37.836  26.008  11.539
58004W        W17298  38.450   1.865   1.767
58005W        W17299  22.188  15.244   3.279
58006W        W17300   2.241  25.496  12.019
58007W        W17301   0.424  16.615   1.277
58008W        W17302  20.611  15.117  12.831
58009W        W17303   9.311  40.389  11.049
58010W        W17304  29.938  24.124   2.287
58011W        W17305  38.517  23.590  14.892
58012W        W17306  41.970   2.465   2.790
58013W        W17307  39.514  26.459  14.404
58014W        W17308  44.330  36.585   3.374
58015W        W17309  37.890  30.076  10.898
58016W        W17310   1.849  32.491  10.961
58017W        W17311   6.692  44.872   2.387
58018W        W17312   8.866  15.121  12.541
58019W        W17313  44.953  34.572   2.301
58020W        W17314  40.386  27.058  11.927
58021W        W17315  34.448  33.127   0.800
58022W        W17316  23.708   1.912   1.380
58023W        W17317   5.729   5.759   1.773
58024W        W17318   5.688  38.906   1.800
58025W        W17319  43.352  17.599  10.462
58026W        W17320  20.758   5.278  13.059
58027W        W17321  25.193  37.048   2.676
58028W        W17322   2.895   5.703   4.324
58029W        W17323  35.045  35.478  13.347
58030W        W17324  14.699  35.046   4.251
58031W        W17325  13.214  22.713  14.811
58032W        W17326  11.303  25.131   1.843
58033W        W17327  36.080  37.859  11.529
58034W        W17328   8.722  34.029   1.230
58035W        W17329   2.336  10.648  12.867
58036W        W17330  16.610  43.320   4.131
58037W        W17331  32.547   2.742   0.830
58038W        W17332  33.090  41.412  11.402
58039W        W17333  32.935  11.631  14.392
58040W        W17334  39.368  14.675   3.830
58041W        W17335  12.353  22.167  11.062
58042W        W17336  29.151   3.895  10.887
58043W        W17337  37.961  31.548   4.709
58044W        W17338  39.535  33.588  12.962
58045W        W17339  22.615  42.800   3.284
58046W        W17340  22.045   4.420  10.622
58047W        W17341  30.547   8.896  11.540
58048W        W17342   3.779  43.458   3.729
58049W        W17343   8.899  12.230   4.160
58050W        W17344   8.382   4.432   1.368
58051W        W17345   5.387   2.405   0.804
58052W        W17346  25.552  22.508   1.796
58053W        W17347   1.363   2.914  12.087
58054W        W17348  35.923  19.536   0.250
58055W        W17349  14.601   3.819   0.812
58056W        W17350  29.472  30.153   0.383
58057W        W17351  14.649  10.384   5.192
58058W        W17352  35.992   9.184  13.471
58059W        W17353  15.306  39.383   2.180
58060W        W17354  21.107  41.401   4.721
58061W        W17355   8.255  29.007   0.402
58062W        W17356  38.438  32.581  12.868
58063W        W17357   0.378  27.557  14.853
58064W        W17358  42.341  42.336  13.522
58065W        W17359  15.326   7.287  11.568
58066W        W17360  14.681  44.753   2.198
58067W        W17361   2.299  10.240  12.850
58068W        W17362  41.871  12.746  10.036
58069W        W17363   2.280  25.173  11.863
58070W        W17364  10.725   9.716  12.001
58071W        W17365   6.814  23.091   1.333
58072W        W17366  30.421   7.674  12.519
58073W        W17367  28.438   8.734  14.320
58074W        W17368   6.318  38.025   2.241
58075W        W17369  14.307   4.269   2.808
58076W        W17370  12.828  38.543  10.604
58077W        W17371  37.054  16.724  13.369
58078W        W17372  31.090   9.294   3.253
58079W        W17373   6.411  28.956  14.937
58080W        W17374  16.755   0.928   4.804
58081W        W17375  22.727  38.513  12.528
58082W        W17376  18.189   4.914   2.792
58083W        W17377  32.472  31.589  14.874
58084W        W17378   2.411  40.020  13.854
58085W        W17379   4.268  18.257  14.513
58086W        W17380  14.824   2.417  14.948
58087W        W17381  15.283   5.193   3.310
58088W        W17382   3.328  21.657  10.552
58089W        W17383  43.495  10.775   0.431
58090W        W17384  11.257   6.853  12.016
58091W        W17385  32.567   6.258  12.976
58092W        W17386  31.579  40.031  12.359
58093W        W17387   6.752  13.703  11.599
58094W        W17388  24.512  16.241   1.327
58095W        W17389  22.112  16.125  12.092
58096W        W17390  15.209  42.286  13.548
58097W        W17391   6.233  32.069   0.834
58098W        W17392  10.835  28.628  13.330
58099W        W17393   8.793  14.647   3.718
58100W        W17394  34.494   5.230   4.206
58101W        W17395  23.099   9.821   5.264
58102W        W17396  13.317   2.823   1.345
58103W        W17397  35.523   9.316   5.763
58104W        W17398  37.932  26.521   3.806
58105W        W17399  27.069  40.490   1.709
58106W        W17400  40.473  10.648  12.522
58107W        W17401  34.883  36.546  14.496
58108W        W17402  22.181  34.015  11.054
58109W        W17403   3.441  26.619   0.913
58110W        W17404   4.324  43.817   0.941
58111W        W17405  44.362   6.905   2.335
58112W        W17406  29.573   8.669   2.701
58113W        W17407  11.185  35.535   3.754
58114W        W17408  34.968  39.396   1.884
58115W        W17409  17.559  36.476   3.816
58116W        W17410  32.616  14.720   2.397
58117W        W17411  20.118  44.989   3.374
58118W        W17412  42.325  38.543   2.332
58119W        W17413   3.341  21.753   1.398
58120W        W17414   5.902  10.864   3.779
58121W        W17415  37.402   3.832  13.481
58122W        W17416  16.727  28.109   3.786
58123W        W17417  18.199   1.965  11.599
58124W        W17418  25.159  18.574  14.918
58125W        W17419  11.853   1.949   3.354
58126W        W17420  34.543  18.274  11.497
58127W        W17421  31.524  15.170   3.211
58128W        W17422  21.181  19.240  11.492
58129W        W17423  14.615   8.347  13.895
58130W        W17424  22.653  23.497  13.395
58131W        W17425  15.129   2.314  11.578
58132W        W17426  26.536  22.677  11.110
58133W        W17427   4.835  17.600  12.029
58134W        W17428   8.363  39.813   0.924
58135W        W17429   6.198   3.710   5.287
58136W        W17430  34.924   0.979  13.925
58137W        W17431  44.282  43.425  12.828
58138W        W17432  12.160  25.626   4.751
58139W        W17433   7.854  30.081   3.642
58140W        W17434  38.366  25.546   2.669
58141W        W17435  33.120  37.348   3.228
58142W        W17436  11.825  41.970   2.769
58143W        W17437   3.742  18.140  11.980
58144W        W17438  19.172   0.432  12.346
58145W        W17439  27.598   4.841  11.464
58146W        W17440  43.418  20.570  12.894
58147W        W17441  26.610  16.612  11.960
58148W        W17442  10.800  18.662  14.929
58149W        W17443  41.937  22.607  14.759
58150W        W17444  14.776  21.106   4.674
58151W        W17445  43.359   0.411  14.868
58152W        W17446  14.605   1.890  10.994
58153W        W17447   6.776  26.978  11.004
58154W        W17448  40.971  28.125   0.899
58155W        W17449  43.448  32.490  14.286
58156W        W17450  42.859  42.019   2.231
58157W        W17451  23.108  43.776  14.852
58158W        W17452  37.520  30.021   3.277
58159W        W17453  12.172  29.038  14.016
58160W        W17454  36.000  28.582   4.256
58161W        W17455  38.930  26.689  14.404
58162W        W17456  35.484  30.082  11.091
58163W        W17457  36.535   6.314  13.853
58164W        W17458  18.754  41.408  14.394
58165W        W17459  14.215  32.508  10.426
58166W        W17460  35.960  19.224   2.785
58167W        W17461  25.207  32.510  13.001
58168W        W17462  43.274   5.214  10.006
58169W        W17463   7.208  42.399   1.882
58170W        W17464  17.182  12.213   2.892
58171W        W17465  15.191  17.112   0.467
58172W        W17466   4.776  17.182  12.446
58173W        W17467  23.680  31.093  10.908
58174W        W17468  27.669  34.903   0.905
58175W        W17469   5.826  15.291   4.625
58176W        W17470   2.257  24.973  12.349
58177W        W17471  22.143  11.180  10.912
58178W        W17472  33.396  29.532   2.355
58179W        W17473  23.715  15.209   0.809
58180W        W17474  19.673  27.639   2.707
58181W        W17475   7.741   8.314   4.343
58182W        W17476   1.909  12.164   0.249
58183W        W17477  25.695  36.442  11.065
58184W        W17478  14.746  35.052  13.437
58185W        W17479  36.965  43.937  11.018
58186W        W17480  42.001  19.641  12.081
58187W        W17481   6.903  23.998   0.947
58188W        W17482  23.157   5.881  14.481
58189W        W17483  15.769  43.303  13.421
58190W        W17484  41.425   5.415   3.318
58191W        W17485  35.061  18.261  14.299
58192W        W17486  13.296   2.942  13.461
58193W        W17487  42.940  26.580   1.363
58194W        W17488  33.888  21.511  10.631
58195W        W17489  42.020  32.590  13.794
58196W        W17490  14.833  30.502  10.947
58197W        W17491  37.377   6.891  12.085
58198W        W17492  33.023  28.643  14.351
58199W        W17493   6.909  35.436   1.367
58200W        W17494  23.181   8.400   2.823
58201W        W17495  13.157  13.106  10.024
58202W        W17496  43.942   2.737   2.862
58203W        W17497  35.567   0.833  13.816
58204W        W17498  43.866   9.252  11.987
58205W        W17499   3.914  14.210  12.952
58206W        W17500  32.618  32.139   0.473
58207W        W17501  31.928  27.531  12.565
58208W        W17502  14.331  35.035  12.573
58209W        W17503   4.233  39.551   2.794
58210W        W17504   1.748  24.140  11.942
58211W        W17505  14.143  10.771   0.331
58212W        W17506   1.270  43.441  13.881
58213W        W17507  25.680  39.046   0.941
58214W        W17508  43.425  33.389  12.015
58215W        W17509  42.331  17.100  12.045
58216W        W17510  26.635  11.174   0.276
58217W        W17511  26.144  17.764  13.437
58218W        W17512   4.852  28.000  11.506
58219W        W17513  35.963  43.270   1.913
58220W        W17514  35.015  39.508  14.312
58221W        W17515  23.586  21.181   1.242
58222W        W17516  13.604  27.493  12.033
58223W        W17517  12.674  42.363  14.764
58224W        W17518  23.991   9.879   2.732
58225W        W17519  23.595  18.268  10.964
58226W        W17520  21.131  14.622  12.887
58227W        W17521  13.256  18.763  13.904
58228W        W17522  12.273  14.282  13.966
58229W        W17523   9.858  11.305   0.880
58230W        W17524   1.897  30.443   4.239
58231W        W17525  36.505  39.488  14.895
58232W        W17526  19.058  32.139  12.388
58233W        W17527  20.142  44.402  14.964
58234W        W17528  22.207  27.556  12.914
58235W        W17529  17.753  40.538  12.522
58236W        W17530  41.959  30.056  10.474
58237W        W17531   6.774  14.183   4.707
58238W        W17532   6.922  17.161   2.340
58239W        W17533  35.386   7.176  14.891
58240W        W17534  26.535  10.789   4.345
58241W        W17535  26.124   3.294  11.959
58242W        W17536   5.876  23.212  14.953
58243W        W17537  21.034  25.100   4.324
58244W        W17538  29.117  14.589   0.326
58245W        W17539  35.550  32.142  10.074
58246W        W17540   1.306  11.363  10.910
58247W        W17541  37.360  34.104   3.776
58248W        W17542  40.505   3.319  10.935
58249W        W17543  21.636   0.811   4.261
58250W        W17544  11.333  35.996   3.222
58251W        W17545  37.421   0.326  11.382
58252W        W17546  26.192  39.419   3.291
58253W        W17547  33.538  15.245  11.389
58254W        W17548  22.601   4.435  10.896
58255W        W17549  11.844  12.126  10.483
58256W        W17550   2.796  26.150  11.540
58257W        W17551  27.066  29.995  10.533
58258W        W17552  23.643  24.597   3.739
58259W        W17553   1.955  43.817   1.848
58260W        W17554  43.383  26.184   1.414
58261W        W17555  17.783  12.160   3.355
58262W        W17556  24.706  31.411  11.517
58263W        W17557   6.762  16.098   2.230
58264W        W17558  42.499  31.404   1.319
58265W        W17559  44.282  10.295   4.330
58266W        W17560   6.824  28.108   3.383
58267W        W17561   9.746  13.845   1.396
58268W        W17562   4.240  17.201   3.673
58269W        W17563  28.653  23.559   4.324
58270W        W17564  21.585  41.795   4.271
58271W        W17565  34.615  35.394   2.855
58272W        W17566  16.583  30.975  14.993
58273W        W17567  43.338  42.523   2.306
58274W        W17568  23.048  26.483  11.511
58275W        W17569  12.189   9.225  14.427
58276W        W17570  42.915  12.679  10.449
58277W        W17571   5.212  38.968  12.502
58278W        W17572   0.937  20.541  14.785
58279W        W17573  25.025  25.038   1.929
58280W        W17574   5.361  21.073   1.707
58281W        W17575  21.701  42.853   2.364
58282W        W17576  25.063   8.897  12.836
58283W        W17577  24.128  16.072  12.383
58284W        W17578   9.288   0.365   1.784
58285W        W17579   6.418   1.454   2.738
58286W        W17580  28.167  35.040  12.345
58287W        W17581  28.041   0.931   0.342
58288W        W17582  31.086  33.071  13.459
58289W        W17583  11.798  17.119   2.670
58290W        W17584  41.992   5.325  12.348
58291W        W17585  23.734  27.066  14.777
58292W        W17586   5.229  42.780  11.882
58293W        W17587   1.256  14.777   2.237
58294W        W17588  20.248  28.084   3.149
58295W        W17589  24.138  22.554  11.041
58296W        W17590  44.997  33.489   4.763
58297W        W17591  40.309  34.870   3.284
58298W        W17592  16.662   5.262   0.478
58299W        W17593  15.637   0.753   3.180
58300W        W17594   0.806  29.080  13.793
58301W        W17595   9.309  38.414  11.472
58302W        W17596  24.105  33.595  12.399
58303W        W17597   5.336  18.274   3.847
58304W        W17598  18.721  21.647   0.876
58305W        W17599  33.436  26.104   5.162
58306W        W17600  28.509  24.671   1.306
58307W        W17601  36.900  21.161  12.012
58308W        W17602   1.453  28.526  11.592
58309W        W17603  31.956   3.455  10.948
58310W        W17604  20.731  37.484   2.278
58311W        W17605   5.333  19.130   1.921
58312W        W17606  29.945  41.403   2.369
58313W        W17607  11.278  41.975  10.920
58314W        W17608  19.121  31.615   3.659
58315W        W17609  26.951  25.577  12.060
58316W        W17610  24.669  30.587   1.416
58317W        W17611   0.838  41.467  13.438
58318W        W17612   3.371  19.067   0.897
58319W        W17613  27.992  18.256   5.230
58320W        W17614   4.797  29.428   0.860
58321W        W17615  11.220  24.120   1.735
58322W        W17616  23.234  33.609   4.178
58323W        W17617  20.215  17.647  11.525
58324W        W17618   5.804  42.856  13.505
58325W        W17619  11.287   9.154   3.381
58326W        W17620  40.315  43.472   3.749
58327W        W17621  20.096  43.441  11.391
58328W        W17622   4.857   6.901  11.583
58329W        W17623  39.370   0.765  13.812
58330W        W17624  26.088  43.304   3.340
58331W        W17625  28.541  42.353   2.225
58332W        W17626  32.406  29.646  13.970
58333W        W17627  12.173   4.422  11.553
58334W        W17628   0.456  22.526  10.542
58335W        W17629   7.368  34.476   1.794
58336W        W17630  12.739  30.157   3.276
58337W        W17631  21.193  22.022   1.899
58338W        W17632  11.135  33.050   3.282
58339W        W17633  19.719  33.961  11.494
58340W        W17634  44.799  26.988   2.404
58341W        W17635  24.011  25.470  12.888
58342W        W17636  38.450  11.744   3.713
58343W        W17637  42.395  41.939   1.814
58344W        W17638  28.659  16.806  10.445
58345W        W17639  14.713  34.947   2.891
58346W        W17640  43.926  18.230   4.831
58347W        W17641  13.313  20.037  14.787
58348W        W17642  28.543  41.842  13.806
58349W        W17643  36.385  31.929  13.518
58350W        W17644   1.348  13.718   1.707
58351W        W17645  40.461  26.180  14.382
58352W        W17646  41.822  21.628   4.630
58353W        W17647   4.856  11.655   2.191
58354W        W17648   0.889   6.833  13.321
58355W        W17649  30.910  19.615  14.909
58356W        W17650  24.603  35.087  11.949
58357W        W17651  37.555  21.258   3.277
58358W        W17652  28.584  20.082  12.841
58359W        W17653  29.568   4.226   4.670
58360W        W17654  36.436  19.112  12.500
58361W        W17655  21.659  12.360   0.828
58362W        W17656   7.893   2.295  11.583
58363W        W17657  10.283  13.601  11.077
58364W        W17658  15.723  44.388   3.672
58365W        W17659   8.275  19.756  13.400
58366W        W17660   6.311  26.538  12.577
58367W        W17661  25.030   4.396   2.766
58368W        W17662  36.564  34.025   4.646
58369W        W17663  34.093  29.574   4.194
58370W        W17664  21.733  19.196  14.961
58371W        W17665  13.726   8.397  12.923
58372W        W17666  32.492  40.373   1.927
58373W        W17667  44.300  21.056   1.901
58374W        W17668  26.178  14.139  13.487
58375W        W17669  35.879  22.203   1.832
58376W        W17670  10.152   0.794   3.674
58377W        W17671  33.383  11.661  13.369
58378W        W17672   4.435  10.661  11.432
58379W        W17673  19.184  33.385   4.673
58380W        W17674  31.449   6.915  13.996
58381W        W17675  41.934   7.386  14.785
58382W        W17676   5.930  33.525   5.154
58383W        W17677   7.337  29.505  14.993
58384W        W17678  20.213   0.839  14.389
58385W        W17679  25.506  32.541   2.743
58386W        W17680  39.323  14.285   3.329
58387W        W17681  39.822  39.480   1.436
58388W        W17682  20.258  26.643   0.374
58389W        W17683  32.929  26.520   2.847
58390W        W17684  41.030  26.701  13.322
58391W        W17685  22.635  42.946   2.414
58392W        W17686  43.771  43.822   3.697
58393W        W17687  30.544  13.351  11.013
58394W        W17688  19.251   0.344  14.892
58395W        W17689  35.086  27.563   3.663
58396W        W17690  22.144  19.249  14.323
58397W        W17691  34.589   9.375   5.277
58398W        W17692  24.178  13.628  11.009
58399W        W17693  11.678  39.432  11.050
58400W        W17694  15.820  14.277   4.154
58401W        W17695   5.271   1.879   0.362
58402W        W17696  39.892  37.864   1.850
58403W        W17697  31.037  36.897   1.771
58404W        W17698   1.765  41.387  11.893
58405W        W17699  21.107  12.628  14.281
58406W        W17700   7.386  11.211  10.912
58407W        W17701  40.990   2.801  11.560
58408W        W17702  19.582   6.204   2.251
58409W        W17703  32.602  33.059  11.596
58410W        W17704  43.362  25.499  10.468
58411W        W17705  10.718  41.342   0.369
58412W        W17706  26.504  22.738   0.932
58413W        W17707   6.816  26.162   2.870
58414W        W17708   2.432  27.607  14.955
58415W        W17709  24.177   9.295  10.115
58416W        W17710  24.716  42.882   3.215
58417W        W17711  18.279  12.269   0.269
58418W        W17712  25.149  16.670  13.027
58419W        W17713  16.581  27.074   1.364
58420W        W17714   2.863  17.293  11.988
58421W        W17715  26.468  20.253  12.414
58422W        W17716  35.965  24.990   4.336
58423W        W17717  36.515  24.664   0.305
58424W        W17718  17.290  12.179  14.412
58425W        W17719  40.816  12.739  11.473
58426W        W17720   9.852  17.797  11.423
58427W        W17721  15.132  12.284  12.466
58428W        W17722   4.264  14.620   0.952
58429W        W17723  17.758   6.691  14.819
58430W        W17724  24.701  28.030  13.008
58431W        W17725  44.876  10.142  12.908
58432W        W17726  42.306  23.578   4.144
58433W        W17727   9.871  26.524   3.289
58434W        W17728  16.672   7.772  12.092
58435W        W17729  20.132  39.463  13.411
58436W        W17730  30.023  32.613   3.148
58437W        W17731  35.064  35.088   1.901
58438W        W17732   3.914  42.458  12.579
58439W        W17733  19.157   6.807  13.882
58440W        W17734  39.444  22.198  13.928
58441W        W17735  18.724  40.341   3.189
58442W        W17736  11.778  44.443   0.363
58443W        W17737  21.045  20.765   1.721
58444W        W17738  22.712  14.179   2.273
58445W        W17739   1.772  24.550   1.912
58446W        W17740   1.811  34.035   2.829
58447W        W17741  15.728  16.760  13.973
58448W        W17742  16.640   0.933  12.931
58449W        W17743  30.124  29.954   0.290
58450W        W17744  34.889   6.322   4.624
58451W        W17745  39.444   3.717  12.926
58452W        W17746  43.287  31.010  11.024
58453W        W17747   4.232  25.565   1.344
58454W        W17748  28.681   6.189  12.948
58455W        W17749  12.157   3.716  13.792
58456W        W17750  24.163  40.952  11.453
58457W        W17751  39.457   0.972  13.529
58458W        W17752  43.359   4.836   0.899
58459W        W17753   5.704   5.244  11.862
58460W        W17754  40.426  21.563   2.407
58461W        W17755  13.140  22.614   2.818
58462W        W17756   8.826   1.291  11.610
58463W        W17757   8.395  36.577  12.067
58464W        W17758  12.669  11.206   1.360
58465W        W17759  41.801  27.656   2.414
58466W        W17760  43.436  31.423  13.050
58467W        W17761   5.850  12.825  11.033
58468W        W17762   6.800  14.770   2.701
58469W        W17763   0.869  10.373   1.372
58470W        W17764   3.256  21.733   2.328
58471W        W17765   3.252  15.600   3.757
58472W        W17766  40.806  21.169   4.326
58473W        W17767  27.996   6.900   1.734
58474W        W17768  21.219  44.504   0.818
58475W        W17769   9.155  38.553  14.305
58476W        W17770  43.985  30.531   1.250
58477W        W17771  21.227  40.497  12.511
58478W        W17772  44.273  30.099   4.616
58479W        W17773  38.919  29.086   4.244
58480W        W17774  19.145  15.148   0.910
58481W        W17775  13.630  35.043   1.922
58482W        W17776  14.781  15.719  11.878
58483W        W17777  13.328  36.456   3.379
58484W        W17778   8.317  43.817  11.023
58485W        W17779  20.257  33.594   3.861
58486W        W17780  13.312  13.169   2.406
58487W        W17781  24.724  12.259  14.285
58488W        W17782  16.193  21.148   2.282
58489W        W17783   0.886  23.117  10.062
58490W        W17784   0.427  31.407  11.549
58491W        W17785   7.714  16.083   0.443
58492W        W17786  35.518   5.865  13.455
58493W        W17787  27.121   9.348   3.759
58494W        W17788  11.305  21.194   3.189
58495W        W17789  28.452  44.987  10.478
58496W        W17790  32.013   7.376   0.370
58497W        W17791  18.238   8.897  10.945
58498W        W17792  15.270  31.614   0.320
58499W        W17793  37.008  21.528  10.416
58500W        W17794  10.347   6.189  14.311
58501W        W17795  37.872  27.179  14.765
58502W        W17796  32.555  22.037  13.863
58503W        W17797   1.278   3.460  10.978
58504W        W17798   8.693  32.127   0.300
58505W        W17799  25.061  34.447  10.548
58506W        W17800  31.991  24.206  13.801
58507W        W17801  44.400  31.066   0.458
58508W        W17802  10.739   6.234   1.373
58509W        W17803   1.893  19.757   2.669
58510W        W17804  29.950  23.227   3.801
58511W        W17805  44.267  20.708  13.471
58512W        W17806  33.082  15.816  13.464
58513W        W17807  23.669   2.309  12.061
58514W        W17808  13.243  36.920  10.935
58515W        W17809  12.253  36.450   4.160
58516W        W17810  24.609  16.230  12.986
58517W        W17811   8.857  26.557   2.295
58518W        W17812   3.237  17.666   2.752
58519W        W17813  44.344  11.649  10.579
58520W        W17814  26.627  21.607  11.596
58521W        W17815  37.862  33.121   4.351
58522W        W17816   4.366  37.975  13.317
58523W        W17817  34.553  20.746   4.784
58524W        W17818  33.936   7.216   4.688
58525W        W17819   1.427  16.698  11.429
58526W        W17820   4.326   6.212   1.925
58527W        W17821  29.450  41.896  10.558
58528W        W17822  32.973  43.865   2.874
58529W        W17823  23.553  23.044  12.416
58530W        W17824  37.543   6.761   3.193
58531W        W17825  35.042  14.127  13.868
58532W        W17826  20.555  24.103  10.574
58533W        W17827  23.626  11.137   3.381
58534W        W17828  20.572  28.444  14.306
58535W        W17829   3.355  29.472   0.960
58536W        W17830  17.307  28.159   1.264
58537W        W17831  35.385  41.532  12.915
58538W        W17832   6.881  12.814  11.028
58539W        W17833  21.693   5.877   4.609
58540W        W17834  10.773  29.141   3.217
58541W        W17835  30.624   4.412   0.785
58542W        W17836  17.773   7.198   4.281
58543W        W17837  18.709   7.899   0.242
58544W        W17838  16.239  13.277  12.421
58545W        W17839   7.367  44.860   1.695
58546W        W17840   8.266   8.860   4.836
58547W        W17841   6.405  40.438   1.210
58548W        W17842  24.043   6.222   0.286
58549W        W17843  11.214   7.681  14.828
58550W        W17844  33.515  24.503   3.224
58551W        W17845   3.363  34.899  12.934
58552W        W17846  21.055  44.414  12.039
58553W        W17847  21.715  30.065   2.327
58554W        W17848  35.503  32.451  11.562
58555W        W17849  16.219   8.301   1.894
58556W        W17850  33.471  33.968  13.415
58557W        W17851  22.646  10.773  13.889
58558W        W17852  16.185   4.439   0.918
58559W        W17853   0.268  10.874  11.968
58560W        W17854  19.145   5.854  12.567
58561W        W17855  25.110   3.737  11.475
58562W        W17856   6.838   1.769   3.169
58563W        W17857   4.394   8.186   0.325
58564W        W17858   2.411   4.240   2.250
58565W        W17859  22.565  14.338  10.501
58566W        W17860  12.283  35.099   2.878
58567W        W17861   4.868  36.537   2.763
58568W        W17862  40.036  20.674   4.704
58569W        W17863  21.528  12.329  13.998
58570W        W17864  41.341  11.770   0.470
58571W        W17865  25.492  20.527   3.301
58572W        W17866  40.851  34.034  11.977
58573W        W17867  13.674  11.212   4.629
58574W        W17868  44.283  23.163   3.369
58575W        W17869  23.597  27.029   4.121
58576W        W17870  17.169  13.187   2.813
58577W        W17871   0.808   8.675   4.724
58578W        W17872  35.362  40.320  14.299
58579W        W17873  36.094  13.727  13.507
58580W        W17874   8.656   7.898  13.837
58581W        W17875   1.855  41.524   0.316
58582W        W17876   1.851   7.676   4.310
58583W        W17877  26.485  30.627  14.318
58584W        W17878  12.122   8.357  14.009
58585W        W17879  41.942  39.556  10.923
58586W        W17880  35.004  36.414  14.001
58587W        W17881  24.198   6.870   5.294
58588W        W17882  28.948  20.739   0.959
58589W        W17883  41.327  41.009   2.397
58590W        W17884   7.720  12.174  12.387
58591W        W17885  36.468  36.384   0.478
58592W        W17886  21.018  40.470   4.237
58593W        W17887  12.641  25.042   3.150
58594W        W17888  33.597  32.054  14.368
58595W        W17889  13.323   9.172   0.912
58596W        W17890   4.703  12.697   1.372
58597W        W17891  40.507  42.989  14.800
58598W        W17892   6.321   6.381  13.829
58599W        W17893  44.502  14.711  13.011
58600W        W17894  44.010  28.131   4.229
58601W        W17895  16.133  20.232  14.428
58602W        W17896   9.292   3.303   2.695
58603W        W17897  21.239  30.907   4.613
58604W        W17898  27.497  21.519   4.146
58605W        W17899  31.535   4.232  14.004
58606W        W17900   4.294   1.391   0.957
58607W        W17901  33.586   5.224   9.978
58608W        W17902   5.874  26.502   4.217
58609W        W17903  23.706   5.798  12.880
58610W        W17904   0.302  36.004   0.878
58611W        W17905  21.609  18.611  14.508
58612W        W17906  19.181  32.410  12.890
58613W        W17907  31.575  14.609  14.407
58614W        W17908  21.743   2.463  12.030
58615W        W17909  44.357  13.743   2.374
58616W        W17910  15.228   4.219   2.874
58617W        W17911   2.735  21.580   4.236
58618W        W17912  23.213  24.635   4.673
58619W        W17913  24.530  21.102   1.210
58620W        W17914  14.755  30.501   1.743
58621W        W17915  13.324  21.542   2.260
58622W        W17916   8.882   5.294   1.776
58623W        W17917  15.260  13.761  13.393
58624W        W17918  10.246  23.166   1.263
58625W        W17919  41.011  31.052  14.387
58626W        W17920   2.907  13.307  10.573
58627W        W17921  40.540  32.006   1.858
58628W        W17922  18.644  15.220   5.291
58629W        W17923  33.070  21.044  12.467
58630W        W17924  19.164  10.790   2.731
58631W        W17925   9.779  31.922  12.459
58632W        W17926  15.241   8.661  10.978
58633W        W17927  42.505   7.185   1.768
58634W        W17928  23.171  39.315  10.595
58635W        W17929   4.835  31.019   1.896
58636W        W17930  23.522  38.337  13.886
58637W        W17931  31.625  27.070  14.450
58638W        W17932   8.188   2.786   1.786
58639W        W17933  11.167  30.148  12.898
58640W        W17934  20.720  11.816  10.892
58641W        W17935   5.382  33.559  10.062
58642W        W17936  35.949  10.651   3.680
58643W        W17937  28.002  44.962  11.578
58644W        W17938  20.031  13.800   1.277
58645W        W17939  35.361   6.393  14.941
58646W        W17940  36.551  28.121   1.931
58647W        W17941   2.795  23.728   1.214
58648W        W17942   1.839  14.340   4.233
58649W        W17943   7.747  31.047   3.290
58650W        W17944  31.438  34.999   4.291
58651W        W17945  41.905  30.074   3.795
58652W        W17946  43.964  16.187   4.276
58653W        W17947   8.789   6.187   1.423
58654W        W17948   4.278  20.544   3.305
58655W        W17949   3.231  20.666   1.423
58656W        W17950   1.964  19.628   1.926
58657W        W17951  38.937  31.986  13.997
58658W        W17952   4.919  26.535  12.491
58659W        W17953  40.485  17.712  10.978
58660W        W17954  28.566  24.490   4.763
58661W        W17955  41.410  32.034  10.488
58662W        W17956  19.126  24.144   4.270
58663W        W17957  36.979  10.680  12.410
58664W        W17958  31.518   1.900  13.948
58665W        W17959   1.906   0.818   5.286
58666W        W17960  31.000  19.090   1.332
58667W        W17961  39.884  33.495  13.051
58668W        W17962  12.247  39.538  12.502
58669W        W17963  17.295  41.813   0.841
58670W        W17964  15.661  41.481   2.196
58671W        W17965  38.546  31.128  13.521
58672W        W17966  21.164  13.830   4.327
58673W        W17967  20.673  27.013  14.988
58674W        W17968  18.186  24.517   3.783
58675W        W17969  31.096  17.172  10.480
58676W        W17970  33.467  39.824   4.218
58677W        W17971  10.751  34.909  10.119
58678W        W17972  38.973  34.419  12.011
58679W        W17973  25.179  19.638   4.268
58680W        W17974  35.004  34.472  10.909
58681W        W17975  35.987  33.588   2.757
58682W        W17976   0.321  21.204   1.828
58683W        W17977  44.369  25.543   4.293
58684W        W17978  41.029  22.246   3.325
58685W        W17979  27.668  22.158   4.168
58686W        W17980  28.930  24.057  11.563
58687W        W17981  21.604  12.318  11.032
58688W        W17982   7.192   2.465  14.335
58689W        W17983  12.645  34.590  12.057
58690W        W17984  22.592   5.300   4.701
58691W        W17985   4.733  39.433  10.537
58692W        W17986   7.171  27.067   0.731
58693W        W17987   3.405  32.586   0.268
58694W        W17988  40.026  28.998  13.979
58695W        W17989  13.820  24.681  11.440
58696W        W17990   1.809  12.241   1.808
58697W        W17991  28.174  17.793   0.735
58698W        W17992  42.364  28.621  13.448
58699W        W17993   4.888  12.122   2.324
58700W        W17994  24.482  36.359  12.462
58701W        W17995  29.583  35.490  13.528
58702W        W17996  26.554   5.894   2.841
58703W        W17997  36.990  38.037   0.287
58704W        W17998  39.394  11.754  11.116
58705W        W17999  36.586   6.736  12.504
58706W        W18000  28.082  29.563  11.400
58707W        W18001   1.476  23.083   1.748
58708W        W18002  26.026  15.743  14.336
58709W        W18003   2.349  17.714   3.184
58710W        W18004  44.489   2.346  14.797
58711W        W18005   1.377  15.202  13.943
58712W        W18006  10.864   1.942  12.940
58713W        W18007  31.502   8.886   2.832
58714W        W18008  42.946  31.123   4.318
58715W        W18009  24.574   4.889   1.405
58716W        W18010  20.237  37.024  13.459
58717W        W18011  13.602  44.357  12.868
58718W        W18012  18.585  14.664  14.895
58719W        W18013   1.756  16.293  11.587
58720W        W18014  41.905   8.395   0.341
58721W        W18015  38.383  17.616   1.845
58722W        W18016   5.705  28.575   0.866
58723W        W18017   0.804   0.473   9.573
58724W        W18018  37.491   4.297  14.912
58725W        W18019  38.835  43.785   1.379
58726W        W18020  16.807   6.695   0.929
58727W        W18021   2.272   9.775   0.245
58728W        W18022  32.953  36.854  12.048
58729W        W18023  25.174  33.567  14.005
58730W        W18024  32.933  17.759  10.628
58731W        W18025  27.975   9.848   2.387
58732W        W18026   3.434  23.616  11.910
58733W        W18027  34.935  17.159   9.992
58734W        W18028  28.937  33.033  10.418
58735W        W18029  28.454  29.970  12.402
58736W        W18030  36.904  41.956  10.422
58737W        W18031  14.666  19.557   0.432
58738W        W18032  43.355  26.601   2.787
58739W        W18033  13.658  31.071  11.402
58740W        W18034  41.463  41.913  11.501
58741W        W18035  21.127  32.981  13.309
58742W        W18036  17.304  28.679  11.125
58743W        W18037  23.218  31.543  10.600
58744W        W18038  28.448  26.062  11.052
58745W        W18039  42.293  25.072  12.465
58746W        W18040  30.006   4.265  14.848
58747W        W18041   9.393  30.051   0.293
58748W        W18042   8.342  39.549   2.413
58749W        W18043  21.254  36.851  14.303
58750W        W18044   9.191  44.938  14.315
58751W        W18045  18.590   3.264   2.702
58752W        W18046  36.870  36.442  11.486
58753W        W18047  25.500  26.208   2.867
58754W        W18048  25.127  29.636   1.870
58755W        W18049  36.968  16.669  12.918
58756W        W18050  36.976   2.777   1.757
58757W        W18051  44.490  27.651  13.043
58758W        W18052   2.228  13.349   2.215
58759W        W18053  40.916  28.166  12.354
58760W        W18054  15.811   4.700   9.946
58761W        W18055   5.358   7.207  13.879
58762W        W18056  24.014   8.661   4.122
58763W        W18057  19.543  43.791  13.508
58764W        W18058  31.964  36.479   3.263
58765W        W18059   1.426  34.882  12.974
58766W        W18060  36.541  11.245   0.466
58767W        W18061  12.637  14.115   4.121
58768W        W18062  42.519  34.400   1.889
58769W        W18063  42.897  24.142   4.353
58770W        W18064  43.466  23.204  14.398
58771W        W18065  44.431   5.797   0.891
58772W        W18066  43.961   6.236   4.768
58773W        W18067  44.452  42.835  13.041
58774W        W18068   6.399   4.321  12.409
58775W        W18069  30.504  38.460   2.847
58776W        W18070  29.487  30.001   0.735
58777W        W18071  14.649  39.479  10.925
58778W        W18072  22.742  21.255  11.414
58779W        W18073   4.900   1.272  11.467
58780W        W18074  10.382  17.584  12.993
58781W        W18075  26.011  44.434  11.507
58782W        W18076  10.315  26.642  11.008
58783W        W18077  23.181  32.970  12.837
58784W        W18078  10.237  38.391   4.652
58785W        W18079  20.130  39.463  14.362
58786W        W18080  37.999  11.635  13.510
58787W        W18081  35.872   7.678   0.314
58788W        W18082  11.660  20.096  10.425
58789W        W18083   8.334  13.756  14.823
58790W        W18084  15.656  40.360  14.428
58791W        W18085  20.096  10.831  14.815
58792W        W18086  16.093  30.993   2.817
58793W        W18087   2.314   1.441  12.975
58794W        W18088   9.249  34.106  12.829
58795W        W18089  20.591   3.922  14.961
58796W        W18090  15.316   2.460   1.248
58797W        W18091  34.467  22.024  10.563
58798W        W18092   6.909  17.776   3.293
58799W        W18093  20.626   8.710   4.639
58800W        W18094  42.913  41.946  12.524
58801W        W18095  27.575  44.770  12.461
58802W        W18096   5.254  10.157   2.749
58803W        W18097  41.004  43.914   1.297
58804W        W18098  27.580  29.954   1.695
58805W        W18099   3.222  17.724   1.212
58806W        W18100  27.479  12.343   2.802
58807W        W18101  41.391   6.307  14.403
58808W        W18102  33.518  16.287   0.283
58809W        W18103  29.965  17.627   2.743
58810W        W18104  37.430  28.175   5.272
58811W        W18105  10.641   3.343   1.766
58812W        W18106   7.252  14.301  11.105
58813W        W18107  44.942  10.699   4.288
58814W        W18108  42.476  25.108   4.720
58815W        W18109  37.440  35.418   1.225
58816W        W18110   1.969   2.839  13.464
58817W        W18111  44.384  13.782  14.312
58818W        W18112   8.848  44.402   1.881
58819W        W18113  38.025   8.837  13.064
58820W        W18114  35.039  21.715   1.450
58821W        W18115   0.408  23.588  14.946
58822W        W18116   5.736  14.294   5.110
58823W        W18117   0.358  27.504  12.382
58824W        W18118   4.303  13.332   2.850
58825W        W18119   7.237   6.213   1.927
58826W        W18120   7.689  20.183  14.983
58827W        W18121  26.078   8.221   5.183
58828W        W18122  11.352  22.577   0.440
58829W        W18123  12.334  33.613  12.879
58830W        W18124  39.903  44.308   1.794
58831W        W18125   1.341  33.881   3.231
58832W        W18126  23.609   0.314  12.943
58833W        W18127   3.447  13.186   0.750
58834W        W18128  38.968  27.171  14.340
58835W        W18129  18.078  10.187  14.314
58836W        W18130   1.889  28.135   1.234
58837W        W18131  10.749  34.863   1.336
58838W        W18132  19.245  37.345  10.934
58839W        W18133  35.920  30.657   2.324
58840W        W18134  42.920  25.583   2.804
58841W        W18135  44.501   2.369  13.032
58842W        W18136   3.783  41.930  14.297
58843W        W18137   8.665  34.042  14.280
58844W        W18138  16.698  31.921   2.780
58845W        W18139   8.304  14.674  11.029
58846W        W18140  33.076  28.045  14.011
58847W        W18141  40.424  26.692  14.356
58848W        W18142  42.946  11.836   0.459
58849W        W18143  25.177  17.589   1.785
58850W        W18144  29.015  11.802  12.437
58851W        W18145  38.360  23.143  13.540
58852W        W18146  22.687  29.483  11.457
58853W        W18147   5.285  16.616  13.389
58854W        W18148  36.436   8.715  13.444
58855W        W18149  22.744   0.799  10.606
58856W        W18150  25.623  36.072  12.928
58857W        W18151  30.488   8.665   4.230
58858W        W18152  40.024  40.313   1.809
58859W        W18153  43.795   4.929   1.873
58860W        W18154  37.370  23.105  13.857
58861W        W18155  39.893  22.543   1.366
58862W        W18156  31.612  44.337  14.357
58863W        W18157  15.268  27.560   2.207
58864W        W18158  34.604  18.174  13.857
58865W        W18159  43.776   2.872   1.762
58866W        W18160   6.279   4.909   5.222
58867W        W18161  37.981  18.084  12.481
58868W        W18162  14.300  33.429   4.197
58869W        W18163   9.667  20.655   2.296
58870W        W18164  40.529  19.700   3.735
58871W        W18165  25.203  25.585   1.354
58872W        W18166  19.113  14.195  10.493
58873W        W18167  39.839  42.994  10.996
58874W        W18168  13.664   6.731  10.932
58875W        W18169   6.871  44.433  10.048
58876W        W18170  38.545  25.582   1.312
58877W        W18171  30.116  33.447   4.817
58878W        W18172  13.342  11.304  14.290
58879W        W18173  34.024  39.547   1.329
58880W        W18174  23.061  38.414  13.016
58881W        W18175  37.469  14.623   0.834
58882W        W18176  35.916   2.316   3.327
58883W        W18177  44.490   5.352   4.286
58884W        W18178  43.889   1.767   5.303
58885W        W18179  34.464  40.536   0.347
58886W        W18180  17.639  35.565  14.773
58887W        W18181  29.004  44.882   4.322
58888W        W18182   6.365  31.127   0.807
58889W        W18183   1.942   1.269  11.518
58890W        W18184  37.387  35.972  10.148
58891W        W18185  16.209  17.617   4.325
58892W        W18186  21.695  44.284   4.180
58893W        W18187  38.022  31.135   1.388
58894W        W18188   8.750  40.821   0.437
58895W        W18189  41.917  10.173  11.454
58896W        W18190  19.680  41.336   0.420
58897W        W18191  42.894  27.008   3.797
58898W        W18192  24.716  33.056   0.749
58899W        W18193  28.969   1.893   2.208
58900W        W18194  12.732  29.534   4.222
58901W        W18195   3.314   0.363   2.806
58902W        W18196  19.708  26.505   0.913
58903W        W18197  35.522  19.663  14.420
58904W        W18198   1.875  12.127  13.876
58905W        W18199  30.463  34.905   5.196
58906W        W18200  36.957  14.109  11.002
58907W        W18201  35.931  25.594  12.990
58908W        W18202   8.775  13.793   2.871
58909W        W18203  30.433   6.806  13.061
58910W        W18204  18.220  37.077   2.327
58911W        W18205  34.046  38.405   3.198
58912W        W18206   0.399  38.453  14.285
58913W        W18207  24.165  28.621   1.311
58914W        W18208  27.957   9.831   3.698
58915W        W18209  39.010  30.158  10.987
58916W        W18210  34.911  43.854   0.737
58917W        W18211  24.653  13.620   2.800
58918W        W18212  23.523  26.039   0.368
58919W        W18213  18.707  20.102  13.913
58920W        W18214  21.136  19.695   4.715
58921W        W18215  31.643  15.692  11.460
58922W        W18216  44.329  30.640  10.023
58923W        W18217  32.985  43.276  14.286
58924W        W18218   4.283   6.236  14.841
58925W        W18219  19.233  35.495  13.366
58926W        W18220  23.038  37.422  12.840
58927W        W18221  41.357  26.157  11.399
58928W        W18222  40.013  10.213  12.435
58929W        W18223  19.748  11.730   4.218
58930W        W18224  31.922  25.013  11.541
58931W        W18225  27.169  41.918   4.324
58932W        W18226  14.234  35.916   0.378
58933W        W18227  26.045  20.694  11.534
58934W        W18228  26.523  39.351  12.566
58935W        W18229   4.727  36.912  13.054
58936W        W18230  16.780   6.690   1.910
58937W        W18231   3.437  17.683  10.465
58938W        W18232  24.100  24.668   2.283
58939W        W18233  30.962   9.355   1.410
58940W        W18234  44.417  27.602   9.930
58941W        W18235   4.703  19.692  12.945
58942W        W18236  30.588   5.769   0.846
58943W        W18237   2.444  44.476   1.256
58944W        W18238  37.066  24.182  10.961
58945W        W18239  43.319  39.937   1.314
58946W        W18240  31.637  22.213  13.400
58947W        W18241  16.620   0.977   1.885
58948W        W18242  35.881  42.976   3.731
58949W        W18243  41.982   1.279  12.029
58950W        W18244  27.111  13.112   1.863
58951W        W18245   9.380  10.332  11.544
58952W        W18246  32.134  41.972  11.556
58953W        W18247   8.691  22.574  13.062
58954W        W18248  27.943  37.348  13.989
58955W        W18249  25.159  31.041  14.007
58956W        W18250  23.566  44.304  11.902
58957W        W18251  16.239  26.639   4.685
58958W        W18252  26.015  38.443   3.712
58959W        W18253  41.859  12.306   0.309
58960W        W18254   5.711  11.241   1.296
58961W        W18255   2.465  42.464  14.341
58962W        W18256  24.638   9.745   1.884
58963W        W18257  32.998  20.725   4.745
58964W        W18258  15.786   1.239  11.095
58965W        W18259  44.458  11.740   1.410
58966W        W18260   9.870  42.415   4.229
58967W        W18261  23.113  12.269   4.665
58968W        W18262  14.123  11.690   2.690
58969W        W18263  14.743  13.838  10.484
58970W        W18264  37.838  19.555  11.531
58971W        W18265  11.772  38.881   0.944
58972W        W18266  34.082  36.954  14.474
58973W        W18267   1.967  22.707  11.462
58974W        W18268  16.101  26.514   3.819
58975W        W18269   0.264  37.357   3.725
58976W        W18270   3.782  26.050   0.914
58977W        W18271  10.669  12.784  13.386
58978W        W18272  29.466  21.255   3.164
58979W        W18273  33.579  26.038  13.540
58980W        W18274  32.503   0.847  11.084
58981W        W18275  24.169   7.674   3.256
58982W        W18276  28.078  13.673   0.336
58983W        W18277  34.022  14.731   1.240
58984W        W18278  10.797  38.539   4.816
58985W        W18279  22.084  26.462  11.526
58986W        W18280  39.325  29.619   3.359
58987W        W18281  43.959   2.830   5.190
58988W        W18282   0.436  13.680   1.735
58989W        W18283  28.678  41.512  12.517
58990W        W18284  35.877  16.145  12.978
58991W        W18285  15.723  40.355  12.062
58992W        W18286  25.709  10.171  12.567
58993W        W18287  24.532  13.134   1.751
58994W        W18288  15.237  32.979  13.438
58995W        W18289  14.816  14.647  14.294
58996W        W18290  15.749  28.572   0.264
58997W        W18291  21.525  23.216  14.503
58998W        W18292  18.565  28.956   4.246
58999W        W18293  35.432  37.498   3.712
59000W        W18294  37.411  43.766   4.248
59001W        W18295  38.017  23.104  11.452
59002W        W18296  31.475  21.077   1.840
59003W        W18297  27.191   6.725  10.445
59004W        W18298  30.036  32.600   1.290
59005W        W18299  39.466  31.537   0.956
59006W        W18300  18.084   4.893  14.837
59007W        W18301  16.250  34.568   1.732
59008W        W18302  18.165   8.374   2.742
59009W        W18303  31.058  41.433  10.591
59010W        W18304  36.362  18.070   1.341
59011W        W18305  42.514   7.193   2.755
59012W        W18306  25.712  13.312   3.759
59013W        W18307   4.337  29.979  14.841
59014W        W18308  25.495  11.856  11.533
59015W        W18309   1.423   7.344   2.788
59016W        W18310  15.734   9.856  10.956
59017W        W18311   9.367  11.670  14.780
59018W        W18312   1.734  15.297   3.671
59019W        W18313   1.251  36.039  11.571
59020W        W18314   5.347  19.737  13.848
59021W        W18315   3.276   6.828  13.840
59022W        W18316  27.134  24.585   1.760
59023W        W18317  30.515   7.779  10.497
59024W        W18318  42.517  41.966   2.677
59025W        W18319   2.938   7.888   2.413
59026W        W18320  18.782  17.254   3.830
59027W        W18321  40.527  26.203  13.330
59028W        W18322  29.160   3.737   0.267
59029W        W18323  34.369   6.276  13.036
59030W        W18324  30.560  35.093  13.424
59031W        W18325  10.290  27.636  12.532
59032W        W18326  10.343  16.651  14.947
59033W        W18327  26.549   5.705   1.765
59034W        W18328  26.112   7.718   1.389
59035W        W18329   9.756  37.953   1.916
59036W        W18330  21.670  27.985   1.241
59037W        W18331  18.101   9.208   2.415
59038W        W18332  17.162   5.869  13.347
59039W        W18333  26.998   4.737   3.698
59040W        W18334  35.491   6.419  10.893
59041W        W18335  42.819   5.710  12.389
59042W        W18336  27.115  33.117   0.811
59043W        W18337   8.172  34.460   4.238
59044W        W18338  12.738   7.765  12.888
59045W        W18339  43.976  44.305  13.034
59046W        W18340  33.006  42.304   0.400
59047W        W18341   8.300  23.072   0.754
59048W        W18342  32.121  11.841  12.059
59049W        W18343  38.544  40.040  13.934
59050W        W18344  20.090  34.884  14.000
59051W        W18345   3.742  28.589  14.409
59052W        W18346  25.572  35.996  12.438
59053W        W18347  34.083  25.019   1.346
59054W        W18348   7.395  32.547   2.851
59055W        W18349  23.622   0.851  14.362
59056W        W18350   6.692  21.199  11.921
59057W        W18351  32.078  39.867   4.145
59058W        W18352  20.658  27.160   3.678
59059W        W18353  37.871   2.239   2.367
59060W        W18354  19.240  24.049  10.110
59061W        W18355  27.681  36.987   0.375
59062W        W18356  29.999   6.830  13.881
59063W        W18357  25.145  25.494   3.824
59064W        W18358  35.971   3.380   4.129
59065W        W18359  15.640  41.314  13.360
59066W        W18360  24.624  31.600  11.993
59067W        W18361  34.081  22.631  12.362
59068W        W18362  26.598  19.591  14.028
59069W        W18363   8.856  37.962   4.697
59070W        W18364  21.193  22.573   4.669
59071W        W18365  25.699   0.842  11.507
59072W        W18366  14.614  15.589   4.785
59073W        W18367  23.562  11.861   0.460
59074W        W18368  12.634  27.667  13.793
59075W        W18369   1.928   5.916  11.896
59076W        W18370  32.007  21.584   1.796
59077W        W18371  17.801   7.739   2.216
59078W        W18372  41.028  28.529   3.849
59079W        W18373  30.596  34.605   4.769
59080W        W18374  20.218  39.037  11.494
59081W        W18375  11.798  40.536   0.398
59082W        W18376  31.494   5.240  12.868
59083W        W18377  23.550  37.466  10.483
59084W        W18378  38.328   8.381  11.006
59085W        W18379  13.338  27.018  10.571
59086W        W18380  40.447  34.505   4.122
59087W        W18381  24.621   5.323  11.111
59088W        W18382  24.118  11.802  12.021
59089W        W18383  42.389  38.484  12.851
59090W        W18384  41.871  43.894   0.877
59091W        W18385  34.983  13.137  13.375
59092W        W18386  25.572   7.194  13.406
59093W        W18387   2.965  13.208  14.786
59094W        W18388  10.873  31.621  14.771
59095W        W18389   4.323  10.868   1.837
59096W        W18390  43.495  35.038  13.542
59097W        W18391  29.150   2.838  10.427
59098W        W18392  38.932  14.786   3.216
59099W        W18393   1.807  18.700   0.879
59100W        W18394  11.238  36.503   2.689
59101W        W18395  32.924  32.506  14.989
59102W        W18396  15.691  19.126   3.330
59103W        W18397  14.783  43.461  11.886
59104W        W18398  26.164  44.993   2.222
59105W        W18399  29.171  37.956   1.415
59106W        W18400  26.017  34.468  14.282
59107W        W18401  17.786   8.799  10.485
59108W        W18402  20.541  18.749  14.421
59109W        W18403   7.398   1.953  11.031
59110W        W18404  13.241  34.974   0.955
59111W        W18405  44.395  28.501   2.731
59112W        W18406  18.095   5.860  11.931
59113W        W18407  12.311  32.974  13.847
59114W        W18408  39.969  30.540   4.351
59115W        W18409   1.851   4.840   3.170
59116W        W18410  36.970  25.636  11.487
59117W        W18411  30.585  40.007  11.957
59118W        W18412  18.264  41.352  13.485
59119W        W18413  44.491  26.601   2.720
59120W        W18414   8.261  14.792   0.816
59121W        W18415   4.309  40.542   2.690
59122W        W18416  30.157  10.341  11.387
59123W        W18417  16.186  31.053   3.187
59124W        W18418  11.195  30.506   3.796
59125W        W18419   6.693  23.216   0.439
59126W        W18420  33.987   9.666   0.251
59127W        W18421   4.788  32.484   1.220
59128W        W18422  34.395  43.501  11.508
59129W        W18423  22.617   2.852   0.897
59130W        W18424   3.838   5.205  14.508
59131W        W18425  10.251   4.740  14.918
59132W        W18426  37.070   6.891  13.359
59133W        W18427   0.938  26.556   1.737
59134W        W18428   5.695  13.158  14.801
59135W        W18429  24.531  18.766  10.437
59136W        W18430   4.364  23.235  12.022
59137W        W18431  16.789  23.526  13.536
59138W        W18432  16.277  43.270   3.174
59139W        W18433  43.980  34.041  12.928
59140W        W18434  15.264   0.336   1.916
59141W        W18435  11.273  10.815  13.527
59142W        W18436  12.791   4.208   4.127
59143W        W18437   9.717  44.876   1.290
59144W        W18438   6.806   8.656   3.152
59145W        W18439   4.859   2.944  13.368
59146W        W18440   2.375  24.974  11.601
59147W        W18441  38.871  10.212   5.202
59148W        W18442   9.826  33.989   3.800
59149W        W18443  36.083  13.255   4.801
59150W        W18444  10.696  14.201  14.821
59151W        W18445  16.631   8.393  11.882
59152W        W18446  32.509  25.104   4.128
59153W        W18447   0.858  13.845  12.535
59154W        W18448  28.589  39.008  12.823
59155W        W18449   1.482  10.747   2.884
59156W        W18450   0.260  21.573   4.767
59157W        W18451  25.538   9.863   0.757
59158W        W18452  35.862   6.229   1.885
59159W        W18453  28.485  38.853   4.153
59160W        W18454   5.733   8.686  14.300
59161W        W18455  26.547  22.601   1.921
59162W        W18456  28.645  31.051  11.108
59163W        W18457  14.821   2.303   0.270
59164W        W18458  29.577   1.946  11.458
59165W        W18459   3.936  17.589  14.466
59166W        W18460  15.684   2.261   1.267
59167W        W18461  27.457  31.040   1.229
59168W        W18462  11.816   9.702   0.313
59169W        W18463  33.011  29.428   0.862
59170W        W18464   2.786  37.505   3.812
59171W        W18465  19.258  40.012   1.351
59172W        W18466   6.238  41.434  10.911
59173W        W18467  24.200  40.387   4.690
59174W        W18468  40.996  11.669  10.919
59175W        W18469  31.107  13.259   4.609
59176W        W18470  20.103  32.584  12.533
59177W        W18471  24.090  24.231  13.483
59178W        W18472  15.226  13.765  10.619
59179W        W18473  18.650  25.615  13.825
59180W        W18474  44.320  39.873   0.364
59181W        W18475  16.098  31.445  12.883
59182W        W18476  41.425   5.351   0.445
59183W        W18477  42.012  33.932   1.710
59184W        W18478  40.909  42.288   4.794
59185W        W18479  29.424  37.042  11.551
59186W        W18480  23.234  20.268   0.341
59187W        W18481  32.433  28.046  12.039
59188W        W18482   8.794  32.555  12.036
59189W        W18483  16.192  43.426   2.759
59190W        W18484  12.814   5.841   0.966
59191W        W18485  25.153   6.898   0.734
59192W        W18486  31.948   2.929  12.365
59193W        W18487  29.492  24.592  10.611
59194W        W18488  42.294  31.994   3.292
59195W        W18489  24.539  21.599   0.382
59196W        W18490  12.204  18.187   1.897
59197W        W18491  26.009   5.745   2.208
59198W        W18492  10.783  13.719   1.779
59199W        W18493   4.378  44.928   0.905
59200W        W18494  32.036  28.960   1.841
59201W        W18495  24.550   2.815  13.518
59202W        W18496   5.430  23.563  14.384
59203W        W18497   0.806  32.430  10.626
59204W        W18498  36.350  19.752  12.874
59205W        W18499  28.623  29.968   4.244
59206W        W18500  24.595  17.762  13.939
59207W        W18501  24.551  37.942   4.822
59208W        W18502  34.974  18.296  13.505
59209W        W18503   2.444  31.421   1.793
59210W        W18504  22.029  34.085   4.224
59211W        W18505  41.960  14.720   2.224
59212W        W18506  24.230   2.843   4.251
59213W        W18507   3.307  13.687  13.404
59214W        W18508  11.129   2.963   1.919
59215W        W18509  11.725  11.214   1.350
59216W        W18510  23.229  32.612  12.394
59217W        W18511  29.608  16.147  12.419
59218W        W18512   2.300  33.046   0.814
59219W        W18513   9.389  14.310   2.347
59220W        W18514  11.652  24.709   4.608
59221W        W18515   5.711  29.633  12.459
59222W        W18516  19.090   3.745  12.878
59223W        W18517  39.548   5.279  13.394
59224W        W18518  15.705   8.803  10.409
59225W        W18519  20.204   1.338  11.963
59226W        W18520  35.042  42.875  10.966
59227W        W18521  30.567  43.499  13.530
59228W        W18522   0.858  21.679  14.952
59229W        W18523  14.591  17.594  13.384
59230W        W18524  20.217  42.789  13.914
59231W        W18525  36.546  15.275  13.976
59232W        W18526  40.047  12.176   4.628
59233W        W18527  17.198  22.128   3.320
59234W        W18528  30.051  24.719  12.972
59235W        W18529  33.423  42.835  12.880
59236W        W18530  22.679  32.508   1.783
59237W        W18531  27.148  11.787  10.576
59238W        W18532  44.379  29.497   2.732
59239W        W18533  19.699   9.260  11.574
59240W        W18534  20.642  40.014   1.823
59241W        W18535  31.453  35.450  12.069
59242W        W18536  11.299  24.217   2.841
59243W        W18537  35.505  30.915  13.541
59244W        W18538  34.471  28.106   3.319
59245W        W18539  29.455   0.781   0.797
59246W        W18540  21.680  20.258   0.404
59247W        W18541  17.289   5.273   4.788
59248W        W18542  17.064  18.718  12.908
59249W        W18543  10.253  24.065  12.991
59250W        W18544  18.138  31.072  14.808
59251W        W18545  21.237  16.754  11.883
59252W        W18546  26.657   3.754  12.934
59253W        W18547   3.751   4.210   1.926
59254W        W18548  44.815  24.488  10.512
59255W        W18549  15.730  37.015   3.200
59256W        W18550  37.843  15.820  14.433
59257W        W18551  16.711  30.942   4.233
59258W        W18552  33.595   2.731   3.721
59259W        W18553  12.206  32.961  11.376
59260W        W18554  36.945  20.544   1.707
59261W        W18555  38.504  12.124   2.767
59262W        W18556  24.591  36.056  13.891
59263W        W18557  12.149  18.709  10.989
59264W        W18558   8.349  43.950   3.291
59265W        W18559  36.866  40.429   3.152
59266W        W18560   0.365   5.420  12.341
59267W        W18561  38.042  15.615  12.051
59268W        W18562  23.559  28.014  14.331
59269W        W18563   0.811   6.318   3.667
59270W        W18564  43.865  26.514   2.252
59271W        W18565   9.395  33.086   4.603
59272W        W18566  26.592  33.005   1.695
59273W        W18567   7.356  27.186  11.071
59274W        W18568   1.813  21.576   0.953
59275W        W18569   4.299  32.618   0.736
59276W        W18570  30.444  36.971   1.795
59277W        W18571  11.704  14.608  10.916
59278W        W18572  10.818   7.860  13.413
59279W        W18573  15.245  34.922  14.507
59280W        W18574  33.070  22.736  13.805
59281W        W18575   6.242  35.998  14.364
59282W        W18576  14.138  10.775   3.161
59283W        W18577  22.738  44.468   3.711
59284W        W18578  22.593  25.179   3.267
59285W        W18579  40.051  32.984   3.749
59286W        W18580  37.472   4.214  12.430
59287W        W18581  31.092  42.483   1.264
59288W        W18582  24.070   6.739  13.893
59289W        W18583  25.666   4.275  13.476
59290W        W18584  20.660   9.268   3.640
59291W        W18585  28.515  16.730  10.995
59292W        W18586  17.079  24.018   3.835
59293W        W18587  32.396  18.294  10.923
59294W        W18588  13.689  23.167   2.250
59295W        W18589   3.300  10.168   3.827
59296W        W18590  13.219  22.146  14.949
59297W        W18591   0.887  40.433   4.293
59298W        W18592  25.596  39.880  13.838
59299W        W18593  43.002  44.418  10.055
59300W        W18594  22.638   0.849  13.512
59301W        W18595  28.442  16.177  14.289
59302W        W18596  18.113  17.299  11.909
59303W        W18597  16.119  37.389   9.958
59304W        W18598  20.733  29.629  11.438
59305W        W18599  35.006  40.822  13.869
59306W        W18600  21.517  39.501   0.473
59307W        W18601  43.941  25.604  11.395
59308W        W18602  20.594   9.710   4.607
59309W        W18603   2.802   6.376  12.571
59310W        W18604  15.806  36.514   4.160
59311W        W18605  13.321  26.600   0.937
59312W        W18606  44.770   2.863   1.852
59313W        W18607  44.824  18.251  12.849
59314W        W18608  39.808  44.484  12.539
59315W        W18609  37.491  21.130  11.588
59316W        W18610  44.505  37.492  11.083
59317W        W18611   9.792   9.220  13.028
59318W        W18612  38.382  11.647   2.844
59319W        W18613  39.042  10.798   3.247
59320W        W18614   1.850   9.271   5.315
59321W        W18615  31.494  33.990  11.421
59322W        W18616  13.837  27.617   1.855
59323W        W18617  39.054  26.681   1.372
59324W        W18618  33.100  23.023  13.393
59325W        W18619  13.673  16.272  10.492
59326W        W18620  34.058  39.361  10.599
59327W        W18621  21.263   7.177  12.007
59328W        W18622  16.297  17.560   1.913
59329W        W18623  33.976   5.384  14.324
59330W        W18624  37.407   4.752   3.741
59331W        W18625  41.868   9.376   0.858
59332W        W18626   9.158  22.593  13.436
59333W        W18627  33.551   0.409   0.443
59334W        W18628   5.292  39.553   4.653
59335W        W18629  14.610  20.618   5.220
59336W        W18630  44.911  18.115   4.705
59337W        W18631  37.456  40.389  12.354
59338W        W18632   2.935  36.854   3.208
59339W        W18633  20.129  36.572  13.904
59340W        W18634  29.514  39.478   3.242
59341W        W18635   6.420  26.955   1.229
59342W        W18636   9.327  27.987  12.554
59343W        W18637  43.290  42.796   1.913
59344W        W18638  38.465  20.743   1.443
59345W        W18639  11.689  30.051  14.500
59346W        W18640  11.185   4.240   2.749
59347W        W18641   4.837  13.659  12.889
59348W        W18642   2.720  41.406  14.460
59349W        W18643  19.183  38.489  11.009
59350W        W18644  14.318  15.191   4.136
59351W        W18645  23.641   3.248   2.902
59352W        W18646   2.433  20.758  14.354
59353W        W18647   5.374  44.840   2.896
59354W        W18648  29.923   2.928  11.492
59355W        W18649  42.281   0.391  13.510
59356W        W18650  43.838  13.711  13.499
59357W        W18651   4.274  44.960   1.873
59358W        W18652  37.958  42.417  14.289
59359W        W18653  18.249  18.199   0.463
59360W        W18654   1.342   7.722  12.836
59361W        W18655  35.506  38.004   4.676
59362W        W18656  20.676   1.760   0.909
59363W        W18657   7.299  43.937  12.026
59364W        W18658   9.698  35.108   1.702
59365W        W18659  22.022  28.580   4.208
59366W        W18660  29.456  14.129   2.901
59367W        W18661  20.078  15.704  11.486
59368W        W18662  40.916  30.608  14.307
59369W        W18663   2.455  29.143   1.758
59370W        W18664   1.762  15.136   3.196
59371W        W18665  31.946  18.620  12.352
59372W        W18666  25.489   3.813   2.363
59373W        W18667  23.530  23.015   0.264
59374W        W18668   0.858  44.391  10.445
59375W        W18669  39.367  41.339  12.823
59376W        W18670   8.686  19.755  13.055
59377W        W18671  35.928  27.123  13.511
59378W        W18672  12.822   7.681  11.955
59379W        W18673  13.617  26.119  13.949
59380W        W18674  41.029   9.254   0.966
59381W        W18675  44.402  35.484   1.267
59382W        W18676  31.100  13.163  12.495
59383W        W18677  25.710  34.519   1.929
59384W        W18678  12.211   9.202  10.436
59385W        W18679  44.790  20.089  12.910
59386W        W18680   6.330  22.148  10.900
59387W        W18681  43.332  44.271  13.913
59388W        W18682  25.145  18.072  14.801
59389W        W18683  26.545  12.655   4.346
59390W        W18684  23.187  23.539  13.444
59391W        W18685   9.794  41.824  11.447
59392W        W18686  39.859   5.806   2.834
59393W        W18687   4.378  28.106  13.039
59394W        W18688  20.673   6.807  14.413
59395W        W18689  13.207  41.499   5.191
59396W        W18690  12.311  40.055   1.389
59397W        W18691  34.422  26.179  11.505
59398W        W18692   8.883  35.991  14.405
59399W        W18693   9.256   8.663   3.648
59400W        W18694  38.960  40.370  11.911
59401W        W18695  35.876  31.082   3.754
59402W        W18696  22.042  11.145  14.455
59403W        W18697  34.423  26.577  13.885
59404W        W18698  34.890   6.808   3.782
59405W        W18699  26.632  37.974   0.934
59406W        W18700  35.060   0.814  14.941
59407W        W18701  34.099   6.242   0.302
59408W        W18702  35.548   6.423   9.569
59409W        W18703  20.195  22.548  13.933
59410W        W18704  29.528   0.437  12.360
59411W        W18705  31.619  33.533  13.965
59412W        W18706  31.443  39.948   0.914
59413W        W18707  13.236  35.106   2.744
59414W        W18708   9.384  30.156  13.538
59415W        W18709  29.504  18.711   3.312
59416W        W18710  33.471  36.967   3.311
59417W        W18711  32.008  14.268   3.690
59418W        W18712   9.260   9.682   3.660
59419W        W18713   7.910  17.656  14.839
59420W        W18714   2.815  32.120   1.247
59421W        W18715  36.362  20.747  14.323
59422W        W18716   6.732   8.831  10.544
59423W        W18717  24.699  28.671   1.731
59424W        W18718  23.153  23.603   1.328
59425W        W18719   1.262  44.381  13.327
59426W        W18720  35.531  37.081  11.092
59427W        W18721  42.362  17.209  13.806
59428W        W18722   6.735  37.857  12.410
59429W        W18723  15.652  42.858  11.999
59430W        W18724   6.235  23.726   3.732
59431W        W18725  21.143  40.808   3.751
59432W        W18726   0.889  15.106   0.807
59433W        W18727  27.040  22.221   0.415
59434W        W18728  42.434  34.930  13.855
59435W        W18729   6.331  38.357  13.446
59436W        W18730  42.308  10.256  14.277
59437W        W18731  23.560  17.224   4.680
59438W        W18732  39.436   3.404   1.264
59439W        W18733  40.397  31.139   4.208
59440W        W18734  11.707  19.222  11.104
59441W        W18735  34.088   9.176   1.918
59442W        W18736  43.937  10.855   2.705
59443W        W18737  28.024  16.172  11.373
59444W        W18738  28.965   9.218   1.258
59445W        W18739  36.391  44.483  11.496
59446W        W18740  26.088  37.454  11.086
59447W        W18741   5.872  15.628  10.060
59448W        W18742  40.817   3.846  11.377
59449W        W18743  23.008  19.047  13.498
59450W        W18744  25.081  20.542  11.446
59451W        W18745  13.832  13.782  11.560
59452W        W18746  35.385  28.016   1.839
59453W        W18747  15.221  15.086   4.347
59454W        W18748  18.637   9.787  10.538
59455W        W18749   9.824  27.084   0.285
59456W        W18750  27.157   2.769   3.221
59457W        W18751  20.739  44.817   4.621
59458W        W18752   9.256  15.716   1.834
59459W        W18753  30.136   6.284  14.984
59460W        W18754   3.936  38.514   0.397
59461W        W18755  31.537  16.095  13.887
59462W        W18756   7.707  42.870  12.057
59463W        W18757  27.572  18.612   1.379
59464W        W18758   0.813  19.580   4.251
59465W        W18759   5.423  25.598  12.575
59466W        W18760  10.380   4.837   3.819
59467W        W18761  29.922  31.486  12.440
59468W        W18762  27.961  12.792  14.790
59469W        W18763   7.879   2.949   2.870
59470W        W18764  24.520  19.637   1.301
59471W        W18765  19.277  31.141  10.566
59472W        W18766   6.703  23.239   3.318
59473W        W18767  43.377  35.878  11.986
59474W        W18768  42.004  21.031   2.719
59475W        W18769  34.537  19.054   3.632
59476W        W18770  20.053  33.613   2.748
59477W        W18771   7.859  38.448  12.425
59478W        W18772   8.682  13.250   0.471
59479W        W18773   9.364  22.138  12.038
59480W        W18774  41.947  36.368   0.458
59481W        W18775  21.713   7.676  10.480
59482W        W18776  37.948  30.006  14.511
59483W        W18777  44.965  29.929  12.084
59484W        W18778   2.472  39.457   4.738
59485W        W18779   2.245   1.840   1.866
59486W        W18780  13.740  14.198  14.935
59487W        W18781  39.809  35.553  13.356
59488W        W18782  14.810  15.762   4.119
59489W        W18783  16.742  20.525  14.359
59490W        W18784  42.812  10.849  13.843
59491W        W18785  19.132  18.253  10.410
59492W        W18786  10.323   0.787  13.805
59493W        W18787  44.968  15.234   0.830
59494W        W18788  10.718  39.504   4.338
59495W        W18789  17.574  42.411  10.638
59496W        W18790  31.905   5.327  12.354
59497W        W18791  23.126   1.913  14.384
59498W        W18792   9.283   6.189  11.542
59499W        W18793   2.461  44.929  11.019
59500W        W18794  44.504  33.520  12.441
59501W        W18795  39.341  20.032   3.765
59502W        W18796  20.650  31.532  14.411
59503W        W18797   0.939  15.318   3.332
59504W        W18798  13.703  36.570  10.435
59505W        W18799  19.112   5.860  13.814
59506W        W18800  15.112  38.885  13.812
59507W        W18801  33.593  14.183   5.097
59508W        W18802  36.388  40.500  12.375
59509W        W18803   3.940   7.815  13.308
59510W        W18804  15.587  26.616   2.186
59511W        W18805  28.552  38.504  14.809
59512W        W18806  12.708  19.267   4.721
59513W        W18807  33.601   8.821  14.026
59514W        W18808   9.802   7.256   4.290
59515W        W18809   4.219  37.079  10.992
59516W        W18810  31.473  34.543  11.451
59517W        W18811  37.839  35.889  10.521
59518W        W18812  29.533   3.765   1.911
59519W        W18813  27.639  18.731  13.530
59520W        W18814   8.329  23.991   2.319
59521W        W18815  33.549  43.422  10.532
59522W        W18816   3.763  34.477  10.623
59523W        W18817  12.717  15.227  13.804
59524W        W18818  21.030  44.477  14.385
59525W        W18819   3.415   6.219   3.285
59526W        W18820  35.973  18.275  10.470
59527W        W18821  27.486  24.485  12.872
59528W        W18822  16.578  11.823   1.871
59529W        W18823  36.437   6.718  13.046
59530W        W18824  37.836  33.429   1.849
59531W        W18825  27.051  16.681   1.902
59532W        W18826  33.543  34.108  13.794
59533W        W18827  20.267  34.081  13.462
59534W        W18828   5.889   6.274  11.935
59535W        W18829  38.429  30.164   0.919
59536W        W18830   8.718  43.442   3.788
59537W        W18831   1.772  28.569   2.185
59538W        W18832   2.811  42.301   1.315
59539W        W18833  44.339  13.821   2.798
59540W        W18834  13.169   8.770  12.945
59541W        W18835  40.864   3.791   4.233
59542W        W18836  37.987  39.402   0.416
59543W        W18837  35.397  11.830  11.539
59544W        W18838   5.219   0.432   0.334
59545W        W18839  42.362  34.477  13.516
59546W        W18840  21.512   4.759   1.246
59547W        W18841  31.605  13.308   4.781
59548W        W18842  19.097   5.426  14.364
59549W        W18843  31.508   1.299   1.284
59550W        W18844   4.432  31.948  14.032
59551W        W18845  43.910  39.915  14.476
59552W        W18846  37.965  40.404  11.412
59553W        W18847  25.565  32.046  14.810
59554W        W18848  18.067  16.178  13.808
59555W        W18849  32.900  34.561  11.535
59556W        W18850  36.952  18.274  12.937
59557W        W18851  33.540  42.831  13.516
59558W        W18852  36.537  24.096  13.350
59559W        W18853  42.822  19.708  14.427
59560W        W18854  32.000   4.739   0.360
59561W        W18855  29.462  38.008   1.709
59562W        W18856  15.319  11.637   2.183
59563W        W18857  43.947  41.390   4.597
59564W        W18858  18.776  29.452   0.936
59565W        W18859  22.684  17.286   4.658
59566W        W18860  10.776   5.301  12.458
59567W        W18861  35.962  44.367   5.127
59568W        W18862   7.734  39.444   2.252
59569W        W18863  16.725  21.647   1.234
59570W        W18864  40.025  41.033  13.880
59571W        W18865   4.764   3.900  10.902
59572W        W18866   5.704  11.718   4.126
59573W        W18867  43.469  35.931   2.814
59574W        W18868  29.526   3.787  14.324
59575W        W18869  42.888  21.084  14.798
59576W        W18870  25.556  29.542   4.116
59577W        W18871  31.469  43.789   4.177
59578W        W18872  42.834  32.099   0.797
59579W        W18873   0.957   1.795  12.549
59580W        W18874   9.768   4.721   4.800
59581W        W18875  32.514  23.497  14.843
59582W        W18876  10.867   3.350   3.232
59583W        W18877   8.208  42.011   4.338
59584W        W18878  23.103   6.795   0.308
59585W        W18879  35.538   6.279  10.031
59586W        W18880  20.073   5.261  12.903
59587W        W18881  23.649  13.811   2.666
59588W        W18882  36.381  32.625  11.038
59589W        W18883  41.937   9.703   2.237
59590W        W18884  14.230   4.251  10.971
59591W        W18885  15.618   6.213  14.460
59592W        W18886  21.110  30.067  12.861
59593W        W18887   1.236  40.970  13.423
59594W        W18888  22.526  35.572  13.368
59595W        W18889  39.423  42.947  13.350
59596W        W18890  20.559   2.811  10.971
59597W        W18891  10.216  34.935   4.771
59598W        W18892   2.737  27.602   4.297
59599W        W18893   4.815   6.879  13.451
59600W        W18894  37.887  37.061   3.277
59601W        W18895  30.464   0.429   2.406
59602W        W18896   9.244  43.272  12.368
59603W        W18897  17.237  32.932   4.278
59604W        W18898  38.361   8.878   3.866
59605W        W18899  21.065  17.100  10.530
59606W        W18900  44.958  35.580   3.676
59607W        W18901  37.853   8.257   3.848
59608W        W18902  35.503   8.732   2.775
59609W        W18903  42.899  17.242  12.832
59610W        W18904  37.877  38.540   3.863
59611W        W18905   3.363  22.536   0.302
59612W        W18906  18.612  12.255   1.747
59613W        W18907  14.791  41.432   1.385
59614W        W18908   7.838  23.535   3.780
59615W        W18909  21.513  18.667   2.898
59616W        W18910  14.154  25.085   4.294
59617W        W18911  35.443  24.146  12.543
59618W        W18912  33.484  26.472  14.955
59619W        W18913  20.129  30.571  12.917
59620W        W18914  11.353  10.282  13.894
59621W        W18915   9.150  16.180   2.725
59622W        W18916  20.137  39.397   1.215
59623W        W18917  36.045  16.220  10.432
59624W        W18918  38.559  25.106  13.881
59625W        W18919  37.380  24.137   5.234
59626W        W18920  29.961   5.217   4.604
59627W        W18921  21.535  30.090  11.439
59628W        W18922  20.690   2.802   3.738
59629W        W18923   4.285  24.162  13.873
59630W        W18924   3.912   1.965  14.014
59631W        W18925  41.404   3.941  14.904
59632W        W18926  27.153   0.852   3.176
59633W        W18927  32.975  32.624  13.491
59634W        W18928  22.106  15.730   4.830
59635W        W18929   9.681  38.356   1.250
59636W        W18930  28.125   6.688   3.287
59637W        W18931  37.569  19.611   4.193
59638W        W18932  31.599  17.121  13.432
59639W        W18933  40.464  28.156  10.139
59640W        W18934  23.158  16.257  14.425
59641W        W18935  35.001   1.289  12.911
59642W        W18936  30.540  24.175   0.302
59643W        W18937  44.757  21.020  10.474
59644W        W18938  25.139  41.870  14.481
59645W        W18939  41.025  44.848  10.557
59646W        W18940  44.882  14.720  13.336
59647W        W18941  39.944  10.636   2.823
59648W        W18942  33.131   8.364   3.678
59649W        W18943  17.266  36.478   1.270
59650W        W18944  27.624  38.887  12.824
59651W        W18945  42.303  20.166   4.615
59652W        W18946   4.213  16.155   0.783
59653W        W18947  42.283   9.166  12.556
59654W        W18948  42.424  39.364   4.225
59655W        W18949  12.708   8.692  11.513
59656W        W18950  28.613  10.722   4.182
59657W        W18951  27.005  28.974  11.025
59658W        W18952   1.331  36.593  11.595
59659W        W18953   8.307  10.311  13.950
59660W        W18954  22.614  24.080   0.932
59661W        W18955  34.872  23.557  14.989
59662W        W18956   4.814  37.875   4.771
59663W        W18957  39.038   8.335   1.709
59664W        W18958  32.929  10.802   4.306
59665W        W18959  38.961  20.148   0.411
59666W        W18960   4.291  29.093  12.083
59667W        W18961   2.944  28.530   3.752
59668W        W18962   8.400   9.244   2.689
59669W        W18963  42.500  10.641   4.819
59670W        W18964  32.993  26.644   4.683
59671W        W18965  18.119  23.518   3.337
59672W        W18966   9.825   8.396  10.929
59673W        W18967  31.446  25.081  12.552
59674W        W18968  18.563  44.857   3.302
59675W        W18969  28.679  42.422   4.245
59676W        W18970  24.626  44.449  13.509
59677W        W18971  18.565  44.286  10.507
59678W        W18972  23.117  31.418  14.984
59679W        W18973  43.777   1.357  11.481
59680W        W18974  18.290  21.752  10.050
59681W        W18975  29.561  17.257  10.986
59682W        W18976   4.342  21.588  11.859
59683W        W18977   2.738  20.194   3.175
59684W        W18978   9.717  38.380   2.732
59685W        W18979  16.769  29.607   2.833
59686W        W18980  41.881  27.553   1.315
59687W        W18981  14.714   5.881  12.571
59688W        W18982   3.830  23.149  13.331
59689W        W18983  37.969   3.277  13.436
59690W        W18984  18.626  42.778  11.595
59691W        W18985  21.254  24.607   4.344
59692W        W18986  27.068  29.557  12.375
59693W        W18987   5.768  37.033  14.377
59694W        W18988  22.594  12.193   4.689
59695W        W18989  33.068   3.816   2.902
59696W        W18990  22.620  38.486  13.029
59697W        W18991  30.646  33.944   1.422
59698W        W18992  35.547  11.683   2.329
59699W        W18993  17.107  36.929   0.453
59700W        W18994  44.430  40.520   3.159
59701W        W18995   7.354  42.303  12.503
59702W        W18996  23.704   9.840   0.859
59703W        W18997   8.887  34.451   3.712
59704W        W18998  13.241   1.278  10.966
59705W        W18999   9.372  28.620  10.423
59706W        W19000  26.028  32.521   3.385
59707W        W19001  24.580  30.460  10.892
59708W        W19002  16.186  28.062   0.926
59709W        W19003  25.101  33.059   0.902
59710W        W19004  22.128  16.799   4.354
59711W        W19005  37.080  26.652   3.675
59712W        W19006  13.749  41.493   1.846
59713W        W19007  40.538  40.311   4.237
59714W        W19008  33.441  39.901  10.525
59715W        W19009   3.920  21.576   4.153
59716W        W19010   1.267  36.534  12.386
59717W        W19011  10.292  41.506   0.768
59718W        W19012  29.961  29.080   4.230
59719W        W19013   7.909   6.833  14.346
59720W        W19014  19.232  13.641  11.475
59721W        W19015   7.841  37.377  11.440
59722W        W19016  27.029   0.751   0.294
59723W        W19017  16.313  42.979   3.768
59724W        W19018  17.199  44.010   3.697
59725W        W19019  44.270  10.345   5.153
59726W        W19020   9.809  35.370  13.041
59727W        W19021  43.370  41.932  10.563
59728W        W19022  32.583  27.075  13.850
59729W        W19023  44.463  27.077   3.667
59730W        W19024   3.251  35.975   3.286
59731W        W19025  26.609  23.540   3.724
59732W        W19026  15.655  43.506  14.496
59733W        W19027   9.845  20.041  12.042
59734W        W19028  28.970  28.613   2.878
59735W        W19029  19.609   0.447   1.435
59736W        W19030   7.206   9.332  11.998
59737W        W19031  11.659   5.911  11.570
59738W        W19032  13.687  25.591  12.836
59739W        W19033  39.407   9.315   0.471
59740W        W19034  25.526  44.436  11.023
59741W        W19035  36.052   3.916   2.815
59742W        W19036   0.893   4.414  13.547
59743W        W19037   3.790  37.086  13.824
59744W        W19038  19.179  29.593   0.363
59745W        W19039  13.823  40.861  11.967
59746W        W19040  38.424  15.660  13.410
59747W        W19041  21.216  28.085  12.391
59748W        W19042   6.893  40.820   0.940
59749W        W19043  40.403  26.137   1.920
59750W        W19044   0.932  14.790  11.942
59751W        W19045  42.838   0.817   2.785
59752W        W19046   0.819  34.964  11.498
59753W        W19047  29.541  31.431   3.233
59754W        W19048  12.262  44.403   3.266
59755W        W19049   4.243   7.730   0.838
59756W        W19050  37.064  12.792  14.884
59757W        W19051  21.141  38.007  12.870
59758W        W19052  29.547  12.755   3.820
59759W        W19053  32.580  16.728  12.365
59760W        W19054   9.754  23.200   1.818
59761W        W19055  21.028  14.185  10.027
59762W        W19056  18.248  42.899  10.474
59763W        W19057   1.293  20.575   1.399
59764W        W19058  31.145  11.640  11.082
59765W        W19059  41.444  29.475   3.338
59766W        W19060  19.558  35.447  14.891
59767W        W19061  38.556   6.284  14.812
59768W        W19062   3.457  42.488  11.609
59769W        W19063  30.591  44.501   2.892
59770W        W19064   4.894  11.158  11.447
59771W        W19065   2.234  10.749  14.895
59772W        W19066   3.856  17.095   2.879
59773W        W19067   1.744  26.609   2.810
59774W        W19068  11.732  35.552   0.422
59775W        W19069   6.822  21.229   2.316
59776W        W19070  25.526   2.888  13.385
59777W        W19071  38.826  44.774   5.229
59778W        W19072  12.150  43.004  12.426
59779W        W19073  38.435  11.339  12.448
59780W        W19074  15.193  41.005   3.701
59781W        W19075  12.195  22.590   4.298
59782W        W19076  16.770   1.746   0.480
59783W        W19077  31.455  14.701   4.212
59784W        W19078  24.108  40.942   4.771
59785W        W19079  27.686  19.189  11.095
59786W        W19080  39.858  31.058   4.647
59787W        W19081  41.035  10.334  13.989
59788W        W19082   2.234  34.029  12.091
59789W        W19083  39.449  30.553   2.753
59790W        W19084  44.986  35.944   1.374
59791W        W19085   5.347  17.153   4.207
59792W        W19086  26.195   0.946   2.815
59793W        W19087  33.048  36.354  13.060
59794W        W19088  25.030  38.554   2.745
59795W        W19089  12.825  27.551   0.741
59796W        W19090   6.897   6.859   1.375
59797W        W19091  16.250   3.328  12.994
59798W        W19092  13.714   9.795   5.779
59799W        W19093  21.235   0.901   3.686
59800W        W19094  27.151  40.373  11.423
59801W        W19095  17.646  12.749  13.431
59802W        W19096  18.683   4.705   1.287
59803W        W19097  13.727  28.954   3.832
59804W        W19098  32.544  42.294  11.997
59805W        W19099  31.483  34.057   4.821
59806W        W19100  27.451  37.438   2.882
59807W        W19101  21.198  32.910   1.874
59808W        W19102  18.180  39.870   2.736
59809W        W19103  41.370   3.451  13.959
59810W        W19104  41.952  21.070   4.607
59811W        W19105  37.067  40.836   1.849
59812W        W19106  32.141  31.942  12.464
59813W        W19107  29.654  35.969  11.480
59814W        W19108  32.463  16.254   1.232
59815W        W19109  28.575   0.851  14.886
59816W        W19110   6.226  40.907   2.771
59817W        W19111  28.065  19.170  11.440
59818W        W19112   9.799  13.339   4.289
59819W        W19113  44.451  21.262  11.972
59820W        W19114  35.446   8.718  11.449
59821W        W19115  37.362  40.409  10.643
59822W        W19116  31.401  12.748   0.774
59823W        W19117  33.406   0.363   2.220
59824W        W19118   7.697   4.258   4.281
59825W        W19119  32.090  24.191  14.810
59826W        W19120  33.584   0.367   1.262
59827W        W19121  38.536  28.442  14.416
59828W        W19122  13.142  26.047  14.957
59829W        W19123  36.990  24.695  13.942
59830W        W19124  23.110  20.546  12.887
59831W        W19125  40.874   7.358  11.919
59832W        W19126  18.547  37.426   2.712
59833W        W19127  37.428  42.451   0.770
59834W        W19128   8.312  28.475   1.403
59835W        W19129   8.252   2.453   4.128
59836W        W19130   9.377  22.169   4.773
59837W        W19131  22.596   5.233  14.467
59838W        W19132  35.958   9.834  13.826
59839W        W19133  26.500  27.941  14.834
59840W        W19134  11.141   7.177   3.193
59841W        W19135  24.575   3.427  14.350
59842W        W19136  21.109  21.064  11.910
59843W        W19137  26.686  23.225   0.456
59844W        W19138  27.154   6.848   2.307
59845W        W19139  30.493   6.261  14.831
59846W        W19140   3.739  30.042   1.864
59847W        W19141  10.636   0.906   9.555
59848W        W19142  25.178  23.734   3.803
59849W        W19143  27.543  38.394   2.814
59850W        W19144  36.520  26.165   4.665
59851W        W19145  31.491  19.272  14.914
59852W        W19146   7.807  37.934   3.290
59853W        W19147  44.503  10.805  11.378
59854W        W19148  15.144  41.008   0.796
59855W        W19149  20.193  44.264   1.242
59856W        W19150  39.408   4.924  10.511
59857W        W19151  42.906  25.509   0.788
59858W        W19152  28.008  27.178   2.735
59859W        W19153   6.711  37.836  14.439
59860W        W19154  37.506  22.151  11.440
59861W        W19155  30.008   4.216  13.329
59862W        W19156  22.629  39.470  12.471
59863W        W19157  37.986  30.607   0.805
59864W        W19158  42.361  24.192  11.869
59865W        W19159   7.225   4.224  10.417
59866W        W19160  12.766   8.782   0.352
59867W        W19161  25.679  34.943   3.259
59868W        W19162   2.396  25.106   1.934
59869W        W19163  21.105  33.521   4.235
59870W        W19164  27.064  44.990  10.523
59871W        W19165  22.516  13.707   2.316
59872W        W19166  18.607   3.814  10.472
59873W        W19167  42.398  26.493   3.229
59874W        W19168  16.145  27.605   3.643
59875W        W19169  37.455  16.200   4.152
59876W        W19170   9.787   0.445   3.218
59877W        W19171  23.519   1.469  13.908
59878W        W19172  44.937  12.734  12.363
59879W        W19173  18.114   2.268   0.916
59880W        W19174  10.864  19.114   0.307
59881W        W19175  22.730  34.401   2.722
59882W        W19176  33.500   9.816   4.157
59883W        W19177  37.081  25.174  13.043
59884W        W19178  32.036   5.880   3.677
59885W        W19179   0.421  28.147  11.598
59886W        W19180   2.937  14.727  12.382
59887W        W19181  20.044  12.355  13.461
59888W        W19182   6.383  38.368   1.268
59889W        W19183  37.576  34.061  13.984
59890W        W19184  31.455  32.490   0.959
59891W        W19185  29.936  11.734  11.902
59892W        W19186   7.745  20.633  13.898
59893W        W19187  12.339  20.032  11.076
59894W        W19188  10.219  10.651  14.330
59895W        W19189   6.326  34.497   4.180
59896W        W19190  17.560  31.498   0.812
59897W        W19191  22.107  10.379   1.313
59898W        W19192  25.526  23.726  11.483
59899W        W19193  41.305   6.337   1.251
59900W        W19194  26.576  39.540   5.634
59901W        W19195   8.295  44.386   3.834
59902W        W19196   5.267  38.977  11.510
59903W        W19197   5.903  42.448  11.053
59904W        W19198   7.240  19.190  14.436
59905W        W19199  35.588  19.135   3.325
59906W        W19200  28.079  29.607   1.925
59907W        W19201  18.165  30.080   2.677
59908W        W19202  39.530  18.588   0.791
59909W        W19203   7.257  10.380   1.893
59910W        W19204  44.335   1.944   2.243
59911W        W19205  42.299  41.485  14.857
59912W        W19206  36.581  15.098   3.861
59913W        W19207  16.303  22.686  12.032
59914W        W19208  16.105   1.912   4.667
59915W        W19209  29.471  14.631  14.454
59916W        W19210  32.991  31.967   0.478
59917W        W19211  24.647  36.861  14.442
59918W        W19212  33.884  13.687   4.272
59919W        W19213  40.863  10.287  13.453
59920W        W19214   7.801  31.067   1.363
59921W        W19215  17.245  25.632  13.934
59922W        W19216  35.582  20.573  11.601
59923W        W19217  26.583  14.210   0.272
59924W        W19218  24.007  44.463  11.502
59925W        W19219  18.144  15.197  13.954
59926W        W19220  18.085  36.510  10.971
59927W        W19221  12.359   6.297   0.435
59928W        W19222  39.318   3.305  14.804
59929W        W19223  21.251  39.975   0.855
59930W        W19224  28.022  41.798  14.282
59931W        W19225   7.766   1.862   5.686
59932W        W19226  30.978  38.548  14.293
59933W        W19227  20.266   0.429  14.843
59934W        W19228  44.318  14.212  12.484
59935W        W19229  20.189  43.327   2.281
59936W        W19230  17.611   3.230   1.719
59937W        W19231  29.033  39.349  13.538
59938W        W19232  31.564  24.720   1.771
59939W        W19233   3.326  40.027   0.352
59940W        W19234  37.999  42.838   1.706
59941W        W19235   1.291  11.348   1.451
59942W        W19236  38.435  32.431   5.119
59943W        W19237   2.375  31.451  10.527
59944W        W19238  10.245  36.457  11.486
59945W        W19239  32.583  10.162   4.658
59946W        W19240  32.118  23.620  10.939
59947W        W19241   6.358  15.632  11.498
59948W        W19242  21.701  30.118  12.558
59949W        W19243   0.814  10.793  14.962
59950W        W19244  38.361  15.739   4.118
59951W        W19245   2.955  11.281   3.742
59952W        W19246  15.219  23.182   2.712
59953W        W19247  38.010  16.650   4.630
59954W        W19248  37.867  22.724  13.540
59955W        W19249  16.746  13.749   2.665
59956W        W19250  37.439   2.906  12.487
59957W        W19251   9.227   7.179   5.224
59958W        W19252  14.166  25.483  12.950
59959W        W19253  31.910  37.510  14.896
59960W        W19254  15.143  43.984   0.382
59961W        W19255  11.131   9.827   2.261
59962W        W19256   9.850  30.535   0.791
59963W        W19257  22.677  20.522   1.286
59964W        W19258  10.877  40.509   2.191
59965W        W19259  38.978   6.324   2.690
59966W        W19260   4.229  19.751   1.340
59967W        W19261  24.128  22.233   4.825
59968W        W19262  38.386  16.618   3.714
59969W        W19263  10.787  39.363  12.501
59970W        W19264  16.724   6.911   3.805
59971W        W19265  14.300  26.623  14.313
59972W        W19266  25.660  41.940   1.395
59973W        W19267  43.322  44.959   9.993
59974W        W19268  28.075  11.311   2.895
59975W        W19269  25.613   5.880  11.483
59976W        W19270  12.357  10.673   4.168
59977W        W19271  42.443  23.682   4.603
59978W        W19272  35.460  23.657   4.328
59979W        W19273   9.832  27.475  12.979
59980W        W19274   1.750  42.455  13.931
59981W        W19275  18.575  26.641  14.440
59982W        W19276  24.052  31.478   1.348
59983W        W19277   8.680  44.809  12.966
59984W        W19278  24.113  16.156   1.856
59985W        W19279  10.876  38.558   4.301
59986W        W19280   6.365  44.399  10.011
59987W        W19281  32.891  38.064   2.768
59988W        W19282  30.449  34.930   3.209
59989W        W19283  22.048  12.724  13.486
59990W        W19284  16.235  28.012   4.267
59991W        W19285  32.544   4.229   0.869
59992W        W19286   1.352  39.811   1.383
59993W        W19287  35.563  34.460   9.441
59994W        W19288  28.933  33.399   1.401
59995W        W19289   9.692  15.322  10.625
59996W        W19290  26.199   0.310  11.529
59997W        W19291  27.579   3.413   2.847
59998W        W19292  42.015  33.494  11.107
59999W        W19293  18.639   5.361   0.475
60000W        W19294  40.857  42.524   1.444
60001W        W19295  31.908   4.299  10.987
60002W        W19296  29.550  15.327  13.539
60003W        W19297  23.547  32.410  11.589
60004W        W19298   6.355  33.625   3.791
60005W        W19299  42.428  10.294  12.448
60006W        W19300   5.307   3.941  12.855
60007W        W19301  31.937   3.856  10.642
60008W        W19302  43.900  13.298   3.698
60009W        W19303  40.465  44.275   0.320
60010W        W19304   5.790  24.143  12.880
60011W        W19305  17.213  34.055  14.951
60012W        W19306  40.846  16.686   1.834
60013W        W19307  39.376  36.047  12.930
60014W        W19308  32.067  29.102  14.414
60015W        W19309  31.140  20.522  13.370
60016W        W19310  29.657  26.674   2.391
60017W        W19311   6.296   2.379   0.826
60018W        W19312  13.229  28.577   0.939
60019W        W19313  32.440   8.385  11.600
60020W        W19314  25.060   9.725  13.504
60021W        W19315  29.598  37.022  13.056
60022W        W19316  10.730  13.304   1.350
60023W        W19317   7.693  34.542   3.775
60024W        W19318  32.624   8.342   3.231
60025W        W19319  31.115  43.367  12.843
60026W        W19320   8.894   3.927  14.916
60027W        W19321  21.054   7.673  12.957
60028W        W19322  44.465  29.933  13.545
60029W        W19323  36.042  22.510  10.574
60030W        W19324  19.084  44.876  11.909
60031W        W19325  10.663  30.018   0.434
60032W        W19326  26.036  10.840  13.509
60033W        W19327  23.181   6.327  12.074
60034W        W19328   3.835  21.075  13.828
60035W        W19329  35.930  43.772  12.444
60036W        W19330  33.126   4.297   0.411
60037W        W19331  40.918  23.185  14.288
60038W        W19332  14.333  20.626   5.117
60039W        W19333  43.275  21.104   4.752
60040W        W19334  12.170  12.656   1.214
60041W        W19335  40.436   8.790   0.864
60042W        W19336  42.899  13.789   4.171
60043W        W19337  37.480  27.155   3.834
60044W        W19338  33.965   4.719   4.644
60045W        W19339  11.195  29.109   0.800
60046W        W19340  39.854  17.650   0.861
60047W        W19341  22.679  34.609  10.437
60048W        W19342   9.386  15.127   2.722
60049W        W19343  32.103  39.413   4.295
60050W        W19344  14.330  19.734  11.091
60051W        W19345  15.307  38.328   3.769
60052W        W19346   4.919   9.669   3.236
60053W        W19347  38.840   8.274  12.440
60054W        W19348  28.611  18.663  10.941
60055W        W19349  29.561  33.559  12.957
60056W        W19350  43.833  30.594   4.700
60057W        W19351  43.855   0.474  12.362
60058W        W19352  17.110  14.226   3.149
60059W        W19353  21.029   1.378   1.833
60060W        W19354  42.410  27.678  14.870
60061W        W19355  22.694  27.450  11.059
60062W        W19356  10.202  23.546   1.355
60063W        W19357  20.166  40.481   3.187
60064W        W19358  19.285  42.479  14.000
60065W        W19359  28.552  26.037  13.011
60066W        W19360  12.188  21.232   3.294
60067W        W19361  18.578  43.844   3.176
60068W        W19362  10.657  32.094   5.270
60069W        W19363  35.489  21.613   0.256
60070W        W19364   7.720  12.646   5.198
60071W        W19365  26.077  25.706   0.931
60072W        W19366   7.892  37.369  13.525
60073W        W19367  11.230  33.608   2.899
60074W        W19368  18.615  39.831   4.653
60075W        W19369  12.659  12.788   0.450
60076W        W19370  42.312  42.930  14.503
60077W        W19371  41.791  42.313  11.079
60078W        W19372  16.267  34.421  13.802
60079W        W19373  39.401   7.785  14.845
60080W        W19374  34.089   7.737   1.434
60081W        W19375  29.055  18.200  12.349
60082W        W19376  41.361  33.476  11.547
60083W        W19377  15.197  42.508  10.545
60084W        W19378  18.599  13.165  11.993
60085W        W19379  33.571  24.478  13.473
60086W        W19380   1.854  30.155  10.570
60087W        W19381  11.653  43.786  10.643
60088W        W19382  26.199  18.082   4.622
60089W        W19383  32.506  15.326  14.862
60090W        W19384  22.043  33.585   3.689
60091W        W19385  14.600  43.984   1.920
60092W        W19386  13.718  32.137  12.407
60093W        W19387  24.008  32.056  11.028
60094W        W19388  16.631  36.379  14.354
60095W        W19389   3.358  28.649  11.058
60096W        W19390  33.959  36.558  10.922
60097W        W19391  32.970   3.361   4.651
60098W        W19392  16.180  11.686  12.378
60099W        W19393  13.149   9.215   4.253
60100W        W19394  23.732  20.653  11.049
60101W        W19395  42.332  20.077  14.978
60102W        W19396  13.768   5.213  13.872
60103W        W19397  20.229  29.160   2.275
60104W        W19398  41.949  12.713  12.070
60105W        W19399  22.186  12.170  11.912
60106W        W19400  11.219   1.837   3.278
60107W        W19401  18.158  32.578  12.030
60108W        W19402  20.743   7.256  12.896
60109W        W19403  41.846  10.351  12.445
60110W        W19404  40.487  20.630  11.870
60111W        W19405   0.917  24.186  11.032
60112W        W19406  38.411  31.998  11.897
60113W        W19407   6.757  18.721  14.942
60114W        W19408  23.142  32.092   2.270
60115W        W19409   1.832  42.856  14.999
60116W        W19410  19.098  33.445   3.287
60117W        W19411   2.268  26.061  10.535
60118W        W19412  22.551  43.784  11.476
60119W        W19413   6.758  40.467   3.323
60120W        W19414  11.706  44.826   1.870
60121W        W19415   9.260  24.989  12.958
60122W        W19416  26.518  36.478   3.793
60123W        W19417  19.052   4.812   1.414
60124W        W19418  13.241  40.377  12.556
60125W        W19419   2.863  16.791   0.337
60126W        W19420  38.485  27.064   2.738
60127W        W19421  43.368  18.679  13.861
60128W        W19422  39.937  22.098   2.895
60129W        W19423  43.979   7.773   3.181
60130W        W19424  37.948   3.410   4.230
60131W        W19425   8.198  33.028   3.150
60132W        W19426   2.343   3.761   4.794
60133W        W19427  29.641  34.438  13.519
60134W        W19428   2.291  19.077   1.718
60135W        W19429  24.121   3.216  12.506
60136W        W19430  28.581  40.850   3.727
60137W        W19431  24.989  11.621   3.838
60138W        W19432  43.012  25.974  14.341
60139W        W19433  17.691  34.037   0.894
60140W        W19434  13.323  26.600  14.019
60141W        W19435   2.257   3.860   0.778
60142W        W19436  26.490  23.152  14.510
60143W        W19437   9.870  37.076   3.806
60144W        W19438  44.882   2.301   1.337
60145W        W19439  14.632  32.002  12.836
60146W        W19440   8.885  27.534  13.970
60147W        W19441  10.850   9.838  12.448
60148W        W19442  42.924   0.888  13.820
60149W        W19443  15.583  23.663   1.882
60150W        W19444   2.309   3.346  13.504
60151W        W19445   3.735  37.415  10.522
60152W        W19446   1.340  14.662  13.465
60153W        W19447  37.973   1.463  12.988
60154W        W19448  29.531   0.445   3.258
60155W        W19449  23.587  13.636  12.838
60156W        W19450  44.804   3.374   1.824
60157W        W19451  38.432  13.135   1.759
60158W        W19452  21.124   2.378  12.345
60159W        W19453  24.615  26.200   4.646
60160W        W19454  28.645  34.449  12.389
60161W        W19455  32.137   3.756   3.319
60162W        W19456   7.670  18.697  13.329
60163W        W19457  17.204  41.390  13.896
60164W        W19458  20.749  25.205  11.915
60165W        W19459  44.774   4.761   1.383
60166W        W19460  39.526  35.014  13.949
60167W        W19461  12.212   2.806  12.012
60168W        W19462  17.643  39.815  14.941
60169W        W19463  26.692  33.923   1.891
60170W        W19464  32.541   7.370  14.018
60171W        W19465  32.634  11.274  10.608
60172W        W19466  14.806  33.438   0.901
60173W        W19467  15.765  14.302   2.879
60174W        W19468   5.784  24.690   3.698
60175W        W19469  41.970  35.420  12.458
60176W        W19470   8.662  27.587  11.536
60177W        W19471  19.776  19.747   2.257
60178W        W19472   5.243  40.306  14.510
60179W        W19473  39.835  14.121   4.174
60180W        W19474   0.814  37.401  10.474
60181W        W19475  44.820  10.859   1.933
60182W        W19476   7.758  25.091   2.202
60183W        W19477   9.158  24.010  11.908
60184W        W19478  22.225  21.542  11.486
60185W        W19479  29.653  36.462   3.384
60186W        W19480  23.209  27.065   3.155
60187W        W19481  40.900  35.374   4.289
60188W        W19482   9.885  19.098  10.536
60189W        W19483  41.880  21.725  13.942
60190W        W19484  31.480  19.617   3.185
60191W        W19485  29.107  21.198   4.163
60192W        W19486  32.501  13.722  10.541
60193W        W19487  32.598   5.913   2.714
60194W        W19488  18.549  28.140  13.364
60195W        W19489  42.795   7.705  11.499
60196W        W19490  24.088  18.165  11.945
60197W        W19491  36.545   5.734   1.439
60198W        W19492  29.587  20.599  12.013
60199W        W19493   7.199  15.577   4.721
60200W        W19494  24.634   0.935  11.870
60201W        W19495  26.607  17.597   2.731
60202W        W19496   9.333   1.731  10.983
60203W        W19497  13.808  21.683   2.252
60204W        W19498  24.561  32.557   2.831
60205W        W19499   8.223   7.717  11.408
60206W        W19500  22.739  18.692   1.826
60207W        W19501  14.831  43.504  11.557
60208W        W19502   4.347  36.453   0.885
60209W        W19503  30.059  33.595   1.862
60210W        W19504  21.060  36.055  12.021
60211W        W19505  42.870  44.774   5.148
60212W        W19506  25.088  36.358  10.471
60213W        W19507  40.030  28.017  13.419
60214W        W19508  39.538  34.540   2.203
60215W        W19509  11.300   4.342   1.271
60216W        W19510  31.998   8.288   0.476
60217W        W19511  24.988  23.230  11.538
60218W        W19512  26.202  40.500  12.949
60219W        W19513  43.981  40.460  14.008
60220W        W19514  36.563  15.802   2.343
60221W        W19515  16.239  26.693  13.356
60222W        W19516  15.271  22.559  14.891
60223W        W19517  32.493  24.150  10.522
60224W        W19518  40.939  44.822  10.891
60225W        W19519  13.822  39.867   0.892
60226W        W19520  31.112   8.881   5.302
60227W        W19521   4.850  19.201  13.951
60228W        W19522  26.056  10.796  11.871
60229W        W19523  26.148  10.221  13.007
60230W        W19524  12.619  39.019  11.951
60231W        W19525  32.457  22.521   3.359
60232W        W19526  14.166  31.565   3.681
60233W        W19527  20.598  40.854  14.021
60234W        W19528  36.380  16.098   2.292
60235W        W19529   3.780  26.605  10.534
60236W        W19530  37.952  18.279   5.251
60237W        W19531  22.205  15.608  10.564
60238W        W19532  43.992   7.308   4.207
60239W        W19533  11.811  32.087  12.442
60240W        W19534   9.885  18.195  10.639
60241W        W19535  10.687  38.567   3.282
60242W        W19536  30.023   5.851   4.621
60243W        W19537  20.255  22.644   0.301
60244W        W19538  23.088  44.982  13.435
60245W        W19539   5.218  19.538   4.777
60246W        W19540  42.828   4.762   2.752
60247W        W19541  31.897  11.730   1.702
60248W        W19542  15.125  36.475   2.386
60249W        W19543  39.556  35.461  10.461
60250W        W19544   6.376   2.939   4.193
60251W        W19545  37.397  11.259   2.260
60252W        W19546  28.450  25.187   4.628
60253W        W19547   5.821   2.867  13.856
60254W        W19548  44.325  38.030  10.575
60255W        W19549  14.236  39.383   2.826
60256W        W19550  41.911  32.573  14.798
60257W        W19551  27.515  10.806  13.920
60258W        W19552  30.079   6.188   4.824
60259W        W19553  16.081  33.386   4.130
60260W        W19554  34.997  21.561   0.822
60261W        W19555  29.576  15.735  13.830
60262W        W19556  30.643  19.208   1.748
60263W        W19557  33.958  25.598   1.248
60264W        W19558  27.561  30.938   1.753
60265W        W19559  42.898   0.313   3.353
60266W        W19560  17.220  29.934  12.955
60267W        W19561  38.394  31.430   4.767
60268W        W19562   9.209  39.530  14.414
60269W        W19563  14.181  44.969   0.456
60270W        W19564  34.113  29.595  14.501
60271W        W19565   6.341  14.291   1.812
60272W        W19566  40.842  24.041   4.186
60273W        W19567  21.038  14.315  14.915
60274W        W19568  16.734  18.079   0.887
60275W        W19569  15.601  24.174   3.737
60276W        W19570  39.501  31.419  11.060
60277W        W19571  24.023  11.266   4.807
60278W        W19572  35.042  15.286   2.718
60279W        W19573  18.215  20.682   3.864
60280W        W19574   9.187   9.724  14.807
60281W        W19575  33.601  42.458   0.754
60282W        W19576  41.805  13.824  13.403
60283W        W19577   0.782   9.284   4.251
60284W        W19578  32.085  29.134  12.571
60285W        W19579   8.188  23.501  14.935
60286W        W19580  18.791  20.067   1.804
60287W        W19581  39.849  27.168  13.814
60288W        W19582  44.815   8.714  14.348
60289W        W19583  29.646   8.811  11.604
60290W        W19584  35.917   6.799  14.304
60291W        W19585  39.442  36.955  14.978
60292W        W19586  41.970   6.340  13.964
60293W        W19587  36.865   8.778   0.954
60294W        W19588  39.935   7.853   2.858
60295W        W19589   4.271   5.874   1.765
60296W        W19590  37.022  43.968  12.830
60297W        W19591  29.089  38.477   3.812
60298W        W19592   3.946  33.546  14.468
60299W        W19593  20.568   6.923  13.511
60300W        W19594  10.787  12.249   4.168
60301W        W19595  27.649  33.611  11.053
60302W        W19596  38.888  10.853   5.214
60303W        W19597  29.984  17.176   3.768
60304W        W19598  14.205  30.035   4.232
60305W        W19599  43.437  12.298   4.815
60306W        W19600  44.366  16.311   0.758
60307W        W19601  23.090  18.097   0.814
60308W        W19602  37.354   3.273  11.886
60309W        W19603  18.258  10.151   2.182
60310W        W19604  14.697   4.207   3.186
60311W        W19605  32.543   4.287   0.275
60312W        W19606  29.971   0.782   3.748
60313W        W19607  14.603   5.343  10.587
60314W        W19608  18.715  27.615   2.341
60315W        W19609  30.500  28.498  14.763
60316W        W19610   4.799  37.353   5.196
60317W        W19611  18.129  44.802   4.716
60318W        W19612  23.240  13.209  11.910
60319W        W19613  22.582  15.182   1.704
60320W        W19614   2.777  32.392   1.303
60321W        W19615  30.612  17.308   3.865
60322W        W19616  24.571  32.104   4.243
60323W        W19617   4.387  11.855   2.356
60324W        W19618  30.460  27.973   2.390
60325W        W19619  21.633  43.018   1.260
60326W        W19620  38.937  40.817   3.180
60327W        W19621  19.692  30.972   1.862
60328W        W19622   7.190  30.508  11.386
60329W        W19623  41.522  24.614  10.896
60330W        W19624  44.505  30.974  14.000
60331W        W19625  44.786  12.662  13.828
60332W        W19626   9.317  43.341  13.844
60333W        W19627  40.347  34.069   2.325
60334W        W19628  30.956  12.262   4.660
60335W        W19629  24.600   8.386  13.018
60336W        W19630  13.214   2.883  11.053
60337W        W19631  33.500  17.189   2.798
60338W        W19632  20.132  13.144   2.799
60339W        W19633  10.316  34.462  12.455
60340W        W19634   5.745   3.218   0.469
60341W        W19635  22.179  14.773  13.487
60342W        W19636  14.207  16.190   3.791
60343W        W19637  25.548  27.449   3.157
60344W        W19638   3.439  32.426   1.369
60345W        W19639  25.709  33.443   3.731
60346W        W19640  34.094  24.596   2.862
60347W        W19641  12.145  17.631   4.307
60348W        W19642  40.982  35.942   5.320
60349W        W19643  33.965  27.528   2.782
60350W        W19644   7.260  34.897   3.684
60351W        W19645  13.662   2.320  14.795
60352W        W19646  39.838  33.066   4.134
60353W        W19647  25.179  42.478  12.525
60354W        W19648  21.640   6.252   0.372
60355W        W19649  40.456   6.191   9.968
60356W        W19650  26.494  25.078  12.497
60357W        W19651  25.044  17.664   2.367
60358W        W19652  29.553  34.888  10.424
60359W        W19653  31.094   6.340  14.469
60360W        W19654  16.724  19.133  13.928
60361W        W19655  18.706  38.352   1.804
60362W        W19656  33.430  12.762  11.991
60363W        W19657  26.597  33.066  12.031
60364W        W19658  13.658   8.738   1.381
60365W        W19659  31.046  37.451   0.459
60366W        W19660  34.076  26.632  12.427
60367W        W19661  21.228  35.937   2.717
60368W        W19662  36.920  34.962  14.320
60369W        W19663  13.753  17.112  11.456
60370W        W19664   4.892   0.467  10.542
60371W        W19665  44.774  12.855   2.724
60372W        W19666  28.109   7.697   0.439
60373W        W19667  27.541  30.949   0.784
60374W        W19668   8.895  11.261   0.460
60375W        W19669  23.083  23.042  11.394
60376W        W19670   9.361  31.546  13.503
60377W        W19671  17.079  16.688  14.965
60378W        W19672  15.634  32.905  13.820
60379W        W19673  30.953  26.122   0.484
60380W        W19674   4.236  13.346   1.794
60381W        W19675  27.110  44.007  13.537
60382W        W19676  17.638  13.237   4.174
60383W        W19677  35.930  40.513   4.809
60384W        W19678  39.927  11.769   2.743
60385W        W19679   7.241  37.962  12.503
60386W        W19680  40.495   6.918   1.262
60387W        W19681  20.244  26.463   3.771
60388W        W19682  27.569  39.522  12.910
60389W        W19683  40.491  13.139   3.149
60390W        W19684   5.714  37.440  10.436
60391W        W19685  17.617  25.200  11.010
60392W        W19686  31.464  23.165   2.774
60393W        W19687   3.334  40.001   1.222
60394W        W19688  23.164  19.716   4.228
60395W        W19689  36.956  25.137   3.796
60396W        W19690   2.807   9.770  11.918
60397W        W19691  39.896  32.581   1.820
60398W        W19692   7.773  25.652  11.087
60399W        W19693   7.801  14.747  10.449
60400W        W19694   8.851  12.790   0.370
60401W        W19695  42.402  22.547   0.812
60402W        W19696  12.685  18.230  10.480
60403W        W19697  29.998  30.002   0.775
60404W        W19698   9.306   8.319   0.480
60405W        W19699  40.548  21.241  11.382
60406W        W19700  44.882  31.577   4.239
60407W        W19701  24.977  17.625   3.154
60408W        W19702   4.434  38.472  11.425
60409W        W19703  28.582   9.857  12.979
60410W        W19704  21.260  35.027  14.334
60411W        W19705  43.897  23.657  12.068
60412W        W19706   1.904  26.176  13.999
60413W        W19707  27.998  42.369  10.084
60414W        W19708  23.578  24.063   4.823
60415W        W19709   1.314  36.406   4.790
60416W        W19710  32.466  28.164   3.289
60417W        W19711  38.333  19.547  10.920
60418W        W19712  43.501  24.129   4.825
60419W        W19713  15.815  36.592  11.068
60420W        W19714  16.096  27.004   0.909
60421W        W19715  17.730  44.858   4.196
60422W        W19716  29.046   3.281   0.764
60423W        W19717  12.765  13.181   0.767
60424W        W19718  36.974  42.793   1.419
60425W        W19719   7.687  38.390   4.607
60426W        W19720  27.155  33.021  10.565
60427W        W19721   3.300  10.773  13.369
60428W        W19722  43.449  36.968   2.760
60429W        W19723  33.503  27.949   0.891
60430W        W19724  41.801   3.334  11.993
60431W        W19725  44.473  15.192   2.713
60432W        W19726  30.070  23.191   0.362
60433W        W19727  15.222  39.976   3.774
60434W        W19728  17.124  33.523   3.255
60435W        W19729   2.842  41.859   2.273
60436W        W19730   5.325   3.379  11.861
60437W        W19731  22.191   9.824  12.480
60438W        W19732  33.498   9.296   4.120
60439W        W19733  13.162  36.368   4.191
60440W        W19734  44.450  20.701   3.756
60441W        W19735   8.297  16.251   3.786
60442W        W19736  33.626   2.746  11.890
60443W        W19737  23.171  17.569   1.828
60444W        W19738   8.689  13.681   3.323
60445W        W19739   3.868  40.983   1.927
60446W        W19740  20.655   6.904  12.516
60447W        W19741  28.095  17.068   2.716
60448W        W19742  21.709  42.844  11.425
60449W        W19743   1.851  25.153   2.230
60450W        W19744   9.268   1.900   0.480
60451W        W19745  22.686   4.308   2.734
60452W        W19746  28.079   2.292  13.491
60453W        W19747  16.755  25.099   4.327
60454W        W19748   8.379   8.233   3.725
60455W        W19749  14.270  11.841   3.286
60456W        W19750  17.586   0.812   3.631
60457W        W19751  43.433  16.809   0.774
60458W        W19752  44.974   9.787  10.478
60459W        W19753  39.811  13.781  11.400
60460W        W19754  38.830  27.192   1.451
60461W        W19755  31.126  28.560  12.877
60462W        W19756  32.013   9.241   3.193
60463W        W19757  24.033  35.929   1.383
60464W        W19758   1.284  29.085  13.391
60465W        W19759  31.421  43.501   0.411
60466W        W19760   5.792   2.365  14.772
60467W        W19761  40.378  13.130   3.737
60468W        W19762  35.995  24.525  13.931
60469W        W19763  20.249   4.790  10.004
60470W        W19764  23.637  33.889   3.792
60471W        W19765  40.418   9.739  14.379
60472W        W19766   3.296   6.372  12.892
60473W        W19767   7.748  23.994   1.393
60474W        W19768  17.594   1.946   4.336
60475W        W19769  44.835  38.055  12.571
60476W        W19770  33.106  27.621   4.618
60477W        W19771  12.761  21.716  13.528
60478W        W19772   0.861  24.618   1.870
60479W        W19773  43.841  40.437   2.680
60480W        W19774  16.304   9.855   2.301
60481W        W19775   1.846  14.183  11.555
60482W        W19776  25.679  10.328  12.040
60483W        W19777  37.973  43.440  14.294
60484W        W19778  39.490  37.891   9.677
60485W        W19779  35.458   5.729  11.083
60486W        W19780  11.769  25.602   1.764
60487W        W19781  13.195  13.114  12.850
60488W        W19782   4.799   4.263  13.029
60489W        W19783  25.078   3.363   3.871
60490W        W19784  36.973  28.625  13.860
60491W        W19785   4.389  41.025   1.397
60492W        W19786  39.048   9.303   0.247
60493W        W19787   0.396  22.175   4.209
60494W        W19788  39.332   5.863  14.843
60495W        W19789  13.722  36.044  10.409
60496W        W19790  22.209  39.880   2.222
60497W        W19791  28.148  29.433   1.239
60498W        W19792  34.969   8.657   0.455
60499W        W19793  28.467  19.246  12.850
60500W        W19794  26.477   6.186   4.659
60501W        W19795  13.120  14.136  12.521
60502W        W19796  30.949  38.510  10.621
60503W        W19797  24.975   7.275   2.260
60504W        W19798  28.512  20.609   3.285
60505W        W19799  33.088  42.910  12.352
60506W        W19800   3.841  37.548   2.181
60507W        W19801  25.098   7.878  14.509
60508W        W19802  16.806  14.118   1.399
60509W        W19803  34.579  15.642   3.200
60510W        W19804  30.553  23.508  12.065
60511W        W19805  37.423  25.021   1.810
60512W        W19806  10.690  42.451  11.433
60513W        W19807   6.395   6.324   3.329
60514W        W19808   6.361  13.722  12.564
60515W        W19809  37.073  19.566  10.987
60516W        W19810  13.637  25.046   4.217
60517W        W19811  31.472  38.467   4.693
60518W        W19812   5.741  11.205  12.992
60519W        W19813  12.126   7.371   3.347
60520W        W19814  21.608   8.828  13.957
60521W        W19815  11.246  31.926  12.080
60522W        W19816  20.685   1.831   2.817
60523W        W19817  32.416   1.267   1.436
60524W        W19818  35.543  37.029   1.330
60525W        W19819  17.200  42.390  12.068
60526W        W19820   0.849  30.657   0.878
60527W        W19821   5.691  31.084  11.412
60528W        W19822  10.367   6.386   0.332
60529W        W19823  12.846  12.743  12.569
60530W        W19824   4.792   6.708  14.322
60531W        W19825  21.653   2.336   3.209
60532W        W19826  15.305   5.305   3.763
60533W        W19827  17.597  16.665   1.399
60534W        W19828  37.517  10.837  14.969
60535W        W19829  38.535   1.253   4.637
60536W        W19830   1.865  43.341   1.824
60537W        W19831   0.824  36.849   1.928
60538W        W19832  34.614  17.198  11.099
60539W        W19833  10.370   7.903  11.446
60540W        W19834  16.263  22.709   2.895
60541W        W19835  32.017  27.541   1.806
60542W        W19836  38.383  33.468  12.397
60543W        W19837   6.693  23.627  12.550
60544W        W19838   0.764   2.839  12.080
60545W        W19839  31.931  26.521   3.243
60546W        W19840  39.904  16.770  13.003
60547W        W19841  32.907   5.256   4.821
60548W        W19842  34.476  26.151  12.029
60549W        W19843  23.062  25.512   4.295
60550W        W19844   9.239  21.612  12.088
60551W        W19845  41.512  42.988  11.125
60552W        W19846  16.627  22.664  13.878
60553W        W19847  34.914  29.169   4.714
60554W        W19848   3.232  32.093  10.110
60555W        W19849  30.513  32.408   2.819
60556W        W19850  21.020  16.795   1.331
60557W        W19851  30.133  28.643  11.565
60558W        W19852  20.083  28.614  13.983
60559W        W19853  12.123  40.051   1.703
60560W        W19854  17.768  39.952   0.429
60561W        W19855   7.322  38.547  13.479
60562W        W19856  24.206  22.617   0.963
60563W        W19857  38.838  39.406  14.765
60564W        W19858  38.454  37.403   3.233
60565W        W19859  43.459   8.299  13.510
60566W        W19860  37.393  11.246  13.937
60567W        W19861   1.238  35.456   4.174
60568W        W19862  30.463  31.001   2.771
60569W        W19863  37.831  11.333  12.912
60570W        W19864   7.728  37.960  11.007
60571W        W19865  13.819  13.280  12.550
60572W        W19866   2.451  41.950   3.852
60573W        W19867  17.729  10.828   2.831
60574W        W19868  36.987   7.369  12.541
60575W        W19869  22.676  43.432   2.665
60576W        W19870  18.108  11.845  11.534
60577W        W19871  34.935  30.927  13.917
60578W        W19872  22.546  39.956   1.861
60579W        W19873  42.443  34.009   1.406
60580W        W19874  40.022  13.210   4.821
60581W        W19875   1.343  25.519  14.369
60582W        W19876   1.856  15.206   2.820
60583W        W19877  23.984  23.034   0.266
60584W        W19878  38.490  37.984  13.828
60585W        W19879  10.639  34.956   3.866
60586W        W19880  29.020  14.631  11.422
60587W        W19881  20.617   3.409   2.178
60588W        W19882  21.187  41.984  13.790
60589W        W19883  34.062   3.748   3.310
60590W        W19884  15.185  19.273   0.747
60591W        W19885  38.556  31.927   4.292
60592W        W19886  27.557  44.958   4.156
60593W        W19887  37.909  15.275  14.434
60594W        W19888  12.325  27.131   3.162
60595W        W19889  38.379   8.233  13.435
60596W        W19890   9.201   2.423  14.800
60597W        W19891  33.548  14.593  10.629
60598W        W19892  18.592   3.877  12.958
60599W        W19893  30.474  41.421   3.708
60600W        W19894  19.674  16.762  13.819
60601W        W19895   4.943  15.725  11.071
60602W        W19896  37.525  38.384   2.292
60603W        W19897  39.910  23.702  14.487
60604W        W19898  16.784   0.375  13.941
60605W        W19899  23.109  27.954  12.441
60606W        W19900   4.345  24.129  14.992
60607W        W19901  37.439  10.773   3.796
60608W        W19902  12.118  15.140   4.651
60609W        W19903   8.257  32.069   2.794
60610W        W19904   6.786  33.514  11.087
60611W        W19905  25.992  16.783  11.984
60612W        W19906   3.383  38.407   1.303
60613W        W19907   9.701  32.550   0.477
60614W        W19908  29.476  20.260   2.704
60615W        W19909  38.547  37.503   9.923
60616W        W19910  19.562  18.064   4.809
60617W        W19911  33.900   9.883  12.363
60618W        W19912  36.879  27.133  13.954
60619W        W19913  27.991  14.190  10.591
60620W        W19914  41.515  35.876  11.399
60621W        W19915   8.222   8.655   0.948
60622W        W19916  43.799   5.377  14.900
60623W        W19917  30.035   6.773   4.836
60624W        W19918  12.776  20.710  11.044
60625W        W19919  27.559  31.646  13.475
60626W        W19920  13.253  33.918  12.360
60627W        W19921  21.517  42.321   4.702
60628W        W19922  33.561  23.031   1.220
60629W        W19923  31.027  13.623   2.751
60630W        W19924  43.801  40.997   1.746
60631W        W19925  11.824  27.622  14.446
60632W        W19926  13.683  35.522  10.512
60633W        W19927  44.772  31.124   3.734
60634W        W19928   3.874  42.032  11.375
60635W        W19929   3.850  10.148  10.036
60636W        W19930   2.922  26.476  10.418
60637W        W19931  37.533   9.391   0.402
60638W        W19932  37.362   0.751   0.388
60639W        W19933  32.527  19.727  14.440
60640W        W19934  26.545  41.935  11.879
60641W        W19935  35.978  14.204   0.431
60642W        W19936  33.875  23.724   3.666
60643W        W19937  25.194  42.863   0.291
60644W        W19938  29.611  19.256   0.318
60645W        W19939  28.181  23.697   0.741
60646W        W19940  27.962  35.504   2.261
60647W        W19941   6.375  28.456   1.444
60648W        W19942  21.157  24.103  13.863
60649W        W19943   6.785  44.446  13.548
60650W        W19944  38.063  35.452   0.744
60651W        W19945  34.452  28.500  12.043
60652W        W19946  37.344  13.642   2.898
60653W        W19947  21.688  22.736   9.977
60654W        W19948  36.570  19.254  14.775
60655W        W19949   7.292  20.191  12.956
60656W        W19950  23.677  35.008   3.377
60657W        W19951  39.358  32.885  12.090
60658W        W19952  17.561  27.611   1.442
60659W        W19953   3.256  44.865  14.500
60660W        W19954  37.922   1.828  11.428
60661W        W19955  43.977  13.686   4.256
60662W        W19956  23.130  44.987  12.074
60663W        W19957  44.412  36.947  11.557
60664W        W19958   4.319  26.489   3.294
60665W        W19959  12.227  28.471  12.485
60666W        W19960   1.761  31.954  11.958
60667W        W19961  34.465  21.749  13.036
60668W        W19962  15.103  35.359   4.773
60669W        W19963  42.401  27.647  12.471
60670W        W19964  15.207  27.669  14.896
60671W        W19965  19.155  35.088   0.912
60672W        W19966   9.291  42.359  14.020
60673W        W19967  26.580  14.682  10.890
60674W        W19968  16.253  16.166  11.564
60675W        W19969  43.984  36.470   1.704
60676W        W19970   7.172  18.276   0.738
60677W        W19971  27.480  15.579   1.290
60678W        W19972  10.327  12.739  12.842
60679W        W19973  15.168  43.797   0.900
60680W        W19974  18.094  43.301  13.809
60681W        W19975   3.834  18.608  11.892
60682W        W19976  18.229  16.106  11.505
60683W        W19977  12.619  34.543   3.385
60684W        W19978  17.100  11.828  14.795
60685W        W19979  33.565  11.145  11.427
60686W        W19980  26.561  22.192   2.701
60687W        W19981  12.644  43.279   1.707
60688W        W19982  38.565   5.299  10.417
60689W        W19983  18.183  44.466  14.893
60690W        W19984   2.327  36.413   4.619
60691W        W19985  29.617  40.921   3.347
60692W        W19986   9.870  15.793   2.389
60693W        W19987  44.281  32.051   4.788
60694W        W19988  25.995   8.236  13.973
60695W        W19989   8.731  11.362   0.967
60696W        W19990  10.777  26.663  12.006
60697W        W19991  14.746  22.511   0.301
60698W        W19992  16.674   3.243  11.883
60699W        W19993  36.029   7.173  12.015
60700W        W19994   5.252  17.242  11.512
60701W        W19995  32.410  40.049  10.009
60702W        W19996  26.613  27.679  10.471
60703W        W19997   4.354  10.316   1.402
60704W        W19998  23.033  11.359  11.002
60705W        W19999  13.632  24.045  12.095
60706W        W20000  28.492  37.062   1.324
60707W        W20001  26.105   9.151   2.711
60708W        W20002   4.869  12.632  14.290
60709W        W20003   0.354  38.825   2.691
60710W        W20004  21.021  17.231  11.594
60711W        W20005  21.611  41.382  13.860
60712W        W20006  41.809  36.400  13.338
60713W        W20007   4.445  25.635  13.976
60714W        W20008  27.194  18.771  14.839
60715W        W20009  12.773  16.764  10.501
60716W        W20010   9.735  20.172  12.910
60717W        W20011  30.584   9.828  13.841
60718W        W20012  30.649   6.246  11.975
60719W        W20013  22.175   3.737  11.506
60720W        W20014   6.360   7.201  12.375
60721W        W20015  10.855   2.284  14.506
60722W        W20016  27.517  21.560   3.278
60723W        W20017  19.146   7.721   1.327
60724W        W20018  42.467  23.608  13.860
60725W        W20019   9.864  28.548  11.965
60726W        W20020  32.502  13.287  11.026
60727W        W20021  35.913  43.848  10.500
60728W        W20022   7.907  31.601  11.436
60729W        W20023  16.085   2.253  14.762
60730W        W20024  14.144  23.524   4.691
60731W        W20025   0.746  19.741  11.598
60732W        W20026  24.709  21.530   3.308
60733W        W20027  32.965  18.257  12.985
60734W        W20028   3.832  33.989   1.333
60735W        W20029   7.748   7.361  10.952
60736W        W20030  30.042  15.587   2.697
60737W        W20031  24.657  31.036  14.907
60738W        W20032  40.505  29.641  12.018
60739W        W20033   5.736  42.412   2.340
60740W        W20034  38.519  23.501   1.230
60741W        W20035   1.868  35.101   2.254
60742W        W20036  44.302   3.359   4.221
60743W        W20037  12.625  13.200   3.646
60744W        W20038   0.930  35.855  11.033
60745W        W20039  32.084  34.944   3.770
60746W        W20040   3.336  10.261   0.352
60747W        W20041  15.299  28.940   4.255
60748W        W20042  25.022  31.076  12.417
60749W        W20043  13.118   9.365  10.426
60750W        W20044   3.368  44.840  13.972
60751W        W20045   6.883  10.367   4.133
60752W        W20046   7.315   3.830  11.528
60753W        W20047  25.636  10.237  13.847
60754W        W20048  36.461  42.798   3.265
60755W        W20049  34.521  15.672   4.203
60756W        W20050  20.092  43.461   2.827
60757W        W20051  33.494   0.845   0.841
60758W        W20052   9.382  27.566   2.296
60759W        W20053  31.410  36.449   1.402
60760W        W20054   9.852   6.843  12.096
60761W        W20055  41.353   0.360   2.701
60762W        W20056  20.067  42.881   3.750
60763W        W20057  15.308  31.546  13.886
60764W        W20058   1.343   4.874   3.334
60765W        W20059  43.463  20.242  12.029
60766W        W20060  41.891   0.351   2.367
60767W        W20061  43.831  37.866   1.809
60768W        W20062  44.337  39.467   4.217
60769W        W20063  33.050  41.306  13.342
60770W        W20064   6.272  23.720  13.860
60771W        W20065   1.904  26.501  12.364
60772W        W20066   7.384  41.450  12.368
60773W        W20067  34.369  11.240   0.758
60774W        W20068   3.304  39.517  13.843
60775W        W20069  39.999  32.957   1.934
60776W        W20070  33.874  15.759   4.616
60777W        W20071  21.044  20.259   3.679
60778W        W20072  31.070  42.955   0.461
60779W        W20073  30.920  30.632  12.577
60780W        W20074  32.886  33.414   4.280
60781W        W20075  11.272  11.201   1.272
60782W        W20076  19.206  43.772   4.231
60783W        W20077   5.809  35.860   3.249
60784W        W20078   0.351  10.701  13.810
60785W        W20079  17.585  32.403  13.357
60786W        W20080  35.883  44.864   2.408
60787W        W20081   7.717  20.218   3.254
60788W        W20082   5.745   2.296   1.809
60789W        W20083  18.621   4.856  14.309
60790W        W20084   4.404  16.181  13.016
60791W        W20085  20.122  29.006   3.816
60792W        W20086  29.076   5.822  14.451
60793W        W20087  27.593  26.551   0.304
60794W        W20088   9.206   8.749   5.201
60795W        W20089   8.377  32.026  10.053
60796W        W20090  34.533  21.228  14.816
60797W        W20091  34.604  31.618  14.367
60798W        W20092   2.801  27.115  13.414
60799W        W20093  34.463  30.971  13.373
60800W        W20094  14.267  30.480   9.986
60801W        W20095  10.833  11.151  14.918
60802W        W20096  12.345  34.537  14.938
60803W        W20097   6.794  41.300  14.319
60804W        W20098  16.283  18.092   2.822
60805W        W20099   9.158  13.217  11.582
60806W        W20100  13.629   3.271   3.354
60807W        W20101  15.663  43.960   2.794
60808W        W20102  27.068  12.346  11.486
60809W        W20103  15.640   5.297   0.343
60810W        W20104  12.611  43.936  11.947
60811W        W20105  18.654   0.350  14.879
60812W        W20106  28.626  29.944  12.843
60813W        W20107   4.298  44.485   2.329
60814W        W20108  40.434   5.409   4.119
60815W        W20109  31.558  15.088   4.138
60816W        W20110  28.676  20.662   0.328
60817W        W20111   2.355  13.830  13.008
60818W        W20112  18.740   5.231   1.224
60819W        W20113  31.976   0.266  11.378
60820W        W20114   4.910  13.676  14.469
60821W        W20115  40.971  28.630   1.731
60822W        W20116  14.129   5.391   1.235
60823W        W20117   7.286   2.940  12.456
60824W        W20118   2.424  40.541   2.754
60825W        W20119  23.630   2.313  14.877
60826W        W20120   5.257  37.003   3.670
60827W        W20121  33.974  20.693   4.632
60828W        W20122  33.510  27.473  13.321
60829W        W20123  39.511  11.198   4.221
60830W        W20124  19.115  43.491   1.318
60831W        W20125  40.025  26.989  12.977
60832W        W20126  21.159  12.162   4.657
60833W        W20127   6.789   6.754   0.756
60834W        W20128   3.786  39.457   4.712
60835W        W20129  15.635  40.473  10.595
60836W        W20130  40.309  27.550  12.460
60837W        W20131  23.031   7.841   0.913
60838W        W20132  25.029  37.371  11.926
60839W        W20133  41.462  28.955   3.720
60840W        W20134  33.463   2.260  13.892
60841W        W20135  18.753  24.184  10.597
60842W        W20136  19.158  15.714   1.743
60843W        W20137  25.481   1.835   1.369
60844W        W20138   4.208  36.485  11.556
60845W        W20139  24.104   1.459  14.275
60846W        W20140  32.416  30.999  11.091
60847W        W20141  27.472  25.062   4.748
60848W        W20142  27.591  25.520  12.450
60849W        W20143  44.906  24.009   0.816
60850W        W20144  36.954  21.682  11.548
60851W        W20145  44.764  38.479  13.023
60852W        W20146  44.310  33.410  13.991
60853W        W20147  27.064  36.852  12.955
60854W        W20148   9.767   4.846  11.951
60855W        W20149  11.197   7.412   2.692
60856W        W20150   4.412   4.241  12.858
60857W        W20151  12.711  29.954  13.450
60858W        W20152  34.090   0.302  11.938
60859W        W20153  26.139  35.955  11.088
60860W        W20154  29.950  41.896  11.073
60861W        W20155  14.741  13.154   2.396
60862W        W20156  24.998  27.045  14.989
60863W        W20157  35.102  26.604  10.038
60864W        W20158  35.044   7.378  14.876
60865W        W20159   3.365   1.765   4.672
60866W        W20160  21.103  17.750  13.056
60867W        W20161  20.189  23.076  11.107
60868W        W20162  36.957   3.275  12.949
60869W        W20163  35.924  40.423  11.446
60870W        W20164  10.180  41.965   3.192
60871W        W20165  37.391   4.747  14.842
60872W        W20166  29.027   4.794   4.268
60873W        W20167  37.425  12.729  12.831
60874W        W20168  35.444  22.198   0.894
60875W        W20169   9.212  26.610   0.882
60876W        W20170  41.858   1.930  12.450
60877W        W20171  37.923  43.878  14.850
60878W        W20172  21.198   0.879   4.605
60879W        W20173   6.909  38.464   3.867
60880W        W20174  31.634  40.396  11.407
60881W        W20175  37.502   5.872  13.008
60882W        W20176  38.435  22.699   3.865
60883W        W20177  29.009  24.070  13.016
60884W        W20178  15.630  39.832   3.843
60885W        W20179  43.981  15.722   4.276
60886W        W20180  41.401  30.113  11.864
60887W        W20181  26.153   9.712  11.085
60888W        W20182   4.398   8.347   0.780
60889W        W20183  40.524  33.394  12.354
60890W        W20184   4.346   9.832   1.857
60891W        W20185  24.188  12.622   3.697
60892W        W20186   7.283  23.519  12.442
60893W        W20187  40.923  36.376  11.435
60894W        W20188  31.988   3.452   0.306
60895W        W20189  13.264  33.023   2.362
60896W        W20190  16.602  32.100   1.365
60897W        W20191  40.319  29.571   4.259
60898W        W20192   9.709  41.517  14.778
60899W        W20193  14.213  32.094  10.950
60900W        W20194  37.359  40.978   2.227
60901W        W20195  36.492   9.327  13.414
60902W        W20196   9.222   6.879  10.974
60903W        W20197  19.767  25.629  13.444
60904W        W20198  30.116  12.312  12.003
60905W        W20199  27.036  10.328  11.446
60906W        W20200  12.762  25.039   2.697
60907W        W20201  14.604   3.860  13.810
60908W        W20202  32.125  23.054   4.244
60909W        W20203  19.760   3.308  11.964
60910W        W20204   4.424  40.317  11.118
60911W        W20205  12.294  32.073  13.820
60912W        W20206  14.707  40.853  11.899
60913W        W20207  34.011  37.343  13.792
60914W        W20208  30.504  20.108  13.861
60915W        W20209   5.303   4.789   3.642
60916W        W20210  11.358  33.951  10.915
60917W        W20211  23.162  40.520  10.502
60918W        W20212   0.818   0.802   9.519
60919W        W20213   8.286  19.739  12.966
60920W        W20214  14.246  41.899   4.197
60921W        W20215   0.475   2.309  11.125
60922W        W20216   2.943  18.705  11.475
60923W        W20217  28.185  17.062  11.497
60924W        W20218   3.838  18.137   3.228
60925W        W20219   7.375  31.924   5.679
60926W        W20220  12.818  16.770   1.913
60927W        W20221  34.575  29.577  10.530
60928W        W20222  19.534  27.673  10.574
60929W        W20223  32.615  31.508  10.937
60930W        W20224  24.095  10.792   2.392
60931W        W20225   9.722  33.947   3.241
60932W        W20226  20.741  27.498   3.635
60933W        W20227  11.676   8.788  12.026
60934W        W20228  42.802  39.033   0.271
60935W        W20229   1.947  15.270   4.773
60936W        W20230  22.068  33.060  10.430
60937W        W20231   4.745   6.779   2.403
60938W        W20232  14.745  23.071   1.232
60939W        W20233  10.320  28.485  13.813
60940W        W20234  23.194   0.778  12.555
60941W        W20235  19.618  21.597  11.928
60942W        W20236  14.184  11.288   2.294
60943W        W20237  17.263  38.889  11.960
60944W        W20238  33.095  36.400   2.414
60945W        W20239  25.047  33.995   2.673
60946W        W20240  18.580   1.409  10.621
60947W        W20241   3.390  37.931  12.095
60948W        W20242   0.321  43.393   3.319
60949W        W20243  18.187  35.525   2.845
60950W        W20244  31.023  20.064   2.767
60951W        W20245   2.445  12.309   1.744
60952W        W20246  42.362  31.932   2.337
60953W        W20247  19.117  23.598  14.863
60954W        W20248  44.280  32.962   4.770
60955W        W20249  25.532  28.176   5.189
60956W        W20250  42.983   2.843  14.931
60957W        W20251  14.328  14.743   3.826
60958W        W20252  24.008   8.847  11.502
60959W        W20253  11.672   9.159  10.424
60960W        W20254  39.347  10.871   2.824
60961W        W20255  36.507   3.844  12.872
60962W        W20256  22.738  12.222   5.289
60963W        W20257   2.383  14.672   1.365
60964W        W20258  13.619  11.200  11.898
60965W        W20259  33.556  29.565   1.292
60966W        W20260  15.809  26.564  12.514
60967W        W20261  17.149   0.469  14.831
60968W        W20262  14.685  36.509   0.848
60969W        W20263   6.296  30.944   1.839
60970W        W20264  14.832  23.174  14.868
60971W        W20265  28.121  26.026   0.914
60972W        W20266  43.427  10.332   2.788
60973W        W20267  38.044   7.311  11.082
60974W        W20268  33.996  34.916  11.596
60975W        W20269  33.097  12.219  12.444
60976W        W20270  42.928  23.551  10.140
60977W        W20271  39.381  43.444   3.714
60978W        W20272  17.693  30.626  11.389
60979W        W20273  25.533  11.147  12.371
60980W        W20274  41.423  33.080   4.809
60981W        W20275  43.434   4.824  13.393
60982W        W20276  30.104  23.495  11.914
60983W        W20277   8.390  29.970  12.017
60984W        W20278  11.828  25.022  14.496
60985W        W20279   9.343  22.023  13.045
60986W        W20280  34.935  22.563   4.792
60987W        W20281   4.843  23.012   3.293
60988W        W20282  33.932  32.421   0.420
60989W        W20283  39.386  34.084  13.417
60990W        W20284  17.263  32.131   1.223
60991W        W20285  33.554  11.848   5.200
60992W        W20286  21.559   1.735   1.412
60993W        W20287  41.442  41.406  14.843
60994W        W20288  41.413  28.024   4.647
60995W        W20289  28.574  31.966   0.838
60996W        W20290  21.046   8.372   0.284
60997W        W20291  23.021  37.848   0.935
60998W        W20292   8.768   7.901  11.437
60999W        W20293  28.971  13.262   2.835
61000W        W20294  19.168  43.930   3.793
61001W        W20295  43.917  17.068   1.703
61002W        W20296   4.385  43.271  11.937
61003W        W20297  11.361  17.248   3.737
61004W        W20298  40.815   3.757   4.651
61005W        W20299  39.915  37.417   4.352
61006W        W20300  30.937  29.654   0.951
61007W        W20301   3.421   7.764   3.868
61008W        W20302  16.106   8.856  11.598
61009W        W20303  18.668  15.626   1.353
61010W        W20304  41.963  40.359   1.366
61011W        W20305   5.871  39.421  10.535
61012W        W20306  24.122  40.518  13.369
61013W        W20307  29.104  20.645  14.771
61014W        W20308   8.184   9.305   3.755
61015W        W20309  28.642  32.489   4.724
61016W        W20310  39.869  20.114   0.912
61017W        W20311  13.651  27.132   1.695
61018W        W20312  43.797   8.669   3.685
61019W        W20313  42.309  39.371  11.107
61020W        W20314  14.264   8.900   2.665
61021W        W20315  32.601  20.601  12.861
61022W        W20316  33.535  11.833  12.933
61023W        W20317  17.678  14.159   1.782
61024W        W20318  17.799   1.396   2.884
61025W        W20319   7.758  22.110   4.642
61026W        W20320   6.428   3.369  10.891
61027W        W20321   2.837  13.346   3.652
61028W        W20322   6.339  35.600  12.018
61029W        W20323  14.784  37.555   5.313
61030W        W20324  20.676  37.906   4.766
61031W        W20325  23.026   8.202  12.440
61032W        W20326  28.559  23.731  13.023
61033W        W20327  41.382  13.780   0.933
61034W        W20328  17.800  21.017   0.741
61035W        W20329   8.251   3.886   2.824
61036W        W20330  43.990  26.955  14.389
61037W        W20331  44.953  19.577  13.978
61038W        W20332  16.217  36.945   2.873
61039W        W20333  12.730  31.593  14.868
61040W        W20334  35.050  14.202  12.419
61041W        W20335  17.231   8.697   5.284
61042W        W20336  38.557   3.278  11.929
61043W        W20337   7.253   8.881   2.292
61044W        W20338   7.316  17.567   4.165
61045W        W20339   6.783  20.583  13.801
61046W        W20340   8.755  22.034  12.084
61047W        W20341  37.441  18.610  13.825
61048W        W20342  35.898   5.919   2.888
61049W        W20343  41.806  41.433   4.173
61050W        W20344  30.003  27.548   1.384
61051W        W20345  15.698  10.687   1.316
61052W        W20346  36.576  41.812  13.494
61053W        W20347  44.911   8.797  11.445
61054W        W20348   5.855   4.878  14.877
61055W        W20349  18.622   9.373  12.579
61056W        W20350  16.611  38.530   2.883
61057W        W20351  12.703  26.697  14.317
61058W        W20352  11.286   0.935   3.273
61059W        W20353  33.569   9.180  11.610
61060W        W20354  18.285  15.229   4.302
61061W        W20355  15.812  25.690  10.569
61062W        W20356   5.206  24.527   3.866
61063W        W20357  14.767  43.985   1.391
61064W        W20358  29.450  14.811   4.243
61065W        W20359   1.455  38.494  11.929
61066W        W20360  26.536  24.082  10.545
61067W        W20361  31.488  17.277   3.807
61068W        W20362   5.898  19.153  12.089
61069W        W20363  28.490  19.244   4.128
61070W        W20364   8.243  12.280   2.250
61071W        W20365  44.886  13.217   4.323
61072W        W20366  12.229  37.022  14.816
61073W        W20367  41.509  40.526   1.434
61074W        W20368  38.558  33.983   3.354
61075W        W20369  39.325   7.795   0.337
61076W        W20370  43.321  25.006   4.810
61077W        W20371  34.097  39.429   1.856
61078W        W20372   8.882   0.259   2.315
61079W        W20373  39.829  34.899   0.246
61080W        W20374  36.427  25.580   4.170
61081W        W20375  15.810   5.918  11.038
61082W        W20376  15.225  21.087  13.883
61083W        W20377  24.637  32.065  13.331
61084W        W20378  16.094  39.372  12.943
61085W        W20379  15.618  40.914  14.384
61086W        W20380   8.269  35.011   1.757
61087W        W20381   1.454  26.701   2.836
61088W        W20382  21.544   8.220  13.802
61089W        W20383  28.490  43.360  11.061
61090W        W20384  36.364  21.075  14.432
61091W        W20385  40.863  34.475   2.747
61092W        W20386   9.837  22.585   0.741
61093W        W20387   4.780  17.281   5.176
61094W        W20388  34.493  18.706   3.299
61095W        W20389  14.652   8.655  11.006
61096W        W20390   8.164  15.233   3.344
61097W        W20391  30.037   3.375  12.566
61098W        W20392  16.723   8.774   0.730
61099W        W20393  16.702  12.764   0.913
61100W        W20394   5.289  14.331  13.344
61101W        W20395  39.405   3.419   5.180
61102W        W20396  16.176   5.192   0.866
61103W        W20397  13.179  17.612   0.435
61104W        W20398  16.699   9.697  13.326
61105W        W20399  30.588   3.953   2.788
61106W        W20400  20.224  15.223  10.505
61107W        W20401   3.891  36.584  14.932
61108W        W20402  31.149  22.571   3.298
61109W        W20403  13.804  44.875   1.696
61110W        W20404  13.121   8.871  11.088
61111W        W20405   9.261  41.492  11.900
61112W        W20406  10.284  28.674   0.740
61113W        W20407  21.033  27.592   2.343
61114W        W20408  23.515  10.279   3.837
61115W        W20409   9.849  22.529   1.441
61116W        W20410  41.463  30.143   3.379
61117W        W20411  30.152  43.461   2.283
61118W        W20412  38.386  27.990  11.413
61119W        W20413  14.331  39.438  13.002
61120W        W20414  38.335   1.890   0.824
61121W        W20415  35.449   7.866   3.267
61122W        W20416  11.351   6.316   1.812
61123W        W20417  30.430  29.111   2.207
61124W        W20418  35.099   6.380   3.832
61125W        W20419  24.130  17.703   0.838
61126W        W20420  32.486  27.471  13.015
61127W        W20421  17.599   7.260  11.417
61128W        W20422  16.670  10.774   1.795
61129W        W20423  20.607   9.240   0.299
61130W        W20424   0.842  41.380  11.976
61131W        W20425  36.580   8.339  13.444
61132W        W20426  28.128   5.775  11.436
61133W        W20427  41.324  36.383  12.437
61134W        W20428  39.022  28.483  10.447
61135W        W20429  39.953   9.777   2.817
61136W        W20430  11.151  39.022   0.322
61137W        W20431  22.237  14.764  13.912
61138W        W20432   8.252  43.274  12.494
61139W        W20433  20.127  23.060  12.037
61140W        W20434  19.698  28.129  11.551
61141W        W20435  35.510  27.012  12.423
61142W        W20436  20.192  34.006   4.151
61143W        W20437   7.822   6.898  12.558
61144W        W20438  25.028  19.708   3.297
61145W        W20439  34.447  43.458   0.823
61146W        W20440  16.698  24.534   1.335
61147W        W20441   3.732  29.093  10.466
61148W        W20442  45.000   7.277   1.861
61149W        W20443  12.346  43.875   1.214
61150W        W20444   3.726   1.391   3.802
61151W        W20445  25.641  25.634  12.360
61152W        W20446  22.583  11.212  10.936
61153W        W20447   1.287  20.174  11.010
61154W        W20448  32.091  21.104   4.769
61155W        W20449  43.328  38.901  13.310
61156W        W20450  32.903  30.575   0.824
61157W        W20451   4.911  19.113  14.426
61158W        W20452  36.051   1.241  13.851
61159W        W20453  30.034  20.645  14.993
61160W        W20454  20.148  33.093  12.995
61161W        W20455  39.471   7.206  14.889
61162W        W20456  14.189   4.449  11.930
61163W        W20457  33.433  23.597   1.768
61164W        W20458  10.648  34.940   5.092
61165W        W20459  23.225  13.243   4.746
61166W        W20460  34.866  16.718   1.864
61167W        W20461   8.672  16.157   2.896
61168W        W20462  16.609  13.246  13.803
61169W        W20463  12.697  33.464  12.030
61170W        W20464  24.210  42.388   0.378
61171W        W20465  32.487  11.750  11.083
61172W        W20466  28.669   1.253   1.710
61173W        W20467  41.008  42.976   1.214
61174W        W20468   8.273   0.352   3.193
61175W        W20469  25.002  32.963  13.311
61176W        W20470  22.684  27.012   2.684
61177W        W20471  12.656  25.127  13.394
61178W        W20472  13.687   3.849   3.817
61179W        W20473  40.492  40.903  10.412
61180W        W20474   6.255  32.985   2.350
61181W        W20475   7.257  32.134  11.404
61182W        W20476   1.256  20.590  10.440
61183W        W20477  24.061  36.502   1.853
61184W        W20478  30.415  37.860   3.752
61185W        W20479  24.050  36.477  13.962
61186W        W20480  41.298   5.851  14.321
61187W        W20481  19.619  25.615   3.729
61188W        W20482   8.273  11.172   1.322
61189W        W20483  39.841  10.774   4.295
61190W        W20484  25.655  21.177  13.867
61191W        W20485  10.769  17.288  14.444
61192W        W20486   5.721  16.092   1.776
61193W        W20487  31.471  14.308  13.326
61194W        W20488  30.558   2.869  13.856
61195W        W20489  21.141  33.954   1.237
61196W        W20490  14.664  34.526  14.857
61197W        W20491  35.898  21.752  13.345
61198W        W20492  20.178   7.406  13.994
61199W        W20493  16.150  12.808  14.795
61200W        W20494  44.989  20.274   0.907
61201W        W20495  21.230  31.607  11.109
61202W        W20496  39.891   2.903  12.016
61203W        W20497  37.548  14.228  12.544
61204W        W20498  31.633  19.638  14.875
61205W        W20499   2.372  10.721  11.542
61206W        W20500   6.786  44.472   2.364
61207W        W20501   4.254  20.713  14.942
61208W        W20502   5.307  40.001   2.350
61209W        W20503  17.138  21.734  14.769
61210W        W20504   6.248  29.577   3.720
61211W        W20505   8.880  37.550   4.283
61212W        W20506  20.737  35.896  13.813
61213W        W20507  20.177   1.817   2.687
61214W        W20508  21.251   1.847   0.403
61215W        W20509  25.969   2.937   0.748
61216W        W20510  28.964  26.473   3.811
61217W        W20511  11.181  24.046  12.842
61218W        W20512  41.042  10.875  11.110
61219W        W20513  32.525  24.631  13.317
61220W        W20514  19.142   8.891   0.336
61221W        W20515  16.656  18.610  10.013
61222W        W20516  27.944  41.005   0.901
61223W        W20517  23.105  33.920  12.941
61224W        W20518  35.602   2.375  10.568
61225W        W20519  10.777  23.994   3.267
61226W        W20520  43.792  23.717   3.676
61227W        W20521   9.649   6.316   2.211
61228W        W20522  34.401   1.310  11.073
61229W        W20523  19.631  44.349  10.901
61230W        W20524  40.049  11.329   2.253
61231W        W20525  42.897  40.975   2.810
61232W        W20526  16.296  38.872  11.909
61233W        W20527  24.126  41.965  11.539
61234W        W20528  15.773  19.134  12.419
61235W        W20529  18.562   9.378  10.470
61236W        W20530  20.249  41.321  10.041
61237W        W20531   8.224  25.175  12.082
61238W        W20532  42.298  15.158   4.681
61239W        W20533  34.568  20.164   3.206
61240W        W20534  42.333  36.921  14.411
61241W        W20535  14.252   7.845   2.265
61242W        W20536  35.921  18.104   1.390
61243W        W20537   8.854  39.549  13.338
61244W        W20538  44.416  28.118  10.981
61245W        W20539  10.279   6.707  11.561
61246W        W20540   0.376   4.789  14.985
61247W        W20541  31.585  21.696   0.376
61248W        W20542  26.559   4.780  11.922
61249W        W20543  22.014   3.792  13.871
61250W        W20544  26.132  41.369   0.784
61251W        W20545   4.310  29.451   0.735
61252W        W20546  16.188  42.820   1.788
61253W        W20547   1.462  26.154  11.945
61254W        W20548  13.670  44.790  10.912
61255W        W20549  43.498  43.954   0.475
61256W        W20550  32.106  32.620   2.266
61257W        W20551  25.034  15.220   0.469
61258W        W20552  23.183  21.159   2.719
61259W        W20553  22.737   1.969  10.888
61260W        W20554  40.335  33.883  15.000
61261W        W20555  23.617  15.688   3.785
61262W        W20556  16.752  12.320   1.720
61263W        W20557  30.118  43.767  13.908
61264W        W20558  32.110  17.116   0.809
61265W        W20559   8.205  10.205  14.464
61266W        W20560  30.123  20.710   2.237
61267W        W20561   4.233   0.898  13.426
61268W        W20562  38.050  35.021   4.172
61269W        W20563  18.762  23.571   0.286
61270W        W20564  43.318  32.503  10.550
61271W        W20565  10.775  17.765  12.072
61272W        W20566   9.870  24.678   2.775
61273W        W20567  10.186  27.940  14.467
61274W        W20568  29.631  44.988  11.016
61275W        W20569  36.540   6.369  14.473
61276W        W20570  17.789   3.868   3.208
61277W        W20571   0.493  16.076   2.788
61278W        W20572  12.842   1.732  13.935
61279W        W20573  36.053  18.250  13.970
61280W        W20574   5.746  15.264   1.888
61281W        W20575   3.249  41.034   1.849
61282W        W20576  23.621  39.488  12.417
61283W        W20577  22.552  25.970   4.736
61284W        W20578  25.136  33.903  13.018
61285W        W20579  34.404   2.274   0.309
61286W        W20580   7.223  20.028  13.351
61287W        W20581  33.883   4.424   2.366
61288W        W20582  13.764   3.452  14.401
61289W        W20583  20.765   6.405   3.283
61290W        W20584  32.589   5.207  11.381
61291W        W20585  13.305  27.488  14.861
61292W        W20586  26.994  36.402  12.351
61293W        W20587   7.873  25.072  12.350
61294W        W20588  39.819  41.935  12.021
61295W        W20589  43.980  43.814   4.333
61296W        W20590  17.132   5.765  11.558
61297W        W20591  20.607   7.309   2.282
61298W        W20592  10.281  22.246   2.893
61299W        W20593  30.114  10.796  12.563
61300W        W20594  17.179   8.874  10.011
61301W        W20595  40.917  24.595  10.510
61302W        W20596  14.787   5.326  14.331
61303W        W20597  27.962  38.025   2.759
61304W        W20598  20.193  15.737   2.698
61305W        W20599  11.769  27.076   3.710
61306W        W20600  41.016  28.170   3.260
61307W        W20601  10.367  35.585   3.697
61308W        W20602  38.402  17.108   4.601
61309W        W20603  30.959  44.375   4.266
61310W        W20604  14.326  23.630   5.240
61311W        W20605  10.218  38.405   3.649
61312W        W20606  33.440  18.258   5.134
61313W        W20607  40.532   9.254   4.745
61314W        W20608  27.021  39.867   2.409
61315W        W20609  33.430  28.975  14.801
61316W        W20610  13.180  29.976   4.283
61317W        W20611   0.414  26.045   4.349
61318W        W20612  31.547   3.398  12.039
61319W        W20613  31.921  18.739  13.918
61320W        W20614   0.908  25.988  13.838
61321W        W20615  34.512  43.505  11.128
61322W        W20616  33.932  32.526  14.514
61323W        W20617   1.903  38.045  12.903
61324W        W20618  31.562  40.842   4.808
61325W        W20619  36.527  22.745  11.081
61326W        W20620  15.680  28.931   1.294
61327W        W20621  29.967  24.500  13.848
61328W        W20622  16.112  24.109   0.317
61329W        W20623  41.002  10.763  11.925
61330W        W20624  39.327  36.394  14.404
61331W        W20625  11.741  19.656   1.387
61332W        W20626   4.315   9.662   0.886
61333W        W20627   5.848  34.027   1.738
61334W        W20628   6.278  36.977   1.701
61335W        W20629   9.310  38.075  11.127
61336W        W20630  40.303  42.994   5.133
61337W        W20631  15.743  41.002   3.816
61338W        W20632   8.661   1.970  13.393
61339W        W20633  44.825  29.121   0.831
61340W        W20634  42.342  39.835   3.318
61341W        W20635  19.615  10.384   0.298
61342W        W20636   8.745  35.391   0.371
61343W        W20637  32.119  11.229  11.108
61344W        W20638  12.124   3.711   2.191
61345W        W20639  21.677  12.178  11.958
61346W        W20640   7.293   5.394  13.394
61347W        W20641  11.369  34.067   0.298
61348W        W20642  27.162   0.466  12.379
61349W        W20643   0.305   1.389  14.905
61350W        W20644   6.702  21.620  13.310
61351W        W20645  43.303   3.859   3.219
61352W        W20646  35.906  39.930  11.512
61353W        W20647   1.267  15.102   4.609
61354W        W20648   7.855  22.063   1.806
61355W        W20649  15.113  13.140   1.859
61356W        W20650  14.686   9.825   9.531
61357W        W20651  26.649  29.520  10.531
61358W        W20652  30.649  16.113  11.558
61359W        W20653  20.568  24.550  13.033
61360W        W20654  18.238  31.401   0.420
61361W        W20655   3.763  35.888   2.395
61362W        W20656  24.684  33.045   2.368
61363W        W20657   9.846  17.607  13.053
61364W        W20658  33.936  20.186   3.734
61365W        W20659  36.860  14.277  12.839
61366W        W20660  16.704  41.990   0.744
61367W        W20661  35.408   6.846  14.310
61368W        W20662  19.278  22.636  12.557
61369W        W20663  37.556  20.257   1.350
61370W        W20664  24.997  21.696   2.411
61371W        W20665  44.390  14.752   3.359
61372W        W20666  15.781  17.103   4.243
61373W        W20667  40.945  31.611   4.767
61374W        W20668  14.690  41.356   3.732
61375W        W20669   9.776  23.020   4.816
61376W        W20670   6.195  34.083   3.204
61377W        W20671  31.925   1.313  14.904
61378W        W20672   5.385  14.805  14.866
61379W        W20673  14.647  25.501   0.835
61380W        W20674  21.643  34.426  11.868
61381W        W20675  42.917  35.484  10.998
61382W        W20676  34.379  16.581   1.399
61383W        W20677   6.294   3.436   0.964
61384W        W20678  19.125  32.553   0.827
61385W        W20679  40.812   8.811  11.381
61386W        W20680   0.833   2.422  13.814
61387W        W20681  30.453  32.077   4.805
61388W        W20682  40.500  38.910  13.936
61389W        W20683   0.970   6.336   1.930
61390W        W20684   8.215  39.495   2.742
61391W        W20685   6.253  27.571  10.581
61392W        W20686  19.251   9.261  12.992
61393W        W20687  13.757  29.048   2.412
61394W        W20688  43.441   7.373   2.737
61395W        W20689  10.185  29.619  10.951
61396W        W20690   5.760  12.806   3.699
61397W        W20691  36.950  33.937   1.749
61398W        W20692  10.216  44.481  13.971
61399W        W20693   5.891  39.049   1.431
61400W        W20694  24.164  41.326   5.285
61401W        W20695   0.987  37.072  13.508
61402W        W20696  14.337   4.396  13.315
61403W        W20697   2.444  33.437  14.801
61404W        W20698   8.395  39.999  13.403
61405W        W20699  27.669  23.568  13.476
61406W        W20700  10.375  22.594   3.233
61407W        W20701   2.366   9.829   0.730
61408W        W20702  41.936  30.020  13.870
61409W        W20703  41.807   3.821  11.967
61410W        W20704  17.645  11.748  10.906
61411W        W20705  40.888  20.206  10.982
61412W        W20706  40.915  19.670  13.888
61413W        W20707  14.682  27.015  11.036
61414W        W20708  36.580  33.958   4.242
61415W        W20709  42.854  25.494  12.876
61416W        W20710  42.980  16.575  14.414
61417W        W20711  16.309  44.848   0.763
61418W        W20712  34.022  39.485   2.256
61419W        W20713  12.780   2.734   0.913
61420W        W20714  12.762  33.408  12.508
61421W        W20715  10.347  14.112  10.442
61422W        W20716  25.164  15.728  11.865
61423W        W20717  20.544  20.563   2.831
61424W        W20718   1.379  30.024  13.522
61425W        W20719   6.422  29.124   1.231
61426W        W20720   8.668  11.731  11.389
61427W        W20721  26.527  20.143   2.354
61428W        W20722  33.457   2.884   1.782
61429W        W20723   1.415  19.577  14.372
61430W        W20724  43.292  31.043   0.744
61431W        W20725   2.798  35.500   2.669
61432W        W20726   0.307  18.624  12.995
61433W        W20727  32.046  17.125   5.299
61434W        W20728   8.793   0.856   3.282
61435W        W20729   0.299   4.801   2.849
61436W        W20730  37.014  30.449  13.389
61437W        W20731  23.100  36.431  12.445
61438W        W20732   7.910  14.291   0.909
61439W        W20733  12.680  43.808   1.898
61440W        W20734   1.760  38.996  12.095
61441W        W20735  12.187  43.954   3.172
61442W        W20736  20.076  22.184   2.784
61443W        W20737  25.086  28.953   0.790
61444W        W20738  17.646  32.560  13.925
61445W        W20739  40.940  38.054   0.801
61446W        W20740  19.150  27.530  11.586
61447W        W20741  23.047  14.178   1.381
61448W        W20742   0.912  43.828   0.823
61449W        W20743   6.314   7.828   3.149
61450W        W20744  23.548  35.564   4.659
61451W        W20745  13.301  43.302  12.000
61452W        W20746  30.029  22.517  11.105
61453W        W20747  43.457  31.076   4.159
61454W        W20748  30.586  27.033   2.813
61455W        W20749  15.215  32.997   4.696
61456W        W20750  39.376  19.731  10.413
61457W        W20751   1.746  23.544   1.897
61458W        W20752  14.322  36.037  10.584
61459W        W20753   2.451  15.671  12.987
61460W        W20754   7.394   0.373  14.799
61461W        W20755  21.601   5.404   4.631
61462W        W20756  11.796  29.953   4.738
61463W        W20757  33.958  17.783   1.888
61464W        W20758  18.188  15.174  10.456
61465W        W20759  14.137   6.771  11.070
61466W        W20760  16.735  28.534   3.168
61467W        W20761  44.345  19.769  14.421
61468W        W20762  14.681   5.858  11.414
61469W        W20763  30.147  39.362  13.498
61470W        W20764  33.094   5.308  11.884
61471W        W20765  33.081  25.594  12.829
61472W        W20766   8.745  35.970   1.271
61473W        W20767  39.484  13.612   2.872
61474W        W20768  22.219  17.204   3.374
61475W        W20769  18.123   0.915  11.082
61476W        W20770  29.438  29.534   0.756
61477W        W20771   5.212  13.321   1.762
61478W        W20772  43.913   2.876   3.314
61479W        W20773  34.035  28.564   2.782
61480W        W20774  10.286  40.007   4.121
61481W        W20775  25.545   9.679   1.400
61482W        W20776  10.781   9.725  12.952
61483W        W20777  21.216  22.606   0.373
61484W        W20778  31.922  34.926  13.367
61485W        W20779  24.138   3.726  12.550
61486W        W20780   6.790   3.805   1.899
61487W        W20781  39.912  43.017  10.626
61488W        W20782   3.358  29.652   3.209
61489W        W20783  28.047  17.566   3.285
61490W        W20784   1.800   8.397   3.196
61491W        W20785  27.057   9.778  12.014
61492W        W20786  16.255  27.619   2.713
61493W        W20787  27.553  19.215  14.893
61494W        W20788  23.995  23.610  11.023
61495W        W20789  18.727  41.293  12.877
61496W        W20790   4.240  17.138   0.244
61497W        W20791  26.196  14.645  12.879
61498W        W20792  38.036  38.843   2.215
61499W        W20793  43.823  12.702  13.902
61500W        W20794  17.238  10.258   4.238
61501W        W20795  43.290  15.734  10.068
61502W        W20796  19.191  41.024  11.397
61503W        W20797   3.756   7.380  14.283
61504W        W20798  19.116  36.062  12.893
61505W        W20799  44.855  23.038   1.791
61506W        W20800  11.861  15.820   1.705
61507W        W20801  39.975  19.170  13.848
61508W        W20802  19.616  34.598  13.955
61509W        W20803  12.727  11.639  11.568
61510W        W20804   5.351   6.419  12.578
61511W        W20805   8.283  26.581   2.865
61512W        W20806  16.807  38.435  13.356
61513W        W20807  41.956   1.305   0.413
61514W        W20808   9.382  10.770  14.347
61515W        W20809  37.925  42.794  14.985
61516W        W20810  29.580  11.794   1.411
61517W        W20811   3.348   3.232  13.422
61518W        W20812   9.337  41.810  10.449
61519W        W20813  30.642  27.947  10.612
61520W        W20814  20.664  42.000   0.471
61521W        W20815   4.872  13.686   3.755
61522W        W20816  19.272  25.701  11.477
61523W        W20817   4.361  37.431   5.228
61524W        W20818  14.815   3.449   2.700
61525W        W20819  11.652  17.237   3.185
61526W        W20820  20.768  24.206  12.072
61527W        W20821  40.366   7.740   2.224
61528W        W20822  15.190  41.298  12.376
61529W        W20823   5.719  36.938  13.924
61530W        W20824  41.896  39.947  10.515
61531W        W20825  40.911   2.440  10.580
61532W        W20826  31.596   8.312  11.903
61533W        W20827  12.646  10.790  14.291
61534W        W20828  42.979  18.181   4.794
61535W        W20829  41.456  14.606  11.096
61536W        W20830   8.660  16.802   3.764
61537W        W20831  33.461  31.594   3.651
61538W        W20832  33.601  30.572   0.916
61539W        W20833  38.363   2.741   3.845
61540W        W20834  18.767  33.118  13.900
61541W        W20835  26.498  13.130  10.405
61542W        W20836  35.976   3.951  13.995
61543W        W20837  20.206   9.237  13.500
61544W        W20838  24.222   0.431   2.212
61545W        W20839  23.106  23.143  12.543
61546W        W20840  33.072   4.832   4.232
61547W        W20841   2.787  39.003  10.426
61548W        W20842  24.063  30.592   2.325
61549W        W20843  41.869  16.160   0.864
61550W        W20844  27.066  19.651  12.465
61551W        W20845  24.119  32.601  11.902
61552W        W20846  23.620  40.458   3.225
61553W        W20847  23.045   1.440  14.775
61554W        W20848  28.650  16.122   0.791
61555W        W20849  17.285  10.729  12.580
61556W        W20850  10.802  20.194   1.297
61557W        W20851   6.383  19.711   1.724
61558W        W20852  24.049   8.321   0.923
61559W        W20853  17.797  21.595   5.210
61560W        W20854  42.378  15.794  13.007
61561W        W20855   5.334  16.636  11.461
61562W        W20856  42.795  43.824   1.290
61563W        W20857   9.846  38.481  10.948
61564W        W20858   8.684  43.003   0.948
61565W        W20859  15.690   8.888  12.384
61566W        W20860   5.355   9.675   3.849
61567W        W20861   2.967   1.879   4.783
61568W        W20862  27.170  22.100   2.888
61569W        W20863  43.460  43.296  14.489
61570W        W20864  32.438  26.112  11.106
61571W        W20865  36.083   6.426  14.939
61572W        W20866  34.008  17.778  12.449
61573W        W20867  31.933  20.538   4.810
61574W        W20868  15.699   3.248  12.011
61575W        W20869  12.768   7.754   0.894
61576W        W20870  30.627  12.210  11.020
61577W        W20871   8.273  31.020   0.432
61578W        W20872  32.510   4.390  13.373
61579W        W20873  20.056  33.447   1.784
61580W        W20874  41.919  20.746   2.721
61581W        W20875  35.411  14.808  10.901
61582W        W20876   6.297  19.569   0.460
61583W        W20877   4.283   5.209  13.426
61584W        W20878  14.755  27.985  14.027
61585W        W20879   6.818  30.969   9.481
61586W        W20880  11.314   8.754   4.260
61587W        W20881  36.095  14.266   1.759
61588W        W20882   4.925  39.322  14.881
61589W        W20883  14.204  43.498   1.405
61590W        W20884  35.387   3.386  13.534
61591W        W20885   3.895  24.663  13.333
61592W        W20886  44.926  13.143  14.381
61593W        W20887   3.301  21.147  11.076
61594W        W20888   7.802  34.602  11.032
61595W        W20889  14.604  22.745  14.866
61596W        W20890  20.050  25.072   1.755
61597W        W20891   9.782  27.943  10.602
61598W        W20892  22.101  13.707  13.487
61599W        W20893  20.155  39.879   1.857
61600W        W20894  28.026   8.841   2.882
61601W        W20895  11.338  38.477  13.042
61602W        W20896  24.147  44.337   4.707
61603W        W20897  27.591  39.508  12.053
61604W        W20898  34.014  11.754   5.098
61605W        W20899  39.846  15.223   3.374
61606W        W20900  11.804   7.810   1.391
61607W        W20901   4.760   8.279   1.223
61608W        W20902   7.246  13.187  14.020
61609W        W20903  17.781  36.411  10.896
61610W        W20904  42.025  38.563   0.754
61611W        W20905  22.089   6.730  12.068
61612W        W20906   9.657  16.764   0.968
61613W        W20907  23.223  24.038  14.473
61614W        W20908  35.932  15.288   2.335
61615W        W20909  23.077  44.781   1.902
61616W        W20910   3.344  18.768  12.411
61617W        W20911  33.585  34.044   4.180
61618W        W20912   9.263  18.700  10.494
61619W        W20913  10.361  17.268   4.298
61620W        W20914  37.356  18.083   1.353
61621W        W20915  24.592  24.084   2.778
61622W        W20916  28.668  16.621   0.755
61623W        W20917  41.520  14.251   3.673
61624W        W20918  17.646   4.730  10.429
61625W        W20919  43.383  28.482  10.466
61626W        W20920  33.997  13.332  10.632
61627W        W20921  16.628  13.298   3.191
61628W        W20922  40.958   9.720  13.359
61629W        W20923  34.042  44.905   2.364
61630W        W20924  26.683  19.180  11.410
61631W        W20925  43.932  20.680  11.374
61632W        W20926   6.416  38.434   4.745
61633W        W20927   2.469  26.457   3.820
61634W        W20928  22.080  41.505   1.306
61635W        W20929  40.381  32.571  14.975
61636W        W20930  26.462  19.172   3.155
61637W        W20931  44.374   2.750  13.403
61638W        W20932   6.779  44.505  11.487
61639W        W20933   9.246  17.074  13.475
61640W        W20934  14.196  23.096  13.385
61641W        W20935  31.477   2.285  14.805
61642W        W20936  14.817  27.576  11.486
61643W        W20937  16.145  36.499  10.903
61644W        W20938  35.533  25.503   4.820
61645W        W20939  13.644  12.352   3.250
61646W        W20940  16.581  32.066  12.931
61647W        W20941  22.570   6.790  13.998
61648W        W20942   2.403  44.277   2.389
61649W        W20943  38.824   4.234  14.442
61650W        W20944  24.490  17.242  11.944
61651W        W20945  20.182  23.011  14.426
61652W        W20946  37.892  23.036   2.223
61653W        W20947  25.633  39.820  10.146
61654W        W20948   9.702  11.713   3.173
61655W        W20949  28.036  44.858  10.505
61656W        W20950  39.062   9.302   5.211
61657W        W20951  17.247  20.750  10.955
61658W        W20952   7.358  25.677  11.563
61659W        W20953  32.468  34.876   0.758
61660W        W20954  41.982  29.576  12.501
61661W        W20955  21.198   8.720   4.307
61662W        W20956  26.144  41.930   4.735
61663W        W20957   5.236  30.918  13.469
61664W        W20958  14.271  19.126  14.459
61665W        W20959  17.229   0.755   1.448
61666W        W20960   0.319  11.788   2.388
61667W        W20961  32.446   9.231   3.303
61668W        W20962  25.564  26.186   3.795
61669W        W20963  30.985  27.125   2.298
61670W        W20964  43.301  25.073   4.133
61671W        W20965  36.458  21.532   4.205
61672W        W20966  31.987  16.764   0.906
61673W        W20967  27.084  21.150  11.593
61674W        W20968  12.663  13.267  12.890
61675W        W20969  10.865  20.602   4.631
61676W        W20970   1.951   3.452   2.840
61677W        W20971   1.237  23.087   3.350
61678W        W20972  11.637  26.610   0.421
61679W        W20973  16.117   2.451   3.675
61680W        W20974  17.064  25.483   2.219
61681W        W20975   4.233   6.695   0.258
61682W        W20976  11.156  24.544   1.816
61683W        W20977  16.688   8.327  10.509
61684W        W20978  38.399   2.398   0.252
61685W        W20979   6.676  43.839   1.216
61686W        W20980   0.869  25.477  11.464
61687W        W20981  20.236   9.311  14.312
61688W        W20982   3.765  24.560   0.769
61689W        W20983   9.278  20.631  10.986
61690W        W20984  36.385  34.936  12.576
61691W        W20985   3.914  42.971   4.645
61692W        W20986  11.720  32.074  11.918
61693W        W20987  26.547  22.581   3.351
61694W        W20988  17.788   2.419   0.258
61695W        W20989  37.009   7.396   3.147
61696W        W20990  28.114  33.587   1.924
61697W        W20991   5.701  21.217   3.661
61698W        W20992  44.767  31.512  12.997
61699W        W20993  43.830  16.123   0.951
61700W        W20994  17.564  18.150  11.077
61701W        W20995  22.561  13.794  10.500
61702W        W20996  13.252  25.122  12.927
61703W        W20997  27.569   7.665   3.854
61704W        W20998   5.724  29.659  11.032
61705W        W20999  24.985  13.195  11.953
61706W        W21000   0.977  36.009   2.767
61707W        W21001  18.137  39.375   0.284
61708W        W21002   5.359  18.778  13.547
61709W        W21003  16.799  33.597   1.361
61710W        W21004  23.173  43.940  12.399
61711W        W21005  10.281  17.766  14.809
61712W        W21006  37.338  19.221   3.267
61713W        W21007   5.273  21.078   2.864
61714W        W21008   8.729   8.827  13.463
61715W        W21009  10.672  36.932   2.257
61716W        W21010  15.268  29.938  14.983
61717W        W21011  40.003  11.279  14.990
61718W        W21012  15.599  21.064  13.999
61719W        W21013  34.598   9.149   0.322
61720W        W21014  37.458  13.271  11.999
61721W        W21015  35.600   4.339   2.813
61722W        W21016   9.255  44.838   3.631
61723W        W21017  12.711  44.384  12.496
61724W        W21018  39.859  43.823  10.568
61725W        W21019  15.131  38.986   2.859
61726W        W21020  12.287   8.209  14.770
61727W        W21021   3.370  22.230   4.251
61728W        W21022  34.381  13.228   0.259
61729W        W21023  30.450  14.160  11.020
61730W        W21024  24.164  16.629  12.373
61731W        W21025  36.045  36.552   4.175
61732W        W21026   0.782  31.102   0.247
61733W        W21027   0.852  16.229  13.475
61734W        W21028  28.087  18.118  12.944
61735W        W21029  44.007  19.043   3.701
61736W        W21030  11.802  36.967  11.112
61737W        W21031   1.877  11.858   2.751
61738W        W21032  23.077  22.557  14.337
61739W        W21033  19.639  10.325  13.901
61740W        W21034  44.903   7.251   0.475
61741W        W21035   2.861  21.684  12.480
61742W        W21036  35.044  40.846  12.929
61743W        W21037  29.031  27.107  14.486
61744W        W21038  10.214   9.223   2.184
61745W        W21039  27.511  37.027   3.788
61746W        W21040   1.830   8.287  12.901
61747W        W21041  30.080   3.796   1.774
61748W        W21042  27.572  33.554  12.492
61749W        W21043  31.517  36.917  12.019
61750W        W21044  20.134   5.886   4.615
61751W        W21045  16.751  26.663  14.803
61752W        W21046  22.684  12.768   2.186
61753W        W21047  14.168  16.638   4.186
61754W        W21048  32.048   6.713   3.200
61755W        W21049  32.407   0.465  12.964
61756W        W21050  31.959  34.047  10.583
61757W        W21051  27.582  10.780  14.409
61758W        W21052  15.592  35.081  13.855
61759W        W21053  28.630  12.735   3.194
61760W        W21054   0.304  13.688   1.217
61761W        W21055   8.190   2.748   2.288
61762W        W21056  35.068   2.306  10.993
61763W        W21057   7.280   3.837   1.801
61764W        W21058  16.314  28.437   1.245
61765W        W21059  24.555  19.158   0.805
61766W        W21060  32.610   1.976  13.364
61767W        W21061  36.530  10.365   1.929
61768W        W21062  39.998  24.691  10.549
61769W        W21063  20.597  15.756   4.250
61770W        W21064  35.439  15.772   1.368
61771W        W21065  27.566   3.734   3.810
61772W        W21066  31.054  38.924  12.345
61773W        W21067   5.199  17.213  12.534
61774W        W21068  30.611   6.906  14.338
61775W        W21069   6.426  16.162   2.779
61776W        W21070  16.197  10.756  13.481
61777W        W21071  35.909  20.633  12.411
61778W        W21072  36.976  43.342  14.854
61779W        W21073   8.841  10.284   1.394
61780W        W21074  19.673  35.900   0.870
61781W        W21075   1.974  27.609  11.981
61782W        W21076  15.210  25.965   1.841
61783W        W21077  22.717  29.032  11.554
61784W        W21078  24.492  30.970  12.953
61785W        W21079  39.862  17.072   4.627
61786W        W21080   2.312  36.843  12.982
61787W        W21081   8.290  27.649  14.015
61788W        W21082  18.070   6.214   3.354
61789W        W21083   7.202   6.189   2.706
61790W        W21084  38.560  22.011  11.994
61791W        W21085   4.897  16.596   0.947
61792W        W21086  27.692  30.586  11.866
61793W        W21087   3.352  29.126  10.433
61794W        W21088  19.554   9.274  12.931
61795W        W21089  17.587  13.186   0.260
61796W        W21090  36.963  31.062   2.812
61797W        W21091  35.413   3.952  13.417
61798W        W21092  14.124   7.329   2.367
61799W        W21093  33.444  28.617  13.431
61800W        W21094  16.658   8.815   3.688
61801W        W21095   2.291  16.685  10.965
61802W        W21096  13.289  23.702  10.988
61803W        W21097  42.297  10.182   0.356
61804W        W21098   9.785  11.251  13.804
61805W        W21099  44.986  27.481  12.044
61806W        W21100  40.463  28.008  11.970
61807W        W21101  32.093  29.441  10.617
61808W        W21102  37.562  35.886  12.556
61809W        W21103  36.383  26.021  11.388
61810W        W21104  24.717  24.723  14.796
61811W        W21105  12.704   2.268  10.502
61812W        W21106  37.998   6.806  13.012
61813W        W21107  14.116   8.388   0.901
61814W        W21108  11.311   7.384  13.005
61815W        W21109  37.064  17.271  11.987
61816W        W21110  22.727  11.692   1.721
61817W        W21111  16.127  15.735  11.966
61818W        W21112  23.679  30.636   3.776
61819W        W21113  24.996   0.474  14.483
61820W        W21114   7.239  44.433   9.643
61821W        W21115  25.101  18.546   4.790
61822W        W21116  31.993  26.572  12.001
61823W        W21117  38.008  35.501   4.750
61824W        W21118  12.771  27.077   1.910
61825W        W21119  11.209  28.514   5.679
61826W        W21120  12.176  38.041  10.928
61827W        W21121  29.132  43.399   4.614
61828W        W21122   1.365  21.033  14.328
61829W        W21123  12.133  23.001  11.885
61830W        W21124  29.632  21.655  12.088
61831W        W21125  39.347  44.994  11.098
61832W        W21126   4.828   3.267  11.553
61833W        W21127  39.011  35.915   1.336
61834W        W21128  11.821  32.890   2.703
61835W        W21129  31.598   8.716   3.832
61836W        W21130  35.594   7.795  13.917
61837W        W21131  15.824   2.355  10.446
61838W        W21132  35.964   5.774  13.409
61839W        W21133   4.241  21.758   4.615
61840W        W21134  15.734   0.976  10.989
61841W        W21135  21.684  34.992   1.396
61842W        W21136  21.149  34.004   3.707
61843W        W21137   0.453  26.537   4.750
61844W        W21138  15.115   9.714  14.473
61845W        W21139  44.466  12.746   1.695
61846W        W21140  41.022  19.123   2.387
61847W        W21141  33.599  14.628   3.830
61848W        W21142   5.853   0.333   3.146
61849W        W21143   6.403  12.830  14.287
61850W        W21144  26.037   1.423  12.405
61851W        W21145  33.054   7.711   3.228
61852W        W21146  29.603  24.042  12.060
61853W        W21147  13.154  34.956  10.892
61854W        W21148  28.560  20.201  13.812
61855W        W21149  20.608  36.980  12.877
61856W        W21150   2.959  22.067   3.175
61857W        W21151  38.423  15.643  14.477
61858W        W21152  34.909   2.296  11.443
61859W        W21153   4.368  33.016   0.428
61860W        W21154  41.322   7.730   1.291
61861W        W21155  29.937  37.377  14.453
61862W        W21156  16.676  14.192   5.619
61863W        W21157   1.897   8.332   1.827
61864W        W21158   8.657  10.774  11.040
61865W        W21159  17.719  30.052   3.277
61866W        W21160   8.267  14.126   0.411
61867W        W21161   5.692  10.161   1.833
61868W        W21162  23.545  16.688  11.890
61869W        W21163  26.960  19.092  12.350
61870W        W21164  11.186  15.143  11.020
61871W        W21165  22.607  20.672   0.332
61872W        W21166  39.877  40.031   2.304
61873W        W21167  38.504  39.320  11.100
61874W        W21168   1.302   3.357  12.432
61875W        W21169  37.082  41.955   3.322
61876W        W21170  42.966  37.451   2.248
61877W        W21171  41.426  20.585  11.971
61878W        W21172  13.797  27.691  10.969
61879W        W21173  20.684  11.148  11.119
61880W        W21174  38.569  34.030   1.878
61881W        W21175  22.025   7.728   4.737
61882W        W21176  33.957  39.990   0.743
61883W        W21177  31.615   8.220   2.830
61884W        W21178  33.111  29.962  10.581
61885W        W21179  34.865  26.632  14.003
61886W        W21180   4.777  14.158   0.384
61887W        W21181   8.206  12.217   0.376
61888W        W21182  22.570  26.060   2.824
61889W        W21183  19.746  15.256  13.306
61890W        W21184  34.106   6.832   0.348
61891W        W21185   7.705  17.136  14.854
61892W        W21186   0.491  41.301  13.991
61893W        W21187  22.532   7.889   0.897
61894W        W21188  17.220  33.949   0.941
61895W        W21189  37.985  35.435   4.162
61896W        W21190  21.152   9.661   5.303
61897W        W21191   0.937  40.040   0.965
61898W        W21192  36.964   6.361  11.602
61899W        W21193  38.466   7.208   1.450
61900W        W21194  41.369  19.706  10.994
61901W        W21195  26.497   0.297  11.491
61902W        W21196  22.727   0.861   1.758
61903W        W21197   4.738  21.520   4.614
61904W        W21198  31.497  13.282  12.573
61905W        W21199  33.414   3.905  12.002
61906W        W21200  29.037  41.904  14.815
61907W        W21201  28.593  16.567   4.749
61908W        W21202   0.276  41.416   2.387
61909W        W21203  14.801   9.329  10.970
61910W        W21204   9.266   9.302   0.483
61911W        W21205   7.820  24.479  12.415
61912W        W21206  21.151  11.738   0.267
61913W        W21207  19.677  35.067  14.898
61914W        W21208  30.144  24.483  13.535
61915W        W21209   9.370   6.912   1.743
61916W        W21210  13.196  20.558  12.567
61917W        W21211  38.395  23.668  13.960
61918W        W21212  30.124  33.991   3.813
61919W        W21213  20.204  17.215  11.454
61920W        W21214  19.249  38.060   1.317
61921W        W21215  17.717  36.948  11.536
61922W        W21216  38.037  20.685   2.692
61923W        W21217  27.943  32.584  14.507
61924W        W21218  39.958  18.641  14.825
61925W        W21219  30.650  36.988   2.688
61926W        W21220  29.472   1.732   4.633
61927W        W21221  13.216  28.033  14.301
61928W        W21222  24.157   3.867   2.722
61929W        W21223  36.419  33.994   0.469
61930W        W21224  12.234  35.466   1.430
61931W        W21225  34.414   6.778  11.390
61932W        W21226  24.223  18.203   3.278
61933W        W21227  10.729  25.019   1.708
61934W        W21228  18.773  23.692   4.639
61935W        W21229   1.300  18.578   1.923
61936W        W21230  35.920  34.494  14.901
61937W        W21231  17.283  33.081  11.922
61938W        W21232   9.856  21.065  11.466
61939W        W21233  16.102  35.528   4.831
61940W        W21234  39.008  29.446  11.472
61941W        W21235  19.758   8.807  14.019
61942W        W21236  15.581   4.819   4.601
61943W        W21237  32.623  31.085   1.341
61944W        W21238   2.442   3.418  12.066
61945W        W21239  44.858  31.542  13.803
61946W        W21240  28.051   4.797   1.706
61947W        W21241  17.106  40.344  13.995
61948W        W21242   9.353   2.362  10.469
61949W        W21243   0.453  26.118   0.284
61950W        W21244  22.539  19.548   2.888
61951W        W21245  40.898  43.999  12.901
61952W        W21246   5.404  29.143   3.185
61953W        W21247  43.815  41.849   3.354
61954W        W21248  30.485  23.067   2.419
61955W        W21249   5.818   3.314  13.978
61956W        W21250  19.247   1.465  11.525
61957W        W21251  44.401  31.588  13.420
61958W        W21252  30.091  14.150  11.575
61959W        W21253  33.949   1.478   1.274
61960W        W21254   1.394  26.692   2.276
61961W        W21255   7.763   2.275  12.350
61962W        W21256  17.580  41.297   1.380
61963W        W21257  28.004  31.535  13.537
61964W        W21258  39.036  10.144  11.908
61965W        W21259  16.236   2.305  12.904
61966W        W21260  13.781  15.324   1.324
61967W        W21261  13.745   8.716  11.096
61968W        W21262   1.733  12.617  10.966
61969W        W21263   1.945  30.027   2.859
61970W        W21264  21.566   6.845   3.665
61971W        W21265  26.088  41.377   1.776
61972W        W21266  40.400  44.995   9.605
61973W        W21267  19.778  22.703   1.840
61974W        W21268   3.422  25.612   4.690
61975W        W21269  14.653  23.661  10.109
61976W        W21270  22.659  35.084  10.956
61977W        W21271  22.119  20.169   4.680
61978W        W21272  40.808   3.915   2.351
61979W        W21273  22.740  31.002   4.749
61980W        W21274  20.754  15.148  14.832
61981W        W21275  14.207  14.731  12.342
61982W        W21276  20.105   5.396   1.817
61983W        W21277  40.055  41.911  14.009
61984W        W21278  30.030  21.061  11.428
61985W        W21279   5.898  35.911  10.948
61986W        W21280  21.032  16.680  11.005
61987W        W21281  36.024   8.864   0.473
61988W        W21282  40.925  40.463  10.560
61989W        W21283  27.113  20.746  10.408
61990W        W21284   7.674  40.530   0.960
61991W        W21285   8.822  25.525  11.090
61992W        W21286  10.372  29.969   3.750
61993W        W21287  16.136   7.229   1.893
61994W        W21288  38.024  26.994  11.455
61995W        W21289   3.929  28.467  14.889
61996W        W21290  22.694  11.727   2.307
61997W        W21291  20.711  14.191   4.221
61998W        W21292  23.180  29.485   2.404
61999W        W21293  43.021  20.767   3.234
62000W        W21294  43.306   8.898  14.350
62001W        W21295  36.364  40.866  14.479
62002W        W21296   7.298  27.976  10.528
62003W        W21297  44.831   2.812  11.927
62004W        W21298  29.506   5.252   0.397
62005W        W21299  40.965  15.124  11.398
62006W        W21300  34.050   3.768  11.577
62007W        W21301  26.701   3.369  14.504
62008W        W21302  28.986  23.220   1.782
62009W        W21303  25.016  31.016   4.201
62010W        W21304  37.929  28.463  11.540
62011W        W21305  10.699   0.783   2.351
62012W        W21306   5.905  26.549  11.916
62013W        W21307   2.455   0.746   5.157
62014W        W21308  27.555  44.931   1.286
62015W        W21309  23.733   3.309  10.931
62016W        W21310  23.571  39.527   1.263
62017W        W21311  14.647  38.992   0.958
62018W        W21312  19.240   2.726   4.780
62019W        W21313  27.565  27.691   1.450
62020W        W21314  43.359   4.335   0.958
62021W        W21315  31.514  14.212   1.929
62022W        W21316  11.652  20.526  13.497
62023W        W21317  30.943  22.502   0.889
62024W        W21318  26.143   0.364  10.933
62025W        W21319  44.422  27.569   1.800
62026W        W21320  36.881   3.329  11.109
62027W        W21321   9.679  24.558  13.834
62028W        W21322  28.495  25.561  14.965
62029W        W21323   4.789  33.975  14.846
62030W        W21324   9.877   5.746  11.967
62031W        W21325  40.386  44.932  13.323
62032W        W21326   1.752  16.226  13.505
62033W        W21327  23.734  14.678  11.428
62034W        W21328  16.245  24.038   3.262
62035W        W21329  40.873   1.365  14.466
62036W        W21330  39.815  42.496  10.645
62037W        W21331  40.899  12.814   3.841
62038W        W21332   9.668  19.067  12.420
62039W        W21333  22.735  11.838   0.796
62040W        W21334  25.653  30.580  11.427
62041W        W21335  40.043  21.038  11.023
62042W        W21336  37.862  19.605   1.698
62043W        W21337  44.280  19.612  12.541
62044W        W21338   0.972  19.758  12.873
62045W        W21339  22.589  33.403   5.158
62046W        W21340  10.747  35.482  14.408
62047W        W21341  38.363   8.810  11.483
62048W        W21342  40.338  14.644   1.726
62049W        W21343   5.913   6.888  10.455
62050W        W21344   8.260  20.268  12.353
62051W        W21345   2.381  35.595   2.807
62052W        W21346  18.685  38.508  12.843
62053W        W21347   2.928  12.170   2.386
62054W        W21348  36.874   2.855  12.389
62055W        W21349  10.251  13.170   0.420
62056W        W21350  27.198  22.024  14.436
62057W        W21351  16.185  35.448  11.598
62058W        W21352  44.877  38.344  11.559
62059W        W21353  34.022  34.953   2.694
62060W        W21354  12.145  23.198   0.868
62061W        W21355  23.986   1.815   0.292
62062W        W21356  30.413  22.680  11.885
62063W        W21357  36.420  16.080   4.309
62064W        W21358   6.690   2.916   2.376
62065W        W21359   7.867   6.331   0.766
62066W        W21360   0.372  38.010  13.928
62067W        W21361  19.232  14.785   2.694
62068W        W21362  15.160  32.915   4.116
62069W        W21363  15.151   9.287  10.054
62070W        W21364  44.850  22.182  10.949
62071W        W21365  30.430  30.163  12.558
62072W        W21366   3.821  34.038  11.928
62073W        W21367  41.933  44.922  12.954
62074W        W21368  11.621   5.222   2.202
62075W        W21369  37.515  32.972   1.362
62076W        W21370  24.068  22.635   4.324
62077W        W21371  36.976  21.213   2.855
62078W        W21372  27.032  21.209  11.037
62079W        W21373   6.200  22.595   1.280
62080W        W21374   9.164  19.630  13.945
62081W        W21375  29.036  26.687  13.520
62082W        W21376  13.129  35.107   3.272
62083W        W21377  44.933  17.734   0.821
62084W        W21378  21.215  11.256   1.754
62085W        W21379   6.745  25.050  13.855
62086W        W21380  37.471   7.673  12.556
62087W        W21381  10.717  18.594   4.667
62088W        W21382  27.070   2.768   4.319
62089W        W21383  11.830  28.011  11.390
62090W        W21384  22.683   2.230   3.160
62091W        W21385   2.257  24.191   0.829
62092W        W21386  17.720   1.272   0.407
62093W        W21387   3.935  36.507   3.650
62094W        W21388  22.580   9.342  11.899
62095W        W21389  15.294  43.791  12.951
62096W        W21390  42.847  27.087   1.283
62097W        W21391   5.881  24.575  11.574
62098W        W21392  27.023  43.500  14.937
62099W        W21393  42.906   5.696  12.067
62100W        W21394   9.840   1.842   0.261
62101W        W21395  32.438  29.669   3.199
62102W        W21396  42.995   6.711   2.847
62103W        W21397  11.690   7.345  14.931
62104W        W21398  20.680   8.701   1.753
62105W        W21399  26.199  27.028   1.796
62106W        W21400  35.999  22.064  14.806
62107W        W21401  32.123  27.077   1.783
62108W        W21402  33.466  38.339   4.780
62109W        W21403  13.680   5.238  12.461
62110W        W21404  43.898   9.390  11.128
62111W        W21405  14.615  44.884  13.051
62112W        W21406  18.595  36.533  10.448
62113W        W21407  33.620  29.664  11.531
62114W        W21408   1.324  19.063   3.214
62115W        W21409  25.177  38.911   1.358
62116W        W21410  15.824  26.091   3.362
62117W        W21411   2.873  30.145   2.850
62118W        W21412  23.168  32.913   0.304
62119W        W21413  21.553   9.200  14.999
62120W        W21414   8.237  12.619  13.883
62121W        W21415   3.390  27.122  13.372
62122W        W21416  12.770  18.087  11.955
62123W        W21417  31.074  17.623   0.317
62124W        W21418  19.059   2.456   0.884
62125W        W21419  16.116  16.755  12.481
62126W        W21420  23.546  38.516   1.257
62127W        W21421   5.885   1.309  14.332
62128W        W21422  32.514  30.586  11.588
62129W        W21423  41.869   2.322  10.906
62130W        W21424  14.723  43.424  10.998
62131W        W21425  18.652  24.579  14.477
62132W        W21426  17.255  44.298   0.881
62133W        W21427  27.944  15.700  14.879
62134W        W21428  36.551  38.550  12.970
62135W        W21429   8.746   8.169   3.320
62136W        W21430  29.144   2.911  11.495
62137W        W21431  21.592  20.126   2.190
62138W        W21432  12.197  39.950   0.403
62139W        W21433  14.186  42.850  11.066
62140W        W21434  21.533  21.565   1.327
62141W        W21435  10.751  11.153  10.481
62142W        W21436  37.062  43.904   4.822
62143W        W21437  35.464   3.847  13.050
62144W        W21438   4.866   9.184  13.341
62145W        W21439  33.125   5.836   2.385
62146W        W21440  13.838  19.741   4.640
62147W        W21441  35.093  30.016   4.334
62148W        W21442  30.143  25.693  13.419
62149W        W21443  26.671   9.879  11.531
62150W        W21444  15.657   2.466   2.228
62151W        W21445   8.326  32.922   0.263
62152W        W21446  10.289   5.822   4.671
62153W        W21447  12.198  38.893  11.123
62154W        W21448   5.436  18.195  13.024
62155W        W21449   8.169  28.464   1.793
62156W        W21450   2.413  28.512   4.229
62157W        W21451   5.326  15.150  11.519
62158W        W21452  32.049  39.456  14.781
62159W        W21453  20.722  44.273  12.068
62160W        W21454  20.551  34.545   3.309
62161W        W21455   1.476  27.186  13.339
62162W        W21456   9.330  19.772   1.783
62163W        W21457  16.080  10.670   1.319
62164W        W21458   0.758  35.050   2.321
62165W        W21459  40.970  19.072  14.847
62166W        W21460  43.448   3.889   2.392
62167W        W21461  27.681   9.650   0.894
62168W        W21462   6.246   0.406   1.705
62169W        W21463  16.286  33.487  13.947
62170W        W21464  21.146  35.361  11.465
62171W        W21465  28.970  22.531  13.541
62172W        W21466   1.243   1.407  11.988
62173W        W21467  37.012  33.083  11.523
62174W        W21468   0.841   7.803   2.737
62175W        W21469  24.604   7.216  13.450
62176W        W21470  18.095  10.776  14.500
62177W        W21471  40.041   9.657  11.604
62178W        W21472  16.262  37.434  13.522
62179W        W21473  21.103  41.491  14.438
62180W        W21474  27.685  31.970  14.858
62181W        W21475  39.446  30.608  10.449
62182W        W21476  36.054  30.601  13.049
62183W        W21477   4.935  26.201  11.078
62184W        W21478   3.743  29.466  14.397
62185W        W21479   7.715  13.208  12.888
62186W        W21480  17.226  16.705   2.192
62187W        W21481   4.903  26.152   3.343
62188W        W21482   3.217   0.264  12.842
62189W        W21483   8.357  36.073  12.843
62190W        W21484   2.359  15.108  11.093
62191W        W21485  12.203  28.135  14.511
62192W        W21486  25.596  22.193   1.857
62193W        W21487  21.699  44.481   0.357
62194W        W21488   1.268   3.797   0.384
62195W        W21489  17.565   4.751   1.413
62196W        W21490  36.095  22.173   2.317
62197W        W21491  30.581   9.226  10.914
62198W        W21492  44.304  14.702   3.633
62199W        W21493  43.467  36.859   4.288
62200W        W21494  33.049  42.979   0.867
62201W        W21495  30.523  16.659  11.563
62202W        W21496   0.381   5.697   3.154
62203W        W21497  39.538   1.869   0.337
62204W        W21498   4.365  37.066  12.933
62205W        W21499  21.122   3.397   4.336
62206W        W21500  17.793   9.779  11.509
62207W        W21501   4.787  19.171   3.702
62208W        W21502  42.363   0.272   2.374
62209W        W21503  24.487  37.420   3.746
62210W        W21504   8.685  38.412  12.567
62211W        W21505  29.492   9.304   0.369
62212W        W21506  18.278  37.076  10.955
62213W        W21507  39.059  16.799   2.384
62214W        W21508  11.311   2.817  13.388
62215W        W21509  14.689  29.143  11.993
62216W        W21510  21.115  32.595   3.194
62217W        W21511  18.651  26.963  11.894
62218W        W21512   2.746  21.214   1.426
62219W        W21513   8.823  32.965   2.249
62220W        W21514   5.920  18.662  10.596
62221W        W21515  18.238  30.124   4.624
62222W        W21516  28.510  23.077  13.522
62223W        W21517  30.462  20.544  10.558
62224W        W21518   4.213  22.125   4.798
62225W        W21519   1.802  25.981   4.177
62226W        W21520  37.549  42.433   4.265
62227W        W21521   6.874  11.713   3.180
62228W        W21522  31.600  35.016   3.252
62229W        W21523  22.626  34.937  14.485
62230W        W21524  13.179  20.182  12.073
62231W        W21525  32.564  16.246  13.509
62232W        W21526  39.841  42.456   1.793
62233W        W21527  21.539  38.358  12.508
62234W        W21528   4.360  34.418  11.108
62235W        W21529   2.914  41.853  12.004
62236W        W21530  13.691  33.029   2.737
62237W        W21531   5.720  21.192  11.410
62238W        W21532  20.218  43.384  11.883
62239W        W21533  15.311  15.803  13.922
62240W        W21534  27.608   6.847   9.975
62241W        W21535  12.675  26.550  11.101
62242W        W21536  33.495  23.028   3.200
62243W        W21537  34.573   1.447  14.288
62244W        W21538  13.690  38.393  11.011
62245W        W21539  42.512   6.376  13.360
62246W        W21540   5.387  18.167  12.075
62247W        W21541  26.579  15.327  14.425
62248W        W21542  11.861   1.407   1.844
62249W        W21543  42.516   3.274   3.162
62250W        W21544  17.061  11.827   3.361
62251W        W21545  20.149  38.346  14.004
62252W        W21546  35.020  18.545   0.374
62253W        W21547  24.147  38.551   0.242
62254W        W21548  24.120  36.375  10.936
62255W        W21549   8.346  28.549  10.005
62256W        W21550  43.512  20.672   0.946
62257W        W21551  40.375  32.091  13.798
62258W        W21552  31.421  19.093  11.082
62259W        W21553   1.808  12.614   3.330
62260W        W21554   8.791  17.112   5.205
62261W        W21555  43.379  40.844  14.818
62262W        W21556  28.554  15.165   4.157
62263W        W21557  14.303  28.578   4.246
62264W        W21558  32.978  30.555  11.883
62265W        W21559  18.607  34.601   2.365
62266W        W21560  19.539  25.033  14.329
62267W        W21561  20.271  17.682  10.531
62268W        W21562  33.614   7.216   5.226
62269W        W21563   3.823   5.400   0.293
62270W        W21564  32.453  39.372   4.604
62271W        W21565  19.228  38.050   4.295
62272W        W21566  39.845  10.337   2.682
62273W        W21567  35.393  14.138  13.836
62274W        W21568  29.542  21.161  10.950
62275W        W21569  39.529  25.643  12.898
62276W        W21570   0.786   9.272  13.308
62277W        W21571   5.410  12.828  10.967
62278W        W21572  40.303   8.306   3.305
62279W        W21573  36.863  39.378   0.895
62280W        W21574   1.961  37.504  12.527
62281W        W21575  21.127  40.047   0.337
62282W        W21576  21.712  19.772   3.357
62283W        W21577   6.405  41.381  13.918
62284W        W21578  19.054  36.538  14.931
62285W        W21579  38.876  24.675   4.134
62286W        W21580  29.049  24.020  10.902
62287W        W21581   4.270   3.256   0.874
62288W        W21582  26.086  40.386   4.186
62289W        W21583   8.250  15.729  13.908
62290W        W21584  43.452  25.965  14.851
62291W        W21585   7.760  22.148   2.816
62292W        W21586  10.204   8.283  10.511
62293W        W21587   1.392  38.418   3.241
62294W        W21588  17.599  36.963  10.925
62295W        W21589  34.119  31.439  12.014
62296W        W21590  36.880   5.735   4.345
62297W        W21591  32.448   7.243   0.952
62298W        W21592   1.330  31.108  10.620
62299W        W21593  20.734  19.720  10.011
62300W        W21594   9.204  20.043   2.881
62301W        W21595   3.360  27.664   0.276
62302W        W21596  36.990  30.941   1.428
62303W        W21597  12.232  36.039   1.840
62304W        W21598  18.293  15.094   0.870
62305W        W21599  10.214  43.874  11.455
62306W        W21600   7.667   4.869   0.324
62307W        W21601  34.023  27.493  12.502
62308W        W21602  43.778  30.935  12.391
62309W        W21603  37.895  41.018  11.915
62310W        W21604   1.809  44.893  11.917
62311W        W21605  23.005  26.508  13.529
62312W        W21606  11.811  32.395  12.056
62313W        W21607  27.644  20.191   3.771
62314W        W21608  35.415  33.585  13.450
62315W        W21609  44.002   1.945  10.544
62316W        W21610  12.612  23.050  10.592
62317W        W21611  26.562  35.471   5.144
62318W        W21612  11.664  35.021   3.636
62319W        W21613  41.402  30.546  11.489
62320W        W21614  44.280  20.068   2.688
62321W        W21615  43.467  27.038   3.153
62322W        W21616   6.339   6.207  14.507
62323W        W21617  13.704  37.517   3.171
62324W        W21618  16.685  19.170   0.350
62325W        W21619   2.357   6.859   3.191
62326W        W21620  44.352   5.359  13.905
62327W        W21621  19.181  37.544   4.821
62328W        W21622  36.584  38.462  14.513
62329W        W21623   0.433   0.410   0.941
62330W        W21624  32.105  21.578  11.907
62331W        W21625   1.862   3.846  14.312
62332W        W21626  37.449  24.090  12.508
62333W        W21627   1.423  26.190   1.404
62334W        W21628   4.241   9.823  13.354
62335W        W21629  37.416  26.001   0.336
62336W        W21630  43.400  35.561   2.257
62337W        W21631  22.058  22.625  10.523
62338W        W21632   8.879  21.082   0.778
62339W        W21633  21.220  19.238  14.405
62340W        W21634  40.380   1.238   0.888
62341W        W21635  27.946   9.177  12.518
62342W        W21636  40.868  14.137  10.487
62343W        W21637   4.745   0.431   9.979
62344W        W21638  25.555  22.997   4.672
62345W        W21639  30.100   1.794   3.661
62346W        W21640  30.580   2.320  12.963
62347W        W21641  28.036  33.088  14.294
62348W        W21642   6.252  16.709  14.809
62349W        W21643  29.124  41.302  13.409
62350W        W21644  35.486  38.535  11.412
62351W        W21645  11.364   9.864   4.305
62352W        W21646  17.256  26.205  12.909
62353W        W21647  26.181   0.954   1.776
62354W        W21648   5.415  23.050  11.997
62355W        W21649  35.854  41.315   2.416
62356W        W21650  21.647  36.368   2.233
62357W        W21651  20.614  23.570   4.240
62358W        W21652   8.280   0.359   2.382
62359W        W21653  43.005   0.458   0.754
62360W        W21654   2.269   7.772  14.799
62361W        W21655  27.177  38.016   0.302
62362W        W21656   1.893  35.010   3.762
62363W        W21657   4.305  39.510  13.026
62364W        W21658  12.709   9.802   0.254
62365W        W21659  29.106  33.909   1.703
62366W        W21660  27.684   0.914  11.072
62367W        W21661  24.723  37.071  11.126
62368W        W21662  25.674  15.320   3.340
62369W        W21663  42.308  38.549   0.952
62370W        W21664  26.519  22.634   1.344
62371W        W21665  26.050  29.162   2.281
62372W        W21666  29.588  41.905  12.982
62373W        W21667  28.929   5.816   1.367
62374W        W21668  22.006  17.622  14.031
62375W        W21669  28.445  34.417   1.751
62376W        W21670   9.734  34.424  11.052
62377W        W21671  33.912  23.700  11.070
62378W        W21672  20.271   7.316  14.290
62379W        W21673  32.020  33.067  12.526
62380W        W21674  43.399  16.802  13.836
62381W        W21675   7.240  29.942   3.867
62382W        W21676  37.030  33.535  10.126
62383W        W21677  18.107  14.197  10.454
62384W        W21678  18.614   4.927  10.094
62385W        W21679   4.889  42.483  12.086
62386W        W21680  29.472  23.629   1.271
62387W        W21681  41.327  23.175  10.581
62388W        W21682  31.447  30.007  11.534
62389W        W21683  21.128  32.105   0.958
62390W        W21684  34.574  41.799   1.266
62391W        W21685  39.937  17.249   4.236
62392W        W21686  17.158  33.958  13.886
62393W        W21687  36.393  19.670   2.771
62394W        W21688  23.056  33.940   4.640
62395W        W21689  13.129  28.481   1.724
62396W        W21690   2.299   2.876   2.727
62397W        W21691  38.477  43.422  12.941
62398W        W21692  20.646  36.521   0.426
62399W        W21693  41.445  13.252  11.457
62400W        W21694  30.164  24.080  14.031
62401W        W21695  13.823  38.350  10.508
62402W        W21696  44.469  11.207   3.690
62403W        W21697  16.807  16.669   1.861
62404W        W21698  15.302   3.782   3.259
62405W        W21699   9.767  17.590   4.264
62406W        W21700  38.909  21.576  11.391
62407W        W21701  37.379   2.853   4.115
62408W        W21702   1.394   8.818   4.660
62409W        W21703  10.142  33.565  10.466
62410W        W21704   4.726  31.597   2.349
62411W        W21705  26.035  14.807  14.846
62412W        W21706  30.066  31.031  11.588
62413W        W21707   9.293  30.560   2.355
62414W        W21708  44.931  38.502   0.885
62415W        W21709  21.105   4.734   3.698
62416W        W21710  12.158   6.824   4.124
62417W        W21711  42.523   3.461  14.966
62418W        W21712  12.681  10.321   1.829
62419W        W21713  38.947  16.601  14.933
62420W        W21714  42.890  17.620   0.339
62421W        W21715  16.620  36.379   3.856
62422W        W21716  34.436   7.177  12.987
62423W        W21717   2.349  40.926   0.832
62424W        W21718  41.931  34.488   4.601
62425W        W21719  13.691  42.832   4.646
62426W        W21720   2.390  35.961   5.105
62427W        W21721  28.018  16.672  12.001
62428W        W21722  34.478  38.036  10.645
62429W        W21723  14.660  11.343   9.464
62430W        W21724  41.845  35.521   0.397
62431W        W21725   1.309  43.003  11.418
62432W        W21726  27.580  34.062  13.503
62433W        W21727  43.838  39.460  14.446
62434W        W21728  13.129  15.310   2.882
62435W        W21729  28.163   0.939  14.983
62436W        W21730  23.609   8.835  11.094
62437W        W21731  29.140  26.680  12.367
62438W        W21732  28.672  15.716  14.403
62439W        W21733  21.050   2.756   4.261
62440W        W21734  17.117  18.653  13.827
62441W        W21735  20.218  36.871  12.369
62442W        W21736  13.125  13.312  13.420
62443W        W21737  17.664  39.988   0.809
62444W        W21738  44.857   7.299   4.141
62445W        W21739   5.696  12.757  11.954
62446W        W21740   8.277  42.022  13.347
62447W        W21741  40.328  16.730  10.911
62448W        W21742  24.991   2.905   1.931
62449W        W21743  12.344  44.987  14.872
62450W        W21744  37.068  24.651  11.901
62451W        W21745   7.796  43.806   5.146
62452W        W21746  16.293  15.129   4.685
62453W        W21747  18.148   3.375  11.580
62454W        W21748  43.937  16.122  14.889
62455W        W21749  15.235  44.817  13.799
62456W        W21750  39.494   0.788   2.367
62457W        W21751   1.970  22.651  11.941
62458W        W21752  25.615  21.127   1.277
62459W        W21753  15.112   4.732  14.022
62460W        W21754  26.466   1.465   3.319
62461W        W21755  43.938  33.382   2.381
62462W        W21756  21.648  44.364   2.268
62463W        W21757  18.789  23.711  12.062
62464W        W21758  30.560  31.642  13.866
62465W        W21759  14.206  28.154   2.769
62466W        W21760   7.327  24.544   2.282
62467W        W21761  14.268  11.157  14.302
62468W        W21762  42.308   3.279  11.878
62469W        W21763   0.925  12.261   0.860
62470W        W21764  20.706  15.643   2.198
62471W        W21765  41.038   6.808   2.186
62472W        W21766  42.990  14.804   4.827
62473W        W21767   0.453  37.072   4.184
62474W        W21768  38.342  35.432   3.849
62475W        W21769  37.973  24.125   1.429
62476W        W21770  18.737  34.893   1.834
62477W        W21771   6.909  19.247  14.313
62478W        W21772  23.491   7.293   5.104
62479W        W21773  11.669  30.597  12.468
62480W        W21774  41.353  22.681  11.956
62481W        W21775  41.345  43.961  12.481
62482W        W21776  32.916  33.970   0.408
62483W        W21777  28.572  12.126  14.297
62484W        W21778  27.022  10.173   3.352
62485W        W21779  32.088  21.133   2.663
62486W        W21780  20.595  31.563   0.799
62487W        W21781   0.322   4.412  12.832
62488W        W21782  23.628   7.832   9.520
62489W        W21783  44.838  10.739  10.970
62490W        W21784  36.880   8.891   2.181
62491W        W21785  24.114  36.866  13.452
62492W        W21786  14.182  33.010   1.237
62493W        W21787  33.517  29.056  12.580
62494W        W21788  34.916  40.418  14.379
62495W        W21789  30.117  37.932   3.212
62496W        W21790  43.973  28.607   3.298
62497W        W21791  13.603   7.673   3.722
62498W        W21792  12.729   3.222   4.766
62499W        W21793  37.442  21.632  12.461
62500W        W21794  38.349   2.915  14.302
62501W        W21795  27.681   4.260  13.523
62502W        W21796  23.668   3.382  12.870
62503W        W21797   3.926  19.754   3.195
62504W        W21798   1.413  23.570  11.095
62505W        W21799  42.472  20.530  11.034
62506W        W21800  41.964  17.681  13.344
62507W        W21801  20.705   1.829  10.622
62508W        W21802   0.820  21.209   3.279
62509W        W21803  21.027  41.436  12.498
62510W        W21804  31.142  36.058   4.618
62511W        W21805  12.294  31.412  12.458
62512W        W21806  25.067  12.361  10.025
62513W        W21807  23.992  44.400   2.824
62514W        W21808   9.359  14.115  10.904
62515W        W21809   4.888  23.099  13.922
62516W        W21810  31.627  20.087   1.261
62517W        W21811  41.457   2.965  12.548
62518W        W21812  10.760  16.684   2.791
62519W        W21813   9.774  21.093   3.699
62520W        W21814  10.151  38.509   1.357
62521W        W21815  37.007  11.209   3.787
62522W        W21816  17.209  27.633  10.990
62523W        W21817  34.926  12.811  12.523
62524W        W21818   8.787  43.366   0.860
62525W        W21819  30.019  27.457  11.558
62526W        W21820  18.620  29.495   2.875
62527W        W21821  39.508  27.579  13.436
62528W        W21822  12.811  15.213   3.824
62529W        W21823  16.788  20.122  13.980
62530W        W21824  25.136  12.272   0.333
62531W        W21825  11.179  39.482  11.450
62532W        W21826  37.867  30.916  11.560
62533W        W21827  32.438  34.976  12.953
62534W        W21828   3.791  14.119   4.682
62535W        W21829  30.498  41.884   9.613
62536W        W21830  13.282  12.744  12.924
62537W        W21831  12.253  25.014   4.235
62538W        W21832  20.716  28.643   0.876
62539W        W21833  19.268  13.615   0.376
62540W        W21834  13.767  12.358   0.353
62541W        W21835  40.478  40.033  14.409
62542W        W21836  34.936  22.040   3.386
62543W        W21837  10.866  29.071   0.245
62544W        W21838  20.110  32.582  13.856
62545W        W21839  30.515  25.524   0.469
62546W        W21840   3.715  11.861  14.362
62547W        W21841  35.478   9.741   0.440
62548W        W21842  36.896  18.633   0.310
62549W        W21843   0.942   1.775  14.801
62550W        W21844  21.255  39.822   2.872
62551W        W21845  16.577  13.302  12.067
62552W        W21846  28.443  25.030  10.475
62553W        W21847  24.506  10.234   3.240
62554W        W21848  44.380  36.015   0.454
62555W        W21849  44.775   5.405  13.330
62556W        W21850  16.282   2.731  14.400
62557W        W21851  24.583  41.853  11.409
62558W        W21852  35.860   0.813   2.344
62559W        W21853  15.145   8.686  11.472
62560W        W21854  14.639  18.121   2.867
62561W        W21855  20.561  10.866   3.680
62562W        W21856   9.802  13.130  11.868
62563W        W21857  23.150  12.686  12.062
62564W        W21858   8.176  35.872   4.672
62565W        W21859   1.399  26.008   0.395
62566W        W21860   4.210   5.820   2.679
62567W        W21861  29.053  34.470   4.182
62568W        W21862   8.875   5.270  13.867
62569W        W21863   1.432  29.440  12.021
62570W        W21864  44.999  26.032   4.203
62571W        W21865  17.275  18.608  11.099
62572W        W21866  13.106  40.984   0.839
62573W        W21867   2.233   8.711   3.825
62574W        W21868  28.932   7.757  14.299
62575W        W21869  37.864  12.815  14.978
62576W        W21870  22.121  43.812   4.726
62577W        W21871   3.813  30.418  14.441
62578W        W21872  36.431   3.742   2.793
62579W        W21873  27.057   6.699   3.383
62580W        W21874  25.518  44.904  13.438
62581W        W21875   8.757  10.866   1.765
62582W        W21876  13.778  39.996   3.699
62583W        W21877  35.938  24.680  10.403
62584W        W21878  33.420  25.517  12.975
62585W        W21879  26.017  32.537   1.721
62586W        W21880  27.605   1.237  13.942
62587W        W21881  29.085  11.751   1.211
62588W        W21882  37.539  21.733  10.971
62589W        W21883  12.255  32.617   2.391
62590W        W21884  32.587   9.715  12.567
62591W        W21885  32.611  19.219   1.268
62592W        W21886   7.790  35.931   1.761
62593W        W21887  23.551  25.081  11.070
62594W        W21888   2.743  12.190  13.998
62595W        W21889  37.880  20.761   1.838
62596W        W21890  40.946  34.916   4.768
62597W        W21891  12.341  44.976  14.375
62598W        W21892  43.343   4.376   4.120
62599W        W21893  23.710   7.329   9.532
62600W        W21894  25.532  18.737   3.715
62601W        W21895   1.878  38.934  11.384
62602W        W21896  36.573  42.825   0.259
62603W        W21897  36.998  40.308   2.843
62604W        W21898  40.477   3.401   2.384
62605W        W21899  10.376  41.849   1.850
62606W        W21900  37.563  34.535   0.805
62607W        W21901  43.512  24.665  12.089
62608W        W21902  13.834   2.947  11.870
62609W        W21903  31.913  14.688   0.242
62610W        W21904   6.215  11.140   2.843
62611W        W21905  32.523  26.183   0.247
62612W        W21906   9.703   4.867   4.161
62613W        W21907  42.456  22.570   3.691
62614W        W21908  40.415  23.154   2.195
62615W        W21909  18.580  25.506  11.062
62616W        W21910  33.020  39.347   0.285
62617W        W21911  41.494  10.260   2.837
62618W        W21912  21.158  17.654  14.790
62619W        W21913  43.835  43.298   0.395
62620W        W21914   8.654  39.909  13.325
62621W        W21915   8.232  27.104  14.855
62622W        W21916  12.169  41.521   2.352
62623W        W21917  38.468   9.307   2.696
62624W        W21918  14.340  16.641   0.962
62625W        W21919  42.504  11.134  11.558
62626W        W21920  38.976  24.723  13.471
62627W        W21921  35.563  33.995  10.930
62628W        W21922  24.659  27.002  14.281
62629W        W21923  24.017  28.454  13.928
62630W        W21924  31.635  40.052  11.475
62631W        W21925  15.757  36.855   0.751
62632W        W21926  23.534   1.301   1.253
62633W        W21927  17.264  44.877   4.119
62634W        W21928  32.955  32.446  12.894
62635W        W21929   3.770  30.040  10.932
62636W        W21930   6.336  41.352  10.050
62637W        W21931  34.509   7.311  10.588
62638W        W21932  40.899  11.323   1.923
62639W        W21933  13.764   9.724  11.075
62640W        W21934  16.780  16.592  12.528
62641W        W21935  32.571  39.867   5.666
62642W        W21936   8.739  18.166   3.836
62643W        W21937  35.471  40.961  10.497
62644W        W21938  26.604  31.903  10.109
62645W        W21939  27.085  22.717  13.416
62646W        W21940  25.608  10.278   3.148
62647W        W21941   3.868  18.178  11.084
62648W        W21942  29.954  41.518  10.965
62649W        W21943   0.829  39.825  14.315
62650W        W21944  30.086  24.030  10.952
62651W        W21945  43.280  32.959  13.482
62652W        W21946  33.024   4.827  12.544
62653W        W21947  13.301  40.987   1.715
62654W        W21948  10.334  15.163  12.853
62655W        W21949  11.736  32.569  11.537
62656W        W21950  17.247  11.795  10.435
62657W        W21951  34.474  39.063  13.957
62658W        W21952  41.993  31.540   3.380
62659W        W21953  29.582   7.794   2.705
62660W        W21954  23.057  10.819  14.795
62661W        W21955  22.043  26.102   4.759
62662W        W21956  22.036   2.279   0.354
62663W        W21957  23.216   9.353  12.847
62664W        W21958  15.609  30.636  12.841
62665W        W21959  21.613  39.338  14.390
62666W        W21960   1.318  21.729  11.372
62667W        W21961  22.712  39.843   4.229
62668W        W21962   6.764   3.793  10.911
62669W        W21963  34.573  16.735  11.598
62670W        W21964  34.014  44.381   0.306
62671W        W21965  21.556  25.087   3.275
62672W        W21966  34.519  29.051  14.808
62673W        W21967  26.693   3.354  12.885
62674W        W21968  31.612  44.504   2.672
62675W        W21969  38.990  10.328  10.116
62676W        W21970  25.125  26.062   0.360
62677W        W21971  42.370   6.378  10.605
62678W        W21972  11.654  10.357   9.999
62679W        W21973  15.674  20.178   3.146
62680W        W21974  41.018  14.147   1.720
62681W        W21975  11.849  44.782  14.943
62682W        W21976  34.990  10.349   0.251
62683W        W21977  38.458  40.914  11.115
62684W        W21978  36.075  25.646  10.986
62685W        W21979  44.310  14.594  10.568
62686W        W21980   7.390   4.708  14.416
62687W        W21981   1.883  14.673  11.515
62688W        W21982  25.215  36.354  13.487
62689W        W21983  10.286   0.908   1.771
62690W        W21984  22.625  27.560   4.660
62691W        W21985   2.431  43.278   2.341
62692W        W21986   1.366  17.580   4.644
62693W        W21987  10.679  16.601  10.484
62694W        W21988  19.589  26.489   3.850
62695W        W21989  21.577  39.942  12.458
62696W        W21990   0.317  19.236  13.473
62697W        W21991  40.870  14.779  13.036
62698W        W21992  11.641   8.843   5.284
62699W        W21993  30.622  12.123  10.474
62700W        W21994  24.606  29.456  14.430
62701W        W21995  37.390   0.743  14.400
62702W        W21996  22.645  34.060   2.255
62703W        W21997   0.858  12.671  14.999
62704W        W21998  20.165  40.427  11.588
62705W        W21999  10.188   0.867   4.340
62706W        W22000  38.994   4.434   5.316
62707W        W22001  34.608   7.685   3.246
62708W        W22002   3.938   9.322   1.251
62709W        W22003  41.293  41.368  10.988
62710W        W22004  42.897  31.108  12.853
62711W        W22005   4.378  43.830  14.841
62712W        W22006  18.283  37.987   1.233
62713W        W22007  16.085  24.107   4.312
62714W        W22008  40.848  30.068   0.856
62715W        W22009   7.280  42.839  14.441
62716W        W22010  32.016   8.730   1.347
62717W        W22011   9.787   6.239   1.844
62718W        W22012  15.696  22.532  11.118
62719W        W22013   1.926   4.705   0.408
62720W        W22014  42.003  39.458  12.060
62721W        W22015   1.380  13.739  10.588
62722W        W22016   5.719  27.616   2.220
62723W        W22017   9.657   5.351   1.316
62724W        W22018  15.644   3.884   3.732
62725W        W22019  10.850  20.686  13.526
62726W        W22020  42.804  35.945  12.823
62727W        W22021  32.993  41.527   4.716
62728W        W22022  36.386  37.421  13.805
62729W        W22023  18.256   9.357   4.663
62730W        W22024  15.753   6.308  13.017
62731W        W22025  15.197   1.415  12.045
62732W        W22026  10.370  33.389  14.391
62733W        W22027   9.350  37.516   4.298
62734W        W22028  30.094   1.891   4.316
62735W        W22029  44.308  24.131  13.428
62736W        W22030   3.235  41.035  11.089
62737W        W22031  36.463   4.321   4.776
62738W        W22032  40.955  38.536  11.398
62739W        W22033  42.310  19.218  11.035
62740W        W22034  14.819  43.909  13.810
62741W        W22035  12.813  30.991   3.317
62742W        W22036   8.380  15.684  11.483
62743W        W22037  36.918  41.524  11.411
62744W        W22038  41.527   4.850   4.298
62745W        W22039  30.495  34.878   4.340
62746W        W22040  39.918   0.848  12.050
62747W        W22041  10.207  14.239  13.859
62748W        W22042  44.928  33.622   1.909
62749W        W22043   0.472  20.208   3.691
62750W        W22044  24.201  41.872  13.816
62751W        W22045  18.087   2.319   0.295
62752W        W22046   3.218  24.229   3.766
62753W        W22047  39.462  21.154   3.183
62754W        W22048  31.448  31.623  14.348
62755W        W22049  16.669  13.741   2.398
62756W        W22050  34.523  24.031  14.412
62757W        W22051   9.326   8.207  14.334
62758W        W22052  26.085  22.193   3.666
62759W        W22053  23.570  20.249  13.892
62760W        W22054  29.626  18.063  14.836
62761W        W22055  30.485  33.919   4.680
62762W        W22056  30.009   9.885  13.041
62763W        W22057  24.101  34.874  11.471
62764W        W22058  24.124  37.355   4.621
62765W        W22059  36.895  39.833  14.295
62766W        W22060  28.022  31.530   4.646
62767W        W22061   5.263   7.768   2.687
62768W        W22062  43.274  28.621  14.372
62769W        W22063  24.133  26.650  10.064
62770W        W22064  27.692  31.581   0.400
62771W        W22065  29.988  16.203   2.264
62772W        W22066   0.446  29.153   2.746
62773W        W22067  29.517   3.956  12.920
62774W        W22068   5.876  11.154   3.739
62775W        W22069  17.716  31.964   3.704
62776W        W22070  13.816  38.940  13.982
62777W        W22071  19.714  15.695   5.320
62778W        W22072  39.909  25.678  11.955
62779W        W22073   5.399  14.600   2.287
62780W        W22074  15.326  38.911   3.820
62781W        W22075  43.305  44.859  11.515
62782W        W22076   4.302  44.995   4.130
62783W        W22077   6.209  43.791  11.549
62784W        W22078   4.219   1.745   1.236
62785W        W22079  26.655  16.101  11.554
62786W        W22080  18.254  20.761  13.374
62787W        W22081  35.470  31.140   3.820
62788W        W22082  27.448   8.662  14.967
62789W        W22083  12.651  34.431   0.810
62790W        W22084  26.044  27.110   1.359
62791W        W22085   3.732  42.414   0.275
62792W        W22086  22.088  32.986   0.825
62793W        W22087  38.976  15.101  10.892
62794W        W22088  41.929  44.989   1.403
62795W        W22089   8.352  32.106  12.355
62796W        W22090  42.347  11.244   1.235
62797W        W22091  29.526   7.806  11.000
62798W        W22092  37.913   5.862  13.427
62799W        W22093  17.787   6.315   0.914
62800W        W22094  38.032   7.795  13.436
62801W        W22095  44.908   0.304   1.746
62802W        W22096  25.125  34.521  11.599
62803W        W22097  23.507  23.085  14.008
62804W        W22098  32.452  18.640   2.902
62805W        W22099  15.785  20.613   3.644
62806W        W22100   8.697  39.952   3.288
62807W        W22101  31.504  44.451   4.746
62808W        W22102  41.409  22.250  12.065
62809W        W22103   4.295  18.752  11.578
62810W        W22104  35.463  21.022  13.509
62811W        W22105  12.644   6.786   2.775
62812W        W22106  18.567  41.451   2.873
62813W        W22107   1.454  22.549  14.928
62814W        W22108  30.074   8.884  12.851
62815W        W22109   1.939  26.604  14.420
62816W        W22110  19.104  20.227   5.749
62817W        W22111  32.028  36.903  12.973
62818W        W22112  40.896   1.760   2.785
62819W        W22113  24.522  12.281   4.698
62820W        W22114  27.605  36.032  13.372
62821W        W22115  36.094  11.691  14.791
62822W        W22116  27.527  30.627  13.848
62823W        W22117  36.415   6.781   3.724
62824W        W22118  35.465  37.338  13.934
62825W        W22119  22.611  35.888  12.950
62826W        W22120  27.140  40.457   2.824
62827W        W22121  27.638   6.366   1.273
62828W        W22122  26.976  13.281   2.868
62829W        W22123  30.589  23.021   1.442
62830W        W22124  42.435  41.959  12.048
62831W        W22125  33.538  15.295  14.998
62832W        W22126  19.061  25.531   0.799
62833W        W22127  26.103  42.967   3.763
62834W        W22128  33.463  12.698   1.276
62835W        W22129  10.697  26.034   0.482
62836W        W22130   5.862   9.887   2.190
62837W        W22131  44.482  32.989  11.056
62838W        W22132  22.246  14.794   1.265
62839W        W22133   2.946  26.977   2.800
62840W        W22134  36.422   4.832  14.970
62841W        W22135  17.244  33.419   2.841
62842W        W22136  16.081  37.500   1.707
62843W        W22137  33.897  31.107  13.996
62844W        W22138   9.157   9.679   2.371
62845W        W22139  36.485  27.503  14.802
62846W        W22140  10.650   1.431   1.271
62847W        W22141  34.893  39.337   2.801
62848W        W22142  13.325   8.868   3.250
62849W        W22143   5.731  28.649  11.089
62850W        W22144   5.211  43.945  13.022
62851W        W22145   9.376  14.329  11.599
62852W        W22146  35.879  17.626   3.207
62853W        W22147  27.669   0.932   1.262
62854W        W22148  24.480  22.706   2.287
62855W        W22149  26.481  41.508   4.830
62856W        W22150  17.261   5.690  12.909
62857W        W22151   6.681  35.364   2.195
62858W        W22152  42.884   2.410  14.850
62859W        W22153  32.015  23.532   2.382
62860W        W22154  25.585  40.021   1.352
62861W        W22155  39.024  23.062   4.693
62862W        W22156  10.802  21.129   1.235
62863W        W22157  13.622  27.605   3.851
62864W        W22158  17.739  39.394  12.478
62865W        W22159  20.268   2.295   3.197
62866W        W22160   9.334  16.702   4.165
62867W        W22161   0.276  28.042  14.904
62868W        W22162  23.187  27.083   1.414
62869W        W22163  44.763   5.258  14.977
62870W        W22164  21.021   6.241  13.872
62871W        W22165   4.793  39.512   2.369
62872W        W22166  20.552  35.391   3.682
62873W        W22167   8.300  38.428   4.220
62874W        W22168  15.142  11.216   9.451
62875W        W22169   6.702  22.508   4.173
62876W        W22170  27.568   5.312  13.859
62877W        W22171  24.541  26.668  14.278
62878W        W22172  39.015  14.195   4.315
62879W        W22173  27.562  34.587  12.452
62880W        W22174  32.630   0.847  12.966
62881W        W22175  43.878   9.359   0.760
62882W        W22176  21.536  17.210   2.815
62883W        W22177  34.380  38.435   1.759
62884W        W22178  33.622  21.531   0.395
62885W        W22179  20.753  12.836   4.752
62886W        W22180  22.695   4.249   2.365
62887W        W22181   5.887  38.504  10.465
62888W        W22182   6.815  27.512  11.914
62889W        W22183  43.795  15.648   1.734
62890W        W22184  20.619   9.675  13.846
62891W        W22185  27.501  36.013   0.411
62892W        W22186  25.622  35.069  11.371
62893W        W22187  10.186  11.138  10.056
62894W        W22188   3.311  32.493   3.237
62895W        W22189  28.133   7.318   0.445
62896W        W22190  17.732  26.560   1.344
62897W        W22191  16.744  21.726   2.224
62898W        W22192  13.113  21.142  11.934
62899W        W22193  24.698  40.948  11.470
62900W        W22194  10.835  15.187  14.016
62901W        W22195  35.033   7.332   5.638
62902W        W22196  44.923   7.330  11.407
62903W        W22197   0.325  39.454   1.914
62904W        W22198  39.429  17.177   4.807
62905W        W22199   8.384  12.787  10.471
62906W        W22200   1.951   8.876   1.933
62907W        W22201   1.761  33.097  12.505
62908W        W22202  33.966  18.724   4.297
62909W        W22203  10.798   4.330  13.981
62910W        W22204  14.137  31.510  13.823
62911W        W22205   4.375  22.149  11.942
62912W        W22206  33.908  22.233   0.939
62913W        W22207  28.168   9.377   1.756
62914W        W22208  30.999  36.029  12.059
62915W        W22209  38.428   4.378   3.274
62916W        W22210  31.420  27.069  11.381
62917W        W22211  17.612  25.005   4.691
62918W        W22212   6.194  31.410  12.891
62919W        W22213  14.325  23.004   2.669
62920W        W22214  34.912  21.565  12.037
62921W        W22215  12.117  39.859  13.839
62922W        W22216   4.707  36.499   1.848
62923W        W22217  25.547  35.430   2.894
62924W        W22218   4.377  11.178   0.470
62925W        W22219  11.279  39.005   4.160
62926W        W22220  39.432   3.271   1.715
62927W        W22221  26.142   9.186   1.353
62928W        W22222  30.547   6.717  10.956
62929W        W22223  25.964   1.943   0.892
62930W        W22224  40.546  25.607  11.079
62931W        W22225   1.241  34.002  11.902
62932W        W22226   9.208   5.830   2.701
62933W        W22227  30.147  35.003  13.004
62934W        W22228  11.216  21.188   4.269
62935W        W22229  24.502  12.335   3.168
62936W        W22230  21.688   4.846   0.799
62937W        W22231  27.546  36.504   1.386
62938W        W22232  12.134  43.381   0.318
62939W        W22233  37.992  35.918   4.610
62940W        W22234  34.102  44.890  10.999
62941W        W22235  23.604  33.622   3.640
62942W        W22236  28.168  22.671  11.901
62943W        W22237   7.303  13.124  11.413
62944W        W22238   3.711  39.992  12.998
62945W        W22239  40.051  17.070   1.332
62946W        W22240  29.954  26.182  14.483
62947W        W22241  27.532  21.117   3.179
62948W        W22242  33.478  35.434  12.852
62949W        W22243   6.370   4.811   0.946
62950W        W22244   3.718  35.891   5.184
62951W        W22245   0.820  17.663  12.429
62952W        W22246  41.832   2.763  10.594
62953W        W22247   4.783   7.825   3.659
62954W        W22248  44.901   6.774   0.938
62955W        W22249   5.874  22.154  10.620
62956W        W22250  37.517  19.191   4.219
62957W        W22251  27.185  25.598   0.859
62958W        W22252   6.232  21.094   0.262
62959W        W22253   6.784  12.276  13.448
62960W        W22254  23.666  11.818  10.465
62961W        W22255  15.674  23.202   4.125
62962W        W22256  33.423   9.276  13.348
62963W        W22257  27.466   3.774  10.959
62964W        W22258  10.772   4.403   3.268
62965W        W22259  26.679  10.208  11.874
62966W        W22260  20.235  20.119   3.267
62967W        W22261  16.685  23.180  11.883
62968W        W22262   2.761   2.270  10.142
62969W        W22263  29.430  26.487   0.366
62970W        W22264   3.918  20.264   2.217
62971W        W22265  22.135  36.894   2.886
62972W        W22266   5.762  23.679   4.247
62973W        W22267   6.196  20.051  10.985
62974W        W22268   6.206  30.567   4.814
62975W        W22269  15.155  16.721  10.919
62976W        W22270  19.144  17.111   1.436
62977W        W22271  18.241   8.256   1.865
62978W        W22272   7.348  37.079   1.873
62979W        W22273  23.069   6.258  11.122
62980W        W22274  27.575  14.826  11.999
62981W        W22275  24.100  38.497   3.336
62982W        W22276  31.571   7.213  11.585
62983W        W22277  26.607  38.069   0.298
62984W        W22278  13.630  23.507   3.355
62985W        W22279  32.575   3.915   0.411
62986W        W22280   8.182  11.364   2.236
62987W        W22281   4.365  37.405   3.353
62988W        W22282  32.095   2.249  11.927
62989W        W22283  26.022  35.106   0.913
62990W        W22284  13.760  36.064   3.847
62991W        W22285   2.870  14.220  11.071
62992W        W22286  13.218  21.175  11.393
62993W        W22287   3.329   7.896   4.601
62994W        W22288   9.245  12.190   4.656
62995W        W22289  26.584  13.169   1.289
62996W        W22290  15.780  36.423   5.231
62997W        W22291  34.922  32.489   0.384
62998W        W22292   9.794  26.987  13.517
62999W        W22293  40.455  40.000  13.828
63000W        W22294  12.248  37.438   4.628
63001W        W22295   8.273  19.616   4.636
63002W        W22296  20.550  26.990  12.860
63003W        W22297  35.398  10.871  13.381
63004W        W22298   7.407  22.709   1.245
63005W        W22299  35.454  43.441  14.827
63006W        W22300   3.778  34.865   4.686
63007W        W22301   3.451  29.470  12.558
63008W        W22302  43.918   6.390   2.804
63009W        W22303  43.376  33.465  10.536
63010W        W22304   7.204  44.946   5.788
63011W        W22305  44.444  37.961  11.063
63012W        W22306  44.266  24.660   4.605
63013W        W22307  44.924  15.181  14.448
63014W        W22308  11.136  30.642  10.997
63015W        W22309  41.039  21.601   2.858
63016W        W22310  28.025  31.603   5.220
63017W        W22311  26.698  15.093   1.274
63018W        W22312  20.691  15.104   4.839
63019W        W22313  31.072   0.249   3.860
63020W        W22314   9.702  23.012  11.071
63021W        W22315  24.559  31.056   2.877
63022W        W22316  22.078  39.464  13.862
63023W        W22317  44.987  39.339  11.885
63024W        W22318  14.278  28.085   2.322
63025W        W22319  29.582  42.356  14.279
63026W        W22320  24.063  37.546  11.022
63027W        W22321  30.633  38.953   0.759
63028W        W22322  40.955  44.304   1.811
63029W        W22323   2.772  31.137  13.014
63030W        W22324  14.786  16.194   0.840
63031W        W22325  17.683  16.635   0.934
63032W        W22326  10.209  40.863   4.830
63033W        W22327  37.003  11.161   4.340
63034W        W22328   4.827  16.203  13.929
63035W        W22329  11.687  36.883   0.958
63036W        W22330  43.291   4.426  13.795
63037W        W22331  19.101   0.316   3.809
63038W        W22332   6.214  40.432  13.026
63039W        W22333   4.216   5.406   4.346
63040W        W22334  34.526  13.640  11.865
63041W        W22335   6.270  13.616   0.795
63042W        W22336  29.094   9.668   0.927
63043W        W22337   1.891  29.150   1.361
63044W        W22338   0.378  19.171   2.878
63045W        W22339   6.416  13.830  12.018
63046W        W22340  16.159   7.260   0.812
63047W        W22341  17.652  15.810   1.298
63048W        W22342  15.165   9.702   0.444
63049W        W22343  10.835  17.141  11.963
63050W        W22344   2.760   3.425   3.198
63051W        W22345  34.504  41.504  10.920
63052W        W22346  26.958  30.529  13.809
63053W        W22347   6.830  18.182  11.529
63054W        W22348   5.806  44.504   0.825
63055W        W22349  17.618  40.029   1.762
63056W        W22350  40.413  43.282   0.461
63057W        W22351   2.387  16.714  12.521
63058W        W22352  18.657   8.842  13.527
63059W        W22353  44.305  32.044  13.897
63060W        W22354  30.436   0.876  11.400
63061W        W22355   4.418  40.447  14.343
63062W        W22356  40.962  19.039  12.839
63063W        W22357  38.935   7.713  10.596
63064W        W22358   2.281  24.982  14.353
63065W        W22359  27.600  26.208   3.246
63066W        W22360   8.332  25.967   0.260
63067W        W22361  38.075  11.301  10.062
63068W        W22362  42.430  14.715   0.386
63069W        W22363  15.614   3.733  12.385
63070W        W22364  40.020  20.243   4.708
63071W        W22365  18.160  37.869   4.629
63072W        W22366  11.759  29.542   1.813
63073W        W22367  20.545  17.095  13.383
63074W        W22368  32.903  26.158  11.076
63075W        W22369  32.534  29.070   4.731
63076W        W22370   3.407  26.058   0.450
63077W        W22371  28.465  33.380  13.966
63078W        W22372   9.331   6.225  14.382
63079W        W22373  23.161  33.390   3.763
63080W        W22374  37.392  39.823   3.726
63081W        W22375  43.017   8.798  10.440
63082W        W22376   4.941   6.205  11.128
63083W        W22377  43.445   3.856  12.855
63084W        W22378  18.603  42.939   5.296
63085W        W22379  37.001  19.217  14.377
63086W        W22380  44.335  13.803  14.991
63087W        W22381  29.427   2.329  10.508
63088W        W22382  39.491  40.512   1.389
63089W        W22383  36.512  37.917   2.735
63090W        W22384  15.083  26.504   0.438
63091W        W22385  39.923  44.011   2.369
63092W        W22386  36.874  36.464  12.082
63093W        W22387  44.337  18.772   1.380
63094W        W22388  17.570  26.700   3.658
63095W        W22389  37.914  40.887  14.290
63096W        W22390  26.494  20.226   1.731
63097W        W22391  32.115  16.781  10.430
63098W        W22392  35.001  38.397  10.936
63099W        W22393  29.078  34.501  11.468
63100W        W22394   2.322  25.479  10.569
63101W        W22395   1.257  42.314  14.479
63102W        W22396  32.136   4.206   1.256
63103W        W22397  33.897  22.017   0.335
63104W        W22398  41.475   1.304   9.486
63105W        W22399  34.092  20.198   1.830
63106W        W22400  35.448   6.823   2.851
63107W        W22401  13.272   0.837   4.703
63108W        W22402  14.736  30.007  11.552
63109W        W22403  37.010   7.902  14.955
63110W        W22404   5.232   6.302   1.269
63111W        W22405   4.280  12.318  14.290
63112W        W22406  12.199   8.381   3.820
63113W        W22407  28.979   4.818  14.451
63114W        W22408  36.918   2.734   2.390
63115W        W22409  42.013  11.680   2.875
63116W        W22410  26.982  37.025  14.440
63117W        W22411  11.162  12.644  12.395
63118W        W22412  25.037  37.498  10.156
63119W        W22413  28.480  32.600  13.469
63120W        W22414  25.643  44.888   1.932
63121W        W22415  41.393  23.035  12.491
63122W        W22416  39.003  34.465  13.004
63123W        W22417  16.149  15.642  12.932
63124W        W22418   0.956  42.910  11.953
63125W        W22419   4.937  15.654  14.361
63126W        W22420  10.384  28.451  10.902
63127W        W22421  37.862  11.633   4.246
63128W        W22422  27.664  20.650  13.528
63129W        W22423  42.443  39.493   0.743
63130W        W22424  14.689  17.285   0.360
63131W        W22425  37.484  24.068  10.572
63132W        W22426  21.225  21.614  14.475
63133W        W22427   1.296  37.060  12.573
63134W        W22428  14.186  34.474   2.328
63135W        W22429  27.968  16.230  13.918
63136W        W22430  27.089  22.701   0.340
63137W        W22431  24.595  28.991  12.943
63138W        W22432  14.787  32.404   4.693
63139W        W22433  44.293  13.708   0.412
63140W        W22434  31.520  40.920  11.439
63141W        W22435   1.843   0.389  12.575
63142W        W22436  40.415  42.854  14.384
63143W        W22437  44.393  15.588  11.395
63144W        W22438  24.521  29.550   4.839
63145W        W22439  36.054   4.788   3.291
63146W        W22440  12.766  18.666   1.709
63147W        W22441  38.398  29.115   2.215
63148W        W22442  11.753  28.102  13.859
63149W        W22443  20.179  16.577   2.740
63150W        W22444  19.584  27.124  13.900
63151W        W22445  21.533  19.172  12.984
63152W        W22446   5.332   9.389  12.351
63153W        W22447  37.577  27.459  13.823
63154W        W22448  14.115  41.818  11.126
63155W        W22449  20.757   1.866   2.281
63156W        W22450  30.634  15.583  12.866
63157W        W22451  12.257  10.702  10.100
63158W        W22452   5.405  35.930  10.561
63159W        W22453  42.958  11.144   0.951
63160W        W22454  15.308  10.290   2.669
63161W        W22455   1.360  35.930  12.845
63162W        W22456  11.701   1.863  11.432
63163W        W22457  28.148   5.290  12.010
63164W        W22458  25.655  18.591  10.964
63165W        W22459  16.262  20.686  14.814
63166W        W22460  17.691  38.505  10.639
63167W        W22461  25.114  11.201   2.700
63168W        W22462  27.102  42.505   2.731
63169W        W22463   1.469  18.282  13.355
63170W        W22464   6.316  34.999   3.235
63171W        W22465  23.503  11.366   2.384
63172W        W22466  27.487  24.483   3.735
63173W        W22467  35.967  31.138   2.890
63174W        W22468   5.318  11.818  11.556
63175W        W22469  39.844  15.148  11.461
63176W        W22470  42.848  38.983   4.119
63177W        W22471  32.117  10.159   3.651
63178W        W22472  18.261  38.401   3.815
63179W        W22473  23.720  16.230  11.561
63180W        W22474  32.038  23.020   0.877
63181W        W22475  11.331   3.860  11.071
63182W        W22476   0.391  17.692   0.449
63183W        W22477  12.743  24.153   1.233
63184W        W22478  40.447  39.398   3.324
63185W        W22479  35.388  38.038   4.216
63186W        W22480  36.534  36.050  11.893
63187W        W22481  42.887  30.041  12.423
63188W        W22482   8.795  19.749   3.272
63189W        W22483   7.408  26.984  14.767
63190W        W22484  33.968   1.445   3.729
63191W        W22485  21.622  42.427   2.206
63192W        W22486  44.988  17.613  13.006
63193W        W22487  41.913  23.186  11.122
63194W        W22488  34.581  38.880   4.196
63195W        W22489  27.981   1.434  13.534
63196W        W22490  33.587  27.945   1.792
63197W        W22491  30.059  19.154  10.536
63198W        W22492  13.798   4.811  10.499
63199W        W22493  17.123  22.702  11.026
63200W        W22494  40.366  34.059   2.832
63201W        W22495  31.555   8.865  11.518
63202W        W22496  37.853  34.544   1.912
63203W        W22497  23.501  35.364   0.891
63204W        W22498  44.951  39.032  11.374
63205W        W22499  31.589  38.966   0.357
63206W        W22500  27.056  40.351  10.594
63207W        W22501  16.585   7.741   1.221
63208W        W22502  39.825  35.576   3.288
63209W        W22503   1.328  14.238   0.409
63210W        W22504  28.994   5.864   4.331
63211W        W22505  25.987   7.845  11.566
63212W        W22506  31.105  35.971  10.624
63213W        W22507  38.883  17.767   2.259
63214W        W22508  44.961  24.986   3.852
63215W        W22509  14.733  12.643   0.912
63216W        W22510  31.507  39.943   3.630
63217W        W22511  26.176   6.719  14.306
63218W        W22512  39.411  41.818  10.927
63219W        W22513  10.382  18.244  12.901
63220W        W22514  36.056  30.133   1.902
63221W        W22515  39.036  22.084   3.678
63222W        W22516   2.393   9.717  14.352
63223W        W22517  32.572  26.141   3.256
63224W        W22518   1.256  29.522   4.327
63225W        W22519  41.388  32.573  10.514
63226W        W22520  25.565  23.231   0.260
63227W        W22521  21.059  42.934  12.538
63228W        W22522  27.586  22.511   3.844
63229W        W22523  13.766  25.613  11.945
63230W        W22524  22.637  26.507  11.379
63231W        W22525  21.557  36.916   4.201
63232W        W22526  18.287  13.329   1.845
63233W        W22527  36.356   5.368   0.731
63234W        W22528  29.137  39.521   0.851
63235W        W22529  28.500  35.529  10.577
63236W        W22530  22.188  26.179   2.758
63237W        W22531  23.647  19.112   3.835
63238W        W22532  43.318  22.728   3.655
63239W        W22533   9.152  31.429  12.062
63240W        W22534  41.316   9.739  11.549
63241W        W22535  19.053  25.493   2.314
63242W        W22536  10.674  10.182   1.763
63243W        W22537  40.319  44.360   0.893
63244W        W22538   8.239  19.233  10.990
63245W        W22539  33.054  20.206  11.533
63246W        W22540  37.435  30.082  10.930
63247W        W22541   7.346  22.724   1.894
63248W        W22542  31.003  10.872   1.342
63249W        W22543   4.249  15.161   0.792
63250W        W22544  11.706   1.290   3.761
63251W        W22545  37.867  21.112  11.030
63252W        W22546  28.985  33.900  12.966
63253W        W22547  40.384   4.877  11.935
63254W        W22548  28.581   8.760   4.712
63255W        W22549  41.513  39.549   4.673
63256W        W22550  36.848  38.020   1.317
63257W        W22551  13.244  44.283  14.999
63258W        W22552  23.083  22.639  11.442
63259W        W22553  39.413  11.155  11.017
63260W        W22554   6.677  36.425   3.281
63261W        W22555  21.171   8.312  11.032
63262W        W22556  27.007  41.970   3.177
63263W        W22557  35.537   8.395  10.064
63264W        W22558  32.969  35.000  10.461
63265W        W22559  18.735  16.116   4.126
63266W        W22560   8.289  20.200  11.434
63267W        W22561  18.115  22.522  13.521
63268W        W22562  11.745  22.704   5.107
63269W        W22563  38.463  33.543   4.610
63270W        W22564  25.021  36.057   0.449
63271W        W22565  39.322  32.579  11.446
63272W        W22566  43.341  28.082  13.984
63273W        W22567  37.862   2.324   3.817
63274W        W22568  34.934   1.880  13.321
63275W        W22569   1.336  29.174   1.801
63276W        W22570  24.530  28.594  12.433
63277W        W22571  38.457  19.220  13.385
63278W        W22572   7.680  10.221  14.347
63279W        W22573  35.401   4.254  14.926
63280W        W22574  21.084  18.059   0.257
63281W        W22575  28.465  14.255  12.942
63282W        W22576  27.125  17.758   1.258
63283W        W22577   7.742  30.050   3.347
63284W        W22578  33.401   1.803   1.876
63285W        W22579  39.479  20.678  12.870
63286W        W22580   4.926   4.261   2.233
63287W        W22581  28.472  22.550   3.359
63288W        W22582   6.301  38.909   1.905
63289W        W22583  41.941  43.876  12.066
63290W        W22584  37.448  17.282  13.506
63291W        W22585   2.271   8.364   1.927
63292W        W22586  36.043  10.728   1.384
63293W        W22587  29.010  26.627  11.858
63294W        W22588   0.988  38.501   2.752
63295W        W22589  21.097  29.574  10.552
63296W        W22590  19.663  22.620  13.360
63297W        W22591  31.480  11.336   3.263
63298W        W22592  17.700   8.244   3.380
63299W        W22593  11.207  20.087  14.402
63300W        W22594   0.788  31.454   4.626
63301W        W22595   2.240   3.734  14.021
63302W        W22596  42.795  43.921   4.209
63303W        W22597   2.249   0.788   2.402
63304W        W22598  30.028  36.020  14.810
63305W        W22599  26.982  11.630  10.157
63306W        W22600  27.679  20.590  13.033
63307W        W22601  41.508  42.991  13.351
63308W        W22602  11.192  38.362  10.965
63309W        W22603  31.056  30.992   4.128
63310W        W22604  27.607  22.057   0.423
63311W        W22605  31.560  42.982  10.477
63312W        W22606  30.078  23.724  14.946
63313W        W22607  20.172  19.056  11.898
63314W        W22608   4.722  23.608   1.778
63315W        W22609  19.238   3.768   0.758
63316W        W22610  36.069  14.331  13.350
63317W        W22611  44.498  41.968  11.025
63318W        W22612   8.795  36.584   5.126
63319W        W22613   6.714  36.058  12.940
63320W        W22614   0.412  23.071  12.031
63321W        W22615  19.535  23.065  11.517
63322W        W22616  13.764  16.286   2.336
63323W        W22617  38.534  21.089  12.060
63324W        W22618  16.086  34.492  13.048
63325W        W22619   1.381   1.754  12.571
63326W        W22620  22.737  20.253  14.465
63327W        W22621  11.247  17.226   1.216
63328W        W22622   4.372  19.058   1.927
63329W        W22623  42.893   6.225  11.603
63330W        W22624   2.904  17.305  11.542
63331W        W22625  19.054  33.530  11.567
63332W        W22626   9.863  14.308  11.916
63333W        W22627   2.273  25.043  10.050
63334W        W22628  26.615   7.787   1.266
63335W        W22629   6.256   9.699   3.836
63336W        W22630   3.910  42.295  13.442
63337W        W22631   6.683  22.593   5.248
63338W        W22632  38.551  32.931  11.952
63339W        W22633  38.384  15.644  13.892
63340W        W22634  42.004  17.098   2.196
63341W        W22635  25.051   4.289   1.249
63342W        W22636   0.260  29.166   2.234
63343W        W22637  12.239  11.209  13.807
63344W        W22638   2.878  24.490   1.223
63345W        W22639  38.029  20.231   1.363
63346W        W22640   1.888  41.011  11.872
63347W        W22641  27.639   6.271  11.453
63348W        W22642  25.120  23.628   1.415
63349W        W22643  32.418  40.812  13.980
63350W        W22644   9.276  17.288   4.703
63351W        W22645  23.531  18.068  14.380
63352W        W22646   4.228  44.842  13.523
63353W        W22647  36.457  29.629   0.418
63354W        W22648  35.579  21.701   2.223
63355W        W22649  22.180   9.354  14.339
63356W        W22650  11.277  43.917  14.430
63357W        W22651  17.793  37.015  12.017
63358W        W22652  38.953  26.456  12.379
63359W        W22653   8.380   1.788   1.916
63360W        W22654  40.828  37.936  12.938
63361W        W22655  19.096   9.162   1.235
63362W        W22656  20.117  11.150   2.217
63363W        W22657  32.006   6.303  11.012
63364W        W22658   3.380  38.468  11.499
63365W        W22659  31.631  14.634   0.954
63366W        W22660   8.268  35.487  12.354
63367W        W22661  34.953   4.942  10.159
63368W        W22662  34.874   0.904   4.659
63369W        W22663  42.973  19.659  14.829
63370W        W22664  14.160  28.524   0.368
63371W        W22665  33.119  20.688  11.042
63372W        W22666  11.774  20.646   4.615
63373W        W22667  37.541  24.563   3.254
63374W        W22668   3.404  20.570   4.746
63375W        W22669   6.863  12.162  13.997
63376W        W22670  42.416   0.780   0.426
63377W        W22671  29.440  40.937   0.469
63378W        W22672  21.166  34.965  12.380
63379W        W22673  25.568  41.937   0.914
63380W        W22674  26.637  30.069   0.879
63381W        W22675   3.852  15.260   0.798
63382W        W22676  10.703  24.144  14.974
63383W        W22677  30.429   2.866   0.781
63384W        W22678   7.222  34.922   2.351
63385W        W22679  25.077   0.291   3.368
63386W        W22680  32.984  44.334  12.558
63387W        W22681  19.739  13.623  14.506
63388W        W22682  32.886  16.102   4.822
63389W        W22683   1.748   8.720   1.308
63390W        W22684  18.100   3.413  14.006
63391W        W22685  39.837  34.912  14.909
63392W        W22686  32.391   2.870  14.999
63393W        W22687  43.441  37.938   1.448
63394W        W22688  15.201  12.312  11.595
63395W        W22689  19.634   6.305  12.036
63396W        W22690   9.352  42.929  13.487
63397W        W22691  22.223  14.629  11.486
63398W        W22692  35.432  14.600  14.785
63399W        W22693  25.981   8.392   2.821
63400W        W22694  21.108  10.834  14.336
63401W        W22695  38.880  31.566   4.714
63402W        W22696  39.449  15.607   3.673
63403W        W22697  29.479  21.071   0.378
63404W        W22698  38.510  12.778   2.415
63405W        W22699  16.810  31.501   1.839
63406W        W22700  29.935  33.031   1.214
63407W        W22701   8.180  35.498   3.272
63408W        W22702   1.840  32.511   1.210
63409W        W22703  38.021  21.689   2.866
63410W        W22704   6.857  26.457  12.468
63411W        W22705  26.657  44.963  13.909
63412W        W22706  12.714   2.965   4.672
63413W        W22707  26.466  13.290   2.198
63414W        W22708  22.633  17.593   2.220
63415W        W22709   1.457   1.736  14.295
63416W        W22710  39.000  38.475  10.578
63417W        W22711   2.911  11.288  12.531
63418W        W22712  24.111  30.996  13.841
63419W        W22713  16.262  20.193   2.265
63420W        W22714  29.147  39.063   3.344
63421W        W22715  27.168  29.617   2.666
63422W        W22716  22.587   2.408   2.255
63423W        W22717  26.002  17.641   2.715
63424W        W22718  18.133  12.661   0.905
63425W        W22719  37.581   9.192   4.294
63426W        W22720  36.567   0.847   2.697
63427W        W22721  39.481  18.089  14.339
63428W        W22722  14.692  40.358  11.520
63429W        W22723  44.355  16.195  14.479
63430W        W22724   5.911  30.486   2.324
63431W        W22725  19.732   5.750   1.760
63432W        W22726  42.359   8.715   1.394
63433W        W22727  43.796   5.745   4.209
63434W        W22728  40.394  16.214   4.156
63435W        W22729  25.057   2.859   0.320
63436W        W22730  18.751   4.285   3.681
63437W        W22731   9.168   0.301  12.958
63438W        W22732  18.256  29.589   2.187
63439W        W22733  12.203  39.553   1.259
63440W        W22734  10.726  12.354   4.719
63441W        W22735  14.262  14.707   2.235
63442W        W22736  42.387  35.904   1.703
63443W        W22737  44.428   6.702   3.846
63444W        W22738   0.911  16.278   0.438
63445W        W22739  18.657  28.000   1.418
63446W        W22740   4.929  15.744   4.201
63447W        W22741  21.562  11.272  12.565
63448W        W22742  28.075   5.920   2.348
63449W        W22743  18.679  27.970   2.802
63450W        W22744  29.022   9.792   2.369
63451W        W22745  42.839  34.989  14.986
63452W        W22746  23.707  29.445   1.266
63453W        W22747  42.405   6.866  13.368
63454W        W22748  40.989  19.215  14.387
63455W        W22749   1.483  13.185  12.920
63456W        W22750  11.161  25.520   0.771
63457W        W22751   3.304   0.915  10.125
63458W        W22752  13.761   2.299  11.888
63459W        W22753  36.905  11.311  14.995
63460W        W22754  31.093  38.844  14.293
63461W        W22755   5.688  32.938   0.798
63462W        W22756  43.509   6.230   4.611
63463W        W22757  15.578  41.831   2.822
63464W        W22758  28.059  32.111  13.986
63465W        W22759  42.862  44.898  10.600
63466W        W22760  36.575  11.790  12.037
63467W        W22761   4.882   7.795  11.425
63468W        W22762   1.413  34.612   1.899
63469W        W22763  33.386  37.849   4.728
63470W        W22764  35.948  11.818  12.488
63471W        W22765  15.254   7.765   1.822
63472W        W22766  11.824  32.065  12.872
63473W        W22767  15.103  30.502   1.320
63474W        W22768   8.340   9.348  11.397
63475W        W22769  44.403  20.747   4.309
63476W        W22770   1.254   6.357  11.092
63477W        W22771  28.092  21.124  11.438
63478W        W22772  44.489   5.900  11.523
63479W        W22773  12.798  16.699   4.786
63480W        W22774  18.758  29.088   3.716
63481W        W22775   0.359  34.018  13.409
63482W        W22776   1.482  16.122  10.614
63483W        W22777  41.898  21.064  12.449
63484W        W22778  22.690  42.479  13.844
63485W        W22779  15.750  22.676   3.147
63486W        W22780  34.448  37.953  14.997
63487W        W22781   0.494  26.172  14.324
63488W        W22782  20.183  29.629   2.387
63489W        W22783  38.864  15.664  11.968
63490W        W22784  39.396   0.451   1.287
63491W        W22785   3.232  40.907  12.087
63492W        W22786  12.206  25.594  11.439
63493W        W22787  21.678   9.192  13.922
63494W        W22788  14.094  33.972   2.240
63495W        W22789  27.105  26.011   4.321
63496W        W22790   2.784  23.492  11.423
63497W        W22791  21.585   4.856   2.869
63498W        W22792  11.737  31.518   2.888
63499W        W22793   6.735  29.440   2.418
63500W        W22794  11.637  32.589   4.232
63501W        W22795  39.326  34.072   9.494
63502W        W22796  38.932  31.020   3.645
63503W        W22797   9.217  25.632  10.426
63504W        W22798  36.411  41.829  12.024
63505W        W22799  23.667  29.950  12.846
63506W        W22800  30.060  29.150   2.775
63507W        W22801  23.089   5.348  13.368
63508W        W22802   4.767  28.153  13.463
63509W        W22803   9.213  10.761   1.914
63510W        W22804   1.386  27.523  10.542
63511W        W22805   6.851  12.776  13.438
63512W        W22806   1.468  34.462  13.453
63513W        W22807   8.824   9.352   5.096
63514W        W22808  13.328  38.393   3.667
63515W        W22809  33.503  17.231  14.477
63516W        W22810  30.654   3.918   3.844
63517W        W22811  41.361  26.467   3.240
63518W        W22812   8.762  17.595  11.529
63519W        W22813  44.925   6.190   2.849
63520W        W22814  16.761  28.170  11.556
63521W        W22815  25.107  39.479   3.212
63522W        W22816  38.360   7.382  13.504
63523W        W22817  19.093   7.349  13.341
63524W        W22818  44.857  39.970   4.652
63525W        W22819  13.331  33.474  13.377
63526W        W22820   9.875  31.568  14.446
63527W        W22821   0.774  24.631   2.853
63528W        W22822  22.598  33.044   3.839
63529W        W22823  20.148  34.507  12.983
63530W        W22824  14.258  33.579  13.370
63531W        W22825  32.099  15.759  12.935
63532W        W22826  25.677  23.540   0.474
63533W        W22827  37.944  10.340   0.949
63534W        W22828   8.403  28.470   4.700
63535W        W22829  29.956  37.086  14.393
63536W        W22830   8.799  16.195   4.753
63537W        W22831   9.866  39.023   4.701
63538W        W22832   8.353  36.417  12.538
63539W        W22833  38.969  19.575   1.730
63540W        W22834  29.969   6.311   3.206
63541W        W22835  36.482  28.115   1.419
63542W        W22836  15.744  37.940   4.610
63543W        W22837  20.190  26.518   2.848
63544W        W22838  25.531  12.679  11.990
63545W        W22839  19.712   9.235   3.761
63546W        W22840  13.788  16.082  12.559
63547W        W22841  30.451  31.910   2.369
63548W        W22842  43.376  27.996   1.263
63549W        W22843  16.078  39.367   2.260
63550W        W22844  24.517  40.869   0.439
63551W        W22845   8.204   1.246   0.951
63552W        W22846  44.271  26.145   2.791
63553W        W22847  24.156  43.324  11.603
63554W        W22848  41.471  20.238  12.361
63555W        W22849  36.872  15.286  12.908
63556W        W22850  42.977  22.678  11.426
63557W        W22851  35.412  18.058  11.110
63558W        W22852  34.992   2.413   3.816
63559W        W22853  35.384  10.146  14.791
63560W        W22854  27.510   4.335   2.678
63561W        W22855  31.977  38.853  10.020
63562W        W22856  28.032  14.222   3.257
63563W        W22857  33.109  33.974   4.613
63564W        W22858   1.319  32.600   0.416
63565W        W22859   3.745  34.099  12.365
63566W        W22860   7.806   7.237  14.982
63567W        W22861   0.458  27.534   4.202
63568W        W22862  40.374  13.639  11.431
63569W        W22863   9.326   4.833   2.316
63570W        W22864  17.652  33.904   0.256
63571W        W22865  38.042  44.989  14.498
63572W        W22866  26.964  14.303   2.802
63573W        W22867   5.894  15.318  13.837
63574W        W22868  22.614  38.928   5.291
63575W        W22869  14.803  24.669  14.384
63576W        W22870   8.163  10.212   2.767
63577W        W22871  38.853  14.112   5.275
63578W        W22872  20.535  38.332  13.463
63579W        W22873   2.801  10.270  13.966
63580W        W22874   0.862   0.344  13.010
63581W        W22875  26.967  25.063   3.284
63582W        W22876  19.773  18.690   1.809
63583W        W22877   1.905  13.730  10.506
63584W        W22878  26.054   4.869  12.574
63585W        W22879  23.064   7.275  11.123
63586W        W22880  19.217  31.600  14.317
63587W        W22881  13.224  22.053   2.360
63588W        W22882  44.297  22.544  11.093
63589W        W22883  12.288  38.357  12.943
63590W        W22884  44.851   6.894  14.907
63591W        W22885  23.502   9.184  11.451
63592W        W22886  35.407  26.544   0.883
63593W        W22887  18.724  10.646   1.705
63594W        W22888   4.274   5.237   4.622
63595W        W22889  39.905  41.480   2.209
63596W        W22890   7.691  36.876   2.221
63597W        W22891  43.447  25.623   4.669
63598W        W22892   5.240  25.512   0.817
63599W        W22893   9.726   3.897  11.449
63600W        W22894  19.596   5.818   0.829
63601W        W22895  17.252  38.455  10.904
63602W        W22896   7.240   1.264  11.026
63603W        W22897  38.396  31.587  12.497
63604W        W22898  33.073  24.690  13.908
63605W        W22899  43.294  36.444  11.602
63606W        W22900   6.220  18.168  11.930
63607W        W22901  44.772   3.846   1.784
63608W        W22902  26.619  43.767  11.057
63609W        W22903  23.990  27.940  13.923
63610W        W22904  18.245  35.493   3.355
63611W        W22905   2.846  25.968   3.366
63612W        W22906  12.829  11.667   0.849
63613W        W22907  13.157  17.726  10.487
63614W        W22908  38.382  19.174   3.759
63615W        W22909   2.791  26.671   3.286
63616W        W22910  42.845  23.046  13.959
63617W        W22911  18.207   9.712   3.271
63618W        W22912  33.439  36.881   4.314
63619W        W22913  29.123  19.261  11.406
63620W        W22914  26.617   4.446  12.523
63621W        W22915  30.029  22.681   0.959
63622W        W22916  13.606   0.848  14.379
63623W        W22917  21.140  18.690  10.536
63624W        W22918  15.704  24.103   2.837
63625W        W22919  10.356  43.803  10.433
63626W        W22920  40.451  24.044   0.401
63627W        W22921  38.843  43.440  10.561
63628W        W22922  42.003  39.894  10.924
63629W        W22923  28.043  43.771   1.238
63630W        W22924  17.307  17.561  13.426
63631W        W22925  13.301  35.369  10.600
63632W        W22926  12.688  22.231   0.820
63633W        W22927  16.074  39.836   2.336
63634W        W22928  34.525   6.194   2.757
63635W        W22929  26.578  43.444  13.406
63636W        W22930  12.776  37.528  15.000
63637W        W22931  28.974  19.188  12.075
63638W        W22932  12.787  34.413  11.441
63639W        W22933  39.556  25.546  10.508
63640W        W22934   1.877  33.610  10.505
63641W        W22935  26.179  39.994  10.910
63642W        W22936   6.842  28.029   1.398
63643W        W22937  34.506  20.639  10.489
63644W        W22938  23.505  31.551   0.451
63645W        W22939  18.218  30.514   2.717
63646W        W22940  21.738  10.224   4.243
63647W        W22941  34.547  17.219  10.599
63648W        W22942  25.111  20.683   3.691
63649W        W22943  35.391  14.219   0.855
63650W        W22944   1.743  42.385  14.908
63651W        W22945  24.551  34.521  11.518
63652W        W22946  35.480   0.881  12.459
63653W        W22947  29.667  23.054   2.229
63654W        W22948  14.657  42.443   3.274
63655W        W22949  39.888  39.869  12.070
63656W        W22950   6.908  14.727  13.373
63657W        W22951  24.536  19.082   1.778
63658W        W22952  36.930  23.679  14.773
63659W        W22953  19.558   7.881   4.235
63660W        W22954  28.657  24.547  11.374
63661W        W22955  24.029   3.798   3.843
63662W        W22956  13.295  30.952  13.950
63663W        W22957  19.269  39.944   1.702
63664W        W22958  17.764   0.836  11.913
63665W        W22959  28.560  24.032  14.957
63666W        W22960   8.321  29.070   4.646
63667W        W22961  40.447  19.274  12.427
63668W        W22962  27.181  32.483   3.631
63669W        W22963   6.766   6.813   0.385
63670W        W22964   1.908  20.040   4.802
63671W        W22965  32.464   0.961   0.482
63672W        W22966  17.647   2.736   2.786
63673W        W22967  31.614  30.138  10.411
63674W        W22968  42.859  26.107   4.787
63675W        W22969  26.953  43.913   4.670
63676W        W22970  17.095   2.292  10.571
63677W        W22971  44.262   0.955   1.909
63678W        W22972  26.541  21.727  11.881
63679W        W22973  41.387  24.139  10.465
63680W        W22974  15.733  16.796   1.326
63681W        W22975   8.294  17.300  11.896
63682W        W22976  18.241  28.176   0.354
63683W        W22977   2.918  23.667   4.211
63684W        W22978  14.685  34.395  10.639
63685W        W22979  36.901  29.986  11.507
63686W        W22980  22.023  41.997  10.580
63687W        W22981  41.953  20.107   0.936
63688W        W22982  31.474  32.474  11.917
63689W        W22983   8.741  15.254   3.150
63690W        W22984  37.484  40.949   0.327
63691W        W22985  19.639  36.426   0.879
63692W        W22986  19.774  27.651   1.434
63693W        W22987  25.669  35.565   3.159
63694W        W22988  10.838   1.434  10.485
63695W        W22989  11.342  44.293   2.728
63696W        W22990  42.912  22.123   2.713
63697W        W22991  26.686  40.387  10.438
63698W        W22992  10.311  40.848   2.204
63699W        W22993  44.297  12.685   4.322
63700W        W22994  38.841  15.262   4.347
63701W        W22995  26.193  28.039  12.509
63702W        W22996  15.651  31.034   5.112
63703W        W22997  44.455  34.409  13.927
63704W        W22998  26.586  29.437  12.538
63705W        W22999  27.595  17.578   2.399
63706W        W23000  13.131  31.454   2.742
63707W        W23001  41.851  40.452   2.328
63708W        W23002  37.505  32.066  10.056
63709W        W23003   5.298   7.326   2.224
63710W        W23004  38.363  19.089   4.667
63711W        W23005  38.991  26.461   1.705
63712W        W23006  28.657  15.721   3.158
63713W        W23007  39.495   7.279   0.859
63714W        W23008  32.953  10.697   3.168
63715W        W23009   4.808  21.220   1.237
63716W        W23010  34.065   6.718   1.425
63717W        W23011  13.748  12.857  14.385
63718W        W23012  40.006  11.259   4.798
63719W        W23013  10.798  12.739  12.081
63720W        W23014  33.046  19.250  14.763
63721W        W23015  35.000  25.707   1.261
63722W        W23016  12.218  30.988  11.586
63723W        W23017  30.977  18.783   1.347
63724W        W23018  23.707  14.164  13.438
63725W        W23019  21.259  33.897   4.817
63726W        W23020  43.874  36.427  14.467
63727W        W23021  17.785  44.366  12.513
63728W        W23022  34.982  30.956  13.528
63729W        W23023  31.964   2.749  12.877
63730W        W23024  27.166  44.489   4.148
63731W        W23025  14.220   1.338   3.319
63732W        W23026  43.944  21.527   4.300
63733W        W23027  30.064  25.626  11.864
63734W        W23028  21.022  43.773   4.644
63735W        W23029  41.986  33.428  13.430
63736W        W23030   4.737  34.960   1.840
63737W        W23031  22.212  43.905  13.849
63738W        W23032  23.657   6.688  12.451
63739W        W23033  40.015   3.444  10.904
63740W        W23034  24.556  21.551  13.444
63741W        W23035  44.870   5.871  12.383
63742W        W23036  35.481  27.171  14.397
63743W        W23037  26.162  20.758  13.365
63744W        W23038   0.492   0.854   0.468
63745W        W23039   5.227  41.342  14.995
63746W        W23040   5.920  36.892  10.522
63747W        W23041   8.693   4.731  12.580
63748W        W23042   3.866  24.662  14.845
63749W        W23043  20.075   0.886   4.182
63750W        W23044  38.922  19.133  14.461
63751W        W23045   1.733  41.829   2.179
63752W        W23046  28.650  33.954   4.776
63753W        W23047  42.309   6.736  10.595
63754W        W23048  32.452   6.286  12.094
63755W        W23049   4.242   3.451  14.993
63756W        W23050  32.595  14.805   0.747
63757W        W23051  35.932  43.270  12.441
63758W        W23052   0.880  12.826  12.467
63759W        W23053  31.950   1.829   0.312
63760W        W23054  20.578  38.057   1.372
63761W        W23055  30.093  27.138  11.504
63762W        W23056   7.672  41.815  13.826
63763W        W23057  26.608  11.830  10.644
63764W        W23058  16.081  31.555  13.546
63765W        W23059  13.117  41.434   4.723
63766W        W23060   3.406  37.461  12.956
63767W        W23061  10.351  33.883   3.246
63768W        W23062  44.856  24.987   0.837
63769W        W23063  33.884  23.166  12.351
63770W        W23064  27.119  25.159   0.331
63771W        W23065   3.222  17.140   2.242
63772W        W23066  28.122  32.982   3.334
63773W        W23067  43.454  19.676  14.464
63774W        W23068  38.534  32.501  10.593
63775W        W23069  23.083  41.470   0.729
63776W        W23070  29.086   9.815  14.771
63777W        W23071  23.578   3.794  11.907
63778W        W23072   8.211  23.691   2.355
63779W        W23073  37.935  33.089   4.733
63780W        W23074   6.263   5.815  10.496
63781W        W23075  23.112  27.655  12.007
63782W        W23076  44.505  40.386  10.449
63783W        W23077   7.837  22.712  11.980
63784W        W23078  38.005  28.530   2.759
63785W        W23079  32.494  15.149   2.268
63786W        W23080  14.687  32.121  11.876
63787W        W23081   2.808  25.051   0.265
63788W        W23082  39.819  11.219   4.284
63789W        W23083  43.470  37.986   4.633
63790W        W23084  25.114  22.660   1.280
63791W        W23085  18.186  27.547   4.349
63792W        W23086  31.570  27.670  12.833
63793W        W23087   9.254   7.867  13.316
63794W        W23088  19.555  37.406   2.776
63795W        W23089   7.716  11.349  14.372
63796W        W23090   7.699   4.361  10.409
63797W        W23091   5.877  16.702  10.568
63798W        W23092   3.425  23.510   1.405
63799W        W23093  43.982   3.809   2.693
63800W        W23094   0.423   9.193  14.967
63801W        W23095  40.843  36.997   0.920
63802W        W23096  22.253   9.727  14.342
63803W        W23097  25.153  35.874  12.038
63804W        W23098   0.762  30.646  11.378
63805W        W23099  16.779  29.989   3.727
63806W        W23100  38.467  35.908   0.247
63807W        W23101  43.020  37.007  10.561
63808W        W23102  15.820  26.456  11.968
63809W        W23103  26.654  42.511   1.714
63810W        W23104  40.347  26.679   3.374
63811W        W23105   1.461   8.216   3.205
63812W        W23106  36.859  36.050  12.897
63813W        W23107   4.350  35.381   4.762
63814W        W23108   8.747  30.949   3.190
63815W        W23109  43.416  36.500   2.663
63816W        W23110  41.467   8.244  12.395
63817W        W23111  42.494  35.517   4.782
63818W        W23112  18.592  32.028  14.289
63819W        W23113  27.619  37.409  14.349
63820W        W23114  41.468  18.571  10.963
63821W        W23115  13.781  32.450  12.928
63822W        W23116  15.711  26.994  14.002
63823W        W23117  16.301  43.976  12.548
63824W        W23118  16.101  17.221   3.728
63825W        W23119   1.907  38.557  10.518
63826W        W23120  16.772   7.908  12.515
63827W        W23121  43.975  18.100   1.275
63828W        W23122  15.767  24.055  11.858
63829W        W23123  12.208  26.979   0.360
63830W        W23124   8.343  21.632  14.496
63831W        W23125  30.643  40.481  11.958
63832W        W23126   1.865  38.966   0.906
63833W        W23127   3.326  36.996   4.240
63834W        W23128  42.876  38.000   4.159
63835W        W23129  33.588   9.775  12.943
63836W        W23130  39.960  34.010   0.940
63837W        W23131  26.138  25.998  12.368
63838W        W23132  38.069  40.439  13.473
63839W        W23133  15.606  39.942  11.524
63840W        W23134  10.776  17.665  14.506
63841W        W23135  36.347  24.712   2.284
63842W        W23136   4.856  24.500  10.640
63843W        W23137   4.359   8.244  14.906
63844W        W23138  23.735  33.095   1.365
63845W        W23139   2.471  35.091  12.446
63846W        W23140  44.501   1.476  14.312
63847W        W23141  20.673  39.456   2.902
63848W        W23142  29.048  27.067  13.912
63849W        W23143  11.357  30.434   5.172
63850W        W23144  16.316  33.084  12.353
63851W        W23145   4.343  37.852  13.956
63852W        W23146   8.776  37.981  11.886
63853W        W23147   5.193  32.017   0.766
63854W        W23148  40.021  11.627   3.173
63855W        W23149  17.066   3.361   3.147
63856W        W23150  35.884  41.995  12.419
63857W        W23151  37.506  36.861  13.019
63858W        W23152  20.260   8.890  11.387
63859W        W23153   6.841  37.414  11.556
63860W        W23154   6.710  14.318   2.381
63861W        W23155  15.585  29.992   2.208
63862W        W23156  29.165  14.115   1.333
63863W        W23157  35.980  42.006  12.009
63864W        W23158  38.985   5.904   2.301
63865W        W23159  22.132   4.230   0.417
63866W        W23160  20.138  27.557   3.202
63867W        W23161  24.629  12.271  10.541
63868W        W23162  19.731  41.988   2.876
63869W        W23163  29.641  39.971   0.457
63870W        W23164   4.214  28.949   0.253
63871W        W23165   0.478  21.520  12.386
63872W        W23166   2.465  30.909   4.666
63873W        W23167  34.873  15.714   0.861
63874W        W23168  25.065  36.025   4.263
63875W        W23169  13.304  14.785   1.273
63876W        W23170  29.655  10.841  14.499
63877W        W23171   8.728  28.673  12.457
63878W        W23172   7.220  15.721   3.824
63879W        W23173  15.722   8.405  10.528
63880W        W23174  19.673  12.782   0.433
63881W        W23175   9.363  20.251  13.481
63882W        W23176  42.453  15.156   2.339
63883W        W23177   6.772  16.686   0.849
63884W        W23178  29.517  19.717  13.498
63885W        W23179  43.478  28.150   1.795
63886W        W23180  20.044  16.262   2.734
63887W        W23181  36.970  24.555  11.425
63888W        W23182   6.705   7.852  11.448
63889W        W23183  16.159  19.195  14.428
63890W        W23184  29.563  14.147  13.815
63891W        W23185  20.531  15.685  13.054
63892W        W23186  27.961  40.419   0.454
63893W        W23187  35.417  37.042  13.010
63894W        W23188  44.364   5.870   3.305
63895W        W23189  23.008  33.999  11.033
63896W        W23190   1.903   0.380   9.975
63897W        W23191  32.045  21.113   0.737
63898W        W23192   1.273  35.935  13.802
63899W        W23193  33.045   3.853   3.210
63900W        W23194   6.346  32.599   5.780
63901W        W23195  13.695   2.898  11.531
63902W        W23196   8.398  30.963   1.774
63903W        W23197   3.349  26.992   2.857
63904W        W23198  31.030  25.046   3.184
63905W        W23199  41.957  35.548   0.967
63906W        W23200  33.401  14.115  10.600
63907W        W23201  25.190  12.663  11.378
63908W        W23202  27.575  40.344   2.701
63909W        W23203  11.623   0.328   1.351
63910W        W23204  12.755   6.682   0.436
63911W        W23205  30.087  31.586   3.654
63912W        W23206  34.522   5.788   9.466
63913W        W23207  40.010   5.211  14.880
63914W        W23208  26.125  15.812  11.420
63915W        W23209  40.513  27.095  11.121
63916W        W23210  37.914  24.162   4.665
63917W        W23211   0.376  22.725  13.994
63918W        W23212   3.362  36.491  13.824
63919W        W23213  17.758  18.152  13.512
63920W        W23214  41.884  37.434   1.281
63921W        W23215   4.777   1.928   3.154
63922W        W23216   7.739  29.519  12.826
63923W        W23217   7.882  41.838  11.123
63924W        W23218  44.947  14.214  13.546
63925W        W23219  28.546   3.414   3.827
63926W        W23220  41.986  20.139  11.981
63927W        W23221  17.110  32.018  14.785
63928W        W23222  18.221  34.584   0.738
63929W        W23223  44.849  23.218  10.460
63930W        W23224  19.696  42.011  12.875
63931W        W23225  17.228  22.217   2.712
63932W        W23226  19.659  39.060   2.819
63933W        W23227  32.942   3.393   3.820
63934W        W23228  14.311  38.891  10.976
63935W        W23229   8.792  32.070   2.292
63936W        W23230  27.159  13.332   1.241
63937W        W23231  29.956  31.976  12.973
63938W        W23232  18.635  17.066   0.415
63939W        W23233  24.035  35.095   2.791
63940W        W23234   6.184  39.937  11.404
63941W        W23235  19.231  22.168   1.740
63942W        W23236  36.915  42.812  11.046
63943W        W23237  22.618   3.399   1.920
63944W        W23238  12.855  18.098   2.763
63945W        W23239  11.768  26.141   2.186
63946W        W23240  14.225   6.817   4.711
63947W        W23241  26.595  35.402  12.393
63948W        W23242   8.835  12.335  12.846
63949W        W23243  41.990  28.647   2.836
63950W        W23244   2.810  31.137  13.488
63951W        W23245  31.958  35.365   2.261
63952W        W23246  42.317  20.736   2.279
63953W        W23247  36.935  31.581  14.321
63954W        W23248   9.333  37.447  13.035
63955W        W23249  23.036  33.410   0.859
63956W        W23250  29.063  32.599  12.088
63957W        W23251  39.870  33.897   3.726
63958W        W23252  15.171   5.753  12.071
63959W        W23253   4.884  41.815  10.158
63960W        W23254  34.515  36.490   2.782
63961W        W23255  24.604  41.536   0.732
63962W        W23256  12.720  19.103  11.416
63963W        W23257   6.371  33.530  14.396
63964W        W23258   4.291   7.225   0.410
63965W        W23259  27.461  43.782  11.050
63966W        W23260  39.914  31.587   1.823
63967W        W23261   3.924  22.546  14.925
63968W        W23262  11.247  37.577  11.067
63969W        W23263  22.195  17.681   0.806
63970W        W23264  35.999  24.522   3.207
63971W        W23265  35.539  37.971  12.848
63972W        W23266   5.741   3.439   3.211
63973W        W23267  17.699   7.307   2.672
63974W        W23268   6.820   0.799  11.977
63975W        W23269  29.607  21.638   3.717
63976W        W23270   9.849  25.147  12.058
63977W        W23271  26.147  19.239  11.995
63978W        W23272   9.700  29.614  13.458
63979W        W23273  22.221   9.852  12.952
63980W        W23274  26.499   6.220  10.491
63981W        W23275  10.759  39.912   2.295
63982W        W23276  37.340   2.247   0.831
63983W        W23277  29.094   8.338  10.588
63984W        W23278  37.059  37.901   2.793
63985W        W23279  33.929   4.776   4.306
63986W        W23280  16.809   2.401  10.932
63987W        W23281  34.940  35.497  12.366
63988W        W23282   4.736  43.928   1.258
63989W        W23283  22.167   5.889   1.902
63990W        W23284  37.014  20.162  12.928
63991W        W23285  26.547  19.194   3.665
63992W        W23286  26.635  34.008   0.917
63993W        W23287  36.374   3.371  14.863
63994W        W23288  42.316  20.581   4.710
63995W        W23289  19.254  34.866   2.253
63996W        W23290  11.354  41.001  14.963
63997W        W23291  25.975  12.828  12.026
63998W        W23292   1.758  21.525   3.165
63999W        W23293  17.191  20.112   2.289
64000W        W23294  25.663  32.493   0.299
64001W        W23295  11.843  26.988   4.317
64002W        W23296  13.212  31.153  10.103
64003W        W23297   7.874  40.336   3.341
64004W        W23298  13.817  30.452  12.418
64005W        W23299   1.875  30.133   0.475
64006W        W23300  37.423  20.161   3.651
64007W        W23301  10.230  21.191   0.764
64008W        W23302   0.979  19.766   3.261
64009W        W23303   7.807  11.702   4.667
64010W        W23304   4.278  10.729  11.911
64011W        W23305  19.756   5.345   4.184
64012W        W23306  13.700   3.827   3.197
64013W        W23307  30.924  16.282   2.412
64014W        W23308  17.204  30.961   3.650
64015W        W23309   7.376  13.109  11.873
64016W        W23310   2.732  35.085  14.815
64017W        W23311  29.482  39.047  13.427
64018W        W23312   0.863  22.672  11.075
64019W        W23313  16.739  24.517  14.007
64020W        W23314  37.493   0.488   4.764
64021W        W23315  23.241  41.801   2.889
64022W        W23316   4.771  32.449  13.060
64023W        W23317  23.045   7.324   4.295
64024W        W23318  22.062  12.228   0.745
64025W        W23319   5.842  28.081  12.876
64026W        W23320   9.666  41.924   3.377
64027W        W23321   6.901  19.599  12.519
64028W        W23322  43.271  20.548  13.830
64029W        W23323  27.523  22.134   4.706
64030W        W23324  24.483  39.008  12.445
64031W        W23325  43.953  22.543   2.725
64032W        W23326   9.869  39.499  11.126
64033W        W23327  34.382  26.068   2.892
64034W        W23328  34.410   9.183  13.390
64035W        W23329  11.347  40.475  13.538
64036W        W23330  27.965   6.778   0.834
64037W        W23331  21.562  34.420   2.760
64038W        W23332  10.382  13.159  14.898
64039W        W23333   1.936  15.671  12.410
64040W        W23334  15.751  41.334   4.619
64041W        W23335  27.106  14.723   2.872
64042W        W23336  38.824  32.439  11.543
64043W        W23337  12.211   2.936  14.983
64044W        W23338  20.197  13.791   5.631
64045W        W23339   3.395  26.550  11.566
64046W        W23340   5.401  18.065   2.779
64047W        W23341  30.634  12.353  12.488
64048W        W23342  42.934  13.694   0.359
64049W        W23343   0.396   2.738  12.846
64050W        W23344  44.828  16.101   1.263
64051W        W23345   8.673   4.845   4.340
64052W        W23346  31.007  30.076  12.406
64053W        W23347  20.698  20.553   1.268
64054W        W23348  27.676  34.878  14.007
64055W        W23349  20.164  33.559  11.057
64056W        W23350  34.000  41.957   4.760
64057W        W23351   3.882  19.538   0.920
64058W        W23352  19.563  24.162   3.798
64059W        W23353  27.650  28.968  12.501
64060W        W23354   2.747   5.869  13.932
64061W        W23355  36.575  11.709  10.457
64062W        W23356  40.911  36.361  10.951
64063W        W23357  19.534  19.130   4.120
64064W        W23358  31.516   5.804  10.550
64065W        W23359   7.250  25.160  14.291
64066W        W23360  36.528   1.765  12.976
64067W        W23361  41.525  19.542   3.254
64068W        W23362   8.840  27.036   2.266
64069W        W23363  39.964   0.810  12.361
64070W        W23364   9.318  25.204  14.941
64071W        W23365  13.600  43.489  12.958
64072W        W23366  38.956  43.872  10.984
64073W        W23367  39.540  38.431  11.549
64074W        W23368  13.602  13.264  12.963
64075W        W23369  40.025  18.681   4.305
64076W        W23370  36.350  16.183  14.369
64077W        W23371  10.323  37.987   5.164
64078W        W23372  30.557   7.279   3.254
64079W        W23373  43.318  27.684   4.217
64080W        W23374  39.496   2.933   0.387
64081W        W23375   7.763  39.367  14.364
64082W        W23376  34.440   7.779  14.393
64083W        W23377  12.612  38.507   4.332
64084W        W23378  14.767  24.094   3.317
64085W        W23379  24.163  22.601   4.762
64086W        W23380  40.539  23.570   3.195
64087W        W23381   0.749  23.697   5.240
64088W        W23382  36.078  27.157   4.355
64089W        W23383  29.575  27.996  11.471
64090W        W23384  32.983  28.646   2.899
64091W        W23385  27.625  35.515   3.297
64092W        W23386  15.302  30.422  11.445
64093W        W23387  39.811  18.058   1.890
64094W        W23388  13.158  10.358  14.992
64095W        W23389  38.465  33.118   4.806
64096W        W23390  12.803  15.599   2.847
64097W        W23391  35.936  31.962  14.917
64098W        W23392  32.124  38.046   9.446
64099W        W23393   6.304  33.530   3.279
64100W        W23394  42.490  43.421  14.762
64101W        W23395  10.672  43.814  11.568
64102W        W23396  12.318  23.239   2.700
64103W        W23397  14.617   8.387   0.884
64104W        W23398   9.872  24.659   0.314
64105W        W23399   0.260  24.489  13.321
64106W        W23400  10.224  24.212   3.659
64107W        W23401  19.750  28.498   3.350
64108W        W23402   0.980  25.706  10.426
64109W        W23403  33.455   2.365  10.998
64110W        W23404  40.991  40.432   3.188
64111W        W23405  40.482   0.964   0.905
64112W        W23406  32.102   3.250   1.340
64113W        W23407  14.649   8.207   2.380
64114W        W23408  11.764  31.503   0.452
64115W        W23409   6.426  38.829   3.220
64116W        W23410   5.438  25.580   1.451
64117W        W23411  12.152   8.874   1.708
64118W        W23412  30.100  12.767   2.406
64119W        W23413   4.852  15.605   1.217
64120W        W23414   1.924  11.864  10.626
64121W        W23415   0.824   7.175  10.118
64122W        W23416  25.487  33.999  12.428
64123W        W23417  15.821  31.577   3.235
64124W        W23418  17.130  36.077   4.354
64125W        W23419  39.847  17.705  13.936
64126W        W23420  39.973  30.086  12.348
64127W        W23421  27.637   4.833  13.956
64128W        W23422  44.347  34.989   3.752
64129W        W23423  19.279  15.667  10.527
64130W        W23424   7.386  22.130  13.338
64131W        W23425  44.886   5.311  14.464
64132W        W23426  36.896  17.756  11.476
64133W        W23427   0.317  39.941  11.948
64134W        W23428  10.747  20.057  13.919
64135W        W23429  11.703  39.958  14.432
64136W        W23430   2.345  20.586  11.963
64137W        W23431  29.002  24.653   2.320
64138W        W23432  22.250   7.806   0.269
64139W        W23433   0.458   2.349  11.574
64140W        W23434  33.536  28.945  13.315
64141W        W23435  32.895  24.721  10.981
64142W        W23436  17.213  29.560  10.929
64143W        W23437  28.474  37.017   3.681
64144W        W23438   1.785   3.378  10.926
64145W        W23439   3.440  39.529   2.391
64146W        W23440  32.496  22.185  11.519
64147W        W23441   5.340  28.046  13.327
64148W        W23442   1.830   8.890   0.782
64149W        W23443   8.161  44.298   4.712
64150W        W23444   4.409  39.399   0.904
64151W        W23445  36.461  29.107  10.930
64152W        W23446  25.067  39.864   2.774
64153W        W23447  35.406  13.253  11.116
64154W        W23448  32.568  37.871  12.881
64155W        W23449  24.054  34.485  13.325
64156W        W23450  16.763  29.499  12.557
64157W        W23451  26.668  12.116  12.560
64158W        W23452   2.370   8.871  11.470
64159W        W23453  21.243  18.104   1.909
64160W        W23454  40.886  28.962  14.812
64161W        W23455  20.532  32.143  11.554
64162W        W23456  13.170  39.001  11.424
64163W        W23457  20.204  16.813   1.847
64164W        W23458  28.944  14.811  14.881
64165W        W23459  41.835   0.446   4.656
64166W        W23460  21.613   9.713   0.446
64167W        W23461  26.635   7.370   4.808
64168W        W23462   8.844  12.628   1.905
64169W        W23463   1.358  24.096   2.880
64170W        W23464  11.248  21.585   4.296
64171W        W23465   9.783  13.687  13.036
64172W        W23466  22.601  41.424   1.737
64173W        W23467  31.015  29.649   2.360
64174W        W23468  41.022  33.613  11.483
64175W        W23469   6.353  28.664   3.866
64176W        W23470  27.136  29.060   0.945
64177W        W23471  43.000   3.884  14.950
64178W        W23472  20.172   8.356   3.679
64179W        W23473   7.354   9.351  10.583
64180W        W23474  10.370  12.633  11.081
64181W        W23475  35.441  20.684  14.773
64182W        W23476  36.436   9.385   3.282
64183W        W23477   0.461  13.749  12.982
64184W        W23478   7.369   4.882  12.831
64185W        W23479  32.063  31.507  13.814
64186W        W23480  33.088  20.700   1.745
64187W        W23481   3.882  40.045  10.910
64188W        W23482  41.916  41.944  12.835
64189W        W23483  33.612  18.059  13.862
64190W        W23484  38.347  10.837  11.879
64191W        W23485   3.770  15.746   0.382
64192W        W23486  37.445  44.303  14.964
64193W        W23487  18.131  26.000  11.869
64194W        W23488  26.646  41.947  14.459
64195W        W23489  18.122  11.759  10.954
64196W        W23490  14.628  40.856  13.427
64197W        W23491   9.289  22.583  12.876
64198W        W23492   1.895   5.286   3.667
64199W        W23493  43.383  20.238  12.427
64200W        W23494  20.563  38.984   3.161
64201W        W23495  34.093  17.597   2.826
64202W        W23496  31.000  41.007   1.346
64203W        W23497  35.888   3.415  10.957
64204W        W23498  19.281   3.728   1.450
64205W        W23499   5.419  13.260   4.193
64206W        W23500  23.592  31.611   3.864
64207W        W23501  27.463  26.458  10.423
64208W        W23502  38.350   4.901  10.484
64209W        W23503  12.131  39.052  13.483
64210W        W23504  12.175  10.222  12.456
64211W        W23505  14.788  10.346   2.808
64212W        W23506  13.646   6.873  12.895
64213W        W23507  12.631  44.435   2.879
64214W        W23508  27.614  18.106   4.678
64215W        W23509   3.216  26.516   2.755
64216W        W23510   4.837  36.856  11.398
64217W        W23511  18.730   1.455  10.891
64218W        W23512  17.274  18.225   3.733
64219W        W23513  38.495  13.763  13.948
64220W        W23514   1.313  34.597   3.381
64221W        W23515  17.680   8.801   4.701
64222W        W23516  34.082  44.270   2.280
64223W        W23517  16.680  37.578  13.923
64224W        W23518   1.823   2.871   2.899
64225W        W23519  19.726  21.053   0.805
64226W        W23520   4.931  41.424   1.213
64227W        W23521  43.493  28.524  14.968
64228W        W23522   5.402   1.237  13.385
64229W        W23523   8.833   7.245   4.260
64230W        W23524  35.072  18.610  10.114
64231W        W23525   9.812  32.064  12.852
64232W        W23526   6.682  10.153  11.013
64233W        W23527  31.100  22.732  13.832
64234W        W23528  32.943  14.757  14.419
64235W        W23529  13.214  42.883   0.360
64236W        W23530  44.933  28.950  11.603
64237W        W23531  30.643  31.059  11.521
64238W        W23532  40.513   0.927  10.497
64239W        W23533  28.980  25.132  11.030
64240W        W23534  10.823  11.699   2.728
64241W        W23535  11.150  15.586  14.463
64242W        W23536  40.450  30.435   4.700
64243W        W23537   9.748  34.369  11.375
64244W        W23538  17.631  31.511  14.426
64245W        W23539   7.784  18.074   4.238
64246W        W23540  30.097   8.850   1.785
64247W        W23541  25.146  23.081  11.956
64248W        W23542   2.955  15.115  10.600
64249W        W23543  30.024  38.429   2.275
64250W        W23544  27.669   5.271  11.899
64251W        W23545  29.654  36.045  11.882
64252W        W23546  21.631   4.418  12.437
64253W        W23547  39.053  32.635   3.648
64254W        W23548   0.819  33.888  12.485
64255W        W23549  35.395  33.113   2.305
64256W        W23550  27.624  38.864   2.309
64257W        W23551   5.235  14.289   4.155
64258W        W23552  11.733  22.065  13.327
64259W        W23553  22.521  13.167   4.277
64260W        W23554  14.263   8.675  11.563
64261W        W23555   1.415  30.582  12.035
64262W        W23556  20.726  25.998   1.753
64263W        W23557  16.217  35.381   3.691
64264W        W23558  14.739  31.133  14.833
64265W        W23559  19.230  16.609  14.803
64266W        W23560  27.047  11.300  13.907
64267W        W23561  20.174  25.015  14.918
64268W        W23562   4.851  30.154   0.339
64269W        W23563  15.801  25.038   2.382
64270W        W23564  38.914  27.029   3.372
64271W        W23565  37.523  37.844   5.167
64272W        W23566  19.636  31.018   3.831
64273W        W23567  28.148   0.827  13.484
64274W        W23568   9.750  39.942  10.618
64275W        W23569  23.133  25.567  12.435
64276W        W23570  39.435  43.328   0.429
64277W        W23571  32.072  41.878  13.957
64278W        W23572  36.007  36.094   2.791
64279W        W23573  17.634  21.675  12.562
64280W        W23574  23.033   4.883  10.439
64281W        W23575  44.946  23.097  12.344
64282W        W23576   2.248  17.064  11.491
64283W        W23577  19.213  40.522  12.456
64284W        W23578  20.745  18.735  11.477
64285W        W23579  10.673  39.344   0.481
64286W        W23580  21.546   0.809  12.469
64287W        W23581  14.789  24.518   4.747
64288W        W23582  39.876  33.541  13.464
64289W        W23583  36.090  30.526  10.630
64290W        W23584  25.610  25.052  11.421
64291W        W23585  18.075   3.232   1.310
64292W        W23586  41.481  22.578   4.220
64293W        W23587  29.482   9.675  14.945
64294W        W23588  35.540  32.921   9.930
64295W        W23589   8.198  34.420  14.491
64296W        W23590  11.851   1.938   5.140
64297W        W23591  17.072  24.171  12.490
64298W        W23592   5.324  30.928  11.879
64299W        W23593  16.256   5.334  12.875
64300W        W23594  36.976  35.436  14.414
64301W        W23595   4.396  14.171   4.690
64302W        W23596  35.927  40.438   2.772
64303W        W23597  44.301   7.802   3.148
64304W        W23598   3.444  37.863   4.598
64305W        W23599  19.102  29.031  12.837
64306W        W23600  27.449  17.294   4.718
64307W        W23601   2.351  43.791   3.237
64308W        W23602   2.813  39.952  14.009
64309W        W23603   8.348  17.263  11.501
64310W        W23604  44.301  34.374  13.428
64311W        W23605  10.138  39.337  11.128
64312W        W23606   4.823  11.835   3.736
64313W        W23607  38.928  44.902   2.218
64314W        W23608  18.283  31.586   0.741
64315W        W23609   0.940  21.205  10.471
64316W        W23610   7.318  43.427  12.041
64317W        W23611  37.437  21.147   0.952
64318W        W23612  33.457   9.197   3.382
64319W        W23613  11.209  43.931  12.906
64320W        W23614  11.173   7.238   4.296
64321W        W23615  21.707   7.735  10.948
64322W        W23616  36.560  15.264   0.418
64323W        W23617  33.086  34.914   0.446
64324W        W23618  40.491  29.048   1.449
64325W        W23619  22.135   5.324   1.745
64326W        W23620  19.143  20.748  12.972
64327W        W23621  13.828  15.259  12.462
64328W        W23622  33.012  24.204   1.797
64329W        W23623   4.277  11.755   4.276
64330W        W23624  34.397  18.665   1.339
64331W        W23625   2.254  40.992   2.817
64332W        W23626  37.464  27.682   1.760
64333W        W23627  14.811  12.179  13.937
64334W        W23628  12.842  32.960  11.403
64335W        W23629  35.958  39.330   0.783
64336W        W23630  30.647  33.382   5.320
64337W        W23631  39.997  10.167  14.372
64338W        W23632  18.565  32.991   3.641
64339W        W23633  38.393   5.829   1.313
64340W        W23634  23.030  22.511   3.785
64341W        W23635  20.611   4.253   1.346
64342W        W23636  39.973  34.612   3.228
64343W        W23637  40.928  11.233  14.364
64344W        W23638   6.237   0.970  13.449
64345W        W23639  42.445   8.345  13.902
64346W        W23640   2.795  12.800   0.254
64347W        W23641   7.848  33.539  12.904
64348W        W23642  21.723  12.652  14.947
64349W        W23643  40.987  27.624  13.314
64350W        W23644  23.725   0.826   4.328
64351W        W23645  28.975  30.536  14.278
64352W        W23646   4.303  16.584  13.020
64353W        W23647   6.888  14.803   3.640
64354W        W23648  16.200   0.746  13.917
64355W        W23649  22.577  15.592  14.807
64356W        W23650  26.518  34.484  14.811
64357W        W23651  44.312  31.144  14.415
64358W        W23652   8.219   2.397   1.398
64359W        W23653  33.481  39.479   0.434
64360W        W23654  13.708  26.671   1.420
64361W        W23655   8.770  27.136   2.868
64362W        W23656  18.260  24.105  13.407
64363W        W23657   0.383  30.543   3.228
64364W        W23658  23.121   5.427   4.320
64365W        W23659   7.223  18.286   2.748
64366W        W23660  32.598   2.827   4.806
64367W        W23661  41.957  39.972   1.292
64368W        W23662  25.108  36.593  13.005
64369W        W23663  41.370  32.979   4.200
64370W        W23664  35.538  23.598  14.432
64371W        W23665  24.190  19.713  11.879
64372W        W23666  13.288  20.116   3.836
64373W        W23667  32.912  35.541  12.499
64374W        W23668  44.784  36.593   3.824
64375W        W23669  11.291   5.707  11.446
64376W        W23670   1.413  12.649  14.853
64377W        W23671   6.734  29.488   3.678
64378W        W23672  28.047  19.235  13.836
64379W        W23673  27.030  26.658  13.404
64380W        W23674  42.425  27.160   0.377
64381W        W23675  27.456  12.629   0.920
64382W        W23676  14.806   2.409  11.993
64383W        W23677  42.342  33.935  12.487
64384W        W23678  20.037  14.698  13.989
64385W        W23679   8.382  32.535   1.307
64386W        W23680   5.706  11.844  12.567
64387W        W23681  25.595  13.610  12.870
64388W        W23682  37.860  10.222   4.293
64389W        W23683  12.749  10.812   3.283
64390W        W23684  21.062  16.792   0.402
64391W        W23685  12.666  44.468  13.042
64392W        W23686   4.826  13.161   4.730
64393W        W23687  43.305   7.809   4.773
64394W        W23688  21.514   8.362   0.928
64395W        W23689   4.391  18.133  12.364
64396W        W23690  17.159  37.851   1.698
64397W        W23691  14.337  21.093  12.447
64398W        W23692  12.729  35.484   4.750
64399W        W23693  14.219   4.285  13.019
64400W        W23694  40.541  10.146   4.169
64401W        W23695  21.607  25.663  13.470
64402W        W23696  19.271  43.906  13.018
64403W        W23697  14.597  36.481  12.858
64404W        W23698  43.414   9.847   0.918
64405W        W23699  36.381   6.182   4.166
64406W        W23700  32.555  15.641  13.050
64407W        W23701  22.661  17.148   4.275
64408W        W23702   7.231  36.399   2.344
64409W        W23703  28.648   5.795  13.342
64410W        W23704  31.924  44.326   2.296
64411W        W23705  19.619  13.146  13.365
64412W        W23706  13.135   5.305   0.823
64413W        W23707  41.519  14.611  12.434
64414W        W23708  26.648  10.814  14.480
64415W        W23709   2.775  26.692  14.801
64416W        W23710  43.944  14.254   3.181
64417W        W23711  14.746  24.557  12.361
64418W        W23712  11.132  20.121  12.048
64419W        W23713  20.600  26.025   3.281
64420W        W23714   8.327  13.792   2.751
64421W        W23715  18.564  22.696  14.469
64422W        W23716   2.823  19.611   1.314
64423W        W23717  30.451  13.190  11.867
64424W        W23718  41.324  21.261  10.991
64425W        W23719  19.631  12.226   3.240
64426W        W23720  37.578  26.695   0.289
64427W        W23721  15.123  34.003  10.428
64428W        W23722   8.331  41.522   0.482
64429W        W23723   0.916  24.515  11.596
64430W        W23724  31.484  42.432  10.962
64431W        W23725  16.120  43.841   4.284
64432W        W23726  34.986   7.322  13.839
64433W        W23727   8.215  21.676   1.749
64434W        W23728  18.134  39.049  12.448
64435W        W23729  12.137  37.957  13.418
64436W        W23730  10.320  23.572  12.960
64437W        W23731   1.387   9.889  11.381
64438W        W23732  35.861   9.758  14.318
64439W        W23733  30.498  21.557   1.388
64440W        W23734  38.849  25.095   5.089
64441W        W23735  36.352  29.087  11.554
64442W        W23736   3.883  23.220   0.855
64443W        W23737  18.292  11.212   1.369
64444W        W23738  19.133  15.744   3.711
64445W        W23739  18.659  41.324   4.760
64446W        W23740  32.094  17.131  12.545
64447W        W23741  21.644  20.098  11.119
64448W        W23742  27.961   0.958  13.064
64449W        W23743  29.445  31.486   4.772
64450W        W23744  10.735  28.062   2.769
64451W        W23745  32.129  18.747   2.351
64452W        W23746  13.742  33.053  14.282
64453W        W23747  19.178  10.204  13.979
64454W        W23748  14.166   7.892  10.607
64455W        W23749  31.995   6.790   0.868
64456W        W23750  10.236  40.405  11.450
64457W        W23751  11.766  41.872  13.023
64458W        W23752  21.169  11.823   5.272
64459W        W23753   5.892  26.510  12.503
64460W        W23754  19.189   3.417  12.519
64461W        W23755   9.673  38.499   0.428
64462W        W23756  23.068  32.391  13.885
64463W        W23757  23.005  21.604   0.425
64464W        W23758  36.934  31.027   3.255
64465W        W23759  29.454   8.299  12.474
64466W        W23760  11.244   9.240   1.814
64467W        W23761   0.339  10.658   3.715
64468W        W23762  27.189  34.868   4.316
64469W        W23763  41.010  33.097  10.566
64470W        W23764  29.625  10.780   3.372
64471W        W23765  33.088  25.519   3.288
64472W        W23766  18.291  44.503  10.465
64473W        W23767  43.994  13.348   2.663
64474W        W23768  25.693   4.407   2.260
64475W        W23769  33.125  40.529   1.232
64476W        W23770  42.978  35.585   4.120
64477W        W23771  37.549  27.074  11.863
64478W        W23772  27.962  32.434  14.788
64479W        W23773  20.037  21.047   0.940
64480W        W23774  36.560   7.892  11.966
64481W        W23775   9.693  34.611  12.569
64482W        W23776  12.208  16.566   4.824
64483W        W23777  21.064  26.202   3.729
64484W        W23778   0.963  11.337   4.601
64485W        W23779  23.236   3.894   3.708
64486W        W23780  25.196  26.467   4.161
64487W        W23781  29.037   3.956  14.866
64488W        W23782  16.131  26.457   1.897
64489W        W23783  11.856   0.451   3.334
64490W        W23784  20.229  43.903   1.413
64491W        W23785  24.706   0.405   4.653
64492W        W23786  16.233  18.612  10.541
64493W        W23787  12.224  24.557  11.990
64494W        W23788  19.190  36.953   2.344
64495W        W23789  37.948  39.952  14.806
64496W        W23790  23.512   3.291  12.421
64497W        W23791   3.246  13.776   0.314
64498W        W23792  18.137  39.048   1.298
64499W        W23793  43.933  42.327   2.342
64500W        W23794  11.237  38.861   2.835
64501W        W23795  26.489   4.343   4.630
64502W        W23796   9.229  21.603  14.842
64503W        W23797  23.526  16.773  12.390
64504W        W23798  39.884  15.748  11.102
64505W        W23799  36.511  13.615   4.330
64506W        W23800  38.958  18.790  13.996
64507W        W23801   1.284  12.703   1.795
64508W        W23802  33.006   0.840  13.832
64509W        W23803  31.996  38.053  13.998
64510W        W23804  11.688  43.013  12.432
64511W        W23805  19.216   8.170  13.315
64512W        W23806  31.088  24.608  13.539
64513W        W23807  33.921  20.202  14.007
64514W        W23808  39.921  36.533  12.406
64515W        W23809  17.287   6.384  12.856
64516W        W23810  41.537  15.326   2.408
64517W        W23811  24.590  26.587  11.897
64518W        W23812  28.155  36.393  12.420
64519W        W23813  36.535   2.307   3.207
64520W        W23814  14.650   0.481   0.927
64521W        W23815  41.931  37.845  13.433
64522W        W23816  38.359  26.581  11.386
64523W        W23817  20.721   7.856   2.235
64524W        W23818  22.504  28.055  12.086
64525W        W23819  30.454  27.552  10.466
64526W        W23820  36.056  39.831  14.001
64527W        W23821  10.851  17.253   1.278
64528W        W23822  29.980  19.665  11.406
64529W        W23823  22.641  15.590  11.486
64530W        W23824   4.373  31.112   4.165
64531W        W23825  36.584  24.572  11.554
64532W        W23826  21.251  18.218  13.996
64533W        W23827  26.635  33.487  13.006
64534W        W23828   4.258  18.127   4.307
64535W        W23829  12.708  42.969   4.218
64536W        W23830  44.910   7.763   4.145
64537W        W23831  28.931  12.203  14.437
64538W        W23832   8.793  11.625   5.310
64539W        W23833  18.623   0.875  13.870
64540W        W23834  29.090   5.363   1.280
64541W        W23835  24.636  11.164   4.199
64542W        W23836  23.684  24.171   3.760
64543W        W23837  27.608  20.029   4.309
64544W        W23838  43.859  39.372  14.814
64545W        W23839   2.893  26.501   1.866
64546W        W23840  26.112  34.576   2.888
64547W        W23841  14.160  24.002  13.384
64548W        W23842  24.591  28.471   3.371
64549W        W23843   7.350  14.110  11.902
64550W        W23844  30.101  16.100  12.357
64551W        W23845  41.004  24.121  14.892
64552W        W23846   1.335  31.631   0.431
64553W        W23847  37.869  12.256   2.362
64554W        W23848   8.687  17.147   4.253
64555W        W23849  11.727  42.359   3.857
64556W        W23850  41.854  44.859   4.823
64557W        W23851   6.704  21.677   0.922
64558W        W23852  33.031  20.560  11.578
64559W        W23853  20.591  20.165  13.929
64560W        W23854  27.171  11.676   2.330
64561W        W23855  38.840  42.462  13.374
64562W        W23856  41.385  38.455   1.726
64563W        W23857  33.532  13.724  12.380
64564W        W23858  36.453  14.688  10.410
64565W        W23859  21.135  40.327  12.974
64566W        W23860  17.129  37.027   0.795
64567W        W23861  19.244  21.232   4.829
64568W        W23862  39.453  17.735   0.733
64569W        W23863  40.322   0.390   2.241
64570W        W23864   8.299   8.847   1.875
64571W        W23865   7.893  23.209   4.261
64572W        W23866  39.458   6.816   1.426
64573W        W23867  40.931  17.229   3.214
64574W        W23868  24.630   4.289   1.298
64575W        W23869  33.068  29.039   4.754
64576W        W23870   5.314  24.990  11.541
64577W        W23871  15.273  15.614   2.901
64578W        W23872  37.973  13.263  12.502
64579W        W23873  36.527  35.379   4.772
64580W        W23874  41.484   4.319  11.974
64581W        W23875   9.262  21.700   0.388
64582W        W23876  27.165  20.116   0.313
64583W        W23877   1.269   6.269   1.382
64584W        W23878  30.650   6.330   1.826
64585W        W23879   7.407   8.335  12.456
64586W        W23880  13.307  42.826  11.454
64587W        W23881  21.669  27.453   1.932
64588W        W23882  10.823  18.723   0.738
64589W        W23883  42.478  36.023  12.944
64590W        W23884  11.756  25.502  14.508
64591W        W23885  41.408   9.270  13.955
64592W        W23886   5.399  40.810  13.390
64593W        W23887   6.872  12.766  11.438
64594W        W23888  25.582  31.978  14.319
64595W        W23889  18.110  25.017  10.468
64596W        W23890  31.115  29.466   1.924
64597W        W23891  30.049  10.183  12.565
64598W        W23892  30.029  19.157   4.819
64599W        W23893  10.360  17.600   4.809
64600W        W23894  11.352  34.001   1.865
64601W        W23895  21.195  11.663  12.938
64602W        W23896  24.120   2.786   2.279
64603W        W23897  20.108  26.468   1.315
64604W        W23898   9.184  11.281   0.748
64605W        W23899  43.396   1.894  13.855
64606W        W23900   3.789  39.003  13.019
64607W        W23901  38.946  29.103  10.893
64608W        W23902  11.701  26.953  12.046
64609W        W23903   4.708   2.898  12.049
64610W        W23904  17.195   3.771  10.472
64611W        W23905  11.859  25.154   1.233
64612W        W23906  13.257  43.878  13.800
64613W        W23907   9.199  35.533  13.798
64614W        W23908   7.331  32.009   1.703
64615W        W23909   4.875  12.122  10.609
64616W        W23910  37.928  38.332   4.118
64617W        W23911  13.306  20.092  11.382
64618W        W23912  30.126  43.828   0.831
64619W        W23913  39.558  23.517  11.050
64620W        W23914  26.591  21.678  12.414
64621W        W23915  32.512   5.200  11.914
64622W        W23916  14.187  21.559  11.056
64623W        W23917  27.134  16.149   2.268
64624W        W23918  43.317  38.977   1.712
64625W        W23919  21.748  13.164  11.859
64626W        W23920  38.558  36.578   1.303
64627W        W23921  29.446  24.142  11.069
64628W        W23922  15.092  18.662   0.437
64629W        W23923   8.398  43.770  14.889
64630W        W23924   9.692  43.927   3.316
64631W        W23925  39.061  16.127  13.391
64632W        W23926  26.202  15.268  14.408
64633W        W23927  17.168  19.772   0.957
64634W        W23928   8.793  29.568  14.283
64635W        W23929   2.845  16.078  14.408
64636W        W23930   4.931  26.592   4.739
64637W        W23931  37.915  24.220  13.063
64638W        W23932   3.739  34.947   2.819
64639W        W23933  10.725  26.575   4.825
64640W        W23934  42.458  16.741  13.988
64641W        W23935  39.935  31.115  12.997
64642W        W23936  32.968  30.469  12.463
64643W        W23937  38.566   2.352  14.449
64644W        W23938  31.634  10.331  11.031
64645W        W23939   8.280  19.051   0.857
64646W        W23940  32.622  10.749  10.424
64647W        W23941   6.902  21.627   3.320
64648W        W23942  23.221  16.142  13.386
64649W        W23943  26.109   2.418  10.545
64650W        W23944  30.555  13.794  11.575
64651W        W23945   6.796  27.522  14.449
64652W        W23946  18.059   0.459   2.292
64653W        W23947  35.963  13.671  14.826
64654W        W23948   0.766  19.143   4.142
64655W        W23949   3.295  16.314   0.381
64656W        W23950  40.053  15.804   0.445
64657W        W23951  40.899  24.626   4.243
64658W        W23952  42.842  14.646  13.494
64659W        W23953   3.723  32.637  10.408
64660W        W23954  21.617  40.433   2.265
64661W        W23955  27.160   9.719  14.857
64662W        W23956   2.840  35.507  14.447
64663W        W23957  25.541   9.768   3.291
64664W        W23958  18.773  12.352  12.831
64665W        W23959  10.860  20.180  14.820
64666W        W23960  21.192   3.907  13.945
64667W        W23961   8.221  10.326   1.796
64668W        W23962   0.975   7.287   2.873
64669W        W23963  34.084  33.486   2.740
64670W        W23964   7.793   6.909  13.000
64671W        W23965  30.469  23.037  11.376
64672W        W23966   5.423   7.337  13.372
64673W        W23967  13.623  35.445  13.957
64674W        W23968  34.111   5.346  12.973
64675W        W23969  34.908  16.743  11.536
64676W        W23970  37.982  37.371  12.365
64677W        W23971   0.842  24.094  11.385
64678W        W23972   1.753  25.476   2.333
64679W        W23973  44.472  40.934   4.159
64680W        W23974   9.859  26.668  12.479
64681W        W23975  35.982   3.740  14.880
64682W        W23976  36.512  26.962   2.782
64683W        W23977  39.997  20.246  14.386
64684W        W23978  19.768  19.694   4.333
64685W        W23979  25.713   1.267  12.566
64686W        W23980  44.450  31.413   3.312
64687W        W23981  27.197  13.165  13.319
64688W        W23982  39.331  25.644  10.997
64689W        W23983  30.954  30.497  11.990
64690W        W23984  12.141  44.001   4.312
64691W        W23985  40.835  25.040  12.570
64692W        W23986   5.877  23.194  14.354
64693W        W23987  42.883  31.017   3.211
64694W        W23988  10.154  14.144   0.305
64695W        W23989  33.504   7.776  11.389
64696W        W23990  23.673  20.104   1.237
64697W        W23991   3.430  14.757   1.855
64698W        W23992  41.798  10.280  10.928
64699W        W23993  16.736  18.102   2.671
64700W        W23994   1.792  41.524  12.914
64701W        W23995   6.707  34.993  12.940
64702W        W23996  28.594  41.900  12.461
64703W        W23997  28.940  16.307  13.508
64704W        W23998  27.551  36.958   5.146
64705W        W23999   8.671  27.049   1.212
64706W        W24000  25.996  39.465  13.913
64707W        W24001  11.626  39.448   3.301
64708W        W24002  43.460  35.387   4.348
64709W        W24003   8.184  20.671   5.579
64710W        W24004  26.983  32.928   2.396
64711W        W24005   1.845   5.767  13.338
64712W        W24006  21.062   3.232   2.870
64713W        W24007  25.177  38.343  14.902
64714W        W24008   0.799  41.983   1.332
64715W        W24009  12.316  12.227  11.431
64716W        W24010   4.765   8.282   4.782
64717W        W24011  39.046   7.358  12.856
64718W        W24012  20.649  16.651  11.610
64719W        W24013  19.601  31.511   0.436
64720W        W24014  20.710   1.883  13.533
64721W        W24015  38.544   4.844  12.429
64722W        W24016  42.790  27.506  10.900
64723W        W24017  23.597   4.366  11.046
64724W        W24018  29.108  15.162   0.734
64725W        W24019   2.953  21.726   2.247
64726W        W24020  35.468  31.458   1.786
64727W        W24021  21.123   4.430  11.451
64728W        W24022  42.436  32.630  10.639
64729W        W24023  23.683  32.629   3.785
64730W        W24024   8.295  28.096  12.088
64731W        W24025  15.708  13.802   2.284
64732W        W24026  20.705  28.079   3.654
64733W        W24027  36.441  37.554   4.133
64734W        W24028  41.385  18.565   2.370
64735W        W24029   6.845  20.040  12.893
64736W        W24030   3.938  30.479   4.163
64737W        W24031  40.843  26.093   4.141
64738W        W24032  32.589  25.089  12.407
64739W        W24033  34.045   7.847  13.531
64740W        W24034  23.101  17.147  11.007
64741W        W24035  27.471   7.897   1.887
64742W        W24036   5.766   4.878  12.434
64743W        W24037   4.897   8.219  11.126
64744W        W24038  15.671   7.855  14.814
64745W        W24039  23.190  42.963  10.977
64746W        W24040   5.335   4.427  14.849
64747W        W24041   2.962  43.516  11.471
64748W        W24042  26.176  30.975  11.533
64749W        W24043  22.253   5.420  12.038
64750W        W24044  23.203  35.913   0.962
64751W        W24045  40.866  38.471   2.231
64752W        W24046  34.887  40.335  12.499
64753W        W24047  32.117   5.385  14.883
64754W        W24048  41.318   6.807  12.852
64755W        W24049  30.466  33.074  10.640
64756W        W24050  16.758  44.858  12.542
64757W        W24051  32.434  15.296   4.836
64758W        W24052  19.272  39.818   2.867
64759W        W24053  29.062  19.191   1.747
64760W        W24054  39.446  16.796  13.936
64761W        W24055  22.214   7.898  11.053
64762W        W24056  29.623  20.616   4.651
64763W        W24057  44.453  16.626  13.357
64764W        W24058   1.839   3.849   3.712
64765W        W24059  13.348  44.350  13.864
64766W        W24060  10.296  28.590   1.833
64767W        W24061   4.358   6.228  10.942
64768W        W24062  17.274  38.550   1.444
64769W        W24063  19.046  36.048   3.792
64770W        W24064  10.737  32.568  14.013
64771W        W24065   3.335  42.357  12.347
64772W        W24066   5.807  44.808  10.923
64773W        W24067   8.231  27.669   0.426
64774W        W24068  36.041  22.538   2.728
64775W        W24069  13.822  34.947  14.967
64776W        W24070   2.723  13.285   1.822
64777W        W24071  10.674  23.727  14.305
64778W        W24072   1.898   3.385   3.655
64779W        W24073  13.134  42.380  10.541
64780W        W24074  19.612   0.913  13.399
64781W        W24075  12.303  27.561  14.778
64782W        W24076  27.122   3.798  12.391
64783W        W24077   8.357  18.280   4.187
64784W        W24078   3.450  41.306  10.529
64785W        W24079  27.003  11.337  11.978
64786W        W24080   3.312  44.900  11.966
64787W        W24081   7.729  14.624   4.726
64788W        W24082   5.249  41.936  11.382
64789W        W24083  21.641  30.421  12.849
64790W        W24084  24.664  30.090   2.697
64791W        W24085  24.497  27.121   3.854
64792W        W24086  25.104  10.875   1.805
64793W        W24087  31.601   6.315  11.056
64794W        W24088  36.411  42.838  14.821
64795W        W24089  17.100  41.919   2.685
64796W        W24090  41.301  11.859  12.056
64797W        W24091  34.469  18.212   1.233
64798W        W24092   3.782  39.910   2.794
64799W        W24093  14.098   9.700   5.679
64800W        W24094  41.517  35.468  11.541
64801W        W24095  15.129  35.401   4.290
64802W        W24096  26.991  35.961   5.260
64803W        W24097   9.328  37.544   1.340
64804W        W24098   2.327  26.056  13.523
64805W        W24099  26.968  19.580   0.740
64806W        W24100  16.758   1.850   4.269
64807W        W24101  41.450  22.632  10.599
64808W        W24102  41.513   3.900  11.085
64809W        W24103  37.900   1.398  10.425
64810W        W24104  36.941  32.944  13.456
64811W        W24105  33.021   4.888  11.586
64812W        W24106  20.739  32.625  10.994
64813W        W24107   3.773  25.686   2.344
64814W        W24108  20.229  44.361   2.818
64815W        W24109   6.205   4.347   4.697
64816W        W24110   0.375  22.694  12.081
64817W        W24111   1.916   9.836  14.945
64818W        W24112  30.987  25.690   4.121
64819W        W24113  20.602  10.654   3.323
64820W        W24114  15.585  11.245  14.870
64821W        W24115   6.407  19.225  10.411
64822W        W24116   2.765  34.581   4.263
64823W        W24117  43.813  12.276   4.722
64824W        W24118  30.657  28.140  11.534
64825W        W24119  34.470  14.172  12.558
64826W        W24120   7.850  31.515  13.831
64827W        W24121   7.744  43.432  11.543
64828W        W24122   7.762  44.787   1.742
64829W        W24123  13.819  26.150   3.229
64830W        W24124  24.641   2.726  12.499
64831W        W24125  12.220  10.699  13.313
64832W        W24126   3.917  26.015  13.492
64833W        W24127  13.244  33.556  11.388
64834W        W24128  35.924  41.398   4.245
64835W        W24129  42.873  31.066  11.930
64836W        W24130  16.720  36.869  14.791
64837W        W24131  39.063  14.677  14.307
64838W        W24132  32.590  16.131  13.924
64839W        W24133  43.383  18.618  12.886
64840W        W24134  28.059  31.644   2.353
64841W        W24135  18.086   5.839   1.307
64842W        W24136   1.277   4.382   3.229
64843W        W24137  20.209   6.746   2.721
64844W        W24138  20.249  10.736   2.216
64845W        W24139  11.645  21.534   4.184
64846W        W24140   2.859  10.789  12.020
64847W        W24141  23.238  31.553   3.828
64848W        W24142  25.037  28.541  11.042
64849W        W24143  41.371  35.580   1.293
64850W        W24144  16.083   9.356   3.809
64851W        W24145  29.604   3.437   0.898
64852W        W24146   8.690  40.387  14.945
64853W        W24147  14.304  32.961   4.692
64854W        W24148  10.817  16.208  11.083
64855W        W24149  32.583   1.340  10.422
64856W        W24150   8.803  44.423  10.476
64857W        W24151   3.773  42.951   2.209
64858W        W24152  18.199  30.508   0.275
64859W        W24153  44.267  23.010   3.804
64860W        W24154  14.692  14.632  14.771
64861W        W24155  18.056  19.248  11.902
64862W        W24156  39.430  18.160  10.975
64863W        W24157  32.096  11.800   2.814
64864W        W24158  20.720  23.698   2.664
64865W        W24159  40.362  30.640   2.365
64866W        W24160  41.823   0.342   0.276
64867W        W24161  36.079  29.031   3.313
64868W        W24162   5.928  26.208  10.983
64869W        W24163  33.111  15.300  14.454
64870W        W24164  11.791   3.231   3.772
64871W        W24165   2.751  39.345  10.582
64872W        W24166  19.612  35.016  12.340
64873W        W24167   7.877   2.307  13.019
64874W        W24168  22.613  44.851  13.309
64875W        W24169  22.541  43.299   2.361
64876W        W24170  11.821  35.906  11.538
64877W        W24171  31.062   2.374  11.092
64878W        W24172   6.828  43.765  13.517
64879W        W24173  31.911   7.713   4.623
64880W        W24174  27.053   3.763   4.337
64881W        W24175  41.992  27.942  10.492
64882W        W24176  12.619  26.630   1.842
64883W        W24177   0.358  11.817  13.363
64884W        W24178  28.970  36.940  11.513
64885W        W24179   3.350  21.112  12.987
64886W        W24180  23.666  41.813  12.919
64887W        W24181  31.037  18.268  10.977
64888W        W24182  23.145  34.956   1.896
64889W        W24183  28.175  37.887  12.363
64890W        W24184  37.964  26.060   0.377
64891W        W24185  33.963  18.123   3.243
64892W        W24186   5.721  34.567  14.512
64893W        W24187  34.419  22.101   0.810
64894W        W24188   9.691   9.190   0.475
64895W        W24189   0.792  33.500   4.738
64896W        W24190  39.063  13.242  14.864
64897W        W24191  20.233   4.347  13.519
64898W        W24192  36.429   6.696  14.985
64899W        W24193  13.141  25.011   4.743
64900W        W24194   8.342  16.675   4.227
64901W        W24195  10.368  13.787   1.845
64902W        W24196   0.419   5.801  14.792
64903W        W24197   9.870  22.188   1.400
64904W        W24198  43.473  14.619   1.832
64905W        W24199   6.206  28.004   1.297
64906W        W24200  10.649  11.359  11.063
64907W        W24201  25.999  19.748   4.223
64908W        W24202  25.987  28.511  10.471
64909W        W24203  25.159  26.201  12.865
64910W        W24204  40.388  38.453   1.375
64911W        W24205  12.800  31.941  10.454
64912W        W24206   0.874   3.718   0.855
64913W        W24207  18.286   5.298  11.864
64914W        W24208  15.820  25.003  11.587
64915W        W24209  33.447  33.390  12.022
64916W        W24210   1.248  25.183  14.338
64917W        W24211  37.410  13.141   5.191
64918W        W24212  14.270   7.861  13.054
64919W        W24213  23.217  17.087  14.374
64920W        W24214   2.835  16.133  14.964
64921W        W24215  16.252   7.861   2.847
64922W        W24216  41.303  30.644  14.422
64923W        W24217  30.034   0.308  11.892
64924W        W24218  25.166  40.483  14.461
64925W        W24219  40.979  27.553   2.182
64926W        W24220  27.538  36.357   3.315
64927W        W24221  42.495  17.646  10.917
64928W        W24222  23.629  26.495   1.351
64929W        W24223   1.299  16.163   2.219
64930W        W24224  17.613   3.755   3.660
64931W        W24225  23.104   7.880  14.301
64932W        W24226  44.373  20.250   0.342
64933W        W24227  12.680  30.572  12.922
64934W        W24228   3.333  42.025   0.899
64935W        W24229  43.482  44.499   1.924
64936W        W24230  34.865  17.642   2.399
64937W        W24231  12.786  34.899   2.841
64938W        W24232  32.557  17.265  14.002
64939W        W24233   2.816  16.226  12.434
64940W        W24234  28.127  42.969   1.778
64941W        W24235  16.297  33.945  13.307
64942W        W24236   2.259   6.837   2.842
64943W        W24237  18.686   4.211  11.008
64944W        W24238   8.378  11.358   1.838
64945W        W24239   1.795   5.828   2.347
64946W        W24240   6.402  10.236   9.940
64947W        W24241  17.266  39.039   4.250
64948W        W24242  11.317  40.984  10.947
64949W        W24243  24.604  38.346  12.461
64950W        W24244  10.827  12.131   3.261
64951W        W24245  37.934   7.846  12.474
64952W        W24246  16.700  35.443  11.546
64953W        W24247  22.713  35.561   0.390
64954W        W24248  17.722   1.283   1.241
64955W        W24249   0.265  44.805  14.990
64956W        W24250  40.421  21.686   4.281
64957W        W24251  14.651  36.909  14.972
64958W        W24252  24.125   1.408   1.806
64959W        W24253  11.862  36.506   4.626
64960W        W24254  20.250  25.035   2.893
64961W        W24255  33.878  41.879  13.994
64962W        W24256  24.188   1.281   4.260
64963W        W24257  32.562  33.421  14.352
64964W        W24258  19.251   5.689   0.730
64965W        W24259   7.311  26.998   2.898
64966W        W24260  42.953  38.521   0.861
64967W        W24261   6.280   6.265   0.388
64968W        W24262  38.029  38.464  12.029
64969W        W24263  29.121   1.458   3.285
64970W        W24264  18.657  36.503   3.342
64971W        W24265  21.704   3.292  12.842
64972W        W24266  40.994  20.585  10.932
64973W        W24267  32.964  40.313  13.930
64974W        W24268  40.968   3.237  10.931
64975W        W24269  36.481   5.861  10.978
64976W        W24270   5.215  20.751   1.371
64977W        W24271   6.820  19.620   4.803
64978W        W24272  26.573  34.412   2.224
64979W        W24273  20.208  41.812  12.982
64980W        W24274  25.590  39.909   4.796
64981W        W24275   5.304  37.528  11.443
64982W        W24276  25.617  31.028  13.006
64983W        W24277  38.464  40.932   2.738
64984W        W24278  18.230  32.063  11.949
64985W        W24279  42.462  28.458  11.862
64986W        W24280  21.623  39.496  11.577
64987W        W24281  35.869   1.262   4.734
64988W        W24282  40.842  19.042  10.496
64989W        W24283  32.487   2.389   1.856
64990W        W24284  36.459  26.468  11.056
64991W        W24285  28.015  29.028   0.433
64992W        W24286  15.592  33.566  13.419
64993W        W24287  34.394  22.145  14.992
64994W        W24288  34.609  31.478  14.897
64995W        W24289  23.714  36.382  13.523
64996W        W24290  38.546  26.062   4.822
64997W        W24291  14.248  13.129   1.338
64998W        W24292  19.591  18.191   1.401
64999W        W24293  21.524  25.128  11.123
65000W        W24294  28.520   5.196  14.311
65001W        W24295  39.444  15.790   9.946
65002W        W24296   7.690  43.513  14.793
65003W        W24297   0.923  44.489  11.073
65004W        W24298   5.437  34.608   4.143
65005W        W24299  43.884  35.967  14.406
65006W        W24300  28.185  44.458   5.218
65007W        W24301  20.524  20.058   4.638
65008W        W24302  36.923  38.546  13.409
65009W        W24303   6.386  18.278   4.597
65010W        W24304  32.885   0.780  14.322
65011W        W24305  31.436  29.101   3.242
65012W        W24306  16.625  41.315   4.235
65013W        W24307  14.663  35.077   2.188
65014W        W24308   2.343  10.860  13.517
65015W        W24309  39.988   9.655   3.238
65016W        W24310  43.505  42.777  14.457
65017W        W24311  37.023  11.166  12.534
65018W        W24312  44.483  17.674   1.882
65019W        W24313  31.503   0.952   0.873
65020W        W24314   3.930  36.500   1.440
65021W        W24315   6.282   6.727   1.308
65022W        W24316   5.247  44.359  11.489
65023W        W24317  15.750  39.831   4.261
65024W        W24318  18.262  26.025  11.489
65025W        W24319   7.792  15.718   3.218
65026W        W24320  27.174  11.723   2.815
65027W        W24321  38.828  13.340  13.009
65028W        W24322  44.425  18.575  10.915
65029W        W24323  28.678   1.276  10.526
65030W        W24324  31.038   7.819   1.731
65031W        W24325   2.773  17.669  12.066
65032W        W24326  21.116  27.969  13.819
65033W        W24327  26.177  30.967  13.974
65034W        W24328  28.642   8.837   3.359
65035W        W24329  12.813  39.469   4.752
65036W        W24330   6.729  32.605  11.507
65037W        W24331  33.049   1.387  10.641
65038W        W24332  17.788  44.887   3.222
65039W        W24333   5.417   6.846   4.756
65040W        W24334  20.155  21.040  13.978
65041W        W24335   2.825  33.519  13.791
65042W        W24336  37.562  16.285   1.355
65043W        W24337  14.228  37.341  10.437
65044W        W24338  27.123   7.244   1.211
65045W        W24339  33.945  11.854  14.397
65046W        W24340  31.113  29.960  11.053
65047W        W24341  43.875  27.573   0.265
65048W        W24342  30.553  15.134  14.449
65049W        W24343  11.180  35.103   3.315
65050W        W24344  19.723  16.101   3.371
65051W        W24345  28.676   9.688  13.966
65052W        W24346   4.858   1.423   3.371
65053W        W24347   4.250  40.005   4.209
65054W        W24348  39.042  41.360   4.722
65055W        W24349  35.456  30.512   0.934
65056W        W24350  32.942  18.261  12.467
65057W        W24351  23.196  27.572   1.396
65058W        W24352   4.911  30.159  14.309
65059W        W24353   6.732  21.196  13.905
65060W        W24354  29.634  14.593   4.611
65061W        W24355  36.461   6.813  14.483
65062W        W24356   6.802  19.729  14.465
65063W        W24357  10.247  21.739  11.930
65064W        W24358  43.954  24.086   0.361
65065W        W24359  33.395   9.649   1.860
65066W        W24360   6.902  44.846  11.591
65067W        W24361   1.775   4.797  12.018
65068W        W24362  27.578  41.328   1.366
65069W        W24363  35.034  15.303  13.954
65070W        W24364  20.687  42.287  10.440
65071W        W24365  37.430  34.873   3.335
65072W        W24366   8.867  41.998   0.798
65073W        W24367  25.536  20.189  14.422
65074W        W24368   4.918  27.467   2.767
65075W        W24369  20.723  23.225   9.933
65076W        W24370  38.511  31.529  11.598
65077W        W24371  31.443  26.564  14.507
65078W        W24372  40.830  16.110  11.924
65079W        W24373  32.914   8.847   1.266
65080W        W24374  16.773   0.267   3.715
65081W        W24375  15.631  28.524   1.827
65082W        W24376  38.022  28.053  11.470
65083W        W24377  24.167  42.948  13.997
65084W        W24378  26.643  31.408   1.415
65085W        W24379  31.474   7.295  12.021
65086W        W24380  35.999  36.482  12.460
65087W        W24381  22.241  33.096   3.287
65088W        W24382   2.966   7.180   0.421
65089W        W24383  37.916  35.922   2.728
65090W        W24384  37.540  13.284  11.015
65091W        W24385  39.012  29.135   5.281
65092W        W24386  31.020   2.836   4.315
65093W        W24387  13.119   1.888   2.241
65094W        W24388  42.502  38.999   2.340
65095W        W24389  27.544  43.795  12.958
65096W        W24390  10.692  27.080   0.261
65097W        W24391  41.384  43.970   2.233
65098W        W24392  24.566  21.663  10.555
65099W        W24393  40.371  32.480   3.723
65100W        W24394  33.575  29.531  10.524
65101W        W24395  18.728  15.267  10.618
65102W        W24396  27.185  27.008  11.580
65103W        W24397  13.189  27.683   4.609
65104W        W24398  15.274   2.923   0.376
65105W        W24399  40.037   9.393   0.935
65106W        W24400  38.350  44.806   4.348
65107W        W24401  17.249   4.312  10.481
65108W        W24402  42.351   1.832   1.228
65109W        W24403   6.738  35.105   0.384
65110W        W24404  24.143  41.392  11.977
65111W        W24405  29.623   5.689   4.152
65112W        W24406  42.512  14.601  14.278
65113W        W24407  32.108  34.051  10.997
65114W        W24408  33.124  29.983  11.508
65115W        W24409  35.495   6.712   2.181
65116W        W24410  13.284  31.445  10.955
65117W        W24411  44.812  35.480  10.511
65118W        W24412   1.864  38.066   1.257
65119W        W24413  15.750  26.150   0.315
65120W        W24414  28.067  14.756   0.352
65121W        W24415  28.531  40.387  10.926
65122W        W24416  19.739   8.255   2.709
65123W        W24417  13.628  44.881  12.542
65124W        W24418  13.156  34.608  11.476
65125W        W24419   4.868  26.027   1.770
65126W        W24420  10.676  15.211  11.564
65127W        W24421  41.958   9.852  14.871
65128W        W24422  38.440   1.429  10.432
65129W        W24423  32.403  18.694   3.729
65130W        W24424  19.213  42.445  13.462
65131W        W24425  39.546  23.583   0.365
65132W        W24426  36.373  23.694   3.841
65133W        W24427   1.318  11.327  14.913
65134W        W24428  33.568  39.439  11.013
65135W        W24429  40.849  10.262  11.470
65136W        W24430   9.737  44.843   2.259
65137W        W24431  19.633  40.899  12.997
65138W        W24432  35.504  33.940  13.502
65139W        W24433  24.108  30.979   2.195
65140W        W24434   5.792  34.424   1.909
65141W        W24435  18.271  18.578  13.032
65142W        W24436   7.402  31.020  11.527
65143W        W24437  38.839  39.325   0.887
65144W        W24438  15.124  16.223  14.831
65145W        W24439  27.158  20.591  14.439
65146W        W24440  32.441  38.466  11.103
65147W        W24441   8.273  16.636  14.018
65148W        W24442  15.580  14.604   2.839
65149W        W24443  43.318  20.127  11.613
65150W        W24444  23.637  37.376  11.568
65151W        W24445  20.745   1.941  13.960
65152W        W24446  35.028  17.294   0.261
65153W        W24447  16.759  16.599   4.262
65154W        W24448  12.621  14.266   3.837
65155W        W24449  30.990   5.697  13.391
65156W        W24450   0.892  44.952  10.561
65157W        W24451   4.321   9.383   3.664
65158W        W24452  25.168  21.232  10.434
65159W        W24453  42.282  44.958   5.143
65160W        W24454  26.969  43.444  10.958
65161W        W24455   7.408   7.756  13.465
65162W        W24456  39.926   8.861   4.252
65163W        W24457  36.568  39.920  10.149
65164W        W24458  42.956  11.687  12.847
65165W        W24459  18.135  42.426  10.974
65166W        W24460  29.929  15.318   4.621
65167W        W24461  20.222   7.389  12.535
65168W        W24462  21.746  34.873   1.716
65169W        W24463  44.448  33.450  14.918
65170W        W24464   1.253   0.448   4.671
65171W        W24465   9.833  10.344  10.561
65172W        W24466   0.899  10.181   2.822
65173W        W24467  30.576   4.443  13.415
65174W        W24468  13.332  16.132  11.016
65175W        W24469  40.314  18.680  14.448
65176W        W24470  35.080   4.410  10.607
65177W        W24471   0.392   6.382   0.929
65178W        W24472  12.164  25.515   1.843
65179W        W24473   6.710  12.644  14.497
65180W        W24474  44.792   2.775  14.833
65181W        W24475  23.709  18.591  10.973
65182W        W24476  11.738  15.704  11.382
65183W        W24477   9.689   9.696   3.829
65184W        W24478   8.656  42.783  10.416
65185W        W24479  10.665  21.138   3.734
65186W        W24480  31.059  44.429  12.073
65187W        W24481   9.775   0.492   0.944
65188W        W24482  34.536  20.241  10.469
65189W        W24483   1.267  35.597  10.539
65190W        W24484  16.768  12.301   1.269
65191W        W24485  35.411  28.103  14.935
65192W        W24486  19.614  28.055  10.618
65193W        W24487  31.580  16.789  11.088
65194W        W24488  11.714  29.011   0.356
65195W        W24489   0.923  13.702   0.746
65196W        W24490  15.183   6.421  13.962
65197W        W24491  12.661  34.880  13.362
65198W        W24492  41.990  32.590  11.437
65199W        W24493  22.129   0.435   2.822
65200W        W24494  31.136  36.040   0.270
65201W        W24495  23.588  32.613  14.352
65202W        W24496   0.372  37.340  14.510
65203W        W24497  36.903  21.259   1.736
65204W        W24498  15.802  38.348   3.851
65205W        W24499  22.181  27.979  10.524
65206W        W24500   2.842  44.887   2.352
65207W        W24501  31.066  15.762  14.031
65208W        W24502  35.560  38.964  14.003
65209W        W24503  34.536  18.236   3.364
65210W        W24504  33.994   8.767  11.432
65211W        W24505  30.107  25.477   0.746
65212W        W24506  34.615   9.729  12.949
65213W        W24507   2.870  37.947   2.325
65214W        W24508  22.667  21.554   0.732
65215W        W24509   9.241  38.014  14.989
65216W        W24510  11.686  24.702  10.112
65217W        W24511  44.850  29.613   4.722
65218W        W24512   5.331  19.229  11.006
65219W        W24513  21.104  38.340   3.180
65220W        W24514  14.733  28.483  12.556
65221W        W24515  41.387  28.638  10.590
65222W        W24516  10.725   5.895   3.265
65223W        W24517  31.100  44.804   1.898
65224W        W24518   5.265   8.374   0.872
65225W        W24519   9.211  12.134  12.987
65226W        W24520  13.831  12.792  14.853
65227W        W24521  30.464  31.108   4.174
65228W        W24522   2.331  20.577  14.957
65229W        W24523   6.386  23.541  12.009
65230W        W24524  44.434  19.649   0.760
65231W        W24525  18.644  12.359  11.608
65232W        W24526  34.527  32.950   9.944
65233W        W24527  17.272  44.785  14.446
65234W        W24528  29.135  19.754  10.622
65235W        W24529  36.884  32.410   3.738
65236W        W24530  43.993  30.089   3.376
65237W        W24531  33.427  19.548   0.769
65238W        W24532  29.606   1.895  10.591
65239W        W24533   1.357  21.098  10.967
65240W        W24534  28.186  40.385   5.136
65241W        W24535  29.502  26.460  12.346
65242W        W24536  15.277  43.446   2.232
65243W        W24537   2.411  19.096  10.637
65244W        W24538  35.602  44.314   1.899
65245W        W24539  23.091  17.125   1.256
65246W        W24540  28.980  25.968   1.371
65247W        W24541  11.661  25.490   4.601
65248W        W24542  30.935  33.401   0.332
65249W        W24543  11.231  38.458   4.260
65250W        W24544  24.535  31.488   3.826
65251W        W24545  11.686  33.613  14.415
65252W        W24546  23.093  19.647  12.508
65253W        W24547   0.898  13.221   3.749
65254W        W24548  38.994  31.553   0.425
65255W        W24549  19.078   1.369   1.796
65256W        W24550   3.431  43.870   0.841
65257W        W24551   9.874  30.520  11.592
65258W        W24552  14.301  27.670   4.724
65259W        W24553  14.310  44.778  14.760
65260W        W24554  25.472  37.044  11.419
65261W        W24555  27.950   7.736  14.474
65262W        W24556  39.037  36.451  12.465
65263W        W24557  17.628  31.896   5.157
65264W        W24558  11.144   5.406  11.604
65265W        W24559   0.343  17.600   3.379
65266W        W24560  17.176  21.139  12.515
65267W        W24561  31.431  16.228   3.378
65268W        W24562   8.275   7.401  11.024
65269W        W24563  13.705  37.943   3.805
65270W        W24564  22.614  25.142   0.378
65271W        W24565  24.487  14.226   2.224
65272W        W24566  35.522  38.973  10.579
65273W        W24567  41.340  32.922   1.232
65274W        W24568   7.806  28.437  14.370
65275W        W24569  13.307  36.558  12.043
65276W        W24570  35.090  33.069  14.401
65277W        W24571  18.169  31.992  14.904
65278W        W24572  41.510  27.143   0.820
65279W        W24573  17.061  39.814   2.259
65280W        W24574  24.600  43.980  11.055
65281W        W24575  41.837   1.780   3.161
65282W        W24576  20.741  44.798   0.947
65283W        W24577  36.013  13.808  12.928
65284W        W24578  13.330   4.267  12.064
65285W        W24579  19.563  10.737   2.695
65286W        W24580  26.530  33.079  14.453
65287W        W24581  41.842  43.934   2.733
65288W        W24582  38.432  11.133  10.509
65289W        W24583  42.304   9.352   2.416
65290W        W24584   2.377  14.688  13.819
65291W        W24585  31.443  11.629   1.346
65292W        W24586  27.014  10.689  10.978
65293W        W24587  24.693  29.636  12.997
65294W        W24588  41.889  42.806   2.265
65295W        W24589  41.947  31.088  13.855
65296W        W24590   1.282  23.123   1.230
65297W        W24591  18.706  14.621  11.030
65298W        W24592  11.320  28.063  12.054
65299W        W24593  27.094  42.826  13.940
65300W        W24594  18.679  15.727   1.914
65301W        W24595  15.595  35.512  10.422
65302W        W24596  39.365  26.604   4.154
65303W        W24597  37.014  29.627  13.493
65304W        W24598  19.701  15.740  14.873
65305W        W24599  22.067  35.581   4.765
65306W        W24600  12.752  36.901   3.768
65307W        W24601  38.953  11.166  10.428
65308W        W24602  38.026  19.616  13.062
65309W        W24603   9.819   8.359  10.506
65310W        W24604  28.664   9.330   1.363
65311W        W24605   2.470  26.628  13.474
65312W        W24606  38.943  13.146   4.259
65313W        W24607  15.597  32.053   0.340
65314W        W24608  39.545  42.371  12.977
65315W        W24609  37.003  22.718   3.384
65316W        W24610  38.358  30.942   4.218
65317W        W24611  14.707   6.378  13.005
65318W        W24612   8.677  35.369  14.904
65319W        W24613  10.342  20.141  10.553
65320W        W24614  23.239  12.622   2.899
65321W        W24615  22.011  14.599  10.531
65322W        W24616  40.846  28.073  13.964
65323W        W24617  39.511  41.794   1.372
65324W        W24618  41.963  19.063   0.298
65325W        W24619  23.108   0.768   2.201
65326W        W24620   4.242  26.513  10.553
65327W        W24621  17.233  38.426  12.490
65328W        W24622  24.669   8.884  12.390
65329W        W24623  16.627  12.238   2.345
65330W        W24624   2.892  42.983   3.815
65331W        W24625  42.792   2.814   1.274
65332W        W24626  30.494  44.290   3.807
65333W        W24627  31.599  43.473  12.952
65334W        W24628  35.968  42.011  13.544
65335W        W24629   1.281  11.805   2.321
65336W        W24630  10.757  33.024  13.063
65337W        W24631   1.789  33.881   4.658
65338W        W24632   2.275  33.568   1.219
65339W        W24633  29.651   0.330   2.187
65340W        W24634  12.682  43.924   4.243
65341W        W24635  44.941   3.316  11.024
65342W        W24636  12.227   7.847   0.339
65343W        W24637  16.802  23.047   4.129
65344W        W24638  44.765  23.068   2.836
65345W        W24639  32.569  35.418  14.910
65346W        W24640   6.873  32.887   0.920
65347W        W24641   1.463  19.699   1.859
65348W        W24642  43.337  24.224  13.941
65349W        W24643  13.294   2.752  14.304
65350W        W24644  16.302  29.988  10.614
65351W        W24645  11.349   8.790  11.070
65352W        W24646  40.904  26.632   1.361
65353W        W24647  24.497  13.293  14.002
65354W        W24648  38.467  17.304  12.476
65355W        W24649  37.541  37.422  13.870
65356W        W24650   8.840   8.327   0.308
65357W        W24651  21.127   1.347  14.298
65358W        W24652  18.268  19.226   9.976
65359W        W24653  27.674  40.366  13.001
65360W        W24654  20.676   4.725  14.866
65361W        W24655   2.352   4.719  12.362
65362W        W24656   2.435  17.728  13.333
65363W        W24657  43.512  27.087  10.574
65364W        W24658  41.928   0.348  12.548
65365W        W24659  28.485  11.308   4.324
65366W        W24660  18.612  33.915   2.211
65367W        W24661   1.779   9.163   2.184
65368W        W24662  17.643  32.972  14.350
65369W        W24663  37.905   5.228   4.814
65370W        W24664  33.079  37.018  10.591
65371W        W24665  29.126   4.771  10.092
65372W        W24666  14.316  21.738  14.767
65373W        W24667   4.717  13.322   2.394
65374W        W24668  25.995   7.235   1.397
65375W        W24669  25.695  43.380   3.146
65376W        W24670  38.004  13.703  10.612
65377W        W24671  36.381  26.570   4.216
65378W        W24672  17.296  18.283   0.382
65379W        W24673  16.726  14.596  11.011
65380W        W24674  38.950   2.245   1.417
65381W        W24675  27.543  17.760   0.347
65382W        W24676  30.912  37.054  10.150
65383W        W24677  41.450  16.248  13.525
65384W        W24678  17.585  36.487  12.881
65385W        W24679   6.869  28.466  12.894
65386W        W24680  18.270  15.754   3.775
65387W        W24681  10.838  19.282  13.477
65388W        W24682  25.128  19.137  11.455
65389W        W24683  19.616  39.873  13.834
65390W        W24684  31.481  15.187  10.421
65391W        W24685  39.060  44.302   1.341
65392W        W24686  12.287  36.954   3.183
65393W        W24687  32.636   6.902   2.898
65394W        W24688  25.021  22.054   2.291
65395W        W24689   2.459  24.173   1.730
65396W        W24690  29.504  12.705  11.521
65397W        W24691  41.788  21.643   1.889
65398W        W24692  34.942  31.080   1.286
65399W        W24693  41.992   0.823  12.981
65400W        W24694   0.972   8.190   3.710
65401W        W24695  22.192  27.147  14.406
65402W        W24696   4.415  15.725  10.997
65403W        W24697   0.911  35.968   2.297
65404W        W24698  31.522  41.462  13.521
65405W        W24699  31.116   0.899   0.850
65406W        W24700  37.977  42.808  10.982
65407W        W24701  39.334   0.842   3.173
65408W        W24702  15.092  39.466  14.767
65409W        W24703  14.205  10.360  13.012
65410W        W24704  38.537  33.122  14.859
65411W        W24705  40.964   9.791   4.774
65412W        W24706  36.459  42.840   5.097
65413W        W24707   4.368   4.777  12.042
65414W        W24708   2.922  34.902   3.858
65415W        W24709  41.428  22.603  12.974
65416W        W24710  39.031  12.798   1.369
65417W        W24711  33.889   7.911   2.830
65418W        W24712  17.259  38.912  10.532
65419W        W24713  43.878  12.126   2.795
65420W        W24714  38.469  35.924   4.200
65421W        W24715  18.594  18.763  12.062
65422W        W24716  24.118  29.140   0.319
65423W        W24717  35.038  35.984   1.278
65424W        W24718  12.715  38.075   3.176
65425W        W24719   9.822  36.592   3.806
65426W        W24720   8.870   5.795   4.702
65427W        W24721   3.395  42.011  11.966
65428W        W24722  35.492  26.635   1.869
65429W        W24723  16.721  32.452   3.231
65430W        W24724  19.268  21.036  14.500
65431W        W24725  39.367   2.331  12.576
65432W        W24726   7.784  23.139   2.183
65433W        W24727  43.336  14.194   3.150
65434W        W24728  32.899  42.416   1.317
65435W        W24729  17.710  34.606   2.758
65436W        W24730  32.478  28.019   2.238
65437W        W24731  43.806  30.150   4.623
65438W        W24732  20.218  30.966   3.263
65439W        W24733  44.903  42.462   0.854
65440W        W24734   1.360  28.047  14.894
65441W        W24735  17.141   7.809  13.794
65442W        W24736   9.669  36.043   3.268
65443W        W24737  26.131  43.915  12.048
65444W        W24738  29.993  19.107   2.220
65445W        W24739   0.439  14.136   1.443
65446W        W24740  19.143  20.196   0.788
65447W        W24741  37.859  41.984  12.469
65448W        W24742   5.242  14.166   3.335
65449W        W24743   0.831  22.592  14.796
65450W        W24744  10.767   1.844   1.716
65451W        W24745  16.651  39.521   4.306
65452W        W24746  44.272  23.625  13.455
65453W        W24747  27.558  34.441   3.174
65454W        W24748  20.112  11.747   3.867
65455W        W24749  31.956  33.474  12.084
65456W        W24750   4.920   3.328   0.816
65457W        W24751  42.834   3.215  13.499
65458W        W24752  18.590  36.098   0.482
65459W        W24753  15.103  41.874   3.699
65460W        W24754  12.343   7.299  12.020
65461W        W24755  13.199   4.764   1.769
65462W        W24756   4.767   3.297  12.540
65463W        W24757  20.580   0.423  10.937
65464W        W24758  11.785  30.625   1.720
65465W        W24759   4.318  39.540   1.815
65466W        W24760  11.736  36.570  13.927
65467W        W24761  29.492  16.766  14.386
65468W        W24762  14.206   9.198  10.582
65469W        W24763  13.146   7.811  11.450
65470W        W24764  39.547  34.112  13.855
65471W        W24765   2.277   5.770  14.393
65472W        W24766  44.421  10.651   2.391
65473W        W24767  37.007  12.346  11.984
65474W        W24768  12.757  27.650  14.458
65475W        W24769  16.593  18.711   4.218
65476W        W24770  26.460   0.853  12.443
65477W        W24771  41.387  17.295  12.064
65478W        W24772  22.214  33.914   2.671
65479W        W24773  36.543  32.593  12.013
65480W        W24774  13.659  22.723   0.954
65481W        W24775  18.554  22.702   2.299
65482W        W24776   8.898  11.242  14.379
65483W        W24777   1.958  33.904   1.329
65484W        W24778  33.132  17.718   0.412
65485W        W24779   5.811  12.236  11.964
65486W        W24780   7.807  19.156   2.817
65487W        W24781  24.547  11.676  14.969
65488W        W24782   0.391  34.559  12.911
65489W        W24783   3.251  37.340   1.808
65490W        W24784  30.571  23.552   3.676
65491W        W24785  12.295  24.030   0.755
65492W        W24786  15.670  34.524  13.913
65493W        W24787   1.442  39.360   1.736
65494W        W24788  24.199  23.030  11.408
65495W        W24789  19.062  36.986   0.938
65496W        W24790  19.128   3.308   2.382
65497W        W24791  32.511   2.958   1.928
65498W        W24792  18.595   7.188   2.764
65499W        W24793  29.555  33.960   3.711
65500W        W24794  39.881  43.344   2.733
65501W        W24795  44.851  10.750   1.340
65502W        W24796  38.366   5.702  12.010
65503W        W24797   9.837  39.997   2.397
65504W        W24798   8.883  11.239   3.167
65505W        W24799  25.581  39.427  13.920
65506W        W24800  18.774  20.687  14.466
65507W        W24801  32.898  27.194  11.897
65508W        W24802  27.148  13.818   3.844
65509W        W24803  42.282  43.003  10.932
65510W        W24804   6.346  43.417   4.145
65511W        W24805  18.203  17.076   3.834
65512W        W24806  29.664  15.582  11.411
65513W        W24807  10.170  38.472  13.018
65514W        W24808  43.340  31.066   3.349
65515W        W24809   3.301  20.119   2.755
65516W        W24810   9.726  37.524  12.029
65517W        W24811  37.401   3.929   0.463
65518W        W24812   5.281  40.497   1.297
65519W        W24813   5.817   1.882  14.445
65520W        W24814  21.665   1.731   0.868
65521W        W24815  25.095  44.362   3.324
65522W        W24816   0.988  21.601   0.245
65523W        W24817  11.672   4.307   1.709
65524W        W24818   5.376  27.050  12.844
65525W        W24819  17.084  19.586  11.939
65526W        W24820  39.994  23.208  13.373
65527W        W24821  14.772  13.270   3.225
65528W        W24822  28.582  15.759   1.826
65529W        W24823  28.502   3.360  13.845
65530W        W24824   9.789   2.788   2.257
65531W        W24825  11.644  32.120  10.999
65532W        W24826  16.719  21.729  13.030
65533W        W24827  39.554  31.955  13.833
65534W        W24828  16.208  39.877   2.894
65535W        W24829  19.226  30.449   0.420
65536W        W24830  32.962  22.668   2.882
65537W        W24831  36.442  38.891   4.159
65538W        W24832  13.791  15.129   9.964
65539W        W24833  39.936   8.826  12.413
65540W        W24834  27.649  42.984  12.437
65541W        W24835  40.486  16.578   2.859
65542W        W24836  35.987  37.077  14.435
65543W        W24837   9.804   6.362  10.606
65544W        W24838  26.462   6.393  10.925
65545W        W24839   2.375  24.165   3.313
65546W        W24840  44.281   3.714   5.312
65547W        W24841  17.625  23.205   4.322
65548W        W24842   8.662  15.118   3.725
65549W        W24843  33.115  31.573  10.438
65550W        W24844   9.217  18.561  14.812
65551W        W24845  25.512  33.499  12.420
65552W        W24846   1.842  44.902  14.317
65553W        W24847  20.594   8.403  10.060
65554W        W24848  27.059  23.512   4.799
65555W        W24849  28.506  38.076  13.827
65556W        W24850  17.735   7.909  12.026
65557W        W24851  27.180  22.719  12.342
65558W        W24852   7.852   8.777   3.834
65559W        W24853  17.088  11.722   1.774
65560W        W24854  37.497  33.036   2.702
65561W        W24855   7.183  15.685   2.861
65562W        W24856  11.253  20.180  12.350
65563W        W24857  26.597  29.121   3.382
65564W        W24858  15.088   3.814   1.390
65565W        W24859   4.924  35.073   1.248
65566W        W24860  31.083  32.888  14.941
65567W        W24861  14.593  38.560   4.754
65568W        W24862  10.866  21.172  13.447
65569W        W24863   8.335  38.540   2.399
65570W        W24864   0.762  28.440   4.251
65571W        W24865  28.030  37.897  11.584
65572W        W24866  13.837  30.468  12.081
65573W        W24867  15.140  27.068  10.508
65574W        W24868  14.166  21.609   5.186
65575W        W24869  15.087  33.598   2.797
65576W        W24870  18.697   3.271  14.335
65577W        W24871  36.964  39.437  14.022
65578W        W24872  19.769  29.458  13.962
65579W        W24873  25.519  19.221  14.326
65580W        W24874   3.949  33.388  10.969
65581W        W24875  17.075  37.356   4.328
65582W        W24876  35.055  11.724  10.479
65583W        W24877   3.288  23.051  13.832
65584W        W24878  16.698  31.598   2.778
65585W        W24879   4.785  10.804   2.763
65586W        W24880  35.357  34.989  13.307
65587W        W24881   1.441  12.172   1.303
65588W        W24882  10.667  26.610  14.793
65589W        W24883  35.967  25.089  11.540
65590W        W24884  21.520  42.958   0.301
65591W        W24885  33.091  10.874  11.498
65592W        W24886   2.793  24.000  12.087
65593W        W24887  27.966  25.511  14.785
65594W        W24888  40.308   9.283   3.218
65595W        W24889  30.649  34.059  10.894
65596W        W24890   5.212   1.800  14.847
65597W        W24891  16.576  40.537   3.344
65598W        W24892  30.965  17.222  13.984
65599W        W24893  31.524  37.456  11.604
65600W        W24894  26.637  22.658   3.763
65601W        W24895   1.754  41.323   1.403
65602W        W24896   6.827  37.965   2.829
65603W        W24897  16.809  12.718  14.413
65604W        W24898  36.358  33.969   2.363
65605W        W24899  32.916  26.103  10.603
65606W        W24900  36.431  11.820  13.403
65607W        W24901  23.513   4.214  13.941
65608W        W24902  11.332  20.596  13.972
65609W        W24903  15.608   8.361  12.939
65610W        W24904  27.147  27.949  14.032
65611W        W24905  19.236   7.306  14.026
65612W        W24906  38.339   9.703   4.235
65613W        W24907  32.931  36.388   0.822
65614W        W24908   5.241  42.874  13.987
65615W        W24909  20.236  31.600  13.445
65616W        W24910  35.539  14.282   1.833
65617W        W24911  25.576   1.823  11.032
65618W        W24912   6.225  43.493  14.853
65619W        W24913   9.655  42.306  13.969
65620W        W24914  44.424  44.370   2.362
65621W        W24915  21.609  37.421  13.037
65622W        W24916   8.183  40.488  13.359
65623W        W24917   2.422  11.761   2.230
65624W        W24918  32.905  41.810   3.354
65625W        W24919  39.959  22.629   0.939
65626W        W24920  18.757  38.563   2.206
65627W        W24921   4.319  40.361  12.856
65628W        W24922  16.190  41.834   2.375
65629W        W24923  33.491   2.867  10.615
65630W        W24924   3.413   0.958   5.309
65631W        W24925  43.412  33.503  13.980
65632W        W24926  10.729  18.287   1.748
65633W        W24927  32.955  16.104   0.744
65634W        W24928  10.170   1.479   4.645
65635W        W24929  40.494   0.393  14.469
65636W        W24930  34.394   7.377   0.307
65637W        W24931  41.341   0.323   1.787
65638W        W24932  13.106   6.221   0.733
65639W        W24933  23.726  34.957  10.566
65640W        W24934  31.609  44.837  11.453
65641W        W24935  12.670   9.699  13.980
65642W        W24936  39.895  30.602  12.541
65643W        W24937  28.628  23.520   4.825
65644W        W24938  19.744  32.086   1.426
65645W        W24939  41.361  43.822  13.511
65646W        W24940  11.298  28.075  11.061
65647W        W24941  18.615   2.395  10.636
65648W        W24942  44.948  30.149  10.960
65649W        W24943  37.546  30.468  11.059
65650W        W24944  15.667  13.737   0.875
65651W        W24945  37.954   0.308  10.892
65652W        W24946  37.402  13.622   3.693
65653W        W24947  43.805  17.079   4.202
65654W        W24948  40.515  12.232  12.991
65655W        W24949  43.980   2.781  13.814
65656W        W24950   0.751  11.634   1.700
65657W        W24951  31.529  20.091  11.376
65658W        W24952  41.359  10.648   4.285
65659W        W24953  15.188  35.425  14.999
65660W        W24954  15.087  30.500   0.774
65661W        W24955   7.357  18.687  13.985
65662W        W24956  13.147  36.031   1.284
65663W        W24957  12.822  10.352  14.410
65664W        W24958   4.814  21.745   3.227
65665W        W24959  24.712   4.376  14.943
65666W        W24960  35.360   8.788  14.445
65667W        W24961  24.520  10.810  11.426
65668W        W24962   2.446   2.343   3.785
65669W        W24963  43.879  30.120  14.762
65670W        W24964  28.554  34.462   3.764
65671W        W24965  43.848  24.535   1.303
65672W        W24966  19.637  44.317  12.827
65673W        W24967  31.636  15.596  13.394
65674W        W24968  42.353  16.113  12.342
65675W        W24969  23.676  41.292   4.809
65676W        W24970  14.820  34.379   2.258
65677W        W24971   8.319  31.031  14.467
65678W        W24972  40.984  40.819  12.059
65679W        W24973  39.880  25.619  13.915
65680W        W24974  22.074  15.631   3.196
65681W        W24975   3.389  25.548  14.817
65682W        W24976  34.915  29.956  12.844
65683W        W24977  22.092  31.071   1.303
65684W        W24978  12.705  12.136  12.483
65685W        W24979  11.780   1.259   4.816
65686W        W24980   3.734  29.134   1.839
65687W        W24981  40.951  39.517   3.304
65688W        W24982  25.476  27.150   1.340
65689W        W24983  20.189  30.912   1.365
65690W        W24984  41.363  24.683   4.660
65691W        W24985   0.952  36.910   0.774
65692W        W24986  42.779   6.300   4.759
65693W        W24987   8.780  43.386   2.674
65694W        W24988  25.129  21.126  13.865
65695W        W24989   7.195   6.219   4.610
65696W        W24990  20.113  23.683   2.409
65697W        W24991  35.925  10.258   2.210
65698W        W24992   8.871  24.993   4.620
65699W        W24993  34.429  29.598   0.393
65700W        W24994  44.906  23.511  14.837
65701W        W24995  14.697   8.654  14.778
65702W        W24996  38.999  28.497   4.173
65703W        W24997  18.676  44.306   4.686
65704W        W24998  22.153   3.430   3.212
65705W        W24999  27.132  35.459   2.780
65706W        W25000  17.659  39.381  12.883
65707W        W25001   2.898  37.478   4.740
65708W        W25002   5.376  21.107  12.055
65709W        W25003   4.899  28.113   0.804
65710W        W25004  16.796  28.004  14.359
65711W        W25005  29.558  35.478   1.869
65712W        W25006  10.329   6.865  13.436
65713W        W25007  18.782  17.681   4.142
65714W        W25008   5.787  14.679   0.294
65715W        W25009  23.520  41.339  11.074
65716W        W25010  33.052   9.882   9.448
65717W        W25011  25.164   5.732   9.926
65718W        W25012   0.903  39.402  12.951
65719W        W25013  28.127  28.679  11.060
65720W        W25014  15.168  29.157  11.974
65721W        W25015  22.735  20.198   0.817
65722W        W25016  35.523  15.166   0.944
65723W        W25017  24.203  16.207   4.829
65724W        W25018  40.936  19.664  10.435
65725W        W25019  35.366   4.361  13.880
65726W        W25020  37.880  19.614  12.339
65727W        W25021  16.588  35.925   4.294
65728W        W25022  43.304  15.201  12.371
65729W        W25023  23.711  18.242   0.836
65730W        W25024  19.281   0.277  11.028
65731W        W25025  13.666   0.931   3.206
65732W        W25026  40.951   9.661  12.478
65733W        W25027  17.119  43.887   4.636
65734W        W25028  31.083  23.507  13.962
65735W        W25029  39.419  14.111   1.761
65736W        W25030  15.205  10.706  10.895
65737W        W25031   4.860  37.865  10.582
65738W        W25032  26.534  14.180   3.666
65739W        W25033   1.477  13.746  11.907
65740W        W25034   9.704  15.186  12.521
65741W        W25035  22.579  34.903  11.587
65742W        W25036  15.322  36.908  10.623
65743W        W25037  10.858  17.627  10.410
65744W        W25038   2.405  33.012  14.340
65745W        W25039  38.484  21.150   0.909
65746W        W25040  11.136  24.585  14.455
65747W        W25041   8.784  10.285   2.901
65748W        W25042  31.990  38.821   0.372
65749W        W25043  26.967  17.202  10.625
65750W        W25044  14.813   3.929  14.866
65751W        W25045  33.124  18.129   4.829
65752W        W25046  24.091  42.380  11.534
65753W        W25047   7.317   8.668  12.540
65754W        W25048  13.620  19.538   3.778
65755W        W25049   4.206  18.072   3.866
65756W        W25050  20.197  25.149  12.852
65757W        W25051  11.242  43.964   0.343
65758W        W25052   6.827  15.647  11.040
65759W        W25053  15.111  33.574   1.876
65760W        W25054  20.699  29.037  13.430
65761W        W25055  23.191  28.990   1.830
65762W        W25056   4.375   4.860  11.121
65763W        W25057  25.662  44.308   4.229
65764W        W25058  34.381  20.706   2.308
65765W        W25059  19.277  30.045   1.745
65766W        W25060  35.860  44.454  13.007
65767W        W25061   7.895  10.203  13.533
65768W        W25062   0.868  30.637  10.476
65769W        W25063   4.836  16.178   4.301
65770W        W25064   9.685  41.020  14.885
65771W        W25065  33.502  29.956   4.175
65772W        W25066  10.219  37.435  12.020
65773W        W25067  20.031  30.092  11.970
65774W        W25068   4.439  29.531   3.171
65775W        W25069  43.276  22.199  14.416
65776W        W25070  41.851   7.875  11.858
65777W        W25071  13.339  25.469   2.212
65778W        W25072  29.988  27.959  12.564
65779W        W25073  41.860  34.077  12.565
65780W        W25074  25.125   0.349   4.286
65781W        W25075  11.635  35.901   3.352
65782W        W25076  35.550  35.864   4.195
65783W        W25077   5.852   7.358   4.744
65784W        W25078   1.776   9.659  14.276
65785W        W25079  32.428  25.018  11.122
65786W        W25080   3.753  27.994  11.550
65787W        W25081  40.045  26.008  12.451
65788W        W25082   8.243  14.199  12.511
65789W        W25083   9.269  16.673  12.834
65790W        W25084  34.381   8.748   1.704
65791W        W25085  14.669  38.401   1.277
65792W        W25086  27.472  12.782   3.263
65793W        W25087  27.971  15.806   5.105
65794W        W25088  43.901  34.009   1.741
65795W        W25089  12.332  10.291  11.969
65796W        W25090   3.337  24.086   1.219
65797W        W25091   1.848  43.779   1.446
65798W        W25092  21.636  43.921   4.654
65799W        W25093  25.026  12.853  13.887
65800W        W25094  34.609  18.057   2.191
65801W        W25095   4.221  25.112  13.039
65802W        W25096   3.808  34.515   0.282
65803W        W25097  33.060  25.202  13.320
65804W        W25098  43.490   9.269  14.910
65805W        W25099  23.023  40.885   0.791
65806W        W25100  16.136  39.022   1.708
65807W        W25101  30.502  26.620   2.869
65808W        W25102  30.068  35.520   2.343
65809W        W25103  15.293  40.874  11.373
65810W        W25104  16.097  31.575  14.450
65811W        W25105   2.306  23.189  11.931
65812W        W25106   1.932  26.129  14.298
65813W        W25107  12.797   1.928  11.955
65814W        W25108  22.048  32.629  14.345
65815W        W25109  18.676   2.260  14.316
65816W        W25110  15.656  29.559  11.572
65817W        W25111   9.854  15.116   0.741
65818W        W25112  40.404   1.328  12.956
65819W        W25113  42.453  10.150  11.020
65820W        W25114  42.470  37.914   0.919
65821W        W25115  10.268   1.413   4.130
65822W        W25116  33.503  34.920  13.967
65823W        W25117   9.663  19.113   2.382
65824W        W25118  16.768  41.930   2.197
65825W        W25119  34.049  14.777  14.015
65826W        W25120   1.275  18.166   3.370
65827W        W25121  16.223   4.379  14.287
65828W        W25122  31.148  38.557  10.888
65829W        W25123  29.592  22.038   4.260
65830W        W25124  18.720  39.390  12.093
65831W        W25125  10.216  26.480  12.834
65832W        W25126  29.569  19.053  13.317
65833W        W25127  43.005  25.988   1.403
65834W        W25128  27.652   2.262   1.876
65835W        W25129  20.675  28.521  10.919
65836W        W25130  43.951  27.633  10.613
65837W        W25131  15.185  42.851   2.394
65838W        W25132  24.560  30.586  12.088
65839W        W25133  29.013  29.466  12.350
65840W        W25134  27.596   9.206   4.696
65841W        W25135   3.456  38.558   0.474
65842W        W25136  20.180  34.064   3.248
65843W        W25137  40.017  11.766   1.343
65844W        W25138  35.427  14.626   2.324
65845W        W25139  13.138  10.146  13.325
65846W        W25140  11.817  10.378   2.864
65847W        W25141  33.617   4.928  14.279
65848W        W25142  27.153   9.341  10.586
65849W        W25143  24.605  12.325  12.893
65850W        W25144   1.367  23.680  12.890
65851W        W25145  21.187  16.663  13.391
65852W        W25146  22.599   0.422  11.591
65853W        W25147   1.914  32.494  12.560
65854W        W25148  33.446  37.974   4.183
65855W        W25149   1.325  26.033  10.451
65856W        W25150   8.226  29.454  12.887
65857W        W25151  10.769  22.688  14.334
65858W        W25152  21.512   6.873   1.907
65859W        W25153  32.592   5.922   3.343
65860W        W25154  21.182   8.381   3.230
65861W        W25155  35.564  42.002  10.897
65862W        W25156  44.867  33.528  10.121
65863W        W25157   4.933   2.263   1.826
65864W        W25158  16.581  44.938   3.687
65865W        W25159  29.144  36.025  14.864
65866W        W25160  24.033  14.653  12.359
65867W        W25161  22.557   3.944   3.672
65868W        W25162   7.347  17.162  11.612
65869W        W25163  12.340  39.924   3.715
65870W        W25164  21.190  44.404   4.600
65871W        W25165  44.276  17.612  14.924
65872W        W25166  28.025  36.590  14.977
65873W        W25167  14.105  22.069   4.340
65874W        W25168   3.225  14.657   3.159
65875W        W25169   9.321  18.142   2.246
65876W        W25170   9.154  20.586  12.049
65877W        W25171   1.732   4.867  12.380
65878W        W25172  34.518  36.355   2.278
65879W        W25173  25.968  20.660  12.451
65880W        W25174  13.652  23.002  13.478
65881W        W25175   9.222  25.024   2.319
65882W        W25176   3.792  15.661  11.114
65883W        W25177  14.699  38.478   0.863
65884W        W25178  25.675  27.154  13.392
65885W        W25179   8.709   8.802  14.951
65886W        W25180   2.330  37.568  11.984
65887W        W25181  37.954  44.998   3.219
65888W        W25182  17.100  42.929  10.505
65889W        W25183  11.678  44.916   3.677
65890W        W25184  16.704  27.082  11.989
65891W        W25185  14.301  39.878   4.799
65892W        W25186  30.542  41.020  12.533
65893W        W25187   4.764   3.735  11.511
65894W        W25188  22.663  44.889  14.863
65895W        W25189  13.807  16.644  13.933
65896W        W25190  10.190   2.891  10.451
65897W        W25191  24.164  11.752  13.904
65898W        W25192   2.319  21.076  13.516
65899W        W25193   9.317   0.779   0.931
65900W        W25194   8.774  33.437  11.528
65901W        W25195  21.083  22.692   5.171
65902W        W25196  12.205   2.750   2.229
65903W        W25197  38.477   4.233  11.479
65904W        W25198  36.519  23.620   5.127
65905W        W25199   7.365  36.519   3.851
65906W        W25200   5.869  11.146  14.318
65907W        W25201  28.108  37.005  10.592
65908W        W25202  30.440  32.411   0.761
65909W        W25203  26.606  19.068  11.991
65910W        W25204  28.056  18.682  11.547
65911W        W25205   0.316  22.542   3.693
65912W        W25206  16.695  22.134   2.888
65913W        W25207  30.488  30.162   2.414
65914W        W25208   7.378  33.957   5.247
65915W        W25209  10.261  14.753   0.914
65916W        W25210  18.747  22.733   3.279
65917W        W25211  41.029  10.649   0.917
65918W        W25212  34.959  42.917   5.163
65919W        W25213  37.439   4.263   1.222
65920W        W25214  27.546  13.614   3.841
65921W        W25215   2.470  15.724   2.378
65922W        W25216  19.138  11.690  10.516
65923W        W25217  42.988  34.577  12.912
65924W        W25218   7.395  28.997  11.006
65925W        W25219  44.477  28.511  10.606
65926W        W25220  15.781  10.822   4.129
65927W        W25221  11.815  19.240  11.533
65928W        W25222  19.059   3.442  11.505
65929W        W25223  19.711  22.540   0.333
65930W        W25224  41.908  28.594   4.235
65931W        W25225  42.294   8.778  12.474
65932W        W25226  23.651  12.758   3.736
65933W        W25227   1.313  30.422  14.417
65934W        W25228  12.315  12.255   9.607
65935W        W25229   7.818   3.245   0.406
65936W        W25230  16.765   2.400  13.465
65937W        W25231   9.695  42.366   0.887
65938W        W25232  39.532   8.345  12.528
65939W        W25233  37.572  36.085  13.974
65940W        W25234   7.306   4.332   4.214
65941W        W25235  35.559  29.451  10.955
65942W        W25236  21.233  34.601  13.842
65943W        W25237  34.919  21.197   3.368
65944W        W25238  33.585  10.740  14.832
65945W        W25239  38.881  32.117   3.857
65946W        W25240   3.377  36.878   0.370
65947W        W25241  44.994  14.166  14.305
65948W        W25242  37.998  14.798   3.781
65949W        W25243  21.262   5.731   1.740
65950W        W25244   8.827  43.324   4.325
65951W        W25245   2.285  36.078   2.779
65952W        W25246   7.684  39.332  10.924
65953W        W25247  19.190  21.171  12.488
65954W        W25248   6.182  22.507  11.876
65955W        W25249  16.215  12.715   2.747
65956W        W25250  25.542  43.771  13.513
65957W        W25251  26.042  40.309  10.588
65958W        W25252   6.316  36.854   3.289
65959W        W25253   4.941  41.344  11.428
65960W        W25254  16.160  40.312   0.913
65961W        W25255   9.252  30.466   0.438
65962W        W25256  42.416  20.219  11.588
65963W        W25257  43.375  24.184  13.310
65964W        W25258  44.797  39.871  11.428
65965W        W25259   3.795  16.120   3.264
65966W        W25260   6.777  25.023   4.148
65967W        W25261  18.606  32.454  11.587
65968W        W25262   0.759  18.190  10.632
65969W        W25263  44.866  38.046  11.856
65970W        W25264  10.844  30.113  11.387
65971W        W25265  27.011   3.345   4.259
65972W        W25266  21.178  35.417  14.487
65973W        W25267  30.555  41.890   1.872
65974W        W25268  10.728  37.521   4.666
65975W        W25269   2.887  13.331  12.028
65976W        W25270  18.582  32.984  12.415
65977W        W25271  18.129  33.924  10.443
65978W        W25272  41.889   0.465   3.852
65979W        W25273  12.263  41.918  12.345
65980W        W25274  21.148  17.190   3.171
65981W        W25275   4.221  34.083   3.354
65982W        W25276  35.361  20.268   1.879
65983W        W25277  32.073  35.877  10.491
65984W        W25278  12.651   7.357  11.095
65985W        W25279  42.322  14.208   4.707
65986W        W25280  38.025  12.619   3.330
65987W        W25281  42.323   3.812  13.386
65988W        W25282  28.011  27.661   3.356
65989W        W25283  38.351  14.822   0.317
65990W        W25284  16.297  16.274   3.215
65991W        W25285  44.937   5.340  13.803
65992W        W25286   5.704  27.573  12.434
65993W        W25287  12.291  23.539   3.215
65994W        W25288  32.412   5.358   1.326
65995W        W25289  33.456   6.897   0.276
65996W        W25290  15.088  23.139   2.393
65997W        W25291  25.179  18.244  13.055
65998W        W25292  29.510  20.648   2.679
65999W        W25293  24.995  30.102   1.920
66000W        W25294  25.186  19.247   0.772
66001W        W25295   6.745  15.609  14.784
66002W        W25296  14.262  28.184  12.957
66003W        W25297  13.310   9.382  14.989
66004W        W25298  25.618  25.033   5.222
66005W        W25299  20.602   4.287  14.874
66006W        W25300  19.571  31.111  12.091
66007W        W25301   9.339  34.059   2.828
66008W        W25302   5.283  25.677  14.296
66009W        W25303  20.142  11.322   1.796
66010W        W25304  15.666  10.321   1.924
66011W        W25305   5.742   5.236  11.092
66012W        W25306  40.505  36.974  12.519
66013W        W25307  14.115  44.763  10.616
66014W        W25308  11.133   7.741   4.735
66015W        W25309  17.193  41.904   3.184
66016W        W25310  21.735  15.102  13.929
66017W        W25311  28.014  13.296  14.926
66018W        W25312  41.479  43.769  14.856
66019W        W25313  15.645  23.611   4.723
66020W        W25314  29.042  37.358  10.889
66021W        W25315  11.843  16.251  12.977
66022W        W25316  44.428  13.662   4.762
66023W        W25317   1.407  36.382  13.031
66024W        W25318  40.886  44.440  13.536
66025W        W25319  43.973  38.491  10.643
66026W        W25320   7.217  32.419   3.667
66027W        W25321  41.537  25.081  11.379
66028W        W25322  33.611  15.792  10.099
66029W        W25323   9.844  19.197  10.907
66030W        W25324   7.698  40.860  12.512
66031W        W25325  32.963   1.408   1.758
66032W        W25326  28.077   6.271  10.025
66033W        W25327  26.690   7.235   3.800
66034W        W25328   2.819  22.157   0.807
66035W        W25329   3.849  18.258   0.758
66036W        W25330  26.545  26.997   4.298
66037W        W25331  13.176  18.227   4.338
66038W        W25332  27.544  13.119  12.048
66039W        W25333   7.370   9.822  13.503
66040W        W25334  18.069  39.911   3.793
66041W        W25335  34.907  28.460   0.754
66042W        W25336  12.662  36.529   1.340
66043W        W25337  36.556  43.820  10.603
66044W        W25338  36.496  18.256  10.992
66045W        W25339  19.543  39.472   0.861
66046W        W25340  10.189  19.641   4.600
66047W        W25341  11.728  21.691  11.508
66048W        W25342  34.408  27.483   4.829
66049W        W25343   7.266   5.801  12.071
66050W        W25344  19.769  36.984  14.508
66051W        W25345  26.594  22.653   4.805
66052W        W25346  44.475   6.346  14.823
66053W        W25347  19.081  21.750  13.377
66054W        W25348   8.342  13.713   4.811
66055W        W25349  41.906  13.265   4.198
66056W        W25350  38.875  20.042  12.850
66057W        W25351  39.523  26.511   4.632
66058W        W25352  40.382  44.323   4.354
66059W        W25353  34.975  10.713  14.862
66060W        W25354  33.957  13.832  12.833
66061W        W25355  28.170  19.228   2.333
66062W        W25356  40.034  28.625  14.981
66063W        W25357  14.724  40.817  13.974
66064W        W25358  15.783  41.481  11.573
66065W        W25359  40.806  29.589  14.864
66066W        W25360   3.346  20.239   0.924
66067W        W25361  23.668  15.821  11.865
66068W        W25362   7.705  23.522  14.457
66069W        W25363  16.756  40.924   4.636
66070W        W25364  37.985  14.599   1.328
66071W        W25365   1.848  13.783  13.408
66072W        W25366  17.712  22.150  12.434
66073W        W25367   5.773  22.058  14.958
66074W        W25368  11.344   0.969   5.085
66075W        W25369  43.306   9.767  13.470
66076W        W25370  32.984  31.448   3.383
66077W        W25371  36.478   6.685   0.270
66078W        W25372  40.418  27.159  10.515
66079W        W25373  16.118  32.059   0.472
66080W        W25374  17.201   3.222  13.967
66081W        W25375   0.418   7.213  11.428
66082W        W25376  35.558  26.124   1.342
66083W        W25377  11.269  27.451  12.843
66084W        W25378  41.820  39.057   3.370
66085W        W25379  39.486  21.236   2.402
66086W        W25380  28.132   4.216   1.321
66087W        W25381  11.679  14.198   4.338
66088W        W25382  11.301   3.875  11.457
66089W        W25383  24.193  35.564   4.163
66090W        W25384  17.303  12.821   1.828
66091W        W25385   3.403   0.409   3.146
66092W        W25386  11.755   1.481   4.153
66093W        W25387   3.790  36.437  13.054
66094W        W25388  13.265  26.660   1.352
66095W        W25389   0.328  32.434   4.150
66096W        W25390  26.671  33.430  10.528
66097W        W25391  35.966  14.634  13.309
66098W        W25392  20.685  23.016  13.812
66099W        W25393  17.226  43.343   3.258
66100W        W25394   4.311   5.859  11.933
66101W        W25395  36.046  40.977   1.268
66102W        W25396  38.905  44.964  12.437
66103W        W25397   7.714  40.361  13.352
66104W        W25398   0.796  42.472  13.441
66105W        W25399  10.648  40.891   0.881
66106W        W25400   5.841  24.188  11.055
66107W        W25401  34.385  37.942  10.941
66108W        W25402   2.853  30.110  10.907
66109W        W25403  26.050   3.793  14.407
66110W        W25404  14.153  36.926   4.645
66111W        W25405  39.336   1.269  14.846
66112W        W25406  12.726  15.796  11.125
66113W        W25407  13.607  16.160  14.970
66114W        W25408  42.017  19.569  12.891
66115W        W25409  13.315  15.756   0.359
66116W        W25410  24.523   4.799  12.883
66117W        W25411   9.706  43.376   0.390
66118W        W25412  36.011  11.274   0.754
66119W        W25413  16.122   1.734   4.299
66120W        W25414  27.045  36.463   2.293
66121W        W25415  19.284  12.173   4.684
66122W        W25416   8.773   0.887   0.883
66123W        W25417  12.308   4.360  10.643
66124W        W25418  40.451  39.544  10.476
66125W        W25419  26.176  29.174   3.371
66126W        W25420  10.273   7.308   1.908
66127W        W25421   6.705  36.919  11.537
66128W        W25422   1.760  13.818   3.315
66129W        W25423  33.518  20.210  12.045
66130W        W25424  13.625  44.968   0.479
66131W        W25425  22.046  20.108  14.456
66132W        W25426  16.081  23.639   3.316
66133W        W25427   5.319   9.267  10.898
66134W        W25428   8.783  32.606   3.145
66135W        W25429  40.459  43.284   1.323
66136W        W25430  27.590  36.382   4.210
66137W        W25431   9.663  37.878  14.435
66138W        W25432   2.832  29.982   1.892
66139W        W25433  20.715  42.893   2.728
66140W        W25434  44.272  15.155   0.912
66141W        W25435  34.058   5.318   3.345
66142W        W25436  37.540  33.087   5.757
66143W        W25437  21.744  26.628   0.305
66144W        W25438   6.725  37.015  12.528
66145W        W25439   5.745  21.075  13.369
66146W        W25440  31.466  31.149  14.486
66147W        W25441  36.520  35.021   3.861
66148W        W25442  11.156  39.355   3.216
66149W        W25443  37.515  12.799  12.028
66150W        W25444  26.017  21.032  14.383
66151W        W25445  36.937  13.194  14.463
66152W        W25446  40.456  41.527   1.753
66153W        W25447  24.506  33.506  13.457
66154W        W25448   4.312  11.713  14.982
66155W        W25449  44.477  38.935  13.545
66156W        W25450  33.476  21.625  11.863
66157W        W25451  38.431   3.354   1.418
66158W        W25452  26.622   4.849  13.444
66159W        W25453  36.987   9.753  10.933
66160W        W25454  43.487  19.104   4.258
66161W        W25455  11.348   6.885   1.804
66162W        W25456   4.346  41.402   1.848
66163W        W25457   3.277   2.336   0.352
66164W        W25458  37.520  26.656  10.113
66165W        W25459   7.834  31.036  12.064
66166W        W25460  26.028  40.855   3.191
66167W        W25461  17.212  16.577   2.770
66168W        W25462   6.721  31.545   4.133
66169W        W25463  19.756  39.996  12.436
66170W        W25464  23.697  21.750   4.683
66171W        W25465  31.598  10.371  13.020
66172W        W25466  32.050  11.134  13.485
66173W        W25467  18.575  24.976  10.932
66174W        W25468  26.008  17.752   1.731
66175W        W25469  24.582  42.818   3.675
66176W        W25470  41.848   3.839   4.276
66177W        W25471  29.090  44.409  14.403
66178W        W25472  25.193  41.883   0.922
66179W        W25473  29.992   9.166   4.716
66180W        W25474  29.589  43.482  13.405
66181W        W25475  27.540  12.354   0.273
66182W        W25476  16.813  15.789  14.448
66183W        W25477  29.557   3.438   1.907
66184W        W25478  39.424  26.492  13.868
66185W        W25479  33.401  11.846  14.506
66186W        W25480   1.370   2.420   1.387
66187W        W25481  12.850  43.339  13.383
66188W        W25482  27.590  41.537  12.045
66189W        W25483   5.931  34.415   0.402
66190W        W25484  35.377  36.923  11.540
66191W        W25485  17.063  14.806   4.146
66192W        W25486   1.837   7.375   4.598
66193W        W25487  10.301  34.083   0.841
66194W        W25488   3.923  40.836  14.764
66195W        W25489  40.834   0.812  11.014
66196W        W25490  31.150   1.354   3.287
66197W        W25491  13.765  15.700  12.370
66198W        W25492  22.169  17.578  12.432
66199W        W25493  30.037  22.523   3.858
66200W        W25494  25.128  40.045   3.169
66201W        W25495  15.762  13.207   3.168
66202W        W25496  33.062   5.417  10.457
66203W        W25497  25.038  13.693   0.392
66204W        W25498  13.244  34.402   4.199
66205W        W25499  41.039   3.306  14.294
66206W        W25500  25.638  41.926  13.366
66207W        W25501  14.324  44.002  14.801
66208W        W25502  22.727  19.673  13.911
66209W        W25503  24.725  20.546  12.041
66210W        W25504  33.069  36.892   0.932
66211W        W25505   3.866  10.679   2.316
66212W        W25506  42.305  44.265   4.354
66213W        W25507   0.462  16.077  10.629
66214W        W25508  22.063  30.004  11.103
66215W        W25509  32.924   2.464   0.410
66216W        W25510   6.252  29.509  12.883
66217W        W25511  12.764  41.979  13.019
66218W        W25512  11.710   5.309  11.034
66219W        W25513  40.837  17.164  14.827
66220W        W25514  40.440   8.171  12.403
66221W        W25515  34.064  33.928   3.773
66222W        W25516  24.200  26.457   3.382
66223W        W25517   3.354  40.433   5.169
66224W        W25518  35.963   5.848   4.143
66225W        W25519  25.522  12.196   1.797
66226W        W25520  30.916  37.899  14.923
66227W        W25521  13.325  40.394  10.596
66228W        W25522   0.252  38.941  12.839
66229W        W25523  26.166  13.600  11.469
66230W        W25524  23.116  22.174  11.953
66231W        W25525   6.858  34.567   0.848
66232W        W25526  39.462   0.792   1.267
66233W        W25527   2.265  41.466  13.400
66234W        W25528  34.889  17.251  13.339
66235W        W25529   9.714   1.359  12.424
66236W        W25530   5.292   7.748   0.950
66237W        W25531   2.350  40.889  10.418
66238W        W25532  23.585  25.627   0.955
66239W        W25533   5.317  35.367  14.775
66240W        W25534   0.362  22.123   2.902
66241W        W25535  36.508  27.172   1.854
66242W        W25536  14.225   0.303   1.719
66243W        W25537   4.806  31.957  13.920
66244W        W25538  43.907  38.929   3.162
66245W        W25539  12.780   6.807  11.390
66246W        W25540   0.475  42.426   0.401
66247W        W25541  25.590  17.782   2.838
66248W        W25542  27.459   9.204   3.745
66249W        W25543  39.475  10.866   4.137
66250W        W25544   5.726  42.286   1.697
66251W        W25545  33.436  40.338   3.794
66252W        W25546  28.055  39.055  13.312
66253W        W25547  41.955  40.374  11.907
66254W        W25548  15.152  36.520   4.835
66255W        W25549   2.418  29.501  12.978
66256W        W25550  13.772  34.982   3.845
66257W        W25551  44.932  22.009  11.863
66258W        W25552  30.981  43.788   4.230
66259W        W25553  17.262  36.582  11.952
66260W        W25554  15.729  40.524   5.244
66261W        W25555  16.775  27.468   2.808
66262W        W25556   5.772   8.770   1.838
66263W        W25557  25.967   4.862  11.003
66264W        W25558   4.799  24.557  10.906
66265W        W25559   4.719  28.152  10.595
66266W        W25560   0.803  24.593  13.406
66267W        W25561  33.625  34.413   3.191
66268W        W25562  14.646  38.342  14.807
66269W        W25563  28.468  37.348  13.307
66270W        W25564  43.968  28.157   1.808
66271W        W25565  30.918  12.712   3.700
66272W        W25566  26.025  35.934  13.911
66273W        W25567  29.473  29.068  11.381
66274W        W25568   0.386  27.178  13.847
66275W        W25569  15.739  28.956  10.563
66276W        W25570   7.777   5.934   3.279
66277W        W25571  27.516  23.705  12.848
66278W        W25572  35.860  26.630   3.241
66279W        W25573   7.262  10.211  10.097
66280W        W25574   7.413  35.998  10.930
66281W        W25575  44.262  41.031  11.112
66282W        W25576  11.209  13.751   4.628
66283W        W25577   5.304  28.108   1.794
66284W        W25578  16.134   1.346   0.443
66285W        W25579  17.130  30.149   3.662
66286W        W25580  19.138  12.311  11.381
66287W        W25581  18.751  14.236   1.225
66288W        W25582  23.640  31.596  12.824
66289W        W25583  34.455  23.664   0.408
66290W        W25584  35.365  29.162  13.894
66291W        W25585  19.152  42.903  12.450
66292W        W25586  26.172   3.258   1.825
66293W        W25587  22.117  19.269   1.743
66294W        W25588  42.875  23.546  14.762
66295W        W25589  38.969  32.558   0.788
66296W        W25590  44.988   3.869  11.872
66297W        W25591  15.598  12.212  12.084
66298W        W25592  36.986  34.517   2.663
66299W        W25593  17.697   5.788   2.734
66300W        W25594  20.760  34.103  12.975
66301W        W25595  29.595  20.643  11.407
66302W        W25596  31.011   5.848  11.581
66303W        W25597  21.549   4.425  11.011
66304W        W25598  36.520   8.671  14.279
66305W        W25599  28.545  29.552  12.058
66306W        W25600  32.023  10.680   1.363
66307W        W25601  26.182  16.253  10.514
66308W        W25602  30.632  40.305   0.400
66309W        W25603   9.776  14.618  14.819
66310W        W25604  23.599   1.847   2.232
66311W        W25605  36.017  12.648   4.776
66312W        W25606   5.801   2.807   4.227
66313W        W25607  25.548  41.998  10.933
66314W        W25608  35.522  35.888  14.759
66315W        W25609  13.287  24.606  14.846
66316W        W25610  30.078  25.103  13.515
66317W        W25611  29.431  40.313   2.859
66318W        W25612   8.229  33.448   2.289
66319W        W25613  43.951  26.953   3.813
66320W        W25614  19.663  12.744  11.373
66321W        W25615   6.900  20.190   2.812
66322W        W25616  43.979  40.976   3.263
66323W        W25617  42.779  19.716   0.914
66324W        W25618  17.799   3.754  13.353
66325W        W25619  31.575  31.433  13.821
66326W        W25620  13.282  12.637   5.180
66327W        W25621  42.807  12.216   1.893
66328W        W25622  10.871   6.719   3.639
66329W        W25623  29.461  13.346   3.777
66330W        W25624  31.416  37.368  12.432
66331W        W25625   4.720  27.031  13.518
66332W        W25626   9.699  14.152  13.493
66333W        W25627  29.111  16.287   4.250
66334W        W25628  21.031   8.735  11.565
66335W        W25629  26.627  12.851   2.814
66336W        W25630  14.265  44.820   2.710
66337W        W25631  31.096  43.271   3.351
66338W        W25632   8.221   7.776   2.272
66339W        W25633  29.423  10.855   1.342
66340W        W25634  12.137  44.841   2.699
66341W        W25635  34.571  29.168  11.864
66342W        W25636  34.368  21.053   2.330
66343W        W25637  41.930  17.651   1.358
66344W        W25638  34.000  12.299  13.427
66345W        W25639  13.318  12.213   9.978
66346W        W25640   3.897  23.577  13.374
66347W        W25641  31.106  30.450   0.247
66348W        W25642  18.779  36.996  13.360
66349W        W25643  28.103   3.783   1.241
66350W        W25644  26.520  43.322   5.277
66351W        W25645  29.604  10.321  13.941
66352W        W25646  39.835  39.923  10.482
66353W        W25647  20.095  12.207  12.882
66354W        W25648  11.226  28.665   1.815
66355W        W25649  17.762  12.669   5.752
66356W        W25650  11.658  12.689  12.918
66357W        W25651  44.418  43.283  14.970
66358W        W25652  30.155  33.469  14.908
66359W        W25653  33.043   8.293   0.872
66360W        W25654  35.554   5.893   2.770
66361W        W25655  41.314  14.328  14.430
66362W        W25656  41.960  11.641  10.045
66363W        W25657  41.859  32.926   1.291
66364W        W25658   8.837  22.163  10.546
66365W        W25659   0.887  41.483   0.473
66366W        W25660  17.258  44.377  13.042
66367W        W25661  38.483   5.882   3.690
66368W        W25662  38.384   6.299   2.761
66369W        W25663  35.476  32.484   1.271
66370W        W25664  40.015   7.847  12.510
66371W        W25665  18.593  13.131   4.155
66372W        W25666  29.660  25.637  10.593
66373W        W25667  44.759  31.946  13.521
66374W        W25668  26.984  26.953  13.344
66375W        W25669   3.393  40.305   0.837
66376W        W25670  40.942  31.094  10.569
66377W        W25671  30.423  34.988   2.700
66378W        W25672  43.480   5.261  14.821
66379W        W25673   0.330  11.269   3.667
66380W        W25674  35.550  28.467   2.320
66381W        W25675  37.051   9.190  14.378
66382W        W25676  27.676  31.123   4.772
66383W        W25677  34.400   9.238   2.680
66384W        W25678  15.772  39.547   2.256
66385W        W25679  38.427   3.758  11.932
66386W        W25680  32.399  34.567  12.529
66387W        W25681   8.323   4.253  14.964
66388W        W25682  44.831  19.134   2.394
66389W        W25683  22.189  11.702   1.357
66390W        W25684  38.417  26.037   0.348
66391W        W25685  18.249  12.151   3.176
66392W        W25686  34.462   7.709   2.207
66393W        W25687  31.996  16.654   1.423
66394W        W25688  43.339  18.130  11.472
66395W        W25689  22.116  18.606  14.417
66396W        W25690  41.328  31.079  12.028
66397W        W25691   2.456   2.730  11.037
66398W        W25692  33.001  42.387  12.475
66399W        W25693  22.071  40.978  10.616
66400W        W25694  33.505  19.595  11.549
66401W        W25695  35.942  24.997   0.957
66402W        W25696   9.385  31.427  12.950
66403W        W25697  25.984  42.393  12.403
66404W        W25698   5.704  26.086   0.902
66405W        W25699  20.754  19.149   4.830
66406W        W25700   3.457  25.202   3.297
66407W        W25701  10.295  18.601   1.712
66408W        W25702  26.600  44.788  12.485
66409W        W25703   8.343   7.909   0.785
66410W        W25704   9.786  30.555  14.408
66411W        W25705  19.550   7.782   2.879
66412W        W25706  44.932  22.017   3.853
66413W        W25707  17.188  18.221   3.319
66414W        W25708   1.795  22.527   4.717
66415W        W25709   6.349  14.233   3.179
66416W        W25710  17.143   9.311   4.818
66417W        W25711  19.073   5.410  14.921
66418W        W25712  30.097  16.202  12.975
66419W        W25713   9.213   8.276   3.664
66420W        W25714   9.330  15.670   0.788
66421W        W25715  10.243  38.002  11.081
66422W        W25716  24.555   7.393   2.793
66423W        W25717  18.147   8.215   3.853
66424W        W25718  29.022  24.624   3.387
66425W        W25719  21.263  27.995  11.901
66426W        W25720   6.381  35.950  12.928
66427W        W25721  43.444  23.662   3.691
66428W        W25722  13.844  37.029   1.734
66429W        W25723  36.936  16.286   0.337
66430W        W25724  27.974  41.530  10.916
66431W        W25725  33.469   3.456  13.502
66432W        W25726  42.928  40.417  14.947
66433W        W25727   6.884  16.727   1.343
66434W        W25728  26.515  41.955  12.348
66435W        W25729  37.476  18.242   4.257
66436W        W25730  26.549  12.854  13.907
66437W        W25731  32.946  33.013   3.729
66438W        W25732  33.883  43.969   1.333
66439W        W25733  24.129  31.959   2.899
66440W        W25734  22.119  21.035   1.441
66441W        W25735  43.853  29.464  13.853
66442W        W25736   0.947  23.095   1.308
66443W        W25737  18.791  33.924  13.042
66444W        W25738   2.456  40.492   1.887
66445W        W25739   4.889   6.833   3.789
66446W        W25740  33.013  22.130  13.326
66447W        W25741   2.754  33.032   3.147
66448W        W25742  11.764  44.871  13.034
66449W        W25743   6.209  36.405   4.261
66450W        W25744  37.891  15.713   4.614
66451W        W25745  39.948  27.122  12.454
66452W        W25746  22.026  31.414  11.090
66453W        W25747  12.248  24.588   2.684
66454W        W25748  29.491  40.436   3.176
66455W        W25749  44.380  17.590   0.455
66456W        W25750   3.844  34.066   3.151
66457W        W25751  28.099  25.184   4.719
66458W        W25752  35.407  37.354  11.878
66459W        W25753  31.126   3.808   4.345
66460W        W25754  30.143  19.229   4.249
66461W        W25755  29.961  30.619  10.608
66462W        W25756  36.457  25.606  14.302
66463W        W25757  14.727  20.090  11.993
66464W        W25758  32.445  33.501  11.454
66465W        W25759   2.763  26.577  12.868
66466W        W25760  15.313   1.756   3.690
66467W        W25761   6.791  26.492  14.483
66468W        W25762  36.861   5.428   3.243
66469W        W25763  21.108  17.265  12.966
66470W        W25764  37.989  40.389   4.171
66471W        W25765  19.559  24.552   1.266
66472W        W25766  20.078  30.540   2.259
66473W        W25767  27.951  36.900   2.744
66474W        W25768   2.291   2.904   4.676
66475W        W25769  22.181  19.675   5.097
66476W        W25770  39.547  14.614   1.320
66477W        W25771  26.548  11.640   2.345
66478W        W25772   7.718  35.548   1.782
66479W        W25773  26.588   6.211   1.822
66480W        W25774  27.071  31.459   3.305
66481W        W25775  24.482  16.632  13.871
66482W        W25776  35.094  28.639   2.238
66483W        W25777  30.440   5.354  12.481
66484W        W25778   7.283  37.397   4.195
66485W        W25779  25.060  32.894  11.104
66486W        W25780  32.551  42.975   4.607
66487W        W25781  13.235  14.788   4.115
66488W        W25782  43.359  30.956  13.405
66489W        W25783  43.325   7.848   2.311
66490W        W25784  31.575  26.553  13.808
66491W        W25785  44.293  28.972  14.794
66492W        W25786  29.623  35.946   5.227
66493W        W25787  42.792  19.225   2.801
66494W        W25788  33.591  31.942  10.624
66495W        W25789  28.607   7.686  12.979
66496W        W25790  30.514  25.996   4.256
66497W        W25791  36.487  10.702   4.205
66498W        W25792  29.123  13.303  14.356
66499W        W25793  43.874  44.502  13.999
66500W        W25794   5.934   3.955  10.906
66501W        W25795  33.621  32.025   0.371
66502W        W25796  27.484  40.053  12.996
66503W        W25797  20.556   2.742  11.374
66504W        W25798   1.970  17.662  14.890
66505W        W25799  32.475  44.492   4.192
66506W        W25800  17.100   5.743   1.914
66507W        W25801  13.688  11.281   3.346
66508W        W25802  16.179  22.669   2.275
66509W        W25803  15.647  27.026  12.023
66510W        W25804   3.874  33.112  12.840
66511W        W25805  40.024  43.403  13.544
66512W        W25806  12.260  10.649   1.809
66513W        W25807   4.920  29.637   2.293
66514W        W25808  21.705  35.589  11.858
66515W        W25809  17.795   9.775   4.341
66516W        W25810  24.069  40.028   4.167
66517W        W25811   4.247   8.245  14.479
66518W        W25812  17.675  35.038  11.547
66519W        W25813  43.391  43.287  10.597
66520W        W25814  20.635  25.006   4.718
66521W        W25815  32.587  44.871   1.214
66522W        W25816   7.858   6.273   3.231
66523W        W25817   3.410  34.586  11.442
66524W        W25818   8.758   1.237  14.896
66525W        W25819  12.650  14.148  12.515
66526W        W25820  38.931   8.376   2.684
66527W        W25821  17.085  41.410  14.511
66528W        W25822  38.544  12.290  12.444
66529W        W25823   4.928  43.891   2.206
66530W        W25824  22.730  43.382  12.914
66531W        W25825  20.039  35.997  12.343
66532W        W25826  35.885   1.848   4.694
66533W        W25827  39.429  41.417   5.270
66534W        W25828  14.813  33.564  13.973
66535W        W25829  34.396  21.751  11.472
66536W        W25830   1.289  23.199   0.912
66537W        W25831  32.131  31.648  14.772
66538W        W25832  43.311  44.362  12.503
66539W        W25833   7.900   2.244   2.198
66540W        W25834   8.888  26.572   1.277
66541W        W25835  17.269  39.470  13.400
66542W        W25836   3.868  13.236   0.269
66543W        W25837  41.322  13.302   1.411
66544W        W25838  28.600   3.758   4.790
66545W        W25839  18.226  44.009   3.361
66546W        W25840  13.325  23.149   1.763
66547W        W25841  41.376   9.700   4.815
66548W        W25842   7.271  31.453  10.020
66549W        W25843   4.286  17.685   4.338
66550W        W25844  26.010  15.200  11.575
66551W        W25845   5.730   8.401   2.242
66552W        W25846  11.295  28.023   1.779
66553W        W25847  30.938   8.306   1.861
66554W        W25848  16.142  36.551  12.357
66555W        W25849  37.511   8.734   3.159
66556W        W25850  42.001  29.944   3.304
66557W        W25851  19.130  39.016   1.252
66558W        W25852  35.094   3.733   4.312
66559W        W25853  31.076   3.940  13.521
66560W        W25854  42.032   5.359  12.030
66561W        W25855  38.879  20.211  10.986
66562W        W25856  38.498   8.835   0.817
66563W        W25857  17.118  11.334   1.306
66564W        W25858  38.447  22.657  14.760
66565W        W25859  20.596  38.038   2.853
66566W        W25860  10.867   1.834   3.319
66567W        W25861   0.833   7.826   1.726
66568W        W25862  14.328  35.582   0.413
66569W        W25863  44.326  14.325   1.317
66570W        W25864   0.323   9.840   1.415
66571W        W25865  38.471  37.467   2.823
66572W        W25866   7.780   8.743  12.517
66573W        W25867   3.743  32.916   2.205
66574W        W25868  27.946  43.791   2.230
66575W        W25869  42.507   6.779   3.698
66576W        W25870  12.771  23.582   2.662
66577W        W25871  20.135   2.805  11.122
66578W        W25872  20.560  15.323  11.907
66579W        W25873  38.988  44.451   3.838
66580W        W25874  39.468   8.164  10.896
66581W        W25875   6.741  36.459   2.837
66582W        W25876   1.443  44.892   4.825
66583W        W25877  16.586   2.363   2.896
66584W        W25878  36.543   5.352   3.855
66585W        W25879  21.088  14.756   1.813
66586W        W25880  12.176  16.086  12.081
66587W        W25881  35.362  22.701  11.052
66588W        W25882  30.576  32.494  10.510
66589W        W25883  26.068  32.585  12.896
66590W        W25884   8.216  38.348  13.327
66591W        W25885  44.466  27.466  11.109
66592W        W25886  31.953  10.688  12.027
66593W        W25887  39.377  40.323   2.186
66594W        W25888  12.221  37.503   3.784
66595W        W25889  43.851  27.594   1.361
66596W        W25890   3.322  39.366   3.785
66597W        W25891  32.116   2.769   1.865
66598W        W25892   5.923  10.185  12.081
66599W        W25893   1.426  38.406   0.422
66600W        W25894  28.538  20.661   4.249
66601W        W25895  15.263  27.993   0.411
66602W        W25896  12.853  25.585  12.400
66603W        W25897  34.061  27.998   0.844
66604W        W25898  32.027  41.883   1.313
66605W        W25899  18.280  37.392  13.488
66606W        W25900  10.856  17.578   1.277
66607W        W25901  11.832  43.947  12.057
66608W        W25902  35.067  38.483  11.402
66609W        W25903   1.938  12.848   0.950
66610W        W25904  35.580  36.460   2.230
66611W        W25905  20.098  40.000   5.141
66612W        W25906  10.161  17.637  11.454
66613W        W25907  16.131  28.473   3.704
66614W        W25908  38.425  40.348   2.698
66615W        W25909  23.043  24.122   3.381
66616W        W25910  12.216  11.788   2.873
66617W        W25911  16.151  37.550  14.860
66618W        W25912  22.108  39.991  13.825
66619W        W25913  28.436   4.787   4.629
66620W        W25914  10.766   3.912  13.437
66621W        W25915  42.932  18.229  11.571
66622W        W25916  34.886  44.504   2.741
66623W        W25917  16.233   2.885   1.836
66624W        W25918  13.278  29.922  10.948
66625W        W25919  26.613  32.443   0.755
66626W        W25920  44.918  41.015  11.605
66627W        W25921  12.303  17.204   4.804
66628W        W25922  36.546  11.782   5.148
66629W        W25923  43.278   2.912   0.767
66630W        W25924  10.827  19.140   0.893
66631W        W25925  35.570  42.985   3.809
66632W        W25926  10.786  20.182   0.800
66633W        W25927  20.044  33.985   2.881
66634W        W25928  24.984  18.732   0.914
66635W        W25929  26.000  22.516  12.472
66636W        W25930  27.591  41.012   0.822
66637W        W25931   1.890  20.161  11.479
66638W        W25932  42.812   1.964  14.464
66639W        W25933  31.610   0.316  11.531
66640W        W25934  15.095  11.317  14.498
66641W        W25935  37.535   7.860  11.040
66642W        W25936   1.327  43.893   0.881
66643W        W25937  13.715   6.199   4.610
66644W        W25938   5.306  34.058   4.300
66645W        W25939  14.178  41.904  12.958
66646W        W25940  10.291  35.912  14.999
66647W        W25941  24.211  35.962  13.335
66648W        W25942  30.656  17.557  14.387
66649W        W25943  16.718  26.617  10.499
66650W        W25944  14.292  36.937   0.952
66651W        W25945  33.911   0.778  13.520
66652W        W25946   3.409  26.197   2.687
66653W        W25947  44.374  39.398   2.667
66654W        W25948  15.680  20.751   2.228
66655W        W25949   4.809   6.271  12.076
66656W        W25950   2.424   9.178  11.083
66657W        W25951  40.029  40.916  12.031
66658W        W25952   8.666  24.017   1.922
66659W        W25953   5.350  36.367  11.596
66660W        W25954  27.569  26.054  13.323
66661W        W25955   9.819   7.274   4.756
66662W        W25956  12.230  37.973  12.037
66663W        W25957  43.770  14.679  11.457
66664W        W25958  44.499  36.053  13.401
66665W        W25959  23.994  13.652   3.736
66666W        W25960  20.103  14.132  13.437
66667W        W25961   0.259  21.739  14.984
66668W        W25962  32.980  22.022   2.882
66669W        W25963  26.579   3.935   3.868
66670W        W25964  15.261  16.669   1.920
66671W        W25965   2.950  37.029   4.625
66672W        W25966  15.593  24.654   1.391
66673W        W25967  23.633  25.615  13.821
66674W        W25968  34.539   7.182   2.765
66675W        W25969  34.409  17.289   3.851
66676W        W25970   6.777  44.832   0.850
66677W        W25971  40.821   4.767  12.858
66678W        W25972  19.659  25.496  12.859
66679W        W25973  11.145  11.741  13.330
66680W        W25974  27.030  15.620  14.305
66681W        W25975  31.641  21.691  11.532
66682W        W25976  37.354  42.411  11.457
66683W        W25977   7.759   6.861   4.726
66684W        W25978  31.958  37.576   2.324
66685W        W25979  35.476  15.102  11.951
66686W        W25980  22.162  35.900  14.392
66687W        W25981  26.165  33.526  13.307
66688W        W25982   1.927  29.119   2.836
66689W        W25983   0.745  14.652   3.185
66690W        W25984   6.698  30.554   2.870
66691W        W25985  40.400  19.698   1.434
66692W        W25986  20.164  43.353  14.500
66693W        W25987  35.001  41.833  13.852
66694W        W25988  34.468   8.821   2.757
66695W        W25989   7.172  18.593  13.064
66696W        W25990  34.406  22.606  14.277
66697W        W25991   8.816   2.885  13.002
66698W        W25992  22.655  41.309   4.223
66699W        W25993  30.939  25.692  14.957
66700W        W25994  39.433  22.006  12.449
66701W        W25995  25.691  30.128   2.292
66702W        W25996  38.013  10.642  11.994
66703W        W25997  40.535  39.425  12.915
66704W        W25998  43.929  28.677   2.284
66705W        W25999   8.897   3.848   4.817
66706W        W26000  22.068  41.497  12.443
66707W        W26001  17.179   3.754  13.512
66708W        W26002  13.632  21.058   1.406
66709W        W26003  21.749  24.141   0.286
66710W        W26004  35.424  44.259  11.396
66711W        W26005  12.785  35.536   3.384
66712W        W26006  13.610  11.709  13.366
66713W        W26007  42.961  30.036   4.682
66714W        W26008  28.168   5.745   1.232
66715W        W26009   5.255  40.498   3.236
66716W        W26010  29.477  14.132  12.483
66717W        W26011  42.445  40.873  10.982
66718W        W26012  43.401  29.581  12.427
66719W        W26013  39.065  41.991   0.302
66720W        W26014  35.553  33.913   4.721
66721W        W26015  39.020  15.596  10.489
66722W        W26016  20.663  22.209   2.275
66723W        W26017   8.320  15.137  11.511
66724W        W26018  14.746   1.947  12.994
66725W        W26019   0.263  19.699  14.483
66726W        W26020  42.516  44.812   0.325
66727W        W26021   2.274   1.269  11.424
66728W        W26022  13.610  36.903  13.010
66729W        W26023  28.102  30.550   3.799
66730W        W26024  26.609  24.519  13.481
66731W        W26025  42.507  25.052   1.270
66732W        W26026  37.861   1.313  14.280
66733W        W26027  11.704  27.160  13.948
66734W        W26028  43.434   7.181  12.094
66735W        W26029  39.904  44.263  13.916
66736W        W26030   9.179  14.314   1.215
66737W        W26031  13.213  33.602   3.176
66738W        W26032   8.341  19.063  11.931
66739W        W26033  32.394  29.493  14.895
66740W        W26034  32.104  28.930   3.771
66741W        W26035   8.178  41.970   0.440
66742W        W26036   5.332  39.048  13.859
66743W        W26037  42.376  10.802  11.540
66744W        W26038   5.392  16.680   0.458
66745W        W26039  11.308   0.866   1.250
66746W        W26040  22.645   2.903  11.453
66747W        W26041   6.734  23.654   2.711
66748W        W26042   6.195  41.497  11.894
66749W        W26043  28.058  25.965  11.069
66750W        W26044  30.572  11.272  13.825
66751W        W26045  41.495  12.720  13.925
66752W        W26046  30.968   8.193  12.411
66753W        W26047   7.775   3.294   1.794
66754W        W26048  36.935  35.379  10.031
66755W        W26049   3.418  17.075  13.380
66756W        W26050  15.285  29.080  13.525
66757W        W26051  24.674   0.348   1.382
66758W        W26052  12.832  40.855   2.698
66759W        W26053   2.398  19.153  11.885
66760W        W26054   3.725  20.074  13.338
66761W        W26055  21.154   8.366   1.212
66762W        W26056  15.099   9.251  14.853
66763W        W26057   0.408  28.550   2.853
66764W        W26058  25.713  37.942  14.287
66765W        W26059   1.887  31.496  11.949
66766W        W26060  21.246  41.517   0.739
66767W        W26061   6.186  22.575  10.460
66768W        W26062  14.712   9.232   4.635
66769W        W26063  42.414  40.461   1.828
66770W        W26064   4.745  29.661  12.425
66771W        W26065  21.112  30.116  13.914
66772W        W26066  15.601  10.247  11.072
66773W        W26067  34.081  17.768  10.549
66774W        W26068  19.081  10.632   4.187
66775W        W26069  24.078  44.954   0.872
66776W        W26070  37.391  21.206   1.853
66777W        W26071  32.518  32.122  10.999
66778W        W26072  14.804  42.283  10.942
66779W        W26073   6.887  27.588   1.336
66780W        W26074  19.264  13.225  10.529
66781W        W26075  33.460  30.544   0.412
66782W        W26076  35.602   7.197  10.599
66783W        W26077   4.297  37.001   1.738
66784W        W26078  29.529  10.231  10.444
66785W        W26079   9.883   0.796   1.376
66786W        W26080  12.841  39.943   1.294
66787W        W26081   6.889  32.631  12.828
66788W        W26082  32.106  34.912  11.949
66789W        W26083  19.581   0.790   2.728
66790W        W26084  22.671  25.187  13.438
66791W        W26085  17.152  13.171   1.769
66792W        W26086  41.023   1.900  11.078
66793W        W26087  22.197  32.604   3.319
66794W        W26088   8.356  35.042   2.839
66795W        W26089   2.326   8.691   0.930
66796W        W26090   8.329  16.153  11.515
66797W        W26091  44.951  13.699   3.649
66798W        W26092   5.275  44.771   0.376
66799W        W26093   3.710  22.245  14.350
66800W        W26094  40.891   5.834  13.398
66801W        W26095  28.149   6.244  14.508
66802W        W26096  36.067   8.705  13.515
66803W        W26097  18.181  41.916   1.240
66804W        W26098  23.199  20.605   4.661
66805W        W26099  14.744   3.449   2.301
66806W        W26100   3.327  38.961   4.335
66807W        W26101  43.439  21.129  10.608
66808W        W26102  28.607   6.339   1.840
66809W        W26103  40.929  37.939  14.962
66810W        W26104  14.286  21.753   3.808
66811W        W26105   0.280  43.480  11.423
66812W        W26106   4.358  10.782   3.359
66813W        W26107  28.543  35.861  13.940
66814W        W26108  26.148  32.393  11.957
66815W        W26109  34.564  42.786  10.506
66816W        W26110  23.558   1.425   3.305
66817W        W26111  43.411  35.478   3.854
66818W        W26112  11.173   2.885   3.377
66819W        W26113   3.937  14.160   1.242
66820W        W26114  33.605  44.426   3.278
66821W        W26115  24.189  36.071   4.763
66822W        W26116   2.883  41.318  10.606
66823W        W26117  25.626  14.756   2.251
66824W        W26118  16.298  43.009  12.952
66825W        W26119  22.150   1.839   3.715
66826W        W26120  26.626  21.562  10.922
66827W        W26121   5.217  22.160   1.439
66828W        W26122  22.721  13.114  13.912
66829W        W26123  26.967  19.206   4.170
66830W        W26124   8.664  43.816   4.248
66831W        W26125  41.832  20.253  14.340
66832W        W26126  44.900  12.826   1.312
66833W        W26127  33.128  14.606   4.256
66834W        W26128  18.210  21.539   1.449
66835W        W26129  12.245   3.730  14.465
66836W        W26130  18.763  16.305  11.873
66837W        W26131  13.172  11.295   3.809
66838W        W26132  13.756  24.171   2.815
66839W        W26133  40.913  12.723   4.291
66840W        W26134  10.166  42.415  12.503
66841W        W26135  34.574  17.655   2.391
66842W        W26136   3.275   4.796   4.270
66843W        W26137  21.154   8.826  10.558
66844W        W26138   2.236  32.907   1.428
66845W        W26139  19.611  40.887   4.686
66846W        W26140   2.873  24.092  12.343
66847W        W26141  12.805  41.793   3.217
66848W        W26142  26.189  29.557   0.364
66849W        W26143  31.579  18.681  10.611
66850W        W26144  23.705   1.282  14.475
66851W        W26145  11.140  43.348   3.865
66852W        W26146  18.624  26.464  10.641
66853W        W26147  17.250  33.601   2.315
66854W        W26148   2.334  41.511  13.926
66855W        W26149  44.430  20.725  11.994
66856W        W26150   2.415  29.943  10.510
66857W        W26151   7.314  39.014   0.887
66858W        W26152  22.251  31.026  11.984
66859W        W26153  23.512  44.334  10.979
66860W        W26154  13.768  27.626  13.371
66861W        W26155  28.063  15.666   3.864
66862W        W26156   1.879  25.201   1.398
66863W        W26157   5.687  34.383   1.389
66864W        W26158  21.174   0.900   4.175
66865W        W26159  39.455  22.566   3.182
66866W        W26160  35.481  29.938  12.913
66867W        W26161  37.401  17.066   2.308
66868W        W26162  10.694  30.102   3.288
66869W        W26163  44.388   8.749   0.251
66870W        W26164  33.539  15.103   1.357
66871W        W26165  28.570  40.534   0.421
66872W        W26166  27.573  35.360  13.459
66873W        W26167  16.789   1.739   3.351
66874W        W26168   2.825  16.256   4.136
66875W        W26169  15.173  24.715   4.709
66876W        W26170  25.218  40.487   4.287
66877W        W26171  31.120  36.353  13.791
66878W        W26172   3.841  31.966  11.489
66879W        W26173   9.751  39.815   1.917
66880W        W26174   9.753  31.974   4.279
66881W        W26175  10.755  20.243   2.761
66882W        W26176  41.294  35.950   2.410
66883W        W26177  31.561  29.654  14.328
66884W        W26178   3.906  22.141  12.892
66885W        W26179  10.667  29.429  14.015
66886W        W26180  26.546   8.377  13.410
66887W        W26181  21.182   7.762  14.875
66888W        W26182  28.082  31.406  11.864
66889W        W26183  11.367   4.343  10.948
66890W        W26184   1.822   6.824   1.750
66891W        W26185  44.963  37.011  11.552
66892W        W26186  39.509  14.618  10.644
66893W        W26187  41.470   7.383  10.558
66894W        W26188  24.076  31.925   3.732
66895W        W26189  28.003   3.431  12.045
66896W        W26190  18.553  44.854  11.438
66897W        W26191   0.405  35.928   0.299
66898W        W26192  41.807  23.592  13.473
66899W        W26193  38.891  40.325  10.975
66900W        W26194   3.216  12.362   4.191
66901W        W26195   4.277  27.149  10.616
66902W        W26196  36.445  18.231   5.189
66903W        W26197  20.752   8.874   3.232
66904W        W26198  27.569  30.149  13.063
66905W        W26199  36.493  27.625   4.211
66906W        W26200  34.496  27.545  13.965
66907W        W26201  16.596   9.213   2.677
66908W        W26202  33.583  25.651  10.630
66909W        W26203  29.168  36.960   2.338
66910W        W26204  40.865  39.411   4.317
66911W        W26205  13.289  34.597   0.462
66912W        W26206   3.443   5.202   4.335
66913W        W26207  37.959   7.681  10.533
66914W        W26208  32.901  30.157   1.887
66915W        W26209  38.410  18.765  12.085
66916W        W26210  14.221  25.076  11.574
66917W        W26211   6.809  16.273   1.883
66918W        W26212  32.612   7.407  12.037
66919W        W26213  28.137  10.857   0.852
66920W        W26214  35.465   0.844   3.782
66921W        W26215   4.372  14.311  14.383
66922W        W26216   8.221  11.765  12.494
66923W        W26217   3.349  44.009   4.630
66924W        W26218  21.141  43.767   5.254
66925W        W26219  30.639  40.447   1.725
66926W        W26220  32.946  31.045   4.205
66927W        W26221  17.241  40.407   3.842
66928W        W26222   5.362  40.010  13.397
66929W        W26223  18.262  24.145   4.784
66930W        W26224  13.207  27.027  14.472
66931W        W26225  10.685  25.077   2.390
66932W        W26226  30.613  11.731  11.464
66933W        W26227   6.762  38.398  12.558
66934W        W26228  24.227  33.589  11.093
66935W        W26229   4.831  32.595   2.830
66936W        W26230   4.699  29.956   1.797
66937W        W26231  44.338  25.543   0.349
66938W        W26232   7.787  18.159  12.826
66939W        W26233  35.458  11.366  10.918
66940W        W26234  22.746   8.344  13.848
66941W        W26235  32.635  29.484   3.669
66942W        W26236  40.513   4.258  10.494
66943W        W26237  21.533  43.359  13.060
66944W        W26238  20.689  10.151   2.859
66945W        W26239  13.277  31.062   3.193
66946W        W26240  31.572  21.748   2.276
66947W        W26241  26.108  11.224  13.059
66948W        W26242  21.109  29.553   4.287
66949W        W26243   7.247  22.995   2.333
66950W        W26244  34.581  39.953  14.390
66951W        W26245  15.092  28.131   1.889
66952W        W26246  10.878   9.204  11.490
66953W        W26247  31.634  13.768  11.969
66954W        W26248   3.905   5.818   2.722
66955W        W26249   1.755  35.886  10.584
66956W        W26250  34.495   3.722   3.386
66957W        W26251  17.280  26.688   1.868
66958W        W26252   1.788  40.812  12.878
66959W        W26253  38.505   6.233  11.977
66960W        W26254  20.195  32.618   1.881
66961W        W26255  33.053  13.805   1.819
66962W        W26256   4.412  18.120  12.048
66963W        W26257  37.448  14.698  13.839
66964W        W26258   9.372  40.968  14.808
66965W        W26259  14.721  27.087   3.861
66966W        W26260  37.953  30.507  13.035
66967W        W26261  40.415  32.634   4.308
66968W        W26262   3.771  22.524  12.891
66969W        W26263   2.806  24.646   3.381
66970W        W26264  33.901  43.337   2.282
66971W        W26265  10.877  43.988   2.338
66972W        W26266   3.887  15.225  14.311
66973W        W26267  38.854  20.737   4.812
66974W        W26268   4.319  11.689   1.249
66975W        W26269   2.766  44.985  11.503
66976W        W26270  41.931  19.121   3.346
66977W        W26271   5.384  21.251   1.246
66978W        W26272  34.522  24.113   4.327
66979W        W26273  33.469   9.367  13.057
66980W        W26274  16.072   0.458  14.494
66981W        W26275   4.869  20.171   5.713
66982W        W26276  29.510  31.084  14.358
66983W        W26277  14.258  24.197  11.453
66984W        W26278  37.364  40.838   3.266
66985W        W26279  38.948  27.195  13.411
66986W        W26280  17.277  30.570   2.782
66987W        W26281  36.424  28.521   4.115
66988W        W26282  32.521   0.772   4.200
66989W        W26283   2.256   7.184   4.245
66990W        W26284  28.572  24.531  14.490
66991W        W26285  23.084   8.190   3.221
66992W        W26286   5.916  19.674   5.679
66993W        W26287  34.532  13.349  14.312
66994W        W26288   9.811  28.509   3.233
66995W        W26289  36.051   2.356  14.405
66996W        W26290  28.638  27.542  12.964
66997W        W26291  13.652  40.887  10.481
66998W        W26292  15.147  40.519  11.031
66999W        W26293  35.989   4.891  13.914
67000W        W26294  25.978  19.737  11.033
67001W        W26295  28.635  24.542  13.374
67002W        W26296   2.439  43.377   3.809
67003W        W26297   6.185  21.197  12.441
67004W        W26298  44.398  44.880   0.428
67005W        W26299  19.533  37.385  12.538
67006W        W26300  42.434   1.755   0.339
67007W        W26301   6.183  29.918  13.851
67008W        W26302   0.908  25.070   4.250
67009W        W26303  38.825  38.881  10.937
67010W        W26304  43.420   8.312   2.413
67011W        W26305  35.924  17.192  11.890
67012W        W26306   2.409   6.376   5.195
67013W        W26307  35.424  17.655  14.845
67014W        W26308  41.497  27.683   0.761
67015W        W26309  23.541  12.355  11.961
67016W        W26310   7.374  25.587  10.562
67017W        W26311  15.233   8.763  11.954
67018W        W26312  29.979  25.496   3.809
67019W        W26313   1.432   3.919  13.319
67020W        W26314  20.732  36.969   4.288
67021W        W26315   6.194  34.890  13.438
67022W        W26316  26.109  16.638   4.781
67023W        W26317  16.132  41.848  13.518
67024W        W26318  40.450  21.130  11.069
67025W        W26319   5.416   1.294  14.418
67026W        W26320  43.876  24.103  11.878
67027W        W26321   4.413  42.984  12.395
67028W        W26322   9.861  28.590   1.392
67029W        W26323  34.405  10.673  14.834
67030W        W26324  27.511  43.893   4.318
67031W        W26325  42.775  34.513  11.087
67032W        W26326  22.600  33.489   2.760
67033W        W26327  15.586  18.081   3.780
67034W        W26328   3.342   6.220  13.384
67035W        W26329  43.294  24.607   3.757
67036W        W26330  30.587   4.267   0.339
67037W        W26331  37.857  31.432   2.902
67038W        W26332  10.769  33.923   2.318
67039W        W26333  43.461  16.698   4.131
67040W        W26334   6.406  38.074  13.808
67041W        W26335  31.411  40.957   4.188
67042W        W26336   2.924  21.168   0.841
67043W        W26337  32.936  29.479  14.770
67044W        W26338  42.434  40.367   3.356
67045W        W26339  44.371  36.572   3.808
67046W        W26340  23.553   5.842   0.417
67047W        W26341  23.658  44.501  12.990
67048W        W26342  40.042   6.745  14.476
67049W        W26343  32.939  42.323  10.580
67050W        W26344  27.112  39.459   0.268
67051W        W26345  20.141  38.435  10.417
67052W        W26346  10.281  44.756   0.948
67053W        W26347  29.921   4.856  11.578
67054W        W26348  21.142   1.374   4.636
67055W        W26349  38.557  36.368  11.053
67056W        W26350  40.862  29.622  11.983
67057W        W26351   7.710  30.997   1.847
67058W        W26352  12.693  32.943   2.285
67059W        W26353  44.853   5.197   0.821
67060W        W26354  14.153  33.525   3.246
67061W        W26355   3.830  25.109   3.190
67062W        W26356  42.875  29.950  14.360
67063W        W26357  34.572  13.786  13.525
67064W        W26358   1.824   8.393   3.742
67065W        W26359  31.524  19.053   0.828
67066W        W26360   0.941  35.489   0.906
67067W        W26361  24.573  19.655   2.790
67068W        W26362   7.731  21.746  11.053
67069W        W26363  21.216  35.065  14.958
67070W        W26364  23.038  16.609  10.416
67071W        W26365   3.936  35.006  13.915
67072W        W26366  30.927  44.390   3.269
67073W        W26367  22.075  32.488   1.212
67074W        W26368  37.907  44.789  10.581
67075W        W26369  21.609   8.367  11.393
67076W        W26370  13.270  20.652   1.831
67077W        W26371  23.649  15.199  14.326
67078W        W26372  32.618  16.222   2.231
67079W        W26373   6.787   9.362   1.816
67080W        W26374  10.875   8.888  11.957
67081W        W26375  32.423  40.411  10.121
67082W        W26376  31.453  11.805  13.341
67083W        W26377   8.204  41.391   1.239
67084W        W26378   6.826  18.161   3.356
67085W        W26379  41.532  17.800   2.848
67086W        W26380  41.307  14.167  11.412
67087W        W26381  32.029  31.930   3.657
67088W        W26382   6.227  18.202  14.983
67089W        W26383  39.504  38.974  11.469
67090W        W26384   2.367  16.155   3.758
67091W        W26385  33.495  16.239   1.431
67092W        W26386   9.828  18.089  13.835
67093W        W26387  14.323  33.622  12.862
67094W        W26388  34.993  18.210  12.547
67095W        W26389  11.759   3.256  10.632
67096W        W26390  29.934  23.613  13.014
67097W        W26391  14.598  15.616   1.719
67098W        W26392  11.321  27.100   1.791
67099W        W26393  22.663  41.317   2.852
67100W        W26394  18.548  39.436  10.955
67101W        W26395  40.935  32.442   0.865
67102W        W26396  23.545  17.156  14.489
67103W        W26397  43.372  44.453  12.082
67104W        W26398  33.909  20.208  12.914
67105W        W26399  25.543   3.276  13.854
67106W        W26400   2.427  30.113   1.860
67107W        W26401  26.625   7.229  12.434
67108W        W26402  20.683  27.681   4.824
67109W        W26403  31.137   6.291  11.107
67110W        W26404  30.421  32.943   4.140
67111W        W26405  12.671  16.202   3.775
67112W        W26406  44.764   4.840  11.913
67113W        W26407  43.423  17.223  12.453
67114W        W26408  19.182  17.291  13.414
67115W        W26409  21.126  21.738   0.829
67116W        W26410  29.927  22.529  13.990
67117W        W26411  43.809  39.520  12.058
67118W        W26412  15.284  21.575  12.560
67119W        W26413   0.339   1.916  11.954
67120W        W26414  25.022  12.186   1.393
67121W        W26415  44.913  27.689   4.801
67122W        W26416  25.979   8.901   1.402
67123W        W26417  19.649  23.139  14.914
67124W        W26418   2.260  12.620   2.404
67125W        W26419   3.769   6.319   0.443
67126W        W26420  26.652  13.752  14.998
67127W        W26421   3.322  14.625  11.008
67128W        W26422  11.256  16.765  14.022
67129W        W26423  39.943  24.153   0.400
67130W        W26424  17.691   3.331  12.553
67131W        W26425   3.836  10.637   1.327
67132W        W26426  13.650   3.853   1.272
67133W        W26427  17.687  12.305   0.825
67134W        W26428  15.780  14.701   1.923
67135W        W26429  10.868  28.552  12.488
67136W        W26430   7.282  41.989  14.445
67137W        W26431  24.514  37.421   4.198
67138W        W26432   0.438  33.126  11.604
67139W        W26433  33.062   1.975  11.035
67140W        W26434  13.237  28.021  14.795
67141W        W26435   0.297   5.693  10.626
67142W        W26436  24.714  13.816  13.398
67143W        W26437  31.407  34.961  14.308
67144W        W26438  28.063   7.679  12.572
67145W        W26439  32.910  23.229  11.461
67146W        W26440  34.937  21.230  10.041
67147W        W26441  18.141  44.807   0.875
67148W        W26442   8.681  20.767   0.885
67149W        W26443  44.334  34.604   3.658
67150W        W26444  10.299  40.497   1.269
67151W        W26445   6.279  14.674   3.831
67152W        W26446  28.552  40.049  13.401
67153W        W26447  39.964  34.101  12.347
67154W        W26448  39.856  11.713  11.517
67155W        W26449  14.136  21.755   2.190
67156W        W26450   0.932  10.761  13.480
67157W        W26451   6.366   5.276   4.299
67158W        W26452   2.823  14.155  10.516
67159W        W26453   8.700  29.488   3.332
67160W        W26454  38.846   1.976   2.788
67161W        W26455  38.377  37.346  10.504
67162W        W26456  27.109  38.995   2.199
67163W        W26457  16.260  11.650   3.294
67164W        W26458   0.833  30.137   0.904
67165W        W26459  42.461  43.967   0.733
67166W        W26460   5.915  14.758   0.961
67167W        W26461  40.511  22.036   2.214
67168W        W26462   3.828  41.951  13.943
67169W        W26463  33.874  14.732  10.486
67170W        W26464  33.554  17.109   1.276
67171W        W26465  30.016  44.375   3.865
67172W        W26466   1.358  12.788  11.599
67173W        W26467   6.248  21.068   2.415
67174W        W26468   5.378   0.973  13.976
67175W        W26469  31.488  27.980   0.462
67176W        W26470  32.402  20.141   0.795
67177W        W26471  34.447  32.885  13.021
67178W        W26472  16.286  13.287   4.345
67179W        W26473  11.308  27.973   3.802
67180W        W26474   9.679  33.561   0.782
67181W        W26475  41.821  37.540   0.319
67182W        W26476  32.419  17.656   1.297
67183W        W26477  26.689   2.790  13.437
67184W        W26478  44.833   8.886   2.788
67185W        W26479  26.032  22.653   0.358
67186W        W26480  40.879  22.721   2.690
67187W        W26481   1.923  18.269   4.787
67188W        W26482  23.595  12.176   1.390
67189W        W26483   1.398  18.550   4.227
67190W        W26484   3.390  20.037   1.220
67191W        W26485   7.243   4.374   3.752
67192W        W26486  44.968  42.977  14.472
67193W        W26487  10.372  28.972   0.737
67194W        W26488   8.216  41.494   4.196
67195W        W26489  41.369  31.075  14.315
67196W        W26490   5.208  20.579  14.319
67197W        W26491   5.762  25.498  11.996
67198W        W26492   1.315  44.477   0.427
67199W        W26493  11.747  22.574   0.437
67200W        W26494  32.121  13.295   0.443
67201W        W26495  13.150   6.425  11.376
67202W        W26496  11.756  36.998  12.435
67203W        W26497  24.723  33.072   2.765
67204W        W26498   4.937   5.335   5.249
67205W        W26499  44.972  31.427  11.376
67206W        W26500  37.358  26.994   4.172
67207W        W26501  26.182  37.444   4.660
67208W        W26502   2.736  33.963   1.776
67209W        W26503  34.043  16.235   2.841
67210W        W26504  36.411  19.735   4.246
67211W        W26505  40.923   9.292  14.321
67212W        W26506  23.087  18.750   3.271
67213W        W26507   6.709   9.149  10.497
67214W        W26508  32.120   9.768  14.479
67215W        W26509  28.539  27.634   4.232
67216W        W26510  44.825  33.121   4.221
67217W        W26511  16.644  38.958  11.388
67218W        W26512   8.707  34.535  11.888
67219W        W26513   1.851  20.049  14.302
67220W        W26514  33.593  23.117   4.676
67221W        W26515  39.016  44.844  13.467
67222W        W26516  25.184  32.971  10.570
67223W        W26517  21.202  25.171  14.896
67224W        W26518  31.979  35.405   3.186
67225W        W26519  10.155  42.289   1.360
67226W        W26520  11.138   4.918   0.434
67227W        W26521  15.114  31.468   2.669
67228W        W26522   3.791  12.748  12.089
67229W        W26523  14.753  41.014   4.831
67230W        W26524  10.199  30.088   9.994
67231W        W26525  31.114  25.470   4.736
67232W        W26526  14.263  17.627   3.213
67233W        W26527  38.328  32.498   2.262
67234W        W26528  25.628   5.800   2.752
67235W        W26529   5.356   7.802  13.319
67236W        W26530   9.151  43.907  11.570
67237W        W26531  17.698  19.780   3.206
67238W        W26532  36.063   7.766  12.441
67239W        W26533  41.297   1.382  14.963
67240W        W26534   9.825  28.639   2.216
67241W        W26535   3.716  35.466   0.328
67242W        W26536  39.477  18.291  13.960
67243W        W26537  38.523  15.644   2.763
67244W        W26538  42.890  29.030  12.943
67245W        W26539   0.805  18.611   1.396
67246W        W26540  21.651  11.339   1.433
67247W        W26541  37.836  42.466  11.564
67248W        W26542   2.394  30.457  12.980
67249W        W26543   6.744  31.405  14.383
67250W        W26544  23.662  36.875   1.931
67251W        W26545  44.262  25.713  13.811
67252W        W26546   3.456  41.011   3.805
67253W        W26547   9.824  34.590   1.763
67254W        W26548  17.121  13.670   0.741
67255W        W26549  42.020  28.673  10.460
67256W        W26550   7.724  24.530  10.946
67257W        W26551  15.229  17.134  13.959
67258W        W26552  16.581  21.257  12.387
67259W        W26553  22.020  29.984   0.915
67260W        W26554  44.958  14.768  12.433
67261W        W26555  33.386   7.207  12.937
67262W        W26556   4.781  26.657  13.931
67263W        W26557  34.944  44.396  10.594
67264W        W26558   9.262  12.200  11.930
67265W        W26559  31.974  40.933   3.170
67266W        W26560  42.004  19.553   3.752
67267W        W26561  16.637   3.315   3.320
67268W        W26562  31.513  35.539  11.605
67269W        W26563  43.833  23.099  11.445
67270W        W26564  30.136   3.332   3.837
67271W        W26565   9.815  42.420   2.265
67272W        W26566  23.706   5.878  13.901
67273W        W26567  38.059   8.838   0.386
67274W        W26568  24.610   0.953   2.812
67275W        W26569  19.139   2.354   0.369
67276W        W26570  26.685   9.782  14.400
67277W        W26571  22.237  39.410   1.741
67278W        W26572  31.412   2.861  12.508
67279W        W26573  28.632  13.285  13.858
67280W        W26574   5.223  38.408  14.918
67281W        W26575  41.977  25.119  11.390
67282W        W26576  42.295  39.911  11.128
67283W        W26577   7.365  14.597  11.417
67284W        W26578   4.403   9.856  10.548
67285W        W26579  30.609   9.218   4.258
67286W        W26580  33.126  22.666  14.862
67287W        W26581   8.792  36.918  10.578
67288W        W26582  39.429  15.824  12.846
67289W        W26583  10.291   4.257   3.204
67290W        W26584  19.243  37.347   3.683
67291W        W26585   0.466  24.109  10.550
67292W        W26586  17.266  39.503   2.386
67293W        W26587  20.060  25.117  10.106
67294W        W26588  41.306  40.836  13.544
67295W        W26589   1.358  32.406   4.279
67296W        W26590   0.795  36.008  13.939
67297W        W26591  28.174  19.547   9.933
67298W        W26592  23.008  23.067  13.538
67299W        W26593  31.120   4.206  11.402
67300W        W26594  38.883  18.597   4.731
67301W        W26595   7.237  10.374   1.410
67302W        W26596  26.609  10.164   2.237
67303W        W26597  37.830  12.209   3.730
67304W        W26598  31.430  24.032  12.032
67305W        W26599   6.797   4.835  14.760
67306W        W26600  33.963   8.709  12.954
67307W        W26601  20.549   3.776   2.220
67308W        W26602  37.976  27.457   1.305
67309W        W26603  30.057  42.992  12.449
67310W        W26604   7.403   7.696  11.041
67311W        W26605  31.616  25.188   1.321
67312W        W26606  12.814  37.433  13.043
67313W        W26607  30.056   0.314   1.921
67314W        W26608  28.184  33.454  10.619
67315W        W26609  28.183   2.244   2.765
67316W        W26610  41.954  28.120  12.477
67317W        W26611  42.839  43.481  14.778
67318W        W26612  34.043   9.703   1.920
67319W        W26613  35.104   8.775   2.353
67320W        W26614  30.606   8.276  13.375
67321W        W26615  27.507   1.295  11.494
67322W        W26616  17.301   8.189   3.341
67323W        W26617  20.748  29.630   3.790
67324W        W26618  21.546  13.200   1.904
67325W        W26619   8.843  42.859   2.887
67326W        W26620  29.457  13.297   3.210
67327W        W26621  21.144  34.381   3.730
67328W        W26622   2.766  40.839   2.779
67329W        W26623  35.076  30.101  11.515
67330W        W26624  10.730  12.739  12.458
67331W        W26625  44.333  21.662  13.430
67332W        W26626  33.889  26.695  10.972
67333W        W26627  40.877  17.627   3.146
67334W        W26628  16.727  28.016  13.791
67335W        W26629   2.227  44.324  11.027
67336W        W26630  38.385  31.022  14.977
67337W        W26631   3.300  10.688   2.760
67338W        W26632  32.399  37.408  10.583
67339W        W26633  32.003  10.806  12.538
67340W        W26634  18.276  23.035   4.717
67341W        W26635   1.283  34.113  12.415
67342W        W26636  20.610  26.457   5.183
67343W        W26637  40.450  13.224  13.819
67344W        W26638  35.973   2.414  13.055
67345W        W26639  37.059  30.080   3.176
67346W        W26640   9.383  25.195   5.263
67347W        W26641   4.917  34.418   4.628
67348W        W26642  42.459  12.337   4.736
67349W        W26643  39.036   9.761   1.891
67350W        W26644  25.497   7.259   3.201
67351W        W26645  37.537  14.680   1.922
67352W        W26646  21.556  23.169  12.531
67353W        W26647  26.102   2.834  11.485
67354W        W26648  22.540  19.656   0.407
67355W        W26649  39.439   2.734  10.506
67356W        W26650  13.779  17.078  10.619
67357W        W26651  35.875  15.767   4.347
67358W        W26652  10.843  44.889   0.876
67359W        W26653   1.359  14.589   1.829
67360W        W26654  13.183  10.652   2.807
67361W        W26655   6.401  43.464  12.012
67362W        W26656  13.324  29.044   0.964
67363W        W26657  29.617  33.415  10.907
67364W        W26658  41.935  26.541   1.727
67365W        W26659  34.087   9.763   2.414
67366W        W26660  26.123  10.842   1.211
67367W        W26661  30.148  29.049   4.749
67368W        W26662  28.636  25.098  14.479
67369W        W26663  25.095  18.062   2.214
67370W        W26664  10.812  25.527   3.838
67371W        W26665   0.908  24.173   0.364
67372W        W26666  29.173  41.425   0.888
67373W        W26667  23.087  23.106  10.483
67374W        W26668   2.741   6.218  13.378
67375W        W26669   8.859  26.572  14.764
67376W        W26670  22.595  31.525   2.697
67377W        W26671  39.851  20.083   2.195
67378W        W26672  36.387  12.851  10.060
67379W        W26673  20.139   6.820  12.942
67380W        W26674  20.178   0.919   0.480
67381W        W26675   9.183  41.026   2.866
67382W        W26676  27.083  15.710   3.319
67383W        W26677   4.722  11.729  14.965
67384W        W26678  29.533  13.767  10.961
67385W        W26679   3.853  22.691   1.376
67386W        W26680  38.434  31.472   1.415
67387W        W26681   3.359  43.953   1.242
67388W        W26682  29.055  12.708  14.969
67389W        W26683  28.592  26.007   3.295
67390W        W26684   3.904  37.057  10.950
67391W        W26685  41.981  31.518   0.893
67392W        W26686  24.129  37.942  13.375
67393W        W26687  10.777  32.103  10.946
67394W        W26688  35.444  20.693  13.972
67395W        W26689  37.353  15.593  12.561
67396W        W26690  21.552  15.592   1.252
67397W        W26691  20.561   1.350   4.292
67398W        W26692  30.657   4.884   1.290
67399W        W26693  22.700  14.308  11.940
67400W        W26694  39.035  40.047  14.414
67401W        W26695   3.858  29.038   3.183
67402W        W26696  41.357  42.502  10.633
67403W        W26697  38.047   7.893   2.205
67404W        W26698   6.879  26.654   0.916
67405W        W26699  34.602   0.918   3.372
67406W        W26700  32.943  36.905   1.742
67407W        W26701  35.993  16.730   4.704
67408W        W26702  44.312  12.715  12.059
67409W        W26703  23.507   3.770   0.295
67410W        W26704  12.670   5.762   3.633
67411W        W26705  30.041  18.201   0.805
67412W        W26706   2.323   0.963  12.489
67413W        W26707  25.640   6.383   2.323
67414W        W26708  20.660  35.006  11.521
67415W        W26709  28.965   6.910   1.834
67416W        W26710  12.258   5.897  14.426
67417W        W26711   0.929   7.345  12.040
67418W        W26712  25.517  38.954   9.650
67419W        W26713  28.141   7.293  12.929
67420W        W26714  17.673   6.279  13.929
67421W        W26715   6.886  39.984  13.515
67422W        W26716  30.557   8.238  12.441
67423W        W26717  13.644   9.330   1.830
67424W        W26718   7.898  35.573   2.367
67425W        W26719  23.128  29.552   2.781
67426W        W26720  18.189   9.808   4.186
67427W        W26721  38.505  43.426   1.436
67428W        W26722  32.397   1.269   0.947
67429W        W26723  39.397  16.205  13.872
67430W        W26724  14.826  32.509   3.783
67431W        W26725  29.143  17.171  11.970
67432W        W26726  23.586  16.609  12.947
67433W        W26727  13.146  11.817  12.418
67434W        W26728  10.782  18.066   3.269
67435W        W26729  19.121  15.155  12.940
67436W        W26730   3.323  16.648  11.590
67437W        W26731  37.547  30.127   1.228
67438W        W26732  38.893   7.672  14.014
67439W        W26733   5.402  38.382   1.841
67440W        W26734  24.491  35.385  10.888
67441W        W26735  19.243   4.915   3.807
67442W        W26736  30.529  18.569  10.457
67443W        W26737  32.446   9.357  11.900
67444W        W26738  34.057  42.428   4.721
67445W        W26739   9.777  21.547   5.635
67446W        W26740  31.645  12.140   2.232
67447W        W26741  41.439  34.383  10.955
67448W        W26742  22.055   8.357   2.681
67449W        W26743   2.865  10.854  14.362
67450W        W26744  35.873   4.340  13.800
67451W        W26745  41.847   1.408   1.725
67452W        W26746  41.319  43.834   3.717
67453W        W26747  38.500   9.164   2.334
67454W        W26748  18.271   8.255   0.420
67455W        W26749  13.798  13.345   3.749
67456W        W26750  17.632  38.970   4.304
67457W        W26751   6.715   3.293  11.386
67458W        W26752  42.989   8.756  12.486
67459W        W26753  33.623  35.105   5.156
67460W        W26754  32.003  30.095   2.889
67461W        W26755  19.111  22.249  12.920
67462W        W26756  14.262  26.127   2.774
67463W        W26757  25.999  39.900  10.553
67464W        W26758   8.296  11.293   2.748
67465W        W26759  11.265  21.113  10.555
67466W        W26760   5.710   6.719  12.439
67467W        W26761   6.403  20.579  11.582
67468W        W26762  37.580  22.052   1.891
67469W        W26763  40.405  42.991   3.217
67470W        W26764   6.259  25.698  11.527
67471W        W26765  37.960  35.001   0.452
67472W        W26766  26.053  43.462   0.930
67473W        W26767  31.907  19.283  14.437
67474W        W26768  32.488  27.050  12.541
67475W        W26769   5.369  23.718   0.901
67476W        W26770  13.304  18.093  14.357
67477W        W26771  37.363   1.466  11.974
67478W        W26772  37.347   6.896   3.759
67479W        W26773  30.063  38.412   3.386
67480W        W26774  21.047  13.343   1.385
67481W        W26775  23.157  10.794  13.026
67482W        W26776  44.388   5.816   2.342
67483W        W26777  21.179   7.677   2.849
67484W        W26778  24.682  22.030  14.789
67485W        W26779  34.371  25.968   0.349
67486W        W26780  17.137  41.797  11.975
67487W        W26781  42.904  30.048   3.689
67488W        W26782   5.893  33.945   3.285
67489W        W26783  33.527  24.596   1.430
67490W        W26784  14.132  29.612   3.386
67491W        W26785   8.893  36.532   0.315
67492W        W26786   8.832  14.633   0.956
67493W        W26787  17.232  42.298   3.152
67494W        W26788  44.867  32.958   3.200
67495W        W26789   1.892  22.516  14.499
67496W        W26790   2.726   4.389  10.571
67497W        W26791  18.766  14.692  10.623
67498W        W26792   0.949  42.781   5.126
67499W        W26793   6.694  25.984  14.348
67500W        W26794  11.307   0.261   5.189
67501W        W26795  21.035  13.175   3.842
67502W        W26796  28.011  31.054   3.869
67503W        W26797  16.214  21.193  13.355
67504W        W26798  32.007   3.432   4.627
67505W        W26799  21.617  10.756  13.062
67506W        W26800  32.480  38.453   3.318
67507W        W26801  27.078  34.460   0.731
67508W        W26802  19.235   4.393   4.140
67509W        W26803  12.167   1.932  11.440
67510W        W26804  17.242  19.251   0.452
67511W        W26805  11.168  18.700  12.353
67512W        W26806  37.981  27.469   0.318
67513W        W26807  18.763  25.594  13.473
67514W        W26808  44.754  30.018  14.489
67515W        W26809  22.038  10.143  12.456
67516W        W26810  23.107  25.611   4.687
67517W        W26811  15.711   4.348  11.502
67518W        W26812  15.805  18.123   2.318
67519W        W26813  20.029  15.277   0.248
67520W        W26814  14.240  22.078  13.435
67521W        W26815  37.417  38.975  13.898
67522W        W26816  30.930   0.745   2.343
67523W        W26817  30.418  40.894  10.592
67524W        W26818  40.864  44.418  11.551
67525W        W26819   8.874  21.517  12.937
67526W        W26820  41.439   4.383  13.882
67527W        W26821  22.716  36.966   2.699
67528W        W26822  38.941  17.081  13.897
67529W        W26823  33.554  38.905   2.245
67530W        W26824  38.448  13.705   1.231
67531W        W26825  37.453   8.661  12.858
67532W        W26826  42.838  41.532   3.660
67533W        W26827  29.606  42.810   1.286
67534W        W26828   7.797  29.980  13.998
67535W        W26829  13.130  33.039   1.728
67536W        W26830   9.381  30.152  13.996
67537W        W26831  28.141  21.697  14.414
67538W        W26832  37.424  39.977  11.886
67539W        W26833   8.371  10.300  11.865
67540W        W26834  19.578  24.498  14.778
67541W        W26835  12.265  13.777   4.642
67542W        W26836  27.175  43.810   3.666
67543W        W26837  19.125  44.951   3.367
67544W        W26838   3.376   1.886   0.736
67545W        W26839  43.298  39.979   2.295
67546W        W26840   3.309  34.449  10.118
67547W        W26841  18.644   7.271  14.968
67548W        W26842  31.938  27.628  13.927
67549W        W26843  38.015  39.870   3.273
67550W        W26844  16.656   8.755  12.910
67551W        W26845  32.916  19.084   2.806
67552W        W26846  16.243  20.733   0.387
67553W        W26847  26.511  23.228   3.207
67554W        W26848  40.538   3.721   1.357
67555W        W26849   5.893  31.003  11.964
67556W        W26850  24.172  30.549   4.717
67557W        W26851  31.606  24.075   4.175
67558W        W26852   4.421  36.965   4.273
67559W        W26853  31.472   7.275   5.238
67560W        W26854  37.358  38.921  14.941
67561W        W26855  16.651  28.958  14.465
67562W        W26856  43.959  28.548  13.971
67563W        W26857  43.309  26.985   3.830
67564W        W26858  15.199  15.125  10.888
67565W        W26859   7.267  34.413  12.378
67566W        W26860  18.098   2.746   4.823
67567W        W26861  11.333  22.677  13.957
67568W        W26862  44.285  23.089  11.599
67569W        W26863   7.764   1.342  11.462
67570W        W26864   4.421   7.684  11.444
67571W        W26865  29.928  41.344  12.349
67572W        W26866  24.027  42.390  12.910
67573W        W26867  22.035   9.711  10.613
67574W        W26868  32.403  42.471   1.283
67575W        W26869  32.471  24.720  10.497
67576W        W26870   3.859   1.830   5.240
67577W        W26871   8.325  28.946  12.051
67578W        W26872  29.933   6.344   0.483
67579W        W26873  38.525   9.845  13.809
67580W        W26874   3.423   1.291   4.264
67581W        W26875  40.339  25.032  11.573
67582W        W26876  42.974  19.737   4.177
67583W        W26877  12.627  21.087  11.084
67584W        W26878  18.587  11.825   5.149
67585W        W26879  30.037  16.657  11.479
67586W        W26880  34.438   3.336  14.817
67587W        W26881  35.958  30.132  10.619
67588W        W26882  20.042  17.196   2.693
67589W        W26883  35.967  24.612  12.976
67590W        W26884  35.857  10.383  13.495
67591W        W26885  39.887  21.107   4.698
67592W        W26886  10.263  39.476   4.154
67593W        W26887  23.218   5.216  12.406
67594W        W26888  17.224  22.575  10.621
67595W        W26889  38.906  13.783   3.222
67596W        W26890  28.017   2.860  12.942
67597W        W26891  40.928  21.135  10.473
67598W        W26892   8.801  30.511   1.746
67599W        W26893  37.348  28.669  14.868
67600W        W26894   0.924  19.593   2.335
67601W        W26895  20.040  16.691  10.973
67602W        W26896  32.885  15.697  14.281
67603W        W26897  12.218   2.235  12.509
67604W        W26898  11.279  39.368   1.805
67605W        W26899   5.876  28.635  11.874
67606W        W26900  15.275  33.596  12.892
67607W        W26901  38.348   3.901  12.944
67608W        W26902  23.539  13.711   0.966
67609W        W26903  16.805  36.927   4.200
67610W        W26904  32.069   2.268   2.775
67611W        W26905  40.853  28.052  11.015
67612W        W26906  12.706  11.270   2.871
67613W        W26907  37.907  42.008  12.884
67614W        W26908  19.062  20.151  14.999
67615W        W26909   3.744  40.889  14.375
67616W        W26910  38.462  34.920  13.968
67617W        W26911  35.415  23.176   0.471
67618W        W26912  19.684  16.717   9.988
67619W        W26913  37.976  27.684  11.548
67620W        W26914  39.816   6.709  10.941
67621W        W26915  35.497  36.526   3.355
67622W        W26916  32.468  19.702  13.405
67623W        W26917  33.942  18.557  13.908
67624W        W26918  17.126  44.928  14.785
67625W        W26919  31.946  43.300  14.003
67626W        W26920  38.961  22.718  10.949
67627W        W26921  38.987  15.723  14.402
67628W        W26922  25.702  40.992   3.723
67629W        W26923   5.775  41.339   0.249
67630W        W26924  24.546  18.289   2.833
67631W        W26925  43.896  13.665  14.440
67632W        W26926   3.308  15.294   1.367
67633W        W26927   5.784  18.689  14.786
67634W        W26928  25.137  30.985   2.399
67635W        W26929  11.141   4.898  10.616
67636W        W26930  27.137  28.521   4.755
67637W        W26931  28.974   6.390   1.696
67638W        W26932  37.961  12.222   1.779
67639W        W26933  39.843  43.829   2.769
67640W        W26934   4.409   6.838   3.853
67641W        W26935  28.083  42.961   5.227
67642W        W26936  37.376  17.072  11.880
67643W        W26937  32.485   6.686   2.373
67644W        W26938  15.753  11.260   5.250
67645W        W26939   8.801  44.259  14.477
67646W        W26940  39.337   2.812   3.263
67647W        W26941  18.120  14.297   2.818
67648W        W26942   0.355  43.280   4.677
67649W        W26943  10.633  36.045  13.851
67650W        W26944  33.555  32.982  14.986
67651W        W26945  42.419   8.803   3.733
67652W        W26946   8.863   5.828  13.403
67653W        W26947   7.335  37.552  10.496
67654W        W26948  17.582  25.059  14.293
67655W        W26949   5.736  22.743   4.796
67656W        W26950  16.106  27.153  13.509
67657W        W26951   2.336  33.128  11.083
67658W        W26952  43.277   9.151  13.496
67659W        W26953  22.651   1.259  14.952
67660W        W26954  20.117  22.618  12.988
67661W        W26955   0.326  42.976   2.330
67662W        W26956  21.197  30.959   3.745
67663W        W26957   1.899  18.069  10.955
67664W        W26958  44.469  18.647   2.292
67665W        W26959   9.351  30.962   0.959
67666W        W26960  42.379   2.801   2.210
67667W        W26961  18.089  42.434   2.866
67668W        W26962  23.493   7.224   2.294
67669W        W26963   3.400  31.950   1.344
67670W        W26964  40.898  10.720  12.994
67671W        W26965  21.107   6.417   2.359
67672W        W26966  42.881  26.485   2.199
67673W        W26967  28.118   6.404   0.470
67674W        W26968  12.244  11.299  11.951
67675W        W26969  13.333  21.181   0.440
67676W        W26970  31.934  12.614  14.389
67677W        W26971   2.411   6.756   2.417
67678W        W26972   4.875  14.649  11.004
67679W        W26973  25.693   0.267  14.438
67680W        W26974  36.004  29.542   0.406
67681W        W26975  29.601  34.991   3.809
67682W        W26976  10.842   9.735   0.358
67683W        W26977  43.908  40.857  14.431
67684W        W26978   4.337  12.195  10.642
67685W        W26979  42.383  34.937  10.407
67686W        W26980  25.501  42.834  14.005
67687W        W26981  25.998  28.455  11.951
67688W        W26982   6.811   9.241  11.477
67689W        W26983  41.863  25.174   4.709
67690W        W26984  27.072  44.319  12.485
67691W        W26985  43.338  13.725   1.387
67692W        W26986  37.976  27.575  14.889
67693W        W26987  26.064   5.405  12.833
67694W        W26988  22.242  34.966  13.054
67695W        W26989  24.541  25.617   2.268
67696W        W26990  26.675   2.228   1.796
67697W        W26991  25.145  38.512   1.786
67698W        W26992  15.742   3.365  10.042
67699W        W26993  36.390  23.047  13.000
67700W        W26994  18.200  34.962   1.329
67701W        W26995   0.976  34.535   2.810
67702W        W26996  12.738  22.195  12.965
67703W        W26997  23.070  16.146   0.309
67704W        W26998  12.167   4.941   2.818
67705W        W26999  21.231  36.387  12.859
67706W        W27000   8.383  21.182  12.535
67707W        W27001  40.032  35.452  13.952
67708W        W27002   9.666   3.852   3.187
67709W        W27003  10.724  24.180   1.874
67710W        W27004  16.285   2.888  13.486
67711W        W27005  32.993  12.706   4.651
67712W        W27006  39.476  21.133   1.283
67713W        W27007  16.140  10.200  13.048
67714W        W27008  41.875  40.305  12.943
67715W        W27009  39.372  38.490  14.786
67716W        W27010  28.558  31.639   4.640
67717W        W27011  10.334   4.290   5.258
67718W        W27012  14.662  44.975   4.246
67719W        W27013   8.858  18.053   0.463
67720W        W27014   7.672   1.481  11.899
67721W        W27015  20.737  11.637  13.449
67722W        W27016  18.587  26.036  13.330
67723W        W27017   8.724  35.455  13.313
67724W        W27018   8.213  42.427  11.550
67725W        W27019  25.149  32.997   3.796
67726W        W27020  18.162  40.353  11.453
67727W        W27021  23.074   3.362  11.391
67728W        W27022  10.364   1.270  12.944
67729W        W27023  17.269  42.805   3.701
67730W        W27024  14.122  32.119   2.778
67731W        W27025   8.334   8.272  11.441
67732W        W27026  34.969   1.319   2.307
67733W        W27027  25.129  21.035   2.395
67734W        W27028  30.120  33.075   1.804
67735W        W27029  36.497  20.614  14.935
67736W        W27030   2.865  42.868  10.146
67737W        W27031   6.733  23.697  14.379
67738W        W27032   8.799  12.316   0.946
67739W        W27033  12.238   9.722   0.462
67740W        W27034  33.474   9.867  13.371
67741W        W27035   8.331  28.581   2.735
67742W        W27036  13.293  30.023   0.897
67743W        W27037  35.895  40.476   4.245
67744W        W27038   2.766  11.328  11.942
67745W        W27039  44.412  18.264   0.847
67746W        W27040  16.213  40.829   4.171
67747W        W27041   2.243  43.811  13.919
67748W        W27042  28.519   0.786   3.202
67749W        W27043  21.060  22.055  13.461
67750W        W27044  39.392  13.774  14.276
67751W        W27045  41.905   9.368   4.190
67752W        W27046  42.441  39.344  14.805
67753W        W27047  33.556  40.483  10.051
67754W        W27048  18.758  43.437  12.943
67755W        W27049  21.169  19.132  13.920
67756W        W27050  42.877  33.462  10.597
67757W        W27051  14.821   1.360   0.877
67758W        W27052  39.489  17.761   1.354
67759W        W27053  10.201  18.143   0.899
67760W        W27054   5.808  35.030  12.927
67761W        W27055  14.833  38.539  13.042
67762W        W27056   4.348  26.634  10.020
67763W        W27057  43.931  29.577   0.400
67764W        W27058  32.576   3.733   3.694
67765W        W27059   4.882  37.977   2.203
67766W        W27060  25.523  31.405   0.869
67767W        W27061  15.711  15.626  12.878
67768W        W27062   4.324  34.003   0.259
67769W        W27063  10.840  37.944   0.846
67770W        W27064  33.501  12.320   3.757
67771W        W27065  38.020  30.477   4.792
67772W        W27066  18.282  13.299   4.286
67773W        W27067  10.338  32.113   0.315
67774W        W27068  17.086  25.638  14.443
67775W        W27069  32.065  39.947   0.327
67776W        W27070  24.617   3.862  14.918
67777W        W27071  12.235  20.678   1.829
67778W        W27072  40.932  43.922   3.346
67779W        W27073  34.534  13.774   1.270
67780W        W27074  21.149  24.229  11.105
67781W        W27075  18.594  21.740  11.031
67782W        W27076   9.696  35.524  10.955
67783W        W27077  34.610  30.152   2.184
67784W        W27078  22.595  16.602   1.382
67785W        W27079  30.567  20.200   2.888
67786W        W27080  43.829  34.420  13.313
67787W        W27081  34.998  44.796  11.402
67788W        W27082  19.101  24.138   1.396
67789W        W27083  20.271  31.491   3.682
67790W        W27084  18.638  16.165   0.428
67791W        W27085   2.812   7.264   1.338
67792W        W27086   8.261  30.648   2.403
67793W        W27087   4.842   8.294  10.617
67794W        W27088  41.801  29.042   4.242
67795W        W27089   1.446   8.319  12.486
67796W        W27090  30.437  28.461  13.351
67797W        W27091  44.465  28.465   3.663
67798W        W27092  22.222   7.741  10.556
67799W        W27093  44.978   4.789   0.810
67800W        W27094  12.670  12.177   5.181
67801W        W27095  19.660   6.285  11.450
67802W        W27096  44.894   8.670   1.783
67803W        W27097  17.257   7.769  14.328
67804W        W27098  28.017  41.927   2.839
67805W        W27099  14.253  35.520   0.817
67806W        W27100  25.635  28.577  10.909
67807W        W27101  10.649  22.044  11.007
67808W        W27102  34.984   4.894  11.500
67809W        W27103  44.816  44.877  12.823
67810W        W27104   8.224  33.908   2.255
67811W        W27105   2.951  14.255   0.880
67812W        W27106  11.813  11.672  14.419
67813W        W27107  43.449  39.315  10.603
67814W        W27108  18.570  15.088  14.917
67815W        W27109   7.353  34.386  11.485
67816W        W27110  33.569  41.997  14.884
67817W        W27111  38.875   6.878   0.465
67818W        W27112   4.272  25.002   1.834
67819W        W27113  23.721  36.855  11.405
67820W        W27114  24.587   0.906  10.980
67821W        W27115  44.497   3.840   1.768
67822W        W27116  23.585  40.402   1.396
67823W        W27117   0.276  30.976   2.739
67824W        W27118  40.394  33.517  11.115
67825W        W27119  22.138  37.843  14.966
67826W        W27120  27.971  23.563  12.343
67827W        W27121  15.587  39.877   4.633
67828W        W27122  13.281   7.344  11.898
67829W        W27123  41.473  24.176  14.447
67830W        W27124   1.900  35.488  10.611
67831W        W27125   9.192  36.382  10.435
67832W        W27126   2.227  24.211  11.403
67833W        W27127  44.839   1.870   0.930
67834W        W27128  31.036  12.792   0.747
67835W        W27129  35.888   3.455   0.938
67836W        W27130   5.305  29.631   4.745
67837W        W27131  33.894  33.620   0.798
67838W        W27132  44.312  34.590   2.279
67839W        W27133  43.772  29.102  11.541
67840W        W27134  31.483  22.600   1.268
67841W        W27135  13.270  37.876   2.256
67842W        W27136  30.519  15.699   1.372
67843W        W27137  44.868  43.374  11.867
67844W        W27138  32.056  33.912   4.314
67845W        W27139   4.315  35.858   3.738
67846W        W27140  16.257   9.207   2.898
67847W        W27141   3.870  43.792  14.368
67848W        W27142   3.786   5.861  10.598
67849W        W27143  35.531  19.185   2.330
67850W        W27144  26.059   4.878  13.535
67851W        W27145  12.333  37.972   3.685
67852W        W27146  38.532  22.061  13.952
67853W        W27147  29.634  36.438  13.489
67854W        W27148  35.091  17.129  11.909
67855W        W27149  35.430  43.355   1.242
67856W        W27150  33.058   3.746   1.299
67857W        W27151  16.668  11.662   2.765
67858W        W27152  19.172  11.640   2.252
67859W        W27153  29.087   3.914  14.402
67860W        W27154  14.218  29.591   2.710
67861W        W27155  44.445  36.024   4.836
67862W        W27156  23.223  25.082   0.918
67863W        W27157  22.233  10.253  11.553
67864W        W27158   6.916  29.959  13.481
67865W        W27159   8.203  16.688   0.438
67866W        W27160   2.442   4.708   2.775
67867W        W27161   8.846   5.284  14.501
67868W        W27162  30.133  29.120   2.183
67869W        W27163  18.053  23.611   1.749
67870W        W27164  36.431  31.487  14.397
67871W        W27165  41.037  24.502  11.408
67872W        W27166  27.523   2.469   4.313
67873W        W27167  23.667  19.225   2.775
67874W        W27168  24.548  30.115  11.607
67875W        W27169  18.228   9.342  11.932
67876W        W27170   4.384  11.158   1.778
67877W        W27171  44.799  26.958   3.706
67878W        W27172   7.769  26.963  11.402
67879W        W27173   2.771   9.183   4.114
67880W        W27174  14.696  25.970   0.887
67881W        W27175  13.190  11.251  14.811
67882W        W27176  35.405   9.255  14.878
67883W        W27177  25.695  42.356   2.235
67884W        W27178   6.350  12.792  10.558
67885W        W27179   1.333   1.413   4.627
67886W        W27180  28.625  32.020  10.505
67887W        W27181  22.671   4.719   5.091
67888W        W27182  13.834  20.637  11.111
67889W        W27183  22.715  39.450   2.676
67890W        W27184  37.574  37.892  10.591
67891W        W27185  25.158  19.712  14.914
67892W        W27186  37.987  32.123  10.406
67893W        W27187   6.331  19.101   0.807
67894W        W27188   6.309  31.495   0.295
67895W        W27189  23.127  15.797  14.426
67896W        W27190  21.579  14.309   3.333
67897W        W27191   0.355  18.259   2.368
67898W        W27192   3.742  35.959   1.857
67899W        W27193  34.465   4.412   3.732
67900W        W27194   0.963  33.500  11.958
67901W        W27195  15.791   5.830   0.842
67902W        W27196  39.541   2.734   1.783
67903W        W27197  44.303  26.509  10.521
67904W        W27198  33.411  14.751   2.199
67905W        W27199   6.348  11.221  12.479
67906W        W27200  36.441  26.205   4.181
67907W        W27201  33.490  13.228   3.308
67908W        W27202  39.904  10.676   0.872
67909W        W27203  41.016  43.419   1.213
67910W        W27204  19.183   2.917   1.415
67911W        W27205  15.293   0.919   3.860
67912W        W27206  28.594  17.622   2.416
67913W        W27207  14.178  28.123   0.776
67914W        W27208  14.181   0.265   3.806
67915W        W27209  40.321  43.768   4.629
67916W        W27210  39.973  25.135  13.831
67917W        W27211  14.801  14.292   4.268
67918W        W27212  36.552  13.305   1.818
67919W        W27213   1.906  44.915  10.429
67920W        W27214  12.275  23.618   4.170
67921W        W27215  22.035  20.057   1.358
67922W        W27216  22.572  41.900   3.277
67923W        W27217   9.181   3.937   0.939
67924W        W27218   5.879  20.048   3.161
67925W        W27219  42.301  39.825   0.900
67926W        W27220  20.705  38.371   1.914
67927W        W27221  36.366   5.353  10.004
67928W        W27222  12.619  26.553   4.709
67929W        W27223  41.921  36.000  13.903
67930W        W27224  43.400   3.718   0.896
67931W        W27225  35.061  12.275  13.390
67932W        W27226  16.079  19.215   2.394
67933W        W27227  26.551  38.914  13.306
67934W        W27228  12.300  23.234   3.638
67935W        W27229  18.717  16.251   4.636
67936W        W27230  37.898   8.882   3.195
67937W        W27231   2.466  43.888   4.139
67938W        W27232   0.743  37.833  12.472
67939W        W27233   4.845  25.071   5.200
67940W        W27234  25.183  31.559   0.776
67941W        W27235  18.106  28.603   0.809
67942W        W27236  40.839  29.134   3.239
67943W        W27237   5.750  31.514  11.070
67944W        W27238   4.894   5.248   3.305
67945W        W27239  20.182  22.677  11.586
67946W        W27240  13.742  35.474  11.510
67947W        W27241  37.450   6.413  11.966
67948W        W27242   3.253  14.798  10.544
67949W        W27243  22.189  37.050  12.037
67950W        W27244  26.068  11.812   0.250
67951W        W27245  26.076   3.407   5.268
67952W        W27246  41.883  32.953   1.711
67953W        W27247   1.268  13.201   0.771
67954W        W27248  15.289  19.687  12.848
67955W        W27249  18.094   0.928  12.970
67956W        W27250  13.843  22.659  14.503
67957W        W27251   5.875  25.214  12.417
67958W        W27252  35.028  14.166  14.771
67959W        W27253  15.157  31.558   1.238
67960W        W27254   1.973  40.470  13.331
67961W        W27255  37.412  21.137  11.028
67962W        W27256  14.281  22.697   4.313
67963W        W27257  42.977  36.551   5.296
67964W        W27258  31.149  29.539  10.572
67965W        W27259   0.251  17.219  14.404
67966W        W27260  38.899  37.435  14.448
67967W        W27261  13.341  20.705   0.828
67968W        W27262   3.831  39.063   4.174
67969W        W27263  24.198  18.735   3.367
67970W        W27264   6.918  29.044  12.400
67971W        W27265  44.273  14.117  13.970
67972W        W27266  19.536  42.851   0.280
67973W        W27267  31.045  35.385  11.985
67974W        W27268  39.876  22.734  13.436
67975W        W27269  22.603   5.221  11.928
67976W        W27270  32.575  43.425   4.794
67977W        W27271  39.026   3.798  14.814
67978W        W27272   2.915   5.217   0.822
67979W        W27273  18.559  22.138   4.198
67980W        W27274  15.276  44.398   1.272
67981W        W27275  36.866  29.553  11.929
67982W        W27276  20.193  10.159  13.890
67983W        W27277   0.972  37.458   2.857
67984W        W27278   4.850  33.026   4.783
67985W        W27279  29.128  30.021  10.998
67986W        W27280  43.270  14.126  14.983
67987W        W27281  18.632   9.217  13.912
67988W        W27282  43.294  24.694   1.360
67989W        W27283   5.794  22.705   0.395
67990W        W27284  23.549   2.850  11.444
67991W        W27285  32.399  17.130  10.976
67992W        W27286  35.063   6.350   1.820
67993W        W27287  31.437   7.678  11.521
67994W        W27288  22.091  34.453   3.348
67995W        W27289  26.113  20.178  13.535
67996W        W27290  10.149  15.815  11.425
67997W        W27291  31.477  42.490   0.825
67998W        W27292  14.256   2.428  11.050
67999W        W27293  20.153   5.708  12.442
68000W        W27294  37.558   7.887   2.245
68001W        W27295  32.956  16.718  12.936
68002W        W27296  11.840  27.620  11.461
68003W        W27297  36.460  13.107   4.185
68004W        W27298  27.100  27.117   0.958
68005W        W27299  43.818  41.827  12.524
68006W        W27300  14.601  28.450   0.444
68007W        W27301  13.186  12.692   3.245
68008W        W27302  18.083  25.088   3.752
68009W        W27303   6.766  44.457  13.031
68010W        W27304   9.814  32.903   3.231
68011W        W27305  25.175  38.432  12.061
68012W        W27306   2.722   5.910  10.517
68013W        W27307   3.929   3.415   3.636
68014W        W27308  10.373  12.750  14.908
68015W        W27309  40.441  35.524   0.831
68016W        W27310  12.203  36.431   2.219
68017W        W27311  27.022  15.284  12.094
68018W        W27312  30.143   2.296   0.471
68019W        W27313  21.623  23.625  11.995
68020W        W27314  44.481  36.522  10.636
68021W        W27315  13.313   1.913  13.403
68022W        W27316  21.519   0.793  13.490
68023W        W27317  27.636   1.868   0.909
68024W        W27318  42.945  42.281  10.954
68025W        W27319  30.476   0.346  11.065
68026W        W27320   2.278  36.014   1.900
68027W        W27321   8.685   3.882   3.344
68028W        W27322  25.539   2.765   0.736
68029W        W27323  24.613  13.841  12.348
68030W        W27324   8.705   2.310   2.340
68031W        W27325  18.192   9.867  11.975
68032W        W27326   6.219  33.875  12.930
68033W        W27327  23.726   2.819   3.146
68034W        W27328   9.327  10.717   1.319
68035W        W27329  17.587   7.804   0.293
68036W        W27330  41.827  30.415   3.153
68037W        W27331  29.441  20.571  12.462
68038W        W27332  40.858   5.367   4.692
68039W        W27333  44.989  36.435   1.393
68040W        W27334  14.710  34.542  11.873
68041W        W27335  10.173   6.820  12.063
68042W        W27336  14.217  40.949   4.783
68043W        W27337  32.947   1.457  13.411
68044W        W27338  16.782  21.713  12.487
68045W        W27339  25.073  38.847  14.011
68046W        W27340  27.613   6.421   2.339
68047W        W27341  10.144  37.936  14.375
68048W        W27342  14.200  25.990   3.823
68049W        W27343  20.736  21.145   1.886
68050W        W27344   7.903  40.336  12.368
68051W        W27345  23.122  24.976   2.283
68052W        W27346  20.707   9.241  14.012
68053W        W27347  14.638   0.329   3.785
68054W        W27348  22.211  25.102   2.203
68055W        W27349   4.763  13.839  10.994
68056W        W27350   5.225   4.371   4.260
68057W        W27351  32.039  31.943   2.671
68058W        W27352  29.153  33.981  13.967
68059W        W27353  38.496  11.188  14.984
68060W        W27354  42.436  11.263   3.702
68061W        W27355   7.909   6.188   2.287
68062W        W27356  29.948  42.018   3.818
68063W        W27357  22.126  18.281  12.417
68064W        W27358   5.741   2.920   3.322
68065W        W27359   6.392  13.184   1.853
68066W        W27360  30.926   2.917  14.022
68067W        W27361  41.012  12.280  11.480
68068W        W27362  32.072  37.456  11.011
68069W        W27363   6.802  30.557   5.719
68070W        W27364  36.076  22.009   4.734
68071W        W27365   1.795  39.005  10.573
68072W        W27366  29.568  24.158  10.428
68073W        W27367  16.258   4.333  14.797
68074W        W27368  16.775  43.893  13.334
68075W        W27369  21.635   3.754   4.260
68076W        W27370  21.051  23.174  10.465
68077W        W27371   8.384  27.031  13.931
68078W        W27372  18.214   5.239  14.026
68079W        W27373  42.802  21.740  10.442
68080W        W27374  41.954  43.298   1.865
68081W        W27375  37.344   6.818   1.908
68082W        W27376  11.801  10.756  10.000
68083W        W27377  13.646  11.740   1.933
68084W        W27378  18.658  17.654  14.784
68085W        W27379  27.508  20.595   1.816
68086W        W27380   1.769  44.415   4.122
68087W        W27381  15.190   5.218   1.766
68088W        W27382  16.657  31.534  11.436
68089W        W27383   4.278   3.273  13.978
68090W        W27384  26.536  28.034  10.936
68091W        W27385  28.550  40.961  12.042
68092W        W27386   9.210  20.115   0.426
68093W        W27387  19.271  19.774  13.333
68094W        W27388  14.618  33.045  13.354
68095W        W27389  40.841  28.158  11.383
68096W        W27390  23.554   7.683  13.008
68097W        W27391  41.432  15.714   2.316
68098W        W27392  17.143  22.705   1.239
68099W        W27393  31.552  32.141  13.411
68100W        W27394  14.137   4.426  11.583
68101W        W27395  35.598  38.890  11.419
68102W        W27396   2.790   2.365  14.373
68103W        W27397  15.618  38.922   1.834
68104W        W27398  38.002  37.023  10.555
68105W        W27399  18.670  32.526   3.210
68106W        W27400  31.900  40.804   3.830
68107W        W27401  24.621   6.368  13.461
68108W        W27402  29.967  19.273  12.839
68109W        W27403  34.987  42.408  14.856
68110W        W27404  30.912  26.004  11.919
68111W        W27405  28.112  28.992   1.387
68112W        W27406  20.657  40.481  13.915
68113W        W27407  38.032  39.881   0.726
68114W        W27408  29.559   1.467  12.045
68115W        W27409  28.576  33.946   2.745
68116W        W27410  26.650  14.237  10.453
68117W        W27411  43.376   4.443  10.548
68118W        W27412  11.684  18.207  10.487
68119W        W27413   3.455  38.936  14.417
68120W        W27414  18.094   1.328  12.011
68121W        W27415   1.260  23.692  13.539
68122W        W27416  26.972   9.230   1.228
68123W        W27417  31.570  28.488  11.074
68124W        W27418   5.791  41.415   4.677
68125W        W27419  14.728  42.523   0.255
68126W        W27420  34.865  14.593  13.512
68127W        W27421   4.222   2.807  14.391
68128W        W27422   1.978  31.947   1.825
68129W        W27423  13.166  30.516  13.362
68130W        W27424  36.529  16.241  12.991
68131W        W27425  39.457  34.949  13.510
68132W        W27426  31.525   0.364  13.997
68133W        W27427  42.281  40.316   0.897
68134W        W27428  41.002  16.701  13.991
68135W        W27429  36.002   0.786  11.487
68136W        W27430  30.541  20.650  14.275
68137W        W27431  28.549  36.526   3.267
68138W        W27432  27.531   1.328  13.542
68139W        W27433   6.298  34.440  11.436
68140W        W27434  23.569  12.690  10.057
68141W        W27435  36.382  27.504  11.904
68142W        W27436  38.463  36.881   4.235
68143W        W27437   5.750  25.147  12.942
68144W        W27438   8.287  44.381   1.216
68145W        W27439  19.593  32.083   3.227
68146W        W27440   3.364  15.736  13.019
68147W        W27441  42.389  27.569   1.827
68148W        W27442  41.328   7.860  14.945
68149W        W27443  30.583   9.812   4.142
68150W        W27444  29.513  41.958   3.164
68151W        W27445  21.126   2.834   0.326
68152W        W27446  32.909  28.460   2.185
68153W        W27447   7.706  31.093  12.549
68154W        W27448  12.731  36.425   0.955
68155W        W27449  43.506  37.524  10.547
68156W        W27450  44.992  44.322  10.969
68157W        W27451  21.017  22.224  14.948
68158W        W27452  29.613  17.693  11.112
68159W        W27453  35.513  31.989   2.684
68160W        W27454  41.293  35.055   0.823
68161W        W27455  21.632  21.164  12.039
68162W        W27456  17.778  39.879  13.869
68163W        W27457  33.043  30.499  13.061
68164W        W27458  10.742   9.675   4.238
68165W        W27459   2.900  44.874   0.367
68166W        W27460  43.911  37.864   3.193
68167W        W27461  11.298  13.702  11.920
68168W        W27462  32.468  41.865   1.928
68169W        W27463  14.260  31.034   0.915
68170W        W27464   0.922  28.674  11.463
68171W        W27465  40.450  26.064   4.193
68172W        W27466  38.366   3.937  11.097
68173W        W27467  12.669  16.570   3.636
68174W        W27468  30.908  10.750  11.452
68175W        W27469   6.811  28.127  13.423
68176W        W27470  28.568  20.055   1.323
68177W        W27471   2.776   3.388  14.977
68178W        W27472  33.531   7.736   4.812
68179W        W27473  28.646  34.096   1.900
68180W        W27474  32.960  24.608   3.801
68181W        W27475  16.165  44.349  12.908
68182W        W27476  23.651   4.238  12.399
68183W        W27477  25.497  30.417  14.032
68184W        W27478  12.783  40.020   0.925
68185W        W27479   6.818  13.151  13.924
68186W        W27480   3.459  33.415  14.427
68187W        W27481   1.387  14.154  14.941
68188W        W27482   9.684  10.738   4.194
68189W        W27483   2.395  18.259   0.477
68190W        W27484  37.835   7.850   4.641
68191W        W27485  38.926   8.812  11.938
68192W        W27486  21.569  30.556  11.415
68193W        W27487   6.277  17.625   1.851
68194W        W27488  10.665  33.513   4.311
68195W        W27489  27.003  15.774   0.874
68196W        W27490  44.397   6.784   1.404
68197W        W27491   7.336  11.272   3.357
68198W        W27492  34.449  38.062   3.201
68199W        W27493  13.225   8.197   1.442
68200W        W27494  22.204  26.133   3.655
68201W        W27495  10.219  16.771   0.878
68202W        W27496  21.238  12.175   1.422
68203W        W27497  20.545  24.616   0.342
68204W        W27498  13.309   4.273  11.446
68205W        W27499  37.989  38.887  11.573
68206W        W27500  35.395  31.450   0.736
68207W        W27501  30.125  19.698  11.865
68208W        W27502  44.260  16.317   0.376
68209W        W27503   4.406  10.663   1.306
68210W        W27504  34.075   5.839   4.678
68211W        W27505  29.078  23.139   4.635
68212W        W27506  31.633  26.967   2.823
68213W        W27507  44.851  22.728  14.468
68214W        W27508  24.696  29.097  14.507
68215W        W27509  20.178  38.399  11.379
68216W        W27510  30.064  38.390   4.691
68217W        W27511  30.599  32.061   1.935
68218W        W27512  44.904   8.776  13.417
68219W        W27513  18.261  23.223   2.757
68220W        W27514  16.092  37.423  10.504
68221W        W27515  20.652  22.729  11.451
68222W        W27516  16.302   6.707   1.444
68223W        W27517  11.754  44.456  10.892
68224W        W27518  44.460   2.314   5.653
68225W        W27519  19.701  12.244  10.413
68226W        W27520  13.270  39.473   0.745
68227W        W27521  32.569  32.993   2.731
68228W        W27522   5.844  43.277   0.261
68229W        W27523  10.343  21.051   2.335
68230W        W27524  41.809  23.682  12.542
68231W        W27525  44.396  30.444   1.832
68232W        W27526  27.104   9.705  11.111
68233W        W27527  44.790  19.105  14.761
68234W        W27528  44.391   8.348  13.503
68235W        W27529   9.723  10.821   1.843
68236W        W27530  42.471  19.060   2.350
68237W        W27531   9.820  32.895  12.924
68238W        W27532  41.812  30.434   1.752
68239W        W27533  35.043  38.881  12.920
68240W        W27534  32.430  40.333   5.699
68241W        W27535   9.334  26.016   3.312
68242W        W27536  39.475  27.531  11.115
68243W        W27537   3.326  24.616   2.781
68244W        W27538  21.179  13.196   3.379
68245W        W27539  40.013  29.653   1.866
68246W        W27540  26.524  42.377  10.512
68247W        W27541   0.474  44.760  14.330
68248W        W27542  41.503  40.509   4.209
68249W        W27543  21.574  25.125   0.411
68250W        W27544  20.760  35.077   2.306
68251W        W27545  19.102   1.348   4.648
68252W        W27546  30.564  22.595   1.922
68253W        W27547  41.309   7.391   1.824
68254W        W27548  16.790  16.636   2.195
68255W        W27549  31.059  18.747  12.540
68256W        W27550  10.747   8.900  11.569
68257W        W27551  10.148  32.931   2.888
68258W        W27552   1.267  33.548  11.606
68259W        W27553  33.479  15.143  14.388
68260W        W27554  20.706  23.658  13.791
68261W        W27555  39.473  34.548   0.894
68262W        W27556  36.862  32.031   5.644
68263W        W27557   0.250  10.677  12.341
68264W        W27558  24.140  18.670   3.858
68265W        W27559  24.694  42.447  14.821
68266W        W27560  11.663  27.975  12.564
68267W        W27561  34.894  14.753  11.392
68268W        W27562  37.035  22.092   1.729
68269W        W27563  39.939  16.286  14.870
68270W        W27564   9.675  10.215  14.960
68271W        W27565  40.519  12.160   2.179
68272W        W27566   5.225  28.109   2.817
68273W        W27567  17.075  39.521   2.861
68274W        W27568  41.996  18.292  14.461
68275W        W27569  31.555  12.340  12.529
68276W        W27570  34.983  17.229   3.363
68277W        W27571   2.226   1.908   2.206
68278W        W27572  11.749  17.298   1.768
68279W        W27573  14.824   0.803   2.208
68280W        W27574  43.955   5.404   4.609
68281W        W27575  12.308  33.495  11.855
68282W        W27576  42.022  25.148  12.015
68283W        W27577   1.896  34.938  11.071
68284W        W27578  37.985  44.784  11.043
68285W        W27579  12.212  13.193  14.918
68286W        W27580  21.578  20.742  14.943
68287W        W27581  41.404  20.574   4.220
68288W        W27582  22.679  33.473   1.389
68289W        W27583   9.710  12.337   4.626
68290W        W27584  20.087  11.234  11.520
68291W        W27585  43.512  15.745   2.201
68292W        W27586  16.151  11.737  14.432
68293W        W27587  18.649  16.318  13.986
68294W        W27588  37.518  28.475  10.559
68295W        W27589  14.119  15.227   0.463
68296W        W27590  34.992  30.550  14.411
68297W        W27591   3.820  12.251   4.166
68298W        W27592  34.033   4.880   2.359
68299W        W27593  34.443  25.147  14.817
68300W        W27594  32.481  34.487   1.296
68301W        W27595   7.848  28.065   4.696
68302W        W27596  26.164  37.496   3.743
68303W        W27597  11.828   0.422   0.800
68304W        W27598  26.158  36.369  12.498
68305W        W27599  38.854  14.139  12.949
68306W        W27600  42.311  13.770  11.035
68307W        W27601   1.822  24.495  14.785
68308W        W27602  24.507   2.332   3.231
68309W        W27603  10.241   5.914   2.722
68310W        W27604  38.833  31.440   0.912
68311W        W27605  22.199  31.430   3.199
68312W        W27606   7.726  10.191   3.241
68313W        W27607   4.396  16.152   2.365
68314W        W27608  29.075   9.201   3.146
68315W        W27609  18.589   7.199  11.423
68316W        W27610  33.530  21.230   1.732
68317W        W27611  31.541  12.824  13.486
68318W        W27612  18.577  16.724  11.372
68319W        W27613  40.841  29.483   4.691
68320W        W27614  38.929  23.640   4.605
68321W        W27615  27.626   9.214  13.064
68322W        W27616  11.789  17.703  11.450
68323W        W27617   7.757  14.785  14.495
68324W        W27618   5.921  19.217  13.479
68325W        W27619  41.922  28.590  12.437
68326W        W27620  40.994  10.379   3.703
68327W        W27621  31.607   6.187   0.837
68328W        W27622   3.819  11.817  13.407
68329W        W27623  22.070  33.992   0.388
68330W        W27624  28.032  27.955  12.968
68331W        W27625   2.777  26.545  10.895
68332W        W27626  12.350  33.573   1.353
68333W        W27627  31.559  37.407  11.113
68334W        W27628   3.404   0.901   3.172
68335W        W27629  22.580  32.514   2.218
68336W        W27630  37.026   2.908  12.955
68337W        W27631   1.451  29.944   1.303
68338W        W27632  39.509  28.671  11.926
68339W        W27633  15.588  32.059   3.311
68340W        W27634  42.474  42.328  14.279
68341W        W27635  14.689  13.249  13.011
68342W        W27636   4.943  27.030   1.232
68343W        W27637  33.398  38.486  12.982
68344W        W27638   9.194  16.108   0.407
68345W        W27639   2.930  11.721   2.684
68346W        W27640   0.318  14.262  12.065
68347W        W27641  36.390  11.820   2.680
68348W        W27642  17.246  20.129   0.839
68349W        W27643  17.608  16.713  12.903
68350W        W27644  35.065  34.094   3.243
68351W        W27645   4.341  11.268  10.552
68352W        W27646   3.751  40.312  14.812
68353W        W27647  12.180  23.177   1.216
68354W        W27648  22.581   2.780   1.912
68355W        W27649  18.122  22.668   2.793
68356W        W27650  37.005   2.721   0.946
68357W        W27651  16.200  28.152  13.855
68358W        W27652  39.930  24.085   3.709
68359W        W27653   3.746  20.045   4.309
68360W        W27654  39.357   3.807  12.431
68361W        W27655  44.310   8.359  10.534
68362W        W27656   0.417  33.519   4.634
68363W        W27657  20.047   1.450  13.867
68364W        W27658  30.610   8.782  14.373
68365W        W27659  44.482  23.736  10.070
68366W        W27660  19.730  18.256  11.570
68367W        W27661   2.270  20.578   0.851
68368W        W27662  17.795  43.351   0.859
68369W        W27663  32.990  16.662   1.698
68370W        W27664  38.362  18.596   4.759
68371W        W27665  12.708  27.504  13.056
68372W        W27666  39.047  18.051  11.877
68373W        W27667  21.101  16.672  10.475
68374W        W27668  12.647   5.370   4.159
68375W        W27669  24.509  27.155   1.292
68376W        W27670   4.245  20.179  12.993
68377W        W27671   0.929  33.921  14.503
68378W        W27672  31.128  35.550  13.848
68379W        W27673  34.993   0.785   0.321
68380W        W27674  16.227  30.997  14.382
68381W        W27675  40.472  40.395  12.473
68382W        W27676  30.929  24.696   4.758
68383W        W27677   2.373  30.911  12.965
68384W        W27678   9.643  34.503   3.682
68385W        W27679   1.891  34.496  12.555
68386W        W27680  31.488   4.207   4.178
68387W        W27681  29.554  10.384  14.912
68388W        W27682  22.551   1.282   1.735
68389W        W27683  19.744  29.507  11.929
68390W        W27684   6.291  17.208   0.813
68391W        W27685  42.354  35.520   1.369
68392W        W27686   4.397  44.941   2.687
68393W        W27687  43.475  39.324  13.905
68394W        W27688  44.351  23.576  12.864
68395W        W27689  31.913  36.062   5.087
68396W        W27690  10.212  16.115   1.267
68397W        W27691  25.474  14.620   0.839
68398W        W27692  13.187  16.723   3.311
68399W        W27693  34.994  29.622   0.461
68400W        W27694  41.937  23.027   4.733
68401W        W27695  16.281  34.606   1.370
68402W        W27696  27.156   7.841  14.486
68403W        W27697  14.141   3.233   4.600
68404W        W27698  33.029  23.026   1.880
68405W        W27699   4.253   8.779  11.014
68406W        W27700  11.847  42.467   4.346
68407W        W27701  11.354   2.942   4.322
68408W        W27702  36.917   3.915   1.225
68409W        W27703  34.501   4.931   4.790
68410W        W27704  43.486   6.423  11.070
68411W        W27705  22.502  41.381  10.952
68412W        W27706   1.381  20.131  13.339
68413W        W27707  26.562  39.559  13.873
68414W        W27708  39.816  34.986   3.855
68415W        W27709  16.589  25.219  12.480
68416W        W27710  21.749   5.294   2.714
68417W        W27711  42.424   0.847   0.761
68418W        W27712   2.941  34.919  13.843
68419W        W27713  12.796   2.418  10.991
68420W        W27714  26.113  33.915  12.096
68421W        W27715  40.323  12.285   0.475
68422W        W27716  42.922  25.608   4.347
68423W        W27717  23.609   7.195  12.550
68424W        W27718  24.162  24.595  11.479
68425W        W27719  21.147  10.361  11.027
68426W        W27720  22.701  17.625  14.894
68427W        W27721  12.663  26.969   3.847
68428W        W27722   7.780  23.617  13.005
68429W        W27723  17.159  15.228  11.932
68430W        W27724   3.755  34.021  13.364
68431W        W27725  26.570  19.664   4.710
68432W        W27726   2.298  36.515   0.373
68433W        W27727   8.324  11.259  13.367
68434W        W27728  39.842  30.537   0.877
68435W        W27729   1.959   1.379   0.951
68436W        W27730  32.092  18.125   3.735
68437W        W27731   3.401  24.529   1.724
68438W        W27732  31.920  18.093  14.296
68439W        W27733  40.504  11.802   1.233
68440W        W27734   0.432   9.666  14.443
68441W        W27735  24.654  29.092   4.674
68442W        W27736  39.383  18.619   1.315
68443W        W27737  42.374  29.536  11.915
68444W        W27738   9.394  35.486  14.345
68445W        W27739   7.814  34.972  10.960
68446W        W27740  31.997  14.768   3.207
68447W        W27741   5.427  16.189   3.855
68448W        W27742   8.269  17.186  12.452
68449W        W27743   9.678  23.987   1.213
68450W        W27744   2.259   4.843   0.834
68451W        W27745   0.851  29.141  12.951
68452W        W27746  41.443   9.179  10.607
68453W        W27747  16.664  25.473  10.457
68454W        W27748  10.380   8.745   0.827
68455W        W27749  21.614   6.403  12.563
68456W        W27750  25.089  23.045  13.540
68457W        W27751  23.013  37.548   5.149
68458W        W27752  30.455  27.558   4.216
68459W        W27753   6.827   4.731   4.211
68460W        W27754  11.786  11.250   2.787
68461W        W27755   1.273  34.119  11.451
68462W        W27756  41.039  27.956   1.238
68463W        W27757  21.726  11.681  14.772
68464W        W27758  12.710   2.453  13.403
68465W        W27759  27.072  36.587  13.334
68466W        W27760  27.633  20.123   3.326
68467W        W27761   7.362  18.059   1.815
68468W        W27762  28.148  34.494  13.507
68469W        W27763  10.258  40.353  14.830
68470W        W27764  34.613  23.103  12.993
68471W        W27765  35.408   8.333   0.776
68472W        W27766  17.789  23.137   1.914
68473W        W27767  12.246  37.980   0.808
68474W        W27768  16.155  34.435   3.746
68475W        W27769  21.563  44.754  12.833
68476W        W27770  18.203  19.046   1.212
68477W        W27771  17.269  29.923   1.860
68478W        W27772   6.321  28.516   0.922
68479W        W27773  42.889  14.806  12.884
68480W        W27774  37.395  38.486  13.473
68481W        W27775  39.826  28.552   4.229
68482W        W27776   2.418  30.156   1.377
68483W        W27777  37.842  16.274   2.734
68484W        W27778  42.789  37.377  13.037
68485W        W27779  41.316   2.936  13.034
68486W        W27780  34.020  28.520  12.986
68487W        W27781   3.315  40.424   0.333
68488W        W27782   9.163  34.587   1.813
68489W        W27783   5.911  16.177   2.376
68490W        W27784  34.047   9.779   2.865
68491W        W27785  29.156  11.173  12.368
68492W        W27786  33.518  34.519  11.382
68493W        W27787   1.318  39.405   3.168
68494W        W27788  36.937  42.956   4.616
68495W        W27789  13.735  23.711   0.850
68496W        W27790   5.703  17.138  13.350
68497W        W27791   2.346  29.533   3.740
68498W        W27792  26.531  32.136  13.927
68499W        W27793  24.541   6.739   3.860
68500W        W27794  38.462  22.734   4.215
68501W        W27795  32.575   8.866  13.460
68502W        W27796  30.003  25.019   0.944
68503W        W27797  17.153  16.213  13.881
68504W        W27798  12.201   1.450  14.858
68505W        W27799  33.469  24.115  10.579
68506W        W27800  28.560   9.733   0.872
68507W        W27801  13.177  29.097   9.548
68508W        W27802  32.479  33.615  11.881
68509W        W27803  36.503  27.480   3.656
68510W        W27804  36.350   7.276  14.445
68511W        W27805  20.177  38.913  13.978
68512W        W27806  44.865  10.284   0.946
68513W        W27807  22.672  44.375  10.915
68514W        W27808  30.047   0.337  12.438
68515W        W27809  29.652  15.264  14.831
68516W        W27810  21.154   4.344   2.328
68517W        W27811  10.313  33.621  11.027
68518W        W27812  36.082   1.757   2.320
68519W        W27813  43.965  37.873  10.491
68520W        W27814   9.695  32.534   0.776
68521W        W27815  22.510   5.242  13.365
68522W        W27816  36.570  43.943   3.167
68523W        W27817   8.759  16.106   2.291
68524W        W27818  34.960   2.813  12.887
68525W        W27819   7.834   4.347  14.399
68526W        W27820  18.747  15.632  11.021
68527W        W27821  23.004   8.708  12.473
68528W        W27822  39.425  15.629  10.928
68529W        W27823  34.398  16.571  14.401
68530W        W27824   1.421  14.621  13.927
68531W        W27825  35.384  22.071  13.989
68532W        W27826  10.193  13.605   2.714
68533W        W27827   8.682  39.425  14.875
68534W        W27828   1.361  16.649   3.655
68535W        W27829  27.479  11.235  12.574
68536W        W27830  40.449  35.103   5.184
68537W        W27831  24.665   5.209   0.366
68538W        W27832  20.202   4.846   5.143
68539W        W27833  16.151  14.740  11.092
68540W        W27834  26.600   2.779  13.902
68541W        W27835  37.893  10.879   0.825
68542W        W27836  33.934  41.426   1.810
68543W        W27837  35.068  16.769   0.749
68544W        W27838  10.787  31.605  12.417
68545W        W27839  42.423  35.088   0.883
68546W        W27840  14.318  18.099  14.496
68547W        W27841  42.464  30.629  11.043
68548W        W27842  35.404  32.885  10.480
68549W        W27843  30.912  10.839   3.265
68550W        W27844  23.606  35.022  13.806
68551W        W27845  43.512   7.184  12.884
68552W        W27846  40.332  21.190   1.321
68553W        W27847  43.932  16.689  12.005
68554W        W27848  18.081  12.626  12.043
68555W        W27849  25.475  39.465  10.045
68556W        W27850  14.149  28.031  13.828
68557W        W27851  17.672   7.400   1.274
68558W        W27852  15.714  34.117   1.919
68559W        W27853   1.822  17.130   1.386
68560W        W27854   4.270   2.440   2.188
68561W        W27855  34.574  37.973   1.422
68562W        W27856   9.863  25.664  12.863
68563W        W27857  13.791   5.273  14.879
68564W        W27858  14.110   1.392   3.801
68565W        W27859  22.124  33.561   3.246
68566W        W27860   3.296  33.412  12.468
68567W        W27861  36.512  37.417   3.657
68568W        W27862  22.246  41.959  11.884
68569W        W27863  16.685  19.583   0.865
68570W        W27864   4.327  28.138   0.262
68571W        W27865   8.377  25.610  11.918
68572W        W27866  17.083  42.450   2.820
68573W        W27867  19.606  39.345   1.742
68574W        W27868  36.075  30.579   2.668
68575W        W27869  37.919  32.556   2.715
68576W        W27870  10.166  40.991  12.869
68577W        W27871  42.914   0.778   1.905
68578W        W27872  10.297   5.707  12.973
68579W        W27873  43.819  29.478  10.893
68580W        W27874   9.691  21.662  13.934
68581W        W27875   1.756   1.392   0.276
68582W        W27876   9.357  41.832  13.881
68583W        W27877  30.077  17.235   3.333
68584W        W27878  21.564  32.628   1.236
68585W        W27879  32.027  37.003   4.163
68586W        W27880  17.786   8.876  13.985
68587W        W27881  30.628  37.342  14.483
68588W        W27882   5.841  26.060  11.578
68589W        W27883   8.367   8.867   3.831
68590W        W27884  36.945  27.661  14.396
68591W        W27885  44.969   6.227  12.050
68592W        W27886  43.948   6.357   2.405
68593W        W27887   5.243   5.865  13.357
68594W        W27888   9.734  40.001  14.350
68595W        W27889  39.514  38.508   1.392
68596W        W27890  31.941   2.778  11.899
68597W        W27891  14.280  36.889   1.906
68598W        W27892  19.769  18.129   2.300
68599W        W27893  28.552   4.229   1.771
68600W        W27894  20.157  42.791   2.271
68601W        W27895  43.854  11.633  12.376
68602W        W27896  15.771  41.873  12.982
68603W        W27897  40.016  36.581   4.229
68604W        W27898  27.988  16.086   3.809
68605W        W27899   7.316  26.626   2.182
68606W        W27900  18.632  41.303   5.317
68607W        W27901   7.752  18.216  10.131
68608W        W27902  20.232  36.416  11.954
68609W        W27903  19.605  25.178  14.972
68610W        W27904  18.114  21.200  13.337
68611W        W27905  38.414   7.885   2.860
68612W        W27906  22.561  32.015  12.522
68613W        W27907   0.800  22.185  12.833
68614W        W27908  30.037  44.914  14.868
68615W        W27909   9.823   8.720  11.528
68616W        W27910  13.210  39.978  11.954
68617W        W27911  12.854  28.480  10.603
68618W        W27912  10.204  20.719   2.846
68619W        W27913  26.585  15.236   3.667
68620W        W27914  35.002  35.487  14.851
68621W        W27915  28.165  15.161  11.928
68622W        W27916  23.045  34.939  11.390
68623W        W27917   9.655  22.677   3.320
68624W        W27918  34.889  15.586   1.366
68625W        W27919   3.794   0.898   0.360
68626W        W27920  39.961  30.023  13.398
68627W        W27921  42.484  41.399  14.509
68628W        W27922  22.534  44.316   4.670
68629W        W27923  31.067   9.800   3.153
68630W        W27924  30.526  39.435   3.316
68631W        W27925   6.741  16.789  12.925
68632W        W27926   9.760   2.314   4.203
68633W        W27927  10.734  35.922  14.793
68634W        W27928  44.814  36.551  14.503
68635W        W27929  13.251  18.134  12.436
68636W        W27930  14.244   6.805  14.766
68637W        W27931  44.802   1.428  12.945
68638W        W27932  33.007   2.416   4.687
68639W        W27933  28.601  13.807  14.801
68640W        W27934  35.999   9.756   5.584
68641W        W27935  29.956  21.199  14.959
68642W        W27936  22.054  25.207  13.809
68643W        W27937  30.414   9.737  11.582
68644W        W27938  41.813  37.076  10.476
68645W        W27939  22.128   3.873  14.981
68646W        W27940   7.908  33.985  12.046
68647W        W27941  14.710  13.803   1.291
68648W        W27942   7.254  38.403  12.952
68649W        W27943  24.004   2.284   4.201
68650W        W27944  21.639  32.089   3.870
68651W        W27945  12.236  35.914   3.790
68652W        W27946  20.264  21.238   4.127
68653W        W27947   2.961  30.482  14.392
68654W        W27948  33.121  19.593   3.769
68655W        W27949   5.916  15.645   0.804
68656W        W27950  18.089  17.271  13.933
68657W        W27951  19.663  26.503   4.216
68658W        W27952  19.154  22.079  12.344
68659W        W27953   7.763   0.939  11.509
68660W        W27954  17.081  40.540  11.018
68661W        W27955  38.045   5.393   4.320
68662W        W27956   8.195  28.516   3.252
68663W        W27957  34.579  22.179   3.652
68664W        W27958  40.903  27.172  14.282
68665W        W27959  20.722  21.732  12.420
68666W        W27960  30.602   0.786   1.709
68667W        W27961  34.556  43.973  10.498
68668W        W27962  36.846  36.846   3.738
68669W        W27963  35.383  40.030   4.836
68670W        W27964  19.588  30.458   0.825
68671W        W27965  41.955   2.338  11.420
68672W        W27966   3.739  35.936  11.467
68673W        W27967   3.235  23.637  13.826
68674W        W27968  18.692  31.607   2.793
68675W        W27969  31.961  44.329  10.528
68676W        W27970  27.678   6.370  13.021
68677W        W27971  33.500  31.029  10.107
68678W        W27972  43.284  18.188   0.263
68679W        W27973  20.536  27.479   0.325
68680W        W27974  31.647  37.440  13.019
68681W        W27975  30.914  42.815   2.702
68682W        W27976  30.608  24.173  12.418
68683W        W27977  29.166   4.785   2.410
68684W        W27978  33.108   8.764   3.644
68685W        W27979  18.081  13.260   3.182
68686W        W27980  40.344  18.110  11.092
68687W        W27981  19.750  37.997  13.312
68688W        W27982  17.154  18.710   1.341
68689W        W27983  19.544  35.541  13.362
68690W        W27984   7.747   8.848  14.325
68691W        W27985  18.598  20.540  13.803
68692W        W27986   1.775  12.798   4.351
68693W        W27987  14.786  37.904   4.146
68694W        W27988  32.043   6.832  13.882
68695W        W27989  23.099  37.942  14.942
68696W        W27990  34.573  22.659  13.933
68697W        W27991  43.305  42.307  12.526
68698W        W27992  15.243  23.701   1.909
68699W        W27993  24.603  17.634   2.200
68700W        W27994  26.667   1.771  10.894
68701W        W27995  33.487  26.129   1.709
68702W        W27996  29.667   0.480  14.941
68703W        W27997  28.561  18.736  13.324
68704W        W27998  24.561  14.114  11.612
68705W        W27999  43.938  34.445   1.864
68706W        W28000   0.445  11.699   4.611
68707W        W28001   3.889  30.009  13.872
68708W        W28002  35.042  30.428   5.233
68709W        W28003  30.426  36.057   3.338
68710W        W28004   0.751  36.000   3.865
68711W        W28005  19.703  14.207   3.220
68712W        W28006  30.460  30.606  14.919
68713W        W28007  40.886  35.423  13.827
68714W        W28008  25.636  34.095   2.857
68715W        W28009  42.459  42.286   1.817
68716W        W28010   9.213  35.038   4.280
68717W        W28011  43.410  32.088   4.725
68718W        W28012  14.706  32.077   4.213
68719W        W28013  12.611  33.092  14.895
68720W        W28014  29.500   3.718   2.366
68721W        W28015  35.375  20.654   2.805
68722W        W28016   1.970  39.848  11.108
68723W        W28017  34.031  41.392  12.868
68724W        W28018  24.173  41.819  11.003
68725W        W28019  29.476  30.524  13.485
68726W        W28020  17.680  31.513   1.374
68727W        W28021   7.302  30.463   0.296
68728W        W28022   7.304  12.269   1.774
68729W        W28023  13.305  21.125   4.724
68730W        W28024  37.576  41.443  14.890
68731W        W28025  34.408   2.741  13.009
68732W        W28026  24.131  29.634   3.161
68733W        W28027  23.984  12.705   4.730
68734W        W28028  35.924  14.703   4.214
68735W        W28029  29.424  13.226  12.016
68736W        W28030  43.462  17.072  10.540
68737W        W28031   7.774  11.220  12.435
68738W        W28032  40.544  10.637   2.728
68739W        W28033   2.722  23.149   3.810
68740W        W28034  15.303  13.267  12.078
68741W        W28035  18.628   3.272   1.256
68742W        W28036  17.584   6.207  12.412
68743W        W28037  30.090  29.606   4.138
68744W        W28038  28.517   0.786   1.345
68745W        W28039  14.144   9.325   0.833
68746W        W28040  38.820   2.234   2.805
68747W        W28041  33.904  22.670   0.343
68748W        W28042  12.152  37.838   2.803
68749W        W28043  31.599  15.704  14.348
68750W        W28044  17.142  13.831  11.930
68751W        W28045  25.181  31.958  13.853
68752W        W28046   1.323  43.387  12.994
68753W        W28047  21.215   0.349  12.840
68754W        W28048  14.776  38.435   1.771
68755W        W28049  43.286  38.569   0.243
68756W        W28050  13.252  30.464   2.886
68757W        W28051  42.847  40.802   4.653
68758W        W28052  15.269  16.318   4.142
68759W        W28053  32.139  19.095   0.818
68760W        W28054  22.249   9.186   3.315
68761W        W28055  43.997  13.345  14.959
68762W        W28056  10.308  37.477  11.011
68763W        W28057  12.303   7.909   2.230
68764W        W28058  22.100   6.264   1.333
68765W        W28059   2.406  28.525   4.650
68766W        W28060  41.417   6.786  14.386
68767W        W28061  43.287  35.392  11.543
68768W        W28062   4.915  39.389   3.261
68769W        W28063  35.480  21.686  11.931
68770W        W28064  34.391  16.733  12.067
68771W        W28065   7.729  20.687   2.268
68772W        W28066  26.139  14.316  11.900
68773W        W28067   9.742   8.317  12.498
68774W        W28068  28.650  24.035  12.865
68775W        W28069  42.987  20.198  11.505
68776W        W28070  32.939  12.702   1.875
68777W        W28071  16.163  21.681  11.998
68778W        W28072   5.370  15.747  12.342
68779W        W28073  26.541  39.911  13.906
68780W        W28074  11.263  41.498  12.532
68781W        W28075  18.676  35.917  13.410
68782W        W28076   9.868  37.550  14.404
68783W        W28077   4.725  14.804  14.012
68784W        W28078  39.924  22.168  12.391
68785W        W28079  20.727  35.516  14.824
68786W        W28080  29.005  24.592  11.520
68787W        W28081  11.692   1.402   0.770
68788W        W28082  44.394   9.718   2.232
68789W        W28083   7.810  25.639   4.336
68790W        W28084  40.345  42.399  10.915
68791W        W28085   6.344  43.485  12.405
68792W        W28086  27.011  34.561  11.912
68793W        W28087  41.964  13.815  14.926
68794W        W28088  23.208  33.405  14.002
68795W        W28089   8.270  44.429  14.305
68796W        W28090   2.325   8.213   4.330
68797W        W28091  43.357  40.483   0.249
68798W        W28092  16.317  30.430  14.331
68799W        W28093   0.419   5.359   1.315
68800W        W28094  40.378  12.644  12.072
68801W        W28095  30.065   6.724  11.512
68802W        W28096  15.713  41.452   3.204
68803W        W28097   0.361  25.146  10.481
68804W        W28098  18.779  32.112   5.191
68805W        W28099  43.794  34.962  14.480
68806W        W28100  33.112  11.627  11.412
68807W        W28101  36.509  10.851  11.464
68808W        W28102  16.794  17.124  14.366
68809W        W28103  32.532  33.584  10.440
68810W        W28104  21.556  12.763   4.640
68811W        W28105  28.665  13.711   4.814
68812W        W28106  19.182  18.079   0.267
68813W        W28107  31.087   2.255   4.347
68814W        W28108  29.110   0.818  11.538
68815W        W28109  23.141  30.086  14.409
68816W        W28110  36.960  33.604  13.972
68817W        W28111  28.543  30.054  14.934
68818W        W28112  12.197  24.704  14.928
68819W        W28113  32.051  13.311   3.194
68820W        W28114  26.026  42.935   3.369
68821W        W28115  20.692  31.041  14.290
68822W        W28116  43.429   4.711   3.731
68823W        W28117  14.185  31.120   2.782
68824W        W28118  18.632   1.400   0.385
68825W        W28119  35.976   8.810   2.409
68826W        W28120  39.538  26.177   3.697
68827W        W28121   3.229  38.074   1.778
68828W        W28122  23.994  13.329   3.363
68829W        W28123  44.495  35.579  14.904
68830W        W28124  23.076  30.579   4.626
68831W        W28125  26.017   3.720   1.916
68832W        W28126  21.672  28.511  10.589
68833W        W28127  30.471  29.485  11.909
68834W        W28128  20.051   9.829   4.219
68835W        W28129  43.889   0.257   2.750
68836W        W28130   9.161  41.912   3.643
68837W        W28131  32.595  22.640   4.283
68838W        W28132  34.596  41.326   3.722
68839W        W28133  40.458  14.634   1.450
68840W        W28134   4.907  16.573  14.831
68841W        W28135  36.880  28.080  12.874
68842W        W28136  25.582  36.067   2.274
68843W        W28137   9.346  19.663   2.371
68844W        W28138  12.620  21.590  11.963
68845W        W28139  27.943  10.230  11.599
68846W        W28140  40.326  27.448   3.758
68847W        W28141   8.896   7.350  12.511
68848W        W28142   4.736  11.326   4.240
68849W        W28143  35.884  36.441  11.112
68850W        W28144  18.279  27.021   3.327
68851W        W28145  33.886  27.685   0.310
68852W        W28146  39.315  15.225  12.453
68853W        W28147  38.017  11.721  12.493
68854W        W28148  11.727   7.837   1.752
68855W        W28149  31.531  21.563   0.864
68856W        W28150  40.311  29.109   3.813
68857W        W28151  25.161  24.689   0.327
68858W        W28152   1.352  39.554  14.845
68859W        W28153  28.173  32.404   4.733
68860W        W28154   6.806  40.837   0.289
68861W        W28155  29.435  33.941   4.731
68862W        W28156  42.987  37.554   1.753
68863W        W28157  10.837  32.515   2.225
68864W        W28158  31.566  13.268  13.452
68865W        W28159   4.925   9.301  14.373
68866W        W28160  15.217  21.694   2.705
68867W        W28161  28.635   9.370   0.941
68868W        W28162  18.070  41.478   2.416
68869W        W28163  20.587  29.518  12.949
68870W        W28164  30.008  44.833  14.382
68871W        W28165   9.807  34.509   2.265
68872W        W28166  31.060  12.731  14.992
68873W        W28167  29.087  12.810   0.735
68874W        W28168  19.618   6.689  11.950
68875W        W28169  20.737  34.116   1.815
68876W        W28170  23.134   2.921  10.598
68877W        W28171  22.713  12.631   3.248
68878W        W28172   7.346  33.048  12.825
68879W        W28173  16.103  30.500  12.537
68880W        W28174  13.774  15.751   5.281
68881W        W28175  24.682   3.379  10.421
68882W        W28176   1.856  29.106  13.012
68883W        W28177  12.731  23.085  10.929
68884W        W28178   4.380  33.553   2.403
68885W        W28179   2.347  44.315   5.180
68886W        W28180  27.528   5.285   2.407
68887W        W28181  44.826  39.360   1.377
68888W        W28182   6.379  21.585   3.248
68889W        W28183  23.726   2.319  12.529
68890W        W28184  22.022  18.106   2.351
68891W        W28185   4.890   9.776  12.402
68892W        W28186  18.775  28.444  10.491
68893W        W28187  16.145  27.519  13.903
68894W        W28188  30.070  30.031  13.021
68895W        W28189  39.925  31.473   1.337
68896W        W28190  40.309  35.865   2.274
68897W        W28191  36.021  22.736  13.806
68898W        W28192  27.541  18.734  10.565
68899W        W28193  27.047  42.311  12.016
68900W        W28194  15.693   2.907   2.398
68901W        W28195  15.292  34.953   0.452
68902W        W28196  29.669  24.616   3.352
68903W        W28197  35.487  24.574   0.351
68904W        W28198  19.767   0.364   4.350
68905W        W28199  16.231  14.144   1.230
68906W        W28200  39.976  17.069   3.258
68907W        W28201   5.326  34.083   2.703
68908W        W28202  31.445  40.835  13.390
68909W        W28203  33.622  43.515  14.822
68910W        W28204  28.567  36.005  14.924
68911W        W28205   9.297  14.825   3.306
68912W        W28206  36.998  42.421   0.396
68913W        W28207  40.321   7.743   3.306
68914W        W28208  22.166  16.664   4.707
68915W        W28209  38.518   3.759   1.406
68916W        W28210   7.763  42.926   4.155
68917W        W28211   6.224  12.329  10.983
68918W        W28212  40.008  11.293  12.954
68919W        W28213   2.928   9.848  14.381
68920W        W28214   6.768  21.239  14.504
68921W        W28215  30.047  37.464  12.960
68922W        W28216  39.337  24.026  13.016
68923W        W28217   1.842  14.608   1.223
68924W        W28218  28.105  19.088  14.330
68925W        W28219  27.569  17.242  11.891
68926W        W28220  30.458  29.493   0.873
68927W        W28221   6.844  34.484   0.248
68928W        W28222  23.006  10.379  13.919
68929W        W28223  30.590  15.603   4.754
68930W        W28224  23.495  20.183   4.735
68931W        W28225   5.907  35.995  12.356
68932W        W28226  24.571  34.497   4.120
68933W        W28227   0.327  43.817   5.765
68934W        W28228  29.618  21.572  14.425
68935W        W28229  29.092  13.321   3.250
68936W        W28230  39.835  42.477   4.126
68937W        W28231  23.681  25.209   4.715
68938W        W28232  35.491  22.630  11.537
68939W        W28233  15.708  19.083  13.538
68940W        W28234  12.294  32.027  12.057
68941W        W28235  22.550   8.255  14.954
68942W        W28236  39.355  44.900  14.314
68943W        W28237  23.198  39.883   4.185
68944W        W28238  30.106   1.388   4.646
68945W        W28239  20.161  33.562  10.558
68946W        W28240  22.232  12.737   3.636
68947W        W28241  33.623  42.793  10.575
68948W        W28242   1.394   6.802   2.207
68949W        W28243  44.843  40.489  11.598
68950W        W28244  30.473  26.476  11.948
68951W        W28245  20.546  25.562   2.805
68952W        W28246  36.505  22.175   3.365
68953W        W28247  18.233  38.503   4.154
68954W        W28248   4.312  44.969  14.760
68955W        W28249  24.225  36.504   1.325
68956W        W28250  23.495  13.305  10.098
68957W        W28251   3.859  10.838   0.399
68958W        W28252  37.347  29.497  10.510
68959W        W28253  41.996   6.292  11.028
68960W        W28254  16.682  36.387   1.399
68961W        W28255  22.689   2.727  13.835
68962W        W28256   6.877  44.002  14.477
68963W        W28257  12.659  29.451  10.911
68964W        W28258  30.415  24.069   4.819
68965W        W28259  33.924  25.204  13.416
68966W        W28260  16.665  30.659  12.437
68967W        W28261  10.818  24.639   1.809
68968W        W28262  15.766  16.801  13.007
68969W        W28263   8.401  42.314  13.466
68970W        W28264  19.044  33.919   3.638
68971W        W28265  15.251  20.048  14.391
68972W        W28266   2.885  21.191   2.713
68973W        W28267  30.160   1.870  13.370
68974W        W28268  37.012   9.345   0.356
68975W        W28269  39.001  25.496  14.955
68976W        W28270   5.807  18.601   1.347
68977W        W28271  22.676   6.677  12.927
68978W        W28272  32.064   9.304   4.338
68979W        W28273   0.950  15.737  11.495
68980W        W28274   4.869  22.031   1.234
68981W        W28275  42.976  31.909   0.258
68982W        W28276  11.193   6.223  12.481
68983W        W28277  34.487  35.025  13.022
68984W        W28278  27.049   0.304   1.369
68985W        W28279  20.592   6.911  10.598
68986W        W28280  41.002   2.963   0.353
68987W        W28281   5.420  25.054   4.192
68988W        W28282  21.516  29.005  10.642
68989W        W28283  43.830  10.834   3.663
68990W        W28284  16.138  29.145  13.497
68991W        W28285  23.550  35.095  14.396
68992W        W28286   1.398  42.841   4.334
68993W        W28287  24.698   3.750   3.320
68994W        W28288  42.966  33.974  13.991
68995W        W28289  25.030  28.503   2.724
68996W        W28290  41.789  20.678  11.014
68997W        W28291   5.251   0.968  13.545
68998W        W28292  36.949  39.948   4.247
68999W        W28293  41.956  33.050   3.211
69000W        W28294   7.836   5.393  14.964
69001W        W28295  15.743  27.139   3.345
69002W        W28296  36.902  38.863   1.250
69003W        W28297  41.915  24.683  13.498
69004W        W28298  12.822  33.603  14.330
69005W        W28299  37.077  18.671  11.034
69006W        W28300  21.707   7.410  14.986
69007W        W28301  18.273  29.500   3.340
69008W        W28302  35.516  30.525   1.362
69009W        W28303  17.704  34.574   2.407
69010W        W28304  32.604  28.477  12.054
69011W        W28305  15.152  20.105   3.169
69012W        W28306  20.059   8.709   9.970
69013W        W28307  31.968  14.678  12.036
69014W        W28308  26.060  28.523   0.782
69015W        W28309  21.741  33.588  11.411
69016W        W28310  40.399  28.497   4.199
69017W        W28311  27.191   4.448   0.340
69018W        W28312   2.239  36.918   1.824
69019W        W28313   2.345   8.279  11.890
69020W        W28314  28.489  38.481   4.817
69021W        W28315  29.065  18.202  12.908
69022W        W28316  36.576  44.904   2.356
69023W        W28317  21.161  15.293  14.486
69024W        W28318  11.355   9.781  11.469
69025W        W28319  34.051  42.479  10.987
69026W        W28320  40.963  43.399  14.848
69027W        W28321  21.606   2.869   2.350
69028W        W28322   9.240  36.937  12.440
69029W        W28323  37.502  40.902  11.913
69030W        W28324  10.659  40.339  11.963
69031W        W28325  43.406  41.984  12.344
69032W        W28326  12.257   5.278  10.465
69033W        W28327  16.253  22.024  13.368
69034W        W28328   5.365  33.418  12.053
69035W        W28329  19.167  19.754   0.289
69036W        W28330  26.973  23.643   2.283
69037W        W28331  27.012  13.667   3.372
69038W        W28332  25.126   7.878   5.309
69039W        W28333  15.109  32.615  10.558
69040W        W28334   5.868  40.441   1.265
69041W        W28335  16.132  13.242   1.729
69042W        W28336   8.246  39.830   2.679
69043W        W28337  21.580  26.153   4.317
69044W        W28338  36.399  15.187  13.448
69045W        W28339   9.194  14.129   3.212
69046W        W28340  41.912  14.618  11.870
69047W        W28341  17.560   2.887   2.272
69048W        W28342  25.137  15.807  13.476
69049W        W28343  41.345   8.259  11.465
69050W        W28344  42.487   2.266  10.467
69051W        W28345  15.639   7.224  12.467
69052W        W28346  31.573  39.347  14.836
69053W        W28347  27.467   9.796   2.178
69054W        W28348  39.997  39.923   4.163
69055W        W28349   4.314   5.294   1.799
69056W        W28350  13.677  24.710  12.394
69057W        W28351   7.709  39.832   3.264
69058W        W28352  38.984  22.742   2.863
69059W        W28353  25.515  12.697  14.866
69060W        W28354  26.647  24.633   0.804
69061W        W28355  41.891  22.184   1.241
69062W        W28356  32.014  13.335   3.757
69063W        W28357  24.611  34.081   2.897
69064W        W28358  42.988   1.914  12.933
69065W        W28359   1.257   2.948   2.798
69066W        W28360  33.621  39.043   9.923
69067W        W28361   3.426   0.829   4.598
69068W        W28362  36.401  27.688   2.386
69069W        W28363   3.880  22.622  12.408
69070W        W28364  35.534  15.620  11.480
69071W        W28365  40.975  38.472   2.737
69072W        W28366  12.144  36.043  10.614
69073W        W28367  21.665  43.479  11.914
69074W        W28368   6.782  26.634  11.084
69075W        W28369  17.682   3.226   2.294
69076W        W28370  33.887  32.429   1.222
69077W        W28371  21.254  21.199   1.779
69078W        W28372  20.136   4.414  12.376
69079W        W28373   4.855  41.310   4.323
69080W        W28374  40.398  36.527  11.864
69081W        W28375  44.330  38.012   3.272
69082W        W28376   1.834  22.159   2.195
69083W        W28377   4.381  22.229   2.815
69084W        W28378  11.233  35.015  12.971
69085W        W28379  25.133  26.667   2.771
69086W        W28380  31.590  18.781   3.736
69087W        W28381  43.019  18.214   3.325
69088W        W28382  14.743  41.972  13.895
69089W        W28383  28.599  17.762  12.464
69090W        W28384   4.811  37.437   1.448
69091W        W28385  40.889  12.230   0.897
69092W        W28386  18.773  31.633   4.744
69093W        W28387  40.498  21.250  14.309
69094W        W28388   5.223  35.423   4.688
69095W        W28389  16.778   9.771   2.231
69096W        W28390   6.422  34.882  10.469
69097W        W28391   2.961   3.428  11.911
69098W        W28392   8.257   4.406   2.849
69099W        W28393  41.322  11.627  13.941
69100W        W28394   6.303  19.254   5.224
69101W        W28395  25.609  12.724  10.143
69102W        W28396  17.099  24.005   0.408
69103W        W28397  32.997  39.525  14.501
69104W        W28398  29.992  19.253   0.324
69105W        W28399  16.797  31.016  12.973
69106W        W28400  32.611  24.181   2.182
69107W        W28401  26.479  44.951  13.340
69108W        W28402   6.883  11.838  11.906
69109W        W28403  32.125  24.581   4.730
69110W        W28404  43.804  28.931  11.982
69111W        W28405  13.709  18.763  13.060
69112W        W28406  20.135  29.609  10.928
69113W        W28407  18.191  36.071  12.025
69114W        W28408  38.571  11.316   2.205
69115W        W28409   5.201  18.225   9.542
69116W        W28410  31.587  20.617   4.663
69117W        W28411  40.392   7.682   3.794
69118W        W28412  44.408   2.903   4.137
69119W        W28413   1.817   8.278   2.188
69120W        W28414  23.050  32.909  11.536
69121W        W28415  30.454  33.904  12.851
69122W        W28416  29.473  43.374  14.349
69123W        W28417  29.425  42.492  12.576
69124W        W28418  16.656  21.100  11.125
69125W        W28419  31.476  26.160  12.563
69126W        W28420  20.135  30.932  13.925
69127W        W28421   8.839  37.893  14.502
69128W        W28422   5.826  39.399   2.229
69129W        W28423  18.634   9.646   9.950
69130W        W28424  43.939   1.459  10.470
69131W        W28425  18.091  24.142  14.817
69132W        W28426  34.515  24.010  13.053
69133W        W28427  34.538  10.156  11.947
69134W        W28428  25.507  42.342   2.772
69135W        W28429  41.849  18.119   3.806
69136W        W28430  19.634  14.121   3.653
69137W        W28431  10.190   0.841  11.868
69138W        W28432  20.570  17.757  10.588
69139W        W28433  15.214  13.686   3.228
69140W        W28434  17.132  22.739  10.087
69141W        W28435  17.205  24.724  11.952
69142W        W28436   8.286  43.867  12.079
69143W        W28437  36.458  19.176  11.958
69144W        W28438  41.475  27.011   1.432
69145W        W28439  43.912   4.426   4.317
69146W        W28440  40.844   1.481  11.054
69147W        W28441  22.191  24.147  12.558
69148W        W28442  44.920  18.613  11.384
69149W        W28443  43.338  11.234  13.386
69150W        W28444  26.012   6.736   4.226
69151W        W28445  35.857   8.656  11.969
69152W        W28446  25.636   7.298  14.328
69153W        W28447  35.017  43.845   1.238
69154W        W28448  44.979  43.855  12.020
69155W        W28449   3.248  20.168   1.770
69156W        W28450  44.954  21.649  10.978
69157W        W28451   1.374   3.445  12.029
69158W        W28452  21.225  12.352   0.944
69159W        W28453  34.083   3.744   3.856
69160W        W28454  42.869   6.713   1.725
69161W        W28455  31.406   5.329  13.877
69162W        W28456  32.508   1.290  12.575
69163W        W28457  39.384  41.914  12.947
69164W        W28458  26.138  36.997  11.081
69165W        W28459  39.922  38.366   0.865
69166W        W28460  37.084  13.305   0.764
69167W        W28461  31.047   0.417  13.393
69168W        W28462  35.060  43.919  10.557
69169W        W28463  11.223  35.931   0.483
69170W        W28464   4.726  26.655   1.910
69171W        W28465  35.439  40.304   0.406
69172W        W28466  10.770  41.797  13.064
69173W        W28467   9.741   1.806  14.008
69174W        W28468   2.462   8.703  10.450
69175W        W28469   5.771  35.408  14.031
69176W        W28470  28.054  20.146  12.964
69177W        W28471  25.706  36.495  10.470
69178W        W28472   8.688  40.798  11.427
69179W        W28473  14.813  15.706   2.835
69180W        W28474  18.275   7.199  10.554
69181W        W28475  17.203  20.724  14.922
69182W        W28476   3.314   8.831  14.801
69183W        W28477  11.681  22.143  11.478
69184W        W28478  38.325  23.677  10.566
69185W        W28479  18.623   0.365  10.637
69186W        W28480   5.752   2.304   3.266
69187W        W28481   2.944  43.455  10.433
69188W        W28482  34.416  10.364  14.465
69189W        W28483   2.836  12.141  14.348
69190W        W28484  24.975  18.608   1.921
69191W        W28485  17.133  17.241  13.530
69192W        W28486  24.602   6.424   0.893
69193W        W28487  37.548  33.041   4.800
69194W        W28488  42.805  28.020   0.301
69195W        W28489   5.768  11.641   1.276
69196W        W28490  15.724  12.328   2.823
69197W        W28491  28.625  19.192   4.616
69198W        W28492  24.183  36.392   2.886
69199W        W28493  26.582  12.777  10.074
69200W        W28494  25.474  20.616  12.895
69201W        W28495  16.593  31.931   0.949
69202W        W28496  26.659  13.189   4.231
69203W        W28497  18.675  27.481   1.414
69204W        W28498  14.635  13.838  11.038
69205W        W28499  21.568  20.125  12.503
69206W        W28500  43.818   3.827  13.379
69207W        W28501   2.765  22.694   2.327
69208W        W28502  16.135  23.212  13.965
69209W        W28503  34.912  20.075   0.748
69210W        W28504  32.465  32.977   4.745
69211W        W28505  10.142  21.244  13.982
69212W        W28506  43.004   7.765   0.853
69213W        W28507  17.675  40.849  12.362
69214W        W28508  32.485  43.965  11.125
69215W        W28509  33.382   4.431   2.781
69216W        W28510  26.677  21.075   3.331
69217W        W28511   6.767  19.541  14.819
69218W        W28512  25.674  31.138   1.381
69219W        W28513  39.936  32.071   2.180
69220W        W28514  35.449  23.144   3.859
69221W        W28515  28.106  12.780   3.177
69222W        W28516   6.392  16.726  11.504
69223W        W28517  18.624  38.905   5.253
69224W        W28518  39.054  20.728  13.345
69225W        W28519   1.903  16.802  13.994
69226W        W28520  21.569  22.581   3.869
69227W        W28521   8.658   8.226  14.760
69228W        W28522  42.986  38.850  13.533
69229W        W28523   8.321  21.223  13.959
69230W        W28524  24.591  33.515   3.275
69231W        W28525   0.967  43.405  14.448
69232W        W28526  42.305  40.858   3.655
69233W        W28527   2.874   6.687  10.580
69234W        W28528  41.513  34.386   3.818
69235W        W28529   6.741  15.307   4.126
69236W        W28530  37.540  18.787   5.263
69237W        W28531  30.626  39.942  12.921
69238W        W28532  25.489  14.777  10.945
69239W        W28533  44.893  17.604  14.413
69240W        W28534  10.749  16.729  10.961
69241W        W28535  23.653  22.050   2.221
69242W        W28536  22.644  41.460   0.928
69243W        W28537  23.237  28.164   0.941
69244W        W28538  36.467  38.446   0.781
69245W        W28539  40.312  15.292   1.762
69246W        W28540  11.763  36.381  10.977
69247W        W28541  30.935  42.447  13.546
69248W        W28542  40.387  37.932  13.967
69249W        W28543  32.139  19.197   3.240
69250W        W28544  22.531   3.296   4.354
69251W        W28545   2.882  15.148   2.204
69252W        W28546   2.962  38.461   4.261
69253W        W28547  27.492  43.874   3.752
69254W        W28548  16.310  20.728   0.965
69255W        W28549  41.934  15.282  12.021
69256W        W28550   9.790  40.041   4.299
69257W        W28551  39.971  13.761   2.225
69258W        W28552   4.339  40.370  10.604
69259W        W28553  24.044  38.432  11.952
69260W        W28554  22.217   7.290   0.907
69261W        W28555  37.048  31.445   9.542
69262W        W28556  38.821  42.281   2.896
69263W        W28557  12.766   8.696  11.117
69264W        W28558  39.053   3.264  10.413
69265W        W28559  18.768  27.577   2.807
69266W        W28560  33.607   6.388  11.561
69267W        W28561  20.172   7.189  11.950
69268W        W28562  44.838   7.770  12.499
69269W        W28563  27.523  32.452  14.922
69270W        W28564  17.584  39.934   4.214
69271W        W28565  32.989  30.070   4.229
69272W        W28566  32.940  34.494  13.862
69273W        W28567  12.654   0.300  13.430
69274W        W28568   9.380  37.417  14.777
69275W        W28569  42.351  41.823  12.980
69276W        W28570  11.673  11.836   0.936
69277W        W28571  25.609  17.202  12.945
69278W        W28572  23.677  20.030  14.309
69279W        W28573   8.197  38.870  11.429
69280W        W28574  11.767  40.858  12.434
69281W        W28575   6.205  26.530   0.439
69282W        W28576  16.675  15.296  10.477
69283W        W28577   5.314   5.203  14.902
69284W        W28578  12.289  16.309   3.165
69285W        W28579  34.587  43.782  14.876
69286W        W28580  33.391  38.988  14.442
69287W        W28581  23.076  38.440  12.380
69288W        W28582  27.120  37.881   2.821
69289W        W28583  28.013  22.069   0.783
69290W        W28584   9.820  15.673  13.043
69291W        W28585   9.332  31.976   2.241
69292W        W28586  20.565   9.223  10.479
69293W        W28587   2.857  33.890  11.593
69294W        W28588  41.970  18.223   2.726
69295W        W28589  37.463  43.511  11.924
69296W        W28590   9.825  21.161   2.883
69297W        W28591  22.729  22.162  12.477
69298W        W28592  27.181  40.388   0.350
69299W        W28593  30.473   7.687  10.890
69300W        W28594  40.364   8.729   4.233
69301W        W28595  10.169  19.186   3.789
69302W        W28596  37.892  39.865   0.283
69303W        W28597  18.605  41.998   0.437
69304W        W28598   4.938   2.310   1.401
69305W        W28599  25.557  38.852  11.972
69306W        W28600  35.564  39.330  14.898
69307W        W28601   8.815  38.957   2.244
69308W        W28602   2.318  27.506   3.736
69309W        W28603  43.009  21.591  13.872
69310W        W28604  38.021  24.530   2.227
69311W        W28605  16.703   8.356   1.239
69312W        W28606  37.005   3.942   0.255
69313W        W28607  30.098   3.305  12.859
69314W        W28608  32.491  13.713   1.341
69315W        W28609  19.662  35.064  14.513
69316W        W28610  30.564  36.547   3.250
69317W        W28611  28.930   2.294  12.063
69318W        W28612  10.151  15.189   3.633
69319W        W28613  31.475  11.720   3.764
69320W        W28614  31.439  13.622   0.869
69321W        W28615   4.721  30.012   5.165
69322W        W28616  17.612  23.704   4.120
69323W        W28617   2.430  40.532   0.247
69324W        W28618  43.299  12.720  11.987
69325W        W28619   7.693  26.460  12.348
69326W        W28620  30.058   5.204   0.740
69327W        W28621  15.594  10.182  11.980
69328W        W28622  23.696  42.950   0.303
69329W        W28623  25.114  19.182  14.295
69330W        W28624  23.686  37.947  11.592
69331W        W28625  29.518   7.806  13.331
69332W        W28626  27.683  30.945   2.356
69333W        W28627  26.575  41.884   1.243
69334W        W28628  37.909  16.613  14.460
69335W        W28629  34.516   7.723  14.943
69336W        W28630  37.971  30.134   2.753
69337W        W28631  40.386   6.881  12.402
69338W        W28632   8.237  39.404  12.424
69339W        W28633  44.308  43.922  14.460
69340W        W28634  33.571  35.521  10.438
69341W        W28635  26.034   2.368  12.998
69342W        W28636   3.933  26.066  12.394
69343W        W28637  26.680  34.528   0.738
69344W        W28638  37.501  35.002   2.330
69345W        W28639   2.327  35.964  14.923
69346W        W28640  19.645   2.284   4.724
69347W        W28641  31.584  44.996   0.337
69348W        W28642  30.141   9.886  12.058
69349W        W28643  11.340  35.953   2.808
69350W        W28644  23.706  22.142  14.018
69351W        W28645  21.109  29.599   3.385
69352W        W28646   4.286  43.860  13.476
69353W        W28647  37.410  29.503   1.735
69354W        W28648   3.775  10.255  11.476
69355W        W28649  39.420   7.207   1.243
69356W        W28650   5.235  11.281   3.813
69357W        W28651   9.298   8.217   1.893
69358W        W28652   2.742  35.104  12.053
69359W        W28653   5.719  13.833  10.583
69360W        W28654  29.972  41.323  10.572
69361W        W28655  21.538  40.888  12.932
69362W        W28656  33.511   1.370   1.891
69363W        W28657   1.266  43.877   1.235
69364W        W28658  43.442  11.635   1.752
69365W        W28659  41.532  43.511   0.381
69366W        W28660   9.313  30.934   1.868
69367W        W28661   5.352  41.854  11.030
69368W        W28662  25.649  18.565   4.738
69369W        W28663  28.016  15.745   1.227
69370W        W28664  22.179  37.870   4.604
69371W        W28665  26.533  28.612  14.917
69372W        W28666   9.719  40.944   0.463
69373W        W28667   0.980  10.338   4.279
69374W        W28668  35.395  38.492   1.326
69375W        W28669  24.699  11.166   2.251
69376W        W28670  40.457  33.053   3.720
69377W        W28671  16.286  37.413  12.472
69378W        W28672  38.946  37.377  11.045
69379W        W28673  29.518  28.085   4.837
69380W        W28674   0.933   2.316  11.092
69381W        W28675  44.318  33.592  11.870
69382W        W28676  22.546  36.047  11.971
69383W        W28677  39.467  12.235   0.861
69384W        W28678  16.090  43.841  11.962
69385W        W28679  34.493  34.937  13.517
69386W        W28680  35.866  16.269   3.841
69387W        W28681   3.312  19.558   4.199
69388W        W28682  22.995  36.347   0.902
69389W        W28683   1.913  12.153  14.918
69390W        W28684   6.821  10.260   3.292
69391W        W28685  21.159   1.848   3.341
69392W        W28686   3.907  41.036  11.972
69393W        W28687   4.844  25.091  12.889
69394W        W28688   1.953  29.537   0.477
69395W        W28689  31.526  18.779   0.755
69396W        W28690  43.307  20.716   4.180
69397W        W28691  20.750   3.454  11.054
69398W        W28692  13.259  34.537  13.857
69399W        W28693  29.972  17.282   2.695
69400W        W28694  21.750  17.156   4.819
69401W        W28695  31.583  27.538  13.371
69402W        W28696  39.037  29.571   2.890
69403W        W28697  16.709  42.415   2.227
69404W        W28698  37.574  23.157  13.012
69405W        W28699  26.205   0.976  10.932
69406W        W28700  28.625   5.736  13.966
69407W        W28701  44.775  18.739   2.375
69408W        W28702  15.296  38.360  13.837
69409W        W28703  15.821  21.660  10.609
69410W        W28704  10.375  16.201   0.379
69411W        W28705  14.803  14.314  14.917
69412W        W28706  25.010  32.116  12.342
69413W        W28707  18.197  34.398   4.251
69414W        W28708  42.481  27.544   0.303
69415W        W28709  24.688   5.763   9.948
69416W        W28710  15.258   7.744   3.308
69417W        W28711  16.228  17.619  13.533
69418W        W28712  11.691  11.354  11.890
69419W        W28713  33.575  43.431  11.900
69420W        W28714  25.007  39.501  11.467
69421W        W28715   9.888   8.199   1.816
69422W        W28716   9.165   0.862   1.215
69423W        W28717  24.531  22.565  14.397
69424W        W28718   5.839  14.314   1.264
69425W        W28719  11.315  37.339   3.638
69426W        W28720  15.130  40.304  14.310
69427W        W28721  24.032  18.120   0.759
69428W        W28722   3.249   8.316   4.644
69429W        W28723   7.729   9.258  13.796
69430W        W28724  27.526  13.233  12.942
69431W        W28725  21.189  25.087  11.472
69432W        W28726   1.370   0.877  10.414
69433W        W28727  21.546  41.514  12.346
69434W        W28728  29.164   1.861  11.001
69435W        W28729  35.995  24.053   3.635
69436W        W28730  12.817  17.564  12.974
69437W        W28731   7.316   1.964  10.483
69438W        W28732   5.215  43.480   0.384
69439W        W28733  15.793  38.498  13.041
69440W        W28734   5.929  10.300   4.654
69441W        W28735  20.708  33.890   1.409
69442W        W28736  42.303  25.546   0.283
69443W        W28737  11.641  19.182  14.804
69444W        W28738  12.134  17.634   0.853
69445W        W28739  11.645  23.701   0.270
69446W        W28740   8.847  18.188  13.490
69447W        W28741  27.505  15.726   1.714
69448W        W28742  38.994  34.572  14.759
69449W        W28743  14.253  15.702   0.272
69450W        W28744   2.236  25.179   0.918
69451W        W28745  24.129  33.485  14.451
69452W        W28746   8.289   0.414  14.986
69453W        W28747   4.945  10.254   3.693
69454W        W28748  29.133  23.085  12.413
69455W        W28749  42.335  17.756   0.355
69456W        W28750  36.492  12.254  11.538
69457W        W28751  35.882  35.361   1.264
69458W        W28752  27.447  16.690   2.665
69459W        W28753  41.857   4.373  13.535
69460W        W28754  28.502  22.601   0.843
69461W        W28755   7.906  31.975   3.165
69462W        W28756  30.597  20.703  11.050
69463W        W28757   9.650  33.564  11.905
69464W        W28758  29.929  36.883   2.681
69465W        W28759  22.114  43.383  11.980
69466W        W28760  25.097  25.518   0.251
69467W        W28761   7.669  32.521   1.794
69468W        W28762  13.647  44.893  13.805
69469W        W28763   6.300  13.612  13.539
69470W        W28764  29.483   8.293  11.022
69471W        W28765  35.876   6.428  14.432
69472W        W28766  43.884  13.345  14.440
69473W        W28767  38.438  26.154   2.341
69474W        W28768  24.541  36.385   1.251
69475W        W28769   2.864   9.183   0.406
69476W        W28770  24.160  13.789  12.383
69477W        W28771  35.569  33.524  11.953
69478W        W28772  25.481  42.921  14.486
69479W        W28773  28.642   4.868  12.054
69480W        W28774  26.010  10.718   1.916
69481W        W28775   9.172  42.879  11.098
69482W        W28776  26.551  28.442   3.844
69483W        W28777   9.859  44.361  10.548
69484W        W28778  35.902  38.453   0.861
69485W        W28779  38.988  41.365  11.880
69486W        W28780  41.388  32.960   3.642
69487W        W28781  44.334  37.429  12.980
69488W        W28782   2.443  24.204  10.914
69489W        W28783   4.414  11.355   0.814
69490W        W28784  42.319  20.246   3.774
69491W        W28785  28.568   0.356   0.814
69492W        W28786   8.807   2.920  13.825
69493W        W28787  30.542   6.338  11.071
69494W        W28788  23.508  15.150   2.849
69495W        W28789   0.838  11.711  14.492
69496W        W28790  25.997  39.880   1.738
69497W        W28791   9.162  10.857   3.309
69498W        W28792   2.874  10.227  14.343
69499W        W28793  27.980   1.344  14.997
69500W        W28794  34.012  24.573   0.388
69501W        W28795  16.577  16.128  12.480
69502W        W28796   2.313  44.912   3.783
69503W        W28797  38.336  42.796   9.933
69504W        W28798   7.226  32.514  14.762
69505W        W28799  30.941  23.690  11.522
69506W        W28800   9.380  10.328  11.016
69507W        W28801  12.740   4.274   3.250
69508W        W28802  23.104  13.834  13.497
69509W        W28803  27.592  43.986   2.411
69510W        W28804  18.686  27.566   3.228
69511W        W28805  38.074  36.080   1.337
69512W        W28806   1.456  31.427  10.895
69513W        W28807  43.828   9.167  14.501
69514W        W28808  17.208   0.267   1.225
69515W        W28809  37.484  32.045   3.632
69516W        W28810  18.633  26.022  12.833
69517W        W28811   9.266  18.108   4.315
69518W        W28812   0.460   5.893  10.951
69519W        W28813  42.924  13.750  11.078
69520W        W28814  31.126  19.244   2.217
69521W        W28815  43.290   9.729   0.404
69522W        W28816  28.152  26.486  13.918
69523W        W28817  15.741   2.754   3.302
69524W        W28818   5.392   4.404   1.409
69525W        W28819  37.867   4.895  14.765
69526W        W28820  12.695   6.689  12.458
69527W        W28821  12.237  27.641  14.463
69528W        W28822  23.702  23.667   4.764
69529W        W28823  39.833  25.201   1.248
69530W        W28824  13.341   2.409  12.429
69531W        W28825  40.518  17.098  14.863
69532W        W28826  40.889   7.683  11.038
69533W        W28827  37.568  37.954  14.980
69534W        W28828  33.017  18.658   0.421
69535W        W28829  23.706   7.816   4.663
69536W        W28830  33.915   0.347  13.974
69537W        W28831  11.758   1.339   3.249
69538W        W28832  44.333  20.229  14.029
69539W        W28833  10.313  35.874   4.239
69540W        W28834  23.186  15.783  10.507
69541W        W28835  33.005   5.371   1.861
69542W        W28836   0.306   4.743   1.248
69543W        W28837  37.420  24.018   2.338
69544W        W28838   8.397  27.154   0.843
69545W        W28839  10.211  16.172  14.943
69546W        W28840  35.048  27.957   0.809
69547W        W28841  11.342  44.373  11.971
69548W        W28842  30.956  17.150  12.913
69549W        W28843   0.956  15.822   5.248
69550W        W28844  11.849  39.368  14.335
69551W        W28845  20.651  33.498   0.353
69552W        W28846  19.717  28.492   1.394
69553W        W28847  24.033  32.906   3.832
69554W        W28848   3.458   9.673   1.804
69555W        W28849  30.942  16.634  10.435
69556W        W28850   8.878  19.114   1.214
69557W        W28851  10.378  35.008   0.269
69558W        W28852  42.360  42.899   4.689
69559W        W28853   9.323  28.069   2.861
69560W        W28854  38.005  17.583   2.416
69561W        W28855  38.987   7.799   1.360
69562W        W28856   1.779   2.280  13.515
69563W        W28857   5.213   7.246   0.948
69564W        W28858   2.767  19.572   4.259
69565W        W28859  44.010  41.375  14.416
69566W        W28860  14.762  37.383  13.321
69567W        W28861   6.349  42.775  13.349
69568W        W28862  19.672  25.180   0.861
69569W        W28863  15.724  25.474  13.058
69570W        W28864  42.979  32.543  13.955
69571W        W28865  20.031   6.397   2.228
69572W        W28866  28.073  28.152  12.553
69573W        W28867  41.043  29.167   0.938
69574W        W28868  27.953  14.144  14.305
69575W        W28869   0.259   6.824  11.462
69576W        W28870  35.046  29.076  14.911
69577W        W28871   6.413   0.388   2.380
69578W        W28872   6.382  22.705  12.913
69579W        W28873  27.025   3.343  11.435
69580W        W28874  39.531   5.308  13.849
69581W        W28875  35.061   3.297  12.925
69582W        W28876  32.419   5.247   0.869
69583W        W28877  23.508  40.980  14.868
69584W        W28878   2.289  23.587  14.364
69585W        W28879   7.287  18.769   1.795
69586W        W28880  10.844  42.415  14.286
69587W        W28881  24.034  39.552   1.347
69588W        W28882   8.216  44.289   3.147
69589W        W28883   9.813  15.800  13.468
69590W        W28884  40.033  15.207  14.457
69591W        W28885   8.722   9.207   1.744
69592W        W28886  24.485   2.945  11.437
69593W        W28887  32.417  27.688  13.400
69594W        W28888  31.098  15.671   4.665
69595W        W28889  21.263  37.928   0.790
69596W        W28890  40.973  40.373   2.283
69597W        W28891  22.713  39.408  14.347
69598W        W28892  18.062  41.494  12.855
69599W        W28893  37.990  31.414  11.126
69600W        W28894  33.081  40.914   0.766
69601W        W28895  28.957  18.791  14.941
69602W        W28896  17.158  40.386  12.087
69603W        W28897  18.742  10.270   2.346
69604W        W28898   4.265  28.460  13.330
69605W        W28899  42.924  16.735   1.926
69606W        W28900  41.405  16.613  11.539
69607W        W28901  43.424  38.997   0.319
69608W        W28902  19.219  40.309  13.858
69609W        W28903  25.653   1.351   2.852
69610W        W28904  30.491  18.181   2.285
69611W        W28905  28.959  12.221   0.451
69612W        W28906  22.588  40.914  14.849
69613W        W28907  21.242  36.052  13.985
69614W        W28908  22.196  32.049   4.259
69615W        W28909  14.184  31.428  13.308
69616W        W28910  23.196  20.633   1.315
69617W        W28911   3.727  17.738  14.789
69618W        W28912  22.550  33.579  12.466
69619W        W28913  41.386  12.144  14.767
69620W        W28914  42.368   3.441  12.885
69621W        W28915  39.023  41.376  13.960
69622W        W28916  19.655  26.504  13.002
69623W        W28917  42.521  21.106   4.726
69624W        W28918   8.746   7.350   9.950
69625W        W28919  25.976  12.741  13.836
69626W        W28920  25.593  21.262   2.704
69627W        W28921  39.530  37.406   2.714
69628W        W28922  23.631  17.179  14.814
69629W        W28923  12.801   8.377  13.407
69630W        W28924  11.174  40.048  14.798
69631W        W28925  13.779  25.982   1.293
69632W        W28926   4.325  44.881  10.609
69633W        W28927  34.051  41.467  10.517
69634W        W28928  24.213  10.170  14.281
69635W        W28929  15.795  18.663  12.954
69636W        W28930   2.757  24.537  12.340
69637W        W28931  12.682  23.676   2.352
69638W        W28932  42.010  32.100  11.589
69639W        W28933  16.178   3.320   2.409
69640W        W28934  18.261  23.134  14.838
69641W        W28935  16.166  35.942  10.537
69642W        W28936  11.768   0.815  10.514
69643W        W28937  34.428  25.651   4.724
69644W        W28938  14.301  28.057  14.800
69645W        W28939  28.145  15.211   0.766
69646W        W28940  19.044  17.075   0.897
69647W        W28941  30.983  10.801  10.621
69648W        W28942  28.168  16.318  12.094
69649W        W28943  30.029  27.564  12.385
69650W        W28944  29.614  26.140   4.292
69651W        W28945  26.498  44.938  11.031
69652W        W28946  26.541  12.135   2.760
69653W        W28947  26.668  40.533  12.845
69654W        W28948  18.666   8.734  10.138
69655W        W28949  29.448  10.245   3.195
69656W        W28950   3.334  38.378   4.741
69657W        W28951   6.218  36.382   1.828
69658W        W28952  12.767  11.327  12.985
69659W        W28953   3.770  34.102  10.568
69660W        W28954   7.780  24.075  12.826
69661W        W28955   4.843  25.213   1.297
69662W        W28956  14.208  11.636   3.768
69663W        W28957  31.147  11.335  13.370
69664W        W28958  23.185  14.128   3.230
69665W        W28959  40.530  21.152   2.894
69666W        W28960  42.001  41.314  12.993
69667W        W28961  27.971  22.057  11.893
69668W        W28962   9.340  35.962  10.444
69669W        W28963  42.874  36.430   3.827
69670W        W28964  10.740   8.744   1.824
69671W        W28965  42.810  15.189  14.360
69672W        W28966  11.776  30.428  14.372
69673W        W28967  36.426  38.336  12.416
69674W        W28968  13.209  27.107  13.452
69675W        W28969   6.391  11.192  11.873
69676W        W28970  16.112   2.916  13.971
69677W        W28971  42.524   3.771   2.251
69678W        W28972   8.235  18.210   0.838
69679W        W28973   5.760  30.144   4.661
69680W        W28974  10.815  31.113  14.279
69681W        W28975  16.286   3.875  11.936
69682W        W28976  32.044  15.250  10.896
69683W        W28977   8.715   6.774   0.837
69684W        W28978  42.385   2.916   0.805
69685W        W28979  11.790  36.428   1.311
69686W        W28980   8.800  10.232  11.053
69687W        W28981  12.158  38.522  12.486
69688W        W28982  31.482  26.003  11.497
69689W        W28983  36.483   4.387   3.336
69690W        W28984  10.878  26.074  14.813
69691W        W28985  29.972  44.410  12.513
69692W        W28986   9.764   2.397  13.014
69693W        W28987   6.311  20.570   0.884
69694W        W28988  39.854  27.994   3.276
69695W        W28989   7.363   1.348  13.909
69696W        W28990  36.925  13.112   4.813
69697W        W28991  13.244  31.906  10.405
69698W        W28992   9.183  11.743  11.036
69699W        W28993   3.879  21.590  14.328
69700W        W28994  33.569  34.606  14.996
69701W        W28995  22.730  21.162  14.462
69702W        W28996   6.404  19.642  10.597
69703W        W28997  41.512  32.925   1.740
69704W        W28998  34.370   7.304   5.216
69705W        W28999  31.588  40.518  12.559
69706W        W29000  12.712  42.402  13.943
69707W        W29001  43.961  33.036   2.341
69708W        W29002  39.850  14.652  14.779
69709W        W29003   4.235  37.060   2.372
69710W        W29004  19.251   1.740   2.760
69711W        W29005  39.554  32.890  13.525
69712W        W29006  32.410   6.281   3.200
69713W        W29007  28.614  40.957   4.345
69714W        W29008  39.057  16.573  11.432
69715W        W29009  20.532   1.265  13.478
69716W        W29010  21.146  39.530   2.900
69717W        W29011  27.676  23.198  11.095
69718W        W29012  30.046   7.396  10.417
69719W        W29013  38.460  25.631   4.348
69720W        W29014  14.167  40.490  10.511
69721W        W29015  44.316  30.439  10.632
69722W        W29016  37.413  17.681   1.445
69723W        W29017  25.705  43.340   4.784
69724W        W29018  11.637  42.837  13.941
69725W        W29019  42.849  43.009  14.944
69726W        W29020  13.286  37.840   1.286
69727W        W29021   3.216  19.089  11.496
69728W        W29022  23.003  42.418   1.905
69729W        W29023  40.024  36.967  12.944
69730W        W29024  44.465  17.238   3.191
69731W        W29025  40.352  26.067   0.435
69732W        W29026  44.876  39.428   3.787
69733W        W29027  44.375  21.681  10.986
69734W        W29028  13.283   7.709  12.850
69735W        W29029  16.087  19.249   0.388
69736W        W29030  41.450  41.874  11.939
69737W        W29031  20.609  19.570   2.707
69738W        W29032  43.513  32.472  12.339
69739W        W29033  30.038  40.523  12.913
69740W        W29034  31.129  27.996   3.320
69741W        W29035  13.244  18.579   5.290
69742W        W29036   6.707  26.172  11.513
69743W        W29037  26.091  22.033   2.279
69744W        W29038  12.159   8.798  11.962
69745W        W29039  37.526  34.914  13.463
69746W        W29040  24.053  26.121   1.424
69747W        W29041  14.224  27.557  13.311
69748W        W29042  26.584  14.682   3.290
69749W        W29043  30.560  43.809  11.523
69750W        W29044   6.427  28.544   2.407
69751W        W29045  14.115  25.702   3.306
69752W        W29046  22.221  25.668   3.296
69753W        W29047  34.105  32.928  10.641
69754W        W29048  31.103  22.126  13.433
69755W        W29049   0.904  19.747  12.554
69756W        W29050  12.119  37.039  14.014
69757W        W29051  27.481  34.413  14.900
69758W        W29052  14.212  14.300  12.480
69759W        W29053  19.251  22.519   5.242
69760W        W29054  11.238  38.393   3.258
69761W        W29055  16.628  16.706   3.656
69762W        W29056  21.104  37.052   2.863
69763W        W29057  22.096  44.447  10.122
69764W        W29058   8.377  40.425   4.207
69765W        W29059   7.666  38.031   3.771
69766W        W29060  41.888   9.861  11.557
69767W        W29061   5.340  44.301   3.734
69768W        W29062  21.093  29.064   0.484
69769W        W29063  21.252   5.909  13.934
69770W        W29064  15.730  32.058  11.514
69771W        W29065  16.296  24.003  13.507
69772W        W29066  21.184  10.813   1.754
69773W        W29067  42.285  18.715  12.859
69774W        W29068  23.542  34.588   1.749
69775W        W29069  18.564  31.566  12.413
69776W        W29070  22.684  30.579  12.861
69777W        W29071  43.840   0.755  13.820
69778W        W29072  36.387  12.674  13.892
69779W        W29073  27.476  28.575   1.251
69780W        W29074  31.022   4.215   3.233
69781W        W29075  24.580  16.263  13.442
69782W        W29076  10.328  12.231   4.838
69783W        W29077   9.774   0.388   1.829
69784W        W29078   1.762  39.322   2.806
69785W        W29079  26.981   0.794  14.347
69786W        W29080  33.951   1.277  14.397
69787W        W29081  34.434  41.399   4.654
69788W        W29082  44.492   5.435   1.412
69789W        W29083   9.341   0.887   2.342
69790W        W29084   1.940  12.195   2.189
69791W        W29085  41.426  10.801   1.301
69792W        W29086  18.159  28.650   1.802
69793W        W29087  33.883   0.483  11.582
69794W        W29088  21.572  12.839   4.327
69795W        W29089  21.638  26.966   2.845
69796W        W29090  21.528  10.264  10.469
69797W        W29091  15.292   3.219   3.770
69798W        W29092  21.571  38.856  12.553
69799W        W29093  35.450  24.037  12.906
69800W        W29094  38.894  27.051  12.357
69801W        W29095  42.428  26.997  14.954
69802W        W29096   1.810  18.160  13.886
69803W        W29097   6.683  18.151   1.283
69804W        W29098  31.529  33.010  14.877
69805W        W29099  22.533   9.872   3.302
69806W        W29100  41.936  30.655  11.411
69807W        W29101  34.515   4.856   9.975
69808W        W29102  29.130  22.520   2.717
69809W        W29103   0.442  18.174   4.251
69810W        W29104  16.249  38.004   3.282
69811W        W29105  37.543  41.429   3.158
69812W        W29106   1.474  37.947  14.482
69813W        W29107  42.814  40.405  14.414
69814W        W29108  17.586   3.727   2.348
69815W        W29109  15.210  22.689   2.294
69816W        W29110  13.308  28.521   2.735
69817W        W29111  11.858   0.464  11.108
69818W        W29112   3.418   8.168  14.895
69819W        W29113  12.152  28.033   0.953
69820W        W29114  42.311  25.663  13.833
69821W        W29115  10.632  22.659  12.967
69822W        W29116  25.216  33.027   2.815
69823W        W29117   8.862  13.711   0.757
69824W        W29118  23.531  32.019   1.379
69825W        W29119  41.358   4.838  10.546
69826W        W29120   5.699  31.012   2.874
69827W        W29121  24.034   8.686   2.676
69828W        W29122  14.821  25.160  12.478
69829W        W29123  33.498  17.093  12.075
69830W        W29124  29.112  21.237   2.891
69831W        W29125  20.664  30.959  13.973
69832W        W29126  12.806   6.773  12.071
69833W        W29127  18.578  27.643  14.032
69834W        W29128  23.163  22.701  13.982
69835W        W29129   6.188   9.315   4.809
69836W        W29130  44.503  31.571  12.005
69837W        W29131  43.823  44.786   0.930
69838W        W29132  31.038  19.120   3.853
69839W        W29133  31.063  36.493   2.725
69840W        W29134  37.941  30.161   3.274
69841W        W29135  19.131  19.148   0.909
69842W        W29136  22.612  17.123   0.833
69843W        W29137  27.667  28.153   3.288
69844W        W29138   3.873  42.312   4.346
69845W        W29139  17.728  15.301  13.890
69846W        W29140  17.095  16.716   0.962
69847W        W29141  39.022  20.261  14.301
69848W        W29142   9.781  30.040   5.669
69849W        W29143  27.682   3.803   3.358
69850W        W29144  23.627  25.138  11.477
69851W        W29145   4.762  16.197  11.550
69852W        W29146  30.600  28.946   4.198
69853W        W29147  19.757   5.829  13.013
69854W        W29148   7.352  18.112   4.232
69855W        W29149  40.837  22.998   0.375
69856W        W29150  11.831  43.407  13.904
69857W        W29151  31.066  36.573   1.319
69858W        W29152  10.223  28.049   4.202
69859W        W29153  38.909   8.263   4.807
69860W        W29154   5.342  21.651   0.461
69861W        W29155   6.363   0.451  13.937
69862W        W29156  34.496  15.103   3.731
69863W        W29157  28.597   1.252   1.214
69864W        W29158   1.241  35.936   0.328
69865W        W29159  31.524   6.231  14.910
69866W        W29160  43.432  16.663   3.751
69867W        W29161  28.139  37.469   2.679
69868W        W29162   5.917  16.567  13.360
69869W        W29163  13.706   4.389  11.601
69870W        W29164  29.561  39.392   1.313
69871W        W29165  44.333  20.677  11.388
69872W        W29166  42.835  24.034  11.429
69873W        W29167  36.362   1.858   0.435
69874W        W29168  25.107  41.451   0.783
69875W        W29169  36.480  33.514   2.713
69876W        W29170   7.393  12.273  11.074
69877W        W29171  12.664  39.809  14.365
69878W        W29172  38.386   7.899  10.644
69879W        W29173  19.103  10.806   4.774
69880W        W29174  23.184  43.908   4.278
69881W        W29175   8.335   7.273  14.488
69882W        W29176  11.268  10.158  11.109
69883W        W29177  43.424   3.275  12.985
69884W        W29178  31.143  44.786   4.764
69885W        W29179   9.275   5.410   4.624
69886W        W29180  34.488  34.026  11.096
69887W        W29181   7.309  43.380  14.801
69888W        W29182  29.082  15.604  10.460
69889W        W29183  18.216   1.326   3.785
69890W        W29184  14.606   4.855  11.545
69891W        W29185  41.464  26.517   2.859
69892W        W29186  44.393  29.084   2.407
69893W        W29187  25.992  13.801  10.638
69894W        W29188  20.585  32.496  13.831
69895W        W29189   5.273  40.905   3.795
69896W        W29190  11.347  22.592  13.372
69897W        W29191  41.364  37.429  14.808
69898W        W29192  37.878   5.342   3.712
69899W        W29193   2.913   5.701   0.802
69900W        W29194   5.791  34.392   4.163
69901W        W29195  29.430  29.536   4.185
69902W        W29196   7.293  43.984  13.902
69903W        W29197  21.696   7.346   1.327
69904W        W29198  26.621  37.850   3.190
69905W        W29199  30.530  30.459  13.813
69906W        W29200  30.930   7.333   3.337
69907W        W29201  29.509  22.541  12.978
69908W        W29202   8.175  35.455   1.903
69909W        W29203   0.270   3.814  13.010
69910W        W29204   0.781   2.947  14.504
69911W        W29205  17.188  26.197   0.739
69912W        W29206  10.732  26.545   2.201
69913W        W29207  34.476   0.298  10.425
69914W        W29208  14.810  38.488   3.233
69915W        W29209  33.550  41.422   3.842
69916W        W29210  24.172   6.365  10.418
69917W        W29211  10.157  44.328   1.435
69918W        W29212  25.661  39.904  12.413
69919W        W29213   8.870  18.576   2.413
69920W        W29214  38.904  10.775  13.916
69921W        W29215  32.488  24.532   1.727
69922W        W29216   0.471   6.390   0.358
69923W        W29217  28.050  13.187   4.147
69924W        W29218  11.312  40.336   0.933
69925W        W29219   0.285  33.541  14.015
69926W        W29220   4.230  21.652  12.948
69927W        W29221   8.394  34.561   4.772
69928W        W29222   3.744  31.921   1.715
69929W        W29223  25.675   0.299  10.576
69930W        W29224  33.925   5.410  11.994
69931W        W29225  42.004  16.566  12.364
69932W        W29226   0.962  11.318  14.814
69933W        W29227  19.136   8.656   2.414
69934W        W29228  39.893  37.393  14.910
69935W        W29229  18.572  43.488  12.458
69936W        W29230  17.787  24.117   2.223
69937W        W29231  41.865  40.815  13.359
69938W        W29232   8.231   6.418   2.802
69939W        W29233  10.150  32.125  14.295
69940W        W29234  25.690  12.361   5.188
69941W        W29235   6.751  10.383   3.730
69942W        W29236   4.906  28.186   5.243
69943W        W29237  32.465  21.575   4.625
69944W        W29238  39.901  44.870   4.835
69945W        W29239  10.698  38.916  11.083
69946W        W29240   7.865   5.352  13.878
69947W        W29241   0.908  41.884   3.172
69948W        W29242  22.008   2.886  11.612
69949W        W29243  32.563  29.096   0.761
69950W        W29244   5.769  29.053  13.059
69951W        W29245  31.900  15.610  13.510
69952W        W29246  37.985  43.952   3.822
69953W        W29247   5.725  33.388   1.874
69954W        W29248  32.010   2.909   4.784
69955W        W29249  42.925  10.370   4.787
69956W        W29250  43.957  43.787  14.972
69957W        W29251  13.794   1.399  12.879
69958W        W29252  41.878  40.956  10.499
69959W        W29253  29.496   1.887   2.395
69960W        W29254  35.070  23.633   4.213
69961W        W29255  23.037  19.103  11.941
69962W        W29256  19.248  27.149   3.812
69963W        W29257  37.082  14.757  12.454
69964W        W29258  39.865   0.372  10.537
69965W        W29259  33.006  11.321   0.314
69966W        W29260  28.466  20.166  14.486
69967W        W29261  25.151  29.577   2.182
69968W        W29262  37.071  43.294   1.421
69969W        W29263  32.017  24.535   0.295
69970W        W29264  29.468  44.458   4.201
69971W        W29265  44.818  26.508  14.963
69972W        W29266  21.542  33.058  11.585
69973W        W29267   8.184  12.179   2.766
69974W        W29268  30.156  21.595  13.826
69975W        W29269   5.785  16.316   3.837
69976W        W29270  19.270   3.262  12.009
69977W        W29271  16.214  38.933  13.930
69978W        W29272  25.503  31.549   3.194
69979W        W29273  14.814  35.528  13.477
69980W        W29274  39.892  18.217  10.439
69981W        W29275  37.057  32.885  14.831
69982W        W29276  13.144  15.098   0.846
69983W        W29277  36.069   6.311  11.543
69984W        W29278  41.437  37.069   1.760
69985W        W29279  36.859  31.998   4.311
69986W        W29280  43.861  38.828  11.866
69987W        W29281  20.088  29.554  12.420
69988W        W29282  40.882  36.904  12.994
69989W        W29283  27.478   7.669   4.166
69990W        W29284  33.536  44.769  14.902
69991W        W29285   1.337  41.809   2.796
69992W        W29286  13.281  33.047  10.153
69993W        W29287  42.363  35.058   1.877
69994W        W29288  44.492  43.813   3.719
69995W        W29289  14.748  35.901  11.549
69996W        W29290  38.830  44.787   2.848
69997W        W29291  14.138  38.530   2.672
69998W        W29292  17.223  28.574   2.220
69999W        W29293   5.718  43.002   3.819
70000W        W29294   0.474  39.488   4.821
70001W        W29295   7.672  13.238   0.832
70002W        W29296  42.525  31.075  14.925
70003W        W29297  20.221  12.767  10.096
70004W        W29298  16.112  25.703  13.804
70005W        W29299  32.065  18.724  14.881
70006W        W29300  33.583  25.026  13.337
70007W        W29301  21.567  27.527  11.035
70008W        W29302  13.191  11.707   3.823
70009W        W29303  43.866  41.793   2.777
70010W        W29304  39.867   2.940  14.514
70011W        W29305  40.918   6.308  14.935
70012W        W29306   3.910  25.065   4.655
70013W        W29307  40.516  30.612   5.097
70014W        W29308   8.378   3.358   4.231
70015W        W29309  30.521  37.447   1.417
70016W        W29310  41.469  26.467  11.400
70017W        W29311  11.196  26.076   1.340
70018W        W29312  40.030  37.959   3.335
70019W        W29313  22.233  29.534   3.754
70020W        W29314  28.177  16.580  14.436
70021W        W29315  12.687   4.426  11.389
70022W        W29316  31.042  25.130   0.457
70023W        W29317   7.194  12.340   3.740
70024W        W29318  40.501   0.408  13.407
70025W        W29319   5.286   5.739  12.916
70026W        W29320   9.691  23.159  14.480
70027W        W29321  17.143  18.705  13.335
70028W        W29322  32.922  35.967   2.827
70029W        W29323  13.776  14.309   3.304
70030W        W29324  29.487  28.021   4.186
70031W        W29325  37.029  38.894  14.794
70032W        W29326  22.558  19.620   3.798
70033W        W29327   5.206   8.676  11.858
70034W        W29328   4.286  34.563   3.648
70035W        W29329  25.053  16.690  12.086
70036W        W29330  32.414  25.125  13.408
70037W        W29331   1.926  27.118   4.200
70038W        W29332  22.173  27.035   1.828
70039W        W29333  31.132  15.094   3.344
70040W        W29334  27.943  16.263  12.905
70041W        W29335   9.834  44.373  14.983
70042W        W29336  22.583  18.648  11.000
70043W        W29337   2.306  23.191   3.231
70044W        W29338   4.293  27.647   1.282
70045W        W29339  38.516   3.383  13.516
70046W        W29340   8.401   6.898   2.717
70047W        W29341  24.147  23.096  12.918
70048W        W29342  40.946  11.745   2.862
70049W        W29343  19.246   9.850   0.365
70050W        W29344   4.799   1.249   2.817
70051W        W29345  12.264  38.413   0.857
70052W        W29346  36.422  23.514   0.884
70053W        W29347  27.169  30.514   3.818
70054W        W29348  40.879   1.906   3.283
70055W        W29349   7.894  27.013   4.786
70056W        W29350  30.524  21.514  12.511
70057W        W29351   7.724  34.514  11.890
70058W        W29352  18.267  25.710  11.600
70059W        W29353  33.508  38.846   4.236
70060W        W29354  35.601   3.811   3.350
70061W        W29355  42.970  17.136   3.158
70062W        W29356   1.735   0.478  13.929
70063W        W29357  14.675   3.773   3.221
70064W        W29358  21.685  31.631   0.409
70065W        W29359  32.507  27.136   3.753
70066W        W29360  16.164   9.241  11.568
70067W        W29361  26.067  42.785  12.371
70068W        W29362  18.656   6.240   2.821
70069W        W29363  40.438   8.353  12.018
70070W        W29364   7.866  39.497   3.701
70071W        W29365  17.283  43.510  11.386
70072W        W29366  11.242  37.833   3.258
70073W        W29367  41.334  14.696  11.514
70074W        W29368  31.500  32.398   4.724
70075W        W29369   9.373   3.447   3.163
70076W        W29370  22.202  26.651   0.481
70077W        W29371  32.982  12.714   1.225
70078W        W29372  25.605  30.577  11.877
70079W        W29373  10.637  39.042   2.323
70080W        W29374   4.339  16.605   4.167
70081W        W29375  21.150   4.772   1.836
70082W        W29376  34.456  17.253   0.942
70083W        W29377  43.796   1.447   3.683
70084W        W29378  10.307  13.248   2.194
70085W        W29379   6.903  15.213  14.886
70086W        W29380  42.337   4.910   2.712
70087W        W29381  35.579  31.991   3.750
70088W        W29382  36.475  38.827   5.140
70089W        W29383  43.515  11.168  12.540
70090W        W29384   7.766  28.099   0.885
70091W        W29385   2.316  18.216  10.972
70092W        W29386   7.311  30.636   3.782
70093W        W29387  43.789  27.587   1.749
70094W        W29388  38.848  14.281   1.802
70095W        W29389   8.856  29.615  12.398
70096W        W29390  36.415  30.435  12.830
70097W        W29391  41.358  34.997  12.969
70098W        W29392   5.710  32.505  13.368
70099W        W29393  13.754  31.463   0.829
70100W        W29394  41.004   4.927   4.685
70101W        W29395   0.296  26.531  12.427
70102W        W29396  12.756  35.878   4.664
70103W        W29397  19.173  15.628  12.984
70104W        W29398   4.263   3.844  11.455
70105W        W29399  21.112  31.460   2.869
70106W        W29400  15.592   9.783  14.911
70107W        W29401   6.428   3.347  14.467
70108W        W29402  28.959  15.124  11.949
70109W        W29403  30.610  21.256   2.686
70110W        W29404  22.176  37.950   3.315
70111W        W29405  12.238  30.522  13.904
70112W        W29406   1.962  13.622  12.911
70113W        W29407  29.636  26.057   1.387
70114W        W29408   3.812  10.182   1.882
70115W        W29409  30.571  19.143   2.194
70116W        W29410  14.825   7.201  10.143
70117W        W29411  37.046  13.814   4.218
70118W        W29412   3.215  32.049  11.061
70119W        W29413  43.365  31.101  14.465
70120W        W29414  34.101   6.878  11.409
70121W        W29415  16.793   5.793  14.977
70122W        W29416  17.161  20.252  12.950
70123W        W29417  37.003  23.529   0.276
70124W        W29418  24.546  26.102  14.351
70125W        W29419  42.862  35.925   4.353
70126W        W29420  20.221   8.215   0.762
70127W        W29421  31.994  41.001  11.098
70128W        W29422  25.037  42.315  12.904
70129W        W29423  38.895   2.914   0.301
70130W        W29424   8.179  17.640   4.233
70131W        W29425   3.936  25.969   4.256
70132W        W29426  20.706  32.996  14.889
70133W        W29427  26.518  17.756   0.415
70134W        W29428  34.081  18.151  13.409
70135W        W29429  18.562  14.692  14.391
70136W        W29430  23.588  31.528  11.863
70137W        W29431  15.633  16.155  14.401
70138W        W29432   9.698  36.853   4.786
70139W        W29433  43.784  11.277   4.613
70140W        W29434  35.970   3.347  13.912
70141W        W29435  33.024  31.467  12.386
70142W        W29436  32.461  40.535   3.740
70143W        W29437  28.615  21.732   4.130
70144W        W29438  31.963  36.514  14.763
70145W        W29439  29.457  32.473   2.747
70146W        W29440  17.675  36.922   4.627
70147W        W29441  43.937  14.329  14.343
70148W        W29442   4.442  12.167  13.937
70149W        W29443  16.648  22.056   3.700
70150W        W29444   4.781   9.155   3.835
70151W        W29445  36.553   1.862  13.958
70152W        W29446   2.472  23.615   3.185
70153W        W29447  19.138  33.954  13.884
70154W        W29448  21.511  30.581  13.369
70155W        W29449  23.648  27.521   0.744
70156W        W29450  33.064  26.190  11.503
70157W        W29451  28.173  28.626  14.976
70158W        W29452  13.256  41.428   3.816
70159W        W29453  35.417  38.941   0.808
70160W        W29454   5.880  22.018  13.357
70161W        W29455  13.801  23.204   0.888
70162W        W29456  39.819  30.510   3.759
70163W        W29457  12.312  10.234   0.341
70164W        W29458  40.974  27.965  14.820
70165W        W29459   0.488  34.533  11.058
70166W        W29460  27.945  13.267  10.505
70167W        W29461   8.358  40.808  12.978
70168W        W29462  36.986  34.578  12.343
70169W        W29463  42.853  30.921   2.223
70170W        W29464  21.184  32.039  11.982
70171W        W29465  15.669  20.552  14.361
70172W        W29466  29.052  18.078  13.462
70173W        W29467  31.530  19.584  14.396
70174W        W29468  13.256  34.035  11.555
70175W        W29469   3.843  22.683  12.058
70176W        W29470  11.848  18.748  13.515
70177W        W29471  41.879   8.661  14.284
70178W        W29472  13.687  41.349  14.500
70179W        W29473   0.301  18.157  11.419
70180W        W29474  19.164  23.620  11.910
70181W        W29475  29.027   3.263   2.672
70182W        W29476  23.650   8.298   2.807
70183W        W29477  13.190  24.208  13.396
70184W        W29478  11.186  35.480  14.958
70185W        W29479  29.999  30.615  11.878
70186W        W29480  27.954  32.022   1.443
70187W        W29481  15.614  43.798   0.264
70188W        W29482   1.922  38.961   2.342
70189W        W29483   5.254  43.002  13.005
70190W        W29484  14.745   6.355   2.334
70191W        W29485  38.361  13.640   0.931
70192W        W29486  32.931  43.419  12.874
70193W        W29487  41.419  44.472  14.358
70194W        W29488   5.837  12.797   1.723
70195W        W29489  43.918  13.134  12.977
70196W        W29490  42.283  40.460   0.347
70197W        W29491  32.457  15.292  10.494
70198W        W29492  43.826  38.552   1.417
70199W        W29493  23.999  33.402   1.877
70200W        W29494   0.408  11.367   2.412
70201W        W29495  30.552   1.428  11.036
70202W        W29496  14.262   3.440   9.997
70203W        W29497  22.741  12.275  14.356
70204W        W29498  10.357  10.866   1.787
70205W        W29499   3.864  36.544   0.928
70206W        W29500   2.934  22.115   1.866
70207W        W29501  17.266  17.742  10.498
70208W        W29502  23.015  22.122  14.867
70209W        W29503   6.237  35.979  14.012
70210W        W29504   8.192   5.314   1.355
70211W        W29505  44.839  24.983   5.104
70212W        W29506  11.756  22.739  11.921
70213W        W29507  25.505  19.186   0.286
70214W        W29508  33.931  39.507  12.421
70215W        W29509  19.052  18.186   4.345
70216W        W29510  17.086  25.974   2.397
70217W        W29511  12.667  41.042   2.385
70218W        W29512  16.189  30.028   1.435
70219W        W29513  28.117  23.140  12.498
70220W        W29514  35.506  26.703   4.747
70221W        W29515  20.062   7.803  11.508
70222W        W29516  22.664  33.045   1.270
70223W        W29517  25.541  12.803   4.241
70224W        W29518  38.975   9.256  12.052
70225W        W29519  12.164  33.565  14.838
70226W        W29520  24.649  26.583   4.783
70227W        W29521   8.655  10.219   4.292
70228W        W29522   3.780  42.926  12.384
70229W        W29523  25.706  28.143  14.801
70230W        W29524  40.487  33.506  13.524
70231W        W29525  15.114  23.209  12.394
70232W        W29526  23.084  23.532  12.877
70233W        W29527  22.593  21.149  12.874
70234W        W29528   3.889  27.500  13.470
70235W        W29529  34.490  22.728  10.578
70236W        W29530  26.154  41.962   4.181
70237W        W29531  12.615  43.433  11.873
70238W        W29532  43.015  44.502   1.871
70239W        W29533  32.448  24.154  12.849
70240W        W29534  30.518  35.979  14.285
70241W        W29535  17.760  23.689   1.729
70242W        W29536  11.148  44.770   0.832
70243W        W29537  44.952  42.890  12.430
70244W        W29538  12.205   0.472   4.117
70245W        W29539  44.983   6.208  11.563
70246W        W29540  35.363  10.248   5.309
70247W        W29541  22.006  39.026   4.607
70248W        W29542  27.198   5.845  11.946
70249W        W29543  18.066  20.209   2.803
70250W        W29544   4.295   4.296  12.005
70251W        W29545   2.289  39.880  11.490
70252W        W29546  18.096  43.459  13.492
70253W        W29547  22.172  42.316  13.964
70254W        W29548   2.926  20.657  10.496
70255W        W29549   2.792  10.826   3.694
70256W        W29550  27.534  27.593   0.814
70257W        W29551   1.957   1.290  10.977
70258W        W29552  18.138   0.815   2.871
70259W        W29553  23.565  14.190   4.603
70260W        W29554  11.283  42.834   3.811
70261W        W29555  39.917  13.836   3.637
70262W        W29556  27.015  31.429   0.759
70263W        W29557  22.143   8.857   5.614
70264W        W29558  38.336  18.089  14.941
70265W        W29559  13.778  17.651  12.488
70266W        W29560   7.306  32.405   1.820
70267W        W29561  32.404  10.872   3.677
70268W        W29562  15.282  41.448   2.190
70269W        W29563  19.063  18.162  13.334
70270W        W29564   6.185  43.305  13.043
70271W        W29565  13.294  20.725  14.452
70272W        W29566   4.309  38.547   4.696
70273W        W29567  21.105  12.205  14.927
70274W        W29568  24.511   2.423  12.576
70275W        W29569  26.081  41.346  12.828
70276W        W29570  15.784  15.817  14.419
70277W        W29571   7.173   4.373   1.914
70278W        W29572   8.883  20.752  14.956
70279W        W29573  29.475  24.209   2.765
70280W        W29574  34.941  30.028   4.699
70281W        W29575  24.057  10.378   3.826
70282W        W29576  35.024  38.368   1.371
70283W        W29577  23.121  26.200  12.454
70284W        W29578  15.328  11.846   0.796
70285W        W29579  31.435  19.714  11.585
70286W        W29580  19.151  31.633   4.610
70287W        W29581   7.199  40.468   4.143
70288W        W29582  41.469  34.893   0.295
70289W        W29583  11.239  31.458   3.311
70290W        W29584  34.558  11.352  13.462
70291W        W29585   6.238   9.175  13.472
70292W        W29586  34.396  11.837   3.352
70293W        W29587  19.058  37.830  11.037
70294W        W29588  37.852  42.805  10.478
70295W        W29589  27.545  38.936   3.309
70296W        W29590  12.184  31.941  12.908
70297W        W29591  30.149  34.586   1.749
70298W        W29592  17.691  37.395   1.757
70299W        W29593  14.104  21.226  14.947
70300W        W29594  40.999  13.629  13.998
70301W        W29595  18.584   8.899   4.642
70302W        W29596  44.481  18.702  14.368
70303W        W29597  32.966   5.346  11.100
70304W        W29598   6.300   9.828   0.289
70305W        W29599  34.011  23.622   0.916
70306W        W29600  42.378  22.661   0.326
70307W        W29601   2.258  44.884   2.734
70308W        W29602   4.844  28.553   3.299
70309W        W29603  31.560  39.814   5.124
70310W        W29604  44.929  35.393   2.744
70311W        W29605  27.590  25.625   4.833
70312W        W29606   2.253  29.482  11.992
70313W        W29607  32.568  28.071   1.251
70314W        W29608   9.795   5.824  13.971
70315W        W29609  39.500   6.834  11.883
70316W        W29610  28.477  29.124  12.975
70317W        W29611  40.802  34.597  10.544
70318W        W29612  15.759  28.945  12.479
70319W        W29613  32.992  13.183   0.809
70320W        W29614   1.474  14.293  13.345
70321W        W29615  38.027   6.713  11.034
70322W        W29616  33.944  27.117  14.801
70323W        W29617   4.869   6.393   2.765
70324W        W29618  40.909  25.159   2.808
70325W        W29619  27.061  11.230  14.832
70326W        W29620  44.938  30.549  11.894
70327W        W29621  40.928   9.153  13.383
70328W        W29622  14.727   3.873   2.771
70329W        W29623  11.723  26.689  13.490
70330W        W29624  38.351  19.217  12.882
70331W        W29625  10.656  21.747  12.837
70332W        W29626  10.792  39.499  12.858
70333W        W29627   5.320  32.584   2.776
70334W        W29628  24.557  16.617   0.798
70335W        W29629  40.045   6.184  12.957
70336W        W29630  30.541  42.960  10.538
70337W        W29631  32.600  29.591   4.154
70338W        W29632  26.539  31.100  11.932
70339W        W29633  39.471   9.722   0.958
70340W        W29634  28.588  11.171   3.751
70341W        W29635  17.074  42.827   4.750
70342W        W29636   1.837  38.377   4.290
70343W        W29637  31.092  33.877  14.006
70344W        W29638  28.073  40.891  14.793
70345W        W29639  43.317  31.622   4.257
70346W        W29640   1.351  33.560   1.364
70347W        W29641   0.358  11.303   3.168
70348W        W29642  40.027   3.753   2.695
70349W        W29643  28.014   6.853  14.027
70350W        W29644   9.809  31.600  13.861
70351W        W29645   1.927   6.690  10.946
70352W        W29646   0.748  28.444  13.502
70353W        W29647  14.328  13.250  12.380
70354W        W29648  11.209  13.844  13.446
70355W        W29649   8.834   7.327  13.005
70356W        W29650  32.625  25.089  12.929
70357W        W29651  28.564   0.389  13.357
70358W        W29652   1.432  10.705   0.815
70359W        W29653   5.802  12.644   4.249
70360W        W29654  43.013  11.755   3.163
70361W        W29655  30.494  44.919  11.609
70362W        W29656   0.452  44.766  13.517
70363W        W29657   6.306   7.837   0.326
70364W        W29658  14.238  41.362   2.306
70365W        W29659   9.368  15.718   3.717
70366W        W29660  19.708  43.323   3.720
70367W        W29661  13.152   8.366   3.149
70368W        W29662  34.015  39.492   4.768
70369W        W29663  25.207  42.349  13.507
70370W        W29664  33.485  30.139   3.635
70371W        W29665   3.712   4.416   3.280
70372W        W29666   1.752   3.805   2.823
70373W        W29667  32.407  22.513   0.819
70374W        W29668  14.764  10.225  13.380
70375W        W29669  23.056  28.599  11.109
70376W        W29670   4.809  39.501   4.821
70377W        W29671  42.844   9.313   4.773
70378W        W29672  14.613  37.537   3.352
70379W        W29673   3.852  29.084  10.063
70380W        W29674  25.013  10.249   0.896
70381W        W29675  19.103  15.754   0.391
70382W        W29676  16.657  15.164  11.452
70383W        W29677  13.645  27.585  13.905
70384W        W29678  18.196  13.334   5.137
70385W        W29679  38.387  23.147  14.298
70386W        W29680  19.085  42.016  11.441
70387W        W29681   9.261  29.460   2.268
70388W        W29682  15.148  23.177  14.305
70389W        W29683  30.083  38.057  11.599
70390W        W29684  44.009  44.768   4.725
70391W        W29685  41.972  20.046   1.329
70392W        W29686  16.775   8.687  13.413
70393W        W29687  28.155   7.278   2.309
70394W        W29688   5.227  24.203   4.683
70395W        W29689  31.447  14.666  10.907
70396W        W29690  31.636  10.222   4.738
70397W        W29691   5.694  31.945  10.471
70398W        W29692  21.214   9.366  11.859
70399W        W29693  31.082  31.577   1.888
70400W        W29694  41.301  11.303  14.508
70401W        W29695  25.662  20.562   1.714
70402W        W29696   8.187  42.913  11.401
70403W        W29697   9.644  25.515  14.417
70404W        W29698  35.488  26.075  10.981
70405W        W29699  27.068  29.107  12.927
70406W        W29700   8.797  40.495   3.174
70407W        W29701  38.516   7.827   1.272
70408W        W29702  34.001  25.601  14.512
70409W        W29703   6.913  23.198   2.399
70410W        W29704  29.158  24.004   1.786
70411W        W29705  24.690  22.514   4.293
70412W        W29706   9.864  21.732  12.958
70413W        W29707  21.198  11.762  12.015
70414W        W29708   7.891  40.828  10.448
70415W        W29709  15.304  25.106  13.539
70416W        W29710  39.060  19.211   1.340
70417W        W29711  13.807  25.080   1.931
70418W        W29712   5.210  29.550   2.824
70419W        W29713  21.185  41.016   1.419
70420W        W29714  36.015  14.684   4.611
70421W        W29715   9.182  13.240   4.715
70422W        W29716  35.364  34.462   4.269
70423W        W29717  24.558   4.844  14.804
70424W        W29718  27.491   3.337  11.030
70425W        W29719  37.566  26.582   3.366
70426W        W29720  23.227  42.439   4.746
70427W        W29721  18.782  18.172   4.189
70428W        W29722   4.283   6.720   4.124
70429W        W29723   1.287   1.252   0.861
70430W        W29724  22.078  13.259   2.825
70431W        W29725  35.365   9.291   4.831
70432W        W29726  43.504  44.969   0.915
70433W        W29727   1.448  28.483  14.516
70434W        W29728   4.844  14.329   1.916
70435W        W29729  12.191  11.849  10.519
70436W        W29730   5.825  27.572   4.257
70437W        W29731   4.409  27.518   4.331
70438W        W29732  36.884  22.105   4.824
70439W        W29733   7.785  23.736  13.800
70440W        W29734   4.275  36.485  14.878
70441W        W29735   3.375  18.191  14.304
70442W        W29736  18.161  33.593   0.757
70443W        W29737   5.739   7.405   4.323
70444W        W29738  38.382  28.074   2.760
70445W        W29739  14.240   3.389   4.210
70446W        W29740  31.140   9.777  13.907
70447W        W29741  13.200  38.478  11.530
70448W        W29742   9.802   5.798  13.353
70449W        W29743  33.380  35.522   0.923
70450W        W29744   0.757  26.534   5.193
70451W        W29745  18.749  34.039  11.979
70452W        W29746   4.387   9.155  10.587
70453W        W29747   0.857   0.819  13.994
70454W        W29748  31.149  33.020  10.477
70455W        W29749  30.141  40.950  12.027
70456W        W29750  19.251  33.078   0.361
70457W        W29751  32.585   3.328  12.989
70458W        W29752   5.223  30.502   4.666
70459W        W29753  31.648  41.308   3.264
70460W        W29754  14.768   0.826   4.348
70461W        W29755   1.478  18.625  14.004
70462W        W29756  34.077  12.785  14.855
70463W        W29757  17.192   1.375  13.846
70464W        W29758  13.135  23.021  13.961
70465W        W29759  11.160   1.778  11.107
70466W        W29760  14.271  19.656   4.270
70467W        W29761  17.765  12.763   1.386
70468W        W29762  15.640   9.805  10.055
70469W        W29763  19.060  13.309   4.223
70470W        W29764   8.216   5.306  14.988
70471W        W29765  19.040  29.457  11.561
70472W        W29766  24.014  32.074  11.534
70473W        W29767  32.081   4.346  13.847
70474W        W29768   8.306   4.912   2.187
70475W        W29769  39.962  17.601  13.369
70476W        W29770  38.498  37.409   4.284
70477W        W29771  10.179  19.069   4.723
70478W        W29772  23.673  29.032  13.505
70479W        W29773   9.650   9.219  12.359
70480W        W29774  15.739  42.828   3.217
70481W        W29775  18.723  42.390   3.794
70482W        W29776  20.670  44.988  13.987
70483W        W29777  40.858  35.895   0.882
70484W        W29778   2.429  23.204   2.832
70485W        W29779  19.107  26.207   4.319
70486W        W29780  37.960  11.351   5.153
70487W        W29781  11.816   2.286   4.224
70488W        W29782   3.354  34.992  10.634
70489W        W29783  21.232  20.684  13.377
70490W        W29784  36.551  24.076   4.756
70491W        W29785  39.060  38.852  10.422
70492W        W29786  11.137  38.855   3.726
70493W        W29787   3.943  31.468   1.370
70494W        W29788   8.885  13.314   4.348
70495W        W29789   8.395   3.414   2.327
70496W        W29790   6.899  18.115   4.632
70497W        W29791  41.895  15.143  14.498
70498W        W29792  28.090  33.088   2.759
70499W        W29793  33.558  33.922  11.581
70500W        W29794  37.066  42.028   0.795
70501W        W29795  11.811  36.455   3.764
70502W        W29796   9.827  25.173  14.031
70503W        W29797   0.937   6.215  12.558
70504W        W29798   6.190  32.456   4.174
70505W        W29799  16.758  41.840   2.722
70506W        W29800   5.381  23.206  14.014
70507W        W29801  44.826  29.508   0.765
70508W        W29802  31.001  28.003   2.783
70509W        W29803   8.201  38.467   3.213
70510W        W29804  20.753   0.954  14.308
70511W        W29805  41.386   8.717  14.459
70512W        W29806   0.297   4.400  14.839
70513W        W29807  35.030  19.063   2.336
70514W        W29808   6.227  42.289   4.688
70515W        W29809   9.207  10.321  12.881
70516W        W29810   4.762  10.349  12.467
70517W        W29811   0.810  31.108  11.085
70518W        W29812  38.440   8.239   2.872
70519W        W29813   8.297  28.136  14.290
70520W        W29814  15.309   6.804   0.325
70521W        W29815   0.420   8.283   0.904
70522W        W29816  34.012  31.068   2.404
70523W        W29817   8.756   2.890  14.287
70524W        W29818  21.685  40.461   4.219
70525W        W29819  34.471   5.860   1.345
70526W        W29820  35.956  29.598  13.531
70527W        W29821  18.677  27.047   2.286
70528W        W29822  23.042  44.449  14.293
70529W        W29823  30.027  36.462  14.909
70530W        W29824  41.013  34.989  11.125
70531W        W29825  21.514  14.106  12.834
70532W        W29826  15.795  36.525   2.872
70533W        W29827   3.842   2.874   2.231
70534W        W29828   2.323   9.763  13.792
70535W        W29829  33.044   0.890   1.398
70536W        W29830   7.742  43.818  13.019
70537W        W29831  44.859  32.629  13.835
70538W        W29832  14.699  37.917  12.502
70539W        W29833  25.157  33.593  12.536
70540W        W29834  11.234  43.947  10.592
70541W        W29835  24.199  12.286   3.250
70542W        W29836  26.684  41.967   2.379
70543W        W29837   2.937  32.907  14.797
70544W        W29838  43.413  29.961  12.834
70545W        W29839  27.051  17.665   2.277
70546W        W29840   0.490  10.200  10.601
70547W        W29841  18.560  16.594   2.282
70548W        W29842  11.156  33.068  11.904
70549W        W29843  22.736   0.411   3.344
70550W        W29844  25.572  40.014   0.266
70551W        W29845   7.235   8.353  14.833
70552W        W29846  26.676  29.960   2.894
70553W        W29847  13.322  40.539  11.903
70554W        W29848  12.305   4.902  12.476
70555W        W29849  10.644  12.833  14.962
70556W        W29850  24.532  20.116  12.947
70557W        W29851  39.048  42.340   4.753
70558W        W29852  17.566  22.562   5.271
70559W        W29853  37.947  14.252   3.748
70560W        W29854  36.885  38.428  10.583
70561W        W29855  43.918  35.427   2.218
70562W        W29856  27.159  40.900   2.279
70563W        W29857  19.259   9.394  14.915
70564W        W29858  18.728  19.667  14.419
70565W        W29859  35.941  40.304   2.201
70566W        W29860  35.906  23.190   2.336
70567W        W29861  28.524  33.037   1.301
70568W        W29862   2.353  26.095  12.355
70569W        W29863  11.654  28.986  11.419
70570W        W29864  41.840  41.462   2.381
70571W        W29865   9.264  40.863   3.208
70572W        W29866  16.590  22.537   4.202
70573W        W29867   8.854  38.824  12.537
70574W        W29868  39.373   9.687   1.818
70575W        W29869   0.476  44.894   3.302
70576W        W29870  12.689  15.083  11.481
70577W        W29871  22.212  21.248  13.800
70578W        W29872  22.680  31.049  13.527
70579W        W29873   4.250   6.751   2.334
70580W        W29874   0.871  30.461   0.438
70581W        W29875   1.845  15.672   2.368
70582W        W29876  33.528  36.377   3.187
70583W        W29877  15.693  10.366  13.354
70584W        W29878  22.212  32.109   3.807
70585W        W29879  35.503  24.667  14.479
70586W        W29880  17.647  36.864   3.638
70587W        W29881  36.058  11.343  10.918
70588W        W29882  30.539   4.283   2.281
70589W        W29883  20.708  42.920  13.864
70590W        W29884   4.719  41.957   0.807
70591W        W29885   0.252  18.787  10.509
70592W        W29886  43.839  10.176   3.740
70593W        W29887   7.238  29.164  12.562
70594W        W29888  14.624  21.076  12.034
70595W        W29889   7.743  31.583  12.442
70596W        W29890  16.574   0.784  13.934
70597W        W29891   9.365  21.531  14.474
70598W        W29892  16.768  34.602   1.278
70599W        W29893  19.270  39.925  14.916
70600W        W29894  36.961  30.512   1.881
70601W        W29895  41.875   9.689   1.244
70602W        W29896  29.031  44.366  10.632
70603W        W29897  44.406  44.263  11.066
70604W        W29898  29.432  24.563   4.310
70605W        W29899  25.680  17.741  11.970
70606W        W29900  29.532  42.975   3.715
70607W        W29901  15.142  16.108   3.838
70608W        W29902   7.888  24.602   5.196
70609W        W29903  40.859  30.624  13.354
70610W        W29904  24.690   5.720   5.617
70611W        W29905  25.997   2.948   2.723
70612W        W29906  19.652  40.919  11.603
70613W        W29907  21.197   3.833  14.458
70614W        W29908  27.087  22.559  13.924
70615W        W29909  26.601   1.299  10.965
70616W        W29910   8.654  33.439  13.057
70617W        W29911  34.547  21.712   3.377
70618W        W29912   2.413  41.929  12.827
70619W        W29913   2.800  17.748  10.600
70620W        W29914  23.230  33.606   1.430
70621W        W29915  18.123  19.177   2.716
70622W        W29916  12.798   5.256   2.879
70623W        W29917  29.061  36.376  10.094
70624W        W29918  23.062   6.859  14.505
70625W        W29919   5.228  24.139  14.981
70626W        W29920  18.110  38.431  10.453
70627W        W29921   7.824  38.406   2.251
70628W        W29922   8.226   5.292  12.900
70629W        W29923  11.238  44.844   2.363
70630W        W29924   2.735  22.220  10.995
70631W        W29925  13.189   2.791  14.759
70632W        W29926  11.188  16.753   2.184
70633W        W29927   9.730  24.144   2.719
70634W        W29928  28.060  41.530  12.040
70635W        W29929  41.926  19.636   4.317
70636W        W29930  25.116  40.842  13.525
70637W        W29931  12.190  36.974   4.606
70638W        W29932  37.895  28.628  14.975
70639W        W29933  38.018  31.604   3.693
70640W        W29934   0.862  22.163   1.830
70641W        W29935  39.846  22.646  11.113
70642W        W29936  14.192  14.265  11.460
70643W        W29937  30.548  31.581   0.943
70644W        W29938   3.269  29.154  11.041
70645W        W29939   3.401  28.064  11.558
70646W        W29940  38.503  27.090  11.487
70647W        W29941   8.867  21.028   1.770
70648W        W29942  31.067  26.694   4.146
70649W        W29943  13.664  17.780   4.680
70650W        W29944   3.952  37.972   1.301
70651W        W29945  32.427   5.310  11.042
70652W        W29946  25.144   1.406  11.542
70653W        W29947  13.830   8.375   0.469
70654W        W29948  35.900  22.033  13.984
70655W        W29949  39.343  18.754   0.451
70656W        W29950  13.818  43.860   0.925
70657W        W29951  18.789  14.829   4.816
70658W        W29952  44.943  31.016  10.949
70659W        W29953  13.298  15.750  12.496
70660W        W29954   0.304  32.463  13.438
70661W        W29955  25.688  11.304   0.921
70662W        W29956   9.387  26.146   4.129
70663W        W29957  27.546  16.683  14.829
70664W        W29958  25.159  43.925   0.820
70665W        W29959  16.186  15.790  14.978
70666W        W29960   3.371  44.438   0.803
70667W        W29961  11.171  27.964  14.362
70668W        W29962  19.113   4.768  11.409
70669W        W29963  15.240  16.593  13.943
70670W        W29964   4.269  31.554  13.829
70671W        W29965  19.623  10.864  13.490
70672W        W29966  11.218  30.075   2.788
70673W        W29967  13.700  22.248  14.827
70674W        W29968  11.305   9.693   3.767
70675W        W29969   9.816  43.910  11.435
70676W        W29970  41.967  20.124  13.803
70677W        W29971   2.879  41.423   2.389
70678W        W29972  17.277  28.108  10.534
70679W        W29973  14.631   5.831   0.850
70680W        W29974  23.503   3.232  10.473
70681W        W29975  11.662  10.178   3.232
70682W        W29976   3.778  17.698  12.513
70683W        W29977  11.751  43.478   2.221
70684W        W29978  18.248  35.525  14.795
70685W        W29979  18.121  34.601   2.409
70686W        W29980  19.677  35.489  12.920
70687W        W29981  14.153  20.615  12.039
70688W        W29982  23.012  36.012   3.856
70689W        W29983  25.146  43.501  13.038
70690W        W29984  23.556  27.996  12.356
70691W        W29985  16.226  19.582   2.209
70692W        W29986   7.908  39.501   1.375
70693W        W29987  37.083  33.555  14.980
70694W        W29988   7.367   0.828   1.215
70695W        W29989  19.653  28.127  14.020
70696W        W29990  43.886  17.751  13.846
70697W        W29991   7.833  15.635   1.867
70698W        W29992   7.305  24.155  11.430
70699W        W29993   8.292  27.522   2.686
70700W        W29994  23.614  34.442   2.899
70701W        W29995  18.182  30.607   3.174
70702W        W29996   7.869   8.316  13.400
70703W        W29997  44.425  34.533  14.844
70704W        W29998   7.867  35.435  10.944
70705W        W29999  30.134  15.824  12.911
70706W        W30000  37.066  41.394   0.456
70707W        W30001  33.582  26.641   0.755
70708W        W30002  42.828  14.703   3.669
70709W        W30003  23.109  22.074   3.652
70710W        W30004  22.619   8.256  13.535
70711W        W30005  15.087  35.934   2.361
70712W        W30006  12.149   4.818   4.832
70713W        W30007  31.147  11.156   4.672
70714W        W30008   9.651  27.500   4.244
70715W        W30009  14.828   1.974  13.916
70716W        W30010  34.613  32.491  11.489
70717W        W30011  13.622  44.762   2.332
70718W        W30012  26.684   0.314  10.469
70719W        W30013  18.757  29.130  14.870
70720W        W30014  38.023  33.530  14.979
70721W        W30015  15.301  42.957   3.677
70722W        W30016   5.897  35.364   2.274
70723W        W30017   4.386  10.372   1.699
70724W        W30018   4.322  35.897   3.292
70725W        W30019  27.016  19.202  11.080
70726W        W30020  27.109  16.612  11.448
70727W        W30021  35.378  42.425   4.826
70728W        W30022  23.024  10.255  14.860
70729W        W30023   8.254  29.043  10.472
70730W        W30024   5.796  39.483   4.605
70731W        W30025  35.961   4.216  13.384
70732W        W30026   0.262  14.303   4.664
70733W        W30027   8.251  22.741  14.328
70734W        W30028  20.557   3.304  14.359
70735W        W30029   7.812  37.037   0.305
70736W        W30030  44.437  28.181  11.442
70737W        W30031  28.442  39.959   4.293
70738W        W30032  27.173   6.273  12.944
70739W        W30033  16.259   1.745  11.891
70740W        W30034   7.190  18.705  14.414
70741W        W30035   0.387  42.950  10.123
70742W        W30036  33.592  44.773   4.685
70743W        W30037   6.786  42.801  11.025
70744W        W30038  25.686  21.158  11.969
70745W        W30039  17.774  24.999  11.989
70746W        W30040  31.098  24.038  10.899
70747W        W30041  23.070  20.035   1.715
70748W        W30042  23.145  14.168  13.009
70749W        W30043  39.046  32.449   0.467
70750W        W30044  25.530  10.313   0.327
70751W        W30045   0.921  13.200   2.726
70752W        W30046  13.111  17.622   1.716
70753W        W30047  42.789  29.942   1.829
70754W        W30048  31.562  27.532   4.303
70755W        W30049  15.755  42.793   0.266
70756W        W30050  15.296   7.374   4.738
70757W        W30051  27.996   6.405  13.999
70758W        W30052  23.116  31.523   0.278
70759W        W30053   7.212  22.621  13.527
70760W        W30054   0.836  20.580  12.881
70761W        W30055   9.655   3.894  12.364
70762W        W30056  27.062  44.322   0.284
70763W        W30057   9.272  12.707  11.509
70764W        W30058  24.710   0.794   0.346
70765W        W30059   5.426   5.237   0.864
70766W        W30060  25.685  44.891  14.805
70767W        W30061  20.598   0.326  14.948
70768W        W30062   7.733  29.925  14.401
70769W        W30063  14.663  24.687  11.003
70770W        W30064  13.330  30.154   3.365
70771W        W30065  35.586  38.439   2.396
70772W        W30066   0.466  39.028  13.872
70773W        W30067  25.989   8.232  10.132
70774W        W30068   1.340  21.160  13.814
70775W        W30069  18.660  37.879  10.442
70776W        W30070  37.859  14.123  10.916
70777W        W30071  10.855  13.172   1.925
70778W        W30072   5.393   3.305   1.396
70779W        W30073   8.863  32.984  13.899
70780W        W30074  36.508  14.774   3.383
70781W        W30075   5.210  29.135  11.466
70782W        W30076  43.383  41.454  14.832
70783W        W30077  20.244  27.119  12.848
70784W        W30078  33.916  34.965  10.969
70785W        W30079  36.429   0.754   4.615
70786W        W30080  23.192  13.690  14.486
70787W        W30081  35.855  35.996   3.164
70788W        W30082   5.768  31.499   3.668
70789W        W30083  13.729   9.384  12.898
70790W        W30084   5.872  40.887  14.905
70791W        W30085  39.509  35.911   0.884
70792W        W30086  40.511  43.985  12.886
70793W        W30087  40.421  19.771   2.180
70794W        W30088  23.041   3.950   0.879
70795W        W30089   8.776   1.279   2.399
70796W        W30090  26.151  19.278   4.702
70797W        W30091  34.578  28.984  11.592
70798W        W30092   5.889  44.330   2.179
70799W        W30093  35.077  22.088   2.402
70800W        W30094   2.928  25.481  13.056
70801W        W30095  12.752  44.279   4.780
70802W        W30096  23.201   2.965   0.332
70803W        W30097   1.861   3.401  10.544
70804W        W30098   3.351  16.145  12.361
70805W        W30099   2.398  43.314   3.195
70806W        W30100  15.726  15.784  12.341
70807W        W30101  41.352  33.949   9.584
70808W        W30102  31.566  24.206   1.802
70809W        W30103  41.498  26.032   2.673
70810W        W30104  30.099  37.388   4.123
70811W        W30105  15.241  37.398   3.738
70812W        W30106  32.920  44.395  12.950
70813W        W30107  14.101   9.239   2.182
70814W        W30108   0.763  15.213  10.552
70815W        W30109  20.123  44.502  14.450
70816W        W30110  23.135  13.142  12.433
70817W        W30111   9.269   9.828  13.062
70818W        W30112  21.255  25.983   1.368
70819W        W30113   7.809   5.241   2.746
70820W        W30114   7.253  16.758   3.705
70821W        W30115  42.795  11.237   3.189
70822W        W30116  25.153  18.060   2.881
70823W        W30117  20.662  21.571   5.704
70824W        W30118  41.965   7.678   2.668
70825W        W30119  30.489  40.495  12.948
70826W        W30120  40.465   2.299  11.940
70827W        W30121  24.718  15.714   3.195
70828W        W30122   9.253  36.446   1.444
70829W        W30123  43.856  10.681  11.585
70830W        W30124  44.475  12.155  12.984
70831W        W30125  13.682   3.426  10.522
70832W        W30126   5.408  30.549  11.607
70833W        W30127  18.222  28.016  13.424
70834W        W30128  40.453  36.027   0.888
70835W        W30129   2.411  31.577  13.921
70836W        W30130  21.540   1.767  14.308
70837W        W30131   9.674   0.931  14.964
70838W        W30132   8.841  40.807   3.865
70839W        W30133  17.672   8.242  12.467
70840W        W30134  30.628  13.826   2.705
70841W        W30135  34.419  12.218  13.978
70842W        W30136  43.309   7.194  10.531
70843W        W30137  24.226  15.761   0.746
70844W        W30138  11.631  38.479   0.481
70845W        W30139  37.085  30.151  10.621
70846W        W30140  23.114  18.748   2.825
70847W        W30141  34.981  12.667   2.824
70848W        W30142   0.802   1.882  14.449
70849W        W30143  27.553   3.936  10.639
70850W        W30144  31.020   4.707  10.046
70851W        W30145  32.395  41.960   4.130
70852W        W30146  20.706  16.771   2.828
70853W        W30147  42.964  17.741   0.727
70854W        W30148  11.371  37.081   3.818
70855W        W30149   2.238  35.917  10.536
70856W        W30150  42.871  31.536  12.493
70857W        W30151   9.861  34.448   4.342
70858W        W30152  26.071  44.478   2.331
70859W        W30153  42.368  35.065  14.873
70860W        W30154  29.657  24.080  12.486
70861W        W30155  27.986   2.880   2.733
70862W        W30156  39.868  33.908   4.726
70863W        W30157  33.012  31.986   1.709
70864W        W30158  19.758  43.362  11.957
70865W        W30159  14.639   8.672  12.419
70866W        W30160   7.770   6.892   3.227
70867W        W30161  11.173  23.645   2.728
70868W        W30162  19.268  35.479  14.498
70869W        W30163  30.607  24.048   2.409
70870W        W30164  17.218   6.342  11.016
70871W        W30165  18.684  39.528   3.266
70872W        W30166  27.100  44.773  10.931
70873W        W30167  21.540  40.866   2.851
70874W        W30168  26.487  31.433  13.836
70875W        W30169  22.734  29.596  13.546
70876W        W30170  28.003  15.644  12.351
70877W        W30171  30.005  44.796   3.162
70878W        W30172  35.544   3.722  12.404
70879W        W30173  18.571  11.229   1.213
70880W        W30174  40.897   5.911   3.366
70881W        W30175  41.371  37.508   2.223
70882W        W30176  44.869  15.678   1.424
70883W        W30177   5.698  13.260   1.789
70884W        W30178  33.428  24.544   1.723
70885W        W30179   7.859  10.777  14.814
70886W        W30180  42.312  21.020  12.068
70887W        W30181  23.623   4.341   3.847
70888W        W30182  30.551   1.462   0.370
70889W        W30183  11.832   6.701   4.693
70890W        W30184  23.116  25.490   0.452
70891W        W30185  38.446  30.449  14.976
70892W        W30186  26.459  14.282  10.950
70893W        W30187  23.197  26.666   3.811
70894W        W30188  32.518  20.161   4.636
70895W        W30189  16.635   9.774   1.780
70896W        W30190  12.201   7.893   3.856
70897W        W30191   9.789  40.346   3.776
70898W        W30192  34.422  16.621   4.677
70899W        W30193  28.006  35.886  10.462
70900W        W30194  29.112  13.329  10.467
70901W        W30195  23.579  31.438  11.396
70902W        W30196  37.412  21.569  14.910
70903W        W30197  39.318  19.644  11.980
70904W        W30198  13.136   4.852  10.892
70905W        W30199  43.358  15.326  14.350
70906W        W30200  30.461   0.406  14.900
70907W        W30201  35.926  37.501   5.167
70908W        W30202  33.460  18.788  13.838
70909W        W30203  33.106  22.113  14.758
70910W        W30204  10.148  38.969   1.719
70911W        W30205  30.586  29.102  13.055
70912W        W30206  27.575  19.061   2.364
70913W        W30207  36.385  18.188  13.491
70914W        W30208   4.712  25.070  12.507
70915W        W30209  24.204   0.793   5.098
70916W        W30210  36.427   3.764   4.258
70917W        W30211  23.530   6.862   3.273
70918W        W30212   8.851  20.768  14.476
70919W        W30213  35.449  36.428  12.861
70920W        W30214  17.210   8.689   0.274
70921W        W30215  27.546  38.059   4.256
70922W        W30216  22.055  32.006   4.606
70923W        W30217   4.704   4.938   0.773
70924W        W30218   5.239  44.812   1.225
70925W        W30219  24.986   0.818   4.327
70926W        W30220   1.430  39.484   2.335
70927W        W30221  19.633  34.381   1.330
70928W        W30222  36.400   2.346  12.484
70929W        W30223  10.227  23.127  11.887
70930W        W30224  39.461  38.026  14.894
70931W        W30225  28.527  35.558   0.275
70932W        W30226  44.358  44.905   5.196
70933W        W30227  25.552  33.527  11.939
70934W        W30228  41.887  27.599   0.447
70935W        W30229   9.765  20.258  12.428
70936W        W30230  34.876  27.516  10.889
70937W        W30231  44.802  42.488  13.398
70938W        W30232  30.492   4.794  11.923
70939W        W30233   5.696  34.488  12.349
70940W        W30234   4.879   9.307   1.791
70941W        W30235  17.076  11.299   2.865
70942W        W30236  29.549  14.264  12.034
70943W        W30237   1.472  17.250   1.250
70944W        W30238   6.780  19.181   0.824
70945W        W30239  19.068  41.848   0.843
70946W        W30240  17.556   1.883   0.268
70947W        W30241  13.762  36.350   3.646
70948W        W30242   8.196   7.263   3.852
70949W        W30243  43.443   9.879   4.182
70950W        W30244  21.635  15.685  13.309
70951W        W30245  16.104  10.348   3.192
70952W        W30246  33.590  35.003   0.889
70953W        W30247  44.952  17.631   4.205
70954W        W30248  34.120  35.376   1.307
70955W        W30249   8.193  39.992   3.679
70956W        W30250   7.787  29.434   1.373
70957W        W30251   3.460   2.285  12.877
70958W        W30252   7.689  44.768  14.362
70959W        W30253  16.170  34.398   0.276
70960W        W30254  14.128  18.775  14.397
70961W        W30255   2.751  18.085  13.914
70962W        W30256  23.734  28.523  13.354
70963W        W30257  34.906  32.108  14.375
70964W        W30258  18.051  27.156   0.898
70965W        W30259  17.668   5.889  14.999
70966W        W30260  40.339  30.025  12.851
70967W        W30261  31.468  35.566  13.899
70968W        W30262  11.776   0.974  12.491
70969W        W30263  44.503   0.983  13.912
70970W        W30264  35.441   3.947  14.964
70971W        W30265  29.489  29.938   1.223
70972W        W30266  37.577  32.602  12.912
70973W        W30267  18.579  37.977   4.671
70974W        W30268  25.107  16.178   1.771
70975W        W30269  37.388  11.816  14.976
70976W        W30270  43.384  23.040  13.526
70977W        W30271  30.516  31.611   3.197
70978W        W30272  14.619  17.798  11.031
70979W        W30273  21.060  33.529  13.978
70980W        W30274   4.812  13.758  12.415
70981W        W30275  18.660  12.800  14.860
70982W        W30276  18.150  25.997  10.559
70983W        W30277  28.175   1.891  14.016
70984W        W30278  42.947  27.190   2.368
70985W        W30279   5.714  31.529   4.730
70986W        W30280  41.911   2.963  13.909
70987W        W30281  33.603  15.207  12.896
70988W        W30282   5.222  25.132   4.797
70989W        W30283  23.024  41.376  14.836
70990W        W30284  33.116  17.706   3.295
70991W        W30285  43.341   6.863   4.693
70992W        W30286   2.832   4.334  12.837
70993W        W30287  24.122  24.984  12.424
70994W        W30288  20.256   6.677  10.634
70995W        W30289  42.364  26.194   3.856
70996W        W30290  23.571  34.098  11.126
70997W        W30291   2.874   1.261   4.344
70998W        W30292  28.040  36.369   1.773
70999W        W30293  35.406  21.677   1.928
71000W        W30294   7.358  20.735   2.874
71001W        W30295  35.868  19.760  14.969
71002W        W30296  16.686  21.656   0.839
71003W        W30297  41.846  37.358   3.349
71004W        W30298  21.207  16.232   3.337
71005W        W30299  36.913  31.416  12.842
71006W        W30300  14.245  20.529  14.297
71007W        W30301   3.332  22.678  14.354
71008W        W30302   1.352  31.934  14.392
71009W        W30303  41.898  43.315  11.905
71010W        W30304  32.028  40.026   9.441
71011W        W30305  35.914   9.235  11.072
71012W        W30306  39.366   4.886  13.966
71013W        W30307   9.234   5.705  12.087
71014W        W30308  44.463  33.955   3.847
71015W        W30309  33.933  16.771   3.232
71016W        W30310  36.435  34.495   1.798
71017W        W30311  25.564  13.116  13.812
71018W        W30312   1.910  15.191  13.313
71019W        W30313   0.371  28.999   0.794
71020W        W30314   4.210  32.505   4.322
71021W        W30315  31.587   3.244   0.802
71022W        W30316  44.481  16.222  12.034
71023W        W30317   0.816  33.912   1.906
71024W        W30318  18.118  36.501  14.829
71025W        W30319   3.372  40.492  11.472
71026W        W30320  10.288  30.131  12.387
71027W        W30321  32.409  33.929  13.052
71028W        W30322   6.763  10.263   1.879
71029W        W30323   2.763  31.984   4.797
71030W        W30324  10.651  11.353   0.483
71031W        W30325  23.218  37.019   0.380
71032W        W30326  36.446  37.036  11.445
71033W        W30327  34.881  37.481   2.688
71034W        W30328  39.828  22.650  11.402
71035W        W30329  34.382   0.317   3.252
71036W        W30330  41.836  44.280   2.738
71037W        W30331  24.724  26.665  13.515
71038W        W30332  32.948   3.854  10.915
71039W        W30333  39.898   8.766  12.075
71040W        W30334  12.250  27.669  10.576
71041W        W30335  16.716  35.425   1.723
71042W        W30336  41.379  18.158  14.487
71043W        W30337  31.970  31.901  11.045
71044W        W30338  41.498  23.987  14.900
71045W        W30339   7.304  29.456  13.804
71046W        W30340   1.886  31.543  13.854
71047W        W30341   0.468  27.040   2.884
71048W        W30342  40.971  15.769   1.251
71049W        W30343  10.674  13.755   3.372
71050W        W30344   8.302  15.326   1.933
71051W        W30345  17.714  27.194   2.310
71052W        W30346  33.505  12.649   4.729
71053W        W30347   8.333  37.928   0.450
71054W        W30348   4.343  13.191  11.046
71055W        W30349  44.830  12.167  13.867
71056W        W30350  11.694  39.908  10.486
71057W        W30351  20.047  21.619   4.643
71058W        W30352   6.342  10.787  13.902
71059W        W30353  10.853  42.467   0.275
71060W        W30354  35.874  13.291  13.061
71061W        W30355  31.641  17.067   0.382
71062W        W30356  11.691  13.795   4.261
71063W        W30357  18.279  26.566  10.595
71064W        W30358   2.395  38.571   4.286
71065W        W30359  11.262  44.499  11.386
71066W        W30360  39.514  19.713  13.838
71067W        W30361  22.536  18.677   0.782
71068W        W30362  42.966  35.366   3.677
71069W        W30363  36.556  24.123  14.776
71070W        W30364   9.173  22.702   1.743
71071W        W30365  34.923   5.385  10.105
71072W        W30366  16.792  23.707  12.422
71073W        W30367  12.290  40.822   0.328
71074W        W30368  12.344  25.091  13.043
71075W        W30369  34.010  23.704   1.287
71076W        W30370   2.409  30.995  11.494
71077W        W30371  42.783  41.304  10.062
71078W        W30372   2.444  20.168  13.005
71079W        W30373  19.542   3.837   4.218
71080W        W30374  10.302  14.632   4.790
71081W        W30375  32.529  42.782   2.747
71082W        W30376  11.695  13.644  10.971
71083W        W30377   1.408  37.557   2.329
71084W        W30378  37.034  20.073  12.029
71085W        W30379  13.679  18.098  14.783
71086W        W30380  37.003  41.476   3.854
71087W        W30381  29.946  20.619   4.824
71088W        W30382   3.833  39.522  10.635
71089W        W30383  25.021  40.399  11.014
71090W        W30384   1.862  14.662   1.712
71091W        W30385  15.712  20.220  12.826
71092W        W30386   1.821  42.980   1.905
71093W        W30387   5.868   2.305   4.678
71094W        W30388  10.699  17.746   0.302
71095W        W30389  18.727  12.850   2.816
71096W        W30390  12.651   3.349   0.357
71097W        W30391  43.875  32.513  12.539
71098W        W30392  32.476   9.291  10.452
71099W        W30393  10.784  33.943  11.069
71100W        W30394   8.708  40.319  13.472
71101W        W30395   9.685  16.611   1.423
71102W        W30396   6.677  33.916   4.629
71103W        W30397  36.451  36.022   0.744
71104W        W30398   3.826  41.832   4.623
71105W        W30399  35.543  23.204  10.966
71106W        W30400   5.797  23.582   0.773
71107W        W30401  19.712  16.165  14.284
71108W        W30402  25.157  38.498  14.383
71109W        W30403  39.945  25.077   0.854
71110W        W30404   9.256  44.477  10.014
71111W        W30405  44.997   2.413  14.440
71112W        W30406  31.040  34.471   0.287
71113W        W30407   2.394  19.249  12.449
71114W        W30408  40.873  34.108   9.454
71115W        W30409   5.363  33.397  14.343
71116W        W30410  40.970   0.966   2.345
71117W        W30411  29.998  17.682   0.809
71118W        W30412  38.433   2.314   2.791
71119W        W30413  11.859  40.989   3.671
71120W        W30414  13.820   2.846  13.832
71121W        W30415   4.375   1.373   4.248
71122W        W30416  44.259  43.883  11.874
71123W        W30417  36.047  20.552  11.464
71124W        W30418  14.338  32.591   1.313
71125W        W30419   4.216  23.159   1.799
71126W        W30420  17.643  37.867   2.375
71127W        W30421  43.337  27.465  10.420
71128W        W30422  18.076  33.121   4.168
71129W        W30423  44.505  12.703   4.741
71130W        W30424  27.468  27.640   2.264
71131W        W30425  25.983   7.912  13.966
71132W        W30426  30.569  22.102   4.630
71133W        W30427  14.631   5.890  10.642
71134W        W30428   3.838  16.249  11.453
71135W        W30429  24.627  44.477  11.552
71136W        W30430  12.827  20.203  10.638
71137W        W30431   2.470  37.561   4.351
71138W        W30432  22.081  23.225  12.390
71139W        W30433  16.157   6.230  13.502
71140W        W30434  23.630  27.080  10.618
71141W        W30435   5.380   3.737   3.285
71142W        W30436   2.952  23.601   2.772
71143W        W30437  31.409  18.720   2.884
71144W        W30438  18.634  33.023  14.786
71145W        W30439  31.062   2.873  14.400
71146W        W30440   1.897  27.094  10.973
71147W        W30441  34.078  33.132   3.334
71148W        W30442  30.992  10.226   1.732
71149W        W30443  20.099  41.973   1.442
71150W        W30444  22.626  36.096  10.940
71151W        W30445  29.448  32.470   2.371
71152W        W30446  18.720  24.660  10.992
71153W        W30447  31.923  20.533   0.813
71154W        W30448  39.374  30.119   1.860
71155W        W30449   7.267   8.779  14.391
71156W        W30450  30.586   6.865   4.723
71157W        W30451   2.768  44.384  13.956
71158W        W30452  11.852  29.036  12.380
71159W        W30453   4.204  33.393  11.448
71160W        W30454  28.502  34.598   4.606
71161W        W30455   5.735  38.476   4.263
71162W        W30456  22.597  13.181   0.819
71163W        W30457  39.397  44.327  13.337
71164W        W30458  28.616   6.326   1.406
71165W        W30459   7.228  10.675   4.299
71166W        W30460  43.394  20.765   1.914
71167W        W30461  15.317  29.484  10.409
71168W        W30462   9.295  23.190  14.497
71169W        W30463   4.710  30.127  13.437
71170W        W30464  34.526  32.540  13.813
71171W        W30465  15.814   1.306  12.882
71172W        W30466  22.501  19.722  11.555
71173W        W30467  18.251   4.378  13.439
71174W        W30468  30.626  16.307  14.306
71175W        W30469  20.192  24.075  10.445
71176W        W30470  31.931  38.466   9.543
71177W        W30471  44.345  12.164  14.856
71178W        W30472  33.596  19.546  14.968
71179W        W30473   7.374   6.263   2.253
71180W        W30474  12.350   9.763   1.407
71181W        W30475   2.831  27.662   3.729
71182W        W30476  26.024   3.942   0.367
71183W        W30477   6.337  16.723   4.184
71184W        W30478  43.389  33.881   3.350
71185W        W30479   0.434  13.842   2.696
71186W        W30480  12.621   4.717   2.416
71187W        W30481  38.510  42.782   2.690
71188W        W30482  40.895  27.458  11.082
71189W        W30483  32.052  44.853  14.805
71190W        W30484  17.151  26.150  13.402
71191W        W30485   2.374   0.264  12.505
71192W        W30486  25.027   0.328   2.679
71193W        W30487  18.695  43.500   0.340
71194W        W30488  27.190  29.964  13.897
71195W        W30489  16.783  30.039  12.486
71196W        W30490  25.552   7.805  14.404
71197W        W30491   5.844  15.127  10.987
71198W        W30492  17.725  13.754  11.010
71199W        W30493   9.181  10.837  12.849
71200W        W30494  26.474  44.334   1.335
71201W        W30495   0.887   2.298  11.929
71202W        W30496  12.652  14.624  13.938
71203W        W30497   8.772  36.544   2.735
71204W        W30498  27.985   6.893  13.330
71205W        W30499  43.786  31.906   2.205
71206W        W30500   8.286  34.564  11.391
71207W        W30501  43.277  13.333   2.304
71208W        W30502   1.776  20.624  14.869
71209W        W30503   4.724  25.633   0.753
71210W        W30504  16.318   6.855  14.453
71211W        W30505  41.298  10.651   0.266
71212W        W30506  31.958  13.220   2.355
71213W        W30507   1.854  41.852   4.655
71214W        W30508   3.771  11.657   2.822
71215W        W30509  36.084   0.410   3.729
71216W        W30510  42.889  39.952   0.419
71217W        W30511  17.681  27.619   1.742
71218W        W30512  19.105  14.747  11.935
71219W        W30513   2.893  33.055  10.623
71220W        W30514  17.081  36.047   2.363
71221W        W30515  37.938  42.527  13.831
71222W        W30516  12.263   2.942   0.914
71223W        W30517  23.220  36.883   3.704
71224W        W30518  18.090  40.368   2.383
71225W        W30519  32.945  19.767   0.263
71226W        W30520  10.778   2.924  13.815
71227W        W30521  36.492  27.591  13.922
71228W        W30522  28.461  21.236   0.772
71229W        W30523  39.933   8.351   1.219
71230W        W30524  21.131  38.062  10.502
71231W        W30525   6.724   1.261   3.225
71232W        W30526   6.423  39.390  11.420
71233W        W30527  10.724  12.767   0.252
71234W        W30528   6.805   6.727  11.514
71235W        W30529  20.095  38.476   4.166
71236W        W30530  29.932   3.367   2.761
71237W        W30531  23.672  29.956  14.342
71238W        W30532   3.769  33.081   4.228
71239W        W30533  25.004  22.619   1.760
71240W        W30534   5.310  10.818   3.834
71241W        W30535  12.696  31.580  10.505
71242W        W30536  42.913  41.409   1.383
71243W        W30537  20.106  28.662   1.777
71244W        W30538  32.506  30.626  13.832
71245W        W30539  17.692  35.543   0.319
71246W        W30540   3.325  40.972  10.594
71247W        W30541   1.361  27.678   1.258
71248W        W30542  34.393  15.115   3.316
71249W        W30543   2.833   7.252   4.234
71250W        W30544  37.387   6.418   3.828
71251W        W30545  32.893  25.139   0.967
71252W        W30546  11.686  23.993   4.191
71253W        W30547  16.169  40.418   3.306
71254W        W30548  31.123  18.602   3.282
71255W        W30549  20.669  10.788  10.604
71256W        W30550  25.674  32.486  11.424
71257W        W30551  29.480  37.992  14.806
71258W        W30552  37.925  12.757  10.973
71259W        W30553  41.826  37.463  14.840
71260W        W30554  28.663  29.610  14.388
71261W        W30555  37.523  11.243  11.595
71262W        W30556  28.587  42.808  11.423
71263W        W30557  29.006  22.176   3.852
71264W        W30558  30.580   6.275   4.643
71265W        W30559   6.729  35.488   0.894
71266W        W30560  39.412  29.130  14.827
71267W        W30561  21.174  34.409   2.771
71268W        W30562  35.953   1.407  12.071
71269W        W30563  13.320   3.291   3.697
71270W        W30564  36.434   3.725  14.337
71271W        W30565  15.650   7.393   3.653
71272W        W30566  23.003  28.127   3.295
71273W        W30567   2.433  15.712  10.452
71274W        W30568  26.612  44.956   0.938
71275W        W30569  38.941  17.740   0.296
71276W        W30570   4.739  27.598  13.443
71277W        W30571  29.556  12.706  14.465
71278W        W30572  43.360  30.603   5.216
71279W        W30573  28.126  22.104  14.464
71280W        W30574  36.396  42.030   0.751
71281W        W30575  44.830   2.779  14.509
71282W        W30576  10.782  35.016   4.132
71283W        W30577  29.174  37.501   3.715
71284W        W30578  39.815  13.721   3.371
71285W        W30579   8.248  39.054   4.645
71286W        W30580  39.829  41.981   1.914
71287W        W30581  32.604  40.848   2.357
71288W        W30582   6.205  25.147   3.701
71289W        W30583   7.268  30.482  10.604
71290W        W30584  28.660  32.116   3.819
71291W        W30585  29.069   9.819  11.870
71292W        W30586  32.524  22.220   1.879
71293W        W30587  37.893  10.803  14.907
71294W        W30588   7.349  35.556  13.865
71295W        W30589  16.729   7.279  11.495
71296W        W30590  44.437  19.161  14.963
71297W        W30591  41.876   1.925   9.528
71298W        W30592  28.972  41.917  11.468
71299W        W30593  13.703  23.056   4.184
71300W        W30594  17.697  38.431   2.301
71301W        W30595  24.071  44.269  11.106
71302W        W30596   0.760  15.719   2.865
71303W        W30597  32.912  18.606   4.839
71304W        W30598   5.340  36.928   2.307
71305W        W30599  11.165   5.794  13.532
71306W        W30600   0.360  43.394  11.857
71307W        W30601  29.526  38.535   1.741
71308W        W30602   1.731  29.484  13.515
71309W        W30603  37.014  23.157   4.318
71310W        W30604  28.455  38.009   2.275
71311W        W30605  11.202   6.265   3.740
71312W        W30606  26.597  40.976  13.982
71313W        W30607   7.339  25.108   2.248
71314W        W30608  10.640  18.736   3.746
71315W        W30609   0.470  26.030   3.686
71316W        W30610  17.099  43.865   3.315
71317W        W30611  22.120  12.674   3.320
71318W        W30612   0.288  24.996  13.451
71319W        W30613  23.732   5.927   2.197
71320W        W30614  16.146  15.242  12.955
71321W        W30615  11.281  43.439  14.473
71322W        W30616  15.304  13.763  10.902
71323W        W30617   9.157  22.668   2.836
71324W        W30618  16.678  42.301  11.882
71325W        W30619  11.689  29.530  11.904
71326W        W30620  14.240  40.932  10.971
71327W        W30621  24.079   5.777   0.907
71328W        W30622   2.342  14.794   3.184
71329W        W30623  37.467  44.343   3.794
71330W        W30624  24.135  43.953  12.542
71331W        W30625  33.891  31.151   1.370
71332W        W30626  14.104  39.931  14.355
71333W        W30627  20.146  32.912   3.304
71334W        W30628  36.348  34.371   2.280
71335W        W30629  19.040   9.161   3.272
71336W        W30630   1.389  33.099  11.118
71337W        W30631  44.824  41.402  10.581
71338W        W30632  37.427  41.319   2.714
71339W        W30633  29.591  27.613   0.947
71340W        W30634  35.043   9.884  14.910
71341W        W30635  17.117   9.680  11.393
71342W        W30636  20.620   1.300   2.716
71343W        W30637  31.511   6.246   4.713
71344W        W30638  21.152   9.301  12.943
71345W        W30639  13.278  28.664   1.420
71346W        W30640  17.598  35.441   2.749
71347W        W30641  42.400   3.861  14.428
71348W        W30642  13.736  40.485  12.083
71349W        W30643  39.376   6.704   2.346
71350W        W30644  40.048  19.751   0.749
71351W        W30645  27.688   6.912   2.666
71352W        W30646  19.692   5.242   1.763
71353W        W30647  38.511  15.629   1.786
71354W        W30648  44.780  42.295  10.948
71355W        W30649  24.671  13.800  12.899
71356W        W30650  20.730  20.551   4.677
71357W        W30651   2.428  20.239   4.662
71358W        W30652  40.386  19.776  11.440
71359W        W30653  19.205  16.593   3.762
71360W        W30654   8.758  25.619   4.627
71361W        W30655  44.458  25.690  10.425
71362W        W30656   5.434  31.429   4.174
71363W        W30657  31.410  38.538   3.271
71364W        W30658   5.433   1.875   9.947
71365W        W30659   8.238   8.876  14.913
71366W        W30660  26.180  21.053  13.462
71367W        W30661  18.240   7.889   2.698
71368W        W30662  18.219  15.591  14.358
71369W        W30663  32.619  10.169   3.776
71370W        W30664   4.417   2.830   4.295
71371W        W30665  33.879  43.969   3.377
71372W        W30666  17.069  24.671   1.365
71373W        W30667  24.547  20.747  11.476
71374W        W30668  17.741   0.492   3.329
71375W        W30669   3.872  16.246   0.421
71376W        W30670   4.894  42.883  14.391
71377W        W30671  37.917  24.120  10.084
71378W        W30672   8.884  44.356  11.982
71379W        W30673  23.698  40.455   3.657
71380W        W30674  39.419  19.253   3.228
71381W        W30675  26.105  29.488  11.056
71382W        W30676   5.871   1.311   9.553
71383W        W30677  21.202   4.348   0.384
71384W        W30678  22.560  27.474   1.399
71385W        W30679  23.015  27.010   4.778
71386W        W30680   7.743  22.619   2.251
71387W        W30681  36.976   0.878  13.001
71388W        W30682  32.074  36.498  12.442
71389W        W30683  13.734  30.430   2.899
71390W        W30684  40.442  30.140   0.478
71391W        W30685  19.621  29.118   3.310
71392W        W30686  32.106  44.383   4.776
71393W        W30687  19.616  10.289  14.469
71394W        W30688  28.139  38.868   0.452
71395W        W30689   9.825  40.039   0.364
71396W        W30690  38.532  33.571   0.889
71397W        W30691  12.217  16.747  14.289
71398W        W30692  28.101  36.543   0.879
71399W        W30693   9.242  11.634   3.236
71400W        W30694  21.725  14.234  14.340
71401W        W30695  32.528   6.316   0.735
71402W        W30696  43.805  22.567  14.467
71403W        W30697  42.345  40.854  11.583
71404W        W30698  19.624  43.388   1.758
71405W        W30699  31.097  37.536   3.714
71406W        W30700  23.038  41.931   3.686
71407W        W30701  15.140  40.910   0.477
71408W        W30702  41.011   4.858  12.022
71409W        W30703  39.991  25.617  12.489
71410W        W30704  25.213  25.488   4.800
71411W        W30705  23.071  22.059   3.156
71412W        W30706   8.671  16.188  12.073
71413W        W30707  44.961  20.096   2.766
71414W        W30708   4.398  19.213   3.779
71415W        W30709  36.500  11.333  11.957
71416W        W30710  15.603  34.408  14.818
71417W        W30711  10.241  24.106  10.904
71418W        W30712  26.493  44.366   4.837
71419W        W30713  28.559   1.460   3.383
71420W        W30714  28.941  16.709  11.016
71421W        W30715  35.965  15.814  11.939
71422W        W30716   6.725  18.152   0.475
71423W        W30717  18.247   9.305   3.690
71424W        W30718  14.326  17.186  12.009
71425W        W30719  19.683   2.399   0.351
71426W        W30720  15.733  11.621  10.959
71427W        W30721  31.517   5.705   3.156
71428W        W30722  13.714  28.613  14.871
71429W        W30723  28.939  10.346  14.770
71430W        W30724  40.303  15.146  13.993
71431W        W30725  35.012  43.470  13.873
71432W        W30726   5.202  40.829  11.408
71433W        W30727   7.734   9.357  13.467
71434W        W30728  24.686   2.381   3.818
71435W        W30729  41.476  30.421   1.252
71436W        W30730   6.861  26.566   2.289
71437W        W30731   4.788  20.104   3.374
71438W        W30732  38.483  34.947   0.396
71439W        W30733  16.800  39.553  12.381
71440W        W30734  24.638  24.505   0.923
71441W        W30735   2.942  39.808  12.003
71442W        W30736  20.151   0.824  12.535
71443W        W30737  23.709   1.403   2.223
71444W        W30738  15.789  10.241   3.272
71445W        W30739  42.375  25.138   3.732
71446W        W30740  27.685   6.353  11.102
71447W        W30741  26.592  12.324  14.290
71448W        W30742  21.186  27.631   9.966
71449W        W30743   1.428  27.521   0.484
71450W        W30744  15.134  26.695   0.831
71451W        W30745  14.153  27.689   1.714
71452W        W30746  25.706  16.740  14.910
71453W        W30747  22.650  40.909   4.145
71454W        W30748  31.584   9.303  13.907
71455W        W30749  26.195  41.995   1.755
71456W        W30750  16.781  16.092   0.771
71457W        W30751   6.720   7.217  14.359
71458W        W30752  28.185  37.047   4.169
71459W        W30753  32.022  28.583  13.041
71460W        W30754   4.271  34.889   3.795
71461W        W30755  34.109  10.822  14.388
71462W        W30756   8.868  19.623   1.210
71463W        W30757   6.183  18.762  12.561
71464W        W30758  22.518  22.548   3.276
71465W        W30759  23.135  38.921  12.560
71466W        W30760  10.308  26.588   3.254
71467W        W30761  39.463  26.158   2.891
71468W        W30762  27.127   6.354   2.389
71469W        W30763  10.269  11.214  14.815
71470W        W30764  20.716  40.891   2.695
71471W        W30765  37.347  37.422   9.972
71472W        W30766  37.530  26.615  14.320
71473W        W30767  32.119  17.068  13.815
71474W        W30768   5.759  16.233   4.346
71475W        W30769   6.238  15.587  10.589
71476W        W30770  23.632  34.496  13.871
71477W        W30771  38.040  19.106   3.223
71478W        W30772  13.686  38.437   3.756
71479W        W30773  16.761  29.490  11.005
71480W        W30774  11.158   5.250   0.357
71481W        W30775  35.535  14.128  13.415
71482W        W30776  29.530  18.058  12.473
71483W        W30777  42.017  42.823  12.381
71484W        W30778  40.518  17.231  12.036
71485W        W30779  36.398  35.946   2.820
71486W        W30780   4.247  17.669  12.030
71487W        W30781  33.481  37.522  13.980
71488W        W30782  14.617   5.708   4.342
71489W        W30783  19.634  13.723   2.360
71490W        W30784  10.865  38.349   1.432
71491W        W30785  43.944  32.618  13.857
71492W        W30786  41.916  39.941   3.660
71493W        W30787  31.436  38.517  13.321
71494W        W30788  40.493   9.246  13.985
71495W        W30789   3.220  26.071   4.188
71496W        W30790  41.353  24.125  12.944
71497W        W30791  40.428  13.633  12.505
71498W        W30792  14.126  21.080   1.888
71499W        W30793  16.315  31.523   2.226
71500W        W30794   6.745  20.546  11.562
71501W        W30795  18.200   7.345   2.682
71502W        W30796  38.332  33.018  14.326
71503W        W30797  36.358  21.738  12.558
71504W        W30798  33.458  20.218  10.938
71505W        W30799  30.074  12.621  12.502
71506W        W30800  30.560   8.160  14.473
71507W        W30801  37.363  20.577   2.284
71508W        W30802  24.215  13.315   1.773
71509W        W30803  33.478  13.321   2.188
71510W        W30804  31.967  17.170   3.638
71511W        W30805  29.984  30.123   4.837
71512W        W30806  36.354   8.764  11.896
71513W        W30807  31.595  13.290   0.410
71514W        W30808   6.350  41.938   2.213
71515W        W30809  43.395  26.502   4.119
71516W        W30810  42.803  42.356   3.326
71517W        W30811  17.216  22.132   5.124
71518W        W30812  16.295   5.323  11.860
71519W        W30813  38.468  35.495  14.992
71520W        W30814  29.643  33.029  13.445
71521W        W30815  32.555  21.084  11.445
71522W        W30816  36.042   7.689   3.753
71523W        W30817   1.840  22.618   2.399
71524W        W30818  38.364  38.331   0.459
71525W        W30819  15.156  37.070   1.419
71526W        W30820  36.001  41.940   3.224
71527W        W30821  22.210  31.941  11.891
71528W        W30822  37.886  37.912  10.445
71529W        W30823  13.681  39.957   1.892
71530W        W30824  39.494  24.010  14.958
71531W        W30825  16.288  32.593   4.114
71532W        W30826  34.934  24.196  12.426
71533W        W30827  36.959  26.612   0.847
71534W        W30828   2.388  12.677   0.933
71535W        W30829  44.404  12.322   2.295
71536W        W30830  30.629  24.156   3.718
71537W        W30831  33.919  23.133  10.592
71538W        W30832  32.072   1.292   2.285
71539W        W30833  40.884  18.577   0.399
71540W        W30834   7.320   3.725   5.131
71541W        W30835  27.099  34.495  14.306
71542W        W30836  26.662  28.015  13.433
71543W        W30837   9.223   1.817  12.512
71544W        W30838  26.023  37.987  12.552
71545W        W30839  18.660  33.384   1.758
71546W        W30840   2.470   4.704   4.754
71547W        W30841   0.989  30.557   1.817
71548W        W30842  12.130  13.325  11.075
71549W        W30843   6.353  21.044  14.485
71550W        W30844  44.273  31.069   0.825
71551W        W30845  41.038  12.712   2.792
71552W        W30846  28.007  14.671  14.882
71553W        W30847  26.992   7.778   2.201
71554W        W30848  40.959  15.629   3.865
71555W        W30849  12.275  14.336   2.414
71556W        W30850   4.323  28.534   1.822
71557W        W30851   3.317  41.520  12.933
71558W        W30852  23.046  13.665   2.250
71559W        W30853  12.822  42.949   0.323
71560W        W30854  40.808   0.809  11.899
71561W        W30855  17.572   7.276  13.951
71562W        W30856   5.822  29.610  11.941
71563W        W30857  15.817  31.485   2.207
71564W        W30858  23.645   2.734  12.063
71565W        W30859  33.936  13.798   4.666
71566W        W30860  17.692  31.427   3.800
71567W        W30861  12.307  15.155  13.474
71568W        W30862  43.474  17.174   1.442
71569W        W30863  30.004  10.285   3.844
71570W        W30864   7.728  32.042   9.944
71571W        W30865  10.736  40.920   3.332
71572W        W30866  15.184  34.889   1.889
71573W        W30867  38.440  17.251   0.439
71574W        W30868  13.153  14.283  14.298
71575W        W30869   5.858  24.095  13.823
71576W        W30870   6.416  24.527  13.484
71577W        W30871  11.242  14.690   3.860
71578W        W30872  25.120  42.808  14.791
71579W        W30873  28.098  31.596   4.312
71580W        W30874  33.545  39.870   3.807
71581W        W30875  15.807   6.297   1.240
71582W        W30876  14.249  13.273  13.513
71583W        W30877  12.627   1.878   0.380
71584W        W30878  39.912  27.008  14.822
71585W        W30879  31.505   2.291  11.916
71586W        W30880  29.598  38.407   3.323
71587W        W30881  10.270  22.147  13.309
71588W        W30882  42.382  24.513  11.893
71589W        W30883  37.931  17.145   4.311
71590W        W30884  13.340   0.941   0.789
71591W        W30885  36.495  11.859   0.340
71592W        W30886  35.418  17.614   1.300
71593W        W30887  18.705  22.679  12.363
71594W        W30888  26.177  13.242   2.700
71595W        W30889   7.864  29.437  14.869
71596W        W30890  39.406   3.443   4.648
71597W        W30891  14.664  25.100  13.840
71598W        W30892  40.026  32.489  10.933
71599W        W30893  18.127   0.742  13.840
71600W        W30894  17.566   3.885   1.281
71601W        W30895  15.598  18.190   1.922
71602W        W30896  28.586  11.304  13.860
71603W        W30897  37.021  19.246  11.560
71604W        W30898  32.584  10.366   2.900
71605W        W30899  32.082  13.754   0.800
71606W        W30900  29.424   9.155   2.836
71607W        W30901   4.913  31.577  10.889
71608W        W30902  35.017  43.918  14.892
71609W        W30903   9.769  42.299  14.990
71610W        W30904   0.321  16.215  12.522
71611W        W30905   3.774   6.315  13.906
71612W        W30906  38.890  17.070   3.807
71613W        W30907   7.285  25.488  11.053
71614W        W30908  20.736  14.829   0.252
71615W        W30909   1.389  39.825  10.606
71616W        W30910   3.775  28.162   2.320
71617W        W30911  30.524  16.167   2.283
71618W        W30912   4.334  14.816   3.320
71619W        W30913  21.101  36.586  14.783
71620W        W30914   3.906  32.410   2.873
71621W        W30915  27.041  18.146   2.261
71622W        W30916  30.644  13.193   3.187
71623W        W30917  44.497  15.606  13.403
71624W        W30918   2.378  31.966  10.449
71625W        W30919   9.882  38.930  11.870
71626W        W30920  42.938  14.247  13.915
71627W        W30921  39.880  43.000   1.363
71628W        W30922   3.941  25.013  13.407
71629W        W30923  12.654  24.584  12.443
71630W        W30924  30.052  34.088   0.779
71631W        W30925  14.798  39.000  11.587
71632W        W30926  13.740  37.937   2.195
71633W        W30927  40.895  26.073  14.437
71634W        W30928  22.596  18.591  10.594
71635W        W30929   4.921  41.447   0.939
71636W        W30930  14.241  30.464   2.815
71637W        W30931  17.168   8.385   3.700
71638W        W30932  13.694  39.439   3.671
71639W        W30933  33.565  27.062  10.955
71640W        W30934  16.620  24.694  11.510
71641W        W30935  11.809  24.649   2.837
71642W        W30936   1.760  34.949  13.063
71643W        W30937  23.517   7.255  10.539
71644W        W30938  23.515  18.677   1.835
71645W        W30939  31.620  43.345  11.871
71646W        W30940  29.491  12.633  13.834
71647W        W30941   9.824  24.159   4.708
71648W        W30942  19.543   2.255   2.794
71649W        W30943  31.449  38.876   1.698
71650W        W30944  38.940   3.400   3.230
71651W        W30945  10.237  41.822  11.430
71652W        W30946  41.295  24.703  14.972
71653W        W30947   8.246  24.976  13.496
71654W        W30948  15.268  41.006  13.914
71655W        W30949  23.169   6.874   4.712
71656W        W30950  34.962  34.956   5.239
71657W        W30951  19.124   0.358  11.451
71658W        W30952  38.356  27.980  14.300
71659W        W30953  17.754  23.093   1.219
71660W        W30954   4.799   5.291  10.602
71661W        W30955  10.278  40.029   3.774
71662W        W30956  34.049  21.712   4.602
71663W        W30957  32.982  37.933  12.851
71664W        W30958  34.024  32.471  13.791
71665W        W30959  10.238   9.271   1.799
71666W        W30960  23.648  44.896   4.224
71667W        W30961  43.003  42.419  13.862
71668W        W30962  18.701  21.636  14.882
71669W        W30963  28.029  35.474  11.466
71670W        W30964  17.681  44.349   0.953
71671W        W30965  10.202  22.649  12.464
71672W        W30966   7.348  36.553   5.118
71673W        W30967  14.767   9.249   3.373
71674W        W30968  40.952  31.631  13.824
71675W        W30969  30.117  34.966   2.389
71676W        W30970  28.138  37.947   5.202
71677W        W30971   2.410  18.133   1.351
71678W        W30972  27.522  37.891  12.886
71679W        W30973  31.960  42.476  11.943
71680W        W30974  24.565  30.413  10.418
71681W        W30975  39.444   7.209   9.933
71682W        W30976  34.507  20.697  12.900
71683W        W30977   2.924  28.066  10.527
71684W        W30978   3.244   5.422   3.737
71685W        W30979   5.280   5.906   2.352
71686W        W30980  31.625   0.807  10.444
71687W        W30981  42.879  30.481   0.763
71688W        W30982   4.890  42.899   1.245
71689W        W30983  36.419  29.145  13.975
71690W        W30984  31.482  36.505  12.360
71691W        W30985  29.991  43.345   9.633
71692W        W30986  22.533   0.294  12.974
71693W        W30987  12.757  29.561  13.343
71694W        W30988   9.284  17.709  12.480
71695W        W30989  30.521  35.997   0.254
71696W        W30990  18.753   9.235   0.881
71697W        W30991  13.234  26.114  12.574
71698W        W30992   6.772  24.185  14.405
71699W        W30993  40.929  36.411   1.924
71700W        W30994  39.512  22.007   2.407
71701W        W30995  33.940  41.018   2.222
71702W        W30996  40.035  36.421   2.809
71703W        W30997  21.722  26.119   2.818
71704W        W30998  16.583  20.171   4.626
71705W        W30999  27.654  26.083  12.012
71706W        W31000  32.499  29.485   0.421
71707W        W31001  12.142  28.950  11.402
71708W        W31002   5.342  20.131   2.671
71709W        W31003   1.464  18.094   0.353
71710W        W31004  13.293  25.612   2.677
71711W        W31005  20.262  43.887  14.796
71712W        W31006   8.199   5.247   9.633
71713W        W31007  19.174  37.463  11.382
71714W        W31008   6.809  35.377  14.981
71715W        W31009  41.874  42.483  14.019
71716W        W31010   6.242  16.783   2.706
71717W        W31011  15.222  10.218   2.215
71718W        W31012  31.144  14.295   4.739
71719W        W31013  23.533  29.934   3.708
71720W        W31014   3.808  11.275   2.383
71721W        W31015  16.111  33.074   2.337
71722W        W31016  29.463   9.305  11.520
71723W        W31017   1.468  37.563  14.995
71724W        W31018   9.333  17.734   3.252
71725W        W31019  27.044   8.877  11.963
71726W        W31020  43.332  42.522  13.054
71727W        W31021   0.748  25.101   1.413
71728W        W31022  42.463  17.191   2.772
71729W        W31023  17.065   6.314   4.823
71730W        W31024  29.016  40.460  14.282
71731W        W31025  17.286  31.461   3.797
71732W        W31026   1.291  18.624   4.827
71733W        W31027  30.106  29.076   1.828
71734W        W31028  37.001  39.830  11.513
71735W        W31029  28.974  10.873  12.870
71736W        W31030   4.745  13.155   5.296
71737W        W31031  42.911   5.711  10.142
71738W        W31032  10.718  36.451   3.852
71739W        W31033  40.542   1.792   1.870
71740W        W31034   5.773  36.442  13.421
71741W        W31035  38.371   9.292   4.651
71742W        W31036  33.914   8.717  14.360
71743W        W31037  33.972  21.162   0.771
71744W        W31038  17.209  39.956   2.774
71745W        W31039  13.239   1.397  11.860
71746W        W31040  39.017  23.710   2.215
71747W        W31041   7.404   7.810  11.429
71748W        W31042   9.886   7.700  14.860
71749W        W31043  24.611  11.665   0.411
71750W        W31044   4.743  31.435   1.362
71751W        W31045  30.938  36.844   4.652
71752W        W31046  15.793   6.731   3.302
71753W        W31047   8.383  11.717   2.776
71754W        W31048  10.658   0.989   4.626
71755W        W31049  21.050  34.986  11.073
71756W        W31050  21.073   5.709  13.480
71757W        W31051  35.998  21.086   1.216
71758W        W31052  31.549  29.478  12.056
71759W        W31053  14.833  32.989   0.776
71760W        W31054  24.633  32.488  11.072
71761W        W31055  38.391  14.145   4.738
71762W        W31056   8.774  26.560   0.480
71763W        W31057  36.458  42.877   0.879
71764W        W31058   1.483  17.161  12.836
71765W        W31059  16.248   8.769  11.035
71766W        W31060  17.696  43.815   4.143
71767W        W31061   7.862  26.471   1.731
71768W        W31062  23.567  30.093  13.430
71769W        W31063  12.317  41.891  14.795
71770W        W31064  41.906  41.951  11.586
71771W        W31065  40.366  34.094   3.784
71772W        W31066   7.402  36.949   2.246
71773W        W31067  39.498  29.137  10.986
71774W        W31068   3.755  20.094   0.278
71775W        W31069   2.772  10.632  14.858
71776W        W31070  21.721  40.427  12.446
71777W        W31071  44.993  12.699  11.430
71778W        W31072  20.274   0.822   2.891
71779W        W31073  11.284  17.178  10.981
71780W        W31074  38.534  40.371  12.427
71781W        W31075  17.183  18.741  11.445
71782W        W31076   0.853  14.720  12.861
71783W        W31077  30.489  21.204   4.785
71784W        W31078  30.515  42.492   1.323
71785W        W31079  26.120  29.487   0.913
71786W        W31080  24.548  11.652   1.721
71787W        W31081  29.491  16.647   3.232
71788W        W31082  25.148  16.276  13.794
71789W        W31083  15.222  18.269  13.041
71790W        W31084  21.030  23.232  14.427
71791W        W31085  34.596  17.122   3.284
71792W        W31086   0.760  35.078   3.700
71793W        W31087   5.804  36.925  12.867
71794W        W31088  34.017  32.007   4.760
71795W        W31089  42.983  16.178   0.879
71796W        W31090   5.871  21.733   0.732
71797W        W31091  42.924  18.642  14.021
71798W        W31092   7.860   6.420  11.885
71799W        W31093  34.103   9.744   1.395
71800W        W31094  30.988  36.376  10.550
71801W        W31095   9.274   1.470   0.818
71802W        W31096  18.776  36.445   3.814
71803W        W31097  35.539  24.707  13.449
71804W        W31098  10.378  16.290  10.553
71805W        W31099  28.117  43.821  13.823
71806W        W31100   4.847   5.691   3.662
71807W        W31101  40.417  30.097   1.759
71808W        W31102  22.678  40.312  12.090
71809W        W31103  11.801   9.655  10.575
71810W        W31104  21.071  10.650  11.016
71811W        W31105  32.532   1.775  12.877
71812W        W31106  24.605  35.072  13.469
71813W        W31107  23.216  44.392  14.821
71814W        W31108  24.199  18.181   1.211
71815W        W31109  41.356  41.867   1.759
71816W        W31110  13.309  10.183   4.818
71817W        W31111   4.814   9.701   9.996
71818W        W31112  35.515  40.936   1.386
71819W        W31113  20.758  34.056   2.766
71820W        W31114  27.013   8.673   4.689
71821W        W31115  43.446  21.231   1.835
71822W        W31116  34.552  29.494  11.543
71823W        W31117  17.644  22.677  13.377
71824W        W31118  16.079  26.524  10.892
71825W        W31119  37.983   0.485   2.873
71826W        W31120  27.579  16.276  11.923
71827W        W31121  32.080  24.563  13.412
71828W        W31122  10.314  27.062  13.445
71829W        W31123  37.854  21.757  11.536
71830W        W31124   7.265  11.656   3.162
71831W        W31125  13.817  11.711  10.927
71832W        W31126  19.277   3.888  12.399
71833W        W31127  23.241  12.119  13.478
71834W        W31128   3.746   2.371  11.004
71835W        W31129  31.546   5.828  11.534
71836W        W31130   7.392  41.310  11.468
71837W        W31131  15.130  32.987  11.107
71838W        W31132  30.595   2.231  14.862
71839W        W31133  11.152   1.292  13.357
71840W        W31134   1.313  17.109  14.414
71841W        W31135  34.454  15.194  12.048
71842W        W31136   9.676  26.600  10.619
71843W        W31137  43.987  38.356   4.140
71844W        W31138  40.890   5.203   0.400
71845W        W31139  17.689  11.312   1.883
71846W        W31140   0.868  17.650  11.093
71847W        W31141  10.747  19.535   4.675
71848W        W31142  44.993   5.258  12.384
71849W        W31143  17.106  18.732   1.929
71850W        W31144  43.390   8.824  10.904
71851W        W31145  14.203  40.369  11.479
71852W        W31146  13.839  37.966  14.295
71853W        W31147  25.983  15.289   0.747
71854W        W31148  25.622  15.739  10.530
71855W        W31149  19.585   2.335  13.362
71856W        W31150  15.149  16.798   4.823
71857W        W31151   5.315   9.293   1.249
71858W        W31152  11.337  26.117  14.457
71859W        W31153  38.988  25.706   2.340
71860W        W31154  18.557  12.683   5.249
71861W        W31155  34.943  23.701  10.467
71862W        W31156  41.442  18.129   3.300
71863W        W31157  32.077  30.456   4.178
71864W        W31158  27.643  28.186   1.338
71865W        W31159  15.615  18.712   1.827
71866W        W31160  14.834   4.742  12.054
71867W        W31161  37.433  14.163  11.127
71868W        W31162  21.514  14.110  13.432
71869W        W31163  20.029  38.522   3.278
71870W        W31164  29.540  37.369   1.415
71871W        W31165  16.238  32.088  12.510
71872W        W31166  22.507  43.336  14.277
71873W        W31167   4.309  38.422   4.238
71874W        W31168   4.390  12.250  12.521
71875W        W31169  35.920  17.300   0.293
71876W        W31170  25.031  43.472   3.806
71877W        W31171   1.304  26.966   4.350
71878W        W31172   5.744  25.998   2.759
71879W        W31173  37.954  25.176  10.921
71880W        W31174  37.466  24.046   0.336
71881W        W31175   4.863  13.722   4.271
71882W        W31176  33.495  32.952  12.477
71883W        W31177  22.516  35.074  13.435
71884W        W31178   0.460   4.713   0.771
71885W        W31179  41.461  10.204   5.096
71886W        W31180  13.124  26.183   1.361
71887W        W31181  16.746  24.588   0.307
71888W        W31182  22.161  25.521   1.933
71889W        W31183  37.910  25.102  13.501
71890W        W31184  10.155   2.225  12.050
71891W        W31185  40.471   9.221  13.063
71892W        W31186   6.189  30.466   0.827
71893W        W31187   4.349  29.515   2.833
71894W        W31188  19.179  23.657  10.582
71895W        W31189  43.984  17.757   1.799
71896W        W31190  29.636  37.343   2.306
71897W        W31191  17.796  42.491  10.980
71898W        W31192  36.065  19.732   2.786
71899W        W31193  22.093  19.181  11.472
71900W        W31194  25.036  36.956   3.380
71901W        W31195  44.333  30.554   3.372
71902W        W31196  11.839   4.812  12.995
71903W        W31197  23.496   3.382  11.590
71904W        W31198   6.687  22.517   0.315
71905W        W31199   7.735  38.475   0.418
71906W        W31200  20.568  15.796   0.439
71907W        W31201  41.414  10.641   3.714
71908W        W31202  28.067  24.486   2.269
71909W        W31203   7.392  37.977  13.891
71910W        W31204  26.581  31.035   2.819
71911W        W31205  40.506  36.887   0.967
71912W        W31206  29.083  43.295  11.563
71913W        W31207   1.805  30.487  11.923
71914W        W31208   3.792  37.942   4.197
71915W        W31209   2.425  15.694  11.460
71916W        W31210   0.896   1.423   5.633
71917W        W31211   3.438  18.746   1.830
71918W        W31212  34.000   2.317   2.356
71919W        W31213  10.232  10.364   3.184
71920W        W31214   7.880  19.113   1.273
71921W        W31215   2.402  12.337  14.872
71922W        W31216  16.291  35.397   2.216
71923W        W31217  22.671   2.884  12.353
71924W        W31218  10.265  16.150   2.664
71925W        W31219   5.714  19.213  14.848
71926W        W31220  34.530  19.560  10.427
71927W        W31221  27.566  13.647   4.834
71928W        W31222  18.572  19.077   1.404
71929W        W31223   1.468  39.869   1.717
71930W        W31224   5.713  24.652   5.227
71931W        W31225  43.966  24.712   0.874
71932W        W31226  28.648  34.378  13.929
71933W        W31227   5.280  23.074   0.923
71934W        W31228  26.011  28.099   3.823
71935W        W31229   7.239  32.619  11.095
71936W        W31230  24.149  31.944  13.029
71937W        W31231  24.151  26.127  14.432
71938W        W31232  29.065   5.416   0.308
71939W        W31233  20.131  16.770  14.029
71940W        W31234  42.470  17.242   0.446
71941W        W31235  28.957   5.394   2.773
71942W        W31236  26.163  31.911   4.608
71943W        W31237  10.275  22.133   3.380
71944W        W31238  16.591  41.942  13.353
71945W        W31239   1.926   2.753   1.800
71946W        W31240  33.626  17.211   0.313
71947W        W31241  16.664  27.459  11.474
71948W        W31242  40.923   8.286  11.509
71949W        W31243  22.706  31.466   1.721
71950W        W31244  26.496  23.595  12.960
71951W        W31245  23.123   7.311  10.449
71952W        W31246  26.493  40.322   4.151
71953W        W31247  31.046  40.520   0.842
71954W        W31248  20.644  14.596   2.229
71955W        W31249  38.869   5.881   3.817
71956W        W31250  13.812   2.225  13.364
71957W        W31251  17.149  23.031   1.247
71958W        W31252  32.128  20.699   3.753
71959W        W31253  10.755  10.179   0.430
71960W        W31254  37.870  20.080   2.668
71961W        W31255  26.148  39.337   0.880
71962W        W31256  28.626  30.495  10.461
71963W        W31257  15.131  13.621  11.400
71964W        W31258  10.847  44.440  12.528
71965W        W31259  28.976   1.337   3.785
71966W        W31260  28.585  25.655  12.057
71967W        W31261  15.655   6.385   3.790
71968W        W31262  33.033  34.052  12.016
71969W        W31263   8.350  23.196   3.730
71970W        W31264  17.750  21.152  14.358
71971W        W31265  12.215   5.373  14.845
71972W        W31266   0.885   7.265  10.526
71973W        W31267   2.375  25.509  13.416
71974W        W31268   1.317  41.817  12.491
71975W        W31269  17.117   0.874  13.949
71976W        W31270  36.451  23.523  11.019
71977W        W31271  29.937  27.189  12.894
71978W        W31272  18.641  32.415   1.801
71979W        W31273  24.004  10.377   2.825
71980W        W31274  37.083  20.247   4.598
71981W        W31275  23.997  11.746   2.888
71982W        W31276  17.634  31.130  12.836
71983W        W31277  42.962  36.501  14.991
71984W        W31278  17.719  36.352   3.321
71985W        W31279  20.247  10.850   0.363
71986W        W31280  44.919  24.560  13.989
71987W        W31281  10.844  25.618  12.890
71988W        W31282  27.999  42.005  11.448
71989W        W31283   9.702   1.813   1.352
71990W        W31284  22.698  38.478  12.059
71991W        W31285   2.966  24.584   2.891
71992W        W31286  18.719  30.575  10.031
71993W        W31287  11.325  22.585  11.979
71994W        W31288  35.493   1.443   0.261
71995W        W31289  36.482  28.448   3.314
71996W        W31290  42.026  12.168  13.513
71997W        W31291   6.777  28.525  11.527
71998W        W31292   3.373  39.418  11.904
71999W        W31293  31.631   3.951  12.997
72000W        W31294   4.925  27.486  12.943
72001W        W31295  26.071   8.266  14.889
72002W        W31296  39.931   9.278   3.794
72003W        W31297  15.671  36.007   0.968
72004W        W31298  32.113  37.510  14.508
72005W        W31299  29.937   9.233  12.041
72006W        W31300  18.233  15.151   0.266
72007W        W31301  17.611  44.874   0.756
72008W        W31302   9.664  11.856  14.303
72009W        W31303  41.959  21.169   3.822
72010W        W31304  40.921  20.751  11.402
72011W        W31305  32.930  35.502   3.263
72012W        W31306  11.279  17.657  10.983
72013W        W31307  16.641  33.526  10.541
72014W        W31308   6.720  44.479  10.507
72015W        W31309  16.279  20.669  13.947
72016W        W31310  14.736  41.036  14.971
72017W        W31311   2.448   2.332   9.539
72018W        W31312  25.989  39.976   4.265
72019W        W31313   6.697  27.686  12.411
72020W        W31314  30.578  16.792   1.268
72021W        W31315  33.085  39.475  11.050
72022W        W31316  12.690  27.967  10.455
72023W        W31317  19.229  40.342   2.362
72024W        W31318  24.147  13.283   2.195
72025W        W31319   6.879  17.558   4.245
72026W        W31320  20.678  36.858   0.870
72027W        W31321  32.601  44.320  13.401
72028W        W31322  27.685  34.432  13.450
72029W        W31323   2.912  27.489  10.406
72030W        W31324  36.545  44.410   2.764
72031W        W31325  11.202   9.238  13.466
72032W        W31326   8.698  15.085   0.777
72033W        W31327  21.201   0.750   1.283
72034W        W31328  19.669  19.705   5.183
72035W        W31329  24.147  16.599  13.474
72036W        W31330  42.944  44.951   3.862
72037W        W31331  16.115   9.846   4.354
72038W        W31332   0.879  41.869   2.707
72039W        W31333  33.985  24.675   4.626
72040W        W31334  33.524   0.366   0.929
72041W        W31335  32.085  15.758   0.755
72042W        W31336   6.879  16.134  12.893
72043W        W31337  30.437  21.521   1.775
72044W        W31338  20.539  13.249  13.308
72045W        W31339  28.116  21.251  13.023
72046W        W31340  38.479   8.695   4.115
72047W        W31341  41.787  35.382   4.281
72048W        W31342  29.925  31.014  12.844
72049W        W31343  24.596  33.051   1.289
72050W        W31344   8.357  39.558  11.393
72051W        W31345  24.661  32.503   2.349
72052W        W31346  26.972   4.214   2.260
72053W        W31347   5.325  25.111  14.876
72054W        W31348  30.454   6.877  14.895
72055W        W31349  14.145  10.672   4.130
72056W        W31350  20.130   7.304   4.620
72057W        W31351  36.588  17.767   1.840
72058W        W31352  34.507  42.777   2.844
72059W        W31353  34.436  20.619   3.282
72060W        W31354   9.735   8.800   0.444
72061W        W31355  16.188  41.352  13.030
72062W        W31356  26.474  22.556  13.044
72063W        W31357  43.922  30.982  13.515
72064W        W31358  17.188  37.486  11.548
72065W        W31359  37.877  37.004   1.270
72066W        W31360   4.938  42.377   4.270
72067W        W31361  23.649  43.400   4.266
72068W        W31362   2.822  19.074   9.554
72069W        W31363   5.789   0.833  13.868
72070W        W31364  38.400  29.558  12.882
72071W        W31365  20.207  15.314   3.781
72072W        W31366   5.384  26.993   3.384
72073W        W31367   1.374  30.453   0.403
72074W        W31368  43.282  24.049   1.701
72075W        W31369  31.502  14.330  10.406
72076W        W31370   6.419  23.565   1.344
72077W        W31371   1.251  11.714  14.472
72078W        W31372  24.623  13.248  13.497
72079W        W31373   2.448  33.578   2.900
72080W        W31374  15.719  11.348  12.955
72081W        W31375  43.450   4.910   1.733
72082W        W31376  44.417  44.008   2.263
72083W        W31377   0.855  35.018  10.547
72084W        W31378  36.517  39.496   2.884
72085W        W31379  44.877  21.589  14.501
72086W        W31380  33.496  21.227  13.371
72087W        W31381  10.226  12.619  10.556
72088W        W31382  36.080  27.057   3.156
72089W        W31383  27.561  15.679  10.982
72090W        W31384  19.245  20.244   9.487
72091W        W31385  41.869   4.756  10.101
72092W        W31386  12.184  16.166  14.432
72093W        W31387  13.614   1.460   2.184
72094W        W31388   3.310  36.041   0.906
72095W        W31389  20.754  30.454  14.447
72096W        W31390  29.123  12.628   3.315
72097W        W31391   2.350  34.504   2.785
72098W        W31392  30.586  12.618  12.069
72099W        W31393  27.949  43.500   1.234
72100W        W31394  19.111  24.029   2.390
72101W        W31395  10.861   7.324   1.445
72102W        W31396  18.609  16.224   1.853
72103W        W31397  13.291  39.396  13.308
72104W        W31398  37.935  34.395   0.817
72105W        W31399   5.279  40.411   0.338
72106W        W31400  40.368  11.288  14.879
72107W        W31401  21.726   4.719  13.801
72108W        W31402   8.692  39.447   0.445
72109W        W31403  30.607  31.905  14.899
72110W        W31404  14.719  30.147   3.149
72111W        W31405  38.030   2.893   3.679
72112W        W31406  31.412   3.946  11.495
72113W        W31407  23.039   1.406   3.674
72114W        W31408   1.857  22.253   1.915
72115W        W31409  18.091  25.042   4.799
72116W        W31410   8.779  23.187   0.755
72117W        W31411  24.101  39.014   5.172
72118W        W31412   5.242  10.738   4.737
72119W        W31413   3.889  28.036   0.745
72120W        W31414  43.812  25.524  12.872
72121W        W31415   8.766  18.261  11.008
72122W        W31416  14.594  20.240  14.499
72123W        W31417  28.490  27.558   3.721
72124W        W31418  22.697  15.239  14.929
72125W        W31419  17.095  39.009   3.199
72126W        W31420  12.314  21.166   1.809
72127W        W31421  34.969  14.185  10.004
72128W        W31422  22.669  29.011   3.762
72129W        W31423   8.765   4.885   1.823
72130W        W31424  36.477  22.661  10.456
72131W        W31425  12.117  10.377   3.815
72132W        W31426  17.773  34.001   4.355
72133W        W31427   6.292  13.335  14.433
72134W        W31428  41.465  23.522  12.390
72135W        W31429  30.468  21.695  13.504
72136W        W31430   7.718  16.651   3.377
72137W        W31431   4.315  17.631  14.891
72138W        W31432  43.466   7.350   1.809
72139W        W31433  26.599   7.197  14.968
72140W        W31434  31.643   9.866   1.733
72141W        W31435  43.349   0.828  12.454
72142W        W31436   7.257  28.160   2.717
72143W        W31437   6.864   5.773   0.957
72144W        W31438  31.528   2.408  14.323
72145W        W31439  40.814  38.821  11.035
72146W        W31440   2.268   0.766  10.557
72147W        W31441  41.363  10.295  12.923
72148W        W31442  28.012  17.662   4.770
72149W        W31443  16.077  42.306  13.317
72150W        W31444  26.527  28.012   4.838
72151W        W31445  26.009   0.858   3.835
72152W        W31446  34.406   2.365  14.764
72153W        W31447  22.153  17.684   2.225
72154W        W31448   2.881  39.041  11.995
72155W        W31449   6.718  10.185  13.966
72156W        W31450  13.117  22.573  12.079
72157W        W31451  22.027  37.505   2.865
72158W        W31452  24.560  31.542   0.805
72159W        W31453  19.280  19.679   1.309
72160W        W31454  17.292  34.465   2.353
72161W        W31455  42.470  44.761  10.912
72162W        W31456  10.812  32.579   0.335
72163W        W31457  14.160  27.197   1.425
72164W        W31458  22.737  36.921   4.835
72165W        W31459  12.174   8.382   2.203
72166W        W31460   0.459  29.669  10.534
72167W        W31461   7.704   7.714  13.382
72168W        W31462  17.596  40.910   0.458
72169W        W31463  11.150   6.396   4.185
72170W        W31464  20.699  32.464   3.260
72171W        W31465  32.061  42.962  10.411
72172W        W31466  17.731  11.839  14.006
72173W        W31467   6.199  31.153   4.285
72174W        W31468  44.441  15.643  14.462
72175W        W31469   5.380  29.929   4.837
72176W        W31470  41.944  31.625   4.243
72177W        W31471  30.444  42.919  13.000
72178W        W31472  18.226   5.781   0.932
72179W        W31473  36.417  26.144  13.986
72180W        W31474  14.668  28.975   4.245
72181W        W31475  34.421  31.428   4.615
72182W        W31476  20.696  23.500  10.919
72183W        W31477  37.953  33.047   5.620
72184W        W31478  41.334  11.237   2.757
72185W        W31479  18.623   1.971   1.751
72186W        W31480   3.434  22.587   0.960
72187W        W31481  36.569  35.091  13.423
72188W        W31482  15.089   5.926   1.838
72189W        W31483  20.044  20.660   4.121
72190W        W31484  37.553  27.474   2.768
72191W        W31485   2.462   0.745  14.961
72192W        W31486  18.127  38.354   1.260
72193W        W31487  15.818  19.608   0.748
72194W        W31488  32.465  31.066   4.177
72195W        W31489  23.682  17.251   1.925
72196W        W31490  25.086   6.244  13.377
72197W        W31491  38.402   7.363  11.917
72198W        W31492  40.500   2.375   3.672
72199W        W31493  13.287  28.037   3.326
72200W        W31494  16.772  44.991  14.795
72201W        W31495   3.345  34.024   0.821
72202W        W31496   4.806  23.538   2.287
72203W        W31497   1.895  15.203   1.798
72204W        W31498  31.918  34.033  11.474
72205W        W31499  27.572  20.758   3.370
72206W        W31500  18.690  20.149   0.884
72207W        W31501  17.092  22.248   1.239
72208W        W31502  16.145  25.085  14.282
72209W        W31503  10.322  16.269   2.386
72210W        W31504  33.585  10.827   4.350
72211W        W31505  21.727  21.203   1.786
72212W        W31506  22.248  14.631  11.941
72213W        W31507  32.457  17.254   4.227
72214W        W31508  39.860  14.327   4.707
72215W        W31509   0.326  10.167  14.323
72216W        W31510  10.165   8.719   4.759
72217W        W31511  27.108   9.293  14.402
72218W        W31512  39.394  31.452   1.212
72219W        W31513  20.063  24.043  13.440
72220W        W31514  29.484  43.354   3.684
72221W        W31515  37.363   4.246   2.368
72222W        W31516  44.806  25.659  11.009
72223W        W31517  15.814  25.469  12.380
72224W        W31518  20.036  31.453   0.964
72225W        W31519  22.083   3.847   0.936
72226W        W31520  43.487  29.977   0.382
72227W        W31521  38.558   5.875  14.016
72228W        W31522  34.872   1.909   3.767
72229W        W31523  22.136  44.883   0.755
72230W        W31524   8.301  15.808  12.850
72231W        W31525  12.248  44.955   2.263
72232W        W31526  44.824  32.891   2.811
72233W        W31527  15.677  11.242  10.611
72234W        W31528   8.285   9.729  12.349
72235W        W31529  27.004  23.699  11.603
72236W        W31530  43.421   9.296   0.345
72237W        W31531  17.273  41.933  13.436
72238W        W31532   6.311  25.033   1.905
72239W        W31533  28.167   7.231   0.927
72240W        W31534  24.053  35.927   0.254
72241W        W31535  35.865  39.043  12.424
72242W        W31536  14.231   4.215   2.192
72243W        W31537  43.848  14.107   0.296
72244W        W31538  10.817  28.554  11.570
72245W        W31539   5.328  25.029   1.737
72246W        W31540  18.223  19.220  10.430
72247W        W31541  21.695  23.087   3.647
72248W        W31542  41.393  27.100  14.020
72249W        W31543  29.169  35.592  14.278
72250W        W31544  32.129  31.019  13.960
72251W        W31545   7.212   4.726   1.723
72252W        W31546  27.950  38.073   4.694
72253W        W31547  18.127  29.660  11.893
72254W        W31548  44.375  23.642   0.392
72255W        W31549   6.682  16.303  12.044
72256W        W31550  31.562   9.284  14.867
72257W        W31551  13.688  13.229  10.957
72258W        W31552  33.017  42.959  14.988
72259W        W31553  34.548  39.984   3.854
72260W        W31554  20.616   6.367   3.656
72261W        W31555  34.414   7.245  11.036
72262W        W31556  11.760   4.290  10.474
72263W        W31557   0.455  33.528  12.985
72264W        W31558  21.755  29.547   3.297
72265W        W31559  12.146  34.007  10.052
72266W        W31560  36.038  29.664  10.567
72267W        W31561   7.173  35.490   4.813
72268W        W31562  41.360  25.147   2.729
72269W        W31563  24.591  31.927  11.384
72270W        W31564  39.395  20.174  10.539
72271W        W31565  15.805  10.282   3.707
72272W        W31566   5.848  27.455  12.986
72273W        W31567  23.174  13.132   2.331
72274W        W31568   3.384  30.077   2.264
72275W        W31569   0.290   1.878   4.324
72276W        W31570  27.020  32.443   4.621
72277W        W31571   1.321  10.250   3.706
72278W        W31572  39.044  15.760  13.525
72279W        W31573   4.901  29.008  14.766
72280W        W31574  18.181  32.422   2.752
72281W        W31575  40.894  40.899   0.299
72282W        W31576  21.187  13.606   1.342
72283W        W31577  40.512  27.107   2.334
72284W        W31578  42.462  31.083   1.863
72285W        W31579   7.843  20.690   1.815
72286W        W31580  13.821  35.956   4.617
72287W        W31581  22.248  13.610  12.828
72288W        W31582   1.384  19.108  12.999
72289W        W31583  13.143   9.721  11.071
72290W        W31584  40.386  42.935  10.998
72291W        W31585  27.602  29.005  11.606
72292W        W31586  29.433  19.572   1.442
72293W        W31587  44.336  18.663  14.811
72294W        W31588  38.832  11.209  12.903
72295W        W31589  35.361  12.702   0.267
72296W        W31590  41.981  29.008   4.679
72297W        W31591  37.031   1.242   1.219
72298W        W31592  41.451   3.771  11.474
72299W        W31593  41.507   2.293  12.960
72300W        W31594   8.185  32.000   0.742
72301W        W31595   1.368   0.313   4.133
72302W        W31596  23.507  37.392   4.248
72303W        W31597   3.796  18.057  10.134
72304W        W31598  43.836  40.034   3.735
72305W        W31599  44.283  13.209  11.887
72306W        W31600  37.068  30.944  14.783
72307W        W31601  11.773  23.107  11.873
72308W        W31602  25.214  38.872  12.378
72309W        W31603  14.284  44.497   4.633
72310W        W31604  34.056  12.857  14.278
72311W        W31605  15.623  13.308   0.912
72312W        W31606  39.908  27.988  14.302
72313W        W31607   1.858  36.025  14.458
72314W        W31608  18.120   1.874  14.402
72315W        W31609   5.780  44.451  13.799
72316W        W31610  34.606  35.033  12.370
72317W        W31611  36.577  14.264  12.073
72318W        W31612  16.224  30.561  14.850
72319W        W31613  42.958  24.506   4.214
72320W        W31614  38.503   6.776   3.185
72321W        W31615  29.106  12.145   4.307
72322W        W31616  14.719  26.575  11.543
72323W        W31617  24.636  35.898   0.337
72324W        W31618  43.908  10.364   2.714
72325W        W31619  16.778  33.462   0.752
72326W        W31620   9.317  22.562   3.239
72327W        W31621  31.627  26.585   3.295
72328W        W31622  44.810  37.521  14.890
72329W        W31623  18.564   3.370   4.281
72330W        W31624  26.519  31.508   0.468
72331W        W31625  30.024   9.316   3.786
72332W        W31626  30.536  35.909  11.419
72333W        W31627  36.450  25.521   1.860
72334W        W31628  19.159  13.212  12.823
72335W        W31629  15.744  17.624  12.904
72336W        W31630  24.195  21.144   2.673
72337W        W31631  30.478  32.424  14.898
72338W        W31632  40.333  42.341  14.317
72339W        W31633   5.908   1.402   5.615
72340W        W31634  18.727   5.328  13.807
72341W        W31635  10.199  13.845   0.456
72342W        W31636  17.577   6.879   1.386
72343W        W31637   7.193  43.372   3.674
72344W        W31638   4.738  20.105  14.944
72345W        W31639  19.622  43.400   1.328
72346W        W31640  27.510  20.222   2.733
72347W        W31641  24.076   9.322   2.773
72348W        W31642  23.225  32.908  10.631
72349W        W31643  12.618  30.103  10.996
72350W        W31644   7.700  42.513   3.757
72351W        W31645  25.485   0.274   3.379
72352W        W31646  30.920  22.217   4.248
72353W        W31647  17.580  25.697   3.635
72354W        W31648  29.518   1.787  13.841
72355W        W31649  10.235  22.077  10.891
72356W        W31650  18.158  33.031  13.448
72357W        W31651  24.617  16.319   1.742
72358W        W31652  17.206   8.679   0.918
72359W        W31653  20.757  17.633  12.968
72360W        W31654  30.098  35.926  12.966
72361W        W31655  25.633  23.606  10.544
72362W        W31656  17.647  39.856  11.610
72363W        W31657  29.925   4.426  10.939
72364W        W31658  22.698  41.988  13.903
72365W        W31659   3.365   3.366   2.195
72366W        W31660  39.490  14.151  12.960
72367W        W31661  43.876  14.590   4.225
72368W        W31662  14.248  36.891  10.595
72369W        W31663  30.115   0.424   2.771
72370W        W31664   7.847   7.874   0.406
72371W        W31665   1.820  30.160  12.466
72372W        W31666  35.056  40.348   4.688
72373W        W31667  12.796  26.531   5.083
72374W        W31668  13.652  10.306   1.932
72375W        W31669  40.836  17.570  13.849
72376W        W31670  26.959   0.294  10.556
72377W        W31671  30.509  10.794   3.823
72378W        W31672   8.355  30.052  13.406
72379W        W31673   1.924  36.399   3.818
72380W        W31674   1.864  30.144   4.789
72381W        W31675  41.388   4.710   1.838
72382W        W31676   3.867  19.229   1.790
72383W        W31677  27.020  31.140  12.569
72384W        W31678  40.992  30.961  13.473
72385W        W31679  12.720  13.349   2.757
72386W        W31680   3.941  44.889  14.825
72387W        W31681  24.724  14.725   1.387
72388W        W31682  16.234   7.358  13.907
72389W        W31683  42.015  31.563  12.496
72390W        W31684  10.180  32.014   3.340
72391W        W31685  13.192  11.843  10.903
72392W        W31686  27.547  39.963  11.924
72393W        W31687   5.302  38.827   1.322
72394W        W31688  10.244  44.817   1.850
72395W        W31689  26.170  19.709  12.981
72396W        W31690  36.005  20.643  13.820
72397W        W31691  36.514  14.733  14.933
72398W        W31692  35.019  44.803   0.464
72399W        W31693  24.097   1.396   2.298
72400W        W31694  26.628  42.954  14.904
72401W        W31695  35.985  44.445   3.774
72402W        W31696  16.618  22.657   5.316
72403W        W31697  33.024  13.743  13.943
72404W        W31698  15.820  29.100   2.306
72405W        W31699   2.301  18.556   3.346
72406W        W31700   8.319  13.845   4.167
72407W        W31701  11.193  13.165   0.823
72408W        W31702  15.674  24.534  12.010
72409W        W31703  30.510  31.071  11.949
72410W        W31704  18.089  18.074  13.816
72411W        W31705  19.196  29.137   3.837
72412W        W31706   0.792  42.494  11.562
72413W        W31707  44.005  18.564  14.773
72414W        W31708   8.733  38.429   1.763
72415W        W31709   3.221   6.350   3.722
72416W        W31710   3.308   9.164   5.279
72417W        W31711  11.773  15.591   3.780
72418W        W31712  23.186   9.303  13.373
72419W        W31713  33.464  16.132   3.383
72420W        W31714  24.071  25.081   3.251
72421W        W31715   7.227  21.257   0.894
72422W        W31716  20.597  17.297   4.178
72423W        W31717   9.644  16.166  11.576
72424W        W31718  23.521  11.660   4.751
72425W        W31719  34.388  39.006  14.321
72426W        W31720  37.024  17.618  13.485
72427W        W31721  16.734  38.983   0.295
72428W        W31722  39.933  14.738   0.883
72429W        W31723  18.696  30.531   0.295
72430W        W31724  36.513   0.466   1.907
72431W        W31725  36.892   2.839  10.568
72432W        W31726   2.244  27.174   3.661
72433W        W31727  26.591   1.828  11.938
72434W        W31728  43.435   9.365   0.849
72435W        W31729   7.768   1.479  12.359
72436W        W31730  25.048   1.893   3.189
72437W        W31731  10.196  41.323  13.491
72438W        W31732  10.287  11.745   0.290
72439W        W31733  16.617  40.000  10.636
72440W        W31734  31.088  10.789  11.992
72441W        W31735  38.006   3.742   1.212
72442W        W31736  42.997  16.734   4.209
72443W        W31737   0.927  32.398   2.850
72444W        W31738  22.092  16.643  14.362
72445W        W31739  23.699   8.386  11.893
72446W        W31740  35.884  25.709   2.836
72447W        W31741   1.817  27.119   2.835
72448W        W31742  32.124  32.920   4.662
72449W        W31743  34.475   1.388  12.975
72450W        W31744  43.861  28.058   1.213
72451W        W31745  16.743  39.848   0.731
72452W        W31746  41.976  38.927  10.456
72453W        W31747  42.820  31.064  12.567
72454W        W31748  35.419  41.318  14.432
72455W        W31749   7.704  17.209  10.107
72456W        W31750  28.183  40.383  12.366
72457W        W31751  44.763  15.599  14.450
72458W        W31752  17.126  31.060   1.285
72459W        W31753  10.276  27.045   5.182
72460W        W31754  18.168  37.883  11.044
72461W        W31755  19.208   1.258  12.091
72462W        W31756  12.728  26.113   3.173
72463W        W31757  31.031   4.795   0.778
72464W        W31758  31.434   7.738  14.308
72465W        W31759   6.817  12.818   0.425
72466W        W31760  15.792   4.829   0.256
72467W        W31761  37.443  20.661   3.175
72468W        W31762  15.651  38.332   1.398
72469W        W31763  26.625  18.118  14.389
72470W        W31764  15.740  38.418   3.207
72471W        W31765  11.179  13.260  12.365
72472W        W31766  44.940  19.543  14.375
72473W        W31767  39.894   2.450  13.323
72474W        W31768  35.965   8.789  14.026
72475W        W31769  38.034  23.570  10.965
72476W        W31770  27.461  30.021   4.677
72477W        W31771  43.895  30.914  14.483
72478W        W31772   8.178  37.012  13.012
72479W        W31773  42.387  28.490   4.779
72480W        W31774   8.391  34.479   1.777
72481W        W31775  39.031  21.093  11.513
72482W        W31776  39.497  31.937  12.846
72483W        W31777  24.122  13.328  11.122
72484W        W31778   0.813  38.042  11.521
72485W        W31779  23.187  40.549   2.787
72486W        W31780  26.066  23.525  10.970
72487W        W31781   3.779  31.510  13.972
72488W        W31782  11.769  31.075   3.685
72489W        W31783  10.313  38.861  14.363
72490W        W31784   4.333  34.901   1.435
72491W        W31785  41.985   2.757  12.045
72492W        W31786  42.953   8.804  10.096
72493W        W31787  20.043  10.654  13.532
72494W        W31788  11.129  15.120   4.770
72495W        W31789  44.923  29.136  10.964
72496W        W31790  33.490   6.251  13.355
72497W        W31791  26.462   2.752  11.469
72498W        W31792  26.172  20.572  11.993
72499W        W31793  10.211  11.233   1.774
72500W        W31794   6.786  43.768   9.519
72501W        W31795   0.337   3.854  11.527
72502W        W31796   2.346  31.116  13.967
72503W        W31797   8.167  40.519   3.237
72504W        W31798  43.478  31.941  13.329
72505W        W31799  32.932  21.026   0.419
72506W        W31800  42.483  23.993   3.753
72507W        W31801  26.207  26.032   0.774
72508W        W31802   4.750  41.862  13.894
72509W        W31803  16.574  18.124  11.535
72510W        W31804  33.551   5.709  12.550
72511W        W31805  39.968  44.974   1.802
72512W        W31806  14.138  41.527  14.760
72513W        W31807  39.386  35.534   1.843
72514W        W31808  34.930   1.418   1.913
72515W        W31809   5.312  20.726   1.739
72516W        W31810  34.008  23.623  11.575
72517W        W31811   4.208  27.125   0.941
72518W        W31812  21.086  13.713   1.867
72519W        W31813  38.072  25.092   2.359
72520W        W31814  37.839   1.478  14.987
72521W        W31815  23.597  13.166  10.583
72522W        W31816   4.370  27.150  13.359
72523W        W31817   3.952  38.821  10.083
72524W        W31818  37.961   0.359  11.548
72525W        W31819  42.894   8.201   1.376
72526W        W31820  24.082  27.130  12.860
72527W        W31821  27.139  28.142   1.934
72528W        W31822   3.875  11.253  12.947
72529W        W31823  13.115  29.991  11.941
72530W        W31824  29.445  22.575  14.326
72531W        W31825  19.674  12.780  10.511
72532W        W31826  22.590  35.565  14.281
72533W        W31827  41.887  20.572  13.440
72534W        W31828  23.090  21.204  10.447
72535W        W31829  43.976  24.503  10.528
72536W        W31830  27.026   7.381   4.644
72537W        W31831  15.765  16.193  14.760
72538W        W31832  38.405  21.522   3.209
72539W        W31833  17.222  34.920   0.928
72540W        W31834  28.616  29.964   0.459
72541W        W31835  28.055  23.104   1.711
72542W        W31836   9.259  27.049   2.182
72543W        W31837  20.155  13.336   4.838
72544W        W31838  29.015  42.855   4.622
72545W        W31839  19.247   5.857  11.539
72546W        W31840   4.874  23.067   2.712
72547W        W31841  29.064  20.165   4.832
72548W        W31842  30.434  15.622  11.397
72549W        W31843  32.097  44.967   0.774
72550W        W31844  41.904  22.591  10.465
72551W        W31845   9.777  32.500   4.291
72552W        W31846  21.562  19.606   0.251
72553W        W31847  36.017   2.270   4.346
72554W        W31848  27.154  21.706  11.003
72555W        W31849  21.209   2.801   0.755
72556W        W31850  11.860  12.643  10.046
72557W        W31851  43.866  26.198  10.526
72558W        W31852   7.208  39.541  12.038
72559W        W31853   0.974  42.521   1.243
72560W        W31854   7.386   3.338  13.859
72561W        W31855  35.402  17.744   3.834
72562W        W31856  40.868  37.017  11.393
72563W        W31857  13.608  10.176  11.496
72564W        W31858  33.531  26.681  13.366
72565W        W31859  10.865  40.042   0.837
72566W        W31860  21.101   0.897   3.235
72567W        W31861   1.400  36.065   4.174
72568W        W31862  42.472   5.790   1.703
72569W        W31863   2.285  41.296   4.246
72570W        W31864  20.538  34.004  12.508
72571W        W31865  18.052  38.327   0.254
72572W        W31866   9.261  12.140   0.256
72573W        W31867   3.923  20.135   2.697
72574W        W31868  10.356  17.172   5.199
72575W        W31869  32.109  39.460   3.859
72576W        W31870  36.953  39.385  12.841
72577W        W31871  38.375  13.197   0.928
72578W        W31872   5.784  37.962   1.252
72579W        W31873   8.198  36.859   0.729
72580W        W31874  34.595  40.422   4.333
72581W        W31875  34.113   6.733   0.889
72582W        W31876   6.321   0.744  14.433
72583W        W31877   9.240  43.358  11.866
72584W        W31878  10.332   2.325  13.844
72585W        W31879  31.075  33.484  12.537
72586W        W31880  31.006  26.123   4.597
72587W        W31881  40.015  19.207   0.817
72588W        W31882  17.146  36.416  12.376
72589W        W31883  35.547  10.690   1.756
72590W        W31884  37.994  31.407   4.339
72591W        W31885  33.918  34.516   3.656
72592W        W31886   0.465  34.022   4.628
72593W        W31887  36.466  40.917   0.793
72594W        W31888  14.194  16.159  14.392
72595W        W31889  32.951  16.277  10.570
72596W        W31890  13.321  25.496   1.441
72597W        W31891  24.047  22.526   0.389
72598W        W31892  22.154  11.678   0.325
72599W        W31893  33.604  11.687  11.556
72600W        W31894  35.056  25.163   1.875
72601W        W31895   1.421  16.640   4.653
72602W        W31896  35.382  14.591  13.366
72603W        W31897   9.740  20.155  14.317
72604W        W31898  32.621  23.712  13.038
72605W        W31899  22.672  25.484   2.874
72606W        W31900  11.826  21.216  11.031
72607W        W31901  40.001   6.405   3.186
72608W        W31902  44.832  26.186   0.816
72609W        W31903   2.282  12.163  11.506
72610W        W31904  24.226  20.183  12.424
72611W        W31905   3.437  23.098   0.731
72612W        W31906  14.788  30.502  12.564
72613W        W31907   5.751   7.795  14.443
72614W        W31908   5.889  17.116  12.905
72615W        W31909  32.090  23.214   3.841
72616W        W31910  42.019  17.160   4.705
72617W        W31911   9.765  36.404  14.407
72618W        W31912  28.469   0.274  14.781
72619W        W31913  31.993  12.344  10.558
72620W        W31914  37.070  17.752   2.886
72621W        W31915  20.598  44.494   4.748
72622W        W31916   5.917   1.792  10.990
72623W        W31917  26.503   7.263   2.235
72624W        W31918   0.392  23.688  11.022
72625W        W31919  25.180   0.482  12.001
72626W        W31920  18.217  23.187   0.804
72627W        W31921  34.506  30.909  12.578
72628W        W31922  26.581  18.600   3.635
72629W        W31923   3.827   5.208  12.894
72630W        W31924  30.094  44.287  13.539
72631W        W31925   6.780  30.040  12.969
72632W        W31926  37.430   3.906  11.491
72633W        W31927   5.758  41.822  13.358
72634W        W31928  32.082  28.183  10.934
72635W        W31929  38.035  32.570  14.009
72636W        W31930  34.478  16.803   4.290
72637W        W31931  38.832  23.549   2.889
72638W        W31932  19.191   5.789  12.999
72639W        W31933   7.693  19.671   0.888
72640W        W31934   1.866  42.351   1.423
72641W        W31935  28.125   1.925  10.043
72642W        W31936   8.337   4.356   4.169
72643W        W31937  24.611  13.625  10.506
72644W        W31938  13.670  26.493  12.064
72645W        W31939   4.737  21.545  13.841
72646W        W31940  25.671  25.680   4.753
72647W        W31941  29.117   0.343  11.553
72648W        W31942   7.348  42.444   3.215
72649W        W31943   9.697  41.331  14.342
72650W        W31944  44.841   2.241   0.756
72651W        W31945   9.267  38.994  11.448
72652W        W31946   8.235   2.789   5.227
72653W        W31947  43.379  11.686   2.751
72654W        W31948   4.931  28.943  12.357
72655W        W31949  30.124  19.730   2.300
72656W        W31950  35.573  43.923  11.036
72657W        W31951  18.064  42.831   0.354
72658W        W31952  10.237  41.450   2.745
72659W        W31953  28.477  18.562   0.276
72660W        W31954  30.417  40.323  11.089
72661W        W31955  35.079  30.598  10.063
72662W        W31956  10.368  13.112  13.957
72663W        W31957  13.754   4.711   4.253
72664W        W31958  41.488  14.698   2.749
72665W        W31959  44.831  27.535   1.253
72666W        W31960  14.779   8.730   4.748
72667W        W31961  31.038  20.242  11.581
72668W        W31962   2.374   7.381  10.410
72669W        W31963  14.790  18.059   3.346
72670W        W31964  19.101   2.836   3.862
72671W        W31965  27.604  36.577   9.636
72672W        W31966  14.682   3.325  10.575
72673W        W31967  25.708  15.663   0.457
72674W        W31968   3.742  41.356  12.079
72675W        W31969  37.065  39.812   0.326
72676W        W31970  19.692  10.346  12.401
72677W        W31971   1.799  44.400  14.384
72678W        W31972  14.808   5.689  12.094
72679W        W31973  10.204   4.776  11.382
72680W        W31974  15.596  25.510   4.338
72681W        W31975   3.392  24.162   0.295
72682W        W31976  37.894  43.786  11.973
72683W        W31977  10.761  33.551   2.880
72684W        W31978  39.022  12.118  14.342
72685W        W31979  17.783  19.043   5.145
72686W        W31980  15.717  17.583  11.894
72687W        W31981  41.964  14.165  12.491
72688W        W31982  30.956   9.178  14.445
72689W        W31983  35.430  30.952   0.788
72690W        W31984  21.225  33.093   3.377
72691W        W31985  10.280  19.280  14.365
72692W        W31986  21.127  27.526   0.903
72693W        W31987  42.322  39.502  13.854
72694W        W31988   9.187  18.257  13.017
72695W        W31989   0.747  13.656  11.405
72696W        W31990  31.029   1.456   2.307
72697W        W31991  19.747  10.836  10.948
72698W        W31992  23.649   7.231   0.926
72699W        W31993   6.203  30.506  10.094
72700W        W31994  41.497  44.341  13.950
72701W        W31995  30.455  25.473   3.714
72702W        W31996  25.648  24.021  14.460
72703W        W31997  17.665  26.085   2.418
72704W        W31998  36.523  17.746  12.986
72705W        W31999  15.639  37.863  14.974
72706W        W32000  20.725  38.401   2.355
72707W        W32001  39.974  34.027   0.291
72708W        W32002  24.659   1.963   4.301
72709W        W32003  17.066  43.874   0.452
72710W        W32004  14.807  27.988  12.019
72711W        W32005  11.814  37.882  12.989
72712W        W32006  24.504  37.926  12.434
72713W        W32007  33.450   7.895   2.402
72714W        W32008  34.592  17.637   2.738
72715W        W32009  43.843  22.206   3.300
72716W        W32010  30.632  35.553  13.010
72717W        W32011  31.552  34.511  14.807
72718W        W32012  39.998  42.350   3.724
72719W        W32013  37.412  36.862   3.740
72720W        W32014  22.515   0.398   1.833
72721W        W32015   1.415  28.112   1.730
72722W        W32016  44.800  19.194  13.428
72723W        W32017  23.148  38.412  10.639
72724W        W32018   1.932  36.967   1.840
72725W        W32019   9.385  34.447  13.530
72726W        W32020  10.379  26.985  13.802
72727W        W32021  10.863   4.880   2.369
72728W        W32022   9.389  27.632   2.896
72729W        W32023  28.128  21.571  13.016
72730W        W32024  39.954   5.782   4.313
72731W        W32025  29.464  35.435  12.483
72732W        W32026  40.438   8.756   2.212
72733W        W32027  22.082  35.600   4.196
72734W        W32028  24.635  39.475   3.675
72735W        W32029  31.009  19.771  10.125
72736W        W32030  42.881  34.093   0.316
72737W        W32031  31.997  33.456  12.947
72738W        W32032   8.768  21.592   0.409
72739W        W32033  25.507  38.972   3.813
72740W        W32034   8.825   5.876   2.903
72741W        W32035  18.612  26.667  13.914
72742W        W32036  23.696  23.180   4.301
72743W        W32037  25.105  26.147   3.644
72744W        W32038  12.238  19.660   4.709
72745W        W32039   9.178  23.510   4.637
72746W        W32040  18.209  24.168  14.441
72747W        W32041   5.231  34.456  14.429
72748W        W32042  10.239  23.073   0.363
72749W        W32043  27.093  20.120   3.756
72750W        W32044  35.433  21.512   0.812
72751W        W32045   1.741  21.185  12.877
72752W        W32046  22.702  27.451  12.491
72753W        W32047  17.680  37.382   1.443
72754W        W32048   4.900  22.111  14.842
72755W        W32049  35.390  42.866  14.760
72756W        W32050  26.490  29.042   1.435
72757W        W32051  40.413  32.973   3.265
72758W        W32052  20.578  11.763   1.214
72759W        W32053  40.310  23.609   4.244
72760W        W32054  12.175  21.557   4.772
72761W        W32055  21.648  20.557   3.630
72762W        W32056  21.744  37.875   3.760
72763W        W32057  36.526   7.183  13.544
72764W        W32058  31.092  17.734   1.440
72765W        W32059  27.573  38.325  14.793
72766W        W32060   5.844  25.040   9.976
72767W        W32061  41.525  32.586   0.958
72768W        W32062  19.231  25.555   0.243
72769W        W32063  33.449  25.131   4.340
72770W        W32064   3.235   7.244   1.804
72771W        W32065  36.404  20.146   2.893
72772W        W32066  34.438  20.684  13.923
72773W        W32067  11.310  33.120  14.400
72774W        W32068  40.522  23.545  10.004
72775W        W32069   8.877   3.783  13.958
72776W        W32070   2.272  32.466  12.872
72777W        W32071  22.624   8.354  12.959
72778W        W32072  42.029  40.832   1.315
72779W        W32073  15.323   8.729   2.772
72780W        W32074   4.374  24.979   4.665
72781W        W32075  13.658   5.210  12.078
72782W        W32076  41.034  16.720  14.444
72783W        W32077  12.634   4.710  14.759
72784W        W32078  33.049  33.521   3.378
72785W        W32079  16.121  13.819  14.003
72786W        W32080   0.477  23.544  14.344
72787W        W32081   0.487  31.537   2.876
72788W        W32082  22.194  42.281  13.060
72789W        W32083  37.003  39.865  14.825
72790W        W32084  23.720  16.567   2.198
72791W        W32085  39.418   0.372  14.443
72792W        W32086  24.504  40.342   1.782
72793W        W32087   1.799  36.486   0.896
72794W        W32088  38.446   8.189   3.331
72795W        W32089  34.020  30.917   0.950
72796W        W32090  43.456  39.480  13.376
72797W        W32091  27.562  20.053   4.795
72798W        W32092  22.167  35.065   4.275
72799W        W32093  41.298  23.621   4.700
72800W        W32094  36.544   5.815  11.585
72801W        W32095   6.814  13.305  12.554
72802W        W32096  44.488  23.555  14.946
72803W        W32097   2.731  39.899  10.435
72804W        W32098  40.999  26.033  11.013
72805W        W32099  28.050  18.689  12.493
72806W        W32100   8.229   0.939  13.848
72807W        W32101   2.464  41.804   2.835
72808W        W32102  29.168  19.746  13.043
72809W        W32103  13.166  37.349   5.259
72810W        W32104  20.213  22.208  11.399
72811W        W32105  23.716   9.257  13.890
72812W        W32106  11.258   0.467   1.375
72813W        W32107   2.329  33.589  12.391
72814W        W32108   1.751  16.781  10.506
72815W        W32109   8.730  15.296   1.869
72816W        W32110  28.003   2.430   3.834
72817W        W32111  17.706  34.082   3.853
72818W        W32112  16.308  28.483  10.513
72819W        W32113  37.974  34.016   1.369
72820W        W32114   6.832  31.540   1.243
72821W        W32115  28.505   1.874   2.409
72822W        W32116  15.590   4.424  14.323
72823W        W32117  42.879  18.583   2.375
72824W        W32118   3.233  21.526  10.942
72825W        W32119  11.755  44.302  10.011
72826W        W32120  13.305  15.597  11.867
72827W        W32121  33.516  22.142  12.980
72828W        W32122  28.555  16.797  14.891
72829W        W32123  13.318  41.335  13.410
72830W        W32124  15.633  29.977   3.720
72831W        W32125  42.382  24.609  11.128
72832W        W32126  26.565  20.076   2.899
72833W        W32127  35.488  36.916   0.900
72834W        W32128  29.924  32.112   1.430
72835W        W32129  19.572   0.475   0.348
72836W        W32130  22.120  17.595  14.493
72837W        W32131  39.412   7.666   1.766
72838W        W32132  29.949  22.659  12.518
72839W        W32133   3.757  40.951   2.384
72840W        W32134  26.561  43.345  11.420
72841W        W32135   8.735  18.762  14.329
72842W        W32136   7.321  37.398   4.613
72843W        W32137  34.424  14.633  13.876
72844W        W32138  20.566  27.148  11.422
72845W        W32139   6.845  31.898   9.926
72846W        W32140   7.229  10.864  14.498
72847W        W32141  35.439  41.480  11.869
72848W        W32142  30.517  36.577   1.287
72849W        W32143  23.107  21.606   4.734
72850W        W32144  27.113  14.827   3.804
72851W        W32145  33.453   6.776   4.833
72852W        W32146  24.533  25.211   3.360
72853W        W32147  39.391  39.962  14.386
72854W        W32148  30.553   5.315   1.402
72855W        W32149  35.050  27.160   3.339
72856W        W32150  22.566  27.570   0.272
72857W        W32151   2.414  15.605   4.809
72858W        W32152   0.870  29.153   1.902
72859W        W32153  14.158   7.409   4.115
72860W        W32154  21.686   9.220  14.384
72861W        W32155  18.260  38.982   0.448
72862W        W32156  19.149  40.517  14.434
72863W        W32157   5.255  37.574  12.924
72864W        W32158  13.650  43.447  13.507
72865W        W32159   1.240  42.820   0.912
72866W        W32160  19.739  17.616  12.495
72867W        W32161  28.970   7.814   4.831
72868W        W32162   7.891  30.627  12.926
72869W        W32163  19.227  12.739  12.832
72870W        W32164  28.627   5.706   4.239
72871W        W32165  24.575   2.354  12.054
72872W        W32166  17.194  14.792  12.888
72873W        W32167  26.584  24.621   4.305
72874W        W32168  34.592  10.754   3.213
72875W        W32169  25.111  24.084   3.151
72876W        W32170  11.702  17.269   5.253
72877W        W32171   7.279   8.672   0.772
72878W        W32172  18.779   2.285   3.698
72879W        W32173   2.836  42.966  12.929
72880W        W32174  40.538  19.065   1.852
72881W        W32175   9.347  12.642  10.572
72882W        W32176  25.589  13.769   4.634
72883W        W32177  22.166  22.192  13.009
72884W        W32178  37.039   5.922  12.367
72885W        W32179  34.116   0.804   3.861
72886W        W32180  28.991  20.199  12.922
72887W        W32181  27.026  34.455   1.852
72888W        W32182  42.378  35.434  13.419
72889W        W32183  31.443  38.945   3.370
72890W        W32184  36.581   8.876  13.883
72891W        W32185   7.399   5.260  11.599
72892W        W32186  36.570  20.103   3.865
72893W        W32187  34.563  36.447   4.318
72894W        W32188  15.281  13.316  13.508
72895W        W32189  17.126  44.375  10.411
72896W        W32190  13.675  21.126  12.084
72897W        W32191  30.932  11.270  12.568
72898W        W32192   8.333  28.441   9.587
72899W        W32193  17.265  37.997   0.743
72900W        W32194   1.331  40.996  11.009
72901W        W32195  22.638  35.013   1.290
72902W        W32196  11.824  22.503   3.224
72903W        W32197  27.596  37.391   3.267
72904W        W32198  17.169  32.531   0.467
72905W        W32199  31.084  18.116   1.421
72906W        W32200  43.390  12.644  10.438
72907W        W32201  20.631   1.481  11.092
72908W        W32202  11.231  42.518   4.170
72909W        W32203   4.304  14.254   1.851
72910W        W32204   1.978  23.708   2.419
72911W        W32205  32.124   6.225  14.918
72912W        W32206  37.935  18.110  13.909
72913W        W32207   9.336  32.473   1.294
72914W        W32208  30.540  42.479  14.276
72915W        W32209  39.858  44.771   1.290
72916W        W32210   8.238  25.527   2.674
72917W        W32211  32.501   4.296  13.881
72918W        W32212  13.742  36.025  11.501
72919W        W32213   4.775  41.452   1.751
72920W        W32214  42.789  18.075  14.933
72921W        W32215   0.276  40.968   4.666
72922W        W32216  18.705  43.970  13.791
72923W        W32217  27.011  20.168  11.411
72924W        W32218  39.518  37.433  10.890
72925W        W32219  18.201  33.030   0.740
72926W        W32220  25.122  41.385  11.503
72927W        W32221  34.592  17.165   2.662
72928W        W32222  11.129  11.756  11.404
72929W        W32223  40.010  13.139  11.402
72930W        W32224  25.205  19.544   1.386
72931W        W32225   4.412  25.676  12.866
72932W        W32226  37.035  10.280  10.998
72933W        W32227  14.733  22.712  12.863
72934W        W32228  18.683   9.222   1.749
72935W        W32229  10.223   1.821  12.361
72936W        W32230   3.797  15.323   1.751
72937W        W32231   1.439  23.576   3.206
72938W        W32232  16.784   2.726  10.572
72939W        W32233  35.531   7.394   4.653
72940W        W32234   4.896  13.179   3.149
72941W        W32235  15.720  16.135   1.747
72942W        W32236   3.830  30.457   2.812
72943W        W32237   5.877  30.449   4.176
72944W        W32238  36.408  16.660  13.035
72945W        W32239  29.629   2.436  10.954
72946W        W32240   6.792   9.707  12.523
72947W        W32241  27.657  33.492  11.504
72948W        W32242   3.264   8.262   1.281
72949W        W32243  36.483  12.336   5.774
72950W        W32244  20.727   3.259   4.726
72951W        W32245  11.239  43.786  13.329
72952W        W32246  42.923  36.437   2.237
72953W        W32247   1.282  17.236   2.381
72954W        W32248  12.668  11.169   4.729
72955W        W32249  23.633  11.261   9.469
72956W        W32250  38.560  11.222   2.899
72957W        W32251   2.296  38.971   9.968
72958W        W32252  29.143  12.122  11.416
72959W        W32253  19.576  37.963   4.163
72960W        W32254  20.106   7.364   5.282
72961W        W32255  21.066  43.913   0.451
72962W        W32256  39.326  12.312   1.227
72963W        W32257   7.341  20.171  13.870
72964W        W32258   1.872  24.538   2.787
72965W        W32259  32.139  39.546   2.353
72966W        W32260  23.076   5.705   5.774
72967W        W32261  29.658  43.395   2.787
72968W        W32262  29.059  14.096  11.111
72969W        W32263  15.245  19.593   4.245
72970W        W32264  17.090  17.307   2.185
72971W        W32265  22.030  21.249  10.588
72972W        W32266  26.671  31.498   1.800
72973W        W32267  31.582  43.780  13.895
72974W        W32268  17.609   1.474   2.284
72975W        W32269   0.963  36.850  14.992
72976W        W32270   3.433  30.962  12.436
72977W        W32271   6.737  19.248  10.529
72978W        W32272  35.935  10.798   5.167
72979W        W32273  34.874   5.253   4.620
72980W        W32274  23.723  42.799   2.354
72981W        W32275  39.888  29.037  14.986
72982W        W32276   9.276  19.581  13.376
72983W        W32277  17.696   8.252   1.323
72984W        W32278  23.107  28.524   3.716
72985W        W32279  26.110   0.844   0.444
72986W        W32280  42.517  21.137   2.713
72987W        W32281  31.549  38.841  11.540
72988W        W32282  17.192  28.657   0.257
72989W        W32283  44.855  24.565  12.848
72990W        W32284   6.688  13.139   3.765
72991W        W32285  22.671  24.539   4.702
72992W        W32286   9.215  20.126   1.826
72993W        W32287  38.072   2.797   4.722
72994W        W32288  40.943  28.544  11.390
72995W        W32289  26.088   6.336  14.871
72996W        W32290  44.314   5.775   9.984
72997W        W32291   2.264   3.848  12.494
72998W        W32292  11.368  14.278   2.291
72999W        W32293   2.808  25.039   4.749
73000W        W32294  41.347  32.974   3.318
73001W        W32295  14.320  36.082  14.436
73002W        W32296  40.438  23.646  11.413
73003W        W32297  24.517  30.449  13.936
73004W        W32298  36.528  40.399  13.947
73005W        W32299   0.279  18.734   4.708
73006W        W32300  22.167  41.799  12.416
73007W        W32301  36.389  31.935   5.113
73008W        W32302   6.208  31.030  14.995
73009W        W32303  35.390   1.313   1.696
73010W        W32304  43.953  10.314   4.779
73011W        W32305   8.875  35.934   4.338
73012W        W32306  22.585  25.607   3.734
73013W        W32307  43.021   2.333   0.309
73014W        W32308  24.204  29.478   5.200
73015W        W32309  21.037  38.845  11.535
73016W        W32310  25.973  43.401  11.914
73017W        W32311  33.991  14.147   1.751
73018W        W32312  39.503  19.118   2.220
73019W        W32313  34.461  12.144   0.924
73020W        W32314  44.375   4.286   2.392
73021W        W32315  31.905  39.890  14.359
73022W        W32316  18.667  36.471   2.864
73023W        W32317   1.323  19.744  12.967
73024W        W32318  16.166  24.179  14.939
73025W        W32319  20.618  38.985  13.923
73026W        W32320  29.159  41.406  10.613
73027W        W32321  15.813  40.037   1.216
73028W        W32322   3.737  17.708  11.036
73029W        W32323   0.809   1.943  13.415
73030W        W32324   0.303   9.236  12.375
73031W        W32325  11.311  16.277  12.037
73032W        W32326  34.923  28.123   5.175
73033W        W32327  37.044  27.152   1.709
73034W        W32328  28.048   6.264   0.915
73035W        W32329  44.263  24.564   2.218
73036W        W32330   1.259  32.108   3.375
73037W        W32331  43.494  10.715  11.413
73038W        W32332  37.935   4.265  14.877
73039W        W32333  21.572  10.681   2.339
73040W        W32334   7.670  21.178  11.536
73041W        W32335  39.956  38.911   3.189
73042W        W32336   5.402   8.177   4.179
73043W        W32337  28.126  38.008  10.142
73044W        W32338  16.248  30.596  10.552
73045W        W32339  35.968  12.305   3.789
73046W        W32340   1.280  37.965   3.373
73047W        W32341   0.760   6.304  10.946
73048W        W32342   9.258  15.771  13.387
73049W        W32343  43.991  36.435   0.456
73050W        W32344  27.616  20.181   0.325
73051W        W32345  11.219   1.421   3.741
73052W        W32346   6.370   7.747  10.894
73053W        W32347   9.328  13.731   1.848
73054W        W32348  17.622   3.340  10.907
73055W        W32349  32.440  10.860   2.296
73056W        W32350   1.414   0.428   2.810
73057W        W32351   7.853  42.519   3.344
73058W        W32352  28.574  41.421   3.823
73059W        W32353   0.949  27.074  14.399
73060W        W32354  42.018  43.915   3.854
73061W        W32355  30.082  31.902  14.771
73062W        W32356  23.661   2.750   3.824
73063W        W32357  42.930  30.990  13.885
73064W        W32358  42.439  27.489   0.888
73065W        W32359  33.501  17.617  10.472
73066W        W32360  22.714  34.598  14.490
73067W        W32361  32.889   0.464  12.026
73068W        W32362   7.793  28.956   4.180
73069W        W32363  29.461  30.947  14.869
73070W        W32364  38.853  13.725  13.876
73071W        W32365  29.439  11.187   0.411
73072W        W32366  29.561  38.484  14.447
73073W        W32367   9.383   8.737   2.772
73074W        W32368  23.505  29.489  12.972
73075W        W32369  40.820   4.329  13.836
73076W        W32370  20.653   2.231   3.386
73077W        W32371   3.937   7.322  14.816
73078W        W32372  32.591  33.888   4.333
73079W        W32373  38.005  37.418  10.929
73080W        W32374  19.204  12.145   2.285
73081W        W32375  17.283  12.716  14.975
73082W        W32376  27.153  22.170  11.981
73083W        W32377   0.932  31.412   3.314
73084W        W32378  30.528  36.854  13.934
73085W        W32379  31.632   0.909  11.008
73086W        W32380  25.166   5.328   3.223
73087W        W32381  44.429  38.347  12.032
73088W        W32382  43.469  32.590  11.111
73089W        W32383  41.524   1.742   2.699
73090W        W32384  38.385  24.656  14.836
73091W        W32385   5.377  44.795  11.015
73092W        W32386   5.769  35.491  13.401
73093W        W32387  43.866   8.386   1.344
73094W        W32388  38.507  22.715  11.591
73095W        W32389   9.671   7.690  13.399
73096W        W32390  23.090  11.780   0.739
73097W        W32391  37.938   1.344   4.238
73098W        W32392  28.491  19.611   2.694
73099W        W32393  26.970   4.259  10.580
73100W        W32394  30.944  37.580  11.957
73101W        W32395  30.115  14.094  13.943
73102W        W32396  29.559  11.690   5.164
73103W        W32397  21.071  35.092   0.405
73104W        W32398  11.767  43.931   0.389
73105W        W32399  35.457  26.572   2.876
73106W        W32400  39.818  33.029  11.097
73107W        W32401  22.225  31.616   3.762
73108W        W32402  19.241  13.687  13.401
73109W        W32403  34.070  23.139  14.854
73110W        W32404  33.955  25.513  12.576
73111W        W32405   8.835  19.751   1.694
73112W        W32406   8.296  15.271  12.471
73113W        W32407  13.127  37.561   2.396
73114W        W32408  35.487  40.998  13.348
73115W        W32409  25.675  43.916  11.380
73116W        W32410   9.181  32.991   5.251
73117W        W32411  32.076   2.848  14.489
73118W        W32412  28.158  32.993   1.216
73119W        W32413   9.344  16.790  13.816
73120W        W32414  21.629   4.717  11.496
73121W        W32415  38.073  38.550  11.559
73122W        W32416   9.395  13.676  14.516
73123W        W32417   5.712  31.929  13.350
73124W        W32418  12.823  10.729   0.294
73125W        W32419  41.896  29.505  13.801
73126W        W32420  24.595  35.469   0.453
73127W        W32421   3.745  31.128  11.959
73128W        W32422  36.473  10.781  10.632
73129W        W32423   8.307  13.309  10.437
73130W        W32424  28.479  22.537  10.937
73131W        W32425  44.784   6.321  13.032
73132W        W32426  18.728  20.111  13.332
73133W        W32427  27.062  29.039  10.417
73134W        W32428  28.149   4.739   2.818
73135W        W32429  15.721  29.044  11.421
73136W        W32430  31.944  13.304   1.779
73137W        W32431  29.587  42.976  14.821
73138W        W32432  15.184   7.670   2.772
73139W        W32433   8.332  25.194  10.973
73140W        W32434  16.283  31.496   2.894
73141W        W32435  25.983  22.528   2.899
73142W        W32436  15.241  15.749   2.400
73143W        W32437   9.167  11.641   1.256
73144W        W32438  24.655  19.146   1.313
73145W        W32439  31.968  42.874  13.458
73146W        W32440  14.336  44.331  12.571
73147W        W32441  35.496  30.130  11.584
73148W        W32442  29.108   9.301   2.769
73149W        W32443  25.107  25.549  13.800
73150W        W32444   7.288  26.175  13.006
73151W        W32445   8.768   2.376   0.318
73152W        W32446  41.416  29.974  11.055
73153W        W32447  43.422  37.996   2.806
73154W        W32448  27.149  10.283  14.304
73155W        W32449   9.695   3.383  14.899
73156W        W32450  33.462  35.434  10.055
73157W        W32451  11.294  10.702  13.795
73158W        W32452   5.338   8.813  13.386
73159W        W32453  39.436  26.136  10.967
73160W        W32454  24.673  29.137  11.122
73161W        W32455   7.229  42.435   3.647
73162W        W32456  12.741  19.229  13.414
73163W        W32457  18.061  27.614  12.863
73164W        W32458  31.471  39.558  12.875
73165W        W32459   9.173  15.782  13.888
73166W        W32460  27.160  37.479  14.391
73167W        W32461  43.963   8.401   0.938
73168W        W32462  33.025  44.930   0.357
73169W        W32463  28.489   6.788   4.642
73170W        W32464   2.867  31.996  11.573
73171W        W32465  13.603  42.030  14.480
73172W        W32466   6.375  32.399  12.402
73173W        W32467  34.957   1.281   0.839
73174W        W32468   5.865  27.159  11.893
73175W        W32469  24.697   4.732  10.943
73176W        W32470  40.864   7.355  12.353
73177W        W32471  12.222   4.774  13.871
73178W        W32472   2.737   3.395   2.183
73179W        W32473  26.988   3.450  14.905
73180W        W32474  25.194  15.706  14.869
73181W        W32475  16.766  41.326  11.955
73182W        W32476  12.316  40.015  11.476
73183W        W32477   1.336  33.073  13.409
73184W        W32478  32.954  17.761   2.741
73185W        W32479  39.891  41.915   2.753
73186W        W32480  37.840  42.469   0.253
73187W        W32481  44.500  26.456  13.996
73188W        W32482  40.427  40.435   2.236
73189W        W32483  22.203   4.906  14.328
73190W        W32484  36.841  32.939   1.932
73191W        W32485  10.690  18.073  13.045
73192W        W32486  21.131  37.527   2.797
73193W        W32487  38.877  23.034   4.273
73194W        W32488  11.186  35.084  14.461
73195W        W32489   7.713   1.870   2.804
73196W        W32490  19.116  11.132   1.881
73197W        W32491  26.469  15.247  10.931
73198W        W32492  19.208  41.949  12.477
73199W        W32493  23.082  17.643   0.766
73200W        W32494  30.531   2.927  14.398
73201W        W32495  38.469  26.661   4.608
73202W        W32496  39.332  23.516   2.828
73203W        W32497  25.520   4.249  11.419
73204W        W32498  26.951  16.271  14.974
73205W        W32499  24.620   6.728  14.863
73206W        W32500  39.485   7.681   0.799
73207W        W32501   2.457   2.966   1.928
73208W        W32502   1.946  13.289   0.753
73209W        W32503  32.484  42.793  12.390
73210W        W32504  10.739   1.967  14.785
73211W        W32505  15.171  38.336   1.794
73212W        W32506  19.708  35.056  13.809
73213W        W32507   1.331   2.781  14.368
73214W        W32508  18.758  19.714  11.086
73215W        W32509  28.121  12.193  12.061
73216W        W32510   2.403  11.677   5.245
73217W        W32511  25.989  24.516   3.669
73218W        W32512  16.096  29.425   0.955
73219W        W32513  13.779  20.052  10.481
73220W        W32514  41.394   7.904   4.251
73221W        W32515  28.630   8.209  11.123
73222W        W32516   9.799  17.612   1.417
73223W        W32517  29.591   6.293   2.385
73224W        W32518   9.243   6.708   0.745
73225W        W32519  34.488   7.754   2.692
73226W        W32520   5.359  20.750  11.914
73227W        W32521  19.568  27.080   1.274
73228W        W32522  28.561  40.797  10.154
73229W        W32523  34.438  43.310  10.500
73230W        W32524  15.791   0.407  13.838
73231W        W32525  21.061  31.101   2.199
73232W        W32526  34.100  26.032  13.979
73233W        W32527  27.631  42.476   0.314
73234W        W32528   7.218  42.029  11.539
73235W        W32529  10.322   0.292  14.005
73236W        W32530   7.344  33.406  14.927
73237W        W32531   4.365  22.631   3.247
73238W        W32532  30.625  22.127   0.372
73239W        W32533  12.297  31.573   2.823
73240W        W32534  22.568  13.177   1.266
73241W        W32535  10.277  18.659  11.472
73242W        W32536  38.380  16.757   1.843
73243W        W32537  25.701  42.293  11.892
73244W        W32538   6.717   9.761   3.853
73245W        W32539  37.477  21.707   4.195
73246W        W32540   8.338   1.482   3.235
73247W        W32541   1.752   5.715  14.282
73248W        W32542  33.067  17.628  13.045
73249W        W32543  30.492  30.478  14.447
73250W        W32544  42.013  10.690  10.480
73251W        W32545  11.144   0.447  10.946
73252W        W32546  32.955  15.216  13.974
73253W        W32547   6.342   0.337   2.781
73254W        W32548   7.278  34.935  14.868
73255W        W32549  33.931  43.488   1.701
73256W        W32550  13.193   7.875   2.375
73257W        W32551  18.707   2.367  14.874
73258W        W32552  35.370  14.748   2.707
73259W        W32553  27.452  36.371   2.781
73260W        W32554  21.710  27.557  12.365
73261W        W32555   5.339   1.922   1.440
73262W        W32556   8.803  35.473  10.581
73263W        W32557  16.616  22.068   4.712
73264W        W32558  43.788  10.864   1.748
73265W        W32559  38.071  44.384  14.880
73266W        W32560  11.622  13.735   0.310
73267W        W32561  33.951  27.581  10.632
73268W        W32562  39.380  10.773   0.797
73269W        W32563  15.237  30.041   2.327
73270W        W32564  17.748  20.549  12.421
73271W        W32565  10.685  14.126  13.335
73272W        W32566  32.105  33.131   1.424
73273W        W32567  42.357  36.407  12.490
73274W        W32568  40.520  12.613  11.057
73275W        W32569  19.657  32.943   0.909
73276W        W32570  33.584  33.406   4.733
73277W        W32571   1.916  30.114   4.331
73278W        W32572  25.085  43.783   1.238
73279W        W32573  35.916  39.472   4.155
73280W        W32574  43.505  35.541  10.918
73281W        W32575  10.337  22.076   9.944
73282W        W32576  16.666  14.606   3.385
73283W        W32577   0.396   8.754   3.373
73284W        W32578  41.979   6.778  14.869
73285W        W32579  23.543  13.267  14.340
73286W        W32580  17.573  20.064   1.708
73287W        W32581  38.900   2.731   1.771
73288W        W32582  32.516  11.282  10.961
73289W        W32583  41.394  34.084   3.194
73290W        W32584  15.132   0.767   1.285
73291W        W32585  11.842   9.237   0.277
73292W        W32586  14.677  26.006  13.985
73293W        W32587  44.424  13.618   4.353
73294W        W32588  22.623  10.229  11.479
73295W        W32589  23.684  21.595   0.746
73296W        W32590  28.947  40.539  12.508
73297W        W32591  32.576  43.489  14.458
73298W        W32592  35.898  33.963   0.920
73299W        W32593  28.125   7.874   3.777
73300W        W32594  12.790  23.714  10.567
73301W        W32595  43.951  26.126   2.823
73302W        W32596  29.989  33.119   4.310
73303W        W32597   4.262  14.817  12.408
73304W        W32598  24.005  40.485   2.763
73305W        W32599  38.501  19.696  10.615
73306W        W32600  23.214   7.873   5.610
73307W        W32601  32.079  17.585   2.764
73308W        W32602  21.199  30.055  12.046
73309W        W32603  30.056  35.881  11.949
73310W        W32604   8.271  35.448  11.064
73311W        W32605  16.299  22.525   0.288
73312W        W32606  42.029  31.518  14.444
73313W        W32607  19.672  25.114  14.021
73314W        W32608   0.307  42.519  14.814
73315W        W32609  23.084  20.600   4.337
73316W        W32610  21.542  28.100   3.329
73317W        W32611   9.359  36.066  14.310
73318W        W32612  36.923  13.690  13.904
73319W        W32613  21.686  32.523  11.434
73320W        W32614  10.253  19.691   3.151
73321W        W32615   6.899  15.227  12.081
73322W        W32616   9.820   6.326   4.815
73323W        W32617   1.846  16.654   3.733
73324W        W32618   9.888   8.272  13.052
73325W        W32619  39.328  44.472   1.820
73326W        W32620  34.578  10.740  14.446
73327W        W32621  21.531   8.233   2.857
73328W        W32622  17.635  26.478  11.393
73329W        W32623  42.394  43.434  11.030
73330W        W32624   2.849  40.332   4.628
73331W        W32625  25.567  29.451  12.047
73332W        W32626  36.349  38.876  11.586
73333W        W32627  17.594  33.088  12.915
73334W        W32628  29.005  44.844   1.365
73335W        W32629   1.316  31.952   4.228
73336W        W32630  14.790  31.484  11.472
73337W        W32631  11.649  25.516  11.594
73338W        W32632  16.700  15.282   5.107
73339W        W32633   8.351  37.546  13.878
73340W        W32634  15.738  30.950   4.675
73341W        W32635  23.710  10.216   2.740
73342W        W32636  15.305   4.736   3.240
73343W        W32637   1.373  13.623  10.929
73344W        W32638  39.022   2.773  13.794
73345W        W32639  41.799  32.417  14.406
73346W        W32640  24.201  25.574   0.748
73347W        W32641  23.028  14.100  14.932
73348W        W32642  24.617  31.128  11.524
73349W        W32643  10.835  25.581  12.048
73350W        W32644  38.002  42.514  14.934
73351W        W32645  23.722   0.787  14.768
73352W        W32646  10.709   0.282  10.585
73353W        W32647  19.586  24.212   2.668
73354W        W32648   6.906  43.978  14.903
73355W        W32649  43.964  23.231  12.531
73356W        W32650  11.332  25.642  10.564
73357W        W32651  17.777  28.509   3.331
73358W        W32652  40.535  15.211   0.302
73359W        W32653  39.352  24.583  13.933
73360W        W32654  10.637  33.930  14.447
73361W        W32655   4.929   7.866   0.784
73362W        W32656  34.505  12.714  13.395
73363W        W32657  23.507  38.343  13.538
73364W        W32658  22.589  33.899   0.907
73365W        W32659  13.737  32.493  12.072
73366W        W32660  12.315   2.366  14.360
73367W        W32661   2.374   3.294   5.195
73368W        W32662  14.256  24.048  11.863
73369W        W32663   5.807  22.538  10.428
73370W        W32664  19.589  33.077   3.318
73371W        W32665   9.382  33.118  12.085
73372W        W32666   3.811  32.553  14.391
73373W        W32667  18.604  26.024  11.927
73374W        W32668   1.423  43.478   2.893
73375W        W32669  10.306  26.968   2.883
73376W        W32670  33.069  20.736  14.834
73377W        W32671  30.914  44.776  12.842
73378W        W32672  40.499  32.505  11.549
73379W        W32673  40.797  23.114  11.863
73380W        W32674  25.184  24.665  10.472
73381W        W32675  17.696  43.511   4.124
73382W        W32676  29.010  31.068   1.808
73383W        W32677  42.827  41.301   1.919
73384W        W32678  26.169  22.150  10.454
73385W        W32679  25.567  32.902  12.473
73386W        W32680  36.397  21.052  14.953
73387W        W32681  11.759   0.781   4.718
73388W        W32682   1.859  36.441  13.912
73389W        W32683  13.808   5.825  10.497
73390W        W32684  40.351  42.971  12.901
73391W        W32685  12.296   5.332  12.957
73392W        W32686  30.156  17.157   0.961
73393W        W32687  14.649  15.219   2.280
73394W        W32688   5.231  39.428  12.973
73395W        W32689   7.235  34.443   1.247
73396W        W32690   4.431   1.290   2.409
73397W        W32691   4.866  26.602  12.852
73398W        W32692  24.557  34.915  10.627
73399W        W32693  31.429  24.146  10.910
73400W        W32694   6.183  30.512  13.429
73401W        W32695  30.495   5.219   3.260
73402W        W32696   1.357   1.254  14.840
73403W        W32697   7.413  42.799  12.542
73404W        W32698  17.157   8.399   0.302
73405W        W32699  36.575  24.704   3.220
73406W        W32700  11.304  28.639  12.935
73407W        W32701  40.800  10.819  14.510
73408W        W32702  16.602   7.891   2.182
73409W        W32703  17.080   7.318  10.481
73410W        W32704  41.961  26.546  11.482
73411W        W32705   7.767  32.988   1.273
73412W        W32706  42.877  16.275   1.251
73413W        W32707  35.403  44.892  11.477
73414W        W32708  40.882  23.578  12.975
73415W        W32709  31.462   8.808   2.230
73416W        W32710  17.076  24.027  10.486
73417W        W32711  35.384  40.309   2.898
73418W        W32712  39.541  16.230   2.791
73419W        W32713  26.088  19.251  11.517
73420W        W32714   4.301  25.584  11.532
73421W        W32715  34.865  44.838   2.839
73422W        W32716  42.025   1.743   0.377
73423W        W32717  15.139  41.447   3.653
73424W        W32718  35.392  35.968  14.335
73425W        W32719   4.795  17.208   3.272
73426W        W32720  23.045  15.126  12.968
73427W        W32721   7.751  33.492   3.767
73428W        W32722  36.913  18.749   1.920
73429W        W32723  14.664   6.869   4.203
73430W        W32724  35.858  32.509  11.040
73431W        W32725  26.068   3.337   2.334
73432W        W32726  33.975  42.468  11.525
73433W        W32727  17.622  36.958   0.469
73434W        W32728  27.034  15.648  11.441
73435W        W32729  11.190  20.234   4.172
73436W        W32730  17.774  13.846  14.837
73437W        W32731   0.957  19.180   2.387
73438W        W32732  41.444  36.396   5.202
73439W        W32733   2.845  23.501   0.315
73440W        W32734   5.315  36.549  10.641
73441W        W32735  35.056  13.346  14.438
73442W        W32736   2.278  26.606   3.233
73443W        W32737  16.095  16.738   0.894
73444W        W32738  24.989  22.080   1.295
73445W        W32739  21.084  44.272   9.974
73446W        W32740  41.403  28.058  11.044
73447W        W32741  26.638   1.389  12.512
73448W        W32742  42.010  34.501   0.864
73449W        W32743   1.434  13.690   2.368
73450W        W32744  25.612  15.195  10.428
73451W        W32745   9.692  28.056  13.901
73452W        W32746  24.165  28.960   1.928
73453W        W32747  24.494  43.022  14.896
73454W        W32748  31.409  10.751   4.185
73455W        W32749  25.144  29.506   0.424
73456W        W32750  10.721  13.619  12.075
73457W        W32751  15.749   8.248   1.759
73458W        W32752  25.145   1.975   4.605
73459W        W32753  17.261  22.217   3.653
73460W        W32754  23.997  14.332  11.915
73461W        W32755   9.384  39.050   1.400
73462W        W32756  41.901  13.337   1.821
73463W        W32757   2.273  39.925  14.793
73464W        W32758  16.139  42.935  13.901
73465W        W32759  43.285  20.141   3.867
73466W        W32760  14.237  15.166   3.161
73467W        W32761  25.505  14.603  13.014
73468W        W32762  11.325  15.238   4.233
73469W        W32763  33.904  19.632  14.765
73470W        W32764  24.183  28.617   4.716
73471W        W32765  40.519  30.474  14.307
73472W        W32766  36.525  11.785   1.775
73473W        W32767  44.881  34.869   1.723
73474W        W32768  23.726   6.244  13.932
73475W        W32769  16.264  33.936   0.895
73476W        W32770   4.207  32.116  11.103
73477W        W32771  32.996  24.210  14.286
73478W        W32772  28.548  17.184  10.597
73479W        W32773  10.872  39.945   3.265
73480W        W32774  28.982  12.226   3.250
73481W        W32775  24.652  12.127   4.208
73482W        W32776  44.366   1.421  11.017
73483W        W32777  18.592  25.622   3.297
73484W        W32778  40.410  17.722   0.841
73485W        W32779  11.695  16.144  14.302
73486W        W32780  11.164  10.221   4.216
73487W        W32781  27.147   3.906  11.592
73488W        W32782  14.792  42.965  13.819
73489W        W32783  13.739  40.311   4.774
73490W        W32784   0.776  18.268  11.471
73491W        W32785  36.856   4.884  14.951
73492W        W32786  11.841  36.058  14.759
73493W        W32787  30.037   5.872   4.278
73494W        W32788  12.348   3.456  11.476
73495W        W32789  16.732  31.115  13.998
73496W        W32790  41.455   5.829  12.392
73497W        W32791   1.336  39.010   3.651
73498W        W32792  41.874   6.697   3.836
73499W        W32793   5.929   9.185   2.675
73500W        W32794  35.097   1.330   3.637
73501W        W32795  24.601  37.446   0.959
73502W        W32796  36.082  22.568  11.012
73503W        W32797  40.857  20.085  14.502
73504W        W32798  22.659  32.424   0.292
73505W        W32799  43.888  39.320  13.039
73506W        W32800   1.338  32.974   3.802
73507W        W32801  12.242  32.009   3.684
73508W        W32802  18.691  22.554   0.458
73509W        W32803  10.823  14.683  11.386
73510W        W32804  36.042  41.317  14.288
73511W        W32805   7.271  19.696   1.866
73512W        W32806  11.813  28.471   2.295
73513W        W32807  28.164   1.453   4.309
73514W        W32808  24.167  32.101  13.417
73515W        W32809  19.661   3.426   1.270
73516W        W32810   2.458  33.554  10.930
73517W        W32811  17.284  21.131   4.805
73518W        W32812   3.331  12.673   3.234
73519W        W32813  22.252  15.788  14.352
73520W        W32814  31.469  15.762   0.425
73521W        W32815  32.409  36.882   3.810
73522W        W32816  23.205  39.388  13.818
73523W        W32817  44.913  19.707   3.824
73524W        W32818  16.688  24.654  10.478
73525W        W32819  10.353  23.133  13.434
73526W        W32820  31.443  37.087   2.763
73527W        W32821  36.487  14.644   0.929
73528W        W32822  11.285   0.906   0.425
73529W        W32823  20.559   1.323   0.318
73530W        W32824  32.990  21.173   1.761
73531W        W32825  10.353  10.318   3.820
73532W        W32826  31.914   6.737  14.513
73533W        W32827  17.172  40.942  14.867
73534W        W32828  22.236   3.950   1.231
73535W        W32829   4.908   5.284  14.394
73536W        W32830  39.001   0.262   3.691
73537W        W32831   2.373  12.813   4.639
73538W        W32832  37.987   6.809  12.563
73539W        W32833  26.607   6.256  14.455
73540W        W32834  14.159  44.354  11.036
73541W        W32835   5.357  27.570  13.354
73542W        W32836  31.999  13.164   0.957
73543W        W32837  44.888  37.951   2.709
73544W        W32838  13.181  30.016  11.551
73545W        W32839  26.592  35.430  13.460
73546W        W32840   4.322  29.433   1.322
73547W        W32841  28.115  38.353  14.888
73548W        W32842   2.442  41.832  14.973
73549W        W32843  23.695  32.948   0.348
73550W        W32844  16.584   6.683  11.437
73551W        W32845  32.024  25.548   1.351
73552W        W32846  36.423  25.212   4.730
73553W        W32847  27.976  14.238   2.242
73554W        W32848  27.195  39.812   3.753
73555W        W32849  37.413   2.734  11.592
73556W        W32850   9.847  20.645  14.794
73557W        W32851   8.888  32.015  12.437
73558W        W32852  27.096  31.958   2.724
73559W        W32853  10.863  32.007  14.863
73560W        W32854  22.161   6.372   4.183
73561W        W32855  28.596  17.793   3.782
73562W        W32856  12.709  31.426   2.399
73563W        W32857  12.286  43.837  14.437
73564W        W32858  21.650  29.161   2.873
73565W        W32859  13.643  15.668  11.080
73566W        W32860  18.061   6.836   2.856
73567W        W32861  38.497  15.594   0.754
73568W        W32862  15.797  15.715  11.093
73569W        W32863  38.354  28.104  13.030
73570W        W32864  42.986  35.520   0.805
73571W        W32865   0.981  28.987  14.909
73572W        W32866  14.692   9.669  12.538
73573W        W32867   8.866  42.338  13.971
73574W        W32868  15.189   4.323  14.947
73575W        W32869   4.926  12.132  13.327
73576W        W32870  29.072  39.835   1.827
73577W        W32871  42.893   4.839  10.089
73578W        W32872  13.126  41.533   1.300
73579W        W32873  25.543  14.177   1.893
73580W        W32874  11.742  34.423  10.072
73581W        W32875   7.402  23.571  13.908
73582W        W32876   6.296  31.520  11.917
73583W        W32877  22.155  35.506   1.804
73584W        W32878  19.742  35.442   0.911
73585W        W32879  32.006  44.290   1.728
73586W        W32880   4.418   0.873  12.561
73587W        W32881   5.288   7.414  12.371
73588W        W32882  30.619  12.815  13.047
73589W        W32883  15.672  15.610   0.906
73590W        W32884  33.601  39.960  11.092
73591W        W32885   3.862  27.126  14.931
73592W        W32886  34.482  34.559  13.444
73593W        W32887  21.575  13.831  13.520
73594W        W32888  26.060  34.612   4.808
73595W        W32889  17.197  37.075   4.196
73596W        W32890  37.533  16.125  14.947
73597W        W32891  29.466  36.429   2.214
73598W        W32892  10.872   8.294   0.832
73599W        W32893   7.204   6.867   4.313
73600W        W32894  32.554  32.140  14.825
73601W        W32895   7.717  34.962   1.877
73602W        W32896   2.400  44.357   0.945
73603W        W32897  20.255  14.823  11.882
73604W        W32898  36.059  27.690  12.375
73605W        W32899  23.566  34.426  12.867
73606W        W32900  18.184   3.284  11.863
73607W        W32901  43.859  14.739  13.885
73608W        W32902   9.235  15.629  12.906
73609W        W32903  21.086  19.663   1.417
73610W        W32904   3.948  31.560  14.766
73611W        W32905   2.408  27.656  14.452
73612W        W32906  28.959  16.636   0.857
73613W        W32907  17.683  20.264  12.960
73614W        W32908   2.402  23.734   0.464
73615W        W32909  28.183  16.076  10.541
73616W        W32910  25.975  36.902  13.357
73617W        W32911  36.474  12.196  10.986
73618W        W32912  35.065  26.482   2.903
73619W        W32913   1.758  19.223   2.676
73620W        W32914  33.486   8.760  12.883
73621W        W32915  43.847   7.337   0.744
73622W        W32916  39.489  21.059  10.139
73623W        W32917  18.252  37.072   3.631
73624W        W32918  32.016  14.688  12.561
73625W        W32919  30.598  10.187   5.317
73626W        W32920  36.920  21.048  13.040
73627W        W32921  33.384   7.688   2.834
73628W        W32922  24.056  44.915  14.891
73629W        W32923   6.793  43.817   3.161
73630W        W32924  29.996  37.072  11.125
73631W        W32925   6.343  34.985   2.312
73632W        W32926  37.480  30.437  12.836
73633W        W32927  15.236   9.199  14.504
73634W        W32928   0.845  29.991   2.731
73635W        W32929  24.220  12.347   0.858
73636W        W32930  22.511   2.442   1.379
73637W        W32931   1.860  23.083  11.911
73638W        W32932  33.479  22.571  11.406
73639W        W32933  42.884  34.033   0.768
73640W        W32934  40.986   8.271  12.452
73641W        W32935  37.906  38.992   4.836
73642W        W32936   6.745  11.779   4.319
73643W        W32937  24.169  42.289   4.218
73644W        W32938  14.613  20.213  14.784
73645W        W32939   0.255  28.502  14.876
73646W        W32940  13.824  40.448   2.897
73647W        W32941  15.234  41.967  14.455
73648W        W32942  20.531  24.658   3.317
73649W        W32943  28.064  11.633  10.081
73650W        W32944  35.057  41.437  11.610
73651W        W32945   8.180  18.132   0.401
73652W        W32946  10.339   0.766   0.375
73653W        W32947   1.431  31.506   3.701
73654W        W32948   2.795  28.087  12.004
73655W        W32949   6.854  20.712  14.277
73656W        W32950  34.432  40.822   2.405
73657W        W32951   9.790  41.334   4.202
73658W        W32952  17.174  12.775  12.077
73659W        W32953  32.897   2.422  11.606
73660W        W32954  38.363  33.464  13.401
73661W        W32955  28.668   6.347  13.876
73662W        W32956  24.002   4.831   4.601
73663W        W32957  39.550  43.018   1.269
73664W        W32958   7.338  42.819  12.079
73665W        W32959  29.080   1.832   0.907
73666W        W32960   6.741  18.589  11.111
73667W        W32961   2.430  22.047   4.297
73668W        W32962  14.141  34.578  10.987
73669W        W32963   8.817   3.914  10.983
73670W        W32964   6.193  26.011   3.372
73671W        W32965  16.247   3.848  12.358
73672W        W32966   0.828  11.757   2.358
73673W        W32967  33.470  28.439   4.709
73674W        W32968  10.138  10.205  11.572
73675W        W32969  18.569  30.531   1.741
73676W        W32970  10.786  35.434   2.372
73677W        W32971  14.130  41.416   3.734
73678W        W32972  18.176  39.951  10.498
73679W        W32973  30.083  35.531   1.403
73680W        W32974  19.170  36.937  11.452
73681W        W32975  11.714  34.935   0.751
73682W        W32976  43.929  44.943   5.604
73683W        W32977   4.342   1.847  13.322
73684W        W32978   0.755   1.384   3.302
73685W        W32979  35.911  30.607   0.904
73686W        W32980   3.377  10.259   2.317
73687W        W32981  37.463  36.568  12.569
73688W        W32982  17.066  29.170  13.398
73689W        W32983   2.794  34.107   2.815
73690W        W32984  24.192   2.901  11.917
73691W        W32985  19.546   1.770   0.358
73692W        W32986  18.778  44.962  11.909
73693W        W32987   0.424  10.340  11.382
73694W        W32988  38.328  29.977  11.514
73695W        W32989  25.519  18.077  10.889
73696W        W32990  44.992   4.722  13.888
73697W        W32991  22.029  37.506  10.968
73698W        W32992  25.522   3.385  11.433
73699W        W32993  35.906  25.972  14.986
73700W        W32994  30.128  12.748   3.266
73701W        W32995  13.178  41.469  13.969
73702W        W32996  20.170   3.775   0.288
73703W        W32997  21.239   4.417  14.922
73704W        W32998  44.970  35.441  11.993
73705W        W32999  39.968  12.259   1.775
73706W        W33000  32.482   0.978  13.406
73707W        W33001  35.442  27.605   0.427
73708W        W33002  41.030  18.277  11.019
73709W        W33003   8.743  24.105   4.698
73710W        W33004  38.916  10.355  12.356
73711W        W33005   8.826  44.397  11.376
73712W        W33006   9.851  17.156  10.447
73713W        W33007  11.782   7.200   3.221
73714W        W33008  22.119  18.208  11.604
73715W        W33009  41.299  12.642  12.459
73716W        W33010  19.273  29.549  13.528
73717W        W33011   4.872  36.459   0.458
73718W        W33012  19.755  39.027  12.473
73719W        W33013  17.670  31.648  13.441
73720W        W33014  11.303   9.219   0.277
73721W        W33015   4.326  34.892  13.061
73722W        W33016  19.750   8.235   3.382
73723W        W33017  19.660   2.964   4.303
73724W        W33018  44.448  21.680  12.352
73725W        W33019  31.968  33.500  13.433
73726W        W33020  27.476  17.575   0.830
73727W        W33021  13.271   9.815  10.531
73728W        W33022  19.578  39.049  10.912
73729W        W33023  25.103  16.081  11.893
73730W        W33024  35.861  22.083   4.312
73731W        W33025  25.583  31.125   4.186
73732W        W33026  35.974   1.426  13.429
73733W        W33027   4.767   7.826  11.972
73734W        W33028  28.601  20.562  14.459
73735W        W33029  27.652  22.082  13.333
73736W        W33030  20.061   6.874  11.566
73737W        W33031  17.301  37.859  11.052
73738W        W33032  24.115  39.002   0.374
73739W        W33033  43.848   2.800   1.343
73740W        W33034  13.781  18.050  13.495
73741W        W33035   9.817  33.395   5.248
73742W        W33036  10.789  32.100   0.281
73743W        W33037  43.272   8.254   3.690
73744W        W33038  37.575  33.927   1.357
73745W        W33039  28.631  25.086  13.329
73746W        W33040  13.154  41.945   3.689
73747W        W33041  25.006  39.534  12.355
73748W        W33042  36.086  38.997   0.448
73749W        W33043  42.967  36.087   1.254
73750W        W33044   8.256  11.195  12.861
73751W        W33045  37.857  33.957  12.861
73752W        W33046   6.897  11.855  13.382
73753W        W33047  43.773   4.292   2.327
73754W        W33048  40.475  26.582   2.744
73755W        W33049   8.205  39.358   1.760
73756W        W33050  21.137  16.741   4.319
73757W        W33051  34.544  24.672   0.902
73758W        W33052  12.257  25.695  12.035
73759W        W33053   5.389  41.835  14.876
73760W        W33054  41.932  17.181  10.461
73761W        W33055  25.073  10.715  10.626
73762W        W33056  13.165  26.142   4.213
73763W        W33057   9.359  41.502  13.381
73764W        W33058   5.318  42.500  10.978
73765W        W33059   0.371  23.027  14.309
73766W        W33060   7.388  28.080   1.245
73767W        W33061  15.203  14.716  13.522
73768W        W33062  11.334  33.517   2.332
73769W        W33063   7.336  29.944  12.471
73770W        W33064  35.016  21.123  11.917
73771W        W33065  40.855  42.954   1.902
73772W        W33066  41.317  29.525   2.267
73773W        W33067   1.936   1.755   1.327
73774W        W33068   5.400  42.361  13.369
73775W        W33069  18.250  42.946  12.018
73776W        W33070  26.002  24.205   4.782
73777W        W33071  37.570  41.892  11.865
73778W        W33072  26.607  35.407  10.914
73779W        W33073  20.126  36.466   4.731
73780W        W33074  29.998  29.113  11.608
73781W        W33075  25.696  12.229   4.164
73782W        W33076  30.089  36.396  12.364
73783W        W33077   7.884  41.928   1.739
73784W        W33078  14.782  34.114  12.007
73785W        W33079  40.501  27.657   0.427
73786W        W33080  15.328  30.427  13.963
73787W        W33081  43.317   5.204   1.895
73788W        W33082  18.087  43.836  10.919
73789W        W33083  28.145  24.196   0.336
73790W        W33084  25.556   9.203   2.663
73791W        W33085  10.271   8.724   2.868
73792W        W33086   4.901  32.903   3.842
73793W        W33087  15.755   3.315   4.655
73794W        W33088  27.048  32.607   1.364
73795W        W33089  43.506  32.933  10.902
73796W        W33090  12.178  27.108   2.392
73797W        W33091  10.141  35.063   5.735
73798W        W33092  22.569  36.352   4.758
73799W        W33093  39.972  18.213  14.327
73800W        W33094  42.342   3.337  14.499
73801W        W33095   4.207  29.129  13.850
73802W        W33096  23.122  25.578  11.106
73803W        W33097  31.971  18.291   4.634
73804W        W33098  27.453   3.774   1.281
73805W        W33099  10.677  43.872  12.981
73806W        W33100  26.183  27.975  11.546
73807W        W33101  39.819   7.683   4.824
73808W        W33102  36.979  16.233   4.770
73809W        W33103   9.737   2.275  13.844
73810W        W33104  21.654  18.672   3.195
73811W        W33105  27.601  29.173  11.947
73812W        W33106  16.221  14.743   1.739
73813W        W33107  39.811   3.930  13.804
73814W        W33108  22.594  40.947   0.353
73815W        W33109  37.339  19.221  13.520
73816W        W33110  42.015  11.325   0.857
73817W        W33111  14.786  16.712   4.355
73818W        W33112  35.094  28.574  13.956
73819W        W33113  15.303  12.652   2.694
73820W        W33114  28.583   4.903   1.772
73821W        W33115  32.035  35.920   3.765
73822W        W33116  27.687  19.137  12.827
73823W        W33117  14.298   3.350   2.251
73824W        W33118  42.937  22.698  14.275
73825W        W33119  23.543  32.443   4.276
73826W        W33120  14.823  42.894   1.213
73827W        W33121   3.217  42.527   2.325
73828W        W33122  29.563  28.558   4.728
73829W        W33123   5.823   6.192   3.221
73830W        W33124  25.057  25.484   1.702
73831W        W33125  14.337   8.187  13.997
73832W        W33126  39.823  10.337  10.889
73833W        W33127  25.492  33.901   0.882
73834W        W33128  23.004  11.284  14.434
73835W        W33129  30.076  22.181   0.829
73836W        W33130  24.974  25.489  12.505
73837W        W33131  11.174  28.667   4.679
73838W        W33132  18.576  12.166  14.351
73839W        W33133  27.013  28.468  14.844
73840W        W33134  25.648  39.489   0.431
73841W        W33135  37.031  17.110  14.904
73842W        W33136  23.071  27.521   2.814
73843W        W33137  30.154  29.027  12.887
73844W        W33138  29.543   2.463   2.188
73845W        W33139   2.299  11.278  12.566
73846W        W33140   0.332  34.588   1.447
73847W        W33141   7.259  19.712  13.967
73848W        W33142  22.737   4.740   3.759
73849W        W33143  43.462  21.074   0.937
73850W        W33144  34.568  36.973   3.825
73851W        W33145  16.756  18.109   0.283
73852W        W33146  34.966   0.982   3.248
73853W        W33147  23.162  36.961   2.771
73854W        W33148  30.540  16.767  12.953
73855W        W33149   6.206  20.061   1.779
73856W        W33150  12.136  23.495   1.847
73857W        W33151   3.772  26.126   3.654
73858W        W33152   8.827  20.745  10.409
73859W        W33153   0.257   3.837  12.501
73860W        W33154  29.579  42.921   2.893
73861W        W33155  31.035   4.299   0.879
73862W        W33156  12.651  26.032  11.882
73863W        W33157  39.812  36.397  12.887
73864W        W33158   6.833  28.469   0.810
73865W        W33159  43.927   7.666   1.444
73866W        W33160   3.368  20.052   4.722
73867W        W33161  16.742  28.442   2.762
73868W        W33162  32.077  13.752   3.284
73869W        W33163  17.167   5.883   0.866
73870W        W33164  37.489  44.334   3.174
73871W        W33165  11.696   4.283   0.413
73872W        W33166   3.826  35.041  14.821
73873W        W33167  19.117  31.586  12.086
73874W        W33168  13.840  34.450   1.731
73875W        W33169  32.887   0.268   2.225
73876W        W33170  38.036   1.352   2.740
73877W        W33171   3.275  20.263  13.474
73878W        W33172  20.616  12.665   0.444
73879W        W33173  44.778  42.481  11.476
73880W        W33174  29.072  27.658   1.442
73881W        W33175  26.593  31.054  13.978
73882W        W33176  14.761  29.552  14.321
73883W        W33177  26.111   5.823   3.732
73884W        W33178  18.283  40.516  12.846
73885W        W33179  11.159  24.655  13.794
73886W        W33180  12.252   3.297  13.960
73887W        W33181  22.602  44.755  10.141
73888W        W33182  28.042  30.101   4.639
73889W        W33183  30.043  42.897   0.377
73890W        W33184  38.554  16.076  12.006
73891W        W33185  29.593  27.948   3.241
73892W        W33186  25.103  37.521  13.450
73893W        W33187  33.893  14.736   0.410
73894W        W33188  18.741  20.213   3.672
73895W        W33189  30.605  28.002  14.006
73896W        W33190  21.735   8.190   1.323
73897W        W33191  39.964  39.560  12.562
73898W        W33192  13.782  16.247  12.965
73899W        W33193  41.301  32.598  13.386
73900W        W33194  29.957  30.959   1.320
73901W        W33195  16.279  34.872  13.885
73902W        W33196  18.227   3.820  11.589
73903W        W33197  26.695  39.049   4.146
73904W        W33198  10.341   9.751   2.728
73905W        W33199  37.903  11.150   3.156
73906W        W33200   1.479   4.885  11.610
73907W        W33201  16.245  10.713  14.384
73908W        W33202   3.426   7.877   0.736
73909W        W33203  10.238  38.510  13.482
73910W        W33204  26.597  12.325   2.403
73911W        W33205  21.076  12.790  12.074
73912W        W33206  44.435   0.351  12.057
73913W        W33207   4.310  20.646   5.654
73914W        W33208  33.977  26.572   3.260
73915W        W33209  23.613  17.137  11.487
73916W        W33210  42.331   0.295  14.908
73917W        W33211  30.924  19.767   3.779
73918W        W33212  12.244   4.867   0.796
73919W        W33213  41.989   4.823   0.258
73920W        W33214  14.223  42.447  13.352
73921W        W33215   4.237  20.764  12.027
73922W        W33216  26.644   3.276  10.920
73923W        W33217   6.200  39.981   3.749
73924W        W33218  43.851  40.303  13.445
73925W        W33219  42.378  30.092  14.894
73926W        W33220  40.541  11.725   0.278
73927W        W33221   8.686  14.129   4.676
73928W        W33222  44.941  41.382   4.119
73929W        W33223  41.458   7.750  11.962
73930W        W33224  20.545  38.448  14.893
73931W        W33225  17.614  43.783  12.960
73932W        W33226  20.091  34.087   1.765
73933W        W33227  20.198  33.582  14.006
73934W        W33228  30.012  40.490   0.353
73935W        W33229  38.558   1.295   1.328
73936W        W33230  19.546   0.955  13.882
73937W        W33231  34.605  43.858   2.770
73938W        W33232  39.894  31.035  11.110
73939W        W33233  21.019   3.721   0.402
73940W        W33234  32.037  13.298  11.595
73941W        W33235  37.051   3.780  10.983
73942W        W33236  31.976  34.087  13.517
73943W        W33237  33.112  28.120  13.341
73944W        W33238   3.728  44.762   2.179
73945W        W33239  25.515   8.290   1.369
73946W        W33240  39.496  11.240   3.824
73947W        W33241  12.238  42.400   2.199
73948W        W33242  19.619   5.197  12.561
73949W        W33243  22.018  23.087   3.836
73950W        W33244  26.609  18.638   2.669
73951W        W33245   2.399   7.209   0.850
73952W        W33246  37.901  30.484   1.306
73953W        W33247  43.381  15.283   4.605
73954W        W33248  34.875  18.074  11.936
73955W        W33249   8.760  14.796   4.792
73956W        W33250   2.863   4.374   1.906
73957W        W33251  43.016  26.104  10.902
73958W        W33252   6.209  40.502  13.961
73959W        W33253  20.597  25.142  10.894
73960W        W33254  24.618  27.453   2.677
73961W        W33255  37.444   2.465  13.004
73962W        W33256  22.186  42.955  12.040
73963W        W33257  11.695  14.206   4.679
73964W        W33258   5.261  16.715   4.317
73965W        W33259   5.699  41.415  13.451
73966W        W33260  25.680   7.302  12.008
73967W        W33261   0.837  12.737  13.436
73968W        W33262   5.424  27.167   1.924
73969W        W33263  43.972   7.865  13.307
73970W        W33264  44.988  30.624   1.335
73971W        W33265  12.162  16.639  12.008
73972W        W33266  41.414  38.946  14.943
73973W        W33267  42.904   6.362   2.336
73974W        W33268  32.454  10.868   4.140
73975W        W33269  36.456  40.485  11.926
73976W        W33270  26.162  12.668   0.427
73977W        W33271  15.633  40.929   3.158
73978W        W33272  13.632   1.874  12.001
73979W        W33273  27.052   0.484  11.948
73980W        W33274  38.007  22.207  11.058
73981W        W33275  36.577  35.914  14.490
73982W        W33276  22.730  37.948  11.984
73983W        W33277  44.895  13.196   0.942
73984W        W33278  26.157   7.724  12.947
73985W        W33279  31.984  16.628   2.776
73986W        W33280  31.134  11.353   1.779
73987W        W33281   7.216  16.640   0.425
73988W        W33282  33.096  22.093  13.832
73989W        W33283   3.308  11.744  13.352
73990W        W33284  44.335  41.915  12.391
73991W        W33285  30.968  41.464   0.371
73992W        W33286  12.159  30.067  14.786
73993W        W33287  33.909  16.146   3.824
73994W        W33288  28.572  41.006   2.379
73995W        W33289  20.098  27.480  10.407
73996W        W33290  18.662   9.189  11.897
73997W        W33291  18.729  31.027  10.526
73998W        W33292  40.442   7.176   3.244
73999W        W33293   8.756   0.802  13.426
74000W        W33294  27.186  20.230  12.489
74001W        W33295  10.808  23.167   1.890
74002W        W33296  42.793  18.784   0.746
74003W        W33297   1.393  11.238   0.954
74004W        W33298  22.716  37.017  11.008
74005W        W33299  33.577   0.837   2.352
74006W        W33300  23.584  27.024   1.317
74007W        W33301  37.455   2.417   1.328
74008W        W33302  16.772  34.442  13.877
74009W        W33303  21.120   7.846  11.946
74010W        W33304   1.445  32.963   1.380
74011W        W33305  21.101  30.478   0.324
74012W        W33306   2.413  44.291   1.732
74013W        W33307  13.671  24.209   1.310
74014W        W33308  28.655  37.356  14.031
74015W        W33309  25.542  21.183   1.819
74016W        W33310  42.869   5.310   3.859
74017W        W33311  21.724   8.869  12.872
74018W        W33312  18.563  42.498   1.383
74019W        W33313  15.812  17.092   1.869
74020W        W33314  34.004  33.998  10.914
74021W        W33315  17.669  14.717  12.491
74022W        W33316  39.915  24.090  11.894
74023W        W33317  24.714  19.596   0.479
74024W        W33318  16.580  17.763   0.385
74025W        W33319  35.470  44.935   0.383
74026W        W33320  30.072  23.500   4.271
74027W        W33321   4.303  22.595  11.103
74028W        W33322  43.406   2.407  13.959
74029W        W33323  19.599  32.433   1.359
74030W        W33324  27.685  16.626   0.883
74031W        W33325   6.783   8.336  14.332
74032W        W33326   3.928   5.421   1.367
74033W        W33327  32.395  35.023   0.398
74034W        W33328  41.443   2.450   3.653
74035W        W33329  27.029  29.550  14.961
74036W        W33330  22.128  23.649  12.831
74037W        W33331  37.525  21.744   4.769
74038W        W33332  15.136   1.922  13.856
74039W        W33333  26.171  37.514   9.951
74040W        W33334  12.804   8.306  10.493
74041W        W33335   7.184  13.787   1.446
74042W        W33336   3.325  39.553   4.314
74043W        W33337  44.882  21.682   0.778
74044W        W33338  13.303  20.616   4.334
74045W        W33339  27.998  29.530  14.335
74046W        W33340  12.648  28.113   2.201
74047W        W33341  29.556   7.284  13.361
74048W        W33342  24.129  20.241  14.411
74049W        W33343   5.732  13.159   1.285
74050W        W33344  11.360  21.645  12.370
74051W        W33345  19.639   1.968  13.460
74052W        W33346  39.401  20.049   1.381
74053W        W33347  33.121  12.154   1.219
74054W        W33348   0.959   5.820  14.397
74055W        W33349   5.269  11.696  14.975
74056W        W33350  28.165  24.483  12.375
74057W        W33351  36.055   4.793  10.419
74058W        W33352  16.810   0.494  12.905
74059W        W33353   2.794  35.110   3.313
74060W        W33354  33.509  43.485  13.910
74061W        W33355  27.152   6.252   1.446
74062W        W33356  37.857  25.103  12.060
74063W        W33357  15.746  39.921   0.858
74064W        W33358   5.406  44.916  14.807
74065W        W33359   8.239  42.907   3.169
74066W        W33360  34.068   4.869   2.676
74067W        W33361  32.936   3.249  14.384
74068W        W33362  38.526  20.143   2.729
74069W        W33363  41.912   2.887   4.184
74070W        W33364  25.215   1.297  13.932
74071W        W33365  33.954  43.409  12.443
74072W        W33366  40.476   2.447   2.210
74073W        W33367  25.987   7.212  12.445
74074W        W33368  22.510   9.706  10.487
74075W        W33369   3.287   8.717   3.854
74076W        W33370  16.188  37.993   1.322
74077W        W33371   6.689  11.190   2.239
74078W        W33372  32.909  19.259   0.766
74079W        W33373  23.188  32.105   2.895
74080W        W33374  20.221   8.654   0.795
74081W        W33375  41.482  25.656   1.241
74082W        W33376  44.342  17.606   2.749
74083W        W33377  29.123  37.846  10.587
74084W        W33378  24.200   9.659  14.836
74085W        W33379  15.731  29.606   2.367
74086W        W33380  18.647  35.020  13.023
74087W        W33381  39.890   0.882  10.991
74088W        W33382   4.357   3.384   1.289
74089W        W33383  32.078  34.450  10.076
74090W        W33384  14.335   0.795   1.422
74091W        W33385  34.077   4.342  12.351
74092W        W33386  10.195  41.389   2.310
74093W        W33387   9.385   7.417  11.090
74094W        W33388  30.556  20.123   3.212
74095W        W33389  18.259  37.029   4.799
74096W        W33390   0.937   7.249   0.950
74097W        W33391  14.710  28.165  10.940
74098W        W33392  28.166   5.269   4.258
74099W        W33393  32.497  27.516   1.896
74100W        W33394  12.678   1.321   1.267
74101W        W33395  28.573  24.505   3.652
74102W        W33396  37.418   0.974  11.507
74103W        W33397  21.684  38.912  13.339
74104W        W33398  39.044  31.095  14.453
74105W        W33399  43.282   7.683   3.328
74106W        W33400  35.401  28.991  10.500
74107W        W33401   4.866   4.351  14.479
74108W        W33402  37.939  19.733  14.797
74109W        W33403  24.117   8.403   0.299
74110W        W33404  38.877  11.689   3.321
74111W        W33405  34.499   1.421   3.863
74112W        W33406  25.567  35.885   3.314
74113W        W33407   3.851  14.719  10.519
74114W        W33408  43.995  43.974  11.523
74115W        W33409  35.427  26.042   2.354
74116W        W33410  15.277   1.893   1.437
74117W        W33411  20.145  29.665   4.191
74118W        W33412  19.736  37.570  13.959
74119W        W33413  20.098   0.487   4.704
74120W        W33414   0.407  31.017  13.450
74121W        W33415  19.094  24.670   3.809
74122W        W33416  33.437  42.401   1.323
74123W        W33417  28.534  34.090   1.270
74124W        W33418  22.032   8.679   9.638
74125W        W33419  21.548  31.445  11.596
74126W        W33420   0.492   1.352   9.521
74127W        W33421   4.860  21.062  11.493
74128W        W33422  26.587  17.300   4.609
74129W        W33423  44.769  34.389  11.395
74130W        W33424   6.820  39.444  13.806
74131W        W33425  12.324   4.209   1.210
74132W        W33426  44.803   3.935  14.835
74133W        W33427  11.784  17.119  11.923
74134W        W33428   2.858  21.201  12.440
74135W        W33429  24.634  33.971   4.752
74136W        W33430  15.264  36.988   2.243
74137W        W33431  36.407  14.261  10.959
74138W        W33432  12.763  28.078  11.091
74139W        W33433  43.984   7.408   1.260
74140W        W33434  29.608  12.791  14.904
74141W        W33435  39.420  35.465   5.571
74142W        W33436  16.629  37.886   2.184
74143W        W33437  16.086  14.288  10.008
74144W        W33438   6.376  33.460   2.337
74145W        W33439  41.812   1.806  13.032
74146W        W33440   9.281  34.069   3.148
74147W        W33441  42.447  10.207   4.339
74148W        W33442  44.869  28.103   1.419
74149W        W33443  16.266  40.805  11.568
74150W        W33444  24.141  33.923   2.899
74151W        W33445   1.748  21.244   0.752
74152W        W33446   9.358  13.238  14.834
74153W        W33447  10.206  42.314   1.850
74154W        W33448   6.816   4.320  12.456
74155W        W33449  26.060   8.719  12.570
74156W        W33450   5.744  35.942   3.848
74157W        W33451  37.440  25.107   4.795
74158W        W33452  17.175  31.499  13.976
74159W        W33453   3.291  24.526   1.412
74160W        W33454  12.297  28.989   1.426
74161W        W33455  10.182  23.985   1.213
74162W        W33456  44.762  33.567  11.568
74163W        W33457  44.795  15.102  13.505
74164W        W33458  34.407  37.349   0.854
74165W        W33459  28.524  41.443   4.259
74166W        W33460  17.677  30.159  11.953
74167W        W33461  41.347  11.373  12.546
74168W        W33462  37.508  30.658   0.357
74169W        W33463  31.151  32.043   0.254
74170W        W33464  27.460  26.652   3.765
74171W        W33465  37.990  30.579  13.981
74172W        W33466  28.076   4.233   0.884
74173W        W33467  44.911  24.610  12.413
74174W        W33468   6.756  29.119   3.843
74175W        W33469   0.448  30.115   3.765
74176W        W33470  34.419  27.148   1.878
74177W        W33471  21.668  34.512  11.392
74178W        W33472  37.574   2.800  13.378
74179W        W33473   7.911  44.395  14.843
74180W        W33474   9.396  28.984  14.507
74181W        W33475  37.359  33.517   1.321
74182W        W33476   9.377  28.554  14.010
74183W        W33477   8.383   8.278   3.196
74184W        W33478  19.113  25.013   2.705
74185W        W33479  38.331  10.339   0.890
74186W        W33480  36.018  21.256  12.415
74187W        W33481  44.497   2.253   4.685
74188W        W33482  44.339  40.322  13.440
74189W        W33483  26.026  14.331   1.915
74190W        W33484  14.624  22.212  11.968
74191W        W33485  24.094  15.250  12.853
74192W        W33486  41.424  12.834   1.719
74193W        W33487   3.259  17.605  11.587
74194W        W33488   4.833   7.902   4.621
74195W        W33489  12.128   3.421   5.241
74196W        W33490  28.450  21.513   4.789
74197W        W33491   6.205  31.461  10.912
74198W        W33492   3.300  25.139   2.317
74199W        W33493  13.706   3.360   4.834
74200W        W33494  33.606  44.852   0.874
74201W        W33495  23.111  32.617  10.559
74202W        W33496  17.296  23.607  11.578
74203W        W33497  22.675  36.885   2.285
74204W        W33498   5.230  38.071   3.787
74205W        W33499  36.366  17.160  11.973
74206W        W33500  39.458  42.969  10.056
74207W        W33501  31.527  36.964   0.900
74208W        W33502  20.128  28.658  11.896
74209W        W33503   7.367   9.779   4.687
74210W        W33504  19.105  23.153   0.286
74211W        W33505  24.655  22.657  12.095
74212W        W33506  31.618  29.538  14.887
74213W        W33507  39.325  13.809   1.881
74214W        W33508   4.290  23.533   0.759
74215W        W33509  19.042  36.480  14.380
74216W        W33510  38.965  13.653  11.001
74217W        W33511  42.299  30.053   2.886
74218W        W33512   0.434  16.128   1.925
74219W        W33513  28.453  16.759  13.492
74220W        W33514   7.773  15.817  11.494
74221W        W33515  30.017  18.722  11.881
74222W        W33516  37.445  10.252  11.389
74223W        W33517  18.620  31.434   1.396
74224W        W33518  14.151  25.966  11.561
74225W        W33519   4.352  33.470  11.926
74226W        W33520  43.778  39.996   2.350
74227W        W33521  14.804  21.536   0.820
74228W        W33522  36.403   2.331   4.644
74229W        W33523  22.643  28.186   4.249
74230W        W33524   7.259   1.951   4.123
74231W        W33525  30.599  32.586  13.420
74232W        W33526  25.220  20.261   1.228
74233W        W33527  23.634   3.843   0.852
74234W        W33528   3.337  18.161  13.970
74235W        W33529  15.267  32.625   2.238
74236W        W33530   5.789  10.675   4.305
74237W        W33531  22.645  19.567  14.500
74238W        W33532  10.811   1.749   0.877
74239W        W33533  27.011   7.804   2.901
74240W        W33534  24.000  36.532  10.524
74241W        W33535   3.356  21.136   1.906
74242W        W33536  18.630  39.992  13.330
74243W        W33537  27.964  26.512   0.297
74244W        W33538  14.187  34.896  10.625
74245W        W33539  41.901   8.255   4.754
74246W        W33540  35.879  35.426  14.867
74247W        W33541  36.907  12.270   0.466
74248W        W33542  30.631  23.082   3.285
74249W        W33543   7.669  25.595   9.921
74250W        W33544  20.058  39.946  12.060
74251W        W33545  11.222  12.827  13.526
74252W        W33546   0.900  13.319   4.177
74253W        W33547   0.956  22.034  10.643
74254W        W33548   9.806  41.790   0.746
74255W        W33549  40.978  30.620   2.665
74256W        W33550   0.292  32.985   4.748
74257W        W33551   9.167  19.541  12.340
74258W        W33552  34.394  41.416  12.367
74259W        W33553  41.025  10.838   1.412
74260W        W33554  13.731  38.999  14.299
74261W        W33555  35.979   7.302  10.590
74262W        W33556  44.360  36.091   4.226
74263W        W33557  36.949   0.746   0.871
74264W        W33558  19.189   0.364   1.871
74265W        W33559  39.469  39.484   2.892
74266W        W33560  44.763  23.721   2.774
74267W        W33561  14.805  21.241  11.599
74268W        W33562  10.210   6.821  12.842
74269W        W33563   1.476  32.434  12.900
74270W        W33564  36.545  43.796   4.755
74271W        W33565   8.657  38.569  13.480
74272W        W33566  13.250  27.482  11.529
74273W        W33567  12.247  35.003   1.221
74274W        W33568  44.297  12.262   4.659
74275W        W33569  19.749  27.509  14.387
74276W        W33570  24.025   7.834  10.433
74277W        W33571  25.986  25.198   2.191
74278W        W33572  26.674  21.196  10.010
74279W        W33573   8.281   2.736  12.870
74280W        W33574  29.550  12.147   4.745
74281W        W33575  35.037  11.195  14.499
74282W        W33576  41.945  17.092  13.994
74283W        W33577  43.949  41.516   1.442
74284W        W33578  23.619   6.199   1.366
74285W        W33579  43.982  38.338   1.914
74286W        W33580  18.744  23.661  14.893
74287W        W33581  28.111  10.708   3.849
74288W        W33582  20.764  37.490  10.936
74289W        W33583  43.360  28.072  14.315
74290W        W33584  42.820  25.099  14.327
74291W        W33585  14.127  30.934  13.358
74292W        W33586  19.544   7.666  13.936
74293W        W33587   6.781  29.612   1.212
74294W        W33588  39.394  30.013   0.429
74295W        W33589  15.131  36.361   0.416
74296W        W33590  28.478  27.150  12.053
74297W        W33591  27.195  15.630  13.901
74298W        W33592  13.207  34.370   1.900
74299W        W33593   1.971   5.727   0.478
74300W        W33594  11.799  23.030   4.247
74301W        W33595  33.074   4.844  10.933
74302W        W33596  41.368  42.977  14.937
74303W        W33597  41.365  42.421  11.014
74304W        W33598  16.641   4.820  14.803
74305W        W33599  31.099  43.812   3.742
74306W        W33600   8.659  17.636   4.805
74307W        W33601  27.133  13.144   0.803
74308W        W33602  36.523   1.884   0.874
74309W        W33603   2.353  33.073   2.275
74310W        W33604  41.435  33.894   0.766
74311W        W33605  38.545  36.515  12.981
74312W        W33606  26.531  23.685  14.994
74313W        W33607   3.929  18.627  12.835
74314W        W33608  24.037  42.875  11.950
74315W        W33609  18.210  18.293  11.469
74316W        W33610   4.852  29.079   5.276
74317W        W33611   0.368   1.471  13.812
74318W        W33612  30.975  27.007  14.834
74319W        W33613  26.614  34.395   4.650
74320W        W33614  12.655   3.366   0.946
74321W        W33615  33.387  28.620  12.027
74322W        W33616   0.249  31.422  14.324
74323W        W33617   1.920  17.094   0.777
74324W        W33618  17.654   1.755  10.938
74325W        W33619  43.830  42.818  10.920
74326W        W33620  43.350   7.856  10.538
74327W        W33621  33.012  44.930   3.317
74328W        W33622  28.031  17.137  14.382
74329W        W33623  27.679  38.330   1.352
74330W        W33624   9.387   2.380   1.871
74331W        W33625  13.778   0.434  14.002
74332W        W33626  43.354  18.164  12.371
74333W        W33627   0.345  19.619  12.955
74334W        W33628  23.702   0.827  13.892
74335W        W33629   3.349  19.164  14.354
74336W        W33630  27.619   3.719  12.507
74337W        W33631   9.349  20.688   0.771
74338W        W33632   1.761  30.414  10.526
74339W        W33633  40.898   1.306   1.343
74340W        W33634  30.606  42.003  11.939
74341W        W33635  25.100  25.536  12.009
74342W        W33636  28.155   3.793  13.064
74343W        W33637  31.046  29.646  12.501
74344W        W33638  12.337   6.317   1.430
74345W        W33639   3.776  26.208   2.235
74346W        W33640  32.918   3.400  10.521
74347W        W33641  33.462   9.881   3.838
74348W        W33642   0.487  17.308   1.451
74349W        W33643   0.888  43.944  11.979
74350W        W33644  35.098  43.451   4.818
74351W        W33645  39.441  14.181   2.182
74352W        W33646  37.430  25.515   0.343
74353W        W33647   8.355  12.701   4.719
74354W        W33648   1.279  10.323  14.012
74355W        W33649   2.920   8.395  10.995
74356W        W33650  22.645  41.375  13.909
74357W        W33651  42.433  39.383  13.499
74358W        W33652  23.623  21.217  14.760
74359W        W33653  41.441  20.219   2.261
74360W        W33654   3.253   2.464   4.242
74361W        W33655  34.014  30.026  13.427
74362W        W33656  19.546  27.956   3.805
74363W        W33657  33.967   9.753  13.532
74364W        W33658  35.436  32.614   2.325
74365W        W33659  11.721  33.463  10.972
74366W        W33660  19.129  18.244  12.496
74367W        W33661  35.864  19.040   3.175
74368W        W33662  30.574  34.076   0.448
74369W        W33663  36.871  26.554  14.422
74370W        W33664  11.332  37.544   3.184
74371W        W33665  32.995  39.325  14.015
74372W        W33666  11.763  10.688   1.378
74373W        W33667  24.500  38.955  14.425
74374W        W33668  27.635  24.582   2.353
74375W        W33669  32.945  31.035   2.821
74376W        W33670  34.078   9.163   2.355
74377W        W33671  10.156  31.141   2.718
74378W        W33672  24.227  32.553   0.883
74379W        W33673  44.348  40.987   2.752
74380W        W33674  15.287  44.907  10.980
74381W        W33675  10.320   6.203   1.803
74382W        W33676  27.511  27.611   1.885
74383W        W33677  19.272  15.103   4.298
74384W        W33678  26.136  35.001  14.290
74385W        W33679  44.434  11.135   2.707
74386W        W33680  26.649   1.367   0.303
74387W        W33681  18.688  42.343  12.351
74388W        W33682  23.182  28.645  12.456
74389W        W33683  14.696   1.397   2.672
74390W        W33684  17.268  23.531   4.287
74391W        W33685  14.324  23.520   0.803
74392W        W33686   4.880  27.065   4.195
74393W        W33687  42.997  32.636  12.955
74394W        W33688   1.472  27.562   3.258
74395W        W33689  40.918  33.506   3.763
74396W        W33690  11.701  22.641  13.839
74397W        W33691   1.772  18.228   0.430
74398W        W33692  25.498  28.037  11.956
74399W        W33693  31.995   8.320   4.801
74400W        W33694  39.809  29.427  14.329
74401W        W33695   0.452  19.071  12.029
74402W        W33696   5.263  39.335  12.541
74403W        W33697  30.002  36.541   3.271
74404W        W33698  39.014  28.059   3.839
74405W        W33699  25.571   2.301   3.665
74406W        W33700  16.131  25.593   0.281
74407W        W33701  39.378  39.997  14.869
74408W        W33702  11.129  17.172  11.433
74409W        W33703   8.872  21.063  13.371
74410W        W33704   2.435  10.168  11.024
74411W        W33705  37.359  42.842   2.765
74412W        W33706  35.412  23.567  11.094
74413W        W33707  28.582   4.424  14.775
74414W        W33708  27.610  19.247  13.546
74415W        W33709  26.672  16.079   0.742
74416W        W33710  43.979  15.230  14.906
74417W        W33711  42.844  34.569   4.130
74418W        W33712  32.465   2.947   2.213
74419W        W33713  41.388   0.344  13.310
74420W        W33714   3.721  44.284   2.274
74421W        W33715  20.607  26.196   2.823
74422W        W33716  36.080   1.368  14.811
74423W        W33717  44.832  24.997   0.426
74424W        W33718  19.674  12.168   2.704
74425W        W33719  20.037  38.437   0.440
74426W        W33720  28.989  40.970  13.454
74427W        W33721  20.585  13.114  11.076
74428W        W33722  13.313  10.143   2.686
74429W        W33723  21.696  24.676  13.434
74430W        W33724  42.480  11.839   3.147
74431W        W33725  36.549  36.396  11.949
74432W        W33726  37.026  43.842  13.968
74433W        W33727  44.003  20.650   0.835
74434W        W33728  29.487  43.976  10.555
74435W        W33729  26.016  42.958   0.778
74436W        W33730  20.714  28.163   2.801
74437W        W33731  20.060  16.148  12.959
74438W        W33732  38.030  30.981   4.343
74439W        W33733  41.940  33.010   4.748
74440W        W33734  43.958  11.656   4.267
74441W        W33735  31.920   8.162  12.876
74442W        W33736  12.844  33.031   3.192
74443W        W33737  25.551  33.580  10.478
74444W        W33738  28.067  31.049  10.419
74445W        W33739  37.912  17.225  14.338
74446W        W33740  28.005  30.520  11.403
74447W        W33741  39.333   0.265   0.798
74448W        W33742   5.755  16.652  11.005
74449W        W33743  14.217   6.418  13.983
74450W        W33744  23.703   9.856  14.758
74451W        W33745  23.123  33.498   0.445
74452W        W33746  30.046  21.663   0.826
74453W        W33747  18.077  40.876  13.357
74454W        W33748  18.641  31.567   3.844
74455W        W33749  15.771  27.675   4.684
74456W        W33750  11.162  37.481  14.363
74457W        W33751   6.779  34.912  14.765
74458W        W33752  21.514  25.046  11.878
74459W        W33753   8.335   0.850   1.921
74460W        W33754  15.634  39.410  14.321
74461W        W33755  27.017  11.262  12.403
74462W        W33756  40.427  29.088  11.508
74463W        W33757  34.973   3.784  12.020
74464W        W33758   7.793  43.483   2.418
74465W        W33759  24.051   8.703   0.726
74466W        W33760   1.466  14.806  11.066
74467W        W33761  19.082  29.062   4.795
74468W        W33762  18.254   2.965   2.270
74469W        W33763  23.711  22.203  13.446
74470W        W33764   4.707   5.831  10.064
74471W        W33765  14.618  44.374  12.447
74472W        W33766   4.330  29.106  14.354
74473W        W33767  41.924  30.506  10.559
74474W        W33768  15.700  23.005   1.210
74475W        W33769  42.482  29.447   1.913
74476W        W33770  15.292  38.915   3.188
74477W        W33771   0.305  43.380  14.761
74478W        W33772  12.830  31.475   1.798
74479W        W33773  40.895   1.376  13.831
74480W        W33774  21.694   6.349  11.893
74481W        W33775   9.801  27.165   4.742
74482W        W33776  37.867  28.542   3.657
74483W        W33777  41.308   9.305   4.162
74484W        W33778  33.961  18.106   4.747
74485W        W33779  40.507   7.714   0.385
74486W        W33780  30.920   0.258  11.116
74487W        W33781   2.384  19.574  11.014
74488W        W33782  10.233   0.287  12.095
74489W        W33783  16.620  32.463   2.383
74490W        W33784  24.508  20.737   0.389
74491W        W33785  29.526  21.639   0.749
74492W        W33786  20.147  17.186  14.330
74493W        W33787  33.025  12.351  10.614
74494W        W33788  21.639  34.985   2.378
74495W        W33789   5.768  13.831   3.204
74496W        W33790  37.077  32.898  13.953
74497W        W33791  39.869  35.880   3.276
74498W        W33792  42.817  30.618   4.142
74499W        W33793  35.444  34.116   1.257
74500W        W33794   3.726  19.095  12.475
74501W        W33795  13.128  17.757   0.752
74502W        W33796  40.013   8.770   1.216
74503W        W33797   4.797   5.901  14.936
74504W        W33798  34.901  12.663   3.755
74505W        W33799   7.354   9.292  14.297
74506W        W33800  10.812  15.188  12.387
74507W        W33801   9.887  19.622  14.332
74508W        W33802   4.839  32.536  13.408
74509W        W33803  28.629  42.965   3.669
74510W        W33804  37.362  14.601  11.476
74511W        W33805  35.007  16.763  13.476
74512W        W33806   2.846   7.269  10.519
74513W        W33807  26.500   9.196  14.494
74514W        W33808   1.899  20.561   4.162
74515W        W33809  12.705  36.925   0.349
74516W        W33810  25.698  17.174  13.799
74517W        W33811  23.629   6.687   1.788
74518W        W33812  29.147  30.425   0.932
74519W        W33813   3.355   2.893  10.625
74520W        W33814  20.665   0.327   4.807
74521W        W33815  29.520  33.432  14.898
74522W        W33816  17.604  26.953   0.406
74523W        W33817   1.444  31.928   2.336
74524W        W33818   2.925  23.177  13.921
74525W        W33819  11.666  19.745   4.619
74526W        W33820  10.789  28.611   2.308
74527W        W33821  36.451  37.855   9.948
74528W        W33822   5.782  43.971   4.213
74529W        W33823  38.929  29.931   4.703
74530W        W33824  16.314   5.345  14.883
74531W        W33825  40.907   4.228   2.854
74532W        W33826  21.254  21.091  13.524
74533W        W33827  37.384   9.643   4.628
74534W        W33828  32.937  32.480  10.933
74535W        W33829  10.718  26.685   3.285
74536W        W33830  34.013  39.023  14.902
74537W        W33831  18.623  19.737   0.467
74538W        W33832  39.337  34.612   1.347
74539W        W33833  17.075  26.170   3.632
74540W        W33834  24.149   2.916   1.748
74541W        W33835  28.997  22.674  10.638
74542W        W33836  42.382  42.506   0.815
74543W        W33837  41.355   6.741   2.352
74544W        W33838  23.160   3.324  10.915
74545W        W33839  41.811   4.759   4.733
74546W        W33840  28.590  39.006   1.867
74547W        W33841   8.680   8.716   2.248
74548W        W33842  15.305   6.425  12.835
74549W        W33843  15.587   3.829   0.466
74550W        W33844   4.798   8.825  13.373
74551W        W33845   5.195  23.133  14.941
74552W        W33846  20.270  38.845   2.369
74553W        W33847  22.586  36.060  12.365
74554W        W33848  31.111  42.373  12.009
74555W        W33849  23.065  42.482   1.243
74556W        W33850  44.980   6.785  12.959
74557W        W33851   3.354  27.535   3.210
74558W        W33852  19.622  30.554   4.804
74559W        W33853  34.121   3.272   0.447
74560W        W33854  31.021  43.879   1.308
74561W        W33855  35.881  19.054  11.042
74562W        W33856  15.713  30.079  12.002
74563W        W33857  43.453   4.746   2.251
74564W        W33858  31.585  26.077   3.814
74565W        W33859  31.052   6.193   3.731
74566W        W33860   3.266   7.288  12.508
74567W        W33861   4.738  44.343  12.519
74568W        W33862   8.814  28.492   0.298
74569W        W33863  33.088  13.326   1.287
74570W        W33864  19.276   9.844  13.886
74571W        W33865  27.005  38.952  11.971
74572W        W33866  20.535  12.310   0.949
74573W        W33867  43.359  30.109  13.380
74574W        W33868  13.757  43.388   2.805
74575W        W33869  19.542  41.896   5.269
74576W        W33870  11.718  19.180   0.747
74577W        W33871  12.242   7.877  12.865
74578W        W33872  20.152  29.981   4.252
74579W        W33873  10.808  24.115   3.762
74580W        W33874  43.303  23.237   2.293
74581W        W33875  32.575   4.307   3.344
74582W        W33876  12.824  29.591  14.811
74583W        W33877  18.178  16.577   1.242
74584W        W33878   5.796  25.071  11.870
74585W        W33879  39.816  15.770  11.906
74586W        W33880  22.996  19.083   2.833
74587W        W33881  16.083  39.475  14.966
74588W        W33882   5.433  13.316  14.512
74589W        W33883  24.000  43.907  11.086
74590W        W33884  26.977  43.303   3.670
74591W        W33885  18.113   2.455  14.352
74592W        W33886  24.125   9.209  11.014
74593W        W33887  42.504  28.635   0.866
74594W        W33888   7.755  36.486   3.690
74595W        W33889  37.542  16.637  14.461
74596W        W33890  14.317  27.576   1.309
74597W        W33891  23.073  42.778  11.442
74598W        W33892  25.471  13.155   0.440
74599W        W33893   2.280  37.496  11.409
74600W        W33894  20.754  18.089   3.217
74601W        W33895   2.252  15.637   0.935
74602W        W33896  28.063  23.004  13.975
74603W        W33897  29.026   3.853  10.489
74604W        W33898   0.898  35.511  14.815
74605W        W33899  24.182  22.701   3.840
74606W        W33900  13.653  34.416   3.775
74607W        W33901   8.223  33.530  12.888
74608W        W33902  12.119  34.595  12.839
74609W        W33903  21.164  12.161   2.261
74610W        W33904  39.903  40.853   1.239
74611W        W33905  19.553  15.649   0.794
74612W        W33906  39.880  16.747   0.369
74613W        W33907  18.556  26.083   4.740
74614W        W33908  26.582   8.390  11.006
74615W        W33909  10.806  19.186   4.262
74616W        W33910   9.859  35.947   0.956
74617W        W33911  32.113  30.127   1.389
74618W        W33912  43.813  39.316   4.708
74619W        W33913  10.790  11.355   4.736
74620W        W33914  34.877  29.025   0.384
74621W        W33915   9.345   1.911  12.835
74622W        W33916  24.992  42.009   0.264
74623W        W33917  16.611  43.312   0.364
74624W        W33918  32.632  24.631   4.599
74625W        W33919  17.749  35.428  13.435
74626W        W33920  42.858  22.202  13.463
74627W        W33921  22.146  38.404  12.421
74628W        W33922  16.603   5.712  12.998
74629W        W33923   8.375  28.077  13.397
74630W        W33924  28.149  18.166   1.716
74631W        W33925  34.496  25.004  11.509
74632W        W33926  37.386  31.627  12.959
74633W        W33927  36.360  10.372  12.541
74634W        W33928  10.642  10.269   3.317
74635W        W33929  39.973   0.976  10.007
74636W        W33930  40.504  43.798   3.755
74637W        W33931  42.323   2.949   3.831
74638W        W33932  26.991   6.871  11.094
74639W        W33933  16.209  18.549  12.850
74640W        W33934  12.247  30.473   1.275
74641W        W33935  38.506  17.244  13.328
74642W        W33936   0.257  29.042   3.701
74643W        W33937  26.566  14.596  11.952
74644W        W33938  34.533  23.990   1.925
74645W        W33939  43.309  11.796  12.479
74646W        W33940  41.882   3.869  14.378
74647W        W33941  17.137  37.013  12.519
74648W        W33942  25.133  14.774  10.475
74649W        W33943  13.305  15.325  11.481
74650W        W33944   5.403  35.109  11.978
74651W        W33945  42.475   4.722  12.509
74652W        W33946   2.879  23.049   0.854
74653W        W33947   3.942   2.297   0.736
74654W        W33948  41.356  22.250   4.692
74655W        W33949  42.966  15.712   2.680
74656W        W33950  23.036  44.292   1.290
74657W        W33951  24.989  26.642   1.349
74658W        W33952  36.429  41.933   3.287
74659W        W33953  14.301  42.913   5.193
74660W        W33954  25.121   4.284   1.761
74661W        W33955  11.705  13.307  12.386
74662W        W33956  39.959  11.265  11.966
74663W        W33957  12.171  23.084   0.290
74664W        W33958  37.086  43.455   4.666
74665W        W33959  11.209  10.666   1.291
74666W        W33960   6.218  13.710  10.070
74667W        W33961   0.922  14.229  10.925
74668W        W33962  25.599   7.273  14.922
74669W        W33963   8.295  22.033  11.543
74670W        W33964  19.060   5.926  11.945
74671W        W33965  35.070   3.868  10.621
74672W        W33966   2.964   8.828  13.937
74673W        W33967  36.356  16.657  14.380
74674W        W33968  29.638  15.621  13.448
74675W        W33969   2.398   2.796  11.956
74676W        W33970  22.110  16.160   4.281
74677W        W33971  18.245   6.805  10.953
74678W        W33972  21.225  44.845  10.552
74679W        W33973   5.203  15.253   2.760
74680W        W33974  16.792  22.566   2.794
74681W        W33975  30.947   4.876  10.519
74682W        W33976   8.754  42.282   3.196
74683W        W33977  26.976  25.181  12.377
74684W        W33978  26.086  21.098   1.933
74685W        W33979  21.098  32.994  10.410
74686W        W33980  27.592  32.956  14.017
74687W        W33981  27.101   7.378   3.331
74688W        W33982  31.474   4.249   0.820
74689W        W33983  40.812   2.309   2.793
74690W        W33984   2.839  11.358  13.807
74691W        W33985  12.300   8.212  12.369
74692W        W33986  26.964   8.889  10.464
74693W        W33987   2.373  18.570   0.858
74694W        W33988  23.125  17.092  12.006
74695W        W33989  20.727  26.566  11.457
74696W        W33990   4.897  34.966   4.137
74697W        W33991   1.745  23.536   4.604
74698W        W33992  18.670  43.852   4.353
74699W        W33993  15.605   8.797   2.305
74700W        W33994   9.733  25.049  14.892
74701W        W33995  44.837  39.942   2.890
74702W        W33996  14.618  21.069   0.882
74703W        W33997   9.166  30.966  14.438
74704W        W33998  19.708  35.519   1.748
74705W        W33999   0.409  11.261  14.903
74706W        W34000   2.790   9.651  14.003
74707W        W34001  16.712   0.900  13.529
74708W        W34002  13.173   0.309  12.930
74709W        W34003  38.973  28.595  11.053
74710W        W34004  39.957  42.349  13.325
74711W        W34005   6.245  24.136  11.426
74712W        W34006  27.114  32.939  13.007
74713W        W34007  13.164  15.629   2.409
74714W        W34008  15.326  40.483   3.829
74715W        W34009   9.864   5.885   1.722
74716W        W34010  24.537  44.923   3.788
74717W        W34011   8.881  11.296   2.896
74718W        W34012  10.189   4.339  13.333
74719W        W34013  40.050  42.486   2.815
74720W        W34014  15.796   2.250  13.981
74721W        W34015  16.740  14.691  12.359
74722W        W34016  17.794  25.534   2.417
74723W        W34017  14.688  23.066   3.331
74724W        W34018  23.240  28.068   1.793
74725W        W34019   2.956  40.938   1.777
74726W        W34020  38.967  16.697  10.619
74727W        W34021  41.857  41.829   3.239
74728W        W34022  36.396  42.355   1.375
74729W        W34023   2.829  28.026   4.612
74730W        W34024  21.215  10.293   3.332
74731W        W34025  17.120  28.013   4.670
74732W        W34026   1.906  23.504   0.296
74733W        W34027  26.063  18.230   1.821
74734W        W34028  44.884   7.391  12.875
74735W        W34029  25.029  18.596  13.040
74736W        W34030  19.699  44.359   3.310
74737W        W34031   3.758   9.752  11.858
74738W        W34032  18.744  15.226   4.229
74739W        W34033  23.600  28.543   4.218
74740W        W34034  35.905  30.510   4.821
74741W        W34035  10.785  14.799  10.514
74742W        W34036  40.844   0.778   1.730
74743W        W34037  21.117   4.217  14.417
74744W        W34038  23.525   6.904  13.046
74745W        W34039  33.895  27.520  12.848
74746W        W34040  37.968  24.608   4.342
74747W        W34041  37.374  15.272   4.225
74748W        W34042   6.692  10.211  13.377
74749W        W34043   2.243  43.861  14.350
74750W        W34044  23.552   7.722  11.070
74751W        W34045  20.753   2.922  13.987
74752W        W34046  30.122  12.232  14.792
74753W        W34047  43.272  41.895  11.466
74754W        W34048  43.844  28.576   1.302
74755W        W34049  24.108   6.227   4.808
74756W        W34050  37.358  20.152   4.219
74757W        W34051  14.164  32.459   0.921
74758W        W34052  16.286  14.291  14.812
74759W        W34053  14.673   4.337  11.406
74760W        W34054  21.548  43.438  12.387
74761W        W34055  28.489  34.460   0.776
74762W        W34056  32.064  18.129  10.561
74763W        W34057   3.438  22.635  12.483
74764W        W34058  10.362   3.391   0.254
74765W        W34059   9.646   4.225   4.171
74766W        W34060  10.194  33.104   2.398
74767W        W34061  43.455  17.619   4.304
74768W        W34062   4.218  17.671  10.471
74769W        W34063  26.053  16.121  14.468
74770W        W34064  35.940  17.122  13.475
74771W        W34065  22.702  19.590  10.593
74772W        W34066  39.482  21.622   2.189
74773W        W34067  20.129   7.694   1.352
74774W        W34068  36.348   3.726  10.553
74775W        W34069   4.875  16.201   0.912
74776W        W34070  23.524   8.731   4.192
74777W        W34071  16.295   3.449  13.899
74778W        W34072  37.481  33.977   2.234
74779W        W34073  28.486   1.804  13.391
74780W        W34074  34.375   0.896   1.778
74781W        W34075  20.066  16.606  14.513
74782W        W34076  19.253   5.823   1.874
74783W        W34077   0.783  17.295   3.162
74784W        W34078   2.860  18.620   0.463
74785W        W34079  35.932  38.564  14.284
74786W        W34080   3.281  17.078  10.937
74787W        W34081  15.225   0.259  14.817
74788W        W34082  32.437  22.085   0.278
74789W        W34083  31.998  37.916  14.783
74790W        W34084  37.866  27.023   2.709
74791W        W34085   6.226  18.210   3.702
74792W        W34086  19.625  12.726   3.677
74793W        W34087  27.594   4.365   0.921
74794W        W34088  39.911  35.962   0.336
74795W        W34089  38.938  26.050   0.860
74796W        W34090  16.596  32.070  14.008
74797W        W34091  31.568  41.311  13.030
74798W        W34092  39.333   8.891  14.412
74799W        W34093  32.513   0.345  11.122
74800W        W34094  24.567  37.472  12.850
74801W        W34095  15.733   9.351  11.980
74802W        W34096  13.645  33.977   4.273
74803W        W34097  27.661  30.954  12.978
74804W        W34098  15.322  37.072   4.257
74805W        W34099   5.269   3.727  12.032
74806W        W34100   8.878  22.227  11.478
74807W        W34101   2.350  39.983  11.870
74808W        W34102   7.816  43.803   3.837
74809W        W34103  37.455  26.032  13.964
74810W        W34104  41.012  13.284  13.387
74811W        W34105  16.597  32.561   4.821
74812W        W34106   6.870  33.019   4.294
74813W        W34107   7.212  10.665   3.381
74814W        W34108  42.399  13.718  13.531
74815W        W34109  27.095  23.698  13.308
74816W        W34110  36.886   3.397  10.558
74817W        W34111  19.058  35.552  12.951
74818W        W34112  19.534  17.577   1.285
74819W        W34113  36.098   8.248  14.889
74820W        W34114  23.598  11.706   4.271
74821W        W34115  17.077  18.054  14.339
74822W        W34116  19.091   3.422   4.268
74823W        W34117  14.218  43.971   3.380
74824W        W34118  41.414  38.895   2.871
74825W        W34119  30.070   0.490  13.916
74826W        W34120   2.460  39.969   0.277
74827W        W34121  32.629  17.079  14.977
74828W        W34122  32.044  38.402  13.942
74829W        W34123   9.182  18.769   2.256
74830W        W34124   0.346  17.649   2.388
74831W        W34125  42.309  42.432  11.371
74832W        W34126  42.953  13.331   4.820
74833W        W34127  24.483   4.726  14.350
74834W        W34128  26.096  37.950   4.320
74835W        W34129  44.382   7.888   0.894
74836W        W34130  14.673   9.294   1.878
74837W        W34131   7.208  35.557   1.443
74838W        W34132  12.215  27.963   1.308
74839W        W34133  21.611  19.587   5.131
74840W        W34134  11.190  17.095   4.115
74841W        W34135  42.466  14.675   4.256
74842W        W34136  11.149  16.216   3.759
74843W        W34137  14.753  44.949  13.492
74844W        W34138  40.311  20.174  13.528
74845W        W34139  17.073  20.213  11.019
74846W        W34140   1.325  33.444   4.650
74847W        W34141  21.649  34.495  10.948
74848W        W34142   4.248   2.359  12.541
74849W        W34143  44.991  10.654  10.545
74850W        W34144  13.722   5.834   1.254
74851W        W34145  18.596  10.174   1.447
74852W        W34146   8.716  17.655   3.854
74853W        W34147  33.915  43.787   2.892
74854W        W34148   3.814  42.921  11.443
74855W        W34149  13.804  18.746  12.457
74856W        W34150  41.404   4.801   3.352
74857W        W34151  21.616  34.004   1.302
74858W        W34152  19.184  16.606   2.778
74859W        W34153  44.265  33.027  14.777
74860W        W34154  39.544   9.749  14.794
74861W        W34155  25.057  32.572  13.968
74862W        W34156  13.692  13.650   1.828
74863W        W34157  35.026   2.451  13.537
74864W        W34158  22.721  44.000   3.322
74865W        W34159  14.817   1.292   0.278
74866W        W34160  42.285  43.863  12.411
74867W        W34161   3.862  41.428  12.357
74868W        W34162  43.800  11.321   3.341
74869W        W34163  35.933  26.192   0.405
74870W        W34164  31.580   0.346   0.831
74871W        W34165  35.027  12.238  14.413
74872W        W34166  44.935  35.998  11.916
74873W        W34167  41.431  17.603  13.810
74874W        W34168  22.630  41.842  14.341
74875W        W34169  16.238   6.377  14.443
74876W        W34170  16.645  32.119  10.537
74877W        W34171  17.709  25.712  10.926
74878W        W34172  32.933  16.318  10.971
74879W        W34173  28.634  10.301  13.462
74880W        W34174  16.780  40.457  14.416
74881W        W34175   4.831  42.876  13.536
74882W        W34176   7.696  20.030   2.399
74883W        W34177  16.192  19.280   9.464
74884W        W34178  32.951  15.086   3.205
74885W        W34179  33.587   9.220  14.958
74886W        W34180  29.520  19.592   3.640
74887W        W34181  20.591  11.283   1.430
74888W        W34182  36.355  22.515  12.984
74889W        W34183  42.283  42.333  13.984
74890W        W34184   0.920  34.569   0.824
74891W        W34185   3.739  27.153  14.332
74892W        W34186  41.538   2.327  11.040
74893W        W34187   4.328  41.321   0.297
74894W        W34188   4.777  20.642   0.959
74895W        W34189  31.549  38.436  14.338
74896W        W34190  23.150  43.413  14.405
74897W        W34191  19.670  11.730   3.845
74898W        W34192   5.760  15.253  10.645
74899W        W34193  19.566  20.625   3.146
74900W        W34194  12.852  18.774   0.812
74901W        W34195  31.502   9.295   1.296
74902W        W34196   8.685  29.562   5.650
74903W        W34197  31.467   9.175   4.250
74904W        W34198  22.008  40.537  11.907
74905W        W34199  15.261   3.905  11.127
74906W        W34200  27.163  35.524  12.921
74907W        W34201  31.005  43.468   2.311
74908W        W34202  43.008  43.498  13.368
74909W        W34203  13.607  40.331   1.254
74910W        W34204   5.720  11.209  13.984
74911W        W34205  18.114  43.978  14.870
74912W        W34206  40.982  11.633   3.249
74913W        W34207  10.855  32.542   2.895
74914W        W34208   7.402  33.571   3.211
74915W        W34209  40.888  32.628   3.726
74916W        W34210  17.114  38.991   4.798
74917W        W34211  42.991   6.715  12.475
74918W        W34212  19.563  36.409   0.385
74919W        W34213  38.009  28.626   2.378
74920W        W34214  38.833  43.378  11.100
74921W        W34215  20.238  17.623  11.909
74922W        W34216  21.645  42.996  12.882
74923W        W34217  20.758  35.106  10.577
74924W        W34218  21.661  17.099   3.828
74925W        W34219   0.289  27.973  10.003
74926W        W34220  42.801  10.149   0.285
74927W        W34221   4.754  19.537  13.919
74928W        W34222   9.855  37.479  10.482
74929W        W34223  12.223  40.377   2.699
74930W        W34224  29.643  38.934   3.202
74931W        W34225   4.295  13.639   3.757
74932W        W34226  41.035  41.393  14.894
74933W        W34227  43.418  34.017  11.959
74934W        W34228  15.159  42.345   2.395
74935W        W34229  40.933  40.803   4.653
74936W        W34230  21.514  35.483  14.959
74937W        W34231  37.834  11.788   2.795
74938W        W34232  25.605  29.555  12.526
74939W        W34233  26.580  40.891  10.508
74940W        W34234  38.075  19.736   4.318
74941W        W34235  36.039  43.499  12.062
74942W        W34236  24.220  14.625  13.434
74943W        W34237   3.220  15.756  13.831
74944W        W34238  35.447  32.944   0.384
74945W        W34239  25.702   0.290   2.206
74946W        W34240   5.695  24.672   1.248
74947W        W34241  30.429  28.151   4.144
74948W        W34242   1.390  28.152   3.834
74949W        W34243  25.160   4.348   3.767
74950W        W34244  23.039  24.103   2.691
74951W        W34245  40.339  18.604  12.435
74952W        W34246   8.704  31.929   3.277
74953W        W34247   7.785  19.570  11.917
74954W        W34248  38.954  30.652   2.388
74955W        W34249  16.720  35.360   0.345
74956W        W34250  37.336  25.090  11.590
74957W        W34251  41.953  44.906  11.590
74958W        W34252  12.199  11.763  10.071
74959W        W34253  16.230  20.764   2.893
74960W        W34254  41.004  13.341  14.298
74961W        W34255  38.847   3.403   0.307
74962W        W34256  15.241  35.094   2.328
74963W        W34257  25.673  31.417   2.891
74964W        W34258  28.957  31.064   3.816
74965W        W34259  23.590  18.644   2.264
74966W        W34260  36.886  35.884   1.439
74967W        W34261  12.805  25.121   0.325
74968W        W34262   2.396  13.286   4.684
74969W        W34263   8.837  37.572  12.498
74970W        W34264  18.050   3.295  10.468
74971W        W34265  41.793  41.401   2.876
74972W        W34266  26.148  11.647  11.084
74973W        W34267  34.517   3.937  11.928
74974W        W34268  11.651   0.919  13.006
74975W        W34269  40.402  41.856  11.874
74976W        W34270  15.325   1.289   4.257
74977W        W34271   7.251   6.315   4.204
74978W        W34272  43.798  22.543   1.311
74979W        W34273  20.662   9.808  14.422
74980W        W34274  19.612  30.485   2.338
74981W        W34275  15.710  20.229   1.930
74982W        W34276  42.336   2.776   1.350
74983W        W34277  29.039  31.639  11.910
74984W        W34278  18.612  13.710  12.076
74985W        W34279  33.498  20.179   2.885
74986W        W34280  41.472  20.608   0.470
74987W        W34281  13.179  10.275  12.951
74988W        W34282  36.470  10.218   5.302
74989W        W34283   9.723  39.493  11.612
74990W        W34284   8.337  27.582   5.316
74991W        W34285  38.995  19.232   1.910
74992W        W34286  16.168  20.042  13.453
74993W        W34287  20.721   6.254  14.978
74994W        W34288  19.187  27.688  13.335
74995W        W34289  23.197  39.910   4.831
74996W        W34290  30.938   6.193  13.057
74997W        W34291  25.674  16.753   0.930
74998W        W34292  11.160   5.253   2.836
74999W        W34293   4.340  40.435   1.758
75000W        W34294  13.215   4.293  12.485
75001W        W34295  14.735  20.145  12.984
75002W        W34296  42.400  11.655   0.481
75003W        W34297  24.543  23.535  13.391
75004W        W34298  15.773  34.041   4.772
75005W        W34299  31.079  40.801   1.906
75006W        W34300  10.194  33.497   2.735
75007W        W34301  43.410  16.259  14.472
75008W        W34302   9.234  28.979   5.142
75009W        W34303  38.420  21.523  14.388
75010W        W34304  43.309  32.625   1.410
75011W        W34305   2.260  22.656   1.863
75012W        W34306  35.992   5.922  12.897
75013W        W34307   7.400  22.081   0.836
75014W        W34308  18.756  15.087   2.893
75015W        W34309   7.704  24.214   4.193
75016W        W34310   0.332   7.888   3.300
75017W        W34311  21.144  14.764   4.255
75018W        W34312  31.527   2.238   1.738
75019W        W34313  32.082  10.713   4.134
75020W        W34314   1.278   9.166   2.898
75021W        W34315  23.658  10.717  12.854
75022W        W34316  33.940  16.760  12.924
75023W        W34317  12.297  36.549  11.487
75024W        W34318  35.574  29.049   0.870
75025W        W34319  42.002   3.323  14.992
75026W        W34320  16.726  25.645   2.734
75027W        W34321  43.976  36.346  11.580
75028W        W34322   8.876  14.741  11.503
75029W        W34323  16.667  42.451   3.870
75030W        W34324  22.008  43.980   3.345
75031W        W34325  18.174  39.467   3.344
75032W        W34326  39.900  40.440  10.894
75033W        W34327  34.971  12.738  12.028
75034W        W34328  40.491  37.378   9.990
75035W        W34329  33.066  44.366   2.843
75036W        W34330   0.778  18.289   0.329
75037W        W34331  17.227  19.555  13.886
75038W        W34332  41.349  33.588  13.034
75039W        W34333  30.458  12.228   0.753
75040W        W34334  37.371  30.983   5.249
75041W        W34335  38.570  15.650   3.207
75042W        W34336  19.773  33.393  14.877
75043W        W34337   9.743  19.100   2.673
75044W        W34338  24.640  21.174   4.804
75045W        W34339  33.956  44.485   2.880
75046W        W34340  35.952   1.435   2.267
75047W        W34341  44.367  42.973   4.689
75048W        W34342   3.345  33.532   1.776
75049W        W34343  22.515  18.573  14.773
75050W        W34344  22.031  40.402  12.407
75051W        W34345  34.418  42.370  11.550
75052W        W34346   7.842  23.051   1.727
75053W        W34347   1.938   6.755   2.844
75054W        W34348  35.401   4.343  11.067
75055W        W34349  34.099  32.426  11.519
75056W        W34350  38.950   7.334   3.783
75057W        W34351  41.324  29.049   1.341
75058W        W34352  40.402  23.176  14.898
75059W        W34353  23.137  38.335  11.547
75060W        W34354  22.670  38.403  11.514
75061W        W34355  15.128  41.891   2.310
75062W        W34356  26.632   8.730   1.349
75063W        W34357   0.745  40.048   3.160
75064W        W34358  18.054  21.631  12.029
75065W        W34359   2.437  18.784  14.829
75066W        W34360  36.929  26.487  11.866
75067W        W34361  15.115  23.049  14.849
75068W        W34362  23.539  13.829  11.583
75069W        W34363  10.733  33.977   5.696
75070W        W34364   1.940  14.144   4.737
75071W        W34365  35.534  31.420   1.278
75072W        W34366  12.120   8.809   0.902
75073W        W34367   9.273  26.635   3.637
75074W        W34368  42.014  38.350   1.861
75075W        W34369  16.744  26.998   0.946
75076W        W34370  18.065  35.952  13.897
75077W        W34371  32.918   7.797  13.935
75078W        W34372   8.688   8.326  13.964
75079W        W34373  19.539  24.561   1.844
75080W        W34374  44.367  27.573  11.405
75081W        W34375  43.989  20.547  10.621
75082W        W34376  15.581   0.756  12.521
75083W        W34377  18.070  21.635   3.285
75084W        W34378  44.425  44.756   4.310
75085W        W34379  17.643  10.836  11.498
75086W        W34380  43.418  11.240   0.893
75087W        W34381  44.920  38.367  13.974
75088W        W34382  31.988  10.371   3.248
75089W        W34383  30.615  35.500  10.541
75090W        W34384  26.000  10.153   2.377
75091W        W34385  42.028   0.298  11.461
75092W        W34386  38.051  35.058  13.415
75093W        W34387   3.220  38.434   4.128
75094W        W34388  23.007   7.222  14.904
75095W        W34389  29.451  36.466   5.099
75096W        W34390   6.428  25.198  14.782
75097W        W34391  30.916   7.831  14.411
75098W        W34392   3.896  22.069  10.500
75099W        W34393  44.947  30.427   3.858
75100W        W34394  28.588  12.703   2.369
75101W        W34395  42.804  29.952   3.312
75102W        W34396  40.943   5.338   1.779
75103W        W34397  13.257  23.139   1.389
75104W        W34398  19.638  20.216   5.634
75105W        W34399  36.933  32.897   2.716
75106W        W34400  37.953   0.985  13.796
75107W        W34401   6.903  22.660  11.906
75108W        W34402  22.062  31.129   1.726
75109W        W34403  39.857  16.713   1.334
75110W        W34404   0.930  31.418  10.510
75111W        W34405  42.508  30.450   4.222
75112W        W34406  25.179  27.177  10.509
75113W        W34407  12.758  38.929  11.568
75114W        W34408  14.221  39.438  12.452
75115W        W34409  23.554  39.359  10.423
75116W        W34410  23.040  13.314   1.880
75117W        W34411  21.640  19.236  14.003
75118W        W34412  34.028  18.200  10.438
75119W        W34413  37.556  22.098   2.306
75120W        W34414  27.994  36.084   9.607
75121W        W34415  24.210   9.797   5.637
75122W        W34416   6.875   1.963  10.508
75123W        W34417  29.618  33.439  11.580
75124W        W34418  36.890   4.752   3.303
75125W        W34419  24.710  31.911  11.044
75126W        W34420  40.451  19.677  12.067
75127W        W34421  42.791  16.698   1.335
75128W        W34422  23.150  40.437   0.833
75129W        W34423  21.198  28.083   5.193
75130W        W34424  30.418  35.895  14.934
75131W        W34425  44.310  29.657   0.819
75132W        W34426  17.639   5.282  14.295
75133W        W34427  15.291  37.436  12.509
75134W        W34428  33.018   3.413  13.544
75135W        W34429  27.110   4.272  13.404
75136W        W34430  20.086  40.007   0.751
75137W        W34431  21.179   2.741  12.470
75138W        W34432  40.887  14.764   1.326
75139W        W34433  18.696  23.521  13.923
75140W        W34434  17.671  31.582   3.385
75141W        W34435   2.433  41.965  12.367
75142W        W34436  39.345  31.554   3.212
75143W        W34437  36.376  24.085  12.953
75144W        W34438  21.232  10.328  14.461
75145W        W34439  41.956  16.748   3.216
75146W        W34440  42.441  27.552   4.153
75147W        W34441  28.491  20.136   2.770
75148W        W34442   7.901   2.276  11.058
75149W        W34443  44.902  31.491   1.394
75150W        W34444   9.805   6.296   0.306
75151W        W34445  19.619  31.607  11.505
75152W        W34446  42.007  16.588  10.593
75153W        W34447  43.807  44.898   4.274
75154W        W34448  30.153  24.534   0.371
75155W        W34449  19.155  23.062   1.236
75156W        W34450  12.775  44.870  10.614
75157W        W34451  19.214   5.835   3.230
75158W        W34452  41.345  37.045  10.974
75159W        W34453  28.481  31.494  11.584
75160W        W34454  40.367  14.787   2.373
75161W        W34455  13.712  15.257   5.305
75162W        W34456  23.497  34.405   4.188
75163W        W34457  24.579  25.107  13.796
75164W        W34458  44.983  16.740  14.403
75165W        W34459  22.575  14.747  12.056
75166W        W34460  15.604   0.326  10.076
75167W        W34461  34.029  17.081   1.401
75168W        W34462  23.626   5.902  11.944
75169W        W34463  37.872  43.846   3.358
75170W        W34464  33.619  19.040   2.733
75171W        W34465  16.803  40.894   1.740
75172W        W34466  16.084  30.423  13.521
75173W        W34467  37.507   7.316   3.319
75174W        W34468  23.512  13.611  10.897
75175W        W34469  42.946   7.190  11.929
75176W        W34470  18.085  28.944   0.817
75177W        W34471   5.368  16.116  13.814
75178W        W34472  14.642  27.125   2.748
75179W        W34473  11.369  10.783  10.618
75180W        W34474  35.927  32.924  14.359
75181W        W34475  31.568  11.232   1.810
75182W        W34476  35.374  17.576   3.222
75183W        W34477  40.424  38.878   0.777
75184W        W34478  28.941  27.637   1.762
75185W        W34479  41.434   6.679   4.275
75186W        W34480  22.174   3.803   0.446
75187W        W34481  44.282   8.664   2.240
75188W        W34482   2.799  24.054  10.096
75189W        W34483  41.992  20.184  10.471
75190W        W34484  35.046   7.830   2.850
75191W        W34485  16.181  20.072  13.955
75192W        W34486  33.546  11.281  14.810
75193W        W34487  39.952  44.756  12.392
75194W        W34488  39.833   1.962   0.302
75195W        W34489  23.062  17.682   2.757
75196W        W34490  36.418  30.042   2.178
75197W        W34491  35.598  18.655   3.370
75198W        W34492   2.730   0.402   2.825
75199W        W34493  39.988   6.407   1.402
75200W        W34494  28.643  39.062  11.450
75201W        W34495  29.020  40.043  12.913
75202W        W34496   1.952  41.949  11.517
75203W        W34497  17.305  38.521  14.826
75204W        W34498  13.317  25.144  14.965
75205W        W34499  39.920   5.926  11.986
75206W        W34500  36.030   0.785  11.024
75207W        W34501   9.773  14.623  14.432
75208W        W34502  14.747  44.778  10.906
75209W        W34503  27.196  26.685  12.951
75210W        W34504  43.922  21.648   2.303
75211W        W34505   5.891  28.582   3.670
75212W        W34506   5.274  38.871  12.831
75213W        W34507  33.996  34.083  10.477
75214W        W34508  20.539  19.259   0.282
75215W        W34509  24.695  14.733  12.941
75216W        W34510  24.708  34.981  11.513
75217W        W34511   0.450  10.851  11.009
75218W        W34512  20.578  42.785   0.322
75219W        W34513  40.466  41.476   2.704
75220W        W34514  35.520   9.669  11.055
75221W        W34515  28.961  21.021  12.977
75222W        W34516  24.122  24.089  12.897
75223W        W34517   0.324  30.650   3.688
75224W        W34518  37.493   5.214   4.178
75225W        W34519  30.490  29.927   1.900
75226W        W34520   5.285  32.077   4.750
75227W        W34521   2.355  18.226   0.753
75228W        W34522   4.317  24.697   0.393
75229W        W34523  38.403   6.211   0.292
75230W        W34524  27.475  20.228  12.411
75231W        W34525  21.207  10.769   2.854
75232W        W34526  32.575  12.730   2.329
75233W        W34527  34.948  41.019  11.863
75234W        W34528  31.411   1.264  13.324
75235W        W34529  15.185  40.829  12.383
75236W        W34530  42.471  38.443   4.615
75237W        W34531   1.779   1.321   3.823
75238W        W34532  40.020  12.174   3.212
75239W        W34533  14.704  39.449  14.389
75240W        W34534  35.603  38.064   1.331
75241W        W34535  37.540  42.880  11.019
75242W        W34536   4.290   0.476   3.653
75243W        W34537  28.533  11.759   1.310
75244W        W34538  14.338  16.580  13.440
75245W        W34539   9.670  24.211  14.461
75246W        W34540   4.369  37.087   3.725
75247W        W34541  31.942  10.818   4.640
75248W        W34542  34.039   8.275   2.902
75249W        W34543  10.213  17.204  13.467
75250W        W34544  37.496  35.409  12.423
75251W        W34545  44.461  18.716   0.824
75252W        W34546   1.939  17.161  14.820
75253W        W34547  17.758  34.428  11.941
75254W        W34548   0.476  16.675  10.494
75255W        W34549  24.053  10.252  10.409
75256W        W34550  22.051  20.609  13.981
75257W        W34551  37.947   6.270  10.459
75258W        W34552  10.165  15.682   5.114
75259W        W34553  36.013  36.484  12.040
75260W        W34554  44.806  44.263  14.953
75261W        W34555  15.795  32.390  14.031
75262W        W34556  41.524  13.348   0.795
75263W        W34557  24.981  22.558  11.948
75264W        W34558  33.625  30.075  10.537
75265W        W34559  14.240  30.085   1.759
75266W        W34560  43.865  32.122   3.202
75267W        W34561  29.540  42.487   4.752
75268W        W34562  33.116  21.598   3.218
75269W        W34563  28.156  33.056  14.765
75270W        W34564  11.664   6.365  14.997
75271W        W34565  24.226   3.806  11.084
75272W        W34566  41.803  29.974   0.802
75273W        W34567  41.491  15.266   0.277
75274W        W34568   6.914  15.757  13.020
75275W        W34569  30.059  20.212  12.050
75276W        W34570  29.574  22.543  10.923
75277W        W34571  24.681  19.760   1.842
75278W        W34572  14.785  32.431   2.188
75279W        W34573   5.751  12.249   1.748
75280W        W34574  19.615   4.845  12.870
75281W        W34575   1.832  36.535   4.338
75282W        W34576   9.844  12.329   4.159
75283W        W34577  37.070   6.676   1.926
75284W        W34578  37.918  39.926  13.480
75285W        W34579  27.616   7.337   0.837
75286W        W34580  23.496  36.489   3.830
75287W        W34581  17.252   7.776   4.247
75288W        W34582  34.536  20.054   3.661
75289W        W34583  12.755  35.906  13.842
75290W        W34584  29.669   6.796  12.985
75291W        W34585  38.962  35.410   0.775
75292W        W34586  14.099  36.894   0.440
75293W        W34587   3.338  30.454  14.463
75294W        W34588  38.833   0.493  12.043
75295W        W34589  32.448  39.917   3.663
75296W        W34590  23.641  27.166   2.290
75297W        W34591   4.299  16.661   1.715
75298W        W34592  43.909  13.721  13.006
75299W        W34593  31.134  21.642   1.880
75300W        W34594   5.746  12.276   0.293
75301W        W34595  23.068  19.569  11.999
75302W        W34596  36.939   7.722   2.888
75303W        W34597  26.071  19.126  13.388
75304W        W34598   1.856  34.559   3.344
75305W        W34599  24.695  30.953  14.415
75306W        W34600   7.831  15.606   4.115
75307W        W34601  20.525   7.365  10.623
75308W        W34602  21.091  40.305  14.297
75309W        W34603  23.629   0.849   3.150
75310W        W34604  41.379  21.723  14.024
75311W        W34605  36.854  41.407  12.520
75312W        W34606  30.995  12.184   4.178
75313W        W34607   9.820  26.164  14.283
75314W        W34608  19.118  14.181  13.841
75315W        W34609  31.116   0.468   4.653
75316W        W34610  41.312  15.155   3.228
75317W        W34611  27.633  10.761   2.417
75318W        W34612  31.076  37.402  12.898
75319W        W34613  27.562  16.313   3.253
75320W        W34614  15.256  10.769   5.133
75321W        W34615  34.517  39.970   0.248
75322W        W34616  23.140  34.448  11.059
75323W        W34617  12.653   9.800   4.681
75324W        W34618  18.095  22.071   1.216
75325W        W34619  13.326   7.322  14.800
75326W        W34620  37.941   9.747   1.396
75327W        W34621  37.509  16.596  14.919
75328W        W34622  41.421   8.231   1.717
75329W        W34623  18.173  34.439  11.397
75330W        W34624   4.345   7.330   4.792
75331W        W34625  18.568   0.857   2.400
75332W        W34626  17.080  23.614  14.488
75333W        W34627   5.331   9.155  11.999
75334W        W34628  43.771  14.630   2.331
75335W        W34629  21.160   7.185   3.261
75336W        W34630  43.374   5.908   2.213
75337W        W34631  22.016  25.703   0.243
75338W        W34632  32.920  37.960  10.447
75339W        W34633  14.198  32.440  13.818
75340W        W34634  32.604  30.481   4.667
75341W        W34635  28.666  26.967  12.473
75342W        W34636  24.712   6.267   1.820
75343W        W34637   1.881  42.868  14.426
75344W        W34638   5.911  32.444   1.911
75345W        W34639  30.530  28.055  14.385
75346W        W34640  37.419  24.685  13.375
75347W        W34641  30.655  41.944  10.914
75348W        W34642  12.143  19.071   3.733
75349W        W34643  40.369  41.522   4.619
75350W        W34644  14.171  31.516  14.487
75351W        W34645  34.370  43.969   4.673
75352W        W34646  29.156  18.638   0.962
75353W        W34647  28.060  15.721  13.516
75354W        W34648  28.146  22.612  11.555
75355W        W34649  13.638  41.823   1.697
75356W        W34650  26.990  12.123   4.210
75357W        W34651   0.466  27.677  13.997
75358W        W34652  28.617  41.361  14.765
75359W        W34653  40.360  15.630   4.175
75360W        W34654  44.799   5.931  13.879
75361W        W34655  14.602  27.109   1.298
75362W        W34656   5.223  29.035   1.836
75363W        W34657  31.592   8.698  11.987
75364W        W34658  21.659  30.452   2.301
75365W        W34659  18.175  44.959  10.477
75366W        W34660  33.486  17.260   4.820
75367W        W34661  34.948  26.673   1.398
75368W        W34662  27.481  43.383   0.350
75369W        W34663  35.984  12.610   3.768
75370W        W34664  38.014  14.666  12.350
75371W        W34665  21.017   1.919   2.182
75372W        W34666  32.443  40.880   9.460
75373W        W34667  40.495  40.499  10.641
75374W        W34668  17.246  27.579  11.491
75375W        W34669  32.045  36.359   4.682
75376W        W34670  28.979  11.750  14.492
75377W        W34671  26.192  13.615   3.829
75378W        W34672  44.372  42.484  11.865
75379W        W34673   3.883  33.546   0.792
75380W        W34674   0.453  22.719  11.097
75381W        W34675  29.156  23.537   1.799
75382W        W34676   2.903  13.214  12.404
75383W        W34677  20.066  11.804  13.063
75384W        W34678  11.352  22.575  13.000
75385W        W34679  35.921  19.661  13.463
75386W        W34680   7.703  15.293  10.480
75387W        W34681  34.565  10.653   0.786
75388W        W34682  42.409  44.902   1.431
75389W        W34683  35.524  18.169  13.457
75390W        W34684  37.403  18.742  11.396
75391W        W34685  29.101  43.914   3.215
75392W        W34686  11.639  25.702  12.438
75393W        W34687  19.172  39.859  12.982
75394W        W34688  19.666  18.182   9.991
75395W        W34689  35.564  42.481   0.255
75396W        W34690  24.104  28.953  12.479
75397W        W34691  40.990  30.508   1.925
75398W        W34692  42.322  15.816   3.724
75399W        W34693   8.822  31.127   1.708
75400W        W34694  39.938   1.240  11.519
75401W        W34695  30.044  21.588  11.073
75402W        W34696  44.496   3.786  12.987
75403W        W34697  31.955  31.911  10.520
75404W        W34698  34.517   6.771   1.864
75405W        W34699   1.776  43.282   2.371
75406W        W34700   9.361  32.046  10.999
75407W        W34701  42.918   4.747   4.822
75408W        W34702  16.606  38.565  13.008
75409W        W34703  10.636  20.680  14.779
75410W        W34704  36.497   6.317  13.493
75411W        W34705  17.590  40.890   2.667
75412W        W34706  24.032  19.700  12.827
75413W        W34707  40.485  10.372  12.957
75414W        W34708   9.350  28.534  11.609
75415W        W34709  11.324  26.513  12.383
75416W        W34710   8.790  29.987   3.274
75417W        W34711   8.210  37.578  13.398
75418W        W34712  25.048  10.182  12.376
75419W        W34713  14.290  43.431   3.707
75420W        W34714  42.802  35.422  13.845
75421W        W34715  33.602  27.610   2.830
75422W        W34716  42.472  26.123   4.690
75423W        W34717  31.478  42.362   3.336
75424W        W34718   8.830  22.614   4.209
75425W        W34719  15.598   0.266  11.003
75426W        W34720  36.052  21.661   2.199
75427W        W34721   3.229  14.783  13.437
75428W        W34722  43.021  33.610   3.665
75429W        W34723  42.834   3.937   3.380
75430W        W34724  26.050  23.648  13.454
75431W        W34725  22.511   8.790   1.834
75432W        W34726  23.150   9.186  12.008
75433W        W34727   3.272  44.336   1.333
75434W        W34728   1.843   3.332   3.215
75435W        W34729  42.440  44.943   3.639
75436W        W34730  17.222  15.604  12.349
75437W        W34731   4.763  21.572   3.856
75438W        W34732   1.425  19.608  11.556
75439W        W34733  34.049   8.283   0.351
75440W        W34734   9.310  39.980   2.763
75441W        W34735  40.432   2.444   1.763
75442W        W34736  33.906   2.351   4.687
75443W        W34737  22.512   1.919  12.086
75444W        W34738  11.835  17.118   4.612
75445W        W34739  37.893  30.084  12.430
75446W        W34740  20.049  18.734   0.936
75447W        W34741  14.722   0.397   0.376
75448W        W34742  16.188   4.233   4.287
75449W        W34743  41.397  39.533  12.854
75450W        W34744  13.738  24.491   1.243
75451W        W34745   6.872  43.933  11.929
75452W        W34746  18.182   0.420  10.439
75453W        W34747  38.996  35.391   9.960
75454W        W34748   6.218   8.793   2.302
75455W        W34749  23.050  33.573  10.553
75456W        W34750  15.801   4.393   4.827
75457W        W34751  11.642  32.421  13.374
75458W        W34752   5.226  43.351  14.889
75459W        W34753  41.931  15.736   1.384
75460W        W34754  19.610  30.603  12.506
75461W        W34755  28.445  23.075   3.233
75462W        W34756  11.268  30.593  11.454
75463W        W34757   5.912  22.568   3.235
75464W        W34758  25.191  26.672   2.377
75465W        W34759  19.175  10.353   0.943
75466W        W34760  25.177  42.803  10.476
75467W        W34761  37.482  20.042   0.284
75468W        W34762  30.997  25.165   4.762
75469W        W34763  35.369  44.922   4.252
75470W        W34764  42.001  27.670   4.785
75471W        W34765  43.456  13.702  13.399
75472W        W34766  10.346  23.081  11.098
75473W        W34767  25.660  44.353   9.941
75474W        W34768  32.460  26.590  13.937
75475W        W34769   5.776  18.588  13.826
75476W        W34770  41.294  40.492   2.382
75477W        W34771   3.377  36.094   2.414
75478W        W34772  36.421  44.994   4.721
75479W        W34773  34.012  34.026  14.340
75480W        W34774   2.295   1.738   1.251
75481W        W34775   6.337  44.899  11.955
75482W        W34776  43.899   4.872   3.249
75483W        W34777  20.181  41.388   1.388
75484W        W34778  25.099  10.169   3.228
75485W        W34779  17.259  18.569   2.325
75486W        W34780  32.113  33.617   1.284
75487W        W34781  33.069  40.814  11.403
75488W        W34782  28.596   4.406  12.378
75489W        W34783  22.675  21.154   1.776
75490W        W34784  30.149  26.100   0.764
75491W        W34785  41.877  36.534   3.366
75492W        W34786   9.178  20.231  11.436
75493W        W34787  36.888  18.705   4.793
75494W        W34788  16.313  33.953   2.388
75495W        W34789   1.881  37.077   2.382
75496W        W34790   5.729  19.538   1.377
75497W        W34791  17.062  43.386   1.897
75498W        W34792  20.145   6.303   1.416
75499W        W34793  28.938  12.721   4.767
75500W        W34794   3.887  35.465   1.245
75501W        W34795  13.132  32.595  11.901
75502W        W34796  37.565  40.892  12.547
75503W        W34797  30.582  16.702  10.615
75504W        W34798  34.987  26.590   0.779
75505W        W34799   1.349  18.082   2.222
75506W        W34800  18.245   7.847  11.497
75507W        W34801  40.331   1.433  14.350
75508W        W34802  26.089  39.554   4.817
75509W        W34803  32.955   4.209  14.351
75510W        W34804  27.097  37.915  11.456
75511W        W34805  12.211  12.246   5.240
75512W        W34806   7.808  17.111   0.257
75513W        W34807   1.955  14.323   2.886
75514W        W34808  24.638  40.305   4.250
75515W        W34809   5.771  20.199   0.759
75516W        W34810  15.800  25.564  14.773
75517W        W34811  22.624   7.275   2.850
75518W        W34812   3.725   7.360  13.363
75519W        W34813  30.015   5.914   2.744
75520W        W34814  36.548   3.304  14.424
75521W        W34815  30.034   9.258   1.828
75522W        W34816   6.340  23.557  14.901
75523W        W34817   8.240  34.957   1.281
75524W        W34818  43.790  21.068   4.325
75525W        W34819  31.909   4.364   2.677
75526W        W34820  25.564   3.316   4.267
75527W        W34821  28.481  11.764   4.240
75528W        W34822  17.232   6.851   2.771
75529W        W34823  15.737  22.230   2.806
75530W        W34824   4.391   3.837   0.841
75531W        W34825  18.544   9.365  12.991
75532W        W34826   3.367   7.415  14.316
75533W        W34827   4.253  33.390   4.339
75534W        W34828  25.678  36.076   4.308
75535W        W34829  25.491  29.085   4.680
75536W        W34830   4.823  13.731  10.547
75537W        W34831  44.504  41.510  14.286
75538W        W34832  23.496   0.912   1.699
75539W        W34833  27.625  28.456  14.002
75540W        W34834  10.713  30.935  12.487
75541W        W34835   5.283   4.270  13.805
75542W        W34836   6.909  15.136   0.450
75543W        W34837  10.262  26.130   1.910
75544W        W34838  28.597  14.588  11.539
75545W        W34839  31.576  10.692  11.091
75546W        W34840  37.052   4.728  14.346
75547W        W34841  20.251  42.306   2.253
75548W        W34842   7.742  12.354  12.962
75549W        W34843  41.994  17.570   4.653
75550W        W34844  34.865  43.337  12.499
75551W        W34845  27.473  28.182  11.469
75552W        W34846   0.397  16.604  14.440
75553W        W34847  30.565   5.838  10.090
75554W        W34848  41.296  38.999   3.303
75555W        W34849  17.204  22.039  14.014
75556W        W34850   3.795  14.279   2.213
75557W        W34851  42.335  10.319  11.863
75558W        W34852  19.538   9.796  10.000
75559W        W34853  43.869  14.113  14.781
75560W        W34854   8.217   6.790   4.192
75561W        W34855  23.535  40.861  14.457
75562W        W34856  28.109   6.259   5.191
75563W        W34857   0.861  28.447   2.203
75564W        W34858  16.103  13.693  13.526
75565W        W34859  20.275  20.713  14.373
75566W        W34860  15.253   0.430   2.213
75567W        W34861  32.976  38.377   2.713
75568W        W34862  18.628   3.766  14.477
75569W        W34863  22.707  22.200  12.015
75570W        W34864  21.655  18.221  11.062
75571W        W34865  24.198  25.584   4.140
75572W        W34866  27.454  15.776   2.811
75573W        W34867  24.204  16.731   4.768
75574W        W34868  21.526  35.588   4.138
75575W        W34869  14.313   7.390  11.588
75576W        W34870  26.959  36.519   4.636
75577W        W34871  10.815  32.946  14.289
75578W        W34872  15.651  42.288   2.806
75579W        W34873  15.687  33.609  13.811
75580W        W34874  37.029  19.707  14.304
75581W        W34875  11.782   5.203   2.708
75582W        W34876  23.996  23.017  11.049
75583W        W34877   1.394  18.054  14.762
75584W        W34878  10.215  19.207  11.865
75585W        W34879  28.160  19.093  14.826
75586W        W34880  10.328   3.399   5.235
75587W        W34881  41.498  44.455  12.851
75588W        W34882  26.207   6.705  11.430
75589W        W34883   4.343  25.020   3.265
75590W        W34884  26.083  33.039  13.313
75591W        W34885  22.551  14.595  11.552
75592W        W34886  27.041  18.748  13.477
75593W        W34887  19.281  17.778   2.701
75594W        W34888  29.058   1.317  11.535
75595W        W34889  25.643  33.583  11.093
75596W        W34890  11.752   2.386   2.226
75597W        W34891   5.702  12.727   1.259
75598W        W34892  41.916  14.786  14.455
75599W        W34893  16.177   1.897   5.085
75600W        W34894  26.486   0.983  13.447
75601W        W34895  37.975  23.640   0.877
75602W        W34896   4.932  25.195  13.312
75603W        W34897   6.715  37.921   0.479
75604W        W34898  21.184   5.884   2.359
75605W        W34899  27.163   1.800  11.379
75606W        W34900   2.466  10.352   3.783
75607W        W34901  28.459  21.131   0.430
75608W        W34902   8.165  24.230  12.055
75609W        W34903  43.400  38.835   4.749
75610W        W34904   0.341  37.048  14.432
75611W        W34905   5.316  42.802  14.881
75612W        W34906  26.061  36.556  11.038
75613W        W34907  29.501  34.089   1.308
75614W        W34908  44.496  24.484   0.941
75615W        W34909  30.945  40.869  14.028
75616W        W34910   8.660  29.530  10.420
75617W        W34911  36.444  19.610  13.421
75618W        W34912  44.427   8.858   4.328
75619W        W34913  19.211  29.998  14.505
75620W        W34914   7.754  36.474   2.182
75621W        W34915  24.130  36.442   0.915
75622W        W34916  43.932  17.638  13.524
75623W        W34917  29.448  34.434   2.677
75624W        W34918  38.970  26.072  14.281
75625W        W34919  34.996  24.026   5.278
75626W        W34920  33.403  10.756   1.889
75627W        W34921  42.777  14.686  12.009
75628W        W34922   7.912   4.246   2.242
75629W        W34923  27.138  42.442   0.906
75630W        W34924  36.904  18.636  14.437
75631W        W34925  32.072  24.592   0.951
75632W        W34926  10.862  39.876   4.781
75633W        W34927  13.179  18.176  12.842
75634W        W34928   6.790  30.493   5.260
75635W        W34929  27.583  25.043   3.337
75636W        W34930  40.901   7.788  10.474
75637W        W34931  23.565   3.805   2.279
75638W        W34932   6.300  10.375  13.422
75639W        W34933   0.494  12.778   0.798
75640W        W34934  24.140  26.117  14.832
75641W        W34935  32.124  33.613  10.934
75642W        W34936   3.846  35.063   3.755
75643W        W34937  13.725  10.177  12.505
75644W        W34938  40.472  44.835  11.582
75645W        W34939   3.216  23.018   2.259
75646W        W34940   8.758  16.600  10.993
75647W        W34941  41.920  39.872   2.750
75648W        W34942  28.464   1.978   1.272
75649W        W34943  38.980  27.191   3.791
75650W        W34944  20.098  26.571  12.520
75651W        W34945   1.967   6.273  14.916
75652W        W34946  38.514  11.352  11.872
75653W        W34947  24.117  39.812   2.688
75654W        W34948  35.361  40.887  14.850
75655W        W34949   7.768   3.326  12.030
75656W        W34950  25.201  14.627   2.718
75657W        W34951  19.278   4.920   2.799
75658W        W34952  20.576  22.097   4.685
75659W        W34953  37.495   8.225  12.038
75660W        W34954  27.618  19.103   1.437
75661W        W34955  32.583  39.937   0.404
75662W        W34956  31.529  13.619  12.396
75663W        W34957  41.334  29.023   4.295
75664W        W34958  11.825  23.134   3.691
75665W        W34959   4.223  43.510   3.773
75666W        W34960  20.684  10.790   4.232
75667W        W34961  11.335   0.767   4.619
75668W        W34962   2.373  24.649  11.422
75669W        W34963  17.675  39.464  10.920
75670W        W34964  28.944   6.840   0.817
75671W        W34965  26.189   7.207  13.030
75672W        W34966   4.433  34.432   2.792
75673W        W34967   7.351  18.672   2.704
75674W        W34968   6.371  19.194   9.637
75675W        W34969   6.344  20.156  14.929
75676W        W34970  16.798   5.326  14.778
75677W        W34971   3.260  11.755  14.833
75678W        W34972  22.207  42.310   3.707
75679W        W34973  14.641  22.597  14.453
75680W        W34974   7.746   5.269  10.999
75681W        W34975  28.447  16.586  12.429
75682W        W34976  41.387  21.516  12.885
75683W        W34977  24.087  10.777  13.386
75684W        W34978  35.530   6.754   3.828
75685W        W34979  26.055  36.070  12.082
75686W        W34980  36.453  20.047   0.471
75687W        W34981  27.494   1.476   3.220
75688W        W34982   3.942  36.556  11.465
75689W        W34983  30.162  19.105  14.835
75690W        W34984  11.703  17.791  13.011
75691W        W34985   3.409  13.196  12.378
75692W        W34986  17.594  10.294  13.011
75693W        W34987   3.228   3.732   4.759
75694W        W34988  25.190  24.572  13.849
75695W        W34989  10.156  10.646  11.453
75696W        W34990  23.089  36.991  11.053
75697W        W34991   4.257  29.130   2.271
75698W        W34992  39.852  17.073  14.305
75699W        W34993  31.412  14.227   5.199
75700W        W34994  25.650   0.758  10.587
75701W        W34995  42.304   4.226  10.506
75702W        W34996  27.041  28.130   1.255
75703W        W34997  42.820  33.009   2.301
75704W        W34998  38.470  38.072   4.328
75705W        W34999   1.474  26.618   4.150
75706W        W35000   2.394  38.909   4.129
75707W        W35001  44.350  14.118  11.421
75708W        W35002  44.858  34.913   0.900
75709W        W35003  34.115  19.274  10.603
75710W        W35004  10.812  17.720   2.787
75711W        W35005  42.010   6.916   4.741
75712W        W35006  34.376  40.816  11.937
75713W        W35007  32.119   1.404   2.784
75714W        W35008  39.407   9.864  13.357
75715W        W35009  17.213  29.070   0.888
75716W        W35010  41.512  23.615  10.617
75717W        W35011  20.768  21.643   3.682
75718W        W35012  31.078  22.517  11.080
75719W        W35013  20.055  15.684   9.930
75720W        W35014  24.016  13.149  10.614
75721W        W35015   5.417  13.313   0.809
75722W        W35016  10.326  20.742  14.334
75723W        W35017  34.563  31.992  12.038
75724W        W35018  28.546  43.457   3.254
75725W        W35019  13.730  36.920  10.974
75726W        W35020  18.092  16.195   2.826
75727W        W35021   7.828  38.843  12.069
75728W        W35022  12.353  33.485   2.356
75729W        W35023  37.872  36.390   2.902
75730W        W35024  28.541  38.483   9.962
75731W        W35025  41.980  22.623  14.492
75732W        W35026  22.514  38.461   0.913
75733W        W35027   4.327  16.681  11.375
75734W        W35028  27.450  22.026   2.223
75735W        W35029  15.147  34.378  13.897
75736W        W35030   8.877  30.931  13.912
75737W        W35031  18.654  10.358   0.480
75738W        W35032  34.014  36.097  12.395
75739W        W35033  28.076   8.189   1.865
75740W        W35034  36.485  24.664   1.789
75741W        W35035  41.033  27.545   1.239
75742W        W35036  35.989  31.956  10.580
75743W        W35037  22.121  18.661  11.954
75744W        W35038  18.771  34.970   3.317
75745W        W35039  44.345  21.172   2.243
75746W        W35040  43.436  33.447   1.889
75747W        W35041  10.771   2.899  11.503
75748W        W35042  32.012   2.408  10.622
75749W        W35043  25.497  36.396  13.020
75750W        W35044   3.796  16.578   2.862
75751W        W35045  26.162  26.607   3.648
75752W        W35046  16.600   6.259   2.379
75753W        W35047  23.652  10.310  11.949
75754W        W35048  15.650  18.286   3.330
75755W        W35049  39.368  29.431  14.456
75756W        W35050  41.422  26.091   0.854
75757W        W35051   8.288  15.630  13.355
75758W        W35052  33.912  43.885  14.825
75759W        W35053   4.204  31.910   3.180
75760W        W35054  16.749  41.532   1.325
75761W        W35055  43.329  28.083   0.763
75762W        W35056  40.848  44.929  12.887
75763W        W35057   6.201  17.649  12.454
75764W        W35058  18.242  34.452   2.845
75765W        W35059   0.392   2.265  12.350
75766W        W35060  42.869  25.641   0.343
75767W        W35061   7.838  42.908  11.406
75768W        W35062  16.617  18.185   3.710
75769W        W35063  26.476  33.059  13.508
75770W        W35064  34.120  37.370  11.389
75771W        W35065  35.101   6.683  13.461
75772W        W35066   0.359  25.048   1.883
75773W        W35067  39.842  33.395   0.281
75774W        W35068  20.131   2.773   2.892
75775W        W35069  21.039   2.322   4.699
75776W        W35070   9.385  25.970  11.999
75777W        W35071   5.354  13.341   1.305
75778W        W35072  10.813   6.189   1.905
75779W        W35073  14.734  25.504  14.417
75780W        W35074  16.223  32.130  13.440
75781W        W35075   1.334  17.082  13.857
75782W        W35076  13.198  41.491   1.816
75783W        W35077  36.096  31.563   4.222
75784W        W35078  44.343  28.169   3.655
75785W        W35079  19.196  43.327   2.869
75786W        W35080  35.862  25.074  13.885
75787W        W35081  11.843  24.181   3.263
75788W        W35082  22.218  30.434   0.432
75789W        W35083  31.513  39.813   1.218
75790W        W35084  43.375  27.450   3.152
75791W        W35085  26.033  38.535  14.783
75792W        W35086  12.290  25.216  11.545
75793W        W35087   0.793  10.878   1.411
75794W        W35088  36.528  23.224   4.272
75795W        W35089  35.467  10.687   2.396
75796W        W35090  38.444  11.784  11.581
75797W        W35091   8.657  18.635   3.715
75798W        W35092  28.058  25.130  11.012
75799W        W35093   4.257  21.133   0.813
75800W        W35094  18.272  35.095   2.398
75801W        W35095  32.577   0.350  10.568
75802W        W35096  24.719  40.388  10.475
75803W        W35097  35.362  25.043  11.004
75804W        W35098   1.923   2.727  10.420
75805W        W35099  24.537  26.655  14.967
75806W        W35100   6.376  13.803   0.359
75807W        W35101  36.064  20.684   2.254
75808W        W35102   7.748  14.601   1.356
75809W        W35103   6.800  29.947  12.060
75810W        W35104  12.211  41.022   2.720
75811W        W35105  14.657   1.420   1.445
75812W        W35106  11.301  11.784   3.383
75813W        W35107   3.810  23.700   5.130
75814W        W35108  28.160  22.741  11.042
75815W        W35109  36.582  28.076   2.178
75816W        W35110  44.373   0.381  13.895
75817W        W35111   2.945   9.739   1.910
75818W        W35112  11.368   9.729   0.271
75819W        W35113  32.971  28.485  10.583
75820W        W35114  30.437   3.411  11.094
75821W        W35115  36.888   8.771   1.281
75822W        W35116   4.903  37.028  12.018
75823W        W35117  41.816   7.682   1.424
75824W        W35118  21.555  11.183   3.798
75825W        W35119  15.271  15.667  10.991
75826W        W35120  18.095   3.273  14.407
75827W        W35121  37.082  15.584  11.406
75828W        W35122  16.156   4.858   0.437
75829W        W35123  40.476  20.579  13.480
75830W        W35124  40.432  35.493  14.322
75831W        W35125   2.442  22.719   1.308
75832W        W35126   4.256  41.942  12.429
75833W        W35127  32.979  24.205  12.464
75834W        W35128  41.995  40.809  12.524
75835W        W35129  29.021   3.282  11.105
75836W        W35130  29.134  10.872  14.329
75837W        W35131  26.696  22.735   2.178
75838W        W35132  39.459   8.831   4.750
75839W        W35133   5.774   4.865  14.027
75840W        W35134  13.132  14.271   3.204
75841W        W35135  18.267  25.187   1.733
75842W        W35136   9.285  39.850  14.290
75843W        W35137  32.430   6.223   2.885
75844W        W35138   1.399  10.656   0.274
75845W        W35139  20.547  13.614  14.873
75846W        W35140  26.473  12.124  13.439
75847W        W35141  20.117  12.288   2.878
75848W        W35142  32.940  31.121  13.863
75849W        W35143  17.677  43.354  12.998
75850W        W35144  29.465  41.367  13.503
75851W        W35145   0.757  31.092  10.516
75852W        W35146  11.313   5.359   4.227
75853W        W35147  40.905   6.399   3.828
75854W        W35148  30.152  39.936  13.340
75855W        W35149   5.871  34.101  12.465
75856W        W35150   7.867  16.141   2.846
75857W        W35151  20.722  29.143  11.452
75858W        W35152  35.917  30.020  14.988
75859W        W35153  29.051  15.651  13.900
75860W        W35154  41.444   6.888  14.845
75861W        W35155  30.635  30.607  11.592
75862W        W35156  32.542  35.885   1.357
75863W        W35157  18.623  23.091  11.447
75864W        W35158   1.368  31.055  13.380
75865W        W35159  39.447  26.675  12.070
75866W        W35160  11.626  32.094   2.684
75867W        W35161  33.470  41.041   2.399
75868W        W35162  15.634  33.989  10.977
75869W        W35163  16.312  23.535   0.781
75870W        W35164  25.501   6.263   3.693
75871W        W35165  32.614   9.853   0.792
75872W        W35166  13.786  29.999  12.446
75873W        W35167  40.884  36.886   1.366
75874W        W35168   7.730  29.927  10.066
75875W        W35169  14.169  11.712   0.850
75876W        W35170   3.233   0.896  11.491
75877W        W35171  38.836  29.981   2.191
75878W        W35172  32.598  29.663  11.127
75879W        W35173  41.388  40.956  12.940
75880W        W35174  34.864  22.561  11.536
75881W        W35175  36.452  38.968   9.963
75882W        W35176  19.636  32.623  13.988
75883W        W35177  40.423  31.502  14.498
75884W        W35178  26.591  29.489   2.817
75885W        W35179  44.448  44.779   4.613
75886W        W35180  12.669  42.020   0.371
75887W        W35181  42.845  37.085  12.030
75888W        W35182  16.699  35.930  13.798
75889W        W35183   8.721  14.701   2.667
75890W        W35184   1.799  27.556  11.609
75891W        W35185  21.644  11.625  13.486
75892W        W35186  13.680  44.907   1.314
75893W        W35187  23.574  32.901   3.848
75894W        W35188   0.837  25.993  13.403
75895W        W35189  22.532  26.566  13.321
75896W        W35190  18.188  34.445  14.955
75897W        W35191  40.412  12.315  13.344
75898W        W35192   3.753   8.257   4.321
75899W        W35193   9.220  13.730   4.661
75900W        W35194  22.636  31.526   1.326
75901W        W35195  17.205  11.868  12.094
75902W        W35196  33.421   5.316   0.830
75903W        W35197  32.393  11.648   2.224
75904W        W35198  10.832  44.893  14.813
75905W        W35199  29.953  17.296  14.010
75906W        W35200  22.193  16.714   1.355
75907W        W35201  11.314   8.893   0.773
75908W        W35202  32.563   5.258  13.334
75909W        W35203  17.570   5.412  11.107
75910W        W35204  31.152   2.408   0.481
75911W        W35205  41.964  37.902   0.246
75912W        W35206  14.191  36.419  10.924
75913W        W35207  27.544   6.712   4.755
75914W        W35208  36.480  27.634   4.815
75915W        W35209  35.043  31.026   3.855
75916W        W35210  28.002  21.249   1.275
75917W        W35211  33.427  13.140  13.947
75918W        W35212  12.276  33.978   5.095
75919W        W35213   9.284  34.526  12.053
75920W        W35214  34.500   7.201  14.485
75921W        W35215  14.785   2.844   2.712
75922W        W35216   5.411  28.627   0.883
75923W        W35217  12.722  22.668  14.758
75924W        W35218   5.805  43.871  14.468
75925W        W35219  31.936  43.359  12.448
75926W        W35220  18.685   9.717   1.868
75927W        W35221  40.851  15.733   0.885
75928W        W35222  10.848  41.019   3.843
75929W        W35223  41.384  14.636  14.896
75930W        W35224   8.815  40.430  14.427
75931W        W35225  35.461  31.444  12.018
75932W        W35226  26.055  41.796  11.429
75933W        W35227  44.801  42.010   2.845
75934W        W35228  33.028  11.259   1.267
75935W        W35229  36.471  10.311   0.934
75936W        W35230  16.158   0.257   1.356
75937W        W35231  27.654  34.387  10.571
75938W        W35232   7.774  44.266   9.940
75939W        W35233  42.829  37.455  13.993
75940W        W35234  41.470  21.586   2.785
75941W        W35235  14.807  36.005   0.448
75942W        W35236  31.580   3.946  13.465
75943W        W35237   1.360  23.046  13.368
75944W        W35238  37.940  34.422  11.915
75945W        W35239  21.120  25.142  12.938
75946W        W35240  42.947  24.519   2.882
75947W        W35241  39.387  24.605  12.993
75948W        W35242   4.742   2.380   4.212
75949W        W35243  13.802   5.933  12.388
75950W        W35244  22.123   8.892   2.190
75951W        W35245  17.615  37.500   3.763
75952W        W35246  30.559   3.292   0.435
75953W        W35247  15.694  19.168  14.906
75954W        W35248   9.823  14.178   3.639
75955W        W35249  35.908  38.048   3.200
75956W        W35250   6.811  25.145   3.223
75957W        W35251  12.646  44.922  11.572
75958W        W35252  32.607  35.071   1.753
75959W        W35253  19.695  18.297   0.429
75960W        W35254  28.963   0.473   1.776
75961W        W35255  37.420   4.852   5.225
75962W        W35256   3.940  27.104   0.903
75963W        W35257  43.771  22.691   4.144
75964W        W35258  34.979   0.347  13.807
75965W        W35259  15.784  18.769   1.349
75966W        W35260  19.616  13.334   5.100
75967W        W35261  40.409   6.844  14.314
75968W        W35262   9.673  12.768   2.900
75969W        W35263  36.928  13.160  13.818
75970W        W35264   7.887  25.524  14.870
75971W        W35265  34.084  30.158  13.002
75972W        W35266  44.832  39.952   3.719
75973W        W35267  10.691  37.482   3.354
75974W        W35268  19.567   7.890  14.279
75975W        W35269  24.725  30.533   0.916
75976W        W35270  30.548  23.031   3.855
75977W        W35271   3.307  18.753  14.398
75978W        W35272  44.434  36.359   2.331
75979W        W35273  33.877   7.277   3.348
75980W        W35274  33.080  18.153  13.369
75981W        W35275  27.978   5.755   3.808
75982W        W35276  22.646  26.049   0.471
75983W        W35277  29.039  42.338   4.269
75984W        W35278   0.465  31.624   0.811
75985W        W35279  19.243  16.233   2.849
75986W        W35280  39.365  13.828  14.000
75987W        W35281  43.441  26.498  11.007
75988W        W35282  27.662  19.228   3.227
75989W        W35283   7.681  28.162  10.149
75990W        W35284   9.168   8.396   4.610
75991W        W35285  17.636  43.852   2.783
75992W        W35286  42.836  17.306   3.653
75993W        W35287  30.104  34.049  12.856
75994W        W35288  14.760   6.757  11.523
75995W        W35289   0.772  17.715  14.404
75996W        W35290   7.670   9.378   3.840
75997W        W35291  33.597  32.592   3.266
75998W        W35292  32.109  18.288  13.534
75999W        W35293  43.976  39.015  12.924
76000W        W35294   0.372  31.108   3.790
76001W        W35295  18.791  14.609   2.197
76002W        W35296   7.802  38.527  10.573
76003W        W35297  40.411   9.884  14.766
76004W        W35298  26.128  35.972   4.628
76005W        W35299  16.635  41.954   3.273
76006W        W35300  32.531  38.881   3.262
76007W        W35301  20.699  25.019   1.759
76008W        W35302  35.989   2.729   0.406
76009W        W35303   3.324  38.533  10.138
76010W        W35304  27.986  31.521  10.424
76011W        W35305   9.370   8.180   4.329
76012W        W35306  13.347  33.623  10.411
76013W        W35307  26.483  22.654  14.968
76014W        W35308  15.746   0.443   0.330
76015W        W35309  28.504   1.742  12.908
76016W        W35310   9.157  33.468  13.531
76017W        W35311   9.220  15.174  10.921
76018W        W35312   6.797  31.081   5.319
76019W        W35313  18.296  31.522  12.354
76020W        W35314  39.491  20.161   4.184
76021W        W35315  24.485  19.625  14.440
76022W        W35316  20.096  39.489   4.627
76023W        W35317  12.221  22.235   4.819
76024W        W35318   3.743  17.117   1.904
76025W        W35319  13.621  44.829  13.395
76026W        W35320  28.146  28.042   4.795
76027W        W35321   9.234  11.178  12.571
76028W        W35322   5.742  14.634   4.711
76029W        W35323  12.271  34.038   4.617
76030W        W35324  33.087  42.462  11.081
76031W        W35325  12.248  37.484  14.448
76032W        W35326  11.155   5.402  11.098
76033W        W35327   5.731  32.918   9.996
76034W        W35328  42.004  30.471  12.453
76035W        W35329  30.447   2.825  10.546
76036W        W35330  31.935  27.961   1.856
76037W        W35331   4.345   7.179  10.440
76038W        W35332  44.768  30.659   4.658
76039W        W35333  32.992  11.211  13.465
76040W        W35334  18.292  26.532   3.236
76041W        W35335  37.344   9.833  10.603
76042W        W35336  35.503  30.474   0.390
76043W        W35337  39.038  14.768  12.931
76044W        W35338  36.903  15.744   1.801
76045W        W35339  29.089  30.470  13.046
76046W        W35340   8.253  29.480   4.155
76047W        W35341  16.760  33.926   4.205
76048W        W35342   4.834   6.745   1.278
76049W        W35343  22.604   4.295  11.532
76050W        W35344  24.090  42.332   0.915
76051W        W35345  12.676   7.803   4.821
76052W        W35346   7.328  39.554   3.154
76053W        W35347  21.540  32.494   4.203
76054W        W35348  42.415  40.316  10.950
76055W        W35349  29.579  37.436   0.438
76056W        W35350  36.448  33.895   5.755
76057W        W35351   1.970   8.403  13.372
76058W        W35352  21.578  15.268  10.624
76059W        W35353  34.564   6.272  13.996
76060W        W35354  35.055  41.876   0.777
76061W        W35355  35.070  38.437   3.333
76062W        W35356  40.495  32.071  14.875
76063W        W35357   7.673   8.764  10.994
76064W        W35358  31.454  31.116   4.764
76065W        W35359   9.314   2.815   2.857
76066W        W35360  29.003  43.375  13.371
76067W        W35361  32.134  10.223  11.448
76068W        W35362   4.772  24.008  14.811
76069W        W35363  27.508  38.381   3.210
76070W        W35364  17.681  13.633   3.750
76071W        W35365  33.060  39.410   4.711
76072W        W35366  22.241  25.149   0.272
76073W        W35367  10.712  37.870   3.815
76074W        W35368  42.333   5.865  10.895
76075W        W35369   6.783  44.932  12.831
76076W        W35370  12.826   3.814   2.753
76077W        W35371   2.854  11.296   3.326
76078W        W35372  42.909  12.230   3.661
76079W        W35373  33.931  40.334   2.324
76080W        W35374  40.440  38.528  10.551
76081W        W35375  14.692  26.148   3.635
76082W        W35376  24.087   7.314   3.379
76083W        W35377  13.758  28.954  10.607
76084W        W35378  17.127  18.782  14.957
76085W        W35379  22.508  41.980  12.474
76086W        W35380  31.498  40.380   1.764
76087W        W35381  43.302  22.543  12.523
76088W        W35382  14.173  26.635  12.423
76089W        W35383  35.060  25.000   2.229
76090W        W35384   0.259  39.349   3.154
76091W        W35385  38.429  18.270   0.302
76092W        W35386  42.382   9.193   0.398
76093W        W35387  29.578  38.869  12.836
76094W        W35388  22.733  44.379  11.927
76095W        W35389  44.377  30.153   1.908
76096W        W35390  27.050  18.106  11.918
76097W        W35391  34.987   7.792  14.465
76098W        W35392  10.777   6.795  12.393
76099W        W35393  42.402  29.081   0.757
76100W        W35394  23.105   2.941   4.763
76101W        W35395  41.373  33.017  11.425
76102W        W35396   4.259  26.493  11.544
76103W        W35397  35.487  25.108  12.492
76104W        W35398  33.102  33.422  13.026
76105W        W35399  38.847  26.144   2.717
76106W        W35400  20.243   2.914   4.344
76107W        W35401   8.368  39.983   4.316
76108W        W35402  40.374  23.102   1.836
76109W        W35403   6.908  24.171  14.900
76110W        W35404  29.097  38.481  13.042
76111W        W35405  11.667  31.990   0.364
76112W        W35406  18.083  21.694  13.987
76113W        W35407  37.031  39.064   2.827
76114W        W35408  25.478  32.076  11.413
76115W        W35409  15.643  28.136  10.540
76116W        W35410  17.172  42.401   4.835
76117W        W35411  44.865   5.366   4.762
76118W        W35412   7.177   4.913   1.336
76119W        W35413  31.607  23.162   0.400
76120W        W35414  31.034  40.371   3.639
76121W        W35415  18.050  24.587   1.710
76122W        W35416  27.941  22.602   9.993
76123W        W35417  37.384  42.900   4.821
76124W        W35418  34.386  29.432   0.949
76125W        W35419  18.109  14.777  13.452
76126W        W35420   8.865  35.077  13.497
76127W        W35421   2.294  13.743  14.824
76128W        W35422  43.467  35.045   3.726
76129W        W35423  38.933  20.093  13.470
76130W        W35424  26.513  31.046   3.723
76131W        W35425   8.354  23.139  14.854
76132W        W35426  10.698  34.465  14.780
76133W        W35427   2.904   7.811  14.369
76134W        W35428  10.765  32.119   0.736
76135W        W35429  34.416  23.158   4.672
76136W        W35430  11.313  37.967  14.276
76137W        W35431   5.746  23.573  11.495
76138W        W35432  27.164  40.907  14.015
76139W        W35433   4.298   7.219   2.211
76140W        W35434  10.747  14.334   1.933
76141W        W35435  26.640   6.406  14.948
76142W        W35436  15.102  21.646  13.535
76143W        W35437  41.509  12.328  13.999
76144W        W35438  26.703   0.960   2.224
76145W        W35439  42.482  40.804  13.975
76146W        W35440  16.246  28.987   2.386
76147W        W35441  28.458  11.860  10.560
76148W        W35442   9.349  20.677  14.005
76149W        W35443  11.838  35.417  11.860
76150W        W35444  35.560  15.249  13.913
76151W        W35445  16.074   1.915  13.328
76152W        W35446  11.251  35.459   2.240
76153W        W35447  43.860  37.070   3.371
76154W        W35448  44.871  19.639   2.308
76155W        W35449  10.684  10.865  13.436
76156W        W35450  27.021  18.288   3.730
76157W        W35451  13.269  28.079   1.821
76158W        W35452  30.654  22.220  13.906
76159W        W35453  30.012  24.161  11.482
76160W        W35454  29.934  15.807   4.192
76161W        W35455  31.408  13.216  11.577
76162W        W35456  12.687  32.395   3.810
76163W        W35457  32.446  22.142   4.311
76164W        W35458  28.154   6.208  14.907
76165W        W35459  27.172  40.003   0.935
76166W        W35460  23.596  24.515  13.394
76167W        W35461  40.902  24.694   1.850
76168W        W35462   6.684  16.678   4.218
76169W        W35463  25.083   7.346   4.756
76170W        W35464  14.835  19.121  10.617
76171W        W35465   8.301  29.106   4.189
76172W        W35466  37.035  37.366  11.384
76173W        W35467  36.034  40.404  12.084
76174W        W35468  22.233  42.927   4.702
76175W        W35469  42.887  10.819   0.461
76176W        W35470  13.190  21.681   4.839
76177W        W35471  23.992   9.871  12.978
76178W        W35472  32.592  17.624  13.020
76179W        W35473  12.676   9.355   0.894
76180W        W35474  32.120  24.168   3.696
76181W        W35475  27.535  41.995  10.960
76182W        W35476   8.230  13.310  13.426
76183W        W35477  22.057  14.227  11.001
76184W        W35478  37.003  39.940  10.904
76185W        W35479  27.471  18.546   2.284
76186W        W35480  36.490  20.198  14.480
76187W        W35481  28.049  34.523  10.532
76188W        W35482  39.881  22.246  13.385
76189W        W35483  28.185  13.160   1.414
76190W        W35484   5.913   3.289  12.910
76191W        W35485   6.221   3.370   4.185
76192W        W35486   8.188  30.529   0.887
76193W        W35487  10.307  31.627   1.291
76194W        W35488  42.405   7.308   3.364
76195W        W35489  26.172  13.185  12.561
76196W        W35490  32.625  18.643   2.277
76197W        W35491   9.805   9.735   1.406
76198W        W35492   5.863   9.374   0.320
76199W        W35493  29.634   2.810  13.345
76200W        W35494  29.635  31.513   1.407
76201W        W35495  29.497   9.295   0.951
76202W        W35496  27.448  12.650  13.880
76203W        W35497  44.790  36.524   4.750
76204W        W35498  29.072   3.404   3.730
76205W        W35499  14.666  16.643   3.853
76206W        W35500  29.111   8.400  14.311
76207NA+    NA+35501   4.783  11.713   1.362
76208NA+    NA+35502  11.345  41.854   2.403
76209NA+    NA+35503  26.703  37.989  10.617
76210NA+    NA+35504   0.838  15.770   4.624
76211NA+    NA+35505  13.834   8.243  13.905
76212NA+    NA+35506  33.591   9.770  12.485
76213NA+    NA+35507   8.848  25.984   1.340
76214NA+    NA+35508  34.914  28.669   3.652
76215NA+    NA+35509  43.412   3.416  12.354
76216NA+    NA+35510  25.626   8.191   3.783
76217NA+    NA+35511  32.020   8.675  13.946
76218NA+    NA+35512  32.939  14.133  12.469
76219NA+    NA+35513  16.720  40.877  11.411
76220NA+    NA+35514  30.124  29.919  10.942
76221NA+    NA+35515  41.791   3.892   3.182
76222NA+    NA+35516  25.588  26.008  14.998
76223NA+    NA+35517  44.321  37.025   1.820
76224NA+    NA+35518  17.712   7.198  14.867
76225NA+    NA+35519   6.399  15.211   1.390
76226NA+    NA+35520  13.624  24.533   0.739
76227NA+    NA+35521   9.295  36.442  13.867
76228NA+    NA+35522  29.433  31.063   1.237
76229NA+    NA+35523  44.774  10.287   1.717
76230NA+    NA+35524  14.237   5.716   2.771
76231NA+    NA+35525  29.102   5.709   2.754
76232NA+    NA+35526   7.258  34.060   3.353
76233NA+    NA+35527  39.020  44.480   3.344
76234NA+    NA+35528   5.357  16.204   4.821
76235NA+    NA+35529  21.750  31.559  11.918
76236NA+    NA+35530  27.028  28.436   3.819
76237NA+    NA+35531   2.381   0.978   4.822
76238NA+    NA+35532   2.868   4.713  13.955
76239NA+    NA+35533  29.581   0.880   3.824
76240NA+    NA+35534   0.877  27.184   3.707
76241NA+    NA+35535  39.523  31.028   1.887
76242NA+    NA+35536  14.291  38.954   2.319
76243NA+    NA+35537  43.994  36.346  14.955
76244NA+    NA+35538  28.980  34.979   4.176
76245NA+    NA+35539  13.688  20.107  13.909
76246NA+    NA+35540  34.013  23.665  13.047
76247NA+    NA+35541  23.182   6.717   2.812
76248NA+    NA+35542  28.960   0.359  10.492
76249NA+    NA+35543  33.902  29.450  11.393
76250NA+    NA+35544   1.422   0.442   5.803
76251NA+    NA+35545  23.550  12.825  10.539
76252NA+    NA+35546  10.795  34.916   0.782
76253NA+    NA+35547  22.015  41.475   3.368
76254NA+    NA+35548  17.115  34.378  13.530
76255NA+    NA+35549  27.660  16.170  14.303
76256NA+    NA+35550   5.409  42.280  14.306
76257NA+    NA+35551   3.870  20.691   1.392
76258NA+    NA+35552  31.645  35.054  10.997
76259NA+    NA+35553  40.384  27.688  11.548
76260NA+    NA+35554  25.108  21.180   0.291
76261NA+    NA+35555  15.811  36.966  13.966
76262NA+    NA+35556   9.696  36.548  14.916
76263NA+    NA+35557  34.433  16.661  10.547
76264NA+    NA+35558  16.265   1.471   4.641
76265NA+    NA+35559   6.214  24.561  12.880
76266NA+    NA+35560   5.418  22.640  11.560
76267NA+    NA+35561   1.842  11.668  11.515
76268NA+    NA+35562  12.662   4.757  12.074
76269NA+    NA+35563  19.094  13.113   0.897
76270NA+    NA+35564  31.981  20.215  10.577
76271NA+    NA+35565  10.848  34.041   4.240
76272NA+    NA+35566  31.425  35.093   1.831
76273NA+    NA+35567  10.203  12.187   3.238
76274NA+    NA+35568  25.018   5.732   4.636
76275NA+    NA+35569  33.485  23.536   1.326
76276NA+    NA+35570   6.693  22.176   2.853
76277NA+    NA+35571  11.738  26.195   4.760
76278NA+    NA+35572  42.799  28.548  11.009
76279NA+    NA+35573  19.571  19.722   0.320
76280NA+    NA+35574  25.029  41.345   3.193
76281NA+    NA+35575  12.780  24.610  10.416
76282NA+    NA+35576  12.339  16.170  14.873
76283NA+    NA+35577   5.831   8.160   4.157
76284NA+    NA+35578  44.872  35.044  13.351
76285NA+    NA+35579   8.166  42.851  12.513
76286NA+    NA+35580   3.741  35.064   3.303
76287NA+    NA+35581  17.746   6.848  14.468
76288NA+    NA+35582  38.363  25.138  14.511
76289NA+    NA+35583  41.021   9.809   3.721
76290NA+    NA+35584  28.560  35.893   1.821
76291NA+    NA+35585  27.460  44.331   4.820
76292NA+    NA+35586  11.755  16.710   4.703
76293NA+    NA+35587  14.699  10.746  10.915
76294NA+    NA+35588  36.528   0.838  14.326
76295NA+    NA+35589  34.471  19.261   3.258
76296NA+    NA+35590  37.903  33.900   4.218
76297NA+    NA+35591  44.459  22.090  13.312
76298NA+    NA+35592   7.192  11.372  12.541
76299NA+    NA+35593  11.233  23.094  10.591
76300NA+    NA+35594  39.419  14.787  11.092
76301NA+    NA+35595   1.836  13.785  13.908
76302NA+    NA+35596   9.736  11.834  14.901
76303NA+    NA+35597   8.720  13.694   4.274
76304NA+    NA+35598  43.999   7.283  12.385
76305NA+    NA+35599  33.939   4.423   1.264
76306NA+    NA+35600  36.550  33.877   5.316
76307NA+    NA+35601  13.204  23.707   2.817
76308NA+    NA+35602  31.092  13.844   1.289
76309NA+    NA+35603  31.112  11.724   0.411
76310NA+    NA+35604   2.369  20.039  11.555
76311NA+    NA+35605  24.999  42.833   3.656
76312NA+    NA+35606  42.302  31.443  13.495
76313NA+    NA+35607  37.543   7.193  13.378
76314NA+    NA+35608   0.861  38.341  14.932
76315NA+    NA+35609  26.093   9.186  13.861
76316NA+    NA+35610   2.273  37.061  11.582
76317NA+    NA+35611  35.379  37.381   3.371
76318NA+    NA+35612  25.185  24.551  12.012
76319NA+    NA+35613  41.459  29.625  13.423
76320NA+    NA+35614  38.463  39.522   3.693
76321NA+    NA+35615  42.289   8.368   1.444
76322NA+    NA+35616  33.074   1.461   1.343
76323NA+    NA+35617  30.991  21.624  11.389
76324NA+    NA+35618  40.006   9.704  12.570
76325NA+    NA+35619   5.347  30.418   0.372
76326NA+    NA+35620  32.428  15.252   0.343
76327NA+    NA+35621   6.764  28.029  11.461
76328NA+    NA+35622   5.796  19.281  14.378
76329NA+    NA+35623  34.437  28.147  12.872
76330NA+    NA+35624  26.612  27.101  14.281
76331NA+    NA+35625  34.106  36.974   2.774
76332NA+    NA+35626  24.045  35.391   2.343
76333NA+    NA+35627  21.559  43.984  13.817
76334NA+    NA+35628  24.147  33.556  14.984
76335NA+    NA+35629  23.986  33.972  10.445
76336NA+    NA+35630   2.831  36.003   0.937
76337NA+    NA+35631  32.002  33.398   4.746
76338NA+    NA+35632  22.035   6.911   2.322
76339NA+    NA+35633  34.003  28.595  13.334
76340NA+    NA+35634  21.226   4.395  13.931
76341NA+    NA+35635   1.815   7.863  13.445
76342NA+    NA+35636  15.581  44.262   2.776
76343NA+    NA+35637  27.132  33.435  11.612
76344NA+    NA+35638  38.387   7.267  12.953
76345NA+    NA+35639  39.487  31.088   4.250
76346NA+    NA+35640  16.697   5.912   1.923
76347NA+    NA+35641  21.702  20.622  13.859
76348NA+    NA+35642  39.412  27.639   0.408
76349NA+    NA+35643  23.630   3.220  14.450
76350NA+    NA+35644  28.186  35.927   3.325
76351NA+    NA+35645   3.808  22.657   0.314
76352NA+    NA+35646  44.317  41.506  11.547
76353NA+    NA+35647  26.644  42.437  14.502
76354NA+    NA+35648   5.294  38.545   0.365
76355NA+    NA+35649   1.341  36.035   1.216
76356NA+    NA+35650  18.626   7.768   1.252
76357NA+    NA+35651   9.343   5.329  10.946
76358NA+    NA+35652  17.731  44.940  13.504
76359NA+    NA+35653   8.735   6.733   3.780
76360NA+    NA+35654  40.950  15.209  11.872
76361NA+    NA+35655  39.870  21.156   2.202
76362NA+    NA+35656  39.344   3.824   0.731
76363NA+    NA+35657  44.388  33.512  14.498
76364NA+    NA+35658  32.032  17.071   4.177
76365NA+    NA+35659  17.066  35.913   1.326
76366NA+    NA+35660  37.531  42.857   5.287
76367NA+    NA+35661  21.577  20.522   3.272
76368NA+    NA+35662  42.321   9.193  11.439
76369NA+    NA+35663  12.310  29.624  11.931
76370NA+    NA+35664  14.689   7.235  11.515
76371NA+    NA+35665  41.955  34.561  14.361
76372NA+    NA+35666  23.518  11.801  13.946
76373NA+    NA+35667  19.730   9.876  13.900
76374NA+    NA+35668  34.540   7.788  13.958
76375NA+    NA+35669  38.054  27.600  11.092
76376NA+    NA+35670  13.168   7.674  10.942
76377NA+    NA+35671  31.105  16.676   0.318
76378NA+    NA+35672  23.180  36.032  13.336
76379NA+    NA+35673  26.537   3.859  11.549
76380NA+    NA+35674   3.921  14.613  11.871
76381NA+    NA+35675   1.855  31.543   1.774
76382NA+    NA+35676  28.663   8.329   1.711
76383NA+    NA+35677  10.361  26.666   1.918
76384NA+    NA+35678  12.701  24.122   2.883
76385NA+    NA+35679  15.612   0.287   1.902
76386NA+    NA+35680   7.262  22.006   4.835
76387NA+    NA+35681  21.747  15.265   4.599
76388NA+    NA+35682  25.700  16.282   2.883
76389NA+    NA+35683  19.728  44.869   1.260
76390NA+    NA+35684  26.986   5.786   1.296
76391NA+    NA+35685   1.238  19.264  10.922
76392NA+    NA+35686  18.053   4.709   3.697
76393NA+    NA+35687  36.531  38.058  11.857
76394NA+    NA+35688   7.356  40.965  14.421
76395NA+    NA+35689  40.523  17.699  11.388
76396NA+    NA+35690  40.953  29.982  14.930
76397NA+    NA+35691  44.356  27.026  14.319
76398NA+    NA+35692  26.120  42.029   2.780
76399NA+    NA+35693   3.343  17.247  14.870
76400NA+    NA+35694  37.373  13.637   0.933
76401NA+    NA+35695  36.444  38.393   2.323
76402NA+    NA+35696   2.787  31.148  12.471
76403NA+    NA+35697  18.069  28.546  11.077
76404NA+    NA+35698  28.436   7.727   1.780
76405NA+    NA+35699  42.829   7.358  14.832
76406NA+    NA+35700   8.180  25.123  14.900
76407NA+    NA+35701   3.339   0.966  11.993
76408NA+    NA+35702   6.274  39.855   2.381
76409NA+    NA+35703   2.353  28.063   0.810
76410NA+    NA+35704   0.901  31.631  11.863
76411NA+    NA+35705  22.200  27.969   3.168
76412NA+    NA+35706   2.407  19.684  14.790
76413NA+    NA+35707  19.218  43.350  10.461
76414NA+    NA+35708  37.581  17.583  11.950
76415NA+    NA+35709  19.628  36.533   5.115
76416NA+    NA+35710  28.023  31.047  11.976
76417NA+    NA+35711  13.616  15.607   0.442
76418NA+    NA+35712  14.813   5.293   0.920
76419NA+    NA+35713   6.843  43.499   5.212
76420NA+    NA+35714  10.667  38.464  10.576
76421NA+    NA+35715  37.831  37.417  10.486
76422NA+    NA+35716   4.340  23.591   5.149
76423NA+    NA+35717  35.538  28.127   2.376
76424NA+    NA+35718  29.996  21.737  12.470
76425NA+    NA+35719  18.074   9.809   0.776
76426NA+    NA+35720   3.741  20.092  11.949
76427NA+    NA+35721   9.771  32.559  14.307
76428NA+    NA+35722  38.368  36.526   3.157
76429NA+    NA+35723  31.001  23.516  11.953
76430NA+    NA+35724   7.786  29.012  14.349
76431NA+    NA+35725  22.731  43.819   2.254
76432NA+    NA+35726  35.372  41.008  13.874
76433NA+    NA+35727   7.812  17.696   4.717
76434NA+    NA+35728  19.085   4.272   3.353
76435NA+    NA+35729  30.074   1.893  14.934
76436NA+    NA+35730  10.840  33.923   3.354
76437NA+    NA+35731  34.553  18.064  14.307
76438NA+    NA+35732  36.021  38.349  12.080
76439NA+    NA+35733   3.436   2.322   1.923
76440NA+    NA+35734  19.077   7.683   3.804
76441NA+    NA+35735  29.530  18.611   4.651
76442NA+    NA+35736  29.962  16.189   4.748
76443NA+    NA+35737   1.923  29.536   3.768
76444NA+    NA+35738   3.788  18.668  14.939
76445NA+    NA+35739  25.678  19.683  14.829
76446NA+    NA+35740   4.438   2.268  14.492
76447NA+    NA+35741  22.617   1.285  13.009
76448NA+    NA+35742   4.397  12.628  10.418
76449NA+    NA+35743  43.878   5.890   0.289
76450NA+    NA+35744  14.130   1.373  13.474
76451NA+    NA+35745  30.498  18.072  14.976
76452NA+    NA+35746   9.702  15.735   3.713
76453NA+    NA+35747  31.425  32.400  13.963
76454NA+    NA+35748  18.571   9.748   2.334
76455NA+    NA+35749  13.655   6.767  10.416
76456NA+    NA+35750  40.365  11.275  13.450
76457NA+    NA+35751   3.728   4.305  12.377
76458NA+    NA+35752  12.344  40.804  12.026
76459NA+    NA+35753  44.892  10.171   1.440
76460NA+    NA+35754  29.128  44.826   1.717
76461NA+    NA+35755  27.132  23.696   1.442
76462NA+    NA+35756  34.504   1.951  14.990
76463NA+    NA+35757  24.132  38.937   1.236
76464NA+    NA+35758  21.257   5.839   3.325
76465NA+    NA+35759  21.049  38.435  13.940
76466NA+    NA+35760  36.953  15.276  13.997
76467NA+    NA+35761  29.628  24.707  11.950
76468NA+    NA+35762  16.229  24.560   0.444
76469NA+    NA+35763  36.886  12.119   4.221
76470NA+    NA+35764  39.997  37.941   0.915
76471NA+    NA+35765  14.281   6.722   0.956
76472NA+    NA+35766  13.240  37.445  13.819
76473NA+    NA+35767  16.597  39.050  10.911
76474NA+    NA+35768  40.349  19.203   1.273
76475NA+    NA+35769  11.161  20.089  10.887
76476NA+    NA+35770  26.495  31.028  12.343
76477NA+    NA+35771   1.852  43.864   4.625
76478NA+    NA+35772  33.465  26.650  12.021
76479NA+    NA+35773   0.869  17.157  13.033
76480NA+    NA+35774  41.520  41.533   4.201
76481NA+    NA+35775  14.323  11.167  10.509
76482NA+    NA+35776  28.533   0.839  13.030
76483NA+    NA+35777  18.672  34.505   0.258
76484NA+    NA+35778  14.179  38.437  13.508
76485NA+    NA+35779  12.817   1.818   3.372
76486NA+    NA+35780   7.683  30.122  11.070
76487NA+    NA+35781  23.130  38.352  14.833
76488NA+    NA+35782  24.571  43.842   1.770
76489NA+    NA+35783  13.788  14.591  12.350
76490NA+    NA+35784  25.624   0.917   3.756
76491NA+    NA+35785  34.427  41.879   4.631
76492NA+    NA+35786   7.331   4.717   0.954
76493NA+    NA+35787  20.123  12.839  10.963
76494NA+    NA+35788  32.601  13.814   0.802
76495NA+    NA+35789  19.575  24.692  10.440
76496NA+    NA+35790  19.264  19.538   1.698
76497NA+    NA+35791  30.139  30.447  13.889
76498NA+    NA+35792  10.363  23.730   2.403
76499NA+    NA+35793  34.944  36.024   0.441
76500NA+    NA+35794  20.253  19.191   5.294
76501NA+    NA+35795  38.432  43.774  11.401
76502NA+    NA+35796   0.302  30.434  10.483
76503NA+    NA+35797  25.086  43.437  10.468
76504NA+    NA+35798   1.430  27.651  12.390
76505NA+    NA+35799  44.400  17.714  12.859
76506NA+    NA+35800  39.832  23.237   0.469
76507NA+    NA+35801  15.181  17.742  13.439
76508NA+    NA+35802   6.420  10.646  10.947
76509NA+    NA+35803  38.537  12.784  14.410
76510NA+    NA+35804  14.230  44.473   4.121
76511NA+    NA+35805  32.539  31.474   0.913
76512NA+    NA+35806  29.484  40.340   0.259
76513NA+    NA+35807  29.467  22.046   1.412
76514NA+    NA+35808  24.571  43.449   3.195
76515NA+    NA+35809  24.108   6.710   9.991
76516NA+    NA+35810  15.215  40.832  14.321
76517NA+    NA+35811  31.636  19.739  14.028
76518NA+    NA+35812  39.058  15.724   3.792
76519NA+    NA+35813  19.551  16.597   3.850
76520NA+    NA+35814  29.430  16.761  11.026
76521NA+    NA+35815  37.526  28.130  12.477
76522NA+    NA+35816  44.769  27.631  13.960
76523NA+    NA+35817   6.251  36.972  12.861
76524NA+    NA+35818  11.372  38.828  11.941
76525NA+    NA+35819  17.269   3.882   0.296
76526NA+    NA+35820  11.271  37.048  12.018
76527NA+    NA+35821  35.912  10.238   0.331
76528NA+    NA+35822  22.110  23.022  14.338
76529NA+    NA+35823  33.412  27.109   2.879
76530NA+    NA+35824  14.137  14.625  13.792
76531NA+    NA+35825  30.157  43.819  14.958
76532NA+    NA+35826   5.258  27.079  11.491
76533NA+    NA+35827  12.344   2.232  12.909
76534NA+    NA+35828  13.697   8.237   1.879
76535NA+    NA+35829  16.613   7.267   0.840
76536NA+    NA+35830   9.176  41.506  10.896
76537NA+    NA+35831  12.708   0.249  10.992
76538NA+    NA+35832  16.134  43.895   4.780
76539NA+    NA+35833   3.360  27.082  11.510
76540NA+    NA+35834  27.033  42.839  13.060
76541NA+    NA+35835  20.049  19.705   0.300
76542NA+    NA+35836  39.988  41.482  12.998
76543NA+    NA+35837  17.655  44.422  11.082
76544NA+    NA+35838  30.917  31.148   0.881
76545NA+    NA+35839  40.504  41.968   1.735
76546NA+    NA+35840  17.289  18.716   5.136
76547NA+    NA+35841  41.381   9.243   2.769
76548NA+    NA+35842   2.896  37.555   3.205
76549NA+    NA+35843   3.253  13.315   0.405
76550NA+    NA+35844  29.541  13.161  12.920
76551NA+    NA+35845  35.417  17.148   3.326
76552NA+    NA+35846   7.864  25.005   3.689
76553NA+    NA+35847   3.458  10.823  11.934
76554NA+    NA+35848  38.389   8.334   4.294
76555NA+    NA+35849  18.757  13.109   4.653
76556NA+    NA+35850  10.326  17.166   4.782
76557NA+    NA+35851  25.499   5.325  10.962
76558NA+    NA+35852  21.084   5.245   1.363
76559NA+    NA+35853  37.451  36.918   1.798
76560NA+    NA+35854  16.718  44.977   2.191
76561NA+    NA+35855  12.167  25.045  13.529
76562NA+    NA+35856  20.639  27.459  13.408
76563NA+    NA+35857  23.686   4.803   1.748
76564NA+    NA+35858  39.324  25.489   0.297
76565NA+    NA+35859   7.363  35.413  10.408
76566NA+    NA+35860  34.888   9.760  10.487
76567NA+    NA+35861  41.830  14.787   1.323
76568NA+    NA+35862  12.129  44.310   1.773
76569NA+    NA+35863  38.918  32.582  13.992
76570NA+    NA+35864  29.018  25.702  10.499
76571NA+    NA+35865  17.575  14.600   2.843
76572NA+    NA+35866   2.365   7.761  11.946
76573NA+    NA+35867   0.292  21.197  10.517
76574NA+    NA+35868  21.535  17.306   0.411
76575NA+    NA+35869  34.086  27.107   0.269
76576NA+    NA+35870  11.315  22.034   3.189
76577NA+    NA+35871  44.467   2.383   0.263
76578NA+    NA+35872   8.728  43.838  12.528
76579NA+    NA+35873  28.007  34.546  11.115
76580NA+    NA+35874  35.468   8.238  12.468
76581NA+    NA+35875   3.721  24.015  11.506
76582NA+    NA+35876  28.600   4.253  11.605
76583NA+    NA+35877  25.695  37.502  12.496
76584NA+    NA+35878   5.881  24.106   3.833
76585NA+    NA+35879  25.157  11.318   3.148
76586NA+    NA+35880  42.512   5.260  14.435
76587NA+    NA+35881   0.780  42.402   1.815
76588NA+    NA+35882  36.909  35.109   2.725
76589NA+    NA+35883  36.883   2.228   4.638
76590NA+    NA+35884  39.895  23.021  10.520
76591NA+    NA+35885  31.936  29.499  11.591
76592NA+    NA+35886  12.262  31.978  13.471
76593NA+    NA+35887   2.880  34.119   2.416
76594NA+    NA+35888  17.743   4.753   0.406
76595NA+    NA+35889  36.368  25.197   0.336
76596NA+    NA+35890  16.077  26.197   3.374
76597NA+    NA+35891  42.364  31.058   0.402
76598NA+    NA+35892  16.122  44.843  10.992
76599NA+    NA+35893  32.137  38.965  11.063
76600NA+    NA+35894   8.809  22.540   1.827
76601NA+    NA+35895  37.042  40.504   4.796
76602NA+    NA+35896  19.594  28.965  13.950
76603NA+    NA+35897  39.877  16.225   4.143
76604NA+    NA+35898  17.226   4.329   4.648
76605NA+    NA+35899  20.246  42.885  12.468
76606NA+    NA+35900   5.706   8.300  10.432
76607NA+    NA+35901  39.810   1.830   4.819
76608NA+    NA+35902   6.790  29.175   5.094
76609NA+    NA+35903  15.314  15.286  14.275
76610NA+    NA+35904  14.629  37.925   2.804
76611NA+    NA+35905  42.498  37.480   2.419
76612NA+    NA+35906   0.820  25.555  13.848
76613NA+    NA+35907   6.331   2.808   2.261
76614NA+    NA+35908  16.261  28.013  12.968
76615NA+    NA+35909   8.778   5.293   2.706
76616NA+    NA+35910  21.039   7.171  11.522
76617NA+    NA+35911  16.232  41.898  10.991
76618NA+    NA+35912   1.960  33.390  12.481
76619NA+    NA+35913   5.415   1.739  11.961
76620NA+    NA+35914  36.514  15.691   1.308
76621NA+    NA+35915   0.898  36.581  12.880
76622NA+    NA+35916  38.048  22.680   1.830
76623NA+    NA+35917  43.786   5.732  13.548
76624NA+    NA+35918  44.913  25.531   2.244
76625NA+    NA+35919  14.229  18.608   0.266
76626NA+    NA+35920  27.541  15.171  14.799
76627NA+    NA+35921  34.073  44.009  14.415
76628NA+    NA+35922   1.935  29.050  11.430
76629NA+    NA+35923  44.284   7.777  14.848
76630NA+    NA+35924  17.792  26.553  13.997
76631NA+    NA+35925   5.712  21.179   2.706
76632NA+    NA+35926  22.669   1.251   1.404
76633NA+    NA+35927  32.499  44.845  10.484
76634NA+    NA+35928  44.410  39.346   0.354
76635NA+    NA+35929  34.556  19.200  10.893
76636NA+    NA+35930   8.670  33.066   1.845
76637NA+    NA+35931  11.361  26.487   1.707
76638NA+    NA+35932  16.710   7.358   3.815
76639NA+    NA+35933  37.382  27.652   0.818
76640NA+    NA+35934  24.015  19.689   4.817
76641NA+    NA+35935  19.157   1.267   2.384
76642NA+    NA+35936   0.979  33.427  10.450
76643NA+    NA+35937  32.618  21.049  14.844
76644NA+    NA+35938  11.741  13.157   0.882
76645NA+    NA+35939  10.367   6.359   4.117
76646NA+    NA+35940  34.876  20.660  13.904
76647NA+    NA+35941  29.035  19.195  12.928
76648NA+    NA+35942   5.354  44.345  14.819
76649NA+    NA+35943   2.912  40.534  10.642
76650NA+    NA+35944   3.441  36.493   4.824
76651NA+    NA+35945   9.709  43.459  10.431
76652NA+    NA+35946   1.386  37.023  11.872
76653NA+    NA+35947  14.119   1.828  11.129
76654NA+    NA+35948  15.111  24.655  13.886
76655NA+    NA+35949   8.773   4.873   0.740
76656NA+    NA+35950  31.994   4.378   0.929
76657NA+    NA+35951  30.994   3.916  12.571
76658NA+    NA+35952  22.642  36.438  12.397
76659NA+    NA+35953  29.987   3.262  14.817
76660NA+    NA+35954  32.126  37.465   1.351
76661NA+    NA+35955  32.401  14.640  12.837
76662NA+    NA+35956  23.666  13.126   0.374
76663NA+    NA+35957  16.184  44.330   0.246
76664NA+    NA+35958  13.745  40.939   1.891
76665NA+    NA+35959  43.938   6.788   0.864
76666NA+    NA+35960   7.414   4.877   2.180
76667NA+    NA+35961  27.103  11.356   0.928
76668NA+    NA+35962   3.367  42.868   1.421
76669NA+    NA+35963  10.270  26.657  11.995
76670NA+    NA+35964  38.397   3.384  10.420
76671NA+    NA+35965  37.836  29.532   0.395
76672NA+    NA+35966   2.241  22.703   3.295
76673NA+    NA+35967  10.793  13.226  13.470
76674NA+    NA+35968  40.385  26.680   3.630
76675NA+    NA+35969  33.976   5.396   2.390
76676NA+    NA+35970  39.975   7.205   0.928
76677NA+    NA+35971   4.323   9.715  11.504
76678NA+    NA+35972  20.258  32.495   3.743
76679NA+    NA+35973  25.554  42.491  12.991
76680NA+    NA+35974  19.114  28.955  12.573
76681NA+    NA+35975  32.512  35.969  11.552
76682NA+    NA+35976   8.316  21.105   9.632
76683NA+    NA+35977  34.101  13.204  12.911
76684NA+    NA+35978  34.898   1.766  13.988
76685NA+    NA+35979  34.522   6.825   4.723
76686NA+    NA+35980  24.992  16.646  14.449
76687NA+    NA+35981   3.277  34.581   3.258
76688NA+    NA+35982  23.241  11.239   0.378
76689NA+    NA+35983  27.104  20.679  12.364
76690NA+    NA+35984  34.866  41.860  13.394
76691NA+    NA+35985   9.360   2.366  12.451
76692NA+    NA+35986  25.549  13.654   0.329
76693NA+    NA+35987   8.386  16.222  13.485
76694NA+    NA+35988  35.097  14.230   4.799
76695NA+    NA+35989  19.164  24.640  12.532
76696NA+    NA+35990  39.442  40.322  11.439
76697NA+    NA+35991  42.029  44.880   2.766
76698NA+    NA+35992  38.527  44.357  11.545
76699NA+    NA+35993   9.257  19.096   0.436
76700NA+    NA+35994   9.214   5.297  10.532
76701NA+    NA+35995  42.989  30.635  14.980
76702NA+    NA+35996  34.411  23.550   0.942
76703NA+    NA+35997  40.479  16.285  11.538
76704NA+    NA+35998  35.932   4.411   1.800
76705NA+    NA+35999   8.295  41.918  12.501
76706NA+    NA+36000  22.518  35.052  12.555
76707NA+    NA+36001   5.339  14.185   0.318
76708NA+    NA+36002  38.413  39.525   1.288
76709NA+    NA+36003  20.729  21.562   1.315
76710NA+    NA+36004  39.412  23.163   3.343
76711NA+    NA+36005  37.574   3.887   3.665
76712NA+    NA+36006   1.966  38.462  14.992
76713NA+    NA+36007   6.333  36.552   4.682
76714NA+    NA+36008  18.124  25.621  14.276
76715NA+    NA+36009  43.279  30.458  13.425
76716NA+    NA+36010  28.472  42.866   1.880
76717NA+    NA+36011  24.203  44.431  14.282
76718NA+    NA+36012  24.598  15.601   2.218
76719NA+    NA+36013  20.115  12.815  12.457
76720NA+    NA+36014   2.728  20.108   1.349
76721NA+    NA+36015  40.481  12.793  14.985
76722NA+    NA+36016  40.027  35.971  11.468
76723NA+    NA+36017  20.213  15.711  10.513
76724NA+    NA+36018  21.163   4.312  10.424
76725NA+    NA+36019  41.410   7.828  13.976
76726NA+    NA+36020  17.066  23.015  10.124
76727NA+    NA+36021  26.060  23.551   1.422
76728NA+    NA+36022  25.625  19.536   3.313
76729NA+    NA+36023  23.213   5.860   3.737
76730NA+    NA+36024  30.136  17.193  10.936
76731NA+    NA+36025   0.249   5.260   3.684
76732NA+    NA+36026  41.494   2.750  13.327
76733NA+    NA+36027  12.660  17.064  10.954
76734NA+    NA+36028  27.453   4.407   1.235
76735NA+    NA+36029  21.066  30.645  11.109
76736NA+    NA+36030  13.747  11.133   1.698
76737NA+    NA+36031  26.585   5.192  11.478
76738NA+    NA+36032  25.036  30.432  11.988
76739NA+    NA+36033  14.244  34.999   5.146
76740NA+    NA+36034  32.065   8.848  12.418
76741NA+    NA+36035  39.905  32.954  13.058
76742NA+    NA+36036  14.231  11.130   0.355
76743NA+    NA+36037  43.796  32.085   5.180
76744NA+    NA+36038  20.191  34.905   0.321
76745NA+    NA+36039   8.239  28.005   3.833
76746NA+    NA+36040  10.815  22.565  14.955
76747NA+    NA+36041   1.901  29.555   0.951
76748NA+    NA+36042   5.829  26.573  12.991
76749NA+    NA+36043  12.193   4.421   0.315
76750NA+    NA+36044   3.771  34.482   3.301
76751NA+    NA+36045   7.689  25.119   1.733
76752NA+    NA+36046   7.306  30.920  14.862
76753NA+    NA+36047   6.398  29.526   4.802
76754NA+    NA+36048  32.570   1.786   3.811
76755NA+    NA+36049  27.183  22.690   1.749
76756NA+    NA+36050  38.533  17.657  13.807
76757NA+    NA+36051  38.450  25.072  14.852
76758NA+    NA+36052   8.238  36.980  11.580
76759NA+    NA+36053   1.303  27.647  13.954
76760NA+    NA+36054  13.614  17.211   2.341
76761NA+    NA+36055  10.374   8.383   4.354
76762NA+    NA+36056  14.241  22.187  14.956
76763NA+    NA+36057   6.367   1.381  12.490
76764NA+    NA+36058  30.105   7.848  14.453
76765NA+    NA+36059  38.372  36.546  12.351
76766NA+    NA+36060   1.735  24.088   2.301
76767NA+    NA+36061  37.868  25.129   3.818
76768NA+    NA+36062  25.470  29.505   1.379
76769NA+    NA+36063   6.871  14.832   0.274
76770NA+    NA+36064  35.994   0.827   2.731
76771NA+    NA+36065  37.860   5.924  11.024
76772NA+    NA+36066   2.467  43.781   0.867
76773NA+    NA+36067  39.506  42.829   3.175
76774NA+    NA+36068   7.839  39.326  11.579
76775NA+    NA+36069   1.916   9.316  10.562
76776NA+    NA+36070  16.750  30.165  14.510
76777NA+    NA+36071  25.095  31.119  11.388
76778NA+    NA+36072  28.139  13.332   2.812
76779NA+    NA+36073  10.844   3.807   0.347
76780NA+    NA+36074  37.389  18.570  14.804
76781NA+    NA+36075   7.191  37.067  14.312
76782NA+    NA+36076  43.901  41.793  11.945
76783NA+    NA+36077   0.463  23.083  12.406
76784NA+    NA+36078  15.664  34.044  13.943
76785NA+    NA+36079  18.168   0.464   4.354
76786NA+    NA+36080  17.180  25.683   2.893
76787NA+    NA+36081  27.528  19.745  13.316
76788NA+    NA+36082   3.299  31.959   3.723
76789NA+    NA+36083  17.130   3.311   3.852
76790NA+    NA+36084  12.237  37.556  12.505
76791NA+    NA+36085  27.675  15.690   2.297
76792NA+    NA+36086  25.128  39.406  13.891
76793NA+    NA+36087  20.246  31.081   0.345
76794NA+    NA+36088  19.625  44.341   2.236
76795NA+    NA+36089   5.701   8.871  11.971
76796NA+    NA+36090  16.263  24.049   0.838
76797NA+    NA+36091  32.990  19.110  11.591
76798NA+    NA+36092   1.857  29.920  14.412
76799NA+    NA+36093   3.227  21.133  11.900
76800NA+    NA+36094  31.448   3.406  11.466
76801NA+    NA+36095   1.288  21.128  14.853
76802NA+    NA+36096  23.093  38.959   3.150
76803NA+    NA+36097  19.260  11.310  12.479
76804NA+    NA+36098  11.139   7.791   0.327
76805NA+    NA+36099   1.431  42.522   0.256
76806NA+    NA+36100  38.945  41.411   3.173
76807NA+    NA+36101  28.597  32.049   0.404
76808NA+    NA+36102  31.131   3.898   1.709
76809NA+    NA+36103  36.953  16.691   0.899
76810NA+    NA+36104   1.405  22.735  11.504
76811NA+    NA+36105  19.259  13.710   4.619
76812NA+    NA+36106  13.656  18.208  11.108
76813NA+    NA+36107  29.446  16.312  10.501
76814NA+    NA+36108  23.152   4.331   3.351
76815NA+    NA+36109   6.322  35.951  11.394
76816NA+    NA+36110  13.250   3.752   4.799
76817NA+    NA+36111  21.226  27.581  11.513
76818NA+    NA+36112  20.245   5.277  12.037
76819NA+    NA+36113  40.461  13.753  11.111
76820NA+    NA+36114  36.439   0.876  10.495
76821NA+    NA+36115  27.964  26.478   3.791
76822NA+    NA+36116  34.051   3.424   0.944
76823NA+    NA+36117  27.012  17.651  11.559
76824NA+    NA+36118  37.086  33.084  14.297
76825NA+    NA+36119  17.612   3.951   2.740
76826NA+    NA+36120  44.475  42.368   4.773
76827NA+    NA+36121  30.953  35.960  10.939
76828NA+    NA+36122  37.515  40.541  14.864
76829NA+    NA+36123  12.808  44.337  10.409
76830NA+    NA+36124   7.241  29.009   1.861
76831NA+    NA+36125  33.880  22.026   2.248
76832NA+    NA+36126  35.916  22.515   0.420
76833NA+    NA+36127  14.277  20.076  11.593
76834NA+    NA+36128  43.922  20.680  13.518
76835NA+    NA+36129  38.466  35.045   2.231
76836NA+    NA+36130  37.972   0.250  10.601
76837NA+    NA+36131   5.724  17.710   0.960
76838NA+    NA+36132  28.112  13.716  14.345
76839NA+    NA+36133  41.433   2.345   4.652
76840NA+    NA+36134  29.138  20.537   4.810
76841NA+    NA+36135   6.823   7.833  14.400
76842NA+    NA+36136  42.789  15.110   2.361
76843NA+    NA+36137  40.822  13.814   0.779
76844NA+    NA+36138  33.573  35.559  13.499
76845NA+    NA+36139  44.407   4.435  13.524
76846NA+    NA+36140  19.040   0.984  12.404
76847NA+    NA+36141  29.027   4.741   0.431
76848NA+    NA+36142   3.402  18.155   4.641
76849NA+    NA+36143  10.202  42.018  14.818
76850NA+    NA+36144  27.967  16.701   2.751
76851NA+    NA+36145   2.313  16.172   4.193
76852NA+    NA+36146  28.441   3.446  10.999
76853NA+    NA+36147  21.669  12.121   1.859
76854NA+    NA+36148  13.634  31.063  14.895
76855NA+    NA+36149  24.202  36.407   3.310
76856NA+    NA+36150  30.148  43.929  10.499
76857NA+    NA+36151  15.289   0.358  12.936
76858NA+    NA+36152  41.929  38.994  13.879
76859NA+    NA+36153  29.480  37.857   0.899
76860NA+    NA+36154  17.166  17.630  14.936
76861NA+    NA+36155  17.705   8.888   1.451
76862NA+    NA+36156  28.503  37.487  12.366
76863NA+    NA+36157   8.884  24.691   0.298
76864NA+    NA+36158  24.089  31.603  13.004
76865NA+    NA+36159  36.091  29.160   4.778
76866NA+    NA+36160  41.870  39.054   0.865
76867NA+    NA+36161  14.150   5.862  14.318
76868NA+    NA+36162  37.948   2.907   1.414
76869NA+    NA+36163  19.698  30.053  13.546
76870NA+    NA+36164  23.054  43.985  11.069
76871NA+    NA+36165   2.364  31.953  13.963
76872NA+    NA+36166  17.667   4.871   1.744
76873NA+    NA+36167  28.104  36.475  13.986
76874NA+    NA+36168   4.816  22.537  13.880
76875NA+    NA+36169   3.311  35.417  12.463
76876NA+    NA+36170  10.294  11.702   1.697
76877NA+    NA+36171  14.829  43.851   4.759
76878NA+    NA+36172   9.769   8.342  13.965
76879NA+    NA+36173  24.669   4.339   0.964
76880NA+    NA+36174  30.497  11.730   2.879
76881NA+    NA+36175  19.177  31.125  13.476
76882NA+    NA+36176  25.171  15.792  10.939
76883NA+    NA+36177  27.454  44.391  13.903
76884NA+    NA+36178  15.671  11.737  10.605
76885NA+    NA+36179   1.411  21.118  10.566
76886NA+    NA+36180   5.251  40.835  11.999
76887NA+    NA+36181  37.909  27.196   3.335
76888NA+    NA+36182   3.449  10.241  12.380
76889NA+    NA+36183  29.063  44.265  12.520
76890NA+    NA+36184  40.517   6.276   5.086
76891NA+    NA+36185   2.797  43.870   1.243
76892NA+    NA+36186  28.989  24.646  12.887
76893NA+    NA+36187  28.064  32.102   4.732
76894NA+    NA+36188  19.740  44.397  13.498
76895NA+    NA+36189  39.370   2.233   1.254
76896NA+    NA+36190  33.474  39.550  11.611
76897NA+    NA+36191  18.769   2.943   0.943
76898NA+    NA+36192  37.917  22.089   1.716
76899NA+    NA+36193  21.083   7.403  13.004
76900NA+    NA+36194  25.069  17.126  13.059
76901NA+    NA+36195  16.209  40.041  10.955
76902NA+    NA+36196  40.505  37.542   4.648
76903NA+    NA+36197  30.483  43.843  10.554
76904NA+    NA+36198  40.838  29.955  12.546
76905NA+    NA+36199  33.573  14.825   2.711
76906NA+    NA+36200  31.060   0.836  10.406
76907NA+    NA+36201  12.178   9.824  12.485
76908NA+    NA+36202  18.573  25.189   0.327
76909NA+    NA+36203  42.526   6.872   3.315
76910NA+    NA+36204  41.363  28.514  13.519
76911NA+    NA+36205  38.453  31.057   1.426
76912NA+    NA+36206   4.758   5.386  13.940
76913NA+    NA+36207   9.346  34.609  11.482
76914NA+    NA+36208  39.982  35.065   1.336
76915NA+    NA+36209  40.027  31.116   0.745
76916NA+    NA+36210  34.461  20.708  11.533
76917NA+    NA+36211   9.348  37.460   3.707
76918NA+    NA+36212  15.319  26.021  12.893
76919NA+    NA+36213   7.286  41.444   2.326
76920NA+    NA+36214   8.381  10.213   4.624
76921NA+    NA+36215  41.460   3.273   0.414
76922NA+    NA+36216  24.097  20.701  13.508
76923NA+    NA+36217  33.078  21.632   3.846
76924NA+    NA+36218   8.794  27.031  14.890
76925NA+    NA+36219  13.654  31.599  13.415
76926NA+    NA+36220  39.469  32.624  11.925
76927NA+    NA+36221   5.907  43.885  12.030
76928NA+    NA+36222  30.924  26.143   3.844
76929NA+    NA+36223  29.512  41.847  12.514
76930NA+    NA+36224  32.047  25.695   3.205
76931NA+    NA+36225  35.909  19.077   1.755
76932NA+    NA+36226  28.567  11.632  12.075
76933NA+    NA+36227   5.751  44.474   1.777
76934NA+    NA+36228   9.695  30.928  10.966
76935NA+    NA+36229   6.301  10.147  11.917
76936NA+    NA+36230  40.833  42.420   4.314
76937NA+    NA+36231  23.725  13.267   3.385
76938NA+    NA+36232  18.551  26.006   4.194
76939NA+    NA+36233  14.683  19.638  11.382
76940NA+    NA+36234  14.290  11.787  14.944
76941NA+    NA+36235  11.789  19.168   1.710
76942NA+    NA+36236  38.036  19.684   2.352
76943NA+    NA+36237   9.862  28.980  13.473
76944NA+    NA+36238  12.124  25.029  11.033
76945NA+    NA+36239  11.175  11.262   2.390
76946NA+    NA+36240   4.915  23.631   3.281
76947NA+    NA+36241  38.052   9.357   3.807
76948NA+    NA+36242  17.201  23.632  12.065
76949NA+    NA+36243  16.254  44.314  13.516
76950NA+    NA+36244   0.953  10.319  13.797
76951NA+    NA+36245  42.883  12.328  14.276
76952NA+    NA+36246  26.969  36.845   1.767
76953NA+    NA+36247   6.697  19.680   0.783
76954NA+    NA+36248  40.386  26.020  12.086
76955NA+    NA+36249   0.463   0.915  12.457
76956NA+    NA+36250  33.463   7.785  12.415
76957NA+    NA+36251  11.645  31.919  14.849
76958NA+    NA+36252   3.797  37.945   2.278
76959NA+    NA+36253  40.961  44.961  13.806
76960NA+    NA+36254  25.055  13.217  12.835
76961NA+    NA+36255  14.150  29.074   2.240
76962NA+    NA+36256  29.135  27.582   2.419
76963NA+    NA+36257  31.906  33.989   2.235
76964NA+    NA+36258  11.325  21.559   2.748
76965NA+    NA+36259  43.817  26.989   2.184
76966NA+    NA+36260  28.996  15.769  13.505
76967NA+    NA+36261  25.473  35.919   2.865
76968NA+    NA+36262   6.775   7.779   4.277
76969NA+    NA+36263  12.778  12.298  11.904
76970NA+    NA+36264   0.781  27.650  14.447
76971NA+    NA+36265  31.923  20.125   4.345
76972NA+    NA+36266  16.792   4.702   2.816
76973NA+    NA+36267  32.938  39.420  12.069
76974NA+    NA+36268  39.006  41.825   1.853
76975NA+    NA+36269  12.227  36.878   2.306
76976NA+    NA+36270  35.454  25.483  11.519
76977NA+    NA+36271  23.212  41.421  10.518
76978NA+    NA+36272   0.981  39.367  10.608
76979NA+    NA+36273   9.779   4.902   2.280
76980NA+    NA+36274  16.242  17.698  14.292
76981NA+    NA+36275  17.557  34.988   3.288
76982NA+    NA+36276  17.073  25.648  14.817
76983NA+    NA+36277  14.812  29.098  10.449
76984NA+    NA+36278   9.216  32.513  14.314
76985NA+    NA+36279  38.477  16.200   2.266
76986NA+    NA+36280  37.940  15.677   0.377
76987NA+    NA+36281  11.692  17.250  14.332
76988NA+    NA+36282  15.704  40.923  14.868
76989NA+    NA+36283   3.884  28.655  10.902
76990NA+    NA+36284  31.957  41.852   0.292
76991NA+    NA+36285  32.637  41.402  11.444
76992NA+    NA+36286  20.723   4.320   1.707
76993NA+    NA+36287  39.948  26.031  12.901
76994NA+    NA+36288  27.129   3.813   3.761
76995NA+    NA+36289  23.570  23.023   1.723
76996NA+    NA+36290  10.647  12.356  11.996
76997NA+    NA+36291   3.932   3.802  10.434
76998NA+    NA+36292  23.561  32.125  10.620
76999NA+    NA+36293   0.492   0.260  14.824
77000NA+    NA+36294  15.135  36.357  13.876
77001NA+    NA+36295  27.087  26.556  14.977
77002NA+    NA+36296  25.622  23.230   4.218
77003NA+    NA+36297   5.389  32.549  10.588
77004NA+    NA+36298   6.267   4.420   4.126
77005NA+    NA+36299   1.292  24.704   1.786
77006NA+    NA+36300  39.825  37.930  11.466
77007NA+    NA+36301  26.593   7.755  13.475
77008NA+    NA+36302   6.720  29.436  11.565
77009NA+    NA+36303  40.518  36.003  14.905
77010NA+    NA+36304   5.873  40.455   1.753
77011NA+    NA+36305  26.194   8.220  11.395
77012NA+    NA+36306  39.041  12.250   5.265
77013NA+    NA+36307  30.431  40.346   3.306
77014NA+    NA+36308  15.659  32.007  12.537
77015NA+    NA+36309  41.335  24.990  13.791
77016NA+    NA+36310  12.747   2.226   3.174
77017NA+    NA+36311  14.737  11.325  12.009
77018NA+    NA+36312  21.672  26.604  14.916
77019NA+    NA+36313   9.661  31.069   0.448
77020NA+    NA+36314  25.203  37.424  10.982
77021NA+    NA+36315  30.155  21.681  14.454
77022NA+    NA+36316   4.840  20.655   1.790
77023NA+    NA+36317  36.407  10.673  11.941
77024NA+    NA+36318  21.080  42.812   0.752
77025NA+    NA+36319  18.155   1.314  10.607
77026NA+    NA+36320  27.498  43.483  10.409
77027NA+    NA+36321   1.801   3.785   1.779
77028NA+    NA+36322   4.264   9.352  10.989
77029NA+    NA+36323  38.991  31.525   2.198
77030NA+    NA+36324  13.817  42.002  12.853
77031NA+    NA+36325  25.664  19.154   2.713
77032NA+    NA+36326  34.538  35.479   1.782
77033NA+    NA+36327  36.533  19.045   1.700
77034NA+    NA+36328   3.847  21.243   2.307
77035NA+    NA+36329   9.880  35.929  12.997
77036NA+    NA+36330  42.489  30.997   4.233
77037NA+    NA+36331   9.702   1.796   0.800
77038NA+    NA+36332   1.849  31.545   0.802
77039NA+    NA+36333  22.673  19.153  11.939
77040NA+    NA+36334  14.754   5.228  10.892
77041NA+    NA+36335   2.295  29.999   3.672
77042NA+    NA+36336  41.481  16.289   3.193
77043NA+    NA+36337  24.985  44.885   1.426
77044NA+    NA+36338  43.904  25.630   4.233
77045NA+    NA+36339  34.600   5.325  10.916
77046NA+    NA+36340  20.727   3.281   2.801
77047NA+    NA+36341  38.343  34.543  14.983
77048NA+    NA+36342   6.797   1.456  14.466
77049NA+    NA+36343  40.007  12.140   1.315
77050NA+    NA+36344   3.287   9.659   3.234
77051NA+    NA+36345  18.560  11.336  14.473
77052NA+    NA+36346  42.497  41.892  11.401
77053NA+    NA+36347  42.382  21.646  14.791
77054NA+    NA+36348   0.307   0.423  13.034
77055NA+    NA+36349  36.384   2.369   4.193
77056NA+    NA+36350  27.470   4.746   3.206
77057NA+    NA+36351  40.424  16.113  11.917
77058NA+    NA+36352  20.691   2.371  10.891
77059NA+    NA+36353   0.978  39.538   0.904
77060NA+    NA+36354  24.979  14.747  12.474
77061NA+    NA+36355  43.342  38.411   2.202
77062NA+    NA+36356   5.691   8.657  13.870
77063NA+    NA+36357  41.028   7.393  11.067
77064NA+    NA+36358  22.035   8.242  11.586
77065NA+    NA+36359  22.700   9.297   2.180
77066NA+    NA+36360   6.192  17.163  14.891
77067NA+    NA+36361  19.643  13.685  12.965
77068NA+    NA+36362  22.240  44.888  10.898
77069NA+    NA+36363  24.678   7.789   4.179
77070NA+    NA+36364  43.877  14.642   1.377
77071NA+    NA+36365  18.591  30.141  12.450
77072NA+    NA+36366  19.209  24.544   4.642
77073NA+    NA+36367  35.958  32.497   0.941
77074NA+    NA+36368  32.895  42.999   2.833
77075NA+    NA+36369  20.226   1.281  11.065
77076NA+    NA+36370  25.165  11.371   4.619
77077NA+    NA+36371  32.967   0.900   0.800
77078NA+    NA+36372  12.669  29.469   1.740
77079NA+    NA+36373  42.887  20.159  11.055
77080NA+    NA+36374   0.300  29.559  14.953
77081NA+    NA+36375  34.939   5.881   1.272
77082NA+    NA+36376  34.456   4.782  11.093
77083NA+    NA+36377  37.515   4.289   2.728
77084NA+    NA+36378  34.553   0.957   1.272
77085NA+    NA+36379  41.909  33.550   3.710
77086NA+    NA+36380   1.315  21.695  12.390
77087NA+    NA+36381   6.289  15.242  14.512
77088NA+    NA+36382  35.956  25.040  12.553
77089NA+    NA+36383   9.197   2.775   0.417
77090NA+    NA+36384  24.493  16.187   3.755
77091NA+    NA+36385  31.024  41.034   2.259
77092NA+    NA+36386   8.814  21.190   2.185
77093NA+    NA+36387  35.400  27.956   2.815
77094NA+    NA+36388  33.023  20.632   4.329
77095NA+    NA+36389   3.817  20.262   1.911
77096NA+    NA+36390   9.247  44.325   1.828
77097NA+    NA+36391  10.755  43.786  11.082
77098NA+    NA+36392  26.031  18.666   3.146
77099NA+    NA+36393  39.942  25.969   4.354
77100NA+    NA+36394  37.953  10.643  12.495
77101NA+    NA+36395   5.822   1.246   1.330
77102NA+    NA+36396  37.462  14.598   3.181
77103NA+    NA+36397   2.870   5.694   1.702
77104NA+    NA+36398  25.476  40.005   1.883
77105NA+    NA+36399  30.997  23.204  10.943
77106NA+    NA+36400  13.216  36.979   4.818
77107NA+    NA+36401   2.944  29.522  12.549
77108NA+    NA+36402   0.920   4.332   0.848
77109NA+    NA+36403  40.034  44.786   4.243
77110NA+    NA+36404  42.509  18.561   0.745
77111NA+    NA+36405   0.863   3.902   2.839
77112NA+    NA+36406   0.260  19.173  12.874
77113NA+    NA+36407  15.708  11.238   5.713
77114NA+    NA+36408  24.164   7.293  12.965
77115NA+    NA+36409   7.174  44.937   1.436
77116NA+    NA+36410  41.787  35.861  14.377
77117NA+    NA+36411  30.465  30.073   4.728
77118NA+    NA+36412  42.387  17.156   1.407
77119NA+    NA+36413  37.834  11.668  13.999
77120NA+    NA+36414   1.470  10.823  14.332
77121NA+    NA+36415  16.751  25.020   3.846
77122NA+    NA+36416  31.994  13.669  14.977
77123NA+    NA+36417  22.722  10.145   1.760
77124NA+    NA+36418  27.613   1.271  14.302
77125NA+    NA+36419   1.899  18.724  11.961
77126NA+    NA+36420  29.064  25.010  13.542
77127NA+    NA+36421  16.085  20.132   2.795
77128NA+    NA+36422  12.262  43.983  11.125
77129NA+    NA+36423  21.706  12.228   3.856
77130NA+    NA+36424  28.157  30.596  11.073
77131NA+    NA+36425  36.544  15.747  10.405
77132NA+    NA+36426  17.742   0.883   1.810
77133NA+    NA+36427   2.365  26.138   1.816
77134NA+    NA+36428  10.385   0.859   9.932
77135NA+    NA+36429   3.940   4.909  13.008
77136NA+    NA+36430  19.224  14.645  12.970
77137NA+    NA+36431  23.179  35.457  13.422
77138NA+    NA+36432   9.743  35.604  13.479
77139NA+    NA+36433   5.332   4.883  12.878
77140NA+    NA+36434  19.171  18.278   0.907
77141NA+    NA+36435  18.759  27.090   1.908
77142NA+    NA+36436  14.280  28.442  13.335
77143NA+    NA+36437  32.548  31.474  10.603
77144NA+    NA+36438  19.554  15.720  12.498
77145NA+    NA+36439  36.910   8.216  11.906
77146NA+    NA+36440  24.221   9.738   4.807
77147NA+    NA+36441  35.948  41.860  14.903
77148NA+    NA+36442  41.969   3.306  10.918
77149NA+    NA+36443  42.005   1.936   1.394
77150NA+    NA+36444   7.680  34.101   3.794
77151NA+    NA+36445  25.053  37.863   1.906
77152NA+    NA+36446   8.743  42.402   2.725
77153NA+    NA+36447  29.566   8.851   0.342
77154NA+    NA+36448   7.266   5.859   1.377
77155NA+    NA+36449   9.303  29.543  12.471
77156NA+    NA+36450  25.160  17.127  14.896
77157NA+    NA+36451  34.960  28.655   4.264
77158NA+    NA+36452  34.983  10.369  13.835
77159NA+    NA+36453  39.483  43.485  11.453
77160NA+    NA+36454  20.665  44.502   2.304
77161NA+    NA+36455   5.327  28.027  12.524
77162NA+    NA+36456  31.051  42.016  10.001
77163NA+    NA+36457  16.137   5.204   2.707
77164NA+    NA+36458  35.869  30.539   3.665
77165NA+    NA+36459  19.165  26.198  11.407
77166NA+    NA+36460  19.188   7.893  14.428
77167NA+    NA+36461  11.179  44.999   2.750
77168NA+    NA+36462  31.077  13.264   1.391
77169NA+    NA+36463  20.712  44.500  14.371
77170NA+    NA+36464  35.937  28.522  11.033
77171NA+    NA+36465  28.617  36.367  13.039
77172NA+    NA+36466   2.366  24.019   0.265
77173NA+    NA+36467  27.622  43.330   2.866
77174NA+    NA+36468   4.737  26.049  10.473
77175NA+    NA+36469  38.424   8.866   1.363
77176NA+    NA+36470   4.309  37.867  12.915
77177NA+    NA+36471  21.111  43.285   4.210
77178NA+    NA+36472   3.745   3.719  13.973
77179NA+    NA+36473  41.966  33.892  13.793
77180NA+    NA+36474   7.759   0.494  11.455
77181NA+    NA+36475  14.329   3.793  10.474
77182NA+    NA+36476  34.573  26.496  11.024
77183NA+    NA+36477   4.253  40.458   0.830
77184NA+    NA+36478  10.846  43.329  12.972
77185NA+    NA+36479  42.409  38.362   1.352
77186NA+    NA+36480  39.484  39.540   0.838
77187NA+    NA+36481  32.596  34.919  14.775
77188NA+    NA+36482   8.322  22.603  11.443
77189NA+    NA+36483  44.399  16.124  11.598
77190NA+    NA+36484  27.567  25.219   2.859
77191NA+    NA+36485  16.751   4.795   4.306
77192NA+    NA+36486   6.347  18.092  13.812
77193NA+    NA+36487  43.481  39.003  14.869
77194NA+    NA+36488  38.331  35.537  12.961
77195NA+    NA+36489   7.909  32.052   1.929
77196NA+    NA+36490  32.049   9.246  14.324
77197NA+    NA+36491   2.429  22.661   4.782
77198NA+    NA+36492   8.659   4.333  10.967
77199NA+    NA+36493  35.876  13.739   0.828
77200NA+    NA+36494  15.238  44.892   2.710
77201NA+    NA+36495  41.463  42.986  11.937
77202NA+    NA+36496  14.788  39.416   0.860
77203NA+    NA+36497   9.828   9.768  11.386
77204NA+    NA+36498  30.634  17.624  11.924
77205NA+    NA+36499  34.108  41.978   1.291
77206NA+    NA+36500  34.387   2.463  13.349
77207NA+    NA+36501  42.409  22.620   4.201
77208NA+    NA+36502  25.525  15.238   0.853
77209NA+    NA+36503   0.460  40.935  12.517
77210NA+    NA+36504  12.270  21.670   4.328
77211NA+    NA+36505   1.956  29.120   2.340
77212NA+    NA+36506  17.555  25.983  11.588
77213NA+    NA+36507  14.174  24.483  13.947
77214NA+    NA+36508   9.210  17.085  11.986
77215NA+    NA+36509  42.795  43.971   4.625
77216NA+    NA+36510  16.260  11.349   1.246
77217NA+    NA+36511  40.422  19.201  10.909
77218NA+    NA+36512  36.009   6.248   0.785
77219NA+    NA+36513  18.217  38.917  14.408
77220NA+    NA+36514  40.876  42.399  13.830
77221NA+    NA+36515   4.704  18.744   2.266
77222NA+    NA+36516  13.814  40.418   0.893
77223NA+    NA+36517  27.068   7.240  12.435
77224NA+    NA+36518  25.140  42.523   2.829
77225NA+    NA+36519   0.331  42.969  13.041
77226NA+    NA+36520  15.754  10.171  14.288
77227NA+    NA+36521  35.387  39.426   4.746
77228NA+    NA+36522   5.320  18.131  12.343
77229NA+    NA+36523   3.287  24.496   3.848
77230NA+    NA+36524   1.964  42.811   2.338
77231NA+    NA+36525  30.907  23.643  14.424
77232NA+    NA+36526   5.200   5.801  10.554
77233NA+    NA+36527  18.645  12.692  14.364
77234NA+    NA+36528  17.136  29.636   3.827
77235NA+    NA+36529  28.029  43.782  13.416
77236NA+    NA+36530  19.576   0.375  12.442
77237NA+    NA+36531  19.184  33.425   4.278
77238NA+    NA+36532  34.455  43.798   3.843
77239NA+    NA+36533  25.522  27.057   4.186
77240NA+    NA+36534   7.394  14.822   2.326
77241NA+    NA+36535  26.982  12.670   3.234
77242NA+    NA+36536  37.019  17.701   0.960
77243NA+    NA+36537  16.203  39.872  12.015
77244NA+    NA+36538  32.547  42.968  11.868
77245NA+    NA+36539  28.180  38.394   0.341
77246NA+    NA+36540   1.463  28.182   2.746
77247NA+    NA+36541  17.171  32.086  10.602
77248NA+    NA+36542  30.988  23.033  14.866
77249NA+    NA+36543  25.663  41.025   5.675
77250NA+    NA+36544  11.846  28.937  11.877
77251NA+    NA+36545  23.674  29.474  11.983
77252NA+    NA+36546   2.408  31.907   9.961
77253NA+    NA+36547  16.073   9.687  14.883
77254NA+    NA+36548   1.780  35.561   4.689
77255NA+    NA+36549  42.982   6.851   4.609
77256NA+    NA+36550  10.346  15.159   0.367
77257NA+    NA+36551   0.857  26.592  12.076
77258NA+    NA+36552  18.103  23.107   1.704
77259NA+    NA+36553  33.893   7.812  11.889
77260NA+    NA+36554   9.367  19.049   1.719
77261NA+    NA+36555  38.047   6.420  12.999
77262NA+    NA+36556  12.208  44.364  11.867
77263NA+    NA+36557  34.612  10.300   2.807
77264NA+    NA+36558  40.383   6.394  12.828
77265NA+    NA+36559  17.801  40.356  13.998
77266NA+    NA+36560  22.139  32.543  10.615
77267NA+    NA+36561  30.419  43.833  12.427
77268NA+    NA+36562  34.562  21.156  11.502
77269NA+    NA+36563  10.805  36.564   2.757
77270NA+    NA+36564  38.999  33.455   0.478
77271NA+    NA+36565  43.827   5.277   2.283
77272NA+    NA+36566  38.958  16.669  12.936
77273NA+    NA+36567  44.785   1.472  13.398
77274NA+    NA+36568   4.442  12.266  12.992
77275NA+    NA+36569   0.940  18.679  11.479
77276NA+    NA+36570  14.293  12.196   3.201
77277NA+    NA+36571   8.771  30.415  12.393
77278NA+    NA+36572  12.706  14.269  12.071
77279NA+    NA+36573   6.402   8.785   5.263
77280NA+    NA+36574  15.809  12.751   1.707
77281NA+    NA+36575  16.302  27.163  10.485
77282NA+    NA+36576  32.447  24.703  11.466
77283NA+    NA+36577  31.099  35.867   2.322
77284NA+    NA+36578  12.311  42.798  11.914
77285NA+    NA+36579   8.349  26.174  12.512
77286NA+    NA+36580  18.671  38.896  14.448
77287NA+    NA+36581  18.184  29.083   4.799
77288NA+    NA+36582  38.432  44.863   2.708
77289NA+    NA+36583   0.337  12.337   1.922
77290NA+    NA+36584  11.237  26.051   3.644
77291NA+    NA+36585  32.429  23.044  11.575
77292NA+    NA+36586   8.317  31.062  11.983
77293NA+    NA+36587  36.553  44.905  14.300
77294NA+    NA+36588  37.026   9.208  11.920
77295NA+    NA+36589  23.576  32.469   2.842
77296NA+    NA+36590  31.037  25.207   0.896
77297NA+    NA+36591   5.403   0.916   3.804
77298NA+    NA+36592  41.982  12.229  12.362
77299NA+    NA+36593  20.615  13.662  12.416
77300NA+    NA+36594  17.139  33.605  13.960
77301NA+    NA+36595  20.217  30.075   1.284
77302NA+    NA+36596  14.240   7.241  10.426
77303NA+    NA+36597   2.400  31.551  13.522
77304NA+    NA+36598  28.660   0.304  13.902
77305NA+    NA+36599  44.479  35.499  12.477
77306NA+    NA+36600  28.114  19.628   2.689
77307NA+    NA+36601  30.498  31.920  14.023
77308NA+    NA+36602  29.618  41.366   0.294
77309NA+    NA+36603  13.753  39.833   2.881
77310NA+    NA+36604  16.310  23.516  14.333
77311NA+    NA+36605  39.524  33.982   1.259
77312NA+    NA+36606  15.656  31.128  13.389
77313NA+    NA+36607  20.029  10.313  10.059
77314NA+    NA+36608  15.164  30.444   4.655
77315NA+    NA+36609  24.576  29.453  12.560
77316NA+    NA+36610  25.968  26.008   4.830
77317NA+    NA+36611  30.478   7.399   3.870
77318NA+    NA+36612   5.698   5.700  10.894
77319NA+    NA+36613  16.295  29.940  11.524
77320NA+    NA+36614  16.307  42.419   1.840
77321NA+    NA+36615  43.861   2.278  13.388
77322NA+    NA+36616  16.267  43.929  11.445
77323NA+    NA+36617  42.917  40.380   3.314
77324NA+    NA+36618  19.040  12.123   3.859
77325NA+    NA+36619  32.112   0.478   4.629
77326NA+    NA+36620  32.514  11.721  14.900
77327NA+    NA+36621  39.005  37.507  11.904
77328NA+    NA+36622  12.262   1.747  10.446
77329NA+    NA+36623  23.546  24.118  12.555
77330NA+    NA+36624   0.447  31.988   2.862
77331NA+    NA+36625  41.817  21.600  10.466
77332NA+    NA+36626  41.305  36.076  11.980
77333NA+    NA+36627  35.886  27.956  14.393
77334NA+    NA+36628  39.431  17.674  14.827
77335NA+    NA+36629  18.112   7.250   1.854
77336NA+    NA+36630   0.361   0.317   1.320
77337NA+    NA+36631  29.449  15.715   4.146
77338NA+    NA+36632   1.273  13.840   3.319
77339NA+    NA+36633   8.320  37.475   0.399
77340NA+    NA+36634   1.404  13.158   3.308
77341NA+    NA+36635  21.614   9.157   2.680
77342NA+    NA+36636  31.011  14.224   1.219
77343NA+    NA+36637  24.115  27.031  14.014
77344NA+    NA+36638   4.253  19.074  13.395
77345NA+    NA+36639  36.979   0.281   3.766
77346NA+    NA+36640  33.941  15.681   0.399
77347NA+    NA+36641  11.745  37.495   2.878
77348NA+    NA+36642  38.537  31.902  10.897
77349NA+    NA+36643  34.494   1.467  14.791
77350NA+    NA+36644   8.229  21.617  11.960
77351NA+    NA+36645  22.011  12.339   3.696
77352NA+    NA+36646  14.095  13.680   0.828
77353NA+    NA+36647   5.900  42.921  11.955
77354NA+    NA+36648  44.442   0.978   1.293
77355NA+    NA+36649   7.683  25.121   9.662
77356NA+    NA+36650  26.990  37.953   1.703
77357NA+    NA+36651  35.001  34.528   9.935
77358NA+    NA+36652  23.167  30.055   3.320
77359NA+    NA+36653  12.772  39.821  11.557
77360NA+    NA+36654  16.243   4.267  12.471
77361NA+    NA+36655   0.380  13.653  14.445
77362NA+    NA+36656   4.753  36.370  12.043
77363NA+    NA+36657   3.728  24.034  10.064
77364NA+    NA+36658  41.930  10.361  13.423
77365NA+    NA+36659  29.077  16.751  13.999
77366NA+    NA+36660  21.573  25.163  12.851
77367NA+    NA+36661  33.382  14.237  12.004
77368NA+    NA+36662  40.987  16.771   4.667
77369NA+    NA+36663  12.824  15.276   2.258
77370NA+    NA+36664  28.532  35.535   1.327
77371NA+    NA+36665  29.106  10.239   1.311
77372NA+    NA+36666  22.541  36.347  13.399
77373NA+    NA+36667  41.458  36.032   0.940
77374NA+    NA+36668  43.278  10.795  13.341
77375NA+    NA+36669  25.681  18.586   1.707
77376NA+    NA+36670   2.888  10.681  11.545
77377NA+    NA+36671  17.290  35.929  14.007
77378NA+    NA+36672  25.632  24.534  10.514
77379NA+    NA+36673  41.946  28.674   3.709
77380NA+    NA+36674  27.089   7.687  10.621
77381NA+    NA+36675  38.472   2.960   0.863
77382NA+    NA+36676  36.381  29.639  11.967
77383NA+    NA+36677   9.197  18.589   3.213
77384NA+    NA+36678  29.513   9.857   1.758
77385NA+    NA+36679   2.953  16.686  12.847
77386NA+    NA+36680  16.309  39.050  13.461
77387NA+    NA+36681  16.613  27.147  13.819
77388NA+    NA+36682  35.424  16.084   4.768
77389NA+    NA+36683   4.431   0.894   0.338
77390NA+    NA+36684  14.251   8.295   3.171
77391NA+    NA+36685  17.563   4.351  11.536
77392NA+    NA+36686   5.295  25.007  12.916
77393NA+    NA+36687   8.862  14.158  13.890
77394NA+    NA+36688  29.077  35.036  13.534
77395NA+    NA+36689  39.386   9.889   3.226
77396NA+    NA+36690  34.090  28.515   1.770
77397NA+    NA+36691  29.670  29.109  10.046
77398NA+    NA+36692  38.431   0.805  13.331
77399NA+    NA+36693  21.132  38.837   3.673
77400NA+    NA+36694   8.366  40.408  14.808
77401NA+    NA+36695  17.196   9.714  13.858
77402NA+    NA+36696  32.894   7.805   1.926
77403NA+    NA+36697   3.751  43.976  12.825
77404NA+    NA+36698   3.857   9.738  13.990
77405NA+    NA+36699  39.946  36.551   3.765
77406NA+    NA+36700  44.876   0.759   2.279
77407NA+    NA+36701   6.709   4.762   3.691
77408NA+    NA+36702  37.416   9.353  13.049
77409NA+    NA+36703  18.232  30.597  10.518
77410NA+    NA+36704  23.580  35.595   3.175
77411NA+    NA+36705  17.124  28.137   3.786
77412NA+    NA+36706  33.387  22.225   4.735
77413NA+    NA+36707  36.845  38.839  10.948
77414NA+    NA+36708  23.652   6.255   0.378
77415NA+    NA+36709   8.404   7.830  13.404
77416NA+    NA+36710   4.300  16.295  12.064
77417NA+    NA+36711  22.202  27.648   3.687
77418NA+    NA+36712   7.191   9.253   2.370
77419NA+    NA+36713  11.299  35.507   0.471
77420NA+    NA+36714   7.825   3.296   3.181
77421NA+    NA+36715  23.695  10.179   2.395
77422NA+    NA+36716  13.762  17.758   3.838
77423NA+    NA+36717   6.417   9.323   1.445
77424NA+    NA+36718  42.832  37.345   4.325
77425NA+    NA+36719  18.697   2.796   1.229
77426NA+    NA+36720  20.037   4.777   4.197
77427NA+    NA+36721  23.033  10.851  14.288
77428NA+    NA+36722  15.777  12.336  13.032
77429NA+    NA+36723  42.483  25.638   1.797
77430NA+    NA+36724  17.273  31.930   3.284
77431NA+    NA+36725  39.866  44.273   3.287
77432NA+    NA+36726  20.633  29.094  12.497
77433NA+    NA+36727   7.234  32.490   0.795
77434NA+    NA+36728   7.255  28.587   0.397
77435NA+    NA+36729   8.344  14.264   0.938
77436NA+    NA+36730  19.279   3.718   2.800
77437NA+    NA+36731  14.262  18.674  12.890
77438NA+    NA+36732  18.118  27.472  14.808
77439NA+    NA+36733  36.571  40.840   4.615
77440NA+    NA+36734  11.323  21.124  14.430
77441NA+    NA+36735  36.923   9.809   1.442
77442NA+    NA+36736  41.980  17.274  12.012
77443NA+    NA+36737  15.157  15.245  14.939
77444NA+    NA+36738  26.044  14.724  12.062
77445NA+    NA+36739  21.518  33.883  12.839
77446NA+    NA+36740  10.840  39.351   1.750
77447NA+    NA+36741   0.251  32.908   2.858
77448NA+    NA+36742  11.692   9.871  14.463
77449NA+    NA+36743  43.364  25.637  12.920
77450NA+    NA+36744  37.008  15.644   0.958
77451NA+    NA+36745  13.218  40.534   5.252
77452NA+    NA+36746  42.497   7.198  14.857
77453NA+    NA+36747  11.648  20.620  10.974
77454NA+    NA+36748  29.134  42.865   0.442
77455NA+    NA+36749  18.733  39.508  14.000
77456NA+    NA+36750  39.323  37.335   5.654
77457NA+    NA+36751  43.951  43.305   0.749
77458NA+    NA+36752   5.872  31.980  11.036
77459NA+    NA+36753   0.458  21.022   3.173
77460NA+    NA+36754  19.142   7.859  11.551
77461NA+    NA+36755  42.420   2.775  13.533
77462NA+    NA+36756  14.635  28.650  12.051
77463NA+    NA+36757  38.958  37.550   0.804
77464NA+    NA+36758   8.274   5.753  13.307
77465NA+    NA+36759  35.970  33.417   4.772
77466NA+    NA+36760  40.941  18.735   2.354
77467NA+    NA+36761  33.512  23.586   2.268
77468NA+    NA+36762  35.554   9.852   5.136
77469NA+    NA+36763  18.077  33.994   4.199
77470NA+    NA+36764   1.847  19.733  12.997
77471NA+    NA+36765  21.200  31.039  12.009
77472NA+    NA+36766  43.386   6.236   3.252
77473NA+    NA+36767  42.030  35.408   2.313
77474NA+    NA+36768  44.312  35.971   0.864
77475NA+    NA+36769  26.702  23.199  13.994
77476NA+    NA+36770  33.523  36.530  14.282
77477NA+    NA+36771  29.448  32.482  12.896
77478NA+    NA+36772   3.321  32.983   2.812
77479NA+    NA+36773   4.843   3.710  14.896
77480NA+    NA+36774  24.527  12.621  14.905
77481NA+    NA+36775   2.726   2.272   1.416
77482NA+    NA+36776  13.706   3.391   0.364
77483NA+    NA+36777  26.675  28.608   4.289
77484NA+    NA+36778  10.805  25.018   4.744
77485NA+    NA+36779   6.821  33.431   2.292
77486NA+    NA+36780  28.576   9.796  11.411
77487NA+    NA+36781  26.625  23.119   4.196
77488NA+    NA+36782  10.719  30.626  10.022
77489NA+    NA+36783  26.037  19.631   1.298
77490NA+    NA+36784  10.233  24.496   3.161
77491NA+    NA+36785   2.299  24.125  14.885
77492NA+    NA+36786  19.218  39.847  10.965
77493NA+    NA+36787   1.892  43.427  12.923
77494NA+    NA+36788  12.187  31.515   0.243
77495NA+    NA+36789  16.210  35.092   3.354
77496NA+    NA+36790  44.826  38.075   4.135
77497NA+    NA+36791  25.707  11.740  11.093
77498NA+    NA+36792  27.031   5.708  14.485
77499NA+    NA+36793  32.393  30.456   3.643
77500NA+    NA+36794  43.767  15.800   4.761
77501NA+    NA+36795  44.781  25.039  13.817
77502NA+    NA+36796  18.055   0.317  12.092
77503NA+    NA+36797  26.698  21.204   1.381
77504NA+    NA+36798  39.015  11.248   4.720
77505NA+    NA+36799   9.826   8.241   3.289
77506NA+    NA+36800   2.726  43.474  12.468
77507NA+    NA+36801  30.946  19.207   1.849
77508NA+    NA+36802  25.082  13.121  14.313
77509NA+    NA+36803  41.337  32.411   4.126
77510NA+    NA+36804  37.944   3.271  10.894
77511NA+    NA+36805  25.064  19.614   1.867
77512NA+    NA+36806   8.179  28.095   3.302
77513NA+    NA+36807  31.138  24.033  14.437
77514NA+    NA+36808   0.822  22.057  13.457
77515NA+    NA+36809  11.293  24.568  10.612
77516NA+    NA+36810  22.077  18.103  14.811
77517NA+    NA+36811   4.798  10.276   3.176
77518NA+    NA+36812  22.149  44.471   4.686
77519NA+    NA+36813   8.828  29.468  13.941
77520NA+    NA+36814  43.933  32.068   1.347
77521NA+    NA+36815  37.880  23.240  13.489
77522NA+    NA+36816  18.093  27.999   2.719
77523NA+    NA+36817  37.997  22.600   2.218
77524NA+    NA+36818   3.449  43.438   1.243
77525NA+    NA+36819  16.307  42.360   0.388
77526NA+    NA+36820  24.541   6.856   3.303
77527NA+    NA+36821  36.561  43.366   2.878
77528NA+    NA+36822  30.589  25.635   2.866
77529NA+    NA+36823  13.228  23.495   1.407
77530NA+    NA+36824   1.304   2.845  12.944
77531NA+    NA+36825  20.209   6.386   1.698
77532NA+    NA+36826  24.166  33.573   4.151
77533NA+    NA+36827  39.359  13.258  11.462
77534NA+    NA+36828  27.569  37.994   1.271
77535NA+    NA+36829   5.278  33.908   3.701
77536NA+    NA+36830  30.575  38.436   4.243
77537NA+    NA+36831  24.176   9.250  14.378
77538NA+    NA+36832  25.472  38.052   1.296
77539NA+    NA+36833  34.112  29.623  13.330
77540NA+    NA+36834   8.382   0.754   0.272
77541NA+    NA+36835  26.169   9.880  10.138
77542NA+    NA+36836   1.758  34.971  12.047
77543NA+    NA+36837  40.919  14.758   3.757
77544NA+    NA+36838  40.042  16.681  10.588
77545NA+    NA+36839  11.852   2.431   2.884
77546NA+    NA+36840   5.823   9.175  12.840
77547NA+    NA+36841  40.036   3.437   4.768
77548NA+    NA+36842  21.523  27.042   4.335
77549NA+    NA+36843  18.556   8.811   3.802
77550NA+    NA+36844   1.383  19.264   0.321
77551NA+    NA+36845  38.851   9.844  12.078
77552NA+    NA+36846  21.255  11.254  11.950
77553NA+    NA+36847  39.962   0.493  14.339
77554NA+    NA+36848  30.029   4.284  14.420
77555NA+    NA+36849  13.185  21.210  10.090
77556NA+    NA+36850   2.956   0.774  13.327
77557NA+    NA+36851  27.042  42.896   3.700
77558NA+    NA+36852  14.172  41.377  11.520
77559NA+    NA+36853  41.304   1.969  11.966
77560NA+    NA+36854  35.582  21.751  11.041
77561NA+    NA+36855  19.594   7.271   0.358
77562NA+    NA+36856  18.763  33.538   3.667
77563NA+    NA+36857  36.015  42.352  13.971
77564NA+    NA+36858  19.080  23.538  12.537
77565NA+    NA+36859  20.584  40.842   3.670
77566NA+    NA+36860  20.705  15.134   0.894
77567NA+    NA+36861  35.420  36.591  11.502
77568NA+    NA+36862  22.614  34.991  13.951
77569NA+    NA+36863  38.887  14.326  12.486
77570NA+    NA+36864   7.338  26.661  14.368
77571NA+    NA+36865   7.855  38.407  14.005
77572NA+    NA+36866  39.406   8.901  14.984
77573NA+    NA+36867  24.674  11.803  13.436
77574NA+    NA+36868  16.297  29.584   3.237
77575NA+    NA+36869   8.828  20.523   2.773
77576NA+    NA+36870  11.242  41.359   1.917
77577NA+    NA+36871   5.258  43.326   1.881
77578NA+    NA+36872   5.801  22.111   1.263
77579NA+    NA+36873  39.813  10.240   4.626
77580NA+    NA+36874  25.011   4.349   0.928
77581NA+    NA+36875  39.831  37.532  14.439
77582NA+    NA+36876  31.626  14.124   2.334
77583NA+    NA+36877  41.303  15.212  13.913
77584NA+    NA+36878  23.684  41.401   3.207
77585NA+    NA+36879  25.618  24.624   4.836
77586NA+    NA+36880  40.798  23.532   4.721
77587NA+    NA+36881  38.925   3.380   2.810
77588NA+    NA+36882  22.502  29.563  11.035
77589NA+    NA+36883  20.098  30.605  13.526
77590NA+    NA+36884  29.620  13.605  13.953
77591NA+    NA+36885  16.809   5.320  12.856
77592NA+    NA+36886  27.948  15.582   3.297
77593NA+    NA+36887   9.164   2.434  13.022
77594NA+    NA+36888  40.500  28.140   3.180
77595NA+    NA+36889   6.727   0.785  12.432
77596NA+    NA+36890  16.689   7.691   0.388
77597NA+    NA+36891  37.574  16.185   2.360
77598NA+    NA+36892  28.104  34.585  12.994
77599NA+    NA+36893   7.789  34.391  11.498
77600NA+    NA+36894  30.085   5.825  14.469
77601NA+    NA+36895  28.453   5.872   3.178
77602NA+    NA+36896  17.663  38.453  13.363
77603NA+    NA+36897  17.687  16.591   1.736
77604NA+    NA+36898   3.394  37.835   0.410
77605NA+    NA+36899  43.910  41.348  11.551
77606NA+    NA+36900   4.851  34.024   1.449
77607NA+    NA+36901   6.393   2.241  13.829
77608NA+    NA+36902   6.766  30.487   0.349
77609NA+    NA+36903  19.677  41.792  10.525
77610NA+    NA+36904   9.715  41.010   4.838
77611NA+    NA+36905   5.334  22.063   3.363
77612NA+    NA+36906  29.658  24.682   0.833
77613NA+    NA+36907  38.392   3.836  10.582
77614NA+    NA+36908  35.382  25.586   1.236
77615NA+    NA+36909  40.502  37.075   1.764
77616NA+    NA+36910  13.311  40.304   9.921
77617NA+    NA+36911  23.237  35.548  10.589
77618NA+    NA+36912  32.426  40.880   0.242
77619NA+    NA+36913  11.682  15.822   5.285
77620NA+    NA+36914  39.336  13.642   4.753
77621NA+    NA+36915   6.916   6.249   0.885
77622NA+    NA+36916  12.682  42.513   3.771
77623NA+    NA+36917  30.927  15.596   0.342
77624NA+    NA+36918  35.896  35.541   3.850
77625NA+    NA+36919  23.064  43.986   3.383
77626NA+    NA+36920  40.868  17.296   0.753
77627NA+    NA+36921   3.350  33.479  12.842
77628NA+    NA+36922   0.858  16.809   0.839
77629NA+    NA+36923  35.383  33.383   1.415
77630NA+    NA+36924  26.049   6.893  12.885
77631NA+    NA+36925  12.635  29.071  10.435
77632NA+    NA+36926  37.888   1.805  14.892
77633NA+    NA+36927  27.995  14.130   3.712
77634NA+    NA+36928  30.055  28.011  10.601
77635NA+    NA+36929  36.497  20.732  14.023
77636NA+    NA+36930  38.931  10.169   9.491
77637NA+    NA+36931  11.826  37.412  11.896
77638NA+    NA+36932  18.137  11.854   5.279
77639NA+    NA+36933  31.103  33.529   3.776
77640NA+    NA+36934  34.121  20.114   2.825
77641NA+    NA+36935  18.236  29.930  11.122
77642NA+    NA+36936  34.951   2.860   2.311
77643NA+    NA+36937   5.697  31.561  11.399
77644NA+    NA+36938  30.149  23.554  10.556
77645NA+    NA+36939   4.763  26.061   4.709
77646NA+    NA+36940   5.738  40.513  10.991
77647NA+    NA+36941  25.487  42.881   0.865
77648NA+    NA+36942  28.454  13.171  12.054
77649NA+    NA+36943  27.026  17.273   3.745
77650NA+    NA+36944   7.783  21.628   5.794
77651NA+    NA+36945  32.124  40.879   1.855
77652NA+    NA+36946  16.159  41.994  14.009
77653NA+    NA+36947  33.900   4.371   0.961
77654NA+    NA+36948   5.225  43.295  11.925
77655NA+    NA+36949  40.880  33.981   1.843
77656NA+    NA+36950  27.013  35.597  10.445
77657NA+    NA+36951  23.177  41.896  11.506
77658NA+    NA+36952   0.456  35.052   2.306
77659NA+    NA+36953  32.122  25.595   3.695
77660NA+    NA+36954  39.356  40.326   3.171
77661NA+    NA+36955  10.355  35.445   3.193
77662NA+    NA+36956  39.509  12.298  10.584
77663NA+    NA+36957   5.376  25.528  14.775
77664NA+    NA+36958  15.645  16.150  11.372
77665NA+    NA+36959  28.019   0.433  12.363
77666NA+    NA+36960  42.897  13.659   2.293
77667NA+    NA+36961  39.902  32.513   1.269
77668NA+    NA+36962  23.232  23.720  14.821
77669NA+    NA+36963  39.485  14.180  14.787
77670NA+    NA+36964  31.432  26.055   4.184
77671NA+    NA+36965  31.971   4.805   4.145
77672NA+    NA+36966  13.300  39.484  12.395
77673NA+    NA+36967  17.217  39.463  13.956
77674NA+    NA+36968  28.992  30.571  14.946
77675NA+    NA+36969   0.329  44.458   2.837
77676NA+    NA+36970  19.206  29.055  10.571
77677NA+    NA+36971  33.548  23.554   0.881
77678NA+    NA+36972  24.166  33.106   2.735
77679NA+    NA+36973  40.406   7.215   0.388
77680NA+    NA+36974  37.902  23.700  10.474
77681NA+    NA+36975  42.475   8.349   3.777
77682NA+    NA+36976  40.889   7.794  14.966
77683NA+    NA+36977  18.243  17.267  13.355
77684NA+    NA+36978  40.356  30.102   4.778
77685NA+    NA+36979   0.923  14.810  13.878
77686NA+    NA+36980  20.694  13.789   4.608
77687NA+    NA+36981  23.194  20.620  14.508
77688NA+    NA+36982   5.844  35.995  11.481
77689NA+    NA+36983  41.873  43.285  13.513
77690NA+    NA+36984  37.036  16.780   4.122
77691NA+    NA+36985  22.705   7.755   3.348
77692NA+    NA+36986  42.369   0.842   1.212
77693NA+    NA+36987  33.905  27.474   0.816
77694NA+    NA+36988  10.191  41.883   3.782
77695NA+    NA+36989   1.443  16.571   0.340
77696NA+    NA+36990  29.434  35.366  10.548
77697NA+    NA+36991  24.670  26.699   2.751
77698NA+    NA+36992  30.976   6.278  12.056
77699NA+    NA+36993   8.727  14.660  12.444
77700NA+    NA+36994  38.862  29.520   0.293
77701NA+    NA+36995  43.812  15.684   0.791
77702NA+    NA+36996  41.874  16.291  12.376
77703NA+    NA+36997  31.037  29.641  13.419
77704NA+    NA+36998  21.578  33.539  12.062
77705NA+    NA+36999   7.374  33.065   0.410
77706NA+    NA+37000  28.544  23.582   0.752
77707NA+    NA+37001  26.520  26.604   4.215
77708NA+    NA+37002  19.573  27.539   4.145
77709NA+    NA+37003  15.269  22.684  12.507
77710NA+    NA+37004  31.091  24.566  12.449
77711NA+    NA+37005  41.997  28.049   0.910
77712NA+    NA+37006  19.255  29.575  10.575
77713NA+    NA+37007  17.292  21.687   1.298
77714NA+    NA+37008  17.620  37.499  14.029
77715NA+    NA+37009  17.219  39.509  12.974
77716NA+    NA+37010   7.725  30.505   0.943
77717NA+    NA+37011  43.913   7.278   3.701
77718NA+    NA+37012  16.790  13.658  14.773
77719NA+    NA+37013  29.108  23.996   2.895
77720NA+    NA+37014  44.477  21.752   1.932
77721NA+    NA+37015  33.547  30.648  11.483
77722NA+    NA+37016  34.022  26.626   4.735
77723NA+    NA+37017   5.398  16.177  12.877
77724NA+    NA+37018  28.648  29.060  14.442
77725NA+    NA+37019  27.581   0.806   0.344
77726NA+    NA+37020  24.509  12.620  13.446
77727NA+    NA+37021   0.840  36.360   1.336
77728NA+    NA+37022  44.885  39.060  12.966
77729NA+    NA+37023   2.843  44.424  14.285
77730NA+    NA+37024  42.494  42.901   4.128
77731NA+    NA+37025  26.047   0.853   0.960
77732NA+    NA+37026  43.938  18.085  10.631
77733NA+    NA+37027  27.992   5.796  13.430
77734NA+    NA+37028  40.399  37.423   3.697
77735NA+    NA+37029  42.921  35.540   1.932
77736NA+    NA+37030  32.034  21.611   2.862
77737NA+    NA+37031  28.125   2.791   2.286
77738NA+    NA+37032  11.701   6.810   4.175
77739NA+    NA+37033  30.075   4.340   0.245
77740NA+    NA+37034  43.910  32.021  11.877
77741NA+    NA+37035  15.147   6.743   3.705
77742NA+    NA+37036   7.800  33.024   2.808
77743NA+    NA+37037  19.047  26.099   0.950
77744NA+    NA+37038   7.209  39.544  13.447
77745NA+    NA+37039   2.460  36.552  13.387
77746NA+    NA+37040  25.208  19.148   3.663
77747NA+    NA+37041   7.378  26.155   0.253
77748NA+    NA+37042  16.667  43.277  14.360
77749NA+    NA+37043   9.812   2.895  10.460
77750NA+    NA+37044  25.701  40.854  13.958
77751NA+    NA+37045   2.339  34.388   1.833
77752NA+    NA+37046   9.689   2.227   1.330
77753NA+    NA+37047  31.011  37.004   2.700
77754NA+    NA+37048  27.990  44.894   0.275
77755NA+    NA+37049  23.138  31.926   1.927
77756NA+    NA+37050   9.272  30.929  14.847
77757NA+    NA+37051  31.073  19.173  13.919
77758NA+    NA+37052   2.407  24.032  14.000
77759NA+    NA+37053  13.308  38.970  11.101
77760NA+    NA+37054  36.430  28.068  13.009
77761NA+    NA+37055  42.310  21.736   0.439
77762NA+    NA+37056   7.382  21.739  10.011
77763NA+    NA+37057  13.185  32.435  14.351
77764NA+    NA+37058  28.449  32.461  14.797
77765NA+    NA+37059  38.050  23.491  13.954
77766NA+    NA+37060  27.194   1.373   0.854
77767NA+    NA+37061  20.226  33.927  10.619
77768NA+    NA+37062  20.769  39.958  11.511
77769NA+    NA+37063  20.219   1.369   1.312
77770NA+    NA+37064  28.937  20.141   4.265
77771NA+    NA+37065   5.710   9.670  10.465
77772NA+    NA+37066  28.006   2.953   4.319
77773NA+    NA+37067   2.725   0.347  14.897
77774NA+    NA+37068  18.566  11.857   4.299
77775NA+    NA+37069  41.405  32.142  14.304
77776NA+    NA+37070   7.812  29.511   4.152
77777NA+    NA+37071  27.639  14.218  11.392
77778NA+    NA+37072  26.021  23.559  14.460
77779NA+    NA+37073  30.148  34.103   2.809
77780NA+    NA+37074   7.355  36.968  13.455
77781NA+    NA+37075   4.883  23.032  13.474
77782NA+    NA+37076   1.901  43.334  13.900
77783NA+    NA+37077  21.736  23.174   0.854
77784NA+    NA+37078  13.161  10.759  14.514
77785NA+    NA+37079  13.111  18.139   1.214
77786NA+    NA+37080  38.449  36.965  10.133
77787NA+    NA+37081  30.947   7.224  11.128
77788NA+    NA+37082  40.017  25.677   0.449
77789NA+    NA+37083  27.968  28.175   1.794
77790NA+    NA+37084   7.816  27.498   0.770
77791NA+    NA+37085  14.280   1.768  14.008
77792NA+    NA+37086  40.852   7.218  14.460
77793NA+    NA+37087  44.945  11.335   4.143
77794NA+    NA+37088  41.986  22.654  13.047
77795NA+    NA+37089   8.870   8.813   1.369
77796NA+    NA+37090   8.800  41.478  10.451
77797NA+    NA+37091  10.796  22.997  10.622
77798NA+    NA+37092  36.931  44.989  12.488
77799NA+    NA+37093   1.306  13.800   0.338
77800NA+    NA+37094  37.060   9.384  12.382
77801NA+    NA+37095   6.314  18.695   1.783
77802NA+    NA+37096  40.987   2.472  13.517
77803NA+    NA+37097   4.244  28.173   4.233
77804NA+    NA+37098  14.626  42.006  11.523
77805NA+    NA+37099  40.912  40.850  11.523
77806NA+    NA+37100  20.177  10.160   2.259
77807NA+    NA+37101  32.136  12.221  12.922
77808NA+    NA+37102  12.623  35.457   1.802
77809NA+    NA+37103  23.993  14.164   2.781
77810NA+    NA+37104  28.169  14.651   1.412
77811NA+    NA+37105   3.452  39.991   2.810
77812NA+    NA+37106   1.803  18.547  10.406
77813NA+    NA+37107  14.746  31.948   0.321
77814NA+    NA+37108  44.790  37.966   2.336
77815NA+    NA+37109   2.822  27.070   0.914
77816NA+    NA+37110  13.239  12.225  13.359
77817NA+    NA+37111  11.710  22.097   2.837
77818NA+    NA+37112   4.897  42.811  10.097
77819NA+    NA+37113  42.972  27.942   2.284
77820NA+    NA+37114  23.074  43.369  12.901
77821NA+    NA+37115  43.470  40.986  10.477
77822NA+    NA+37116   2.360  29.028   4.218
77823NA+    NA+37117  20.214  31.576  12.904
77824NA+    NA+37118   8.225  44.798  13.449
77825NA+    NA+37119  31.063   4.241  10.955
77826NA+    NA+37120   3.834  44.338   3.718
77827NA+    NA+37121  29.145  29.979  12.948
77828NA+    NA+37122  11.301   1.464   0.458
77829NA+    NA+37123  40.916  11.634   0.965
77830NA+    NA+37124   2.785  30.653   0.281
77831NA+    NA+37125  16.741  11.682  12.001
77832NA+    NA+37126  31.513   6.746  12.011
77833NA+    NA+37127  35.541   8.889   3.698
77834NA+    NA+37128  42.394  24.141  14.450
77835NA+    NA+37129  33.080  40.017  14.337
77836NA+    NA+37130  41.515   0.314  12.542
77837NA+    NA+37131   7.178  35.031  14.446
77838NA+    NA+37132  37.556  33.051   5.191
77839NA+    NA+37133  43.861   7.862  14.921
77840NA+    NA+37134   2.441  18.266   4.700
77841NA+    NA+37135   9.757  17.183   2.755
77842NA+    NA+37136  10.149  42.316   2.841
77843NA+    NA+37137   4.235  44.937  14.512
77844NA+    NA+37138  23.633  10.287   1.742
77845NA+    NA+37139  26.209   4.376   0.262
77846NA+    NA+37140  10.873  22.626   4.660
77847NA+    NA+37141  21.176  28.438  11.603
77848NA+    NA+37142   1.256  18.205   4.639
77849NA+    NA+37143  34.533  26.017   3.302
77850NA+    NA+37144  14.695  23.039  10.555
77851NA+    NA+37145  26.660   8.326  12.493
77852NA+    NA+37146  21.088  15.760   4.632
77853NA+    NA+37147  29.647  21.116  11.559
77854NA+    NA+37148  12.215   0.765  12.558
77855NA+    NA+37149  36.396  16.740   0.430
77856NA+    NA+37150  43.328  29.018   2.863
77857NA+    NA+37151  23.223  40.446   3.317
77858NA+    NA+37152   5.260  14.229   1.232
77859NA+    NA+37153  22.511  16.233  12.537
77860NA+    NA+37154  16.696  19.281  14.909
77861NA+    NA+37155   1.751  17.225  11.105
77862NA+    NA+37156  14.151  13.841  12.369
77863NA+    NA+37157  39.489  24.583   1.699
77864NA+    NA+37158  44.390  36.997   1.354
77865NA+    NA+37159   7.821  28.049  14.810
77866NA+    NA+37160  29.116   3.788  11.593
77867NA+    NA+37161   0.365  33.967  14.939
77868NA+    NA+37162   1.932  19.083  10.901
77869NA+    NA+37163  25.540  26.020  11.858
77870NA+    NA+37164  20.765  19.146  12.871
77871NA+    NA+37165  38.482  38.426   1.338
77872NA+    NA+37166  34.493  31.550   4.311
77873NA+    NA+37167  36.395  31.484  13.995
77874NA+    NA+37168  14.272  21.168  13.961
77875NA+    NA+37169  11.658  28.980  10.542
77876NA+    NA+37170  36.369   1.910   1.305
77877NA+    NA+37171  31.960  15.673  11.979
77878NA+    NA+37172   3.374  34.872  12.079
77879NA+    NA+37173  12.660  16.781  12.435
77880NA+    NA+37174  22.208  41.039  13.991
77881NA+    NA+37175  35.934  39.996  11.960
77882NA+    NA+37176  23.525  20.705   3.631
77883NA+    NA+37177  20.091   7.811   4.826
77884NA+    NA+37178  12.827   7.742  14.024
77885NA+    NA+37179  22.560   3.254  14.839
77886NA+    NA+37180  34.608  11.298   4.316
77887NA+    NA+37181  29.478  11.147  13.821
77888NA+    NA+37182   6.734  14.150  10.920
77889NA+    NA+37183  42.836  18.740  10.598
77890NA+    NA+37184  35.996  30.511  11.925
77891NA+    NA+37185   7.698  42.905  10.424
77892NA+    NA+37186  35.916  12.735  14.950
77893NA+    NA+37187   2.369  12.628  14.487
77894NA+    NA+37188  30.097  26.652   0.966
77895NA+    NA+37189   9.308  29.657   4.322
77896NA+    NA+37190  15.260  13.325   2.757
77897NA+    NA+37191  32.553   1.457  14.837
77898NA+    NA+37192  40.389  12.331   2.812
77899NA+    NA+37193   4.716  22.640   4.143
77900NA+    NA+37194  37.045  43.872  14.390
77901NA+    NA+37195  32.043  37.573   3.201
77902NA+    NA+37196  13.283  32.995  14.373
77903NA+    NA+37197   5.928  29.506   2.867
77904NA+    NA+37198  20.699  22.075  10.958
77905NA+    NA+37199  18.584  26.190  12.465
77906NA+    NA+37200  36.523  38.405  13.958
77907NA+    NA+37201  44.293  44.439  13.538
77908NA+    NA+37202  19.588  44.401  14.503
77909NA+    NA+37203  39.314  18.186  12.489
77910NA+    NA+37204  43.850  26.505   2.690
77911NA+    NA+37205   6.845  17.129   4.185
77912NA+    NA+37206   2.335   1.828   4.779
77913NA+    NA+37207  22.743  40.404   0.460
77914NA+    NA+37208  19.725  12.803  11.870
77915NA+    NA+37209  44.906  18.611   0.333
77916NA+    NA+37210   9.363  35.520   1.906
77917NA+    NA+37211  19.772  32.907   4.724
77918NA+    NA+37212  28.569  27.991   0.316
77919NA+    NA+37213  35.873  23.605  11.428
77920NA+    NA+37214  29.983  13.662   4.751
77921NA+    NA+37215   7.216  12.116   3.283
77922NA+    NA+37216  23.083   4.894   0.800
77923NA+    NA+37217  10.260  10.859   2.876
77924NA+    NA+37218  30.941  41.961   3.798
77925NA+    NA+37219   9.874  23.647  11.891
77926NA+    NA+37220  41.450  18.082  11.457
77927NA+    NA+37221  37.521   0.852  14.971
77928NA+    NA+37222  20.653  34.004   2.394
77929NA+    NA+37223  33.113   3.336   3.295
77930NA+    NA+37224  32.498  12.778   1.917
77931NA+    NA+37225  28.006   8.244  12.998
77932NA+    NA+37226  32.085  15.773   2.796
77933NA+    NA+37227  16.637  41.532   2.778
77934NA+    NA+37228  12.635   3.385  11.532
77935NA+    NA+37229   4.746  19.557   1.278
77936NA+    NA+37230  10.835  37.960  13.891
77937NA+    NA+37231   4.244  21.704   1.920
77938NA+    NA+37232  11.758  12.840   1.406
77939NA+    NA+37233   7.702   0.450   1.279
77940NA+    NA+37234  17.239  24.139   3.330
77941NA+    NA+37235   1.392  32.597   2.221
77942NA+    NA+37236  18.593  28.932  11.888
77943NA+    NA+37237  41.384  36.521  14.759
77944NA+    NA+37238  43.017  11.807   1.749
77945NA+    NA+37239  13.601  17.721   1.762
77946NA+    NA+37240  10.163  27.582  13.339
77947NA+    NA+37241  35.900  10.695   0.850
77948NA+    NA+37242   4.906  19.609  11.003
77949NA+    NA+37243   7.736  31.919  13.401
77950NA+    NA+37244  22.513  36.359  11.865
77951NA+    NA+37245   5.312  43.927   4.137
77952NA+    NA+37246  34.479  28.995  13.380
77953NA+    NA+37247  41.527  15.237   1.266
77954NA+    NA+37248  27.646  22.242  10.613
77955NA+    NA+37249  31.012  20.078   0.442
77956NA+    NA+37250  22.123  32.042  10.545
77957NA+    NA+37251  33.436  42.462   0.333
77958NA+    NA+37252  17.112  30.927   4.312
77959NA+    NA+37253  44.490   4.853   0.480
77960NA+    NA+37254  13.289   5.884   4.619
77961NA+    NA+37255  39.050  40.045   2.291
77962NA+    NA+37256  28.065   9.206  11.514
77963NA+    NA+37257  35.048   3.821   3.814
77964NA+    NA+37258  36.529  15.101  10.411
77965NA+    NA+37259   3.351   7.280   3.664
77966NA+    NA+37260   3.236  43.295  11.416
77967NA+    NA+37261  21.088  41.873   0.422
77968NA+    NA+37262  24.138  31.039  13.019
77969NA+    NA+37263   5.309  44.796  12.466
77970NA+    NA+37264  20.091  36.071  10.493
77971NA+    NA+37265  41.980  26.068   0.962
77972NA+    NA+37266  20.740  35.059  13.992
77973NA+    NA+37267  20.105   5.691  11.422
77974NA+    NA+37268  15.585  20.659   1.364
77975NA+    NA+37269  17.077   3.325  10.047
77976NA+    NA+37270  32.397  18.103  10.466
77977NA+    NA+37271  32.454  43.383   0.950
77978NA+    NA+37272  18.120  10.193   2.719
77979NA+    NA+37273   2.470  16.265  11.012
77980NA+    NA+37274  38.955  14.252  10.020
77981NA+    NA+37275   9.195  23.093  10.518
77982NA+    NA+37276  44.423  44.385  12.077
77983NA+    NA+37277  14.775  10.739   2.719
77984NA+    NA+37278  24.065  44.784   3.269
77985NA+    NA+37279  16.107  17.768   3.754
77986NA+    NA+37280  11.692   5.749   3.359
77987NA+    NA+37281  15.628  44.390   1.402
77988NA+    NA+37282  25.632   3.814   4.339
77989NA+    NA+37283  44.444  17.274  11.519
77990NA+    NA+37284  42.003  27.577  13.354
77991NA+    NA+37285  34.469  30.424  14.901
77992NA+    NA+37286  17.795  24.594  13.445
77993NA+    NA+37287  31.136  18.723  13.358
77994NA+    NA+37288   0.395  28.494   1.291
77995NA+    NA+37289   0.785   4.791  14.929
77996NA+    NA+37290  18.767  24.518   0.375
77997NA+    NA+37291  44.439  11.809  13.861
77998NA+    NA+37292  35.913  33.575  13.504
77999NA+    NA+37293   1.414   4.349  14.336
78000NA+    NA+37294  30.528  11.739   4.266
78001NA+    NA+37295  19.185  17.773  14.289
78002NA+    NA+37296  35.866  35.876  11.089
78003NA+    NA+37297   4.896  24.221   1.712
78004NA+    NA+37298  12.850  44.278   2.219
78005NA+    NA+37299  37.487  33.596  14.335
78006NA+    NA+37300  26.591  14.188  13.326
78007NA+    NA+37301  31.544   3.432  14.977
78008NA+    NA+37302  39.824   4.205  12.887
78009NA+    NA+37303  23.016  40.480  12.010
78010NA+    NA+37304  25.669  17.245  11.582
78011NA+    NA+37305   8.274  34.064   3.836
78012NA+    NA+37306   1.977  10.825   4.675
78013NA+    NA+37307  35.367  38.411   3.636
78014NA+    NA+37308  43.471  37.356  14.844
78015NA+    NA+37309  30.611  13.153  10.556
78016NA+    NA+37310  15.631   6.219  11.600
78017NA+    NA+37311  33.518  31.021  11.883
78018NA+    NA+37312  28.447   0.410  14.468
78019NA+    NA+37313   2.863   1.372   0.915
78020NA+    NA+37314  25.100  41.292   4.661
78021NA+    NA+37315  15.721  17.162   2.412
78022NA+    NA+37316  36.880  20.587  12.437
78023NA+    NA+37317  32.538   9.870   2.838
78024CL-    CL-37318  20.225  42.984  10.965
78025CL-    CL-37319   7.281  34.436   3.714
78026CL-    CL-37320   1.320   4.799   1.312
78027CL-    CL-37321   5.874  21.222  12.893
78028CL-    CL-37322   0.936  22.151   2.733
78029CL-    CL-37323  24.005  29.551   3.796
78030CL-    CL-37324   0.777  29.921  13.520
78031CL-    CL-37325  23.120  28.176   2.181
78032CL-    CL-37326  34.547  24.156  13.799
78033CL-    CL-37327  20.622  21.741  13.034
78034CL-    CL-37328  32.035  38.371   0.336
78035CL-    CL-37329  11.722  24.593   1.421
78036CL-    CL-37330  30.074  18.638   4.224
78037CL-    CL-37331  43.007   9.382  14.364
78038CL-    CL-37332  43.848  36.932  12.893
78039CL-    CL-37333  35.565  20.060   4.220
78040CL-    CL-37334  21.596   0.956  13.853
78041CL-    CL-37335  43.957  24.189  11.535
78042CL-    CL-37336  15.703  35.967   0.473
78043CL-    CL-37337  17.707  34.108   1.873
78044CL-    CL-37338  39.353  25.479  13.875
78045CL-    CL-37339  41.005  28.471   4.693
78046CL-    CL-37340   9.332  36.938  11.059
78047CL-    CL-37341   5.295  22.526  14.393
78048CL-    CL-37342   5.434  26.013   0.342
78049CL-    CL-37343  27.009  23.989   3.385
78050CL-    CL-37344  35.457   3.265   3.743
78051CL-    CL-37345  34.960   7.230   1.887
78052CL-    CL-37346  25.190  44.408  12.960
78053CL-    CL-37347   6.681  28.985   2.250
78054CL-    CL-37348  36.971   5.743  11.996
78055CL-    CL-37349  18.719  13.245   5.727
78056CL-    CL-37350   2.258  28.051  14.960
78057CL-    CL-37351  14.667  36.529   1.890
78058CL-    CL-37352  37.882   2.829  12.880
78059CL-    CL-37353   1.421  34.045  10.941
78060CL-    CL-37354   4.786  40.910   4.145
78061CL-    CL-37355  25.982  41.320  13.970
78062CL-    CL-37356  33.580  14.293   2.731
78063CL-    CL-37357  16.259  13.295   5.110
78064CL-    CL-37358  36.544   5.870  13.900
78065CL-    CL-37359  30.486  38.420  12.013
78066CL-    CL-37360   5.866  10.213  12.975
78067CL-    CL-37361  16.708  27.949   0.446
78068CL-    CL-37362  29.479  12.770  12.474
78069CL-    CL-37363  40.006   9.868   4.205
78070CL-    CL-37364  36.359  18.768  11.570
78071CL-    CL-37365  39.391  29.500   1.226
78072CL-    CL-37366  17.699  37.079  14.469
78073CL-    CL-37367   3.723   6.188  13.491
78074CL-    CL-37368  32.476  24.075   1.794
78075CL-    CL-37369  40.318   6.840   4.805
78076CL-    CL-37370  34.399  33.048   4.344
78077CL-    CL-37371  41.863  12.746  13.525
78078CL-    CL-37372  32.975  32.027  10.892
78079CL-    CL-37373   7.247  17.092  10.993
78080CL-    CL-37374  34.113  28.521   3.383
78081CL-    CL-37375  14.237  17.573   4.820
78082CL-    CL-37376  20.251  19.059  11.466
78083CL-    CL-37377   4.425   5.907  12.869
78084CL-    CL-37378  10.659  38.049  10.511
78085CL-    CL-37379  42.508   2.905   0.297
78086CL-    CL-37380  35.393  26.191  10.566
78087CL-    CL-37381  23.612  21.103  13.978
78088CL-    CL-37382  44.913   3.230  10.552
78089CL-    CL-37383  43.883  39.414   0.327
78090CL-    CL-37384  17.265  30.989  13.537
78091CL-    CL-37385   2.322  40.034   2.772
78092CL-    CL-37386  16.593  36.516   0.245
78093CL-    CL-37387  20.553  33.541  12.463
78094CL-    CL-37388  43.771  17.784   3.353
78095CL-    CL-37389  16.136  26.558  13.022
78096CL-    CL-37390  11.841   5.784  13.032
78097CL-    CL-37391   8.768  31.606   0.362
78098CL-    CL-37392  18.210  25.195   2.798
78099CL-    CL-37393  12.808  42.332  11.024
78100CL-    CL-37394  18.148  35.574   1.321
78101CL-    CL-37395  37.553  23.563  14.919
78102CL-    CL-37396  26.589  29.513  14.924
78103CL-    CL-37397  18.776   3.304   2.214
78104CL-    CL-37398  21.154  11.714   2.386
78105CL-    CL-37399  41.465  34.096   5.595
78106CL-    CL-37400  39.933  31.095   3.768
78107CL-    CL-37401   5.379  32.897  12.496
78108CL-    CL-37402  36.520  15.661   0.316
78109CL-    CL-37403   3.319  31.409  12.924
78110CL-    CL-37404  10.715  30.416  13.043
78111CL-    CL-37405  29.986  11.215   3.826
78112CL-    CL-37406   3.785  43.005   1.368
78113CL-    CL-37407  14.635  39.450   4.808
78114CL-    CL-37408  35.079  10.775   0.777
78115CL-    CL-37409   8.704  36.910   2.182
78116CL-    CL-37410  14.262   1.401   4.831
78117CL-    CL-37411   2.418  44.431   0.294
78118CL-    CL-37412   4.227  18.702   2.682
78119CL-    CL-37413  30.953   7.409   4.722
78120CL-    CL-37414  25.107  21.672   0.856
78121CL-    CL-37415  24.684  32.026  12.570
78122CL-    CL-37416  37.360   7.243   4.626
78123CL-    CL-37417   7.704  17.667   2.323
78124CL-    CL-37418  17.241  28.030   4.307
78125CL-    CL-37419  12.811  29.033   0.355
78126CL-    CL-37420  43.460  30.929  11.404
78127CL-    CL-37421  43.779   5.911  14.286
78128CL-    CL-37422   4.939  43.775  11.867
78129CL-    CL-37423   1.957  37.444  14.313
78130CL-    CL-37424  43.830  42.396  14.355
78131CL-    CL-37425  15.192   0.910   1.735
78132CL-    CL-37426   7.401   9.649  11.905
78133CL-    CL-37427  22.640  30.164   0.861
78134CL-    CL-37428  24.630  27.686   2.349
78135CL-    CL-37429  31.415   8.825  12.534
78136CL-    CL-37430  13.177   1.469  12.385
78137CL-    CL-37431  42.342  13.782   3.643
78138CL-    CL-37432  42.462  34.879  11.032
78139CL-    CL-37433  43.767  19.263   4.717
78140CL-    CL-37434  16.759  31.109   3.822
78141CL-    CL-37435  38.356  23.582   4.147
78142CL-    CL-37436  13.664  20.188   2.231
78143CL-    CL-37437  12.613   8.293   3.811
78144CL-    CL-37438  34.078  20.200   2.304
78145CL-    CL-37439  36.048  37.008  10.607
78146CL-    CL-37440   6.223  25.554  14.027
78147CL-    CL-37441   0.950  32.984  11.076
78148CL-    CL-37442  38.331  34.054   2.377
78149CL-    CL-37443  23.139  31.936   4.657
78150CL-    CL-37444  44.287  16.188   4.289
78151CL-    CL-37445  38.839  41.493   9.955
78152CL-    CL-37446   9.313  29.158  12.395
78153CL-    CL-37447  35.549  20.071   1.334
78154CL-    CL-37448  27.010  11.804  11.875
78155CL-    CL-37449  23.020  17.261   0.364
78156CL-    CL-37450  14.809  20.648   1.721
78157CL-    CL-37451  10.801   7.886   4.690
78158CL-    CL-37452  32.429  35.438   2.391
78159CL-    CL-37453  22.103  17.061  10.957
78160CL-    CL-37454  39.965  14.785  13.852
78161CL-    CL-37455  26.088   3.903   4.675
78162CL-    CL-37456  31.954  27.550  10.622
78163CL-    CL-37457  22.742  34.997   3.732
78164CL-    CL-37458  37.368   1.279  13.803
78165CL-    CL-37459  21.519  33.412  14.435
78166CL-    CL-37460   3.409   4.360  12.050
78167CL-    CL-37461   1.377  13.775   3.656
78168CL-    CL-37462  42.386  31.475  10.415
78169CL-    CL-37463  40.028  36.841  14.998
78170CL-    CL-37464  27.582  42.445  14.275
78171CL-    CL-37465  32.581  16.175  14.296
78172CL-    CL-37466  26.483  32.486   2.319
78173CL-    CL-37467  32.101  31.960   0.788
78174CL-    CL-37468  35.958  15.259  11.593
78175CL-    CL-37469  18.237  40.049   1.289
78176CL-    CL-37470  43.923  44.952  10.478
78177CL-    CL-37471   6.718  10.687   2.397
78178CL-    CL-37472   5.852  42.454   4.326
78179CL-    CL-37473   1.937  44.276   9.958
78180CL-    CL-37474  16.073  23.669  13.841
78181CL-    CL-37475  30.922   3.800  13.843
78182CL-    CL-37476  11.776  36.452  11.552
78183CL-    CL-37477  22.251   6.702   2.667
78184CL-    CL-37478  32.436   6.224  12.553
78185CL-    CL-37479  14.096  29.541  11.094
78186CL-    CL-37480  20.573  29.071   1.913
78187CL-    CL-37481  13.148   6.701   1.328
78188CL-    CL-37482  29.163   3.932   3.662
78189CL-    CL-37483  18.279  39.927  12.478
78190CL-    CL-37484  14.810  14.652   1.226
78191CL-    CL-37485  30.507   8.699   2.414
78192CL-    CL-37486  43.307  15.802   0.811
78193CL-    CL-37487  21.639  19.752  12.515
78194CL-    CL-37488  35.888  38.511  12.908
78195CL-    CL-37489   2.914  44.431   2.796
78196CL-    CL-37490  31.076  29.092  14.882
78197CL-    CL-37491  23.735   7.202   4.340
78198CL-    CL-37492  39.837   6.368   3.722
78199CL-    CL-37493  37.068  30.004   4.115
78200CL-    CL-37494   0.396  29.062   3.370
78201CL-    CL-37495  30.480  40.428   4.693
78202CL-    CL-37496  21.512   4.746   4.703
78203CL-    CL-37497  25.980  29.515  13.987
78204CL-    CL-37498  12.203  37.443   0.434
78205CL-    CL-37499  29.508  10.236   0.838
78206CL-    CL-37500  32.429  24.514  11.856
78207CL-    CL-37501  28.526   6.817   1.769
78208CL-    CL-37502  31.952  12.715  13.995
78209CL-    CL-37503  20.231  37.880   2.663
78210CL-    CL-37504  25.540  32.397  14.290
78211CL-    CL-37505  12.294  16.670  14.861
78212CL-    CL-37506  38.324  35.394  11.068
78213CL-    CL-37507   2.234  15.218  14.494
78214CL-    CL-37508  19.195  28.945  14.425
78215CL-    CL-37509   9.193   6.240   2.324
78216CL-    CL-37510  32.629  39.864  11.413
78217CL-    CL-37511  23.048  41.992  11.878
78218CL-    CL-37512  30.075  14.129  10.974
78219CL-    CL-37513  18.109  13.262  14.947
78220CL-    CL-37514  44.777   8.884   0.912
78221CL-    CL-37515  27.571   9.160   3.206
78222CL-    CL-37516  39.545  18.764  12.855
78223CL-    CL-37517   1.352  14.246   3.676
78224CL-    CL-37518   0.418  20.160  13.530
78225CL-    CL-37519   8.187  36.519   4.177
78226CL-    CL-37520  17.241   5.350   2.309
78227CL-    CL-37521  27.122  42.408  14.454
78228CL-    CL-37522  20.761  31.098  12.945
78229CL-    CL-37523  26.609   4.852   4.606
78230CL-    CL-37524  35.415  28.075   3.350
78231CL-    CL-37525   7.320   4.281  13.384
78232CL-    CL-37526   3.337  31.469   2.802
78233CL-    CL-37527  23.004  36.093  12.048
78234CL-    CL-37528  15.602  10.837   3.796
78235CL-    CL-37529  18.185  18.121   2.356
78236CL-    CL-37530  21.599  33.476   2.238
78237CL-    CL-37531  12.362  12.758  13.347
78238CL-    CL-37532  20.060  24.718  11.858
78239CL-    CL-37533  41.913  33.564   0.793
78240CL-    CL-37534   0.348  20.534   1.252
78241CL-    CL-37535  38.375   2.241   1.292
78242CL-    CL-37536   0.419  41.507  12.068
78243CL-    CL-37537  18.628  44.380   3.378
78244CL-    CL-37538   9.159  25.125   2.678
78245CL-    CL-37539  32.533  33.495   2.805
78246CL-    CL-37540   2.958  25.057   3.754
78247CL-    CL-37541  38.415  10.259  13.507
78248CL-    CL-37542  19.119  15.226  10.418
78249CL-    CL-37543  30.989  34.006  12.065
78250CL-    CL-37544  27.449  40.929   1.281
78251CL-    CL-37545  25.152  20.109   2.403
78252CL-    CL-37546   3.894   6.417  13.063
78253CL-    CL-37547  20.750  33.035   1.381
78254CL-    CL-37548  30.471  37.565   3.291
78255CL-    CL-37549  26.995  38.426   2.742
78256CL-    CL-37550  12.828  10.183  14.846
78257CL-    CL-37551  44.773   2.851   4.173
78258CL-    CL-37552   9.845  40.345  11.922
78259CL-    CL-37553  16.760  22.249  11.917
78260CL-    CL-37554   3.953  10.285  14.855
78261CL-    CL-37555  21.619  43.974   4.139
78262CL-    CL-37556  30.602   6.864  12.382
78263CL-    CL-37557  16.779  12.215  12.931
78264CL-    CL-37558   5.930  44.872   2.789
78265CL-    CL-37559   0.290   7.357   2.310
78266CL-    CL-37560  25.572  25.022   4.285
78267CL-    CL-37561   4.836  30.036  10.414
78268CL-    CL-37562  42.905  21.203  13.802
78269CL-    CL-37563  17.622  18.711   0.257
78270CL-    CL-37564   5.799  10.253   4.177
78271CL-    CL-37565  26.582  39.911   3.348
78272CL-    CL-37566  37.456  23.096  13.423
78273CL-    CL-37567  20.676  33.602   0.744
78274CL-    CL-37568  38.023  31.980  12.357
78275CL-    CL-37569  15.585  13.328   0.326
78276CL-    CL-37570   8.765   7.258   1.914
78277CL-    CL-37571  30.914  26.701  13.009
78278CL-    CL-37572  11.726  38.960   3.249
78279CL-    CL-37573   4.725  10.730  13.886
78280CL-    CL-37574  25.588  20.190   4.622
78281CL-    CL-37575  35.474   4.702   3.206
78282CL-    CL-37576  18.746  39.898   4.180
78283CL-    CL-37577  41.956  11.786  13.398
78284CL-    CL-37578   7.207  17.780   2.296
78285CL-    CL-37579  30.918  26.031   2.786
78286CL-    CL-37580  14.736   0.953  12.876
78287CL-    CL-37581  39.887  20.547   1.929
78288CL-    CL-37582  35.567  23.038   0.812
78289CL-    CL-37583   0.258  39.403  11.875
78290CL-    CL-37584  43.905  34.116   4.796
78291CL-    CL-37585  34.501  44.935  14.291
78292CL-    CL-37586  26.472  33.414   3.167
78293CL-    CL-37587  30.050  25.522   4.166
78294CL-    CL-37588  15.730  27.463   0.282
78295CL-    CL-37589  13.124   6.227   2.220
78296CL-    CL-37590  35.100  36.013   4.243
78297CL-    CL-37591  29.963  16.259  13.514
78298CL-    CL-37592   2.955  36.532   1.429
78299CL-    CL-37593   5.423  19.213   2.786
78300CL-    CL-37594  12.856  34.879  12.869
78301CL-    CL-37595  23.515  44.960  14.782
78302CL-    CL-37596   6.404  25.546   2.716
78303CL-    CL-37597   6.277  17.623  11.962
78304CL-    CL-37598   2.387  44.858  13.893
78305CL-    CL-37599  43.948  43.370   3.752
78306CL-    CL-37600  43.291  39.908  14.899
78307CL-    CL-37601  31.444  26.099   0.927
78308CL-    CL-37602  33.466   6.894  13.995
78309CL-    CL-37603  32.537   7.393   1.932
78310CL-    CL-37604  29.599  29.113   4.762
78311CL-    CL-37605  22.697  21.698   2.394
78312CL-    CL-37606   1.313  15.223  12.941
78313CL-    CL-37607  37.954  29.162   0.350
78314CL-    CL-37608  33.022  12.621  13.397
78315CL-    CL-37609  12.702  23.536  12.363
78316CL-    CL-37610  10.656   9.730  10.606
78317CL-    CL-37611  25.572  30.549   1.798
78318CL-    CL-37612  26.544   0.773   3.368
78319CL-    CL-37613  35.577  40.414   1.448
78320CL-    CL-37614  10.369   8.397  11.088
78321CL-    CL-37615  23.661  43.303   1.818
78322CL-    CL-37616  28.572  23.628  13.463
78323CL-    CL-37617  21.138   8.276   0.954
78324CL-    CL-37618  30.936  39.468  11.889
78325CL-    CL-37619   2.898   8.666  10.897
78326CL-    CL-37620  27.975  35.862  11.114
78327CL-    CL-37621   0.886  25.561  14.834
78328CL-    CL-37622   8.286  20.705  14.936
78329CL-    CL-37623   1.772  16.175  10.532
78330CL-    CL-37624  26.575  13.775  12.951
78331CL-    CL-37625  24.032  27.648  13.836
78332CL-    CL-37626  31.500  11.275  11.495
78333CL-    CL-37627  44.829  10.187  12.434
78334CL-    CL-37628  35.409  16.798  10.422
78335CL-    CL-37629   8.384   9.354  13.363
78336CL-    CL-37630  23.735  14.601   3.853
78337CL-    CL-37631  29.669   0.912   2.769
78338CL-    CL-37632  35.860   0.782   1.250
78339CL-    CL-37633  29.017   3.918   1.221
78340CL-    CL-37634  15.598   7.846  14.380
78341CL-    CL-37635  13.328  10.277   3.731
78342CL-    CL-37636  27.468  37.949  14.005
78343CL-    CL-37637  10.223  27.649   1.389
78344CL-    CL-37638  21.615  13.259  12.551
78345CL-    CL-37639  25.162  18.129  11.076
78346CL-    CL-37640   1.859   6.693  12.413
78347CL-    CL-37641  10.845   0.868  14.466
78348CL-    CL-37642  41.440  17.304   5.225
78349CL-    CL-37643  16.595  14.160   0.337
78350CL-    CL-37644  30.630   5.822  13.519
78351CL-    CL-37645  34.555  34.555   0.373
78352CL-    CL-37646   5.755  25.528   3.744
78353CL-    CL-37647   1.310  15.159  10.917
78354CL-    CL-37648   2.775  11.815  11.927
78355CL-    CL-37649  26.619  44.007   2.381
78356CL-    CL-37650  36.053  18.755  14.836
78357CL-    CL-37651  16.779  28.445  12.386
78358CL-    CL-37652   5.202  42.343   1.830
78359CL-    CL-37653  14.596  16.751  11.921
78360CL-    CL-37654  10.260  15.775  14.803
78361CL-    CL-37655  25.131  44.959  11.898
78362CL-    CL-37656  12.626  40.850   0.401
78363CL-    CL-37657  35.578   4.291  10.418
78364CL-    CL-37658  16.255  34.894  10.616
78365CL-    CL-37659   3.830  35.947  14.851
78366CL-    CL-37660  34.605  12.167   2.223
78367CL-    CL-37661  13.289   6.908  12.347
78368CL-    CL-37662  40.433  15.789   1.710
78369CL-    CL-37663  21.134  22.534   4.244
78370CL-    CL-37664  12.295  30.565   4.169
78371CL-    CL-37665  35.028  37.482  12.095
78372CL-    CL-37666  19.261  33.587  12.096
78373CL-    CL-37667   4.879  29.940   3.363
78374CL-    CL-37668  23.010  40.942   3.366
78375CL-    CL-37669  21.021  13.750   3.823
78376CL-    CL-37670  20.562   2.417   1.742
78377CL-    CL-37671  17.190  43.448   0.965
78378CL-    CL-37672  40.001  24.175   2.305
78379CL-    CL-37673  36.421  31.547   1.854
78380CL-    CL-37674  24.638  28.561  13.417
78381CL-    CL-37675  13.317  19.768  11.569
78382CL-    CL-37676  36.013  13.744   4.180
78383CL-    CL-37677  33.946  24.565   3.778
78384CL-    CL-37678  14.623  29.425   4.825
78385CL-    CL-37679  36.094  37.928  12.043
78386CL-    CL-37680  16.659  29.110   4.799
78387CL-    CL-37681   6.732  31.118  12.047
78388CL-    CL-37682  10.688   4.446   0.369
78389CL-    CL-37683  37.395  33.021   3.714
78390CL-    CL-37684   2.753  42.486  11.485
78391CL-    CL-37685  36.882  21.205   4.223
78392CL-    CL-37686  28.125   4.431   3.649
78393CL-    CL-37687  34.101  38.877   4.176
78394CL-    CL-37688   1.741   1.309   3.387
78395CL-    CL-37689  27.108  27.601  11.527
78396CL-    CL-37690   7.672  42.346  11.977
78397CL-    CL-37691   2.254  16.777  14.974
78398CL-    CL-37692  17.254  21.658  13.427
78399CL-    CL-37693  43.924   3.874  12.849
78400CL-    CL-37694  23.615   5.347   3.651
78401CL-    CL-37695   9.266  36.479  14.944
78402CL-    CL-37696  42.788  22.229   2.204
78403CL-    CL-37697  23.637   2.950  14.500
78404CL-    CL-37698  43.370  43.967   3.765
78405CL-    CL-37699  40.039  25.691   2.274
78406CL-    CL-37700  23.995  44.322  14.812
78407CL-    CL-37701   0.318   6.795   4.729
78408CL-    CL-37702  37.997  38.951  13.488
78409CL-    CL-37703  12.781  20.673  13.456
78410CL-    CL-37704   6.235  33.450   5.247
78411CL-    CL-37705  33.984  22.206  10.455
78412CL-    CL-37706  36.348  16.747  10.423
78413CL-    CL-37707  32.451  44.421  11.547
78414CL-    CL-37708  26.145  21.613   1.914
78415CL-    CL-37709  43.794  41.911  13.417
78416CL-    CL-37710   8.809  15.773  14.760
78417CL-    CL-37711  14.126  10.255   0.852
78418CL-    CL-37712  18.153   3.353  10.971
78419CL-    CL-37713  13.796   1.925   2.854
78420CL-    CL-37714  34.543  33.483  11.533
78421CL-    CL-37715  23.556  41.906  11.999
78422CL-    CL-37716  23.162  44.942   0.264
78423CL-    CL-37717   9.348   6.422   4.722
78424CL-    CL-37718   1.355   7.666   4.616
78425CL-    CL-37719   1.774  23.145   2.188
78426CL-    CL-37720   4.414  20.208   4.310
78427CL-    CL-37721   9.690  14.696  13.920
78428CL-    CL-37722  19.688  38.881   1.735
78429CL-    CL-37723  24.568  35.933  11.403
78430CL-    CL-37724  19.104  41.974   1.422
78431CL-    CL-37725  30.512  32.496  11.396
78432CL-    CL-37726  14.652   4.727   2.839
78433CL-    CL-37727  28.509  24.165   0.762
78434CL-    CL-37728   9.870  17.290  14.870
78435CL-    CL-37729  15.248  35.883  14.434
78436CL-    CL-37730  23.619  27.467   2.870
78437CL-    CL-37731   2.253  13.834  13.976
78438CL-    CL-37732  26.966  31.152  14.427
78439CL-    CL-37733   5.913  41.442  13.050
78440CL-    CL-37734  38.382  44.949  13.006
78441CL-    CL-37735  26.563  11.765   5.217
78442CL-    CL-37736   8.823   4.357  14.896
78443CL-    CL-37737  41.415  37.961   4.792
78444CL-    CL-37738  20.078  30.429  10.537
78445CL-    CL-37739  23.540  31.936  11.921
78446CL-    CL-37740  14.611   5.930   1.418
78447CL-    CL-37741  37.342  35.852  14.345
78448CL-    CL-37742  29.619  28.543   1.430
78449CL-    CL-37743  35.906  35.934   0.919
78450CL-    CL-37744  11.635  13.135  10.411
78451CL-    CL-37745  31.425  39.468   3.255
78452CL-    CL-37746  22.121  29.457  13.369
78453CL-    CL-37747  12.156  29.473  11.543
78454CL-    CL-37748  27.453  21.553  11.911
78455CL-    CL-37749   6.841  29.017   4.230
78456CL-    CL-37750  13.131  31.912   4.350
78457CL-    CL-37751  16.151  25.516   1.248
78458CL-    CL-37752   4.910  16.209  12.863
78459CL-    CL-37753  30.476  16.112   2.715
78460CL-    CL-37754  35.972  12.313  14.001
78461CL-    CL-37755  19.611  28.059   4.209
78462CL-    CL-37756  24.174  14.786   4.731
78463CL-    CL-37757   8.781  32.518   2.709
78464CL-    CL-37758  41.519  25.634   3.268
78465CL-    CL-37759  38.509  28.623   2.325
78466CL-    CL-37760  34.063  15.260  10.487
78467CL-    CL-37761  19.188  43.916  11.414
78468CL-    CL-37762  43.947   3.822   2.332
78469CL-    CL-37763  38.468   0.982  14.969
78470CL-    CL-37764  16.285  33.615  11.540
78471CL-    CL-37765  38.853  27.607   3.153
78472CL-    CL-37766  30.001   0.476   3.321
78473CL-    CL-37767   5.759  35.516  14.490
78474CL-    CL-37768   9.225  24.109   2.197
78475CL-    CL-37769  34.929   0.403  12.526
78476CL-    CL-37770   2.887  38.461   2.732
78477CL-    CL-37771  26.976   5.402  11.097
78478CL-    CL-37772  38.350  22.092  12.501
78479CL-    CL-37773  33.581  30.933  10.462
78480CL-    CL-37774  20.203  40.844   3.383
78481CL-    CL-37775  34.027  34.377  13.423
78482CL-    CL-37776  11.748   9.818  11.584
78483CL-    CL-37777   6.921  19.737   2.374
78484CL-    CL-37778  11.260  26.055  11.441
78485CL-    CL-37779   7.908  39.861   0.322
78486CL-    CL-37780   5.843  14.692  10.504
78487CL-    CL-37781  17.302  35.010   3.867
78488CL-    CL-37782   5.243  33.051   1.391
78489CL-    CL-37783   3.380  38.064  13.056
78490CL-    CL-37784  13.773   5.376  13.430
78491CL-    CL-37785  31.406  12.362   2.875
78492CL-    CL-37786  40.875  44.292   2.272
78493CL-    CL-37787  16.585  43.302   2.786
78494CL-    CL-37788  33.056  21.066  13.893
78495CL-    CL-37789  15.721  33.901   2.306
78496CL-    CL-37790  12.820   9.344   2.187
78497CL-    CL-37791  35.070  16.588   3.826
78498CL-    CL-37792   3.387  33.914  13.385
78499CL-    CL-37793  29.016   9.373  12.852
78500CL-    CL-37794   8.678  15.702   1.774
78501CL-    CL-37795  27.191  20.748   0.919
78502CL-    CL-37796  37.030  22.680   2.755
78503CL-    CL-37797  21.712   9.865   2.408
78504CL-    CL-37798   8.208  43.313  12.007
78505CL-    CL-37799  44.004   2.859  12.510
78506CL-    CL-37800   3.401  15.740   5.182
78507CL-    CL-37801  24.028   1.825  13.495
78508CL-    CL-37802  43.377   2.453  11.974
78509CL-    CL-37803   3.866   6.272   3.272
78510CL-    CL-37804  35.088   8.400   2.346
78511CL-    CL-37805  44.834  26.103  11.938
78512CL-    CL-37806  19.260   1.405  14.285
78513CL-    CL-37807  33.047   5.912  14.003
78514CL-    CL-37808  19.152  39.323  13.418
78515CL-    CL-37809  28.142  38.987  14.392
78516CL-    CL-37810  29.050  36.470  14.374
78517CL-    CL-37811   6.215  21.144   3.816
78518CL-    CL-37812  20.591   9.804   1.925
78519CL-    CL-37813  39.326  25.139   4.629
78520CL-    CL-37814  26.549  23.150  11.466
78521CL-    CL-37815  42.803  18.201  12.409
78522CL-    CL-37816  17.099  14.827  13.534
78523CL-    CL-37817  12.803  37.979   1.820
78524CL-    CL-37818   7.268  41.446   4.242
78525CL-    CL-37819   8.375  39.040  12.840
78526CL-    CL-37820  30.910  30.933   2.411
78527CL-    CL-37821  31.901  26.635   4.201
78528CL-    CL-37822  40.961  13.811   2.791
78529CL-    CL-37823  27.106   8.286   5.584
78530CL-    CL-37824  11.249  42.941   1.418
78531CL-    CL-37825   1.319  38.858  10.644
78532CL-    CL-37826  37.918  36.412  14.978
78533CL-    CL-37827  31.151  31.936  13.439
78534CL-    CL-37828  39.430  19.042  13.510
78535CL-    CL-37829  32.914  32.074   3.666
78536CL-    CL-37830  28.091  35.454   1.410
78537CL-    CL-37831   2.329  24.512   4.630
78538CL-    CL-37832  41.307  39.821   0.747
78539CL-    CL-37833   1.752  16.625   0.246
78540CL-    CL-37834   4.406  44.373  13.006
78541CL-    CL-37835   2.460  19.597  11.604
78542CL-    CL-37836  17.752  17.138  13.936
78543CL-    CL-37837   8.832  42.981   0.261
78544CL-    CL-37838   8.893  23.557   4.130
78545CL-    CL-37839  39.037  36.912   4.126
78546CL-    CL-37840  15.619  21.222   0.815
78547CL-    CL-37841   3.906  14.708  14.861
78548CL-    CL-37842  12.323  34.454  14.441
78549CL-    CL-37843  37.473  40.940  13.309
78550CL-    CL-37844   0.793  22.599   5.190
78551CL-    CL-37845  28.116   8.817  10.578
78552CL-    CL-37846  31.037  38.482  12.089
78553CL-    CL-37847  12.342  11.354   1.394
78554CL-    CL-37848   5.775  22.664   1.262
78555CL-    CL-37849   3.744  38.045   1.805
78556CL-    CL-37850  29.147  34.436   1.252
78557CL-    CL-37851   7.719  24.098  13.862
78558CL-    CL-37852   6.205  40.364   2.349
78559CL-    CL-37853  20.652  23.551  14.279
78560CL-    CL-37854  10.246  24.125   0.879
78561CL-    CL-37855  13.287  26.175  14.516
78562CL-    CL-37856  14.324  25.083  14.311
78563CL-    CL-37857   3.330  15.304  12.991
78564CL-    CL-37858   1.386   0.953  11.094
78565CL-    CL-37859  41.455   4.274  12.885
78566CL-    CL-37860   9.738  12.826   0.751
78567CL-    CL-37861  24.606  14.639  12.470
78568CL-    CL-37862  18.214   1.398  12.873
78569CL-    CL-37863  20.636   8.844  14.305
78570CL-    CL-37864  29.491   7.828   3.269
78571CL-    CL-37865  24.028  10.856   5.742
78572CL-    CL-37866  12.181   8.262   1.244
78573CL-    CL-37867   2.900  21.697  14.406
78574CL-    CL-37868  29.151  12.648  10.900
78575CL-    CL-37869  17.660   3.358  14.332
78576CL-    CL-37870  20.678   0.778  11.381
78577CL-    CL-37871  40.471  38.890  10.922
78578CL-    CL-37872   6.321  13.152  13.014
78579CL-    CL-37873   4.845  16.723  11.537
78580CL-    CL-37874  11.338  27.092  14.412
78581CL-    CL-37875  43.405   5.749  13.013
78582CL-    CL-37876  29.668  26.137   1.741
78583CL-    CL-37877  28.973   9.182  10.470
78584CL-    CL-37878  31.484   5.422  12.018
78585CL-    CL-37879  43.008  42.915   5.254
78586CL-    CL-37880  14.099  23.698  12.409
78587CL-    CL-37881  20.653  17.213  13.855
78588CL-    CL-37882   4.410  17.781  14.499
78589CL-    CL-37883  41.350  42.894   0.929
78590CL-    CL-37884  28.148  43.337   1.723
78591CL-    CL-37885  25.103  36.910   0.457
78592CL-    CL-37886  11.772   2.809  12.959
78593CL-    CL-37887   3.383  20.610  13.028
78594CL-    CL-37888  32.405  23.592   2.819
78595CL-    CL-37889  31.024  27.064  13.832
78596CL-    CL-37890  12.618  29.515  11.574
78597CL-    CL-37891   5.741  31.924  13.836
78598CL-    CL-37892   3.410  25.159   1.415
78599CL-    CL-37893  27.606  11.169   9.969
78600CL-    CL-37894  30.570  32.969   2.722
78601CL-    CL-37895  42.496   2.447  13.496
78602CL-    CL-37896  18.242   1.449  11.005
78603CL-    CL-37897   4.404  10.343   3.661
78604CL-    CL-37898  36.016  29.544  11.423
78605CL-    CL-37899  13.113  36.914   1.911
78606CL-    CL-37900  29.503  11.755   0.859
78607CL-    CL-37901  31.034   3.785  10.410
78608CL-    CL-37902  17.604  34.561  10.608
78609CL-    CL-37903  23.574  15.206   1.415
78610CL-    CL-37904  20.689   3.910  12.992
78611CL-    CL-37905  29.668  41.356   0.814
78612CL-    CL-37906  13.108  10.232   0.897
78613CL-    CL-37907  42.307  26.586   0.300
78614CL-    CL-37908  22.607  22.718  10.575
78615CL-    CL-37909  18.112  15.211  12.983
78616CL-    CL-37910  21.670   6.762   4.768
78617CL-    CL-37911  28.537  36.018   0.956
78618CL-    CL-37912  36.033  36.956   3.812
78619CL-    CL-37913  22.599  31.612  10.598
78620CL-    CL-37914  44.473  24.983  13.990
78621CL-    CL-37915  26.641  37.459   3.188
78622CL-    CL-37916  30.591  15.220   2.187
78623CL-    CL-37917  19.743   6.341  13.938
78624CL-    CL-37918  31.623  14.299  11.023
78625CL-    CL-37919  12.348  32.454  12.514
78626CL-    CL-37920  11.221  10.851  12.414
78627CL-    CL-37921  26.494  29.053  12.008
78628CL-    CL-37922  44.465  43.408   4.294
78629CL-    CL-37923   7.684   1.410   0.882
78630CL-    CL-37924   4.231  13.829  13.945
78631CL-    CL-37925  29.161  15.092  13.970
78632CL-    CL-37926   1.463  39.827   0.340
78633CL-    CL-37927  21.726  25.048  12.458
78634CL-    CL-37928  10.140  19.708   2.732
78635CL-    CL-37929  11.196   3.928   0.288
78636CL-    CL-37930  29.958  31.078  11.020
78637CL-    CL-37931  36.869  30.055   1.383
78638CL-    CL-37932  27.527   3.359  11.559
78639CL-    CL-37933  30.009  30.601   3.372
78640CL-    CL-37934  35.021  12.707  14.336
78641CL-    CL-37935  33.542  32.600   3.839
78642CL-    CL-37936  18.051  18.555   4.157
78643CL-    CL-37937  32.066  36.881   3.263
78644CL-    CL-37938  26.670  10.794  13.981
78645CL-    CL-37939  17.182  36.037   4.738
78646CL-    CL-37940  19.641   9.814   4.312
78647CL-    CL-37941  34.028  32.446   2.220
78648CL-    CL-37942  10.875  38.325  11.070
78649CL-    CL-37943  14.829  32.991   4.211
78650CL-    CL-37944  13.332  12.168   4.204
78651CL-    CL-37945  18.609  28.129  12.938
78652CL-    CL-37946  14.095   3.717  11.565
78653CL-    CL-37947  27.975  25.517   4.772
78654CL-    CL-37948  12.313  22.155  12.406
78655CL-    CL-37949  25.060  18.710   2.761
78656CL-    CL-37950   0.873   3.741   1.780
78657CL-    CL-37951  12.693  33.077  13.390
78658CL-    CL-37952  40.545  21.554  14.800
78659CL-    CL-37953   4.777  38.345   2.183
78660CL-    CL-37954   8.188  21.599  14.930
78661CL-    CL-37955   5.349   2.303  14.928
78662CL-    CL-37956  40.402  22.583   4.144
78663CL-    CL-37957  33.891  21.148   5.247
78664CL-    CL-37958  19.742  44.445   0.899
78665CL-    CL-37959  24.607   2.240   1.240
78666CL-    CL-37960  21.036  33.059   4.164
78667CL-    CL-37961  34.888  36.882  12.353
78668CL-    CL-37962  24.548  18.610   0.402
78669CL-    CL-37963  43.292  24.644   4.252
78670CL-    CL-37964   3.781  18.570  10.012
78671CL-    CL-37965   4.266  21.665   0.893
78672CL-    CL-37966   1.974  12.692   3.778
78673CL-    CL-37967  15.693   2.784  12.011
78674CL-    CL-37968  35.033  42.849  10.137
78675CL-    CL-37969   8.406  27.612  12.056
78676CL-    CL-37970  37.885  13.776   0.363
78677CL-    CL-37971  41.969  12.619  14.810
78678CL-    CL-37972  40.356  12.220  11.871
78679CL-    CL-37973  19.775  42.430  11.401
78680CL-    CL-37974  43.936  13.806   0.912
78681CL-    CL-37975   4.244   0.877  12.000
78682CL-    CL-37976  36.500  44.007  13.882
78683CL-    CL-37977  31.582  42.981   4.692
78684CL-    CL-37978   1.867  33.430   2.803
78685CL-    CL-37979  22.695  17.598  12.872
78686CL-    CL-37980   3.786   6.849   1.932
78687CL-    CL-37981   6.847   9.347   2.407
78688CL-    CL-37982  11.777   5.856   3.637
78689CL-    CL-37983   4.939   5.702  11.898
78690CL-    CL-37984  21.521  39.926  14.911
78691CL-    CL-37985   3.314  39.055  12.998
78692CL-    CL-37986  24.994   4.734  12.844
78693CL-    CL-37987   4.331  24.018   9.963
78694CL-    CL-37988  35.405  42.381   0.944
78695CL-    CL-37989   6.301   8.406  14.028
78696CL-    CL-37990  25.554  44.476   4.704
78697CL-    CL-37991  33.953  40.864  10.470
78698CL-    CL-37992  39.435  35.553  11.399
78699CL-    CL-37993  22.112  34.079  12.912
78700CL-    CL-37994  40.936  43.999  11.043
78701CL-    CL-37995   2.865  39.440   4.745
78702CL-    CL-37996  32.619  12.832  14.979
78703CL-    CL-37997  40.870  19.756  13.053
78704CL-    CL-37998  39.972   3.428   2.402
78705CL-    CL-37999   0.284   1.966  14.839
78706CL-    CL-38000   6.313  34.921   0.884
78707CL-    CL-38001   8.709  24.059   3.778
78708CL-    CL-38002  19.196  42.934   3.836
78709CL-    CL-38003  20.598  23.540   1.933
78710CL-    CL-38004  18.735  14.125  13.055
78711CL-    CL-38005  10.168  30.479   2.698
78712CL-    CL-38006  22.717  26.200  10.979
78713CL-    CL-38007  36.970  36.529   2.336
78714CL-    CL-38008  30.500  25.187  14.512
78715CL-    CL-38009  32.555  18.678  10.472
78716CL-    CL-38010  30.639  41.488   1.222
78717CL-    CL-38011  41.321  18.678  12.463
78718CL-    CL-38012  38.389  23.056  10.559
78719CL-    CL-38013  14.142   5.821  12.958
78720CL-    CL-38014  39.871  36.447  11.052
78721CL-    CL-38015   2.335   9.284  12.420
78722CL-    CL-38016  13.321  42.487  13.542
78723CL-    CL-38017  22.703  14.094   0.950
78724CL-    CL-38018  41.041  37.875   2.327
78725CL-    CL-38019  24.670  26.183  10.905
78726CL-    CL-38020  35.398   1.267  13.508
78727CL-    CL-38021  23.203  24.213   3.796
78728CL-    CL-38022  19.625  21.706  10.416
78729CL-    CL-38023   4.712   4.406  11.392
78730CL-    CL-38024  34.110  21.681   4.137
78731CL-    CL-38025  43.969  12.216  10.566
78732CL-    CL-38026   1.419  17.062   4.796
78733CL-    CL-38027  23.532  23.503  13.829
78734CL-    CL-38028  18.283  24.144   3.850
78735CL-    CL-38029  18.545  35.526  11.960
78736CL-    CL-38030  34.022   2.767   0.386
78737CL-    CL-38031  27.563  31.573  10.924
78738CL-    CL-38032   0.439  18.772   0.847
78739CL-    CL-38033  14.657  37.503  14.931
78740CL-    CL-38034  23.024  43.917  13.372
78741CL-    CL-38035   9.763  37.914  13.351
78742CL-    CL-38036  30.043  38.551  10.408
78743CL-    CL-38037  20.239  36.044   5.297
78744CL-    CL-38038  12.307   5.370  12.383
78745CL-    CL-38039  33.128  17.231   3.354
78746CL-    CL-38040   9.888   2.814   1.904
78747CL-    CL-38041   2.269  30.612   2.380
78748CL-    CL-38042  18.096  12.827  10.023
78749CL-    CL-38043  30.085  10.144  10.438
78750CL-    CL-38044  38.528  33.550  11.451
78751CL-    CL-38045  16.283  27.506   1.309
78752CL-    CL-38046   4.856  22.701   4.679
78753CL-    CL-38047   0.764  25.468   0.749
78754CL-    CL-38048   2.756  29.923   3.641
78755CL-    CL-38049  13.153  16.110  10.539
78756CL-    CL-38050   2.236  14.238   4.315
78757CL-    CL-38051  20.260  40.047   1.219
78758CL-    CL-38052  32.584   8.264  10.948
78759CL-    CL-38053   8.837  23.621  13.436
78760CL-    CL-38054  31.925  41.825  14.829
78761CL-    CL-38055  24.725  26.981  11.443
78762CL-    CL-38056  34.421  13.826  10.957
78763CL-    CL-38057  37.396   1.818   0.933
78764CL-    CL-38058  41.326  18.095   4.750
78765CL-    CL-38059  32.979  18.586   2.322
78766CL-    CL-38060  24.205  10.249  12.964
78767CL-    CL-38061  18.725   5.867  11.021
78768CL-    CL-38062  15.675   1.850  14.818
78769CL-    CL-38063  18.220   7.835   0.427
78770CL-    CL-38064  43.890  26.990  14.954
78771CL-    CL-38065  22.046  34.551   1.811
78772CL-    CL-38066  12.196  43.422   3.278
78773CL-    CL-38067  44.871  11.188  12.925
78774CL-    CL-38068  28.062  29.153   3.377
78775CL-    CL-38069  19.135  13.745   2.772
78776CL-    CL-38070  18.236  37.066   1.737
78777CL-    CL-38071   8.260  21.237  13.331
78778CL-    CL-38072  16.122   7.327   5.103
78779CL-    CL-38073  40.865  33.562  12.094
78780CL-    CL-38074  13.650  21.517   4.272
78781CL-    CL-38075   5.850  19.743  11.056
78782CL-    CL-38076  27.485  39.908   5.768
78783CL-    CL-38077  37.503  19.248  11.594
78784CL-    CL-38078   2.317  34.996   4.704
78785CL-    CL-38079  44.283   2.420  14.514
78786CL-    CL-38080   0.858  20.071   1.901
78787CL-    CL-38081  26.536   2.432  12.857
78788CL-    CL-38082   2.839  34.551   0.467
78789CL-    CL-38083  20.052  22.701  14.777
78790CL-    CL-38084  16.700  37.434   2.418
78791CL-    CL-38085  33.580  10.673  10.100
78792CL-    CL-38086  40.414  10.202   1.229
78793CL-    CL-38087   3.385   1.475  12.360
78794CL-    CL-38088  21.158   9.800  11.012
78795CL-    CL-38089  38.963   0.274   2.805
78796CL-    CL-38090  19.203  36.504   1.370
78797CL-    CL-38091  35.946  22.692   4.715
78798CL-    CL-38092  17.592  11.753   1.702
78799CL-    CL-38093  21.145  11.220   0.826
78800CL-    CL-38094  40.480  28.645   3.191
78801CL-    CL-38095  18.706  40.823   3.698
78802CL-    CL-38096  34.102  19.186   1.736
78803CL-    CL-38097  17.299  42.362  11.601
78804CL-    CL-38098  16.806  29.168   4.345
78805CL-    CL-38099  13.283   3.856   2.682
78806CL-    CL-38100  36.938  30.136  14.451
78807CL-    CL-38101   3.938  26.522  10.120
78808CL-    CL-38102  44.340  32.052  13.521
78809CL-    CL-38103  27.581  11.189   3.648
78810CL-    CL-38104   0.982   4.775  12.405
78811CL-    CL-38105  30.607  32.460   1.406
78812CL-    CL-38106  29.147  16.182  12.828
78813CL-    CL-38107  13.254  19.258   3.683
78814CL-    CL-38108  38.035  40.393  12.435
78815CL-    CL-38109  44.383  33.433   0.363
78816CL-    CL-38110  18.055   0.987  10.512
78817CL-    CL-38111  30.944  13.624  12.060
78818CL-    CL-38112  21.219  23.157   3.761
78819CL-    CL-38113  20.621  30.509  11.887
78820CL-    CL-38114  23.634  11.224   5.288
78821CL-    CL-38115  33.001  26.961   3.816
78822CL-    CL-38116  18.607  20.222   1.253
78823CL-    CL-38117  10.357  38.875  11.857
78824CL-    CL-38118  14.238  29.505  13.032
78825CL-    CL-38119  26.133   7.896   2.743
78826CL-    CL-38120  30.116  39.945  14.002
78827CL-    CL-38121   2.937   6.887  11.061
78828CL-    CL-38122  13.765  44.495  13.420
78829CL-    CL-38123  26.465  19.207  12.513
78830CL-    CL-38124  35.042   8.870   2.697
78831CL-    CL-38125   8.826  14.320   3.195
78832CL-    CL-38126   8.857  44.759  13.818
78833CL-    CL-38127   6.792  26.694  13.470
78834CL-    CL-38128   3.288  24.034  10.137
78835CL-    CL-38129  18.153  20.735  13.792
78836CL-    CL-38130  38.435  23.211   3.751
78837CL-    CL-38131  23.081   1.802   0.313
78838CL-    CL-38132   8.358  34.454   0.941
78839CL-    CL-38133  26.108  14.825   3.354
78840CL-    CL-38134  12.140  41.396   2.733
78841CL-    CL-38135  29.628   0.961   5.085
78842CL-    CL-38136  26.126  15.174   1.741
78843CL-    CL-38137  13.682  44.847   2.702
78844CL-    CL-38138  36.375  30.155   3.384
78845CL-    CL-38139  38.469   2.417   3.311
78846CL-    CL-38140  28.947  13.161   4.632
78847CL-    CL-38141  39.839  12.177   4.327
78848CL-    CL-38142   5.274  35.004   0.963
78849CL-    CL-38143  20.100  31.473  10.518
78850CL-    CL-38144  43.457   4.721   4.613
78851CL-    CL-38145  17.085   4.796   0.898
78852CL-    CL-38146  31.648  42.888   0.401
78853CL-    CL-38147  37.416  14.116  11.944
78854CL-    CL-38148  30.075  23.724   0.745
78855CL-    CL-38149   9.383   5.790   1.376
78856CL-    CL-38150  38.405   3.244   3.709
78857CL-    CL-38151  26.089  33.588   1.273
78858CL-    CL-38152  36.491  23.210   4.747
78859CL-    CL-38153  10.871  35.495  10.551
78860CL-    CL-38154  38.382  33.083  13.864
78861CL-    CL-38155  21.070  39.939   2.312
78862CL-    CL-38156  40.848   5.280  12.028
78863CL-    CL-38157   6.870  37.007   0.861
78864CL-    CL-38158  40.480  44.782  10.427
78865CL-    CL-38159  10.351  29.573   3.819
78866CL-    CL-38160  21.628   1.912   1.898
78867CL-    CL-38161  28.449  35.378  11.548
78868CL-    CL-38162   7.316  28.510  10.929
78869CL-    CL-38163  33.894  43.944   3.737
78870CL-    CL-38164  18.593  35.947   4.199
78871CL-    CL-38165  29.928   5.357   4.248
78872CL-    CL-38166  30.659  43.511   3.721
78873CL-    CL-38167  22.114  34.379  14.486
78874CL-    CL-38168  43.341  12.803   4.824
78875CL-    CL-38169  22.504  34.044  10.622
78876CL-    CL-38170  21.583  14.713   0.853
78877CL-    CL-38171  23.054   3.851   0.419
78878CL-    CL-38172  15.311  16.768  14.828
78879CL-    CL-38173  26.035   8.799  14.355
78880CL-    CL-38174   5.930   4.216  13.376
78881CL-    CL-38175  39.420  39.337  10.456
78882CL-    CL-38176   4.400  13.803   4.255
78883CL-    CL-38177  38.906  18.154  10.100
78884CL-    CL-38178   4.403  28.550   4.184
78885CL-    CL-38179   4.755  28.046   3.293
78886CL-    CL-38180   5.383  13.295   3.252
78887CL-    CL-38181  42.927   4.250  11.877
78888CL-    CL-38182  34.480   1.298   0.395
78889CL-    CL-38183  13.723   4.844  11.866
78890CL-    CL-38184  24.022   3.302  13.032
78891CL-    CL-38185  38.394   9.685   0.734
78892CL-    CL-38186  17.587  36.864   2.386
78893CL-    CL-38187  26.047  24.638   1.758
78894CL-    CL-38188  30.627  28.976  10.953
78895CL-    CL-38189  30.466  27.585  11.429
78896CL-    CL-38190  24.110   4.790   3.215
78897CL-    CL-38191  13.150  44.338   0.392
78898CL-    CL-38192  29.163  27.054   0.735
78899CL-    CL-38193  21.079  42.456   3.717
78900CL-    CL-38194  43.948  40.975  14.768
78901CL-    CL-38195  37.341  42.296  10.612
78902CL-    CL-38196  40.355  27.663  13.402
78903CL-    CL-38197   8.229  19.724  14.846
78904CL-    CL-38198   8.828  14.782  14.868
78905CL-    CL-38199  31.150  39.546   0.958
78906CL-    CL-38200  43.488  15.096   2.748
78907CL-    CL-38201  22.164   4.326   4.743
78908CL-    CL-38202  40.377   5.368   0.413
78909CL-    CL-38203  12.819  44.984  12.555
78910CL-    CL-38204  14.741  27.081   4.123
78911CL-    CL-38205  13.694  10.654  10.495
78912CL-    CL-38206  40.302   6.713  10.606
78913CL-    CL-38207  41.438  29.969   4.135
78914CL-    CL-38208  16.242  18.728   2.217
78915CL-    CL-38209  18.626  26.652  11.550
78916CL-    CL-38210  32.561  22.667   3.684
78917CL-    CL-38211   4.273  14.682  10.629
78918CL-    CL-38212  19.614   5.219  13.979
78919CL-    CL-38213  12.651  18.549  14.295
78920CL-    CL-38214  25.137  40.994   3.181
78921CL-    CL-38215  20.699  42.378   2.893
78922CL-    CL-38216   8.395   4.444  13.462
78923CL-    CL-38217  11.141  35.465   2.769
78924CL-    CL-38218  11.299  40.947   3.714
78925CL-    CL-38219  33.055   8.380   5.259
78926CL-    CL-38220  41.950   7.395   1.247
78927CL-    CL-38221   7.868  36.576  10.983
78928CL-    CL-38222   2.768  18.694   4.125
78929CL-    CL-38223  39.497  23.621  13.831
78930CL-    CL-38224   6.426  26.509   5.207
78931CL-    CL-38225  18.230   9.252   3.271
78932CL-    CL-38226   5.875  19.557  13.474
78933CL-    CL-38227  17.578  41.817   0.342
78934CL-    CL-38228  12.156  17.183  11.117
78935CL-    CL-38229  26.010  20.094   0.814
78936CL-    CL-38230  44.980   9.218  14.927
78937CL-    CL-38231   0.370  15.236  10.587
78938CL-    CL-38232  42.893  25.164  12.032
78939CL-    CL-38233  30.640   8.181  11.391
78940CL-    CL-38234  33.516  22.551   3.378
78941CL-    CL-38235  44.007  33.094  14.981
78942CL-    CL-38236  35.869  37.957  10.423
78943CL-    CL-38237  31.634  10.714  12.071
78944CL-    CL-38238   4.221  14.094  11.936
78945CL-    CL-38239  41.000  21.528   1.707
78946CL-    CL-38240  41.004  37.940  13.921
78947CL-    CL-38241  36.384   0.357  11.968
78948CL-    CL-38242   2.377  41.450   5.310
78949CL-    CL-38243  19.756  23.160   3.757
78950CL-    CL-38244  40.304  27.005  13.512
78951CL-    CL-38245   0.796   8.310  11.864
78952CL-    CL-38246  13.298   6.328   1.764
78953CL-    CL-38247  14.669  30.937   4.177
78954CL-    CL-38248  24.028  34.035   4.756
78955CL-    CL-38249  25.121  42.912   4.145
78956CL-    CL-38250  16.709  39.379   0.743
78957CL-    CL-38251  10.715  29.166   3.816
78958CL-    CL-38252  28.638   4.856  14.504
78959CL-    CL-38253  33.937   6.303  13.432
78960CL-    CL-38254  28.471  41.913  10.483
78961CL-    CL-38255  38.911  14.231  13.465
78962CL-    CL-38256  44.466  39.927  14.925
78963CL-    CL-38257  27.567  16.618   0.291
78964CL-    CL-38258  42.828  33.984  13.355
78965CL-    CL-38259  42.990   7.332   0.413
78966CL-    CL-38260  18.274  16.248   0.482
78967CL-    CL-38261  12.253  41.797  14.469
78968CL-    CL-38262  26.083  30.478   3.631
78969CL-    CL-38263  30.539  35.093   1.402
78970CL-    CL-38264  39.485  17.307  14.358
78971CL-    CL-38265   8.782  37.074  11.382
78972CL-    CL-38266  21.557  24.136   1.298
78973CL-    CL-38267   1.849  33.425   0.948
78974CL-    CL-38268  33.494   8.896  14.388
78975CL-    CL-38269  17.688  16.721   5.677
78976CL-    CL-38270  43.790  41.432   4.186
78977CL-    CL-38271  14.280  18.093   4.231
78978CL-    CL-38272  43.893  37.577  11.446
78979CL-    CL-38273  29.940  21.051  13.896
78980CL-    CL-38274  22.083  22.596   1.263
78981CL-    CL-38275  40.448  24.080   1.838
78982CL-    CL-38276   9.154  12.674   1.228
78983CL-    CL-38277  29.538  33.045  12.861
78984CL-    CL-38278  21.150  24.016   0.876
78985CL-    CL-38279  19.166   4.375  10.417
78986CL-    CL-38280  32.049   7.717  10.109
78987CL-    CL-38281   6.321   8.245  10.444
78988CL-    CL-38282  15.188  27.600   0.406
78989CL-    CL-38283   6.287  16.097   0.463
78990CL-    CL-38284   7.910   2.780   0.470
78991CL-    CL-38285   2.247  42.968  11.904
78992CL-    CL-38286   6.863  38.346   1.776
78993CL-    CL-38287  23.700  23.105   1.318
78994CL-    CL-38288   6.227   5.697   4.785
78995CL-    CL-38289  27.940  25.641   1.700
78996CL-    CL-38290  34.008   9.204  11.078
78997CL-    CL-38291  43.958  31.521   4.778
78998CL-    CL-38292  39.857  22.099   0.246
78999CL-    CL-38293  35.451  41.519  12.466
79000CL-    CL-38294  12.775  42.447  13.436
79001CL-    CL-38295   3.922  16.737   4.334
79002CL-    CL-38296   0.802   6.420   9.935
79003CL-    CL-38297  26.959  31.921   9.926
79004CL-    CL-38298  35.094  33.914  13.409
79005CL-    CL-38299  26.086   2.892   3.367
79006CL-    CL-38300  11.707   9.863   1.316
79007CL-    CL-38301  32.447  43.451   2.892
79008CL-    CL-38302  23.059  11.832   2.377
79009CL-    CL-38303  27.070  32.986   4.779
79010CL-    CL-38304  38.457   5.900  14.314
79011CL-    CL-38305  18.245  40.413   1.324
79012CL-    CL-38306  40.988  10.152   2.707
79013CL-    CL-38307  28.599  43.352   3.690
79014CL-    CL-38308   1.884  16.208  14.923
79015CL-    CL-38309  33.944   7.260   0.423
79016CL-    CL-38310  44.947  13.763  10.557
79017CL-    CL-38311   2.803   2.882  14.985
79018CL-    CL-38312  27.162  30.130   0.459
79019CL-    CL-38313  21.214  35.521   1.845
79020CL-    CL-38314  10.299   8.309  14.911
79021CL-    CL-38315  22.556   6.750  11.577
79022CL-    CL-38316  43.423   5.897   4.162
79023CL-    CL-38317  37.451  39.317   1.330
79024CL-    CL-38318  11.698  40.842   9.985
79025CL-    CL-38319  30.482  34.058   0.851
79026CL-    CL-38320  20.214  32.962  13.511
79027CL-    CL-38321  40.019  40.496   0.949
79028CL-    CL-38322  16.087   4.803  11.598
79029CL-    CL-38323  12.627  22.223  11.394
79030CL-    CL-38324   9.151  10.282  14.406
79031CL-    CL-38325  44.937  32.000  12.436
79032CL-    CL-38326  34.514  44.815   3.289
79033CL-    CL-38327  25.591  38.506  10.606
79034CL-    CL-38328   6.838  36.542  13.405
79035CL-    CL-38329   7.331   5.705   1.869
79036CL-    CL-38330   4.317  36.410   3.381
79037CL-    CL-38331  25.590  31.415   1.789
79038CL-    CL-38332  33.522   0.362   4.261
79039CL-    CL-38333  38.019  18.723   4.665
79040CL-    CL-38334  16.639   3.711   2.861
79041CL-    CL-38335  12.217  24.160   3.289
79042CL-    CL-38336  24.076   9.235   3.149
79043CL-    CL-38337  26.001   3.943   1.235
79044CL-    CL-38338  39.927  33.440   0.930
79045CL-    CL-38339  35.853   9.843  12.454
79046CL-    CL-38340  11.694  21.234   2.818
79047CL-    CL-38341   0.451   9.679   1.744
79048CL-    CL-38342  34.962  28.637  10.937
79049CL-    CL-38343  32.578  36.385   3.664
79050CL-    CL-38344  10.791  38.938  14.860
79051CL-    CL-38345  35.453  39.001  12.005
79052CL-    CL-38346  27.999  42.903  10.938
79053CL-    CL-38347  23.561  29.528   0.470
79054CL-    CL-38348  29.959  38.465   0.736
79055CL-    CL-38349  28.445  33.036   3.233
79056CL-    CL-38350  43.979   1.428  14.791
79057CL-    CL-38351  38.500  17.146   2.742
79058CL-    CL-38352  40.402  29.162   4.197
79059CL-    CL-38353  29.119  37.403   0.378
79060CL-    CL-38354  41.329  39.983  12.880
79061CL-    CL-38355   5.851  31.639   0.791
79062CL-    CL-38356   9.883   0.846   5.742
79063CL-    CL-38357  32.034  35.982   3.361
79064CL-    CL-38358  23.183  31.462  13.361
79065CL-    CL-38359   6.273  40.907   4.669
79066CL-    CL-38360   2.452  39.049  13.994
79067CL-    CL-38361  15.583  36.077  12.928
79068CL-    CL-38362  23.562   6.355   4.628
79069CL-    CL-38363  33.617  26.550  14.382
79070CL-    CL-38364  40.549  37.366   1.695
79071CL-    CL-38365  44.410  42.286  14.890
79072CL-    CL-38366  44.788  10.660   3.780
79073CL-    CL-38367   8.761  17.131  12.371
79074CL-    CL-38368  15.253  16.811   5.717
79075CL-    CL-38369  25.171   2.442  12.430
79076CL-    CL-38370  11.670  30.629  10.479
79077CL-    CL-38371  20.593  34.084   0.469
79078CL-    CL-38372  37.578  17.577  12.924
79079CL-    CL-38373  10.715   1.783  13.824
79080CL-    CL-38374  12.176  42.967  10.425
79081CL-    CL-38375  26.647  20.591  11.885
79082CL-    CL-38376  31.617   2.434   3.863
79083CL-    CL-38377  16.234  42.849  11.411
79084CL-    CL-38378  12.184   0.485   2.229
79085CL-    CL-38379   6.765  27.999  14.416
79086CL-    CL-38380   9.200  14.793   4.754
79087CL-    CL-38381  17.215   7.208  10.147
79088CL-    CL-38382  32.029  44.302  13.527
79089CL-    CL-38383  42.818  33.605  14.759
79090CL-    CL-38384  25.552  25.063  13.844
79091CL-    CL-38385  30.642   8.865  13.866
79092CL-    CL-38386  31.052  18.123   2.668
79093CL-    CL-38387  38.916   6.335  11.966
79094CL-    CL-38388  44.459   5.291   9.582
79095CL-    CL-38389  16.765  42.523   3.352
79096CL-    CL-38390  12.322  16.169   2.364
79097CL-    CL-38391  40.360  37.509   0.729
79098CL-    CL-38392  28.539  32.139   1.811
79099CL-    CL-38393  42.885  38.069  10.572
79100CL-    CL-38394  40.518  43.812   1.858
79101CL-    CL-38395  15.713  14.326  11.452
79102CL-    CL-38396  16.806  34.532   4.195
79103CL-    CL-38397  14.153  28.603  13.894
79104CL-    CL-38398  19.773  13.325  11.559
79105CL-    CL-38399  22.140   8.708  11.959
79106CL-    CL-38400  24.207  38.921   3.285
79107CL-    CL-38401  17.744  42.970  11.601
79108CL-    CL-38402   3.307  33.097   1.733
79109CL-    CL-38403  12.648  19.114  10.981
79110CL-    CL-38404  25.493  44.344  13.375
79111CL-    CL-38405  16.607  21.574  14.492
79112CL-    CL-38406  12.154  38.473  11.975
79113CL-    CL-38407  34.539  25.592  11.042
79114CL-    CL-38408  28.055  16.732  12.579
79115CL-    CL-38409  33.046  20.129   2.389
79116CL-    CL-38410   9.341  19.150  10.585
79117CL-    CL-38411  29.171  35.574   0.341
79118CL-    CL-38412  38.988  40.422   4.200
79119CL-    CL-38413  34.572  22.225  11.024
79120CL-    CL-38414   9.677  10.841   1.402
79121CL-    CL-38415  13.795  39.903  14.955
79122CL-    CL-38416  39.060  17.639   3.290
79123CL-    CL-38417  21.234   1.358  14.976
79124CL-    CL-38418  15.150   9.341  11.891
79125CL-    CL-38419   0.752  11.723   0.475
79126CL-    CL-38420  23.998  31.447  11.026
79127CL-    CL-38421  22.114  10.704   1.239
79128CL-    CL-38422  30.598   2.808   3.831
79129CL-    CL-38423  34.036  21.052  11.088
79130CL-    CL-38424  13.731  21.210  14.979
79131CL-    CL-38425  40.888  19.245   3.637
79132CL-    CL-38426  22.016   5.265   2.766
79133CL-    CL-38427  27.597  28.485   0.951
79134CL-    CL-38428   4.892  28.626  11.097
79135CL-    CL-38429  11.825  31.437  10.106
79136CL-    CL-38430  37.579  20.582  10.021
79137CL-    CL-38431  44.476  28.478  14.886
79138CL-    CL-38432  14.275  21.046  13.465
79139CL-    CL-38433  35.490   4.741   0.381
79140CL-    CL-38434   1.929   5.903  13.823
79141CL-    CL-38435  19.228  14.099   0.294
79142CL-    CL-38436  41.476  12.776   3.856
79143CL-    CL-38437  10.760   7.382  11.062
79144CL-    CL-38438  25.984  20.171  10.992
79145CL-    CL-38439  32.048  39.004   3.678
79146CL-    CL-38440  23.660  12.343   2.197
79147CL-    CL-38441   7.912  38.570  11.993
79148CL-    CL-38442  43.786  36.925   2.693
79149CL-    CL-38443  18.078  39.444   2.284
79150CL-    CL-38444  33.927  19.219   0.827
79151CL-    CL-38445  22.221  32.986   4.793
79152CL-    CL-38446  44.869  24.180   1.840
79153CL-    CL-38447  19.042   5.359  10.997
79154CL-    CL-38448  40.982  23.131  13.040
79155CL-    CL-38449  33.440  31.118  11.456
79156CL-    CL-38450  43.927  10.849   4.652
79157CL-    CL-38451  37.024  10.661  14.277
79158CL-    CL-38452  27.004   5.363   4.113
79159CL-    CL-38453  12.651  33.516   1.815
79160CL-    CL-38454  41.814   7.414   3.175
79161CL-    CL-38455  17.122  37.575   3.653
79162CL-    CL-38456  39.049  31.898   1.896
79163CL-    CL-38457  22.713  17.238   0.409
79164CL-    CL-38458   0.251  10.294  11.120
79165CL-    CL-38459   9.208  27.045   2.664
79166CL-    CL-38460   4.449   1.877   4.753
79167CL-    CL-38461   9.796  28.071  12.577
79168CL-    CL-38462  39.926  43.317  10.449
79169CL-    CL-38463  21.122  19.588  13.542
79170CL-    CL-38464  27.608  16.774  12.519
79171CL-    CL-38465   4.904   8.305  12.495
79172CL-    CL-38466  26.094  40.806   3.869
79173CL-    CL-38467   6.754  28.176  12.380
79174CL-    CL-38468  34.407  41.388  12.068
79175CL-    CL-38469  12.207   7.708  11.544
79176CL-    CL-38470  18.725  41.839  12.350
79177CL-    CL-38471  26.604  34.549  13.884
79178CL-    CL-38472  29.438   0.850   0.457
79179CL-    CL-38473  17.623  41.341   4.613
79180CL-    CL-38474  28.618  44.443   1.389
79181CL-    CL-38475   1.852   3.462  11.879
79182CL-    CL-38476  36.856  11.747   2.769
79183CL-    CL-38477  13.610  20.738   1.250
79184CL-    CL-38478  12.686  41.506  14.349
79185CL-    CL-38479  23.630  41.491  13.351
79186CL-    CL-38480  39.492  29.956  11.082
79187CL-    CL-38481   1.368   7.783  12.070
79188CL-    CL-38482  28.985  40.926  14.915
79189CL-    CL-38483   7.773  21.262  12.985
79190CL-    CL-38484  19.763  17.616   2.318
79191CL-    CL-38485  29.955  42.843   1.300
79192CL-    CL-38486   3.431  32.041  12.979
79193CL-    CL-38487  23.035   5.419  10.600
79194CL-    CL-38488  17.730  41.368   2.277
79195CL-    CL-38489  36.884  18.253  14.863
79196CL-    CL-38490  30.589  15.705   4.212
79197CL-    CL-38491  34.426  32.116  14.894
79198CL-    CL-38492  36.458  32.054   3.838
79199CL-    CL-38493  21.648  42.981  13.404
79200CL-    CL-38494  17.644  35.863  14.467
79201CL-    CL-38495   3.720   1.347   2.364
79202CL-    CL-38496  44.336  35.545  11.933
79203CL-    CL-38497   6.684  20.637   1.315
79204CL-    CL-38498  33.877  40.364   3.658
79205CL-    CL-38499   4.759   3.804   3.630
79206CL-    CL-38500  28.462   4.781  13.845
79207CL-    CL-38501  31.524  21.183   1.286
79208CL-    CL-38502  33.105   2.942   0.427
79209CL-    CL-38503  44.359  42.914  14.889
79210CL-    CL-38504  12.717  39.330   2.824
79211CL-    CL-38505  24.978  29.081  13.534
79212CL-    CL-38506  18.274  18.255   2.700
79213CL-    CL-38507   6.421   5.779  11.994
79214CL-    CL-38508   1.873  16.584   2.409
79215CL-    CL-38509  39.880   0.273  12.838
79216CL-    CL-38510  13.674  20.639  14.936
79217CL-    CL-38511   0.908  26.959  11.401
79218CL-    CL-38512  31.919  27.590   1.227
79219CL-    CL-38513  32.085  17.664   0.854
79220CL-    CL-38514  14.201  35.890   4.341
79221CL-    CL-38515   2.786  43.363   2.857
79222CL-    CL-38516  20.028  19.712   9.980
79223CL-    CL-38517  19.551  15.228   3.217
79224CL-    CL-38518  32.974   2.250   1.305
79225CL-    CL-38519  27.048  25.211  13.503
79226CL-    CL-38520  14.191  12.769  14.904
79227CL-    CL-38521  36.474  27.584  12.397
79228CL-    CL-38522  19.215   2.367  13.020
79229CL-    CL-38523  33.022  19.743  10.512
79230CL-    CL-38524   8.299  29.631  14.510
79231CL-    CL-38525  34.389  36.051   1.737
79232CL-    CL-38526  17.132  29.004  11.032
79233CL-    CL-38527  18.243   9.342   0.881
79234CL-    CL-38528   1.419  28.100   0.767
79235CL-    CL-38529  17.063  21.557  12.043
79236CL-    CL-38530  23.039  13.775   0.334
79237CL-    CL-38531  18.700  30.010  10.887
79238CL-    CL-38532  25.161  20.575  14.302
79239CL-    CL-38533  13.189  12.189   1.380
79240CL-    CL-38534  43.961  12.783   3.303
79241CL-    CL-38535  34.945  10.723  13.385
79242CL-    CL-38536   8.308  21.688   1.343
79243CL-    CL-38537  43.832  35.489  12.345
79244CL-    CL-38538  25.509   6.708   2.375
79245CL-    CL-38539   7.375  18.089  10.482
79246CL-    CL-38540  36.972  25.999   3.156
79247CL-    CL-38541  19.053  38.433  11.424
79248CL-    CL-38542  43.769  44.357   3.693
79249CL-    CL-38543  35.503  13.823   0.782
79250CL-    CL-38544  17.731  27.565   4.284
79251CL-    CL-38545  37.414  20.610   1.397
79252CL-    CL-38546  10.844  16.128  10.409
79253CL-    CL-38547  43.968  43.493   2.319
79254CL-    CL-38548  34.603  37.925   9.974
79255CL-    CL-38549  21.647  28.068  10.437
79256CL-    CL-38550  35.915  11.279   3.292
79257CL-    CL-38551  22.665  10.794   2.262
79258CL-    CL-38552  13.202   1.768  10.500
79259CL-    CL-38553  44.307  25.669  14.286
79260CL-    CL-38554  21.174  43.009   1.215
79261CL-    CL-38555  32.962   1.822  10.615
79262CL-    CL-38556  13.271  15.190  12.382
79263CL-    CL-38557   1.452  22.182  13.993
79264CL-    CL-38558  28.991  36.555  11.891
79265CL-    CL-38559   5.283  38.949   2.801
79266CL-    CL-38560  15.220   0.938   3.373
79267CL-    CL-38561  31.903   4.428  12.508
79268CL-    CL-38562  44.351   3.244   5.147
79269CL-    CL-38563  33.889  18.173   0.456
79270CL-    CL-38564  32.464  21.681  12.358
79271CL-    CL-38565  25.705  21.637   2.900
79272CL-    CL-38566  28.939   2.723  10.953
79273CL-    CL-38567  39.474  15.818   2.184
79274CL-    CL-38568  42.937  35.458  12.932
79275CL-    CL-38569   4.753  31.901  11.585
79276CL-    CL-38570  12.117  31.555   5.310
79277CL-    CL-38571  42.371  18.740  13.907
79278CL-    CL-38572  13.839  43.374   4.733
79279CL-    CL-38573  37.961  25.149   1.233
79280CL-    CL-38574  39.024   1.280   4.354
79281CL-    CL-38575  35.069   3.221  11.922
79282CL-    CL-38576  20.608  21.093  12.962
79283CL-    CL-38577   5.310  26.689  12.400
79284CL-    CL-38578  38.847  44.396  10.430
79285CL-    CL-38579  18.129  42.457   2.208
79286CL-    CL-38580  19.056  21.176   0.481
79287CL-    CL-38581   8.861  13.284   3.739
79288CL-    CL-38582  11.246  42.795  10.422
79289CL-    CL-38583  36.965  44.393   0.260
79290CL-    CL-38584  16.708  32.496   0.475
79291CL-    CL-38585  21.134   1.895   4.326
79292CL-    CL-38586   0.387   5.896  13.920
79293CL-    CL-38587  33.061  39.000  13.405
79294CL-    CL-38588  39.851  17.173   3.641
79295CL-    CL-38589  11.686  44.327  13.415
79296CL-    CL-38590  13.190  36.415   1.303
79297CL-    CL-38591   2.899  27.944  14.469
79298CL-    CL-38592   3.798  19.765  10.515
79299CL-    CL-38593  42.895  26.138  12.974
79300CL-    CL-38594  33.937  18.239  13.058
79301CL-    CL-38595  30.616  44.847   1.280
79302CL-    CL-38596  32.495   5.305  13.881
79303CL-    CL-38597  26.652  28.953   0.794
79304CL-    CL-38598  36.574  24.135  14.463
79305CL-    CL-38599  20.610  34.966   3.826
79306CL-    CL-38600  14.204  38.063   0.339
79307CL-    CL-38601  11.231  24.018   3.208
79308CL-    CL-38602  13.689  30.440  12.824
79309CL-    CL-38603  42.500   0.780  11.906
79310CL-    CL-38604  37.451  11.200  13.033
79311CL-    CL-38605   5.771  14.134   3.200
79312CL-    CL-38606  10.197  30.141  13.939
79313CL-    CL-38607  28.053  35.425   4.710
79314CL-    CL-38608   4.922  18.689   1.246
79315CL-    CL-38609  25.482  27.947   4.309
79316CL-    CL-38610  43.900  33.420  14.476
79317CL-    CL-38611  38.989  11.667   5.082
79318CL-    CL-38612  15.165  39.969   2.338
79319CL-    CL-38613  31.047  18.238  11.980
79320CL-    CL-38614  29.160  24.080   3.718
79321CL-    CL-38615  31.484  18.238   0.877
79322CL-    CL-38616  23.041   1.287  12.387
79323CL-    CL-38617  36.550  40.950  12.389
79324CL-    CL-38618  26.032  39.430   2.248
79325CL-    CL-38619  24.511  11.829   3.706
79326CL-    CL-38620  31.499  36.370  12.013
79327CL-    CL-38621  42.940  39.057  14.413
79328CL-    CL-38622  43.281  17.071  11.462
79329CL-    CL-38623  31.603  26.571  14.953
79330CL-    CL-38624  17.145   8.706   3.349
79331CL-    CL-38625   5.281  11.337   2.391
79332CL-    CL-38626  29.967  44.867  10.425
79333CL-    CL-38627  19.097   6.831  11.978
79334CL-    CL-38628   7.787  39.028  11.089
79335CL-    CL-38629  30.554  23.119  13.868
79336CL-    CL-38630  28.665  31.430   1.739
79337CL-    CL-38631  25.558  24.668  14.913
79338CL-    CL-38632   5.741  10.251   3.720
79339CL-    CL-38633  30.971  11.695  12.543
79340CL-    CL-38634  40.029  34.565   5.729
79341CL-    CL-38635  24.684  35.983   4.340
79342CL-    CL-38636  14.097  20.575  10.619
79343CL-    CL-38637  31.058  26.190  14.325
79344CL-    CL-38638  19.231  12.737   3.726
79345CL-    CL-38639  19.250  35.483   3.819
79346CL-    CL-38640  39.962  34.057  13.395
79347CL-    CL-38641  34.537  32.613   3.825
79348CL-    CL-38642  21.552  26.498   2.898
79349CL-    CL-38643   4.765  40.987   3.350
79350CL-    CL-38644  43.352  11.159  10.457
79351CL-    CL-38645  28.087  44.363  10.544
79352CL-    CL-38646  42.518  34.968   0.277
79353CL-    CL-38647   1.923   5.712  11.559
79354CL-    CL-38648  19.079  43.415  11.909
79355CL-    CL-38649  28.469  39.969  11.874
79356CL-    CL-38650  41.516  25.481  10.576
79357CL-    CL-38651  42.996  13.210  11.886
79358CL-    CL-38652  20.252  41.023  10.509
79359CL-    CL-38653  29.103  40.826   1.216
79360CL-    CL-38654  29.460   0.412  11.969
79361CL-    CL-38655  43.283   7.194  13.443
79362CL-    CL-38656  29.012  36.535  10.560
79363CL-    CL-38657   9.777  44.433  12.344
79364CL-    CL-38658  35.857  42.966   4.836
79365CL-    CL-38659  35.026   0.841  14.332
79366CL-    CL-38660  18.615  32.631  10.464
79367CL-    CL-38661  22.647  24.213  11.426
79368CL-    CL-38662   3.942  20.226   3.842
79369CL-    CL-38663   9.863  18.661  10.962
79370CL-    CL-38664  20.657   3.323   4.145
79371CL-    CL-38665  33.435   6.421   3.158
79372CL-    CL-38666   3.381  34.375  13.949
79373CL-    CL-38667  18.112  44.279   0.729
79374CL-    CL-38668  42.446  30.475  14.308
79375CL-    CL-38669  42.333  34.090  14.826
79376CL-    CL-38670  38.010  43.828  13.342
79377CL-    CL-38671  38.420  42.857  14.759
79378CL-    CL-38672  17.623  20.643  13.811
79379CL-    CL-38673  39.832  19.229   3.208
79380CL-    CL-38674  14.220  13.662   2.239
79381CL-    CL-38675  25.038  38.898   3.260
79382CL-    CL-38676  34.369   0.354   0.281
79383CL-    CL-38677  23.122  13.251  11.527
79384CL-    CL-38678  41.470   4.710   4.602
79385CL-    CL-38679  15.681   1.388   1.772
79386CL-    CL-38680  19.160  21.573  14.889
79387CL-    CL-38681   3.420   2.829   3.264
79388CL-    CL-38682   3.774  22.236   3.741
79389CL-    CL-38683  23.602  21.023   3.749
79390CL-    CL-38684  17.728   4.350   1.417
79391CL-    CL-38685   3.863  13.604  14.812
79392CL-    CL-38686  10.253  38.871   1.322
79393CL-    CL-38687   5.227  30.552  12.063
79394CL-    CL-38688   4.282  41.294  11.941
79395CL-    CL-38689   4.324  24.142  11.398
79396CL-    CL-38690  41.461  25.199  13.534
79397CL-    CL-38691   9.737  30.126   9.926
79398CL-    CL-38692   5.838   9.237  10.941
79399CL-    CL-38693  12.853  39.528   2.225
79400CL-    CL-38694   6.385  17.685   0.895
79401CL-    CL-38695  32.552  15.618   2.848
79402CL-    CL-38696   3.248   7.794   3.331
79403CL-    CL-38697  14.149   4.232  14.441
79404CL-    CL-38698  11.362  24.722  13.398
79405CL-    CL-38699  41.362  27.571  11.483
79406CL-    CL-38700  14.293  19.268   2.821
79407CL-    CL-38701  31.024   0.986  12.374
79408CL-    CL-38702  40.873   9.160  10.611
79409CL-    CL-38703  43.977   3.393   4.717
79410CL-    CL-38704  22.627   5.843   1.770
79411CL-    CL-38705  38.347   6.784  10.543
79412CL-    CL-38706  44.903  18.089   3.683
79413CL-    CL-38707   2.837  26.049   1.282
79414CL-    CL-38708  29.639  14.177   0.753
79415CL-    CL-38709  19.128  29.016  11.083
79416CL-    CL-38710  38.532   2.332   1.804
79417CL-    CL-38711  29.523  25.032   3.155
79418CL-    CL-38712   9.745  18.261   1.782
79419CL-    CL-38713  33.119  31.972   2.765
79420CL-    CL-38714   4.844  39.877   3.327
79421CL-    CL-38715  35.552  16.778  12.469
79422CL-    CL-38716  22.191   4.439   2.392
79423CL-    CL-38717  13.251  30.910  13.393
79424CL-    CL-38718  21.080  23.175  12.953
79425CL-    CL-38719   5.752  10.231   2.704
79426CL-    CL-38720  17.778   5.337   1.922
79427CL-    CL-38721  11.739  16.575   2.266
79428CL-    CL-38722  29.458  10.331   1.391
79429CL-    CL-38723   3.912  11.207  11.896
79430CL-    CL-38724  16.100  41.813   0.909
79431CL-    CL-38725  10.184  34.030   5.299
79432CL-    CL-38726  40.367  14.805  10.607
79433CL-    CL-38727  10.356  43.920  10.929
79434CL-    CL-38728   3.792  13.794   4.770
79435CL-    CL-38729  25.137  33.971  14.479
79436CL-    CL-38730  39.968  40.830   0.820
79437CL-    CL-38731  18.076  16.228   1.399
79438CL-    CL-38732  29.484  15.597  14.473
79439CL-    CL-38733  34.977  28.967  13.517
79440CL-    CL-38734  10.324   4.850  12.068
79441CL-    CL-38735  15.730  17.575  10.995
79442CL-    CL-38736  44.989  36.522   3.227
79443CL-    CL-38737  18.202  28.126  11.463
79444CL-    CL-38738  20.227  22.581  13.353
79445CL-    CL-38739  13.134  30.075   9.957
79446CL-    CL-38740  10.266  36.588  13.880
79447CL-    CL-38741  35.876   3.414   2.779
79448CL-    CL-38742  44.309  29.655   4.831
79449CL-    CL-38743  38.534  39.906   0.765
79450CL-    CL-38744  19.669   9.804  12.896
79451CL-    CL-38745  31.459   1.940  14.486
79452CL-    CL-38746  11.196   5.338  10.456
79453CL-    CL-38747  16.208   8.810   0.850
79454CL-    CL-38748   1.851  44.328  13.954
79455CL-    CL-38749  35.908  22.619   4.178
79456CL-    CL-38750  21.251  33.981  13.509
79457CL-    CL-38751  33.490  39.994  13.016
79458CL-    CL-38752   5.335  21.078   3.703
79459CL-    CL-38753  20.694  10.672  14.293
79460CL-    CL-38754  19.087  38.030  11.417
79461CL-    CL-38755  40.503  35.895  10.526
79462CL-    CL-38756  31.421  10.247   1.225
79463CL-    CL-38757  41.901  35.909   4.785
79464CL-    CL-38758  35.370  17.657  13.351
79465CL-    CL-38759  34.006  37.409   9.955
79466CL-    CL-38760   3.826  41.530   0.294
79467CL-    CL-38761  28.073  28.055   2.804
79468CL-    CL-38762   7.775  13.780  10.889
79469CL-    CL-38763  22.727  21.648   9.939
79470CL-    CL-38764  20.633  30.576   4.171
79471CL-    CL-38765  44.887   8.788  10.953
79472CL-    CL-38766  14.187  12.125   2.315
79473CL-    CL-38767  15.777  41.316  14.911
79474CL-    CL-38768   6.424   1.424   0.871
79475CL-    CL-38769  20.173  39.001   3.854
79476CL-    CL-38770  13.820  17.232   4.702
79477CL-    CL-38771  44.004  42.840   1.758
79478CL-    CL-38772  40.492   6.266   1.797
79479CL-    CL-38773  28.019   9.701   0.291
79480CL-    CL-38774  27.075  32.482   4.329
79481CL-    CL-38775  31.035  33.529  11.572
79482CL-    CL-38776  31.081   1.805  14.935
79483CL-    CL-38777  32.976  15.790  11.872
79484CL-    CL-38778   9.166  20.103   2.191
79485CL-    CL-38779  37.408   3.328   3.323
79486CL-    CL-38780  36.897  27.969   2.305
79487CL-    CL-38781   2.427  19.538  13.801
79488CL-    CL-38782  24.643  42.981   2.185
79489CL-    CL-38783  30.432  29.959   2.706
79490CL-    CL-38784  23.106  44.325  10.527
79491CL-    CL-38785   9.684   8.895  10.514
79492CL-    CL-38786  11.725  24.654  13.504
79493CL-    CL-38787  23.234   1.816  11.068
79494CL-    CL-38788  31.541  32.519   3.689
79495CL-    CL-38789  18.633  13.710   0.254
79496CL-    CL-38790  16.175  14.598   4.779
79497CL-    CL-38791  40.039  15.603   4.793
79498CL-    CL-38792  38.862  15.777   9.982
79499CL-    CL-38793  10.823  25.039  12.872
79500CL-    CL-38794  25.637   4.881   9.963
79501CL-    CL-38795  12.320  31.021   3.360
79502CL-    CL-38796   5.783   2.337  12.829
79503CL-    CL-38797   2.331  28.037   5.181
79504CL-    CL-38798  24.077  21.643   2.181
79505CL-    CL-38799  21.530  30.932   1.277
79506CL-    CL-38800  15.620  44.939  11.938
79507CL-    CL-38801   7.177  35.064   1.365
79508CL-    CL-38802  18.589   0.475   2.184
79509CL-    CL-38803  37.567  18.050  11.470
79510CL-    CL-38804  44.293  31.554   0.949
79511CL-    CL-38805  41.036  22.661  11.061
79512CL-    CL-38806  33.559  39.047  13.438
79513CL-    CL-38807  16.636  43.507  12.984
79514CL-    CL-38808  31.469  20.229   0.391
79515CL-    CL-38809  40.046  24.133  13.914
79516CL-    CL-38810  24.089  11.221   5.261
79517CL-    CL-38811  36.574   5.299   0.456
79518CL-    CL-38812  37.037  44.917   2.391
79519CL-    CL-38813  27.596   8.393   3.239
79520CL-    CL-38814  41.297  22.708  13.826
79521CL-    CL-38815  38.556  38.853   0.256
79522CL-    CL-38816  11.252  37.899  12.031
79523CL-    CL-38817  22.143   3.216  10.595
79524CL-    CL-38818  36.055  41.033   0.313
79525CL-    CL-38819  20.110  37.073  11.423
79526CL-    CL-38820  21.536  44.475  12.870
79527CL-    CL-38821  26.694  34.951   4.794
79528CL-    CL-38822  20.717  18.252  11.128
79529CL-    CL-38823  10.145  19.114  14.914
79530CL-    CL-38824   4.909  37.977  12.060
79531CL-    CL-38825  13.774  28.165  11.870
79532CL-    CL-38826  32.123  38.882   4.779
79533CL-    CL-38827   3.803  38.347   2.818
79534CL-    CL-38828  33.379   1.465  14.370
79535CL-    CL-38829  29.936  18.758  11.059
79536CL-    CL-38830  37.483  14.195   3.337
79537CL-    CL-38831  28.654  27.003  11.440
79538CL-    CL-38832  11.657  40.967  13.984
79539CL-    CL-38833  22.700  22.547   4.265
79540CL-    CL-38834   9.825  12.263  14.780
79541CL-    CL-38835   7.900  31.564  11.904
79542CL-    CL-38836  30.548  10.371  11.541
79543CL-    CL-38837  44.756  35.052  11.113
79544CL-    CL-38838  36.554   9.296   5.679
79545CL-    CL-38839   8.218  32.092   1.234
79546CL-    CL-38840  25.615  37.068  14.967
79547CL-    CL-38841  16.279  37.479  12.888
79548CL-    CL-38842  33.617  34.408   9.930
79549CL-    CL-38843   3.846  36.386  14.493
79550CL-    CL-38844  33.919  36.905   4.143
79551CL-    CL-38845   1.451  43.003   1.227
79552CL-    CL-38846  17.304  32.002  10.994
79553CL-    CL-38847  34.573  29.523  13.387
79554CL-    CL-38848  26.152  43.506   2.776
79555CL-    CL-38849  14.657  39.822   3.655
79556CL-    CL-38850   7.285  26.468   1.291
79557CL-    CL-38851  33.877  30.651  13.919
79558CL-    CL-38852  32.075  15.210  12.910
79559CL-    CL-38853  35.433  40.910   3.786
79560CL-    CL-38854   7.236  34.105   2.199
79561CL-    CL-38855  12.184  38.848   0.758
79562CL-    CL-38856  44.910  30.045  14.821
79563CL-    CL-38857   9.235   0.945  14.300
79564CL-    CL-38858  31.029  12.307   1.314
79565CL-    CL-38859   2.721  12.238  14.784
79566CL-    CL-38860  22.694  40.995  14.376
79567CL-    CL-38861   8.195  42.796   3.793
79568CL-    CL-38862  43.898  14.152   4.727
79569CL-    CL-38863  41.475  10.185   0.886
79570CL-    CL-38864  30.561   9.840  11.060
79571CL-    CL-38865  28.119  30.032  11.943
79572CL-    CL-38866   2.770  36.496  11.983
79573CL-    CL-38867   0.429  13.212   4.143
79574CL-    CL-38868   3.947  34.451  12.374
79575CL-    CL-38869  37.084  42.791   0.266
79576CL-    CL-38870  23.715   4.307  11.993
79577CL-    CL-38871  39.415  42.482   4.169
79578CL-    CL-38872  41.426  35.392   5.142
79579CL-    CL-38873   2.931  30.533  13.002
79580CL-    CL-38874   4.350  20.726   1.341
79581CL-    CL-38875  12.657   1.751  13.451
79582CL-    CL-38876  20.125  31.018  10.482
79583CL-    CL-38877  37.065   9.849   0.943
79584CL-    CL-38878  34.887   9.161  14.934
79585CL-    CL-38879   2.344   3.788   4.338
79586CL-    CL-38880   5.791  16.307   1.427
79587CL-    CL-38881  13.672  38.532  11.486
79588CL-    CL-38882  21.102  36.399   1.447
79589CL-    CL-38883  18.658   2.830  10.595
79590CL-    CL-38884  34.068  12.140  10.567
79591CL-    CL-38885  20.104   4.764   3.763
79592CL-    CL-38886  17.143  40.523   5.091
79593CL-    CL-38887   3.783  43.801  11.559
79594CL-    CL-38888   3.256   1.926   1.270
79595CL-    CL-38889  26.561  19.052  13.846
79596CL-    CL-38890  41.491  12.844  13.330
79597CL-    CL-38891  37.037  44.859  10.578
79598CL-    CL-38892   5.744  19.743  12.018
79599CL-    CL-38893  31.986   4.821  12.995
79600CL-    CL-38894   3.419  26.178  14.432
79601CL-    CL-38895  17.135  42.303  12.486
79602CL-    CL-38896  31.910   9.663  13.328
79603CL-    CL-38897  15.624  44.348   3.207
79604CL-    CL-38898  25.591  34.466  12.565
79605CL-    CL-38899  34.450  41.860   0.888
79606CL-    CL-38900  32.623  39.556   1.910
79607CL-    CL-38901  26.661  31.437   2.233
79608CL-    CL-38902  43.459  21.571  12.065
79609CL-    CL-38903   8.240  28.631  11.605
79610CL-    CL-38904   6.835  17.574  11.536
79611CL-    CL-38905  15.627  35.442   0.762
79612CL-    CL-38906  16.597  31.533  14.921
79613CL-    CL-38907   5.763   9.279   3.775
79614CL-    CL-38908  42.888   8.857  11.915
79615CL-    CL-38909  39.449  30.590  11.872
79616CL-    CL-38910   8.199  30.098   2.806
79617CL-    CL-38911  27.640  26.513   1.738
79618CL-    CL-38912  28.184  38.435   1.215
79619CL-    CL-38913  18.757  26.064  14.895
79620CL-    CL-38914  24.625  39.954  14.964
79621CL-    CL-38915  21.608  20.731   0.397
79622CL-    CL-38916  40.859  12.199  13.852
79623CL-    CL-38917  42.832  29.532   3.697
79624CL-    CL-38918  15.285  10.300   1.919
79625CL-    CL-38919  34.521  19.597   4.682
79626CL-    CL-38920  19.571  37.431   0.816
79627CL-    CL-38921  39.009  40.799   4.655
79628CL-    CL-38922  37.938  28.661  13.791
79629CL-    CL-38923  16.793  17.627  14.464
79630CL-    CL-38924  40.485  34.872  12.545
79631CL-    CL-38925   7.219   5.810   0.414
79632CL-    CL-38926  33.920  33.932  12.340
79633CL-    CL-38927   6.199  16.098  11.065
79634CL-    CL-38928   4.361  22.037  11.474
79635CL-    CL-38929  17.111  37.052  13.874
79636CL-    CL-38930   9.165  42.313  10.497
79637CL-    CL-38931  27.070  25.143   5.089
79638CL-    CL-38932   8.321   0.446   2.890
79639CL-    CL-38933  14.118  40.532   4.680
79640CL-    CL-38934  10.166  28.644   3.733
79641CL-    CL-38935  35.883  27.067   2.251
79642CL-    CL-38936  37.472  18.767  14.432
79643CL-    CL-38937  43.456  40.895  11.514
79644CL-    CL-38938  37.449  43.828   1.760
79645CL-    CL-38939  11.200  11.856   4.308
79646CL-    CL-38940   9.705   1.381   0.879
79647CL-    CL-38941  42.864  12.224  14.819
79648CL-    CL-38942  30.434  29.609  10.582
79649CL-    CL-38943   7.222   8.301   0.368
79650CL-    CL-38944   2.823  28.079  13.418
79651CL-    CL-38945  21.145  21.110   2.681
79652CL-    CL-38946  10.286   0.836   2.764
79653CL-    CL-38947  16.306  26.632   4.148
79654CL-    CL-38948  17.601  42.799   1.336
79655CL-    CL-38949  15.250  27.118  11.497
79656CL-    CL-38950  31.475  17.780  12.969
79657CL-    CL-38951  24.552   1.877   1.786
79658CL-    CL-38952  19.206  21.188  12.889
79659CL-    CL-38953  21.640  10.747   0.764
79660CL-    CL-38954  27.101  36.538   4.121
79661CL-    CL-38955  36.480  33.080  14.032
79662CL-    CL-38956  16.076   9.700  13.007
79663CL-    CL-38957   0.936  36.471  10.905
79664CL-    CL-38958   9.862  28.099   0.332
79665CL-    CL-38959   8.747  12.715   4.628
79666CL-    CL-38960  41.343  17.720  11.016
79667CL-    CL-38961  13.757  10.848  12.973
79668CL-    CL-38962   2.460  12.808   4.153
79669CL-    CL-38963  44.930  28.646  11.504
79670CL-    CL-38964  12.188  22.634  13.886
79671CL-    CL-38965  24.148  23.204  13.512
79672CL-    CL-38966  10.299  43.859  12.094
79673CL-    CL-38967  34.974   5.224   4.139
79674CL-    CL-38968   2.345  24.498   3.219
79675CL-    CL-38969  19.635   1.450  13.395
79676CL-    CL-38970  28.109   4.335   1.706
79677CL-    CL-38971   0.753  24.977  14.811
79678CL-    CL-38972   7.316  35.942   2.322
79679CL-    CL-38973  18.202  16.736   2.280
79680CL-    CL-38974  31.512  44.925  12.353
79681CL-    CL-38975   9.667  27.103  11.053
79682CL-    CL-38976  18.619  37.449   0.923
79683CL-    CL-38977  43.943  43.308  13.994
79684CL-    CL-38978  23.722   7.705  10.602
79685CL-    CL-38979  10.138  13.319   3.161
79686CL-    CL-38980  14.140  19.711  10.574
79687CL-    CL-38981   5.318   4.450  13.310
79688CL-    CL-38982  25.637  33.944  12.022
79689CL-    CL-38983  41.433  31.984  10.926
79690CL-    CL-38984  31.116  21.247   1.861
79691CL-    CL-38985  44.375  24.995  13.405
79692CL-    CL-38986  12.260  33.070  11.964
79693CL-    CL-38987  42.429  17.656  14.867
79694CL-    CL-38988   8.876   0.869   0.450
79695CL-    CL-38989  32.058   2.289   5.187
79696CL-    CL-38990  32.576  39.864   0.867
79697CL-    CL-38991  11.815  13.674   3.320
79698CL-    CL-38992  35.078  43.866   3.814
79699CL-    CL-38993  41.892  28.069   3.673
79700CL-    CL-38994   5.295  33.049   0.873
79701CL-    CL-38995  33.596  11.231  12.838
79702CL-    CL-38996  37.001   5.755   1.230
79703CL-    CL-38997  40.452  17.591   1.756
79704CL-    CL-38998  43.780   2.884   2.395
79705CL-    CL-38999   9.346  34.922   2.828
79706CL-    CL-39000  32.471  15.601   1.747
79707CL-    CL-39001   2.744   4.229  13.827
79708CL-    CL-39002   4.277   0.901   3.217
79709CL-    CL-39003  18.749  11.258   0.249
79710CL-    CL-39004  37.913  41.984  14.500
79711CL-    CL-39005  14.619  16.805  13.974
79712CL-    CL-39006  39.811  43.349  14.339
79713CL-    CL-39007  38.556  32.937  12.448
79714CL-    CL-39008  10.243  42.332  10.494
79715CL-    CL-39009  10.150  33.126  11.969
79716CL-    CL-39010   4.923  12.766  11.588
79717CL-    CL-39011  38.973  18.265   5.157
79718CL-    CL-39012  14.128   2.787  11.026
79719CL-    CL-39013  21.159  28.501   0.399
79720CL-    CL-39014  35.572  35.416  10.431
79721CL-    CL-39015  33.111  10.336  14.397
79722CL-    CL-39016  21.663  32.475  13.916
79723CL-    CL-39017  37.999   9.787  10.935
79724CL-    CL-39018  22.169  42.786   3.380
79725CL-    CL-39019  31.611  18.263  13.536
79726CL-    CL-39020  10.310  19.151   0.373
79727CL-    CL-39021  22.714  15.770   3.697
79728CL-    CL-39022  17.179  42.000  12.435
79729CL-    CL-39023  40.797  27.165  11.557
79730CL-    CL-39024  33.575   2.376   0.252
79731CL-    CL-39025  31.911  31.504   0.454
79732CL-    CL-39026   1.325  42.834   2.768
79733CL-    CL-39027   5.873  24.571   2.831
79734CL-    CL-39028  10.300  19.651  12.479
79735CL-    CL-39029  21.034  39.012   0.391
79736CL-    CL-39030  24.516   0.309   2.410
79737CL-    CL-39031  19.655  38.358  12.878
79738CL-    CL-39032   3.299   1.385   0.437
79739CL-    CL-39033  25.013   4.342  11.891
79740CL-    CL-39034  20.615  10.692  13.805
79741CL-    CL-39035  43.347  43.927   2.730
79742CL-    CL-39036  36.037  26.167   3.235
79743CL-    CL-39037  36.482  40.377   1.394
79744CL-    CL-39038  20.579  33.546  13.463
79745CL-    CL-39039  28.949  35.597   1.287
79746CL-    CL-39040  12.754  22.529  11.105
79747CL-    CL-39041  19.575  12.278  14.295
79748CL-    CL-39042  26.672  43.885  12.438
79749CL-    CL-39043  11.737  30.523   0.791
79750CL-    CL-39044  36.555  34.492  12.532
79751CL-    CL-39045  30.638   3.396   3.651
79752CL-    CL-39046  18.673  10.775   1.400
79753CL-    CL-39047  24.156   1.816   2.179
79754CL-    CL-39048  10.847  33.514  14.938
79755CL-    CL-39049  25.531  32.979   3.217
79756CL-    CL-39050  17.781  43.921  14.389
79757CL-    CL-39051  44.268  41.008   3.702
79758CL-    CL-39052  25.517   2.348  14.290
79759CL-    CL-39053  31.576   0.926  12.430
79760CL-    CL-39054  37.508  29.011   3.844
79761CL-    CL-39055  28.950  36.554   5.165
79762CL-    CL-39056  44.442  40.970  10.499
79763CL-    CL-39057  25.164  11.160   0.774
79764CL-    CL-39058  10.853   2.956  12.490
79765CL-    CL-39059  14.655   8.183  10.406
79766CL-    CL-39060  19.694   6.899   4.227
79767CL-    CL-39061  14.119  32.961  13.315
79768CL-    CL-39062  36.905  18.676  13.981
79769CL-    CL-39063  31.113  16.623  13.349
79770CL-    CL-39064  37.512  23.052   4.184
79771CL-    CL-39065  43.999  39.810   3.288
79772CL-    CL-39066  18.717  42.791  11.998
79773CL-    CL-39067  38.831   2.810  11.947
79774CL-    CL-39068  37.906   9.297   3.286
79775CL-    CL-39069  27.456  28.974   0.417
79776CL-    CL-39070  30.607   9.352   2.373
79777CL-    CL-39071   7.874  21.528   0.963
79778CL-    CL-39072   9.797  21.744  10.481
79779CL-    CL-39073   5.374  21.061  14.505
79780CL-    CL-39074  35.083  25.701  11.515
79781CL-    CL-39075  27.641  13.745  11.510
79782CL-    CL-39076  27.121  24.702  12.087
79783CL-    CL-39077  28.592  16.679   4.139
79784CL-    CL-39078  26.051  14.126   2.688
79785CL-    CL-39079   8.687  24.507   3.157
79786CL-    CL-39080   1.351  26.073   1.697
79787CL-    CL-39081  43.773  20.071  12.426
79788CL-    CL-39082  26.027  31.016   2.419
79789CL-    CL-39083  16.570   6.679   1.347
79790CL-    CL-39084  10.744   1.943  12.533
79791CL-    CL-39085  18.284   6.851  11.443
79792CL-    CL-39086   8.869  12.678   3.672
79793CL-    CL-39087  13.178  41.908  12.470
79794CL-    CL-39088  15.238  19.719  14.909
79795CL-    CL-39089  15.716  26.522   1.423
79796CL-    CL-39090  12.331  12.678  10.919
79797CL-    CL-39091  12.798   3.879   2.319
79798CL-    CL-39092  22.139  34.495  11.391
79799CL-    CL-39093  25.120  32.404   3.165
79800CL-    CL-39094  34.461   6.403  14.314
79801CL-    CL-39095  40.505  39.820  10.409
79802CL-    CL-39096  21.027  25.988   4.709
79803CL-    CL-39097   5.411  34.061  13.792
79804CL-    CL-39098   0.985   8.322  10.537
79805CL-    CL-39099   2.819  40.319  11.474
79806CL-    CL-39100  16.195  14.292   2.338
79807CL-    CL-39101   2.465  12.781  14.883
79808CL-    CL-39102  36.556  39.968   1.724
79809CL-    CL-39103  39.832  20.081   1.445
79810CL-    CL-39104   4.751  18.209  14.500
79811CL-    CL-39105  13.613  41.480  13.332
79812CL-    CL-39106  41.941  44.326   3.757
79813CL-    CL-39107   6.921   8.172  12.029
79814CL-    CL-39108  20.204  39.981  13.858
79815CL-    CL-39109  25.188  21.210   1.912
79816CL-    CL-39110  26.114  29.636  12.389
79817CL-    CL-39111  29.166   7.246   2.831
79818CL-    CL-39112  34.506  42.795   4.670
79819CL-    CL-39113  14.619  35.048   1.223
79820CL-    CL-39114  33.387  27.058  14.437
79821CL-    CL-39115  12.624  43.417   2.737
79822CL-    CL-39116   4.777  23.114  11.446
79823CL-    CL-39117   1.287  43.985   3.696
79824CL-    CL-39118  12.738   3.804   4.801
79825CL-    CL-39119  17.252   6.725   0.951
79826CL-    CL-39120  24.497  11.276   3.690
79827CL-    CL-39121  18.726  26.017  13.836
79828CL-    CL-39122  15.615  37.048   4.333
79829CL-    CL-39123  44.920  17.208  12.947
79830CL-    CL-39124  38.038   7.780  13.843
79831CL-    CL-39125  38.407  23.072   1.449
79832CL-    CL-39126  29.615  21.700   4.711
79833CL-    CL-39127  25.991  12.152  14.008
79834CL-    CL-39128  37.404  36.588   0.289
79835CL-    CL-39129  14.139  11.323   1.237
79836CL-    CL-39130  12.679  24.205   0.434
79837CL-    CL-39131  21.576   4.286  10.405
79838CL-    CL-39132   8.725  21.518   3.290
79839CL-    CL-39133  29.160  10.304  11.860
79840CL-    CL-39134  36.411  20.047  13.898
  45.00000  45.00000  15.00000   0.00000   0.00000   0.00000   0.00000   0.00000   0.00000

